Protein in INSANE! Membrane UpperLeaflet>POPC=1.0 LowerLeaflet>POPC=1.0
11125
    1AU     AUC    1   5.297   8.351   6.251 -0.0192 -0.0891  0.0852
    1AU     AUC    2   5.014   8.441   6.073 -0.0080 -0.0390  0.0719
    1AU     AUC    3   5.196   8.147   6.042  0.0365 -0.0125 -0.0499
    1AU     AUC    4   5.396   8.524   6.486 -0.0074  0.0294  0.0614
    1AU     AUC    5   5.590   8.247   6.347  0.0386 -0.0231  0.0102
    1AU     AUC    6   5.559   8.512   6.188 -0.0132  0.0919 -0.0930
    1AU     AUC    7   5.323   8.453   5.934 -0.0720 -0.0614  0.0273
    1AU     AUC    8   5.281   8.230   6.525  0.0104 -0.0951  0.0951
    1AU     AUC    9   5.021   8.163   6.340  0.0489  0.0363 -0.0388
    1AU     AUC   10   5.329   8.004   6.266  0.0144 -0.0747  0.1022
    1AU     AUC   11   5.504   8.214   6.060 -0.0858  0.0119 -0.0081
    1AU     AUC   12   5.064   8.495   6.418  0.0531  0.0721  0.0746
    1AU     AUC   13   5.256   8.634   6.200 -0.0991  0.0015  0.0781
    1AU     AUC   14   4.691   8.505   5.880 -0.0208 -0.0287  0.0096
    1AU     AUC   15   4.846   8.204   5.827  0.0724  0.0934  0.0223
    1AU     AUC   16   5.041   7.905   5.798 -0.0146 -0.1111  0.0104
    1AU     AUC   17   5.524   8.726   6.751 -0.0533 -0.0054  0.0098
    1AU     AUC   18   5.773   8.417   6.651  0.0697 -0.0212  0.0462
    1AU     AUC   19   5.911   8.132   6.473  0.0328 -0.0135 -0.0546
    1AU     AUC   20   5.852   8.698   6.084 -0.0824 -0.0052  0.0305
    1AU     AUC   21   5.607   8.663   5.840 -0.0506  0.0034 -0.1541
    1AU     AUC   22   5.306   8.547   5.593  0.0309 -0.0172 -0.0604
    1AU     AUC   23   5.288   8.122   6.854  0.0663  0.0546  0.0319
    1AU     AUC   24   5.001   8.038   6.651 -0.0743  0.1008  0.0170
    1AU     AUC   25   4.744   7.986   6.399 -0.0074 -0.0636 -0.1108
    1AU     AUC   26   5.383   7.663   6.331  0.0669 -0.0841  0.0826
    1AU     AUC   27   5.562   7.812   6.071 -0.0092  0.0211 -0.0228
    1AU     AUC   28   5.703   8.013   5.856  0.1069  0.0136  0.0406
    1AU     AUC   29   4.844   8.616   6.597  0.0640  0.0651  0.0350
    1AU     AUC   30   5.003   8.836   6.396  0.0593  0.0923  0.0156
    1AU     AUC   31   5.206   8.957   6.176 -0.0186  0.0375  0.0863
    1AU     AUC   32   5.194   7.726   6.093  0.0006 -0.0159 -0.0042
    1AU     AUC   33   5.370   7.887   5.795  0.0280 -0.0111  0.0250
    1AU     AUC   34   4.756   8.621   6.226 -0.0426  0.0234 -0.0316
    1AU     AUC   35   4.954   8.766   5.989  0.0426 -0.0255  0.0174
    1AU     AUC   36   5.689   7.906   6.371  0.0084 -0.0165 -0.0447
    1AU     AUC   37   5.873   8.100   6.111  0.1149  0.0231  0.0513
    1AU     AUC   38   5.188   8.668   6.706 -0.0322  0.0756 -0.0693
    1AU     AUC   39   5.357   8.878   6.526 -0.0600  0.0880  0.1580
    1AU     AUC   40   4.986   8.517   5.687  0.0376  0.1551  0.0644
    1AU     AUC   41   5.204   8.207   5.692  0.0575 -0.0867 -0.0012
    1AU     AUC   42   5.752   8.692   6.443 -0.0809 -0.0073 -0.1184
    1AU     AUC   43   5.908   8.449   6.294 -0.0128  0.0806 -0.0613
    1AU     AUC   44   4.721   8.254   6.163 -0.0543 -0.0348 -0.0524
    1AU     AUC   45   4.889   7.941   6.127 -0.0579 -0.0389  0.0694
    1AU     AUC   46   5.419   8.386   6.852  0.0387  0.0715  0.0574
    1AU     AUC   47   5.595   8.121   6.673 -0.0096  0.0354 -0.0080
    1AU     AUC   48   5.793   8.410   5.912 -0.0114  0.0174 -0.0610
    1AU     AUC   49   5.543   8.281   5.721 -0.0740  0.0111 -0.0375
    1AU     AUC   50   5.334   7.885   6.588 -0.1446  0.0845 -0.0094
    1AU     AUC   51   5.051   7.816   6.435 -0.1240 -0.0031  0.0232
    1AU     AUC   52   5.536   8.848   6.163  0.0087 -0.0213  0.0447
    1AU     AUC   53   5.278   8.779   5.858  0.0427 -0.0139  0.0393
    1AU     AUC   54   5.046   8.372   6.774 -0.0174  0.0189 -0.0899
    1AU     AUC   55   4.773   8.321   6.479  0.0685 -0.0466 -0.0017
    1AU    AUSL   56   5.193   7.526   5.754 -0.0389  0.0454  0.0842
    1AU    AUSL   57   5.102   7.423   6.208 -0.0045  0.1536  0.0097
    1AU     AUL   58   4.999   7.234   5.835 -0.0457 -0.0011 -0.0207
    1AU       S   59   4.765   7.127   6.270 -0.0145 -0.1276  0.2552
    1AU     LIG   60   4.697   6.698   6.335  0.0011 -0.2207  0.0104
    1AU     LIG   61   4.695   6.392   6.198  0.3052 -0.0151 -0.0232
    1AU     LIG   62   4.814   6.171   5.998  0.2027  0.1470  0.0876
    1AU     LIG   63   5.218   5.914   6.046  0.2414 -0.0985 -0.1227
    1AU       S   64   5.430   7.060   5.735  0.5465 -0.1853  0.2677
    1AU     LIG   65   5.558   6.633   5.685  0.0281 -0.1309  0.0013
    1AU     LIG   66   5.570   6.257   6.005 -0.1916  0.2165 -0.5174
    1AU     LIG   67   5.870   6.192   6.226 -0.3348 -0.0196 -0.1804
    1AU     LIG   68   6.107   5.892   6.484  0.3456 -0.2017 -0.1253
    1AU    AUSL   69   5.515   7.426   6.078 -0.0923  0.0768  0.0627
    1AU    AUSL   70   5.939   7.666   5.916 -0.0306 -0.0029  0.0098
    1AU     AUL   71   5.810   7.341   5.804  0.0497  0.0187  0.0512
    1AU       S   72   5.476   7.101   6.079  0.2498 -0.2084 -0.0940
    1AU     LIG   73   5.689   6.722   6.145  0.0115 -0.1126  0.1241
    1AU     LIG   74   6.119   6.632   6.096  0.3447  0.0529  0.0906
    1AU     LIG   75   6.626   6.516   6.102  0.3418  0.0296 -0.3801
    1AU     LIG   76   6.938   6.390   5.744 -0.3676 -0.2645  0.0376
    1AU       S   77   6.160   7.348   6.129  0.3742  0.0984 -0.1759
    1AU     LIG   78   6.428   7.168   5.803 -0.1022  0.0828 -0.0812
    1AU     LIG   79   6.519   7.164   5.308  0.0673 -0.0599 -0.2635
    1AU     LIG   80   6.035   7.153   5.214  0.0266 -0.1641 -0.0240
    1AU     LIG   81   5.590   7.327   4.931 -0.1298  0.2829  0.1582
    1AU    AUSL   82   5.549   7.794   5.847 -0.0467 -0.0167  0.0550
    1AU    AUSL   83   5.256   7.812   5.440  0.0253  0.0817  0.1166
    1AU     AUL   84   5.453   7.515   5.571  0.0113  0.0331 -0.0314
    1AU       S   85   6.004   7.583   5.453 -0.0786  0.3617 -0.0645
    1AU     LIG   86   6.271   7.597   5.264 -0.0956 -0.1257 -0.0698
    1AU     LIG   87   6.444   7.553   4.868  0.4070 -0.3142 -0.3738
    1AU     LIG   88   6.403   7.534   4.346 -0.2928 -0.1979 -0.1948
    1AU     LIG   89   6.575   7.381   3.955 -0.1943 -0.2589 -0.0367
    1AU       S   90   5.412   7.716   5.098  0.0824  0.2686 -0.4219
    1AU     LIG   91   5.105   7.382   4.843  0.3105  0.0441 -0.1196
    1AU     LIG   92   4.836   7.126   4.977 -0.1351  0.0975 -0.1225
    1AU     LIG   93   4.858   6.603   4.896  0.2870 -0.2392  0.1426
    1AU     LIG   94   4.842   6.339   4.543 -0.0455 -0.0016  0.1933
    1AU    AUSL   95   4.629   8.969   5.936  0.0478 -0.0148  0.0444
    1AU    AUSL   96   5.068   8.944   5.807  0.0460  0.0079 -0.1087
    1AU     AUL   97   4.855   9.242   5.788 -0.0388 -0.0267 -0.0238
    1AU       S   98   4.450   9.383   5.999 -0.1802 -0.0189 -0.0205
    1AU     LIG   99   3.975   9.376   6.036  0.1779 -0.0716 -0.1813
    1AU     LIG  100   3.528   9.148   5.954  0.0704 -0.1407 -0.1947
    1AU     LIG  101   3.267   8.870   6.145 -0.2623 -0.2115  0.2338
    1AU     LIG  102   3.157   8.792   6.580  0.3230  0.3425  0.3200
    1AU       S  103   4.836   9.141   5.345 -0.0651  0.0100 -0.1612
    1AU     LIG  104   4.810   9.587   5.250 -0.1855  0.1779  0.1540
    1AU     LIG  105   4.885   9.969   5.421 -0.0653 -0.1859 -0.2612
    1AU     LIG  106   4.706   9.970   5.746  0.4349 -0.1318 -0.2398
    1AU     LIG  107   4.567  10.224   6.144 -0.1755 -0.0189  0.5807
    1AU    AUSL  108   4.561   8.957   6.371 -0.0402 -0.0562 -0.0165
    1AU    AUSL  109   4.446   8.609   6.091  0.0270  0.0742 -0.0664
    1AU     AUL  110   4.340   8.913   6.107 -0.0640 -0.1051  0.0206
    1AU       S  111   4.012   8.585   6.174 -0.2760 -0.1667  0.0886
    1AU     LIG  112   3.597   8.461   6.259 -0.0787 -0.1302  0.0859
    1AU     LIG  113   3.143   8.388   6.161  0.2059  0.1748 -0.2118
    1AU     LIG  114   2.756   8.436   6.272 -0.5907 -0.0985 -0.1642
    1AU     LIG  115   2.619   8.632   6.621 -0.2273  0.1720  0.0632
    1AU       S  116   4.447   9.361   6.196  0.0257 -0.1302  0.1509
    1AU     LIG  117   4.190   9.837   6.155 -0.2843 -0.1541  0.2346
    1AU     LIG  118   4.089  10.238   6.248 -0.0479 -0.1153 -0.0788
    1AU     LIG  119   3.963  10.545   6.002 -0.0900  0.1199  0.1691
    1AU     LIG  120   3.998  10.664   5.646  0.1646 -0.1742  0.1913
    1AU    AUSL  121   4.965   9.036   6.220 -0.0520 -0.0360  0.0271
    1AU    AUSL  122   4.884   8.926   6.661 -0.0283 -0.0372 -0.0616
    1AU     AUL  123   4.697   9.175   6.537  0.0341 -0.0307 -0.0197
    1AU       S  124   4.871   9.384   6.919  0.0065 -0.1576  0.2773
    1AU     LIG  125   4.534   9.734   6.933 -0.1161  0.4912 -0.2598
    1AU     LIG  126   4.253   9.758   6.632 -0.0465  0.0751 -0.1819
    1AU     LIG  127   3.750   9.811   6.543  0.0227 -0.0120 -0.0975
    1AU     LIG  128   3.625   9.699   6.153 -0.2285  0.0729  0.0429
    1AU       S  129   4.772   9.464   6.175 -0.0868 -0.0392 -0.1417
    1AU     LIG  130   4.683   9.880   6.458 -0.1040 -0.1895 -0.3861
    1AU     LIG  131   4.764  10.179   6.837  0.1715 -0.1813 -0.0548
    1AU     LIG  132   4.892  10.168   7.284  0.0757 -0.2037  0.1394
    1AU     LIG  133   4.964   9.718   7.235 -0.0505  0.0326  0.1827
    1AU    AUSL  134   6.130   7.827   6.289 -0.0268 -0.0455 -0.0140
    1AU    AUSL  135   6.033   8.098   5.908  0.0713  0.0381  0.1279
    1AU     AUL  136   6.238   7.785   5.860  0.0304 -0.1501 -0.0213
    1AU       S  137   6.337   7.546   6.233 -0.3960  0.3261 -0.1375
    1AU     LIG  138   6.747   7.329   6.146 -0.4884 -0.0303 -0.0623
    1AU     LIG  139   7.163   7.132   6.357  0.1265 -0.1116  0.0610
    1AU     LIG  140   7.487   6.919   6.363  0.1487  0.0466  0.1350
    1AU     LIG  141   7.710   6.772   6.695  0.0839 -0.0138 -0.0228
    1AU       S  142   6.413   8.228   5.937 -0.0551  0.2575  0.3067
    1AU     LIG  143   6.990   8.140   5.867 -0.3623 -0.0974 -0.1361
    1AU     LIG  144   7.368   8.308   5.689  0.4003  0.0471 -0.0229
    1AU     LIG  145   7.763   8.472   5.421 -0.3262 -0.2629  0.2194
    1AU     LIG  146   8.152   8.596   5.273 -0.2607 -0.2246  0.1722
    1AU    AUSL  147   5.691   7.739   6.286 -0.0445 -0.1355 -0.0337
    1AU    AUSL  148   5.928   7.800   6.688 -0.0602  0.0280  0.0389
    1AU     AUL  149   6.046   7.632   6.559 -0.0449  0.0382  0.0329
    1AU       S  150   5.988   7.453   6.984  0.0593  0.0940 -0.1236
    1AU     LIG  151   6.151   6.999   7.050  0.0674  0.2736 -0.2823
    1AU     LIG  152   6.289   6.756   7.338 -0.0008 -0.0046  0.2842
    1AU     LIG  153   6.299   6.757   7.828  0.0393 -0.0322  0.1516
    1AU     LIG  154   6.207   6.491   8.209  0.0252 -0.3091 -0.1032
    1AU       S  155   5.928   7.311   6.249 -0.0051  0.1434 -0.5217
    1AU     LIG  156   6.345   7.152   6.541 -0.7133  0.1120  0.0744
    1AU     LIG  157   6.695   6.840   6.478  0.1073 -0.0438  0.0253
    1AU     LIG  158   6.905   6.378   6.595  0.0318 -0.0506 -0.3842
    1AU     LIG  159   6.650   6.006   6.569 -0.3280 -0.1752  0.2301
    1AU    AUSL  160   5.235   8.998   6.895 -0.0971 -0.0677  0.0735
    1AU    AUSL  161   4.983   8.620   6.936  0.0546 -0.0607 -0.0171
    1AU     AUL  162   4.821   8.897   6.978 -0.0739  0.0201  0.0035
    1AU       S  163   5.071   9.273   7.104  0.0837 -0.1249 -0.0717
    1AU     LIG  164   4.879   9.333   7.490 -0.0375  0.0604 -0.1479
    1AU     LIG  165   4.696   9.212   7.865  0.0917  0.1135 -0.0170
    1AU     LIG  166   4.448   9.451   8.115 -0.2003  0.0205 -0.1064
    1AU     LIG  167   4.085   9.517   8.187  0.3179 -0.0156 -0.0461
    1AU       S  168   5.120   8.770   7.315  0.4016  0.0525 -0.1900
    1AU     LIG  169   4.985   8.880   7.739 -0.1284  0.0764 -0.0787
    1AU     LIG  170   4.945   8.913   8.151 -0.2452 -0.1793  0.4283
    1AU     LIG  171   4.641   9.083   8.407 -0.0204  0.2990 -0.0451
    1AU     LIG  172   4.166   9.110   8.423  0.1515  0.2258  0.3614
    1AU    AUSL  173   5.165   9.256   6.528  0.0761  0.0377 -0.1028
    1AU    AUSL  174   5.660   9.073   6.735 -0.0161 -0.0793 -0.0840
    1AU     AUL  175   5.389   9.286   6.738  0.0372 -0.0641  0.0392
    1AU       S  176   5.836   9.395   6.861 -0.1662 -0.0841  0.1794
    1AU     LIG  177   6.180   9.657   7.103  0.4199  0.2200  0.1458
    1AU     LIG  178   6.275  10.003   6.743 -0.3345 -0.1320 -0.1271
    1AU     LIG  179   6.244  10.486   6.865 -0.0453 -0.1714 -0.5048
    1AU     LIG  180   6.186  10.757   6.717  0.1452 -0.2176  0.0222
    1AU       S  181   5.001   9.494   6.702 -0.1783 -0.1205  0.0208
    1AU     LIG  182   5.126   9.894   6.721 -0.2279  0.1213  0.5092
    1AU     LIG  183   5.298  10.322   6.677 -0.1531 -0.1068  0.0971
    1AU     LIG  184   5.443  10.508   6.416 -0.0912  0.3618  0.0619
    1AU     LIG  185   5.374  11.037   6.436 -0.4129  0.0292  0.0870
    1AU    AUSL  186   5.023   8.386   5.345  0.0915  0.0453 -0.0293
    1AU    AUSL  187   4.761   8.684   5.636  0.0792 -0.0119 -0.0667
    1AU     AUL  188   4.773   8.596   5.192 -0.0435 -0.0609  0.0343
    1AU       S  189   4.697   8.965   5.451 -0.2433 -0.0976  0.2322
    1AU     LIG  190   4.378   9.222   5.221  0.1903  0.0452  0.1573
    1AU     LIG  191   4.332   9.486   4.923  0.3022  0.1715  0.1725
    1AU     LIG  192   4.300   9.837   4.713 -0.0824 -0.2387  0.0637
    1AU     LIG  193   4.325  10.125   4.358 -0.0608  0.2532  0.2265
    1AU       S  194   4.826   8.159   4.997  0.4110 -0.2706  0.2221
    1AU     LIG  195   4.963   7.841   4.678  0.1956  0.0958  0.0031
    1AU     LIG  196   4.948   7.543   4.334  0.3573 -0.0932  0.0745
    1AU     LIG  197   4.712   7.199   4.091  0.0754 -0.0223  0.1909
    1AU     LIG  198   4.486   6.907   3.858 -0.0261 -0.0502 -0.0922
    1AU    AUSL  199   4.609   8.304   5.503 -0.0206  0.1239  0.0473
    1AU    AUSL  200   4.615   7.875   5.728 -0.0112  0.0845 -0.0521
    1AU     AUL  201   4.353   8.082   5.557  0.0032 -0.0191 -0.0224
    1AU       S  202   4.653   8.134   5.176  0.1573 -0.3217 -0.4022
    1AU     LIG  203   4.360   8.038   4.877 -0.1934 -0.3067  0.0660
    1AU     LIG  204   4.063   7.700   4.801 -0.0581 -0.0116  0.1935
    1AU     LIG  205   3.767   7.516   4.941  0.0197 -0.1533 -0.1217
    1AU     LIG  206   3.385   7.499   5.208 -0.6047 -0.2677  0.2043
    1AU       S  207   4.195   7.668   5.788  0.2791  0.4165  0.2700
    1AU     LIG  208   4.085   7.227   5.836 -0.4170 -0.1263 -0.1987
    1AU     LIG  209   3.900   6.747   5.920  0.4201 -0.2366 -0.2927
    1AU     LIG  210   3.625   6.617   6.201  0.0713  0.3026  0.0945
    1AU     LIG  211   3.246   6.714   6.409 -0.2421  0.0935 -0.2746
    1AU    AUSL  212   4.966   8.069   5.614 -0.0267 -0.0470  0.0477
    1AU    AUSL  213   5.379   8.233   5.510  0.0201  0.0026  0.0655
    1AU     AUL  214   5.190   8.107   5.256 -0.1074 -0.0822  0.0138
    1AU       S  215   5.541   7.938   5.005  0.1313 -0.2628 -0.0693
    1AU     LIG  216   5.565   8.179   4.701 -0.2716 -0.1338  0.2644
    1AU     LIG  217   5.304   8.115   4.275  0.0363  0.2930 -0.3278
    1AU     LIG  218   5.243   7.943   3.839 -0.2952  0.0559 -0.2792
    1AU     LIG  219   5.277   7.830   3.416 -0.2154  0.2154  0.1466
    1AU       S  220   4.774   7.927   5.273  0.0321  0.2396  0.0155
    1AU     LIG  221   4.581   7.619   5.043  0.0572  0.1074  0.4254
    1AU     LIG  222   4.183   7.538   5.293  0.0252  0.0615 -0.1505
    1AU     LIG  223   3.861   7.570   5.473 -0.0923  0.0665 -0.0373
    1AU     LIG  224   3.681   7.540   5.934  0.1939 -0.2010  0.0196
    1AU    AUSL  225   6.110   8.730   6.331  0.0219  0.0712 -0.0576
    1AU    AUSL  226   6.096   8.243   6.295  0.0054 -0.0216 -0.0126
    1AU     AUL  227   6.450   8.503   6.311 -0.0839 -0.0614  0.0295
    1AU       S  228   6.482   8.082   6.153 -0.0663  0.3271 -0.5411
    1AU     LIG  229   6.793   7.842   6.295 -0.0304 -0.1349 -0.3000
    1AU     LIG  230   7.176   8.088   6.364 -0.0698 -0.1298 -0.0065
    1AU     LIG  231   7.441   8.489   6.193 -0.2515 -0.0556  0.1590
    1AU     LIG  232   7.866   8.536   5.873 -0.0381  0.0501  0.0152
    1AU       S  233   6.320   8.949   6.191  0.0198 -0.2924 -0.6721
    1AU     LIG  234   6.656   9.267   6.279  0.1000 -0.1574  0.3229
    1AU     LIG  235   7.043   9.444   6.387  0.3518 -0.1723  0.2387
    1AU     LIG  236   7.451   9.372   6.416 -0.0046  0.2157 -0.0734
    1AU     LIG  237   7.923   9.412   6.255 -0.2172  0.1227 -0.3067
    1AU    AUSL  238   5.795   8.689   6.654 -0.0489 -0.0524 -0.0323
    1AU    AUSL  239   5.882   9.082   6.355  0.0284 -0.0287  0.0072
    1AU     AUL  240   6.037   9.001   6.623  0.0346 -0.0344 -0.0282
    1AU       S  241   5.729   8.958   7.181 -0.1978 -0.3222 -0.6026
    1AU     LIG  242   5.938   9.253   7.397 -0.0139  0.1036 -0.1254
    1AU     LIG  243   6.068   9.525   7.652 -0.1054 -0.0013  0.2982
    1AU     LIG  244   6.181   9.895   7.555 -0.2515  0.0364  0.4622
    1AU     LIG  245   6.377  10.300   7.424  0.1208 -0.0745  0.0883
    1AU       S  246   6.057   9.390   6.368 -0.3265  0.1916  0.1643
    1AU     LIG  247   6.358   9.524   6.606 -0.1176  0.0469  0.3169
    1AU     LIG  248   6.644   9.414   6.893  0.1986 -0.3302  0.0144
    1AU     LIG  249   6.967   9.118   6.761 -0.2929  0.0700 -0.0840
    1AU     LIG  250   7.047   8.872   6.399  0.1934 -0.5462 -0.0676
    1AU    AUSL  251   6.173   8.426   6.667  0.0087 -0.0862 -0.0218
    1AU    AUSL  252   5.830   8.512   7.042 -0.0457 -0.0044 -0.0984
    1AU     AUL  253   6.081   8.685   6.962 -0.1193  0.0160  0.0290
    1AU       S  254   6.088   8.233   7.151 -0.1547  0.5335 -0.4535
    1AU     LIG  255   6.596   8.197   7.180 -0.2745  0.1643  0.0118
    1AU     LIG  256   6.875   8.100   6.843 -0.3286 -0.0470 -0.0146
    1AU     LIG  257   7.180   7.786   6.735 -0.0630 -0.3337  0.0455
    1AU     LIG  258   7.541   7.345   6.682  0.1769  0.1155  0.1172
    1AU       S  259   6.417   8.405   6.776 -0.0554  0.3433  0.1711
    1AU     LIG  260   6.897   8.636   6.813  0.2622  0.4043  0.2754
    1AU     LIG  261   7.348   8.579   6.739 -0.0346  0.3193 -0.0360
    1AU     LIG  262   7.529   8.249   6.733 -0.1327 -0.2392  0.0240
    1AU     LIG  263   7.607   7.818   6.541  0.4099  0.0564  0.2392
    1AU    AUSL  264   4.522   7.890   6.165  0.0147 -0.0444  0.0344
    1AU    AUSL  265   4.939   7.764   6.000  0.0232 -0.0721 -0.0331
    1AU     AUL  266   4.631   7.604   5.884 -0.0785 -0.0267  0.0091
    1AU       S  267   4.265   7.781   6.138 -0.0030  0.0664  0.1696
    1AU     LIG  268   4.069   7.457   6.258  0.2802  0.0190 -0.0902
    1AU     LIG  269   3.794   7.140   6.612 -0.2209 -0.0681 -0.3280
    1AU     LIG  270   3.661   6.746   6.756 -0.0329 -0.1166  0.2332
    1AU     LIG  271   3.675   6.241   6.578 -0.2290 -0.4314  0.3608
    1AU       S  272   4.605   7.264   6.172  0.0592 -0.2340  0.2881
    1AU     LIG  273   4.408   6.798   5.876  0.1012 -0.0504  0.2226
    1AU     LIG  274   4.320   6.362   5.846 -0.0393 -0.1984 -0.2979
    1AU     LIG  275   3.967   6.193   6.053  0.2146  0.0111 -0.2430
    1AU     LIG  276   3.618   6.095   5.872  0.1454 -0.4273 -0.3464
    1AU    AUSL  277   4.603   8.256   5.938  0.0707  0.0607  0.1094
    1AU    AUSL  278   4.370   8.247   6.334  0.0779 -0.0015 -0.0041
    1AU     AUL  279   4.279   8.244   6.024 -0.0193 -0.0083  0.0068
    1AU       S  280   4.159   7.790   5.890 -0.1052 -0.2479  0.2551
    1AU     LIG  281   3.754   8.008   5.650  0.3031  0.0530  0.2744
    1AU     LIG  282   3.394   8.297   5.692 -0.2848  0.3564  0.5046
    1AU     LIG  283   3.002   8.347   5.564  0.0769 -0.1253 -0.0944
    1AU     LIG  284   2.606   8.515   5.801 -0.0052  0.4031 -0.3872
    1AU       S  285   4.024   8.406   6.411 -0.1019  0.3378 -0.6739
    1AU     LIG  286   3.719   8.397   6.725 -0.1375  0.4028  0.0159
    1AU     LIG  287   3.509   8.808   6.906 -0.0325 -0.1927 -0.5908
    1AU     LIG  288   3.759   9.137   6.907  0.2505 -0.0153 -0.2170
    1AU     LIG  289   4.025   9.265   6.610  0.1809 -0.2106 -0.0251
    1AU    AUSL  290   5.568   8.150   7.081 -0.0477  0.0355  0.0154
    1AU    AUSL  291   5.426   8.616   6.966  0.0632  0.0798 -0.0322
    1AU     AUL  292   5.632   8.454   7.264  0.0441  0.0168  0.0721
    1AU       S  293   5.288   8.752   7.288  0.1013  0.0516  0.0691
    1AU     LIG  294   5.387   9.118   7.534  0.0207 -0.1628 -0.2182
    1AU     LIG  295   5.505   9.484   7.320 -0.3229 -0.0925  0.0875
    1AU     LIG  296   5.695   9.754   7.346 -0.1924 -0.2455 -0.1766
    1AU     LIG  297   5.970  10.139   7.102  0.2195 -0.2684 -0.1169
    1AU       S  298   5.972   8.101   7.266  0.0038  0.3789 -0.4717
    1AU     LIG  299   5.834   7.907   7.639 -0.2561  0.2897  0.0037
    1AU     LIG  300   5.612   7.648   8.003  0.0148  0.0438  0.0990
    1AU     LIG  301   5.327   7.568   7.889  0.2225 -0.0052  0.0891
    1AU     LIG  302   5.053   7.642   7.713 -0.2881  0.3443  0.1887
    1AU    AUSL  303   5.815   8.206   6.735 -0.0674  0.0272  0.0733
    1AU    AUSL  304   5.516   7.856   6.773  0.0031  0.0513 -0.0154
    1AU     AUL  305   5.717   7.840   6.995 -0.1513  0.0763 -0.0020
    1AU       S  306   5.818   7.395   7.014 -0.1039 -0.1747  0.0926
    1AU     LIG  307   5.677   6.902   7.077 -0.0499  0.0005  0.3102
    1AU     LIG  308   5.412   6.666   7.428  0.5610  0.0007  0.1311
    1AU     LIG  309   5.529   6.220   7.547  0.2258 -0.3062  0.3445
    1AU     LIG  310   5.363   5.899   7.725 -0.2129  0.2229 -0.2249
    1AU       S  311   6.114   8.125   7.007  0.2915  0.2528  0.0408
    1AU     LIG  312   6.334   7.737   7.231 -0.3478  0.0649  0.4007
    1AU     LIG  313   6.588   7.592   7.469  0.1345  0.1183 -0.2041
    1AU     LIG  314   7.022   7.411   7.564 -0.0224  0.3714  0.1539
    1AU     LIG  315   7.390   7.573   7.722 -0.0795  0.0945 -0.1715
    1AU    AUSL  316   5.834   8.335   5.632  0.0178 -0.0126 -0.0069
    1AU    AUSL  317   6.099   8.546   5.947 -0.0218  0.0167 -0.0180
    1AU     AUL  318   6.103   8.256   5.597 -0.0835 -0.0277 -0.0165
    1AU       S  319   6.360   8.591   5.838  0.0494 -0.0543  0.0850
    1AU     LIG  320   6.642   8.958   5.858 -0.0667 -0.0359 -0.0419
    1AU     LIG  321   6.803   9.277   5.711 -0.4064  0.1726 -0.1419
    1AU     LIG  322   7.198   9.210   5.891  0.0999 -0.1140 -0.3385
    1AU     LIG  323   7.526   8.980   6.045 -0.3258 -0.2024  0.0757
    1AU       S  324   6.085   8.542   5.257 -0.1937  0.0819  0.0306
    1AU     LIG  325   6.601   8.658   5.295  0.3901 -0.3758  0.1382
    1AU     LIG  326   6.830   8.565   5.688  0.2242  0.1125 -0.1999
    1AU     LIG  327   7.164   8.701   5.825 -0.1485 -0.0582 -0.0525
    1AU     LIG  328   7.515   8.858   5.560  0.0628  0.1754 -0.0379
    1AU    AUSL  329   5.922   8.763   5.641 -0.1100  0.1405 -0.0210
    1AU    AUSL  330   5.492   8.907   5.658 -0.0094 -0.1322 -0.0244
    1AU     AUL  331   5.724   9.027   5.429 -0.1309 -0.0738  0.0212
    1AU       S  332   6.066   8.733   5.478 -0.1343  0.0488  0.2052
    1AU     LIG  333   6.400   9.106   5.429  0.3369  0.3252  0.2035
    1AU     LIG  334   6.583   9.535   5.375 -0.2302 -0.1751  0.2528
    1AU     LIG  335   6.611  10.001   5.433 -0.0882  0.0600 -0.0264
    1AU     LIG  336   6.296  10.374   5.419 -0.0773 -0.1957  0.4956
    1AU       S  337   5.790   9.295   5.827  0.0806 -0.0385  0.1875
    1AU     LIG  338   6.004   9.667   6.011 -0.2655 -0.1104 -0.1222
    1AU     LIG  339   6.113  10.098   5.876 -0.1835 -0.2836 -0.1700
    1AU     LIG  340   6.113  10.467   6.154  0.2765  0.2297  0.2422
    1AU     LIG  341   5.924  10.752   6.263  0.4666 -0.2973  0.0941
    1AU    AUSL  342   5.572   8.586   5.391  0.0129 -0.0313  0.0859
    1AU    AUSL  343   5.725   7.947   5.490 -0.0343  0.1057  0.0394
    1AU     AUL  344   5.685   8.271   5.278 -0.0465  0.0202  0.0180
    1AU       S  345   5.634   7.796   5.192 -0.2279  0.5701  0.1601
    1AU     LIG  346   5.974   7.698   4.907 -0.1314  0.2252 -0.1216
    1AU     LIG  347   5.948   7.378   4.567  0.1360  0.1502  0.2548
    1AU     LIG  348   6.236   7.056   4.669 -0.0246 -0.1603 -0.0722
    1AU     LIG  349   6.565   6.934   4.355  0.0293  0.1967  0.3329
    1AU       S  350   5.858   8.668   5.151  0.1105  0.3082  0.1904
    1AU     LIG  351   5.674   8.715   4.752 -0.3912 -0.0805 -0.0416
    1AU     LIG  352   5.587   8.853   4.267 -0.1266  0.1165  0.2275
    1AU     LIG  353   5.689   8.913   3.862 -0.1605  0.1863  0.3112
    1AU     LIG  354   5.684   8.671   3.414  0.0828 -0.1526 -0.2167
    1AU    AUSL  355   5.177   7.617   6.595  0.0983 -0.0428  0.0364
    1AU    AUSL  356   4.774   7.661   6.407  0.0409  0.0696 -0.0321
    1AU     AUL  357   5.089   7.338   6.482  0.0240 -0.0450 -0.0723
    1AU       S  358   4.960   7.308   6.949  0.3650  0.1542  0.2008
    1AU     LIG  359   4.693   6.936   6.771  0.2898  0.2118 -0.2855
    1AU     LIG  360   4.492   6.491   6.745  0.0527 -0.1903 -0.0242
    1AU     LIG  361   4.642   6.033   6.702  0.2060  0.1686  0.2295
    1AU     LIG  362   4.949   5.738   6.945 -0.0603  0.1131 -0.1988
    1AU       S  363   4.619   7.413   6.373 -0.0929  0.1173  0.3404
    1AU     LIG  364   4.291   7.019   6.426  0.1714 -0.2004  0.0864
    1AU     LIG  365   4.056   6.655   6.395 -0.0089  0.3104 -0.1308
    1AU     LIG  366   4.209   6.162   6.436  0.1690 -0.2822  0.1053
    1AU     LIG  367   4.338   5.901   6.114  0.1828  0.0852  0.0381
    1AU    AUSL  368   5.189   7.810   7.044 -0.0781 -0.0076  0.0092
    1AU    AUSL  369   5.583   7.464   6.577  0.0033  0.0311 -0.0201
    1AU     AUL  370   5.369   7.531   6.870 -0.0298  0.0411  0.0326
    1AU       S  371   5.010   7.442   7.199 -0.1363  0.2899 -0.3447
    1AU     LIG  372   5.058   6.941   7.228  0.2809  0.2328 -0.1659
    1AU     LIG  373   5.222   6.798   6.883 -0.1049  0.0496 -0.3435
    1AU     LIG  374   5.126   6.629   6.491  0.2512  0.0808  0.0004
    1AU     LIG  375   5.166   6.596   6.102 -0.3518 -0.3428  0.0065
    1AU       S  376   5.788   7.305   6.787 -0.5241  0.1482  0.5001
    1AU     LIG  377   5.954   6.896   6.648 -0.2762 -0.1965  0.2774
    1AU     LIG  378   5.771   6.533   6.715  0.0612 -0.1063  0.0266
    1AU     LIG  379   5.484   6.305   6.493 -0.3881  0.2095 -0.1731
    1AU     LIG  380   5.052   6.153   6.463  0.3250 -0.1402  0.0614
    1AU    AUSL  381   4.807   7.741   6.805 -0.0088  0.0271 -0.0391
    1AU    AUSL  382   4.983   8.155   6.861  0.0562  0.0362  0.0345
    1AU     AUL  383   4.904   7.919   7.097  0.0354  0.0147 -0.0475
    1AU       S  384   4.450   7.911   7.039 -0.1462  0.0475  0.0035
    1AU     LIG  385   4.361   7.618   7.300 -0.1318  0.1644 -0.2906
    1AU     LIG  386   4.634   7.433   7.614  0.0878 -0.0190 -0.3003
    1AU     LIG  387   4.607   7.294   8.008 -0.0515  0.0473 -0.2637
    1AU     LIG  388   4.324   7.344   8.280 -0.4542 -0.1221 -0.0588
    1AU       S  389   4.764   7.469   6.852 -0.3305 -0.7120 -0.2422
    1AU     LIG  390   4.336   7.344   6.805  0.3628 -0.0507  0.0596
    1AU     LIG  391   4.140   6.877   6.877 -0.1730 -0.3334  0.1118
    1AU     LIG  392   4.075   6.452   7.012  0.4014 -0.0321  0.2243
    1AU     LIG  393   4.096   6.241   7.433  0.0283  0.1017  0.0009
    1AU    AUSL  394   5.357   9.189   5.990  0.0636 -0.0900  0.0218
    1AU    AUSL  395   5.146   8.796   5.421 -0.1373 -0.0540  0.0523
    1AU     AUL  396   5.277   9.159   5.552  0.1447  0.0110  0.0308
    1AU       S  397   5.591   9.399   5.803  0.0593 -0.0032  0.0561
    1AU     LIG  398   5.602   9.870   5.935  0.5037 -0.0652  0.0815
    1AU     LIG  399   5.723  10.062   6.310 -0.1458 -0.3769 -0.0426
    1AU     LIG  400   5.881  10.316   6.619 -0.0393  0.2349 -0.0143
    1AU     LIG  401   5.749  10.579   6.857 -0.0202 -0.0580 -0.1123
    1AU       S  402   5.047   8.988   5.209 -0.2281 -0.0621  0.2230
    1AU     LIG  403   4.858   9.186   4.839 -0.0032 -0.4417 -0.1144
    1AU     LIG  404   4.403   8.972   4.828 -0.1331  0.0455  0.0916
    1AU     LIG  405   4.371   8.546   4.727 -0.1586  0.0025  0.0055
    1AU     LIG  406   4.615   8.194   4.499 -0.1003 -0.1359 -0.1686
    1AU    AUSL  407   5.748   8.898   6.005  0.0580  0.0451 -0.0021
    1AU    AUSL  408   5.449   8.997   6.347  0.0166 -0.0201 -0.0290
    1AU     AUL  409   5.599   9.285   6.265  0.0182  0.0540  0.0514
    1AU       S  410   5.884   9.151   5.871  0.2459 -0.1044  0.2240
    1AU     LIG  411   6.252   9.280   5.866 -0.0291 -0.3064 -0.2357
    1AU     LIG  412   6.486   9.587   5.944  0.1954  0.2101  0.1746
    1AU     LIG  413   6.594   9.930   6.211 -0.3001 -0.0602  0.2269
    1AU     LIG  414   6.798   9.895   6.629  0.1674 -0.0901  0.1515
    1AU       S  415   5.846   9.487   6.609  0.0979  0.1354 -0.0358
    1AU     LIG  416   5.603   9.878   6.756 -0.2015  0.0429 -0.2279
    1AU     LIG  417   5.434  10.158   7.105  0.2433 -0.0081  0.0500
    1AU     LIG  418   5.121  10.544   7.047  0.1870 -0.0444 -0.0132
    1AU     LIG  419   4.892  10.928   6.900 -0.0357  0.1955  0.1775
    1AU    AUSL  420   4.618   8.398   6.900 -0.0685 -0.0647 -0.1169
    1AU    AUSL  421   5.176   8.315   7.187  0.0969 -0.0430 -0.0159
    1AU     AUL  422   4.810   8.391   7.162  0.1420  0.0328 -0.0424
    1AU       S  423   5.199   8.438   7.435 -0.2059  0.2085  0.0373
    1AU     LIG  424   4.949   8.371   7.809 -0.0290  0.1584 -0.0730
    1AU     LIG  425   4.928   7.988   8.054  0.1137  0.3365 -0.0724
    1AU     LIG  426   4.883   7.715   8.268 -0.2104  0.0844 -0.4187
    1AU     LIG  427   5.093   7.292   8.220  0.4721 -0.3136  0.0340
    1AU       S  428   4.440   8.098   7.036 -0.2827 -0.0262 -0.1937
    1AU     LIG  429   3.990   8.176   7.102 -0.2960  0.1565 -0.2522
    1AU     LIG  430   3.626   7.960   6.892 -0.0819  0.1822 -0.3031
    1AU     LIG  431   3.366   8.018   6.514  0.0102 -0.1591 -0.0750
    1AU     LIG  432   2.944   7.732   6.309 -0.0085 -0.0534 -0.2093
    1AU    AUSL  433   4.651   8.078   6.591 -0.0049  0.0162  0.0799
    1AU    AUSL  434   4.625   8.554   6.499  0.0505 -0.0683  0.0133
    1AU     AUL  435   4.383   8.383   6.685 -0.0141 -0.0594  0.0238
    1AU       S  436   4.370   7.905   6.740 -0.1886 -0.0979  0.1420
    1AU     LIG  437   3.995   7.791   6.587 -0.0758 -0.0888 -0.3164
    1AU     LIG  438   3.773   7.936   6.222 -0.1925 -0.1137  0.0923
    1AU     LIG  439   3.324   7.863   6.008 -0.2968  0.0159  0.0902
    1AU     LIG  440   2.844   7.992   5.895  0.0882 -0.0467 -0.4191
    1AU       S  441   4.111   8.675   6.450 -0.2059  0.0501 -0.2433
    1AU     LIG  442   3.764   8.940   6.386  0.1811 -0.2021 -0.0275
    1AU     LIG  443   3.406   9.231   6.466 -0.2138 -0.4295 -0.1140
    1AU     LIG  444   3.051   9.451   6.290 -0.1452  0.2415  0.2136
    1AU     LIG  445   2.684   9.537   6.092 -0.1830  0.0691 -0.1669
    2POPC   NC3  446   7.673   9.380   8.618  0.0252  0.1377  0.1333
    2POPC   PO4  447   7.835   8.912   8.721 -0.0302 -0.0321 -0.2315
    2POPC   GL1  448   7.683   8.797   8.381 -0.3876 -0.1905 -0.1243
    2POPC   GL2  449   7.824   8.629   8.111 -0.2845  0.0250  0.2427
    2POPC   C1A  450   7.348   8.660   8.104  0.0670  0.1703 -0.2468
    2POPC   D2A  451   6.975   8.451   8.398 -0.1425  0.1413  0.2640
    2POPC   C3A  452   6.689   8.265   8.049  0.2697  0.0917 -0.1342
    2POPC   C4A  453   6.352   8.058   8.150 -0.2052 -0.0428 -0.0558
    2POPC   C1B  454   7.750   8.838   7.664 -0.2202  0.0924  0.2924
    2POPC   C2B  455   7.595   8.738   7.310 -0.0177 -0.0959  0.2254
    2POPC   C3B  456   7.097   8.821   7.226 -0.0951 -0.0217 -0.1300
    2POPC   C4B  457   6.778   9.004   7.258  0.5092 -0.3485  0.0403
    3POPC   NC3  458   9.640   5.942   8.776  0.1250 -0.0159  0.1750
    3POPC   PO4  459   9.507   5.593   8.546  0.0639 -0.0399  0.0797
    3POPC   GL1  460   9.297   5.600   8.207  0.0006 -0.0594 -0.0265
    3POPC   GL2  461   9.411   5.820   7.908 -0.1331 -0.0847  0.0933
    3POPC   C1A  462   9.038   5.392   7.833 -0.0202 -0.1185  0.0617
    3POPC   D2A  463   8.614   5.573   7.651  0.1813  0.0075  0.0748
    3POPC   C3A  464   8.513   5.521   7.215  0.2222 -0.3453  0.0663
    3POPC   C4A  465   8.573   5.505   6.762 -0.4215  0.1103  0.4613
    3POPC   C1B  466   9.020   6.049   7.611  0.0491 -0.3080 -0.0689
    3POPC   C2B  467   8.895   6.199   7.175  0.0845 -0.0750 -0.1545
    3POPC   C3B  468   8.855   5.972   6.770 -0.1384 -0.2837  0.5142
    3POPC   C4B  469   9.098   6.256   6.547  0.1475  0.0364  0.4031
    4POPC   NC3  470   1.580   9.756   8.099  0.1483 -0.1941 -0.1920
    4POPC   PO4  471   1.140   9.886   8.163  0.0994 -0.0447  0.0804
    4POPC   GL1  472   1.152   9.661   7.749 -0.1169 -0.0934 -0.0482
    4POPC   GL2  473   1.472   9.669   7.556 -0.0668 -0.1272  0.0827
    4POPC   C1A  474   0.961   9.340   7.455  0.0235 -0.0809  0.3089
    4POPC   D2A  475   0.870   9.261   7.041 -0.3393  0.1000 -0.2264
    4POPC   C3A  476   0.915   9.462   6.666  0.0456  0.2907 -0.1238
    4POPC   C4A  477   0.921   9.245   6.188  0.0394  0.0667  0.0949
    4POPC   C1B  478   1.518   9.683   7.171 -0.1515  0.1342  0.1081
    4POPC   C2B  479   1.761   9.691   6.787 -0.0098  0.1620 -0.0922
    4POPC   C3B  480   1.861   9.712   6.393 -0.2242 -0.0037 -0.1913
    4POPC   C4B  481   1.853   9.762   6.019  0.2695 -0.2094 -0.3406
    5POPC   NC3  482   9.752   0.005   8.337 -0.0748  0.2884  0.4299
    5POPC   PO4  483  10.086  -0.352   8.284 -0.2323  0.1804  0.0365
    5POPC   GL1  484  10.116  -0.647   7.985  0.0701  0.0052 -0.1804
    5POPC   GL2  485   9.918  -0.867   8.042  0.2373  0.1574 -0.0686
    5POPC   C1A  486  10.278  -0.720   7.559  0.0826 -0.0176  0.0539
    5POPC   D2A  487  10.355  -0.472   7.326 -0.3268 -0.2040  0.2300
    5POPC   C3A  488  10.328  -0.428   6.816 -0.3514  0.1257 -0.0724
    5POPC   C4A  489  10.432  -0.360   6.355 -0.3309  0.3607  0.0680
    5POPC   C1B  490   9.783  -0.865   7.668 -0.4329 -0.0691 -0.2025
    5POPC   C2B  491   9.879  -0.669   7.230 -0.0846  0.0729  0.1051
    5POPC   C3B  492   9.862  -0.494   6.921  0.4696  0.0047 -0.0092
    5POPC   C4B  493   9.883  -0.297   6.508  0.0639  0.3464  0.0472
    6POPC   NC3  494   9.219   5.000   9.164  0.1935 -0.1245 -0.0159
    6POPC   PO4  495   9.135   5.189   8.789  0.0623 -0.1437 -0.3573
    6POPC   GL1  496   9.084   5.082   8.285  0.0659 -0.0080 -0.0844
    6POPC   GL2  497   9.369   4.905   8.060  0.0328 -0.1930  0.1144
    6POPC   C1A  498   8.866   4.902   7.961 -0.0520 -0.2992 -0.1139
    6POPC   D2A  499   8.746   5.097   7.542 -0.0440  0.0091 -0.1385
    6POPC   C3A  500   8.429   4.923   7.183 -0.0095 -0.0141 -0.1457
    6POPC   C4A  501   8.466   4.518   7.176 -0.0351 -0.0869  0.2421
    6POPC   C1B  502   9.268   4.967   7.593  0.0019  0.3124 -0.2205
    6POPC   C2B  503   9.321   5.294   7.328  0.1312 -0.0485  0.3304
    6POPC   C3B  504   9.596   5.456   7.046 -0.0664  0.1205  0.5240
    6POPC   C4B  505   9.817   5.913   7.120 -0.2411  0.2489 -0.4690
    7POPC   NC3  506   7.545   2.243   8.981 -0.2934 -0.0135 -0.1869
    7POPC   PO4  507   7.270   2.247   8.585  0.1482 -0.0430 -0.1456
    7POPC   GL1  508   7.445   2.150   8.146  0.2377 -0.2535  0.1924
    7POPC   GL2  509   7.421   2.482   8.152  0.0463  0.1015 -0.1509
    7POPC   C1A  510   7.561   2.157   7.734 -0.0300 -0.0898 -0.2470
    7POPC   D2A  511   7.641   2.244   7.264 -0.2247  0.0124  0.0009
    7POPC   C3A  512   7.440   2.059   6.897 -0.1076 -0.4039 -0.0592
    7POPC   C4A  513   7.184   1.607   6.735  0.0382 -0.1648 -0.0422
    7POPC   C1B  514   7.558   2.627   7.870 -0.0386  0.0598  0.2510
    7POPC   C2B  515   7.306   2.585   7.468 -0.2022 -0.1462 -0.2722
    7POPC   C3B  516   7.095   2.411   7.170  0.1327  0.0230 -0.3071
    7POPC   C4B  517   6.867   1.953   7.023  0.2305  0.2874 -0.0264
    8POPC   NC3  518   6.543   0.353   9.609 -0.0273 -0.1303 -0.2945
    8POPC   PO4  519   6.613   0.370   9.186  0.1234  0.0951  0.0733
    8POPC   GL1  520   6.561   0.305   8.736 -0.2275  0.3164 -0.1171
    8POPC   GL2  521   6.846   0.169   8.601 -0.0542 -0.0938  0.0631
    8POPC   C1A  522   6.268   0.346   8.473 -0.1181 -0.0833  0.2534
    8POPC   D2A  523   6.001   0.433   8.120  0.0482  0.1035  0.0111
    8POPC   C3A  524   5.957   0.706   7.821 -0.0389  0.1293 -0.3946
    8POPC   C4A  525   5.686   0.822   7.684 -0.3199 -0.1177 -0.0164
    8POPC   C1B  526   7.074   0.285   8.274  0.0635  0.0694 -0.1255
    8POPC   C2B  527   7.207   0.069   7.837  0.0640  0.1476  0.1063
    8POPC   C3B  528   7.224  -0.007   7.350  0.2147  0.1676 -0.1537
    8POPC   C4B  529   7.246   0.158   6.942  0.2382  0.1449  0.2416
    9POPC   NC3  530   9.315   9.182   8.727  0.1481 -0.2597 -0.1708
    9POPC   PO4  531   9.588   9.383   8.332  0.0619  0.3482 -0.1752
    9POPC   GL1  532   9.679   9.502   7.949 -0.0056  0.0884  0.1814
    9POPC   GL2  533   9.519   9.763   7.865 -0.3037  0.1562  0.3119
    9POPC   C1A  534   9.922   9.579   7.509 -0.0378 -0.1582 -0.2563
    9POPC   D2A  535  10.072   9.844   7.062 -0.2317 -0.2393 -0.1603
    9POPC   C3A  536   9.835  10.174   6.901 -0.5007  0.1155 -0.0948
    9POPC   C4A  537   9.486  10.270   6.819  0.0988 -0.2724 -0.0249
    9POPC   C1B  538   9.218   9.731   7.585  0.3524 -0.0951  0.0387
    9POPC   C2B  539   8.906   9.507   7.218  0.5802 -0.0844  0.0857
    9POPC   C3B  540   8.644   9.337   7.034 -0.2091 -0.1261  0.1857
    9POPC   C4B  541   8.363   9.217   6.753 -0.2445  0.2521 -0.0999
   10POPC   NC3  542   2.924   7.044   8.328  0.1431  0.0028  0.1702
   10POPC   PO4  543   2.600   6.652   8.325  0.1366  0.2684 -0.1304
   10POPC   GL1  544   2.773   6.655   7.993  0.0991  0.1478 -0.0535
   10POPC   GL2  545   3.073   6.783   7.954 -0.1094  0.1625 -0.0682
   10POPC   C1A  546   2.689   6.609   7.582  0.0857  0.0209 -0.3581
   10POPC   D2A  547   2.785   6.737   7.213  0.0771  0.2219  0.2594
   10POPC   C3A  548   2.860   7.247   7.133 -0.1556 -0.0399  0.1219
   10POPC   C4A  549   2.908   7.493   6.779 -0.0629 -0.1985 -0.2836
   10POPC   C1B  550   3.171   6.844   7.487  0.1589  0.1648 -0.0814
   10POPC   C2B  551   3.295   6.871   7.046  0.0008 -0.1667 -0.4944
   10POPC   C3B  552   3.318   7.144   6.740  0.0615 -0.1631  0.0367
   10POPC   C4B  553   3.118   7.157   6.306  0.1017 -0.0732 -0.0649
   11POPC   NC3  554   1.897   7.769   8.776 -0.1123 -0.1441 -0.2171
   11POPC   PO4  555   2.392   7.822   8.748  0.0356 -0.1870  0.0968
   11POPC   GL1  556   2.234   7.611   8.340  0.0017  0.0844  0.1073
   11POPC   GL2  557   1.961   7.745   8.202  0.0434 -0.4008 -0.1050
   11POPC   C1A  558   2.092   7.376   7.908  0.0576 -0.3631  0.0394
   11POPC   D2A  559   1.982   7.168   7.486  0.0834  0.1410  0.0348
   11POPC   C3A  560   2.119   7.498   7.200  0.0022  0.2122 -0.0007
   11POPC   C4A  561   2.143   7.466   6.791 -0.1288 -0.0774 -0.3806
   11POPC   C1B  562   2.206   7.850   7.868  0.2146  0.2161  0.2331
   11POPC   C2B  563   2.570   8.095   7.543  0.0171 -0.1531  0.0705
   11POPC   C3B  564   2.952   8.268   7.364 -0.1000 -0.1733 -0.0332
   11POPC   C4B  565   3.457   8.447   7.245 -0.0210 -0.0662  0.1685
   12POPC   NC3  566   4.268   6.262   9.080 -0.4367 -0.2015  0.0537
   12POPC   PO4  567   4.702   6.329   9.023  0.0945  0.2194  0.0131
   12POPC   GL1  568   4.738   6.430   8.581 -0.0625  0.1713  0.1640
   12POPC   GL2  569   4.944   6.264   8.494 -0.1733 -0.2152  0.0420
   12POPC   C1A  570   4.512   6.382   8.180 -0.2765 -0.0178  0.0293
   12POPC   D2A  571   4.528   6.380   7.677  0.1667 -0.0641  0.2096
   12POPC   C3A  572   4.556   6.062   7.257  0.1248 -0.1570 -0.0814
   12POPC   C4A  573   4.253   5.981   7.027  0.0826 -0.0457  0.0929
   12POPC   C1B  574   4.909   6.022   7.996  0.1770  0.1918 -0.0632
   12POPC   C2B  575   4.865   5.990   7.595  0.0643  0.0420 -0.1551
   12POPC   C3B  576   5.164   6.092   7.248  0.0417 -0.2651  0.1333
   12POPC   C4B  577   5.444   6.300   7.039  0.0932 -0.0952  0.1773
   13POPC   NC3  578   6.443   5.501   8.295 -0.0048 -0.0430 -0.1175
   13POPC   PO4  579   6.869   5.506   8.207  0.0537  0.0407  0.1083
   13POPC   GL1  580   7.123   5.719   7.893  0.1517  0.1707 -0.0376
   13POPC   GL2  581   7.472   5.817   7.942 -0.3027 -0.2411 -0.0627
   13POPC   C1A  582   6.960   6.059   7.642 -0.0380  0.0190  0.1037
   13POPC   D2A  583   7.069   6.340   7.344 -0.0631 -0.1856  0.0785
   13POPC   C3A  584   6.897   6.487   7.059 -0.0840 -0.0020  0.2317
   13POPC   C4A  585   6.625   6.725   6.965  0.0440 -0.0664 -0.1530
   13POPC   C1B  586   7.510   5.956   7.508 -0.0274  0.0958  0.1353
   13POPC   C2B  587   7.213   5.932   7.123  0.0167  0.2101  0.1822
   13POPC   C3B  588   7.359   6.075   6.671 -0.0243 -0.1908 -0.0874
   13POPC   C4B  589   7.612   6.232   6.316 -0.1937 -0.1244 -0.0820
   14POPC   NC3  590   5.736   3.829   8.703 -0.2552 -0.2714  0.0891
   14POPC   PO4  591   5.848   4.169   8.428 -0.2716 -0.1809  0.0116
   14POPC   GL1  592   5.538   4.235   8.250 -0.1380 -0.0341  0.2451
   14POPC   GL2  593   5.340   4.094   8.403 -0.0064 -0.0492  0.0815
   14POPC   C1A  594   5.432   4.103   7.852  0.0581 -0.0961  0.0889
   14POPC   D2A  595   5.464   3.901   7.451  0.3172 -0.0441 -0.1359
   14POPC   C3A  596   5.892   3.858   7.169  0.2022 -0.0775  0.2031
   14POPC   C4A  597   6.014   3.731   6.755  0.0956 -0.0807 -0.1094
   14POPC   C1B  598   5.007   4.060   8.169 -0.2109 -0.1996 -0.3761
   14POPC   C2B  599   4.599   4.200   8.034  0.2216  0.0786 -0.1020
   14POPC   C3B  600   4.307   4.526   8.050 -0.0991 -0.0852  0.2403
   14POPC   C4B  601   4.123   4.907   8.047 -0.1360 -0.2791  0.1528
   15POPC   NC3  602   8.595   1.468   8.713  0.0977  0.2785  0.1708
   15POPC   PO4  603   8.372   1.401   8.386  0.1288  0.1796  0.0208
   15POPC   GL1  604   8.408   1.318   7.997 -0.2426 -0.0319 -0.0870
   15POPC   GL2  605   7.995   1.263   7.893 -0.1561 -0.1063  0.4155
   15POPC   C1A  606   8.470   1.340   7.519 -0.0105  0.1052  0.2588
   15POPC   D2A  607   8.522   1.108   7.152 -0.3902  0.1433  0.0267
   15POPC   C3A  608   8.839   1.023   7.083  0.1970  0.2525  0.1697
   15POPC   C4A  609   9.216   1.249   6.831 -0.0330 -0.1119 -0.1626
   15POPC   C1B  610   7.986   1.547   7.526  0.1786 -0.1448 -0.1931
   15POPC   C2B  611   8.000   1.973   7.548 -0.0070 -0.0720 -0.1256
   15POPC   C3B  612   7.990   2.463   7.521 -0.0467 -0.1171  0.0221
   15POPC   C4B  613   7.898   2.841   7.360 -0.1055  0.0795  0.0013
   16POPC   NC3  614   3.386   7.484   9.052  0.0652 -0.1430  0.0812
   16POPC   PO4  615   3.253   7.267   8.652  0.0741  0.1040 -0.1286
   16POPC   GL1  616   3.413   7.313   8.292 -0.0834 -0.1436 -0.3216
   16POPC   GL2  617   3.171   7.472   8.163  0.0711 -0.0418  0.0136
   16POPC   C1A  618   3.524   7.070   7.986  0.3955  0.1101  0.0901
   16POPC   D2A  619   3.680   7.025   7.648  0.0143 -0.3732 -0.0501
   16POPC   C3A  620   4.161   7.158   7.386  0.0508 -0.0360  0.0093
   16POPC   C4A  621   4.572   7.179   7.236 -0.1593  0.0387 -0.2349
   16POPC   C1B  622   3.205   7.318   7.723 -0.0137 -0.0003  0.0411
   16POPC   C2B  623   3.403   7.336   7.403  0.1377  0.1311 -0.6339
   16POPC   C3B  624   3.379   7.505   7.038 -0.0031  0.0833  0.1266
   16POPC   C4B  625   3.532   7.565   6.559 -0.0879  0.2642 -0.1502
   17POPC   NC3  626   2.876   8.715   8.727 -0.0571  0.1321  0.0427
   17POPC   PO4  627   3.000   8.358   8.491 -0.0863 -0.1854  0.1098
   17POPC   GL1  628   2.900   8.268   8.122  0.1068 -0.2358 -0.1958
   17POPC   GL2  629   2.627   8.044   8.014  0.0266  0.1893 -0.2346
   17POPC   C1A  630   3.245   8.104   7.773 -0.1213  0.1427  0.2821
   17POPC   D2A  631   3.400   7.796   7.460  0.2483 -0.0997  0.2957
   17POPC   C3A  632   3.799   7.831   7.359  0.0051  0.2884 -0.0423
   17POPC   C4A  633   3.940   7.565   7.007  0.1439 -0.0112 -0.1216
   17POPC   C1B  634   2.887   7.765   7.776 -0.2546 -0.1696  0.4400
   17POPC   C2B  635   2.909   7.639   7.364 -0.0343 -0.0793 -0.0788
   17POPC   C3B  636   3.104   7.951   6.958 -0.1799  0.0785 -0.1679
   17POPC   C4B  637   3.208   8.381   6.853  0.2989  0.0856 -0.1149
   18POPC   NC3  638   1.029   4.401   8.347 -0.1813  0.0192 -0.1989
   18POPC   PO4  639   0.875   4.116   8.690 -0.4073 -0.0039  0.0437
   18POPC   GL1  640   1.181   3.781   8.509 -0.2079  0.3567  0.0258
   18POPC   GL2  641   1.213   3.421   8.578  0.3785 -0.0045 -0.0975
   18POPC   C1A  642   1.261   3.732   8.137 -0.0861  0.1770  0.4630
   18POPC   D2A  643   1.315   3.666   7.626 -0.1228  0.2093 -0.2656
   18POPC   C3A  644   1.017   3.497   7.378 -0.3405  0.1403 -0.0469
   18POPC   C4A  645   0.935   3.106   7.407  0.0252 -0.0277 -0.1549
   18POPC   C1B  646   1.286   3.219   8.214  0.2679  0.2027  0.0122
   18POPC   C2B  647   1.418   3.161   7.748 -0.0622  0.5002 -0.1759
   18POPC   C3B  648   1.483   3.179   7.245  0.2438 -0.0989 -0.4124
   18POPC   C4B  649   1.437   3.568   6.995  0.1503 -0.0630  0.0344
   19POPC   NC3  650   8.524   7.187   8.589  0.2976  0.0823 -0.1237
   19POPC   PO4  651   8.301   7.416   8.333  0.0477  0.2056 -0.1130
   19POPC   GL1  652   8.390   7.482   7.921 -0.0414  0.0320  0.2536
   19POPC   GL2  653   8.073   7.580   7.865  0.0957 -0.2019  0.1131
   19POPC   C1A  654   8.404   7.507   7.504 -0.3013  0.1560 -0.4079
   19POPC   D2A  655   8.593   7.670   7.100  0.0714 -0.1697  0.1697
   19POPC   C3A  656   8.807   7.571   6.758  0.0928  0.0728 -0.1614
   19POPC   C4A  657   8.801   7.722   6.422 -0.0478  0.1326 -0.0539
   19POPC   C1B  658   7.843   7.873   7.486  0.4323  0.0739 -0.2077
   19POPC   C2B  659   7.730   7.443   7.242  0.0701  0.1845 -0.0726
   19POPC   C3B  660   7.371   7.322   7.147  0.2220  0.0415 -0.1074
   19POPC   C4B  661   7.030   7.213   6.883 -0.2424  0.2076 -0.0429
   20POPC   NC3  662   5.122   3.743   8.700  0.2260 -0.1326 -0.2063
   20POPC   PO4  663   5.386   3.470   8.555 -0.1724 -0.1288 -0.2238
   20POPC   GL1  664   5.448   3.503   8.227 -0.0667  0.2937 -0.0908
   20POPC   GL2  665   5.711   3.775   8.218 -0.3837  0.3887  0.0390
   20POPC   C1A  666   5.204   3.655   7.885 -0.3935 -0.1641 -0.5016
   20POPC   D2A  667   4.765   3.764   7.793  0.2009  0.2331 -0.1572
   20POPC   C3A  668   4.601   3.478   7.525 -0.0654  0.0656  0.0847
   20POPC   C4A  669   4.457   3.455   7.099 -0.0166  0.1344 -0.0656
   20POPC   C1B  670   5.989   3.945   7.745  0.0129 -0.3649  0.3054
   20POPC   C2B  671   6.174   4.188   7.548 -0.0740 -0.1927 -0.0271
   20POPC   C3B  672   6.077   4.447   7.219  0.1944  0.1219 -0.2177
   20POPC   C4B  673   5.792   4.529   6.932  0.1250  0.0111  0.0325
   21POPC   NC3  674   3.022   9.861   8.614 -0.2232 -0.2883  0.1404
   21POPC   PO4  675   2.894  10.225   8.674  0.1342 -0.6101  0.0301
   21POPC   GL1  676   2.842  10.454   8.287  0.2800 -0.3141 -0.0169
   21POPC   GL2  677   2.870  10.817   8.215  0.3295  0.2011  0.2309
   21POPC   C1A  678   2.896  10.212   7.764 -0.0018  0.2470  0.1529
   21POPC   D2A  679   2.808   9.906   7.481 -0.4015 -0.1054 -0.0228
   21POPC   C3A  680   3.093   9.784   7.108 -0.2251 -0.1685  0.3586
   21POPC   C4A  681   3.196   9.906   6.669 -0.2881  0.2820  0.1298
   21POPC   C1B  682   3.043  10.659   7.819 -0.1315  0.0776 -0.0334
   21POPC   C2B  683   2.973  10.759   7.415 -0.2466  0.1157  0.1634
   21POPC   C3B  684   2.960  10.898   7.026 -0.1622 -0.0217  0.5221
   21POPC   C4B  685   3.178  10.951   6.674 -0.0818  0.1651  0.4514
   22POPC   NC3  686   2.114   3.275   9.328  0.0395 -0.1562  0.0889
   22POPC   PO4  687   2.474   3.295   9.026  0.0074  0.0082  0.0932
   22POPC   GL1  688   2.378   3.344   8.582  0.0515  0.2541 -0.1555
   22POPC   GL2  689   2.694   3.423   8.345 -0.3037 -0.3324 -0.3790
   22POPC   C1A  690   2.271   3.569   8.191  0.0191  0.3699  0.3992
   22POPC   D2A  691   2.313   3.721   7.818 -0.1377  0.2128  0.0276
   22POPC   C3A  692   2.329   3.675   7.363  0.0176 -0.4536 -0.4423
   22POPC   C4A  693   2.240   3.663   6.965  0.2329  0.2296 -0.1406
   22POPC   C1B  694   2.742   3.247   7.956  0.0664 -0.1340 -0.1170
   22POPC   C2B  695   2.663   2.932   7.717 -0.2390  0.0401 -0.0521
   22POPC   C3B  696   2.569   2.567   7.527  0.4307  0.0391  0.0994
   22POPC   C4B  697   2.698   2.222   7.240 -0.0766  0.6498 -0.0754
   23POPC   NC3  698   3.932   6.601   9.054  0.0657  0.1923 -0.1433
   23POPC   PO4  699   3.549   6.390   9.004  0.3085  0.0013 -0.0363
   23POPC   GL1  700   3.573   6.608   8.572  0.0374 -0.1232  0.1437
   23POPC   GL2  701   3.642   6.959   8.559 -0.2693  0.1277  0.1034
   23POPC   C1A  702   3.508   6.542   8.118 -0.1396 -0.1708  0.0289
   23POPC   D2A  703   3.519   6.586   7.766 -0.3045 -0.2247  0.0590
   23POPC   C3A  704   3.556   6.234   7.497  0.2369 -0.0079  0.2263
   23POPC   C4A  705   3.751   6.016   7.088  0.1926  0.0487  0.0113
   23POPC   C1B  706   4.034   6.920   8.387 -0.0713  0.1954 -0.0279
   23POPC   C2B  707   4.327   6.847   8.068  0.0489 -0.0246  0.3422
   23POPC   C3B  708   4.519   6.871   7.645 -0.0812 -0.0707  0.0618
   23POPC   C4B  709   4.488   6.723   7.190 -0.0014  0.2676 -0.0391
   24POPC   NC3  710   3.336   0.646   8.667 -0.0014  0.1933  0.1812
   24POPC   PO4  711   3.377   0.235   8.798 -0.1197  0.0791 -0.1450
   24POPC   GL1  712   3.486   0.262   8.345  0.1751  0.1809  0.1976
   24POPC   GL2  713   3.248   0.303   8.148 -0.1634  0.2090  0.0490
   24POPC   C1A  714   3.718  -0.008   8.103  0.1219 -0.0933 -0.1554
   24POPC   D2A  715   4.044  -0.074   7.797 -0.0522  0.0299 -0.0944
   24POPC   C3A  716   3.878  -0.082   7.492 -0.1457  0.1190  0.2392
   24POPC   C4A  717   3.959  -0.342   7.111  0.0828 -0.2288 -0.0733
   24POPC   C1B  718   3.401   0.356   7.730 -0.2862  0.1099  0.1866
   24POPC   C2B  719   3.215   0.335   7.348  0.3115 -0.1429  0.0137
   24POPC   C3B  720   3.138   0.475   6.923  0.0272  0.1365 -0.1369
   24POPC   C4B  721   3.051   0.587   6.571 -0.2883 -0.3114 -0.1164
   25POPC   NC3  722   4.521   1.135   9.073  0.0488 -0.2212 -0.1059
   25POPC   PO4  723   4.931   0.912   8.838 -0.0389 -0.2772 -0.0781
   25POPC   GL1  724   4.882   0.826   8.495 -0.2069  0.0184  0.2125
   25POPC   GL2  725   4.733   0.904   8.296 -0.0704 -0.5977  0.1431
   25POPC   C1A  726   5.162   0.788   8.008 -0.1559  0.0902 -0.2614
   25POPC   D2A  727   5.268   0.658   7.559  0.0302  0.1475 -0.1197
   25POPC   C3A  728   5.575   0.348   7.610  0.2015 -0.0983 -0.1519
   25POPC   C4A  729   5.756   0.094   7.855  0.1526 -0.0687  0.4743
   25POPC   C1B  730   4.698   0.822   7.846  0.1839  0.1395 -0.0683
   25POPC   C2B  731   4.663   0.651   7.399  0.0963 -0.0794  0.2568
   25POPC   C3B  732   4.464   0.720   6.980  0.1051 -0.0677  0.0724
   25POPC   C4B  733   4.577   0.803   6.513 -0.1822  0.2982 -0.0836
   26POPC   NC3  734   7.297   5.094   8.332  0.0042  0.0518  0.1289
   26POPC   PO4  735   6.899   4.787   8.234  0.0576 -0.0950  0.0221
   26POPC   GL1  736   6.851   4.664   7.869 -0.0156 -0.0153 -0.0868
   26POPC   GL2  737   6.512   4.492   7.689  0.1100 -0.0728 -0.2333
   26POPC   C1A  738   6.846   4.840   7.458  0.3538  0.5734  0.3492
   26POPC   D2A  739   6.737   5.178   7.143 -0.1673  0.1130 -0.1215
   26POPC   C3A  740   6.753   5.576   6.930  0.0633 -0.1886  0.1052
   26POPC   C4A  741   6.733   6.038   7.046 -0.2576 -0.0971 -0.3207
   26POPC   C1B  742   6.716   4.341   7.389 -0.1376  0.0542 -0.1177
   26POPC   C2B  743   6.951   4.149   6.995  0.1892  0.0570 -0.1753
   26POPC   C3B  744   7.321   4.177   6.836 -0.2165  0.3427 -0.0217
   26POPC   C4B  745   7.595   3.905   6.686  0.1059  0.0889 -0.0742
   27POPC   NC3  746   0.587   9.178   8.388 -0.0253  0.0606  0.2959
   27POPC   PO4  747   0.837   9.458   8.545  0.0488  0.0171 -0.1225
   27POPC   GL1  748   0.762   9.590   8.095 -0.0747  0.2602 -0.2765
   27POPC   GL2  749   0.680   9.201   7.907 -0.3037 -0.1615  0.1358
   27POPC   C1A  750   0.582   9.667   7.738 -0.0721  0.0202  0.1488
   27POPC   D2A  751   0.449   9.932   7.494 -0.0020 -0.3639 -0.2090
   27POPC   C3A  752   0.689  10.263   7.294 -0.1577 -0.0186 -0.0446
   27POPC   C4A  753   0.924  10.480   6.956  0.4199 -0.0490 -0.0230
   27POPC   C1B  754   0.822   8.905   7.464 -0.1064  0.0305 -0.0184
   27POPC   C2B  755   0.956   8.694   7.077 -0.0962  0.1930 -0.0714
   27POPC   C3B  756   0.899   8.572   6.671 -0.1110 -0.1541  0.0131
   27POPC   C4B  757   1.289   8.274   6.472 -0.2568  0.5170  0.0593
   28POPC   NC3  758   0.152   5.272   8.636 -0.1146  0.1278 -0.1920
   28POPC   PO4  759   0.588   5.317   8.583 -0.2157  0.2501  0.0302
   28POPC   GL1  760   0.363   5.427   8.175 -0.2279  0.2258  0.0232
   28POPC   GL2  761  -0.025   5.456   8.207  0.0471  0.0521 -0.1412
   28POPC   C1A  762   0.296   5.387   7.769 -0.0155  0.0609  0.0242
   28POPC   D2A  763   0.289   5.555   7.373  0.0370 -0.0382  0.0025
   28POPC   C3A  764   0.170   5.497   6.974 -0.0496  0.0189 -0.3276
   28POPC   C4A  765   0.018   5.629   6.600 -0.0834 -0.1258 -0.2591
   28POPC   C1B  766  -0.256   5.326   7.821 -0.0355  0.0649  0.2229
   28POPC   C2B  767   0.002   5.145   7.478  0.1758  0.0321 -0.5038
   28POPC   C3B  768   0.314   4.881   7.228  0.1425 -0.0222 -0.2988
   28POPC   C4B  769   0.193   4.566   6.935  0.0223 -0.1940 -0.3770
   29POPC   NC3  770   5.333   7.822   9.480  0.1093 -0.1267 -0.6275
   29POPC   PO4  771   5.371   7.328   9.612  0.2683 -0.3118 -0.2424
   29POPC   GL1  772   5.738   7.263   9.322  0.1059  0.1000  0.4234
   29POPC   GL2  773   5.694   7.614   9.255 -0.2178  0.1091  0.0817
   29POPC   C1A  774   6.131   7.442   9.016  0.0816  0.1798 -0.1923
   29POPC   D2A  775   6.189   7.352   8.557  0.1759 -0.1436 -0.0170
   29POPC   C3A  776   6.043   7.698   8.256  0.3131  0.1188 -0.1413
   29POPC   C4A  777   5.884   8.090   8.101 -0.2349 -0.3090  0.3248
   29POPC   C1B  778   6.155   7.905   9.033 -0.0330  0.2107 -0.3575
   29POPC   C2B  779   6.322   7.904   8.612 -0.2669  0.0628 -0.1661
   29POPC   C3B  780   6.787   7.921   8.441  0.1689  0.3212  0.0450
   29POPC   C4B  781   7.190   8.043   8.180 -0.1518 -0.2590 -0.0755
   30POPC   NC3  782   6.391   4.425   8.178 -0.2152  0.0463 -0.3044
   30POPC   PO4  783   6.399   4.874   8.205  0.0499 -0.1185  0.0557
   30POPC   GL1  784   6.304   5.090   7.771  0.1034  0.1102 -0.0430
   30POPC   GL2  785   6.424   5.418   7.724  0.0596 -0.0321 -0.0990
   30POPC   C1A  786   5.995   5.144   7.502 -0.2171 -0.0543 -0.2494
   30POPC   D2A  787   5.915   5.456   7.331 -0.1170  0.2422 -0.0259
   30POPC   C3A  788   6.268   5.349   7.105  0.1036 -0.3693  0.0772
   30POPC   C4A  789   6.363   5.079   6.810 -0.2210  0.3314  0.0093
   30POPC   C1B  790   6.638   5.685   7.477  0.0248 -0.2901 -0.1208
   30POPC   C2B  791   7.046   5.571   7.409 -0.0019 -0.2901  0.2873
   30POPC   C3B  792   7.227   5.148   7.299 -0.2203 -0.0135 -0.0741
   30POPC   C4B  793   7.641   5.012   7.221 -0.1608 -0.1212  0.2207
   31POPC   NC3  794   1.900   0.240   8.238  0.2412 -0.2833  0.1259
   31POPC   PO4  795   1.417   0.469   8.323  0.1086  0.1848 -0.0648
   31POPC   GL1  796   1.363   0.336   7.843  0.0099  0.0751 -0.1062
   31POPC   GL2  797   1.643   0.370   7.760  0.0135  0.2368  0.0850
   31POPC   C1A  798   1.146   0.217   7.473 -0.1538  0.3151  0.2430
   31POPC   D2A  799   0.869  -0.102   7.179  0.0514 -0.3018 -0.1167
   31POPC   C3A  800   0.606   0.079   6.873  0.1023  0.1484  0.0333
   31POPC   C4A  801   0.323   0.033   6.622 -0.1800 -0.2277 -0.1323
   31POPC   C1B  802   1.666   0.219   7.450 -0.3608 -0.1026 -0.0724
   31POPC   C2B  803   1.764   0.274   6.965 -0.0846  0.0579 -0.0159
   31POPC   C3B  804   1.632   0.652   6.734 -0.0238 -0.2003 -0.1392
   31POPC   C4B  805   1.671   1.021   6.459 -0.0563 -0.0628 -0.2585
   32POPC   NC3  806   8.705   6.196   8.323 -0.2651 -0.5131  0.1512
   32POPC   PO4  807   9.179   6.080   8.296 -0.1480  0.2633  0.0555
   32POPC   GL1  808   9.298   6.364   8.064  0.0274 -0.0241 -0.1817
   32POPC   GL2  809   9.043   6.508   7.934 -0.2432  0.0751  0.1733
   32POPC   C1A  810   9.351   6.490   7.528 -0.1782  0.0541 -0.1122
   32POPC   D2A  811   9.490   6.266   7.230  0.2105  0.1857 -0.2196
   32POPC   C3A  812   9.394   5.938   6.941  0.2423  0.1139  0.1721
   32POPC   C4A  813   9.192   5.599   6.830  0.2698 -0.0728 -0.0559
   32POPC   C1B  814   8.782   6.562   7.515  0.0843  0.3043 -0.0308
   32POPC   C2B  815   8.478   6.568   7.181  0.0605 -0.5384 -0.2148
   32POPC   C3B  816   7.996   6.609   7.186 -0.0740 -0.1729  0.1299
   32POPC   C4B  817   7.643   6.854   7.164 -0.1176 -0.2953 -0.2658
   33POPC   NC3  818   2.204   2.026   8.333 -0.0282 -0.2180 -0.0468
   33POPC   PO4  819   2.050   1.594   8.413  0.0382 -0.0416  0.2238
   33POPC   GL1  820   2.041   1.506   8.039  0.2157  0.1675 -0.0365
   33POPC   GL2  821   2.097   1.181   7.962  0.0545 -0.3024 -0.1446
   33POPC   C1A  822   2.398   1.649   7.783 -0.0519 -0.0002  0.0258
   33POPC   D2A  823   2.412   2.090   7.643 -0.2249 -0.2441 -0.2438
   33POPC   C3A  824   2.151   2.275   7.306  0.0703 -0.1193 -0.1189
   33POPC   C4A  825   2.204   2.466   6.954 -0.3629  0.2129  0.2249
   33POPC   C1B  826   2.171   1.205   7.590 -0.2203  0.0186  0.0099
   33POPC   C2B  827   2.249   1.362   7.200  0.0206 -0.2996 -0.1971
   33POPC   C3B  828   2.490   1.421   6.935 -0.0141  0.1841  0.2369
   33POPC   C4B  829   2.770   1.317   6.651  0.0703  0.1112 -0.0244
   34POPC   NC3  830   5.583   4.635   8.642 -0.1094 -0.0204  0.2081
   34POPC   PO4  831   5.973   4.623   8.512 -0.0634  0.4016 -0.2864
   34POPC   GL1  832   5.912   4.729   8.070 -0.3618 -0.0621 -0.1437
   34POPC   GL2  833   5.918   4.352   7.964 -0.2504  0.0145 -0.3306
   34POPC   C1A  834   6.075   4.705   7.657  0.2356 -0.1819  0.3530
   34POPC   D2A  835   6.349   4.875   7.284 -0.0378 -0.1495 -0.0838
   34POPC   C3A  836   6.700   4.622   6.982  0.2157 -0.1689  0.3950
   34POPC   C4A  837   6.651   4.449   6.688 -0.1893 -0.0137 -0.0293
   34POPC   C1B  838   5.702   4.382   7.576  0.1626  0.1341  0.2894
   34POPC   C2B  839   5.482   4.345   7.248  0.1311  0.3014 -0.2236
   34POPC   C3B  840   5.090   4.427   7.126  0.0594 -0.0158 -0.0234
   34POPC   C4B  841   4.958   4.667   6.766 -0.0331  0.3261  0.1096
   35POPC   NC3  842   8.955   9.735   8.743  0.6648  0.0644  0.0675
   35POPC   PO4  843   8.973   9.436   8.520  0.2054  0.1286  0.1718
   35POPC   GL1  844   8.687   9.710   8.202 -0.0610 -0.1873  0.1589
   35POPC   GL2  845   8.755   9.632   7.848 -0.3127  0.0487 -0.2094
   35POPC   C1A  846   8.566  10.149   7.986 -0.0249  0.0583 -0.4004
   35POPC   D2A  847   8.478  10.586   7.865 -0.0259 -0.4345 -0.2481
   35POPC   C3A  848   8.201  10.737   7.494  0.4809  0.1864 -0.2583
   35POPC   C4A  849   8.123  10.737   7.098  0.2911  0.1543  0.2184
   35POPC   C1B  850   8.611   9.938   7.479  0.1404 -0.1271  0.2453
   35POPC   C2B  851   8.576   9.885   7.042 -0.0145 -0.0241 -0.2177
   35POPC   C3B  852   8.651   9.653   6.689  0.3342  0.0632 -0.2944
   35POPC   C4B  853   8.496   9.637   6.349 -0.0990  0.1573 -0.0310
   36POPC   NC3  854   6.991   2.654   8.358  0.3593 -0.1551  0.3102
   36POPC   PO4  855   6.650   2.660   8.263 -0.0255 -0.0143  0.1006
   36POPC   GL1  856   6.452   2.318   7.951  0.3860 -0.0209 -0.3236
   36POPC   GL2  857   6.349   2.065   8.059 -0.0469 -0.2761 -0.0753
   36POPC   C1A  858   6.162   2.446   7.630  0.2150 -0.1464  0.1511
   36POPC   D2A  859   5.902   2.151   7.372 -0.0788 -0.0020  0.0099
   36POPC   C3A  860   5.919   2.045   6.882 -0.0205  0.0640 -0.4104
   36POPC   C4A  861   5.798   1.920   6.473  0.0967 -0.1834  0.0937
   36POPC   C1B  862   6.197   1.887   7.616 -0.0923 -0.0477 -0.0365
   36POPC   C2B  863   6.426   1.783   7.241 -0.0339  0.0080 -0.0673
   36POPC   C3B  864   6.735   1.441   7.121 -0.0837  0.0746 -0.1519
   36POPC   C4B  865   7.227   1.374   7.222 -0.0432  0.2545  0.1961
   37POPC   NC3  866   8.907   5.543   8.488 -0.0405 -0.0992 -0.1755
   37POPC   PO4  867   8.485   5.741   8.414 -0.2541 -0.1657 -0.1255
   37POPC   GL1  868   8.340   5.993   8.029  0.1705 -0.0252 -0.2614
   37POPC   GL2  869   7.990   5.964   7.906  0.0762  0.0867  0.0838
   37POPC   C1A  870   8.510   6.064   7.617  0.0466 -0.1332 -0.2151
   37POPC   D2A  871   8.439   6.039   7.137  0.1422 -0.0810 -0.0335
   37POPC   C3A  872   8.247   5.911   6.736 -0.1236 -0.0980  0.1232
   37POPC   C4A  873   8.317   5.622   6.351 -0.0834 -0.0546  0.4182
   37POPC   C1B  874   8.131   5.684   7.554  0.1134 -0.0683 -0.1034
   37POPC   C2B  875   8.073   5.334   7.213 -0.0849  0.1568  0.1510
   37POPC   C3B  876   8.030   5.096   6.841 -0.0057 -0.4648 -0.0174
   37POPC   C4B  877   8.113   5.255   6.574 -0.4173  0.0742  0.0904
   38POPC   NC3  878   3.338   1.881   9.080 -0.0292  0.2382  0.1280
   38POPC   PO4  879   3.180   2.104   8.764 -0.0504 -0.1453 -0.0894
   38POPC   GL1  880   2.975   2.076   8.298 -0.3290 -0.3633  0.0533
   38POPC   GL2  881   3.002   2.329   8.189 -0.0149 -0.2389 -0.1071
   38POPC   C1A  882   2.873   1.927   7.908 -0.4314 -0.0147 -0.1256
   38POPC   D2A  883   2.894   1.783   7.498  0.0576 -0.3392 -0.1050
   38POPC   C3A  884   2.528   1.758   7.293  0.3475  0.0749  0.2373
   38POPC   C4A  885   2.322   1.913   7.028  0.1363  0.0012 -0.0320
   38POPC   C1B  886   2.650   2.484   8.052 -0.0155 -0.2425 -0.2066
   38POPC   C2B  887   2.209   2.482   7.930  0.2335 -0.1176  0.2263
   38POPC   C3B  888   1.897   2.469   7.691 -0.0935 -0.0418  0.0031
   38POPC   C4B  889   1.607   2.414   7.922  0.1363 -0.3825 -0.1402
   39POPC   NC3  890   0.499   1.016   8.678  0.0334 -0.0606 -0.2856
   39POPC   PO4  891   0.836   0.837   8.539  0.0016 -0.2440  0.1041
   39POPC   GL1  892   0.538   0.972   8.209 -0.0817  0.0932  0.1349
   39POPC   GL2  893   0.473   1.393   8.196  0.1148 -0.0661  0.1862
   39POPC   C1A  894   0.464   0.964   7.865 -0.1092 -0.0520 -0.0505
   39POPC   D2A  895   0.311   1.067   7.413  0.2806  0.0349 -0.2036
   39POPC   C3A  896   0.248   1.380   7.072 -0.3170  0.1530 -0.0775
   39POPC   C4A  897   0.310   1.584   6.706  0.0039 -0.3242  0.2136
   39POPC   C1B  898   0.569   1.509   7.782 -0.1108 -0.1384 -0.1391
   39POPC   C2B  899   0.683   1.559   7.360 -0.2653  0.0179  0.3245
   39POPC   C3B  900   0.711   1.279   7.037  0.2305  0.1291  0.0357
   39POPC   C4B  901   0.680   1.228   6.684  0.1402  0.1379  0.0843
   40POPC   NC3  902   6.780   0.855   9.166  0.1067  0.0051  0.0986
   40POPC   PO4  903   7.154   0.576   8.973 -0.0396 -0.1107 -0.2291
   40POPC   GL1  904   7.004   0.702   8.622  0.1700 -0.1352  0.2496
   40POPC   GL2  905   7.110   0.903   8.451 -0.2661  0.1293  0.1390
   40POPC   C1A  906   6.705   0.667   8.303 -0.1655 -0.0814 -0.3320
   40POPC   D2A  907   6.566   0.376   7.911 -0.1036  0.1066  0.0847
   40POPC   C3A  908   6.746  -0.057   7.635  0.0515  0.3018  0.4734
   40POPC   C4A  909   6.573  -0.382   7.466  0.1635  0.1216 -0.0927
   40POPC   C1B  910   7.176   0.695   8.007 -0.0790 -0.1768  0.0399
   40POPC   C2B  911   7.083   0.558   7.552 -0.4218 -0.0520 -0.0799
   40POPC   C3B  912   6.870   0.354   7.283 -0.0365 -0.1451  0.0495
   40POPC   C4B  913   6.659   0.002   7.127  0.2805 -0.2006 -0.0331
   41POPC   NC3  914   8.212   3.966   8.506 -0.1551  0.0592  0.0324
   41POPC   PO4  915   8.244   3.586   8.669 -0.2030 -0.2782  0.4207
   41POPC   GL1  916   8.211   3.382   8.290 -0.2749  0.0400 -0.0818
   41POPC   GL2  917   7.878   3.474   8.058 -0.1226  0.1350  0.0549
   41POPC   C1A  918   8.380   3.332   7.976 -0.0141  0.5076  0.0066
   41POPC   D2A  919   8.685   3.381   7.633  0.0668  0.0139  0.4088
   41POPC   C3A  920   8.773   3.074   7.271  0.0746  0.2773  0.2113
   41POPC   C4A  921   9.030   2.681   6.987 -0.0075 -0.0844 -0.0192
   41POPC   C1B  922   7.796   3.486   7.618 -0.2069 -0.0573  0.0816
   41POPC   C2B  923   7.795   3.322   7.253 -0.3616  0.1078  0.0546
   41POPC   C3B  924   7.695   3.374   6.857  0.0228 -0.0877 -0.0081
   41POPC   C4B  925   7.934   3.313   6.529 -0.2889 -0.0940 -0.3213
   42POPC   NC3  926   0.662   0.193   8.412  0.0894  0.0819 -0.1092
   42POPC   PO4  927   0.398   0.524   8.513 -0.0968 -0.2628  0.2882
   42POPC   GL1  928   0.399   0.507   8.093  0.1762  0.1261 -0.2415
   42POPC   GL2  929   0.125   0.678   8.073 -0.3000  0.1034  0.1475
   42POPC   C1A  930   0.344   0.481   7.667  0.0773  0.0441  0.0353
   42POPC   D2A  931   0.190   0.511   7.276  0.0608 -0.1737 -0.0552
   42POPC   C3A  932  -0.305   0.515   7.310 -0.0283  0.1012  0.1722
   42POPC   C4A  933  -0.676   0.800   7.282 -0.1763  0.1248  0.1365
   42POPC   C1B  934  -0.118   0.805   7.684 -0.1209 -0.1595 -0.3256
   42POPC   C2B  935  -0.218   1.037   7.312  0.1515  0.2567  0.1783
   42POPC   C3B  936  -0.296   1.372   7.098  0.2196 -0.1097  0.2932
   42POPC   C4B  937  -0.539   1.733   7.020  0.1411  0.1869 -0.1501
   43POPC   NC3  938   4.743   2.130   8.834  0.1301  0.0903 -0.1108
   43POPC   PO4  939   4.502   2.317   8.593  0.0079 -0.1293  0.1672
   43POPC   GL1  940   4.422   2.132   8.152 -0.0228 -0.1819  0.1722
   43POPC   GL2  941   4.361   2.503   8.006 -0.1419 -0.1029  0.2564
   43POPC   C1A  942   4.731   2.027   7.827 -0.1720 -0.2536 -0.1183
   43POPC   D2A  943   4.911   2.061   7.414 -0.3844  0.0719 -0.1940
   43POPC   C3A  944   4.995   1.790   7.070  0.0549 -0.2397 -0.1790
   43POPC   C4A  945   5.012   1.463   6.798  0.1090  0.2647  0.0782
   43POPC   C1B  946   4.064   2.186   7.772 -0.1171  0.2302 -0.1274
   43POPC   C2B  947   4.051   1.961   7.445  0.0084  0.3399 -0.0019
   43POPC   C3B  948   4.246   1.835   7.091 -0.0660  0.0915  0.0462
   43POPC   C4B  949   4.523   1.786   6.780 -0.3005 -0.1685  0.2259
   44POPC   NC3  950   5.647   5.191   8.618  0.1110  0.2906 -0.1806
   44POPC   PO4  951   5.402   5.400   8.909  0.0301  0.1570  0.2018
   44POPC   GL1  952   5.241   5.532   8.403  0.1608 -0.1241  0.1776
   44POPC   GL2  953   5.317   5.851   8.247 -0.1954 -0.0197  0.2212
   44POPC   C1A  954   4.942   5.543   8.053 -0.3541 -0.0005  0.0238
   44POPC   D2A  955   4.999   5.537   7.567  0.2711  0.3369  0.1765
   44POPC   C3A  956   4.846   5.290   7.144 -0.0683 -0.1061 -0.3427
   44POPC   C4A  957   4.577   5.119   6.825 -0.1078 -0.2579 -0.0605
   44POPC   C1B  958   5.722   6.096   8.021  0.0110 -0.2020 -0.2708
   44POPC   C2B  959   6.014   6.288   7.731 -0.2651  0.3577 -0.2004
   44POPC   C3B  960   6.115   5.925   7.360  0.0909 -0.1161  0.0291
   44POPC   C4B  961   6.309   5.784   6.867  0.4209  0.0018 -0.2270
   45POPC   NC3  962   2.255   8.336   8.272  0.1096 -0.1954 -0.2115
   45POPC   PO4  963   2.000   8.667   8.275  0.0289 -0.1798 -0.3029
   45POPC   GL1  964   1.988   8.518   7.858  0.1418  0.0907 -0.0067
   45POPC   GL2  965   2.067   8.323   7.796  0.0144  0.1851  0.0995
   45POPC   C1A  966   2.436   8.561   7.478  0.1599  0.0337  0.0116
   45POPC   D2A  967   2.708   8.605   7.215 -0.1424  0.3070 -0.1310
   45POPC   C3A  968   2.625   8.226   6.969 -0.2140  0.0499  0.2356
   45POPC   C4A  969   2.587   7.948   6.625  0.1089  0.1354 -0.2297
   45POPC   C1B  970   2.019   8.182   7.318 -0.0766  0.0116 -0.1328
   45POPC   C2B  971   2.153   8.402   6.943  0.0276 -0.0563  0.0282
   45POPC   C3B  972   2.244   8.289   6.533 -0.2591  0.0450 -0.0520
   45POPC   C4B  973   2.166   8.508   6.166  0.2961 -0.0603  0.0473
   46POPC   NC3  974   8.206   6.790   8.372 -0.2890  0.0924 -0.1860
   46POPC   PO4  975   8.668   6.766   8.378  0.3748  0.5025 -0.0126
   46POPC   GL1  976   8.630   7.014   7.891  0.1691 -0.1371  0.1133
   46POPC   GL2  977   8.251   7.002   7.866 -0.0705 -0.5057  0.1271
   46POPC   C1A  978   8.588   7.054   7.461 -0.0738  0.3132  0.0088
   46POPC   D2A  979   8.482   7.166   6.999 -0.2277  0.2708 -0.2294
   46POPC   C3A  980   8.141   7.562   7.073 -0.1437  0.1489 -0.0017
   46POPC   C4A  981   7.987   7.862   6.946 -0.1389 -0.0522  0.3333
   46POPC   C1B  982   8.253   6.697   7.611  0.1580 -0.0586  0.0971
   46POPC   C2B  983   8.047   6.257   7.497 -0.1902  0.0700  0.4196
   46POPC   C3B  984   7.924   5.936   7.119  0.0681 -0.0357  0.6412
   46POPC   C4B  985   7.883   5.640   6.815  0.3574  0.0207 -0.0453
   47POPC   NC3  986   9.697   4.518   8.235  0.0328 -0.0379  0.1404
   47POPC   PO4  987   9.979   4.777   8.473  0.0323  0.0899 -0.0740
   47POPC   GL1  988   9.996   5.001   8.161 -0.1555 -0.2205  0.0056
   47POPC   GL2  989   9.934   4.817   7.885  0.3460 -0.0083  0.2300
   47POPC   C1A  990  10.393   4.974   7.866  0.0085 -0.3941 -0.1060
   47POPC   D2A  991  10.632   4.851   7.480 -0.2844 -0.1276  0.0813
   47POPC   C3A  992  10.683   4.394   7.293 -0.1145  0.0318  0.0143
   47POPC   C4A  993  10.892   3.997   7.117 -0.1598  0.1428  0.2169
   47POPC   C1B  994  10.173   4.611   7.642  0.1151  0.0049 -0.0865
   47POPC   C2B  995   9.988   4.264   7.406  0.3699 -0.0268 -0.0905
   47POPC   C3B  996  10.006   3.932   7.190  0.0334 -0.4753 -0.2277
   47POPC   C4B  997  10.351   4.092   6.916 -0.2594  0.2259 -0.0313
   48POPC   NC3  998   1.041   7.825   8.867  0.0058 -0.0088 -0.0263
   48POPC   PO4  999   1.170   8.118   8.456 -0.0560 -0.0734 -0.2723
   48POPC   GL1 1000   1.211   8.049   8.111  0.1378  0.0535  0.1351
   48POPC   GL2 1001   1.188   7.748   8.090  0.3396  0.0040  0.0481
   48POPC   C1A 1002   0.973   8.216   7.725  0.2724  0.1161  0.0241
   48POPC   D2A 1003   0.989   8.441   7.484  0.3144  0.0645 -0.1914
   48POPC   C3A 1004   0.706   8.254   7.184  0.0497 -0.0266  0.0474
   48POPC   C4A 1005   0.754   7.743   6.977 -0.0842  0.2384  0.1792
   48POPC   C1B 1006   1.328   7.780   7.723  0.0498  0.0730  0.1163
   48POPC   C2B 1007   1.434   8.151   7.559  0.1223  0.0052 -0.1715
   48POPC   C3B 1008   1.548   8.354   7.210  0.0590 -0.0890 -0.1513
   48POPC   C4B 1009   1.451   8.599   6.839 -0.0178 -0.1539  0.1397
   49POPC   NC3 1010   5.025   8.344   9.901  0.0953  0.0998  0.0141
   49POPC   PO4 1011   5.410   8.256   9.757  0.0817  0.4697 -0.1350
   49POPC   GL1 1012   5.719   8.147   9.462 -0.1539  0.1045 -0.1071
   49POPC   GL2 1013   6.026   8.152   9.459  0.0613 -0.0438 -0.0758
   49POPC   C1A 1014   5.612   8.343   9.106 -0.0575 -0.0724 -0.0464
   49POPC   D2A 1015   5.476   8.308   8.646 -0.1260  0.0049 -0.2058
   49POPC   C3A 1016   5.316   7.917   8.533 -0.0959 -0.4793 -0.2137
   49POPC   C4A 1017   5.311   7.512   8.690 -0.0489  0.1800 -0.1665
   49POPC   C1B 1018   6.200   8.356   9.080 -0.1872 -0.0521 -0.0076
   49POPC   C2B 1019   6.185   8.787   8.860 -0.1030  0.1794  0.1385
   49POPC   C3B 1020   6.083   9.027   8.481 -0.2434 -0.4148 -0.0675
   49POPC   C4B 1021   5.972   9.296   8.100  0.0562  0.2818  0.1128
   50POPC   NC3 1022   2.329   0.145   8.427  0.3766 -0.1520 -0.2032
   50POPC   PO4 1023   2.295   0.548   8.415  0.0049 -0.2652  0.0477
   50POPC   GL1 1024   2.206   0.641   7.976  0.1228 -0.0297  0.1635
   50POPC   GL2 1025   2.517   0.591   7.885 -0.0725  0.0539  0.5388
   50POPC   C1A 1026   2.025   0.667   7.585  0.2625 -0.1859  0.2267
   50POPC   D2A 1027   2.013   0.876   7.278  0.1857 -0.1458 -0.1058
   50POPC   C3A 1028   2.118   0.660   6.801 -0.1452 -0.2234 -0.1864
   50POPC   C4A 1029   1.962   0.435   6.389 -0.0488 -0.5191  0.1949
   50POPC   C1B 1030   2.527   0.535   7.493  0.2753 -0.1179 -0.0645
   50POPC   C2B 1031   2.700   0.427   7.130 -0.2227  0.1845  0.3913
   50POPC   C3B 1032   2.711   0.268   6.759  0.0819 -0.1097  0.0120
   50POPC   C4B 1033   2.619  -0.141   6.623 -0.0843 -0.0513  0.1660
   51POPC   NC3 1034   1.186   7.361   8.462  0.1049 -0.2682 -0.3070
   51POPC   PO4 1035   0.842   7.347   8.781  0.0770 -0.5387  0.0204
   51POPC   GL1 1036   0.732   7.485   8.313 -0.0692  0.2460 -0.2638
   51POPC   GL2 1037   0.718   7.823   8.302 -0.1621 -0.2724  0.0579
   51POPC   C1A 1038   0.704   7.259   7.876  0.1124 -0.2458 -0.1159
   51POPC   D2A 1039   0.349   7.033   7.579  0.0890 -0.0058  0.1934
   51POPC   C3A 1040   0.286   6.955   7.167  0.3393  0.0857  0.1789
   51POPC   C4A 1041   0.464   7.145   6.753  0.2459  0.0896 -0.0215
   51POPC   C1B 1042   0.745   7.800   7.913 -0.2364  0.0178  0.0178
   51POPC   C2B 1043   0.907   7.774   7.481 -0.1096  0.0054 -0.1291
   51POPC   C3B 1044   1.175   7.977   7.200  0.0872 -0.1919 -0.0245
   51POPC   C4B 1045   1.151   8.197   6.957 -0.0276  0.0127  0.2331
   52POPC   NC3 1046   5.407   6.907   9.146  0.0804  0.0253 -0.0447
   52POPC   PO4 1047   5.692   6.502   8.967 -0.1072  0.2782 -0.0178
   52POPC   GL1 1048   5.825   6.462   8.509 -0.3192 -0.0548  0.2775
   52POPC   GL2 1049   5.525   6.208   8.519  0.2732 -0.2197 -0.1594
   52POPC   C1A 1050   5.777   6.648   8.035  0.0989  0.0794 -0.1673
   52POPC   D2A 1051   5.862   6.822   7.555 -0.1652 -0.1319 -0.0020
   52POPC   C3A 1052   5.876   6.432   7.284 -0.3311 -0.1758 -0.2714
   52POPC   C4A 1053   5.896   6.090   6.897  0.0275  0.2434  0.1623
   52POPC   C1B 1054   5.295   6.363   8.166 -0.2186 -0.0087 -0.2997
   52POPC   C2B 1055   5.124   6.431   7.745 -0.1312  0.1052 -0.2698
   52POPC   C3B 1056   4.899   6.463   7.390  0.0420 -0.2232 -0.1744
   52POPC   C4B 1057   4.912   6.436   6.934  0.0132 -0.1598 -0.4059
   53POPC   NC3 1058   0.753   3.627   8.606  0.4169  0.1574  0.0589
   53POPC   PO4 1059   0.410   3.467   8.725  0.0040 -0.0574  0.0312
   53POPC   GL1 1060   0.345   3.388   8.310 -0.0242  0.0974  0.0633
   53POPC   GL2 1061   0.395   3.603   8.189 -0.1207 -0.3126 -0.0660
   53POPC   C1A 1062   0.190   2.952   7.941  0.0851 -0.1442  0.0388
   53POPC   D2A 1063   0.039   2.744   7.602 -0.3014 -0.0722 -0.1888
   53POPC   C3A 1064  -0.277   2.602   7.443  0.2156 -0.3807 -0.0584
   53POPC   C4A 1065  -0.678   2.865   7.531 -0.1105  0.2697 -0.0950
   53POPC   C1B 1066   0.419   3.450   7.749 -0.3529  0.0593  0.2256
   53POPC   C2B 1067   0.387   3.129   7.459 -0.0188 -0.0689  0.0704
   53POPC   C3B 1068   0.473   2.845   7.219  0.2733 -0.1934  0.1082
   53POPC   C4B 1069   0.402   2.437   7.171  0.0386 -0.2370 -0.0600
   54POPC   NC3 1070   7.468   3.850   8.945 -0.1514 -0.1614 -0.1308
   54POPC   PO4 1071   7.781   4.096   8.673  0.3921 -0.0921  0.2292
   54POPC   GL1 1072   7.813   4.037   8.171  0.3662  0.2253 -0.3427
   54POPC   GL2 1073   8.047   3.961   8.060  0.1228  0.0104  0.1262
   54POPC   C1A 1074   7.494   3.909   7.813  0.1167  0.2517 -0.1273
   54POPC   D2A 1075   7.261   4.174   7.607 -0.1938  0.3153 -0.0995
   54POPC   C3A 1076   7.649   4.431   7.457 -0.0276 -0.3873  0.2664
   54POPC   C4A 1077   8.010   4.768   7.370  0.1198 -0.0204  0.0047
   54POPC   C1B 1078   7.954   3.963   7.654  0.2068 -0.2602 -0.1319
   54POPC   C2B 1079   8.101   4.113   7.260 -0.0927  0.0548  0.0221
   54POPC   C3B 1080   8.128   4.342   6.811 -0.1277 -0.3140  0.0667
   54POPC   C4B 1081   8.054   4.740   6.443 -0.0526 -0.0206  0.3581
   55POPC   NC3 1082   0.625   1.873   9.006 -0.0863 -0.4791  0.2462
   55POPC   PO4 1083   0.179   2.045   8.990 -0.2135  0.1692  0.1733
   55POPC   GL1 1084   0.346   1.938   8.600 -0.0854  0.0024 -0.0986
   55POPC   GL2 1085   0.412   2.303   8.538  0.0111  0.5448 -0.0242
   55POPC   C1A 1086   0.401   1.896   8.100 -0.2121 -0.0986  0.1986
   55POPC   D2A 1087   0.193   1.846   7.691 -0.0618 -0.0786 -0.0266
   55POPC   C3A 1088   0.394   1.945   7.199  0.0875  0.0272  0.3431
   55POPC   C4A 1089   0.681   1.818   6.960  0.1550  0.1168 -0.2188
   55POPC   C1B 1090   0.783   2.052   8.380  0.3337  0.2848 -0.2265
   55POPC   C2B 1091   0.890   1.771   8.118  0.0083  0.0238  0.0138
   55POPC   C3B 1092   1.136   1.640   7.625 -0.0496 -0.1666 -0.0629
   55POPC   C4B 1093   1.486   1.769   7.401 -0.3743 -0.0468  0.1336
   56POPC   NC3 1094   3.471   8.235   8.770 -0.0397  0.1039 -0.0627
   56POPC   PO4 1095   3.797   7.891   8.938  0.1464 -0.2674 -0.0923
   56POPC   GL1 1096   3.967   7.934   8.546  0.2681  0.3402 -0.0082
   56POPC   GL2 1097   3.731   7.999   8.383 -0.0082 -0.0425 -0.2710
   56POPC   C1A 1098   3.928   7.577   8.185 -0.2474 -0.0598 -0.0781
   56POPC   D2A 1099   3.672   7.572   7.865 -0.1243  0.0973  0.0701
   56POPC   C3A 1100   3.883   8.002   7.831 -0.3306  0.0873  0.0519
   56POPC   C4A 1101   4.206   8.056   7.571 -0.3590  0.0815  0.0682
   56POPC   C1B 1102   3.523   8.300   8.108  0.2615  0.1173 -0.1690
   56POPC   C2B 1103   3.441   8.631   7.803 -0.1147  0.3437 -0.0946
   56POPC   C3B 1104   3.441   9.068   7.696  0.2660  0.2852 -0.3693
   56POPC   C4B 1105   3.457   9.289   7.349  0.0568 -0.3103 -0.2641
   57POPC   NC3 1106   7.637   8.187   9.396 -0.1557  0.0478 -0.0119
   57POPC   PO4 1107   7.940   7.932   9.082 -0.3969  0.1571 -0.1704
   57POPC   GL1 1108   7.706   7.984   8.744 -0.1863 -0.1623  0.0520
   57POPC   GL2 1109   7.332   8.180   8.711 -0.2097 -0.3509  0.1092
   57POPC   C1A 1110   7.673   8.119   8.363 -0.0336 -0.0272 -0.0311
   57POPC   D2A 1111   7.685   8.171   7.950  0.1875  0.2240  0.1384
   57POPC   C3A 1112   7.485   8.406   7.685 -0.0515 -0.2849  0.1100
   57POPC   C4A 1113   7.141   8.312   7.259 -0.0060 -0.1757 -0.3644
   57POPC   C1B 1114   7.243   7.730   8.564 -0.1391  0.2762 -0.1901
   57POPC   C2B 1115   7.140   7.587   8.197 -0.0196 -0.0393 -0.0326
   57POPC   C3B 1116   6.853   7.706   7.887 -0.3510 -0.2795  0.0052
   57POPC   C4B 1117   6.782   8.005   7.603 -0.1731  0.0019  0.1258
   58POPC   NC3 1118   1.098   6.928   8.851  0.0659  0.0573  0.1193
   58POPC   PO4 1119   1.291   6.912   8.415  0.1126 -0.1426  0.1083
   58POPC   GL1 1120   1.581   6.685   8.130 -0.0564 -0.1045 -0.1033
   58POPC   GL2 1121   1.811   6.873   7.984 -0.5040  0.0456  0.0858
   58POPC   C1A 1122   1.883   6.499   7.716 -0.0213  0.0788 -0.0140
   58POPC   D2A 1123   1.693   6.219   7.384  0.0179 -0.1043 -0.2312
   58POPC   C3A 1124   1.473   5.999   7.186  0.0867  0.0745  0.0510
   58POPC   C4A 1125   1.171   5.630   7.453 -0.0714  0.1581 -0.2033
   58POPC   C1B 1126   2.192   6.853   7.810 -0.2493 -0.0944  0.1252
   58POPC   C2B 1127   2.144   6.705   7.347 -0.1417 -0.2510  0.0034
   58POPC   C3B 1128   2.315   6.669   7.017 -0.1628  0.2480 -0.2221
   58POPC   C4B 1129   2.664   6.347   6.965  0.0396 -0.2371  0.2088
   59POPC   NC3 1130   4.920   2.605   8.749  0.1973  0.1527  0.0611
   59POPC   PO4 1131   4.600   2.808   8.602 -0.1543 -0.0456 -0.0772
   59POPC   GL1 1132   4.679   2.917   8.217 -0.2827  0.2253 -0.0536
   59POPC   GL2 1133   4.530   2.947   8.057 -0.0386  0.2041 -0.1244
   59POPC   C1A 1134   4.896   2.686   7.818 -0.0525  0.1625 -0.0370
   59POPC   D2A 1135   5.023   2.529   7.501 -0.1790  0.0600 -0.1310
   59POPC   C3A 1136   5.207   2.707   7.194  0.1324  0.1663  0.2333
   59POPC   C4A 1137   5.508   2.977   6.892 -0.1555  0.1808 -0.5045
   59POPC   C1B 1138   4.486   3.023   7.588 -0.1759 -0.1250  0.3493
   59POPC   C2B 1139   4.588   2.853   7.197 -0.4198 -0.3503  0.2498
   59POPC   C3B 1140   4.298   2.712   6.964  0.0818  0.1775  0.1552
   59POPC   C4B 1141   4.077   2.878   6.579  0.2775  0.0952  0.1054
   60POPC   NC3 1142   2.954   0.924   8.800  0.2923  0.1389 -0.0082
   60POPC   PO4 1143   2.800   1.278   8.594 -0.0407  0.1806  0.0763
   60POPC   GL1 1144   2.940   1.398   8.200 -0.0583 -0.2962  0.1563
   60POPC   GL2 1145   2.592   1.229   7.902  0.2363  0.0241  0.0895
   60POPC   C1A 1146   3.229   1.222   7.935  0.0785  0.0458  0.3569
   60POPC   D2A 1147   3.362   1.263   7.422  0.0096  0.0329 -0.1036
   60POPC   C3A 1148   3.500   1.702   7.374 -0.0507  0.0949  0.0028
   60POPC   C4A 1149   3.751   1.956   7.068  0.1756  0.1573 -0.1257
   60POPC   C1B 1150   2.785   1.301   7.490 -0.0438  0.2314 -0.3621
   60POPC   C2B 1151   2.976   1.494   7.105  0.1752 -0.0050  0.1087
   60POPC   C3B 1152   2.748   1.898   6.754 -0.1491 -0.2501  0.3345
   60POPC   C4B 1153   2.629   2.331   6.794 -0.1689  0.0141  0.0929
   61POPC   NC3 1154   0.326   4.531   8.800 -0.0677 -0.0546 -0.2691
   61POPC   PO4 1155   0.414   4.364   8.365 -0.1309  0.0473 -0.1326
   61POPC   GL1 1156   0.294   4.086   8.037 -0.0626 -0.0212  0.0668
   61POPC   GL2 1157   0.025   4.239   7.887 -0.0922 -0.0493  0.1572
   61POPC   C1A 1158   0.394   3.942   7.643  0.0644 -0.5690  0.3729
   61POPC   D2A 1159   0.556   3.643   7.279 -0.1039  0.2656  0.0065
   61POPC   C3A 1160   0.722   3.667   6.828 -0.0818 -0.3105  0.0873
   61POPC   C4A 1161   0.788   4.002   6.580  0.1836 -0.1572  0.1815
   61POPC   C1B 1162  -0.296   4.510   7.636 -0.2310  0.1392  0.0218
   61POPC   C2B 1163  -0.282   4.787   7.238  0.2493  0.0025  0.0193
   61POPC   C3B 1164  -0.476   5.045   6.906 -0.0195  0.1257  0.4719
   61POPC   C4B 1165  -0.448   5.305   6.574 -0.0234  0.1592  0.3044
   62POPC   NC3 1166   0.121   7.158   8.643  0.5036  0.2763  0.0794
   62POPC   PO4 1167   0.098   6.744   8.462  0.0589  0.0458 -0.0189
   62POPC   GL1 1168   0.021   6.601   8.022 -0.0050 -0.2824 -0.2156
   62POPC   GL2 1169  -0.172   6.353   7.861  0.2577  0.1460  0.0082
   62POPC   C1A 1170   0.360   6.558   7.600  0.2043  0.1807 -0.3765
   62POPC   D2A 1171   0.621   6.465   7.225  0.0834 -0.0030  0.1000
   62POPC   C3A 1172   0.778   6.871   6.986  0.0231 -0.1286 -0.3365
   62POPC   C4A 1173   1.033   7.149   6.764  0.2619 -0.0090  0.0282
   62POPC   C1B 1174  -0.010   6.260   7.537 -0.0133 -0.1610 -0.0282
   62POPC   C2B 1175   0.100   6.409   7.117 -0.2696  0.2910 -0.0382
   62POPC   C3B 1176   0.417   6.545   6.785 -0.1105  0.0608 -0.0918
   62POPC   C4B 1177   0.385   6.776   6.417  0.0791 -0.1996  0.2321
   63POPC   NC3 1178   9.347   3.055   9.155  0.0234  0.4085  0.0456
   63POPC   PO4 1179   9.724   3.030   8.930 -0.0783 -0.1349 -0.1528
   63POPC   GL1 1180   9.942   2.961   8.712  0.0330 -0.0115  0.1000
   63POPC   GL2 1181   9.825   2.639   8.568 -0.0894 -0.3410 -0.3960
   63POPC   C1A 1182  10.295   2.838   8.369 -0.3145  0.3862 -0.1392
   63POPC   D2A 1183  10.716   2.550   8.319  0.0620  0.2443 -0.1178
   63POPC   C3A 1184  10.738   2.318   7.960  0.0387  0.1693 -0.0902
   63POPC   C4A 1185  10.594   2.013   7.672  0.0790  0.3616  0.4938
   63POPC   C1B 1186   9.795   2.526   8.257  0.0119 -0.2323 -0.0639
   63POPC   C2B 1187  10.189   2.467   8.026 -0.0590 -0.4778  0.0407
   63POPC   C3B 1188  10.475   2.698   7.697 -0.0451 -0.1513  0.1796
   63POPC   C4B 1189  10.811   2.469   7.487  0.1407  0.0129 -0.0449
   64POPC   NC3 1190   2.424   6.294   8.618 -0.2641  0.0616 -0.1257
   64POPC   PO4 1191   1.940   6.328   8.574  0.3827  0.0833 -0.2093
   64POPC   GL1 1192   1.830   6.135   8.250  0.0556 -0.3273 -0.0587
   64POPC   GL2 1193   1.517   6.181   8.080  0.1397  0.1515  0.0635
   64POPC   C1A 1194   1.978   6.023   7.837  0.1226 -0.2848 -0.0907
   64POPC   D2A 1195   2.178   5.661   7.749  0.1085 -0.0343 -0.0417
   64POPC   C3A 1196   1.906   5.361   7.695  0.0902  0.2668 -0.0190
   64POPC   C4A 1197   1.805   4.968   7.582  0.3254  0.0027  0.1471
   64POPC   C1B 1198   1.287   6.163   7.653 -0.2489  0.0621 -0.0116
   64POPC   C2B 1199   1.099   6.432   7.398 -0.2603 -0.1038  0.3741
   64POPC   C3B 1200   1.281   6.492   7.059  0.1758 -0.1914 -0.0694
   64POPC   C4B 1201   1.342   6.586   6.655  0.1965  0.1465  0.1429
   65POPC   NC3 1202   3.231   6.764   8.887 -0.3309 -0.2088  0.2562
   65POPC   PO4 1203   3.016   6.471   8.639  0.1010 -0.1133 -0.0235
   65POPC   GL1 1204   3.003   6.122   8.274 -0.0025  0.2529  0.1900
   65POPC   GL2 1205   2.699   6.166   8.250  0.3328 -0.1451  0.1259
   65POPC   C1A 1206   3.075   6.281   7.880  0.3204 -0.2891  0.1778
   65POPC   D2A 1207   3.014   6.232   7.435 -0.1155  0.0086 -0.2443
   65POPC   C3A 1208   3.227   6.382   7.022  0.2283  0.0135 -0.1911
   65POPC   C4A 1209   3.143   6.214   6.612 -0.1564 -0.3630  0.2379
   65POPC   C1B 1210   2.477   6.245   7.867  0.4543 -0.0572  0.2387
   65POPC   C2B 1211   2.285   6.164   7.445  0.3406  0.0040 -0.1124
   65POPC   C3B 1212   2.087   6.192   7.057 -0.3279 -0.0164 -0.0535
   65POPC   C4B 1213   2.296   5.981   6.696  0.2199  0.2480 -0.0134
   66POPC   NC3 1214   9.792   8.078   8.604  0.2319 -0.1892 -0.0259
   66POPC   PO4 1215   9.771   7.591   8.542 -0.1896  0.0892 -0.2880
   66POPC   GL1 1216   9.724   7.766   8.116 -0.3116  0.0309  0.0789
   66POPC   GL2 1217   9.629   8.146   8.106 -0.0032  0.1293  0.2309
   66POPC   C1A 1218   9.705   7.810   7.626  0.1821  0.0329 -0.1044
   66POPC   D2A 1219   9.883   7.533   7.223 -0.1323  0.0394 -0.1307
   66POPC   C3A 1220  10.213   7.417   7.134  0.1108 -0.1256 -0.1715
   66POPC   C4A 1221  10.646   7.307   7.244  0.1415 -0.5475 -0.1388
   66POPC   C1B 1222   9.398   8.201   7.765  0.1927  0.1658 -0.1471
   66POPC   C2B 1223   9.233   8.248   7.348  0.2222  0.0726 -0.0093
   66POPC   C3B 1224   9.107   8.501   7.002 -0.1314  0.0709 -0.1800
   66POPC   C4B 1225   9.327   8.758   6.822 -0.0405 -0.2500 -0.0542
   67POPC   NC3 1226   1.147   6.181   8.502 -0.0249 -0.2639  0.0543
   67POPC   PO4 1227   0.951   6.540   8.571  0.0913 -0.0564  0.3909
   67POPC   GL1 1228   1.057   6.558   8.022 -0.0992 -0.0148  0.3278
   67POPC   GL2 1229   0.843   6.776   7.930 -0.0548  0.3795 -0.1687
   67POPC   C1A 1230   0.773   6.252   7.668  0.2134  0.1577 -0.1393
   67POPC   D2A 1231   0.448   6.011   7.419  0.0724 -0.1330  0.1100
   67POPC   C3A 1232   0.387   5.997   6.960  0.0667 -0.2699  0.0500
   67POPC   C4A 1233  -0.020   6.162   6.710  0.0753  0.1035 -0.5040
   67POPC   C1B 1234   0.872   6.856   7.495  0.4432  0.0358 -0.1385
   67POPC   C2B 1235   1.164   7.018   7.263  0.3118 -0.0580 -0.0969
   67POPC   C3B 1236   1.447   6.971   6.947 -0.2242  0.1276  0.2373
   67POPC   C4B 1237   1.894   7.027   6.899 -0.0947 -0.0966 -0.0573
   68POPC   NC3 1238   9.051   6.958   8.172 -0.2882 -0.0158 -0.0915
   68POPC   PO4 1239   8.769   7.294   8.231  0.0025  0.1774 -0.2013
   68POPC   GL1 1240   9.014   7.446   7.954  0.0314  0.1156 -0.0178
   68POPC   GL2 1241   8.863   7.461   7.677  0.2218 -0.0949  0.3256
   68POPC   C1A 1242   9.359   7.425   7.722  0.1209 -0.1488  0.0028
   68POPC   D2A 1243   9.807   7.238   7.733 -0.0266  0.1903  0.2803
   68POPC   C3A 1244   9.797   6.766   7.489  0.2106 -0.3931  0.1636
   68POPC   C4A 1245   9.622   6.711   7.152 -0.0876 -0.0560 -0.0136
   68POPC   C1B 1246   9.067   7.354   7.275  0.0299 -0.1494 -0.2202
   68POPC   C2B 1247   9.101   7.144   6.827  0.0144  0.1253 -0.3892
   68POPC   C3B 1248   8.767   6.752   6.735 -0.5012 -0.0378  0.4246
   68POPC   C4B 1249   8.598   6.369   6.756  0.0790 -0.2675 -0.1298
   69POPC   NC3 1250   2.088   2.193   9.126  0.1261  0.0925 -0.1923
   69POPC   PO4 1251   2.121   2.446   8.809 -0.3152 -0.4292 -0.1760
   69POPC   GL1 1252   1.936   2.702   8.462 -0.1337  0.1109 -0.3292
   69POPC   GL2 1253   2.057   2.950   8.369  0.2916 -0.0661 -0.1183
   69POPC   C1A 1254   1.729   2.922   8.071  0.5004  0.1648  0.0325
   69POPC   D2A 1255   1.814   2.961   7.604 -0.0869  0.2030 -0.0592
   69POPC   C3A 1256   2.160   2.795   7.404  0.0043  0.2632  0.2055
   69POPC   C4A 1257   2.337   2.917   6.955 -0.0189 -0.0557 -0.2687
   69POPC   C1B 1258   2.256   2.977   7.981  0.0252 -0.0883  0.1606
   69POPC   C2B 1259   2.280   3.254   7.625  0.0347 -0.0680  0.0310
   69POPC   C3B 1260   2.099   3.273   7.220 -0.0384 -0.3168 -0.1740
   69POPC   C4B 1261   1.821   3.135   6.852 -0.2861  0.2003  0.3470
   70POPC   NC3 1262   4.751   9.205   9.394  0.1483 -0.2000 -0.1500
   70POPC   PO4 1263   4.710   8.785   9.470  0.1390  0.2233  0.0146
   70POPC   GL1 1264   4.773   8.738   9.038  0.0646  0.0050  0.0136
   70POPC   GL2 1265   4.710   8.386   8.946 -0.2342  0.2166  0.0078
   70POPC   C1A 1266   4.946   8.848   8.638 -0.1348 -0.0971  0.0649
   70POPC   D2A 1267   5.251   9.178   8.510 -0.2036 -0.0149  0.2831
   70POPC   C3A 1268   5.423   9.022   8.117  0.0329 -0.2377  0.1429
   70POPC   C4A 1269   5.434   8.678   7.828  0.0405  0.2005 -0.1206
   70POPC   C1B 1270   5.172   8.546   8.940 -0.0006  0.2716 -0.1987
   70POPC   C2B 1271   5.462   8.818   8.963 -0.2179  0.2308  0.1460
   70POPC   C3B 1272   5.622   8.790   8.621  0.0643 -0.1772  0.1425
   70POPC   C4B 1273   5.743   8.655   8.262 -0.2528 -0.4623 -0.1410
   71POPC   NC3 1274   1.406   0.899   8.498 -0.0642 -0.1555 -0.0932
   71POPC   PO4 1275   1.368   1.308   8.673  0.0286  0.2483 -0.1356
   71POPC   GL1 1276   1.185   1.266   8.262  0.0201  0.0465 -0.1857
   71POPC   GL2 1277   1.453   1.308   8.140  0.1302  0.0537 -0.0342
   71POPC   C1A 1278   1.011   1.249   7.862  0.0418  0.1945  0.1403
   71POPC   D2A 1279   1.165   1.246   7.334 -0.0953 -0.0966 -0.1292
   71POPC   C3A 1280   1.090   1.634   7.103 -0.0998 -0.1414 -0.0030
   71POPC   C4A 1281   1.065   1.989   7.254  0.0458 -0.3259  0.1973
   71POPC   C1B 1282   1.682   1.408   7.742  0.1871  0.0766 -0.0504
   71POPC   C2B 1283   1.749   1.375   7.333 -0.0652  0.0467 -0.1022
   71POPC   C3B 1284   1.832   1.146   6.930  0.1766  0.0501 -0.1272
   71POPC   C4B 1285   2.164   1.078   6.663  0.1355  0.0106 -0.1156
   72POPC   NC3 1286   3.773   9.164   9.046  0.0648  0.4105 -0.0772
   72POPC   PO4 1287   3.895   8.833   9.272 -0.1649 -0.2340 -0.0139
   72POPC   GL1 1288   3.920   8.613   8.909 -0.0997  0.0037  0.0520
   72POPC   GL2 1289   4.012   8.378   8.812  0.1585  0.0784 -0.1457
   72POPC   C1A 1290   4.377   8.651   8.667 -0.1775 -0.0725  0.4332
   72POPC   D2A 1291   4.621   8.544   8.258 -0.0772 -0.1319 -0.1217
   72POPC   C3A 1292   4.463   8.654   7.825  0.0699  0.1369  0.1096
   72POPC   C4A 1293   4.465   8.877   7.481  0.0440 -0.0278  0.3171
   72POPC   C1B 1294   3.912   8.443   8.371  0.1612 -0.0250  0.1274
   72POPC   C2B 1295   4.046   8.458   8.045 -0.1017  0.0267 -0.0522
   72POPC   C3B 1296   4.028   8.560   7.581 -0.0518  0.1614  0.1383
   72POPC   C4B 1297   3.937   8.729   7.205  0.0671 -0.0031  0.1654
   73POPC   NC3 1298   1.858   1.145   8.521  0.0019 -0.3220 -0.3878
   73POPC   PO4 1299   1.868   0.773   8.421  0.3457 -0.1763  0.2117
   73POPC   GL1 1300   1.705   0.855   8.032  0.0963  0.1824 -0.0688
   73POPC   GL2 1301   1.338   0.831   7.990 -0.0344 -0.1292 -0.2640
   73POPC   C1A 1302   1.542   0.899   7.544 -0.0692 -0.1567 -0.1085
   73POPC   D2A 1303   1.403   0.634   7.200  0.1411 -0.1036  0.0205
   73POPC   C3A 1304   1.303   0.230   7.025  0.4148  0.1399  0.1966
   73POPC   C4A 1305   1.218  -0.103   6.838  0.3881 -0.0892 -0.1077
   73POPC   C1B 1306   1.057   0.735   7.650 -0.1016 -0.0380  0.2159
   73POPC   C2B 1307   0.790   0.876   7.333 -0.1917  0.1945 -0.3037
   73POPC   C3B 1308   0.529   0.807   7.022 -0.1340 -0.3650  0.1783
   73POPC   C4B 1309   0.195   1.008   6.791 -0.0949 -0.1369  0.0444
   74POPC   NC3 1310   7.861   1.310   8.386  0.2283 -0.1284 -0.1330
   74POPC   PO4 1311   7.509   1.289   8.613  0.2496 -0.1379  0.1235
   74POPC   GL1 1312   7.355   1.396   8.133 -0.2096 -0.5021 -0.1866
   74POPC   GL2 1313   7.300   1.701   7.925 -0.0009  0.1518  0.0116
   74POPC   C1A 1314   7.536   1.306   7.639 -0.0329 -0.0152 -0.1235
   74POPC   D2A 1315   7.762   1.146   7.260 -0.1381 -0.0199  0.1571
   74POPC   C3A 1316   7.640   1.240   6.840  0.0533 -0.1315  0.3554
   74POPC   C4A 1317   7.438   1.209   6.463  0.3109  0.0308  0.1326
   74POPC   C1B 1318   7.024   1.520   7.646  0.0449 -0.0381  0.0963
   74POPC   C2B 1319   6.840   1.076   7.450 -0.3307  0.1609 -0.1917
   74POPC   C3B 1320   6.657   0.817   7.169 -0.0885  0.0233  0.2012
   74POPC   C4B 1321   6.777   0.448   6.838 -0.0410  0.1555  0.0011
   75POPC   NC3 1322   6.609   3.345   8.636 -0.2539  0.5308 -0.1446
   75POPC   PO4 1323   7.067   3.106   8.325  0.0859 -0.0043  0.2176
   75POPC   GL1 1324   7.083   2.865   7.931 -0.0146 -0.3351  0.1749
   75POPC   GL2 1325   6.880   2.596   7.826  0.2361 -0.0947  0.1282
   75POPC   C1A 1326   6.932   3.135   7.566 -0.0434  0.0309  0.0843
   75POPC   D2A 1327   6.581   3.247   7.388 -0.0822  0.0571  0.1345
   75POPC   C3A 1328   6.214   3.039   7.331  0.4048  0.0987  0.0109
   75POPC   C4A 1329   5.967   3.058   6.934  0.0133  0.2139 -0.0126
   75POPC   C1B 1330   7.059   2.244   7.770 -0.1400  0.0730 -0.1739
   75POPC   C2B 1331   7.180   1.980   7.452 -0.1060  0.0045  0.0236
   75POPC   C3B 1332   7.538   1.775   7.382  0.0419  0.1471 -0.0160
   75POPC   C4B 1333   7.910   1.812   7.024 -0.0018  0.1256  0.0357
   76POPC   NC3 1334   2.836   7.840   8.398  0.4386 -0.0472 -0.1035
   76POPC   PO4 1335   2.758   7.477   8.485  0.0835  0.0397  0.0544
   76POPC   GL1 1336   2.635   7.426   8.005 -0.0980  0.2008  0.0297
   76POPC   GL2 1337   2.760   7.176   7.871  0.0379 -0.1138  0.1701
   76POPC   C1A 1338   2.445   7.605   7.550  0.0770 -0.3747 -0.0507
   76POPC   D2A 1339   2.486   7.805   7.149 -0.0328  0.0629  0.3963
   76POPC   C3A 1340   2.038   7.907   6.899  0.0748  0.1049  0.2571
   76POPC   C4A 1341   1.683   8.130   6.790  0.3623  0.0157  0.3627
   76POPC   C1B 1342   2.605   7.142   7.539  0.0382 -0.0635 -0.0503
   76POPC   C2B 1343   2.398   7.109   7.171 -0.4408 -0.2691 -0.0949
   76POPC   C3B 1344   2.444   7.122   6.725  0.1041  0.1011  0.0804
   76POPC   C4B 1345   2.445   7.462   6.433  0.0425 -0.2971  0.1869
   77POPC   NC3 1346   5.281   0.914   9.179  0.2343  0.1426 -0.1093
   77POPC   PO4 1347   5.567   0.758   9.498 -0.2440 -0.0983 -0.2147
   77POPC   GL1 1348   5.562   0.561   9.051 -0.1149 -0.2808 -0.3402
   77POPC   GL2 1349   5.483   0.690   8.774 -0.1004 -0.1778 -0.1409
   77POPC   C1A 1350   5.617   0.189   8.764  0.1396  0.1049  0.1319
   77POPC   D2A 1351   5.366  -0.036   8.450 -0.0525 -0.5661 -0.1493
   77POPC   C3A 1352   5.027   0.118   8.429 -0.3010  0.2709  0.0495
   77POPC   C4A 1353   4.808   0.446   8.221  0.1337  0.3392  0.1107
   77POPC   C1B 1354   5.928   0.724   8.639 -0.2016  0.2698 -0.2738
   77POPC   C2B 1355   6.220   0.846   8.277 -0.0019  0.0916  0.3708
   77POPC   C3B 1356   6.389   1.174   8.035 -0.0334 -0.3140  0.2148
   77POPC   C4B 1357   6.478   1.462   7.707  0.0131 -0.0195  0.0132
   78POPC   NC3 1358   1.080   5.199   8.684 -0.3659  0.4670 -0.5414
   78POPC   PO4 1359   1.542   5.225   8.690  0.0789  0.1929  0.2689
   78POPC   GL1 1360   1.377   5.313   8.273  0.0137 -0.0246 -0.3464
   78POPC   GL2 1361   1.155   5.427   8.168  0.1860 -0.4014  0.3885
   78POPC   C1A 1362   1.453   5.299   7.867  0.1508 -0.0922 -0.1227
   78POPC   D2A 1363   1.494   5.283   7.405 -0.2526 -0.2161  0.0067
   78POPC   C3A 1364   1.159   5.096   7.212  0.1704 -0.0852 -0.0424
   78POPC   C4A 1365   0.822   5.006   6.993  0.3524  0.0440 -0.4632
   78POPC   C1B 1366   1.206   5.778   7.940 -0.1494 -0.4868  0.2655
   78POPC   C2B 1367   1.594   5.738   7.655 -0.2712 -0.1004 -0.3058
   78POPC   C3B 1368   1.885   5.742   7.297  0.1653  0.2929 -0.0699
   78POPC   C4B 1369   2.262   5.632   7.149  0.2199 -0.2159  0.1353
   79POPC   NC3 1370   8.464   8.225   8.862  0.0664 -0.1275  0.0675
   79POPC   PO4 1371   8.351   8.349   8.342  0.0119  0.0930  0.1644
   79POPC   GL1 1372   8.210   8.209   7.945 -0.0856  0.3420 -0.1209
   79POPC   GL2 1373   8.357   7.965   7.789 -0.1998  0.1596  0.2559
   79POPC   C1A 1374   7.995   8.353   7.650  0.2237 -0.1108 -0.0733
   79POPC   D2A 1375   7.821   8.290   7.260 -0.0524  0.0282 -0.1131
   79POPC   C3A 1376   7.433   7.968   7.239  0.1257  0.1829 -0.0642
   79POPC   C4A 1377   6.959   7.757   7.193  0.1368 -0.0689 -0.0110
   79POPC   C1B 1378   8.309   8.015   7.392 -0.0802 -0.0629 -0.4251
   79POPC   C2B 1379   8.291   8.250   7.047  0.3024  0.0816  0.1388
   79POPC   C3B 1380   8.044   8.326   6.666  0.0904 -0.4440 -0.0700
   79POPC   C4B 1381   7.836   8.262   6.325 -0.1679  0.1259 -0.0009
   80POPC   NC3 1382   7.557   7.076   9.209  0.0195 -0.1291 -0.1370
   80POPC   PO4 1383   7.365   6.991   8.880 -0.2445 -0.1140 -0.2116
   80POPC   GL1 1384   7.398   7.155   8.484  0.0332  0.0708  0.0032
   80POPC   GL2 1385   7.120   7.210   8.459  0.3759 -0.0390  0.0353
   80POPC   C1A 1386   7.455   7.081   7.968  0.2560  0.1050 -0.3313
   80POPC   D2A 1387   7.253   6.896   7.632  0.1322  0.6075 -0.3214
   80POPC   C3A 1388   7.163   6.837   7.262  0.1539 -0.0633  0.4187
   80POPC   C4A 1389   7.203   6.764   6.792  0.1011 -0.2293 -0.2189
   80POPC   C1B 1390   6.908   7.156   8.025 -0.0260  0.1698 -0.2097
   80POPC   C2B 1391   6.593   7.205   7.778  0.2149  0.1369 -0.0325
   80POPC   C3B 1392   6.204   7.243   7.499  0.2324 -0.0472  0.0182
   80POPC   C4B 1393   5.798   7.345   7.521  0.1767 -0.0272 -0.1569
   81POPC   NC3 1394   5.849   2.123   8.715  0.2211  0.1752  0.1029
   81POPC   PO4 1395   5.981   2.078   8.313 -0.0428 -0.1820 -0.1633
   81POPC   GL1 1396   5.688   1.972   8.074  0.2161 -0.0660  0.0181
   81POPC   GL2 1397   5.693   2.332   7.932 -0.0602 -0.1584  0.1268
   81POPC   C1A 1398   5.669   1.710   7.645 -0.0040 -0.1865 -0.0382
   81POPC   D2A 1399   5.948   1.662   7.255 -0.1636 -0.2676 -0.3701
   81POPC   C3A 1400   6.013   1.588   6.807  0.0804 -0.2790  0.1397
   81POPC   C4A 1401   6.084   1.357   6.480 -0.0782  0.2744 -0.1093
   81POPC   C1B 1402   5.428   2.302   7.522 -0.3908  0.0445 -0.1280
   81POPC   C2B 1403   5.322   2.133   7.132 -0.3144 -0.2300  0.2108
   81POPC   C3B 1404   5.443   1.997   6.809  0.2309  0.1063  0.2698
   81POPC   C4B 1405   5.349   2.306   6.598  0.1390  0.2440 -0.3535
   82POPC   NC3 1406   2.034   5.241   8.749  0.2653 -0.1583 -0.1220
   82POPC   PO4 1407   2.323   4.801   8.639  0.1623 -0.0059  0.4630
   82POPC   GL1 1408   2.262   4.853   8.076  0.1979  0.1734 -0.2237
   82POPC   GL2 1409   2.269   5.112   7.924  0.0969  0.0125 -0.1267
   82POPC   C1A 1410   2.222   4.633   7.595 -0.1668  0.1017  0.4494
   82POPC   D2A 1411   2.214   4.586   7.139 -0.2962 -0.2341  0.1529
   82POPC   C3A 1412   1.805   4.383   6.760 -0.2486 -0.0756  0.0109
   82POPC   C4A 1413   1.686   4.515   6.390  0.0106  0.0394  0.4481
   82POPC   C1B 1414   2.338   5.150   7.489  0.1174  0.4005 -0.0655
   82POPC   C2B 1415   1.986   5.231   7.211  0.2614  0.1523 -0.2798
   82POPC   C3B 1416   1.686   5.218   6.903 -0.0379  0.1624  0.0383
   82POPC   C4B 1417   1.252   5.467   6.877  0.0113 -0.0597 -0.2722
   83POPC   NC3 1418   6.506   9.435   9.853 -0.0005  0.0598 -0.2369
   83POPC   PO4 1419   6.529   9.322   9.400  0.1301 -0.1733  0.2870
   83POPC   GL1 1420   6.383   9.405   8.975  0.0597 -0.0799  0.0050
   83POPC   GL2 1421   6.542   9.221   8.775  0.0022  0.0753  0.0493
   83POPC   C1A 1422   6.074   9.452   8.714  0.2326  0.3080 -0.0123
   83POPC   D2A 1423   5.660   9.439   8.604 -0.2521 -0.1320  0.3286
   83POPC   C3A 1424   5.515   9.520   8.183 -0.0607 -0.3164  0.0784
   83POPC   C4A 1425   5.600   9.534   7.793  0.2174 -0.4592 -0.0325
   83POPC   C1B 1426   6.486   9.376   8.347 -0.0943  0.1774  0.2679
   83POPC   C2B 1427   6.505   9.338   7.911 -0.0645 -0.4986  0.2180
   83POPC   C3B 1428   6.339   9.079   7.660 -0.2830 -0.1746 -0.0102
   83POPC   C4B 1429   6.411   8.532   7.441  0.1371  0.0391 -0.0442
   84POPC   NC3 1430   8.615   7.821   8.209  0.1661 -0.1615  0.3632
   84POPC   PO4 1431   8.824   8.020   8.574 -0.2436  0.0129 -0.0317
   84POPC   GL1 1432   8.846   8.244   8.137 -0.1677  0.1239  0.4836
   84POPC   GL2 1433   8.943   8.038   7.924  0.0440  0.0927 -0.1524
   84POPC   C1A 1434   8.637   8.413   7.706 -0.0215 -0.0617  0.0887
   84POPC   D2A 1435   8.641   8.654   7.383 -0.0078  0.0412 -0.1513
   84POPC   C3A 1436   8.446   9.046   7.376 -0.1886 -0.3398  0.0643
   84POPC   C4A 1437   8.489   9.462   7.440 -0.1766  0.0530 -0.1612
   84POPC   C1B 1438   8.863   7.931   7.472 -0.2516  0.0570  0.0986
   84POPC   C2B 1439   8.749   8.159   7.148 -0.2659  0.4871  0.1194
   84POPC   C3B 1440   8.645   8.278   6.677 -0.4967  0.1406 -0.1037
   84POPC   C4B 1441   8.728   8.359   6.334  0.3048 -0.1522 -0.1653
   85POPC   NC3 1442   7.398   9.219   9.529 -0.1533  0.0412 -0.1185
   85POPC   PO4 1443   7.191   8.781   9.300  0.1215  0.1069  0.0306
   85POPC   GL1 1444   7.034   8.718   8.911  0.0249  0.0295 -0.1629
   85POPC   GL2 1445   7.235   8.874   8.644  0.2241 -0.0886 -0.1483
   85POPC   C1A 1446   6.671   8.837   8.565  0.0168 -0.2596 -0.3169
   85POPC   D2A 1447   6.552   8.849   8.149 -0.4695 -0.1575 -0.1555
   85POPC   C3A 1448   6.226   8.632   7.987 -0.0929  0.1413 -0.0207
   85POPC   C4A 1449   5.874   8.911   7.717 -0.2190 -0.0321 -0.0129
   85POPC   C1B 1450   7.011   9.028   8.203 -0.3908 -0.0544 -0.1456
   85POPC   C2B 1451   6.977   9.359   7.781 -0.0983 -0.1408  0.1759
   85POPC   C3B 1452   7.033   9.443   7.357 -0.1452 -0.1515  0.0274
   85POPC   C4B 1453   7.145   9.585   6.996  0.2912 -0.1143  0.0739
   86POPC   NC3 1454   4.144   4.155   8.618 -0.3262  0.1186  0.2670
   86POPC   PO4 1455   4.075   4.541   8.725  0.1083 -0.0367 -0.1296
   86POPC   GL1 1456   3.753   4.285   8.405  0.0059 -0.2220 -0.1017
   86POPC   GL2 1457   3.681   3.994   8.465  0.0726 -0.2023 -0.0190
   86POPC   C1A 1458   3.857   4.299   7.955  0.1506  0.1697  0.1076
   86POPC   D2A 1459   3.984   4.604   7.638 -0.0203 -0.1028 -0.1732
   86POPC   C3A 1460   4.368   4.702   7.577  0.4187 -0.1798 -0.4518
   86POPC   C4A 1461   4.741   4.796   7.824  0.4344  0.0148  0.0763
   86POPC   C1B 1462   3.659   3.734   8.005  0.0727  0.0574  0.0162
   86POPC   C2B 1463   3.631   3.449   7.636  0.0765  0.1412 -0.0838
   86POPC   C3B 1464   3.589   3.550   7.174 -0.1278 -0.0924 -0.2434
   86POPC   C4B 1465   3.799   3.795   6.884 -0.3433 -0.2821 -0.2608
   87POPC   NC3 1466   8.123   5.272   8.455 -0.3642 -0.1637  0.0025
   87POPC   PO4 1467   7.879   4.989   8.486 -0.1026  0.0380  0.3021
   87POPC   GL1 1468   7.857   5.128   8.040  0.0684  0.0476  0.3092
   87POPC   GL2 1469   7.530   5.279   7.964 -0.1763 -0.1696 -0.0828
   87POPC   C1A 1470   7.614   4.895   7.674  0.3284  0.0516 -0.1516
   87POPC   D2A 1471   7.269   4.671   7.634 -0.3942 -0.0988  0.2105
   87POPC   C3A 1472   7.142   4.585   7.168 -0.0192 -0.0195 -0.1039
   87POPC   C4A 1473   7.131   4.671   6.711  0.0235 -0.0754  0.3214
   87POPC   C1B 1474   7.689   5.418   7.587 -0.0004 -0.0967  0.1017
   87POPC   C2B 1475   7.556   5.514   7.183  0.1637 -0.2413 -0.2259
   87POPC   C3B 1476   7.294   5.457   6.869 -0.1159 -0.0280 -0.4840
   87POPC   C4B 1477   7.048   5.176   6.701 -0.2239  0.0301 -0.3932
   88POPC   NC3 1478   1.793   6.862   8.524  0.2341  0.2600 -0.0467
   88POPC   PO4 1479   1.626   7.309   8.245 -0.0477 -0.0112  0.3198
   88POPC   GL1 1480   1.420   7.345   7.936 -0.0750  0.3597 -0.0653
   88POPC   GL2 1481   1.146   7.228   7.934  0.2586 -0.0168 -0.0256
   88POPC   C1A 1482   1.467   7.388   7.480 -0.4781 -0.3617  0.2382
   88POPC   D2A 1483   1.213   7.494   7.171  0.2486 -0.2847  0.1803
   88POPC   C3A 1484   1.233   7.622   6.754  0.0171  0.2153  0.0155
   88POPC   C4A 1485   1.250   7.274   6.340  0.2164  0.0793  0.1808
   88POPC   C1B 1486   1.337   6.891   7.768 -0.1182 -0.2340 -0.2426
   88POPC   C2B 1487   1.509   6.687   7.490 -0.0937 -0.0106 -0.0956
   88POPC   C3B 1488   1.797   6.567   7.027  0.2656 -0.3519 -0.3198
   88POPC   C4B 1489   1.906   6.489   6.683  0.0240  0.0626  0.1000
   89POPC   NC3 1490   4.219   3.000   8.862 -0.1597  0.0466 -0.2502
   89POPC   PO4 1491   4.614   3.377   8.710  0.0361  0.0474 -0.0398
   89POPC   GL1 1492   4.348   3.326   8.417 -0.0473  0.2074  0.2525
   89POPC   GL2 1493   4.122   3.626   8.401 -0.1901 -0.0811 -0.2262
   89POPC   C1A 1494   4.389   3.439   7.973 -0.0028  0.1831 -0.1612
   89POPC   D2A 1495   4.110   3.581   7.634 -0.1215  0.4208  0.0314
   89POPC   C3A 1496   4.058   3.257   7.387  0.3012  0.0461 -0.1044
   89POPC   C4A 1497   4.045   3.057   7.144  0.2328 -0.0685 -0.0182
   89POPC   C1B 1498   4.208   3.893   8.064 -0.2782 -0.0044 -0.2760
   89POPC   C2B 1499   4.240   4.054   7.688 -0.3916 -0.1693  0.0485
   89POPC   C3B 1500   4.162   4.333   7.235 -0.2988 -0.0708  0.0108
   89POPC   C4B 1501   4.205   4.150   6.874 -0.2300 -0.2472  0.1025
   90POPC   NC3 1502   6.822   6.286   8.554 -0.4124  0.0550  0.2017
   90POPC   PO4 1503   7.151   6.275   8.221 -0.1635 -0.0332 -0.2003
   90POPC   GL1 1504   7.011   6.483   7.857 -0.0230  0.4904  0.1192
   90POPC   GL2 1505   6.742   6.549   8.137 -0.0156  0.0607 -0.0877
   90POPC   C1A 1506   6.738   6.723   7.521 -0.0015 -0.1633 -0.0515
   90POPC   D2A 1507   6.703   7.103   7.274 -0.3442 -0.0487  0.4008
   90POPC   C3A 1508   6.586   7.277   6.989 -0.1112  0.2653  0.0298
   90POPC   C4A 1509   6.712   7.565   6.696 -0.0940 -0.1586  0.2255
   90POPC   C1B 1510   6.536   6.311   7.816  0.1031 -0.1195  0.0067
   90POPC   C2B 1511   6.495   6.292   7.388 -0.0874  0.5901 -0.0848
   90POPC   C3B 1512   6.326   6.313   6.948 -0.1111 -0.0876 -0.5442
   90POPC   C4B 1513   6.221   6.463   6.528  0.1527  0.1391 -0.0577
   91POPC   NC3 1514   2.142   4.055   9.085  0.1215  0.0387  0.2654
   91POPC   PO4 1515   2.140   4.349   8.722  0.4823  0.3303  0.2110
   91POPC   GL1 1516   1.983   4.388   8.303 -0.1249  0.2432 -0.0616
   91POPC   GL2 1517   2.096   4.119   8.245 -0.2228 -0.2510  0.0502
   91POPC   C1A 1518   1.808   4.511   7.860 -0.3292 -0.1171 -0.0939
   91POPC   D2A 1519   1.756   4.433   7.382 -0.1543  0.4017 -0.0447
   91POPC   C3A 1520   1.763   4.756   7.135 -0.1463  0.0950 -0.0799
   91POPC   C4A 1521   1.931   4.896   6.718 -0.1418 -0.1750 -0.1445
   91POPC   C1B 1522   2.407   4.165   8.047 -0.0013 -0.1299  0.1013
   91POPC   C2B 1523   2.676   4.562   7.971  0.0646  0.0802  0.4135
   91POPC   C3B 1524   2.682   4.852   7.665 -0.1461  0.0855  0.0428
   91POPC   C4B 1525   2.628   4.917   7.143  0.0620  0.1054 -0.0126
   92POPC   NC3 1526   8.068   3.150   8.784 -0.0302  0.0632 -0.3983
   92POPC   PO4 1527   7.948   2.773   8.565 -0.0593 -0.0674  0.0204
   92POPC   GL1 1528   7.846   2.954   8.249 -0.0355 -0.1656  0.1008
   92POPC   GL2 1529   7.486   3.158   8.042  0.0754  0.0299 -0.1482
   92POPC   C1A 1530   8.006   3.046   7.832  0.0083 -0.0071 -0.0190
   92POPC   D2A 1531   8.299   3.220   7.426 -0.1727  0.2853 -0.2816
   92POPC   C3A 1532   8.278   3.222   6.995  0.3877  0.0128  0.2571
   92POPC   C4A 1533   8.277   2.901   6.611  0.1733 -0.1431 -0.0579
   92POPC   C1B 1534   7.434   3.083   7.608  0.2044 -0.1637 -0.1813
   92POPC   C2B 1535   7.327   2.958   7.163  0.2402 -0.1221 -0.2436
   92POPC   C3B 1536   7.204   3.281   6.910 -0.0866 -0.1577  0.0890
   92POPC   C4B 1537   7.108   3.611   6.643  0.2314 -0.0042 -0.1407
   93POPC   NC3 1538   7.602   3.203   8.736 -0.0024 -0.0368 -0.1008
   93POPC   PO4 1539   7.736   3.583   8.574  0.3244  0.2541  0.2459
   93POPC   GL1 1540   7.415   3.634   8.167  0.3174 -0.1102  0.0785
   93POPC   GL2 1541   7.186   3.668   8.261  0.2996 -0.1986 -0.4346
   93POPC   C1A 1542   7.232   3.503   7.772 -0.2347  0.1017 -0.0771
   93POPC   D2A 1543   7.257   3.465   7.352  0.0667 -0.1111  0.0333
   93POPC   C3A 1544   7.320   3.739   7.095 -0.2171 -0.1905 -0.3513
   93POPC   C4A 1545   7.652   3.904   7.282  0.1469 -0.2306 -0.1231
   93POPC   C1B 1546   6.799   3.670   8.003  0.0915  0.3387 -0.2962
   93POPC   C2B 1547   6.525   3.599   7.716  0.1079  0.0354 -0.1179
   93POPC   C3B 1548   6.435   3.799   7.332  0.1016 -0.1307  0.0397
   93POPC   C4B 1549   6.420   4.075   7.006  0.0024 -0.2583 -0.0541
   94POPC   NC3 1550   4.265   9.342   9.414  0.0907  0.1687 -0.2645
   94POPC   PO4 1551   3.948   9.561   9.275 -0.1902 -0.0982 -0.2341
   94POPC   GL1 1552   4.071   9.711   8.908 -0.3689 -0.0772 -0.0754
   94POPC   GL2 1553   3.924   9.766   8.605 -0.0790  0.1273  0.1495
   94POPC   C1A 1554   4.456   9.625   8.566 -0.0745 -0.0651  0.3037
   94POPC   D2A 1555   4.860   9.566   8.623  0.0298 -0.3039 -0.1117
   94POPC   C3A 1556   4.949   9.590   8.223 -0.1304 -0.1046 -0.0734
   94POPC   C4A 1557   5.138   9.366   7.894 -0.1268 -0.1344  0.0276
   94POPC   C1B 1558   4.141  10.054   8.329  0.0751 -0.1891 -0.1137
   94POPC   C2B 1559   4.587   9.918   8.116  0.2350 -0.0828 -0.2452
   94POPC   C3B 1560   4.735   9.765   7.769  0.1157 -0.0814 -0.1553
   94POPC   C4B 1561   5.192   9.783   7.657  0.4259  0.5111  0.0471
   95POPC   NC3 1562   3.785   5.926   8.858  0.1394 -0.0721 -0.1404
   95POPC   PO4 1563   3.957   6.216   8.713 -0.1102 -0.1390  0.2424
   95POPC   GL1 1564   3.996   6.293   8.342 -0.2347  0.1135  0.1419
   95POPC   GL2 1565   4.216   5.985   8.232 -0.0327 -0.0833  0.2925
   95POPC   C1A 1566   4.039   6.358   7.935  0.1862  0.2929 -0.1382
   95POPC   D2A 1567   4.065   6.676   7.693  0.0258  0.0480  0.3391
   95POPC   C3A 1568   3.762   6.700   7.276 -0.0833  0.0220 -0.1413
   95POPC   C4A 1569   3.725   7.115   7.141 -0.0025 -0.1568  0.2114
   95POPC   C1B 1570   4.390   5.948   7.798 -0.0786 -0.0878 -0.2639
   95POPC   C2B 1571   4.516   5.614   7.423 -0.0385 -0.1272  0.1244
   95POPC   C3B 1572   4.495   5.560   7.002  0.1801  0.4566  0.1835
   95POPC   C4B 1573   4.286   5.551   6.538  0.2651 -0.0906  0.1957
   96POPC   NC3 1574   6.351   3.016   8.289  0.1161  0.1064  0.0678
   96POPC   PO4 1575   6.286   3.342   8.217 -0.0939  0.2919 -0.1395
   96POPC   GL1 1576   6.165   3.207   7.874 -0.0384 -0.2174  0.0504
   96POPC   GL2 1577   5.941   2.916   7.720 -0.1256  0.0594  0.0239
   96POPC   C1A 1578   6.066   3.498   7.455 -0.1417  0.1346  0.1987
   96POPC   D2A 1579   5.750   3.341   7.245 -0.0023  0.0714  0.1326
   96POPC   C3A 1580   5.493   3.460   6.937 -0.1179 -0.2771 -0.3487
   96POPC   C4A 1581   5.352   3.328   6.559  0.2712  0.1917 -0.0645
   96POPC   C1B 1582   5.729   2.701   7.408  0.2788  0.1173  0.2092
   96POPC   C2B 1583   5.691   2.519   7.020  0.1182  0.1136 -0.1863
   96POPC   C3B 1584   5.808   2.588   6.599 -0.0531 -0.2530 -0.1711
   96POPC   C4B 1585   5.812   2.908   6.319 -0.0076 -0.1476  0.0376
   97POPC   NC3 1586   8.122   9.770   8.927  0.2233  0.2477 -0.2043
   97POPC   PO4 1587   8.427   9.983   8.646 -0.1150 -0.3851  0.0746
   97POPC   GL1 1588   8.243  10.269   8.396  0.1640 -0.1506 -0.0298
   97POPC   GL2 1589   7.911  10.411   8.467 -0.0368 -0.0341  0.0427
   97POPC   C1A 1590   8.053  10.143   8.040 -0.0919 -0.0730  0.2354
   97POPC   D2A 1591   8.118  10.143   7.593  0.1897  0.2206 -0.0708
   97POPC   C3A 1592   8.175   9.785   7.268  0.2531  0.2717  0.1004
   97POPC   C4A 1593   8.170   9.723   6.818  0.0708  0.4137 -0.1667
   97POPC   C1B 1594   7.644  10.405   8.183 -0.1965  0.1285 -0.2372
   97POPC   C2B 1595   7.632  10.420   7.742  0.1386  0.0302  0.2300
   97POPC   C3B 1596   7.628  10.572   7.287  0.0251  0.0101 -0.2449
   97POPC   C4B 1597   7.495  10.482   6.845 -0.1705 -0.0949  0.1786
   98POPC   NC3 1598   0.691   6.351   9.075  0.0475  0.2407  0.0219
   98POPC   PO4 1599   0.652   6.175   8.639 -0.1151 -0.0043  0.0755
   98POPC   GL1 1600   0.713   6.065   8.155  0.0871 -0.0089  0.1096
   98POPC   GL2 1601   0.755   5.730   8.249 -0.1491 -0.1621  0.0921
   98POPC   C1A 1602   0.303   5.884   7.911 -0.0843 -0.1279  0.1611
   98POPC   D2A 1603  -0.047   5.746   7.664 -0.2033  0.0460  0.0223
   98POPC   C3A 1604  -0.467   5.782   7.425  0.2756  0.3779 -0.1145
   98POPC   C4A 1605  -0.858   5.718   7.257  0.2702  0.0875 -0.0311
   98POPC   C1B 1606   0.749   5.742   7.719 -0.1713 -0.2494 -0.1453
   98POPC   C2B 1607   0.958   5.981   7.230 -0.1063  0.1939  0.1948
   98POPC   C3B 1608   0.832   6.285   6.832 -0.0948 -0.0683  0.1410
   98POPC   C4B 1609   0.858   6.651   6.531  0.3083 -0.2700 -0.0430
   99POPC   NC3 1610   6.661   7.596   9.724  0.1186  0.2280  0.0855
   99POPC   PO4 1611   6.571   8.058   9.601 -0.2085 -0.3853  0.2536
   99POPC   GL1 1612   6.656   8.222   9.145  0.0281  0.0937 -0.0805
   99POPC   GL2 1613   6.726   7.948   9.016 -0.1848 -0.0237  0.0021
   99POPC   C1A 1614   6.539   8.347   8.720  0.1592  0.4251  0.1687
   99POPC   D2A 1615   6.260   8.471   8.491  0.3022 -0.1399  0.1601
   99POPC   C3A 1616   5.982   8.215   8.564  0.1671 -0.0026  0.0376
   99POPC   C4A 1617   5.836   7.734   8.708  0.0604 -0.5934  0.0714
   99POPC   C1B 1618   6.679   7.512   8.724 -0.0055 -0.1386  0.1863
   99POPC   C2B 1619   6.559   7.475   8.203 -0.4378  0.1476  0.0723
   99POPC   C3B 1620   6.266   7.624   7.829 -0.2489  0.2201  0.0333
   99POPC   C4B 1621   6.284   8.080   7.673 -0.2333  0.0577  0.1385
  100POPC   NC3 1622   4.146   1.945   8.534  0.2714 -0.1441  0.0909
  100POPC   PO4 1623   4.143   1.467   8.665  0.2138 -0.2352 -0.2109
  100POPC   GL1 1624   4.217   1.471   8.190 -0.2350 -0.0797  0.5151
  100POPC   GL2 1625   4.466   1.268   8.099 -0.0489 -0.1461 -0.1567
  100POPC   C1A 1626   4.300   1.730   7.880  0.0076  0.2716  0.1691
  100POPC   D2A 1627   4.515   1.708   7.502 -0.1714  0.1069  0.1248
  100POPC   C3A 1628   4.917   1.586   7.571 -0.0727 -0.1160  0.1196
  100POPC   C4A 1629   5.175   1.660   7.802 -0.1454 -0.1623  0.2696
  100POPC   C1B 1630   4.442   1.240   7.634 -0.0879 -0.2116 -0.1376
  100POPC   C2B 1631   4.597   1.391   7.104  0.2913  0.2831 -0.0766
  100POPC   C3B 1632   4.364   1.195   6.725 -0.3052  0.0066 -0.2551
  100POPC   C4B 1633   4.019   0.844   6.531  0.0208 -0.0247 -0.0168
  101POPC   NC3 1634   2.465   8.244   9.032 -0.1476 -0.0038  0.0621
  101POPC   PO4 1635   2.523   8.398   8.648 -0.1014  0.2097  0.1336
  101POPC   GL1 1636   2.598   8.749   8.321  0.0467 -0.0466  0.2679
  101POPC   GL2 1637   2.490   8.645   7.975  0.2013  0.2148  0.0309
  101POPC   C1A 1638   2.781   8.994   8.038  0.1433 -0.0239 -0.1950
  101POPC   D2A 1639   3.092   9.275   7.953  0.1251  0.1877  0.0509
  101POPC   C3A 1640   3.233   9.734   7.965  0.1628 -0.3107  0.0055
  101POPC   C4A 1641   3.400   9.820   7.518 -0.1700 -0.1178  0.0816
  101POPC   C1B 1642   2.956   8.683   7.760 -0.0101 -0.4358  0.0158
  101POPC   C2B 1643   3.141   8.841   7.377 -0.0403  0.0985  0.1408
  101POPC   C3B 1644   2.958   8.974   7.037 -0.1600 -0.2145  0.1201
  101POPC   C4B 1645   3.032   9.322   6.792  0.1900  0.2611 -0.2594
  102POPC   NC3 1646   9.134   2.079   9.180  0.0025  0.0722  0.0317
  102POPC   PO4 1647   9.206   2.260   8.864 -0.2946  0.2471 -0.1521
  102POPC   GL1 1648   9.291   2.068   8.361  0.0214 -0.1217 -0.2083
  102POPC   GL2 1649   9.239   2.394   8.301 -0.2873  0.4102  0.2490
  102POPC   C1A 1650   9.413   1.740   8.039  0.1543 -0.3469  0.2300
  102POPC   D2A 1651   9.603   1.739   7.641  0.0500 -0.1243 -0.0370
  102POPC   C3A 1652   9.471   2.069   7.347  0.3136 -0.2679 -0.0857
  102POPC   C4A 1653   9.231   2.295   7.312 -0.0355 -0.0575 -0.3364
  102POPC   C1B 1654   8.794   2.398   7.984 -0.3159 -0.2139 -0.0225
  102POPC   C2B 1655   8.493   2.325   7.648  0.0348  0.1248  0.2369
  102POPC   C3B 1656   8.217   2.235   7.189  0.3366 -0.3189  0.0171
  102POPC   C4B 1657   7.880   2.340   6.837  0.2642  0.1937 -0.1386
  103POPC   NC3 1658   3.441   6.139   8.574 -0.1201  0.3194 -0.0190
  103POPC   PO4 1659   3.741   5.844   8.389  0.0145  0.0814 -0.1976
  103POPC   GL1 1660   3.647   6.049   8.085 -0.0416  0.0704  0.0684
  103POPC   GL2 1661   3.396   5.970   8.041 -0.1039 -0.2280  0.0482
  103POPC   C1A 1662   3.672   5.787   7.670  0.0993 -0.2611 -0.0072
  103POPC   D2A 1663   3.993   5.654   7.312  0.0323  0.0805  0.4294
  103POPC   C3A 1664   3.924   5.617   6.843 -0.1113  0.1743  0.2545
  103POPC   C4A 1665   3.841   5.765   6.502 -0.2924 -0.2673  0.0072
  103POPC   C1B 1666   3.434   5.411   7.890  0.1273 -0.3865  0.0101
  103POPC   C2B 1667   3.189   5.145   7.546 -0.3669 -0.0737 -0.2300
  103POPC   C3B 1668   3.093   4.939   7.210 -0.1508 -0.3072  0.3317
  103POPC   C4B 1669   2.974   5.000   6.704 -0.1655 -0.0749  0.0063
  104POPC   NC3 1670   6.530   1.600   8.561 -0.1118  0.0746 -0.0091
  104POPC   PO4 1671   6.149   1.652   8.620  0.0288  0.0065 -0.4367
  104POPC   GL1 1672   5.886   1.195   8.459  0.2979 -0.1567 -0.2671
  104POPC   GL2 1673   5.897   1.184   8.146  0.0316 -0.0165 -0.1321
  104POPC   C1A 1674   5.602   0.833   8.244  0.1289  0.1862  0.1201
  104POPC   D2A 1675   5.502   0.372   8.299  0.2138 -0.2121 -0.0548
  104POPC   C3A 1676   5.280   0.197   7.982 -0.1471 -0.2272 -0.1638
  104POPC   C4A 1677   4.938   0.356   7.786 -0.2074  0.0731  0.0480
  104POPC   C1B 1678   6.030   1.248   7.668 -0.2105  0.0698  0.5170
  104POPC   C2B 1679   6.194   1.200   7.321 -0.2069  0.0970 -0.0178
  104POPC   C3B 1680   6.321   1.236   6.992  0.3144  0.2945  0.2463
  104POPC   C4B 1681   6.691   1.037   6.687 -0.1390  0.2208  0.0403
  105POPC   NC3 1682   4.135   0.428   9.206 -0.2154  0.0500  0.0529
  105POPC   PO4 1683   4.242   0.762   8.919  0.2130  0.1857  0.4059
  105POPC   GL1 1684   4.234   0.679   8.480 -0.3324  0.2016 -0.0103
  105POPC   GL2 1685   4.130   0.979   8.315  0.0796  0.0541  0.0787
  105POPC   C1A 1686   4.352   0.487   8.007  0.1472  0.1655 -0.1960
  105POPC   D2A 1687   4.396   0.257   7.628  0.2201  0.0101  0.0422
  105POPC   C3A 1688   4.271   0.354   7.220  0.2293  0.3187  0.1457
  105POPC   C4A 1689   3.960   0.320   6.773 -0.2581 -0.0735  0.0531
  105POPC   C1B 1690   4.062   0.968   7.863  0.0015  0.0688  0.1110
  105POPC   C2B 1691   4.005   0.860   7.454 -0.0118  0.6550  0.1605
  105POPC   C3B 1692   3.987   0.833   7.046 -0.2808  0.0209  0.1854
  105POPC   C4B 1693   3.539   0.742   6.801 -0.1411 -0.0180 -0.2137
  106POPC   NC3 1694   1.508   4.379   8.460 -0.0635 -0.0237  0.3813
  106POPC   PO4 1695   1.295   4.753   8.601 -0.3737  0.0658 -0.0452
  106POPC   GL1 1696   1.011   4.946   8.245 -0.0225  0.3752  0.0015
  106POPC   GL2 1697   1.040   4.791   7.958  0.0864  0.1437  0.0643
  106POPC   C1A 1698   0.937   5.229   7.744 -0.0242 -0.0992 -0.0531
  106POPC   D2A 1699   0.726   5.309   7.445  0.1829 -0.2211 -0.0742
  106POPC   C3A 1700   0.802   5.468   7.100 -0.1834 -0.3679 -0.0554
  106POPC   C4A 1701   0.821   5.729   6.868  0.1922  0.0105  0.2724
  106POPC   C1B 1702   1.345   4.674   7.585  0.0735  0.0152  0.0649
  106POPC   C2B 1703   1.303   4.537   7.223  0.1314  0.2064  0.1133
  106POPC   C3B 1704   1.285   4.408   6.781 -0.0781  0.0669 -0.1331
  106POPC   C4B 1705   1.085   4.411   6.436 -0.1794  0.5423  0.1299
  107POPC   NC3 1706   8.811   0.736   8.898  0.1122  0.3494  0.4711
  107POPC   PO4 1707   8.999   1.221   8.958  0.1073 -0.0436 -0.0114
  107POPC   GL1 1708   9.111   1.216   8.553 -0.2255  0.0033  0.0333
  107POPC   GL2 1709   9.132   1.561   8.419  0.0467 -0.1261 -0.0550
  107POPC   C1A 1710   9.055   1.200   8.071  0.0718 -0.2994 -0.1116
  107POPC   D2A 1711   9.451   1.284   7.713  0.2872  0.1957 -0.1196
  107POPC   C3A 1712   9.236   1.464   7.373  0.1900  0.3384  0.1180
  107POPC   C4A 1713   8.837   1.557   7.241 -0.2430 -0.0704 -0.1068
  107POPC   C1B 1714   9.497   1.207   8.238 -0.1502  0.2651 -0.0583
  107POPC   C2B 1715   9.531   0.866   8.076 -0.2644 -0.1641  0.1451
  107POPC   C3B 1716   9.215   0.845   7.808  0.2034  0.1608  0.2125
  107POPC   C4B 1717   8.894   1.107   7.586 -0.1028  0.3339  0.2191
  108POPC   NC3 1718   9.352   0.664   8.673  0.3256  0.0530 -0.2354
  108POPC   PO4 1719   9.804   0.579   8.548 -0.0633  0.0800  0.0468
  108POPC   GL1 1720   9.529   0.406   8.249 -0.1129 -0.4000 -0.6064
  108POPC   GL2 1721   9.657   0.336   7.958 -0.1739 -0.1899 -0.0387
  108POPC   C1A 1722   9.048   0.446   8.089 -0.3640  0.1259 -0.2878
  108POPC   D2A 1723   8.886   0.568   7.621  0.4635 -0.0110  0.0425
  108POPC   C3A 1724   8.558   0.524   7.293  0.5343 -0.0592  0.1772
  108POPC   C4A 1725   8.261   0.357   7.051 -0.1399 -0.1617 -0.0151
  108POPC   C1B 1726   9.310   0.321   7.698  0.1685 -0.3759 -0.0995
  108POPC   C2B 1727   9.045   0.245   7.248  0.0351 -0.0647  0.0638
  108POPC   C3B 1728   8.843   0.519   6.923  0.3058  0.1360 -0.1026
  108POPC   C4B 1729   8.504   0.706   6.770 -0.1312 -0.1534  0.0309
  109POPC   NC3 1730   3.443   9.643   8.792 -0.2360 -0.0599  0.0190
  109POPC   PO4 1731   3.361   9.157   8.837 -0.0676  0.1963  0.1529
  109POPC   GL1 1732   3.650   9.097   8.572 -0.1035 -0.0269 -0.3346
  109POPC   GL2 1733   3.554   8.778   8.467 -0.1021  0.1056 -0.3069
  109POPC   C1A 1734   3.608   9.390   8.164  0.1794 -0.2821 -0.2631
  109POPC   D2A 1735   3.765   9.428   7.820  0.0731 -0.1023  0.0201
  109POPC   C3A 1736   3.882   9.090   7.479 -0.1409 -0.2423 -0.1376
  109POPC   C4A 1737   4.261   9.208   7.106 -0.1719 -0.2946 -0.0869
  109POPC   C1B 1738   3.776   8.933   8.111  0.0187  0.2284  0.0571
  109POPC   C2B 1739   4.138   9.048   7.900  0.1082  0.3688  0.0675
  109POPC   C3B 1740   4.256   9.407   7.607 -0.0627 -0.2443  0.2106
  109POPC   C4B 1741   4.361   9.676   7.412 -0.1150  0.1120  0.1655
  110POPC   NC3 1742   5.928   5.998   8.841 -0.3394  0.2330  0.2128
  110POPC   PO4 1743   5.660   5.748   8.596  0.0238  0.1091 -0.2021
  110POPC   GL1 1744   5.748   5.606   8.166  0.0160  0.0284 -0.0921
  110POPC   GL2 1745   5.992   5.219   8.237 -0.1837  0.0202 -0.0529
  110POPC   C1A 1746   5.837   5.725   7.739  0.0705 -0.1735 -0.2240
  110POPC   D2A 1747   5.643   5.841   7.248 -0.0608  0.1406 -0.1981
  110POPC   C3A 1748   5.419   5.821   6.859  0.1371  0.0775 -0.2203
  110POPC   C4A 1749   5.419   5.733   6.484  0.1703  0.2873 -0.1691
  110POPC   C1B 1750   5.653   5.247   7.886  0.0234 -0.2473  0.0027
  110POPC   C2B 1751   5.515   5.330   7.549 -0.2065  0.0919  0.2359
  110POPC   C3B 1752   5.421   5.396   7.096  0.0924 -0.0655  0.0864
  110POPC   C4B 1753   5.371   5.307   6.715  0.0915 -0.0560  0.1323
  111POPC   NC3 1754   2.793   1.794   8.714 -0.0509 -0.0427 -0.1484
  111POPC   PO4 1755   3.270   1.677   8.466  0.1902 -0.2395  0.5879
  111POPC   GL1 1756   3.444   1.882   8.163 -0.2642  0.3665 -0.1907
  111POPC   GL2 1757   3.857   1.841   8.133 -0.0038 -0.0528 -0.3324
  111POPC   C1A 1758   3.527   1.980   7.802 -0.1837  0.4249  0.0072
  111POPC   D2A 1759   3.253   2.118   7.413  0.0837 -0.0634  0.0361
  111POPC   C3A 1760   3.180   1.957   6.942 -0.0391  0.0842  0.2916
  111POPC   C4A 1761   3.184   1.642   6.488  0.3701 -0.3918  0.2462
  111POPC   C1B 1762   3.763   1.498   7.808  0.1458  0.0175  0.3281
  111POPC   C2B 1763   4.014   1.413   7.502  0.3637  0.0089  0.0415
  111POPC   C3B 1764   3.965   1.376   7.132 -0.0793 -0.2908  0.1948
  111POPC   C4B 1765   4.010   1.549   6.744  0.0429 -0.0527 -0.3384
  112POPC   NC3 1766   3.441   2.325   8.390 -0.3971  0.2365  0.1869
  112POPC   PO4 1767   3.690   2.713   8.474 -0.2050 -0.1046 -0.2358
  112POPC   GL1 1768   3.623   2.758   8.012 -0.5410 -0.0031 -0.0665
  112POPC   GL2 1769   3.628   2.447   7.861  0.2437 -0.4154 -0.1105
  112POPC   C1A 1770   3.654   2.907   7.516 -0.2225  0.1675 -0.2772
  112POPC   D2A 1771   3.641   2.824   7.036  0.0736 -0.2736 -0.1662
  112POPC   C3A 1772   3.227   2.920   6.802 -0.1505  0.4023  0.0244
  112POPC   C4A 1773   2.785   2.819   6.975  0.1166  0.3066 -0.0555
  112POPC   C1B 1774   3.614   2.382   7.420 -0.0396  0.2062 -0.0957
  112POPC   C2B 1775   3.915   2.432   7.188 -0.2444 -0.2959  0.2703
  112POPC   C3B 1776   3.783   2.427   6.742  0.1862 -0.3239  0.2225
  112POPC   C4B 1777   3.443   2.595   6.436 -0.0640  0.0195 -0.0276
  113POPC   NC3 1778   8.326   8.712   8.687  0.1156  0.0071 -0.3752
  113POPC   PO4 1779   8.738   8.993   8.690  0.1041 -0.1011 -0.2509
  113POPC   GL1 1780   8.639   8.969   8.188 -0.2075 -0.1921  0.0607
  113POPC   GL2 1781   8.534   8.724   8.094  0.1189 -0.1765 -0.0327
  113POPC   C1A 1782   8.386   9.252   7.937  0.3345  0.1869 -0.1611
  113POPC   D2A 1783   8.053   9.272   7.580 -0.1190 -0.3352  0.1130
  113POPC   C3A 1784   7.993   9.155   7.152 -0.0982 -0.0605  0.0514
  113POPC   C4A 1785   7.864   9.244   6.698 -0.1789 -0.0372 -0.0193
  113POPC   C1B 1786   8.225   8.812   7.802  0.1040  0.1927 -0.0583
  113POPC   C2B 1787   8.100   8.687   7.300  0.0908 -0.1063  0.0523
  113POPC   C3B 1788   8.262   8.760   6.879  0.0544  0.1654 -0.2988
  113POPC   C4B 1789   8.404   8.637   6.518  0.1312 -0.4260  0.0743
  114POPC   NC3 1790   6.987   9.182   9.132  0.0328 -0.0248  0.0212
  114POPC   PO4 1791   7.197   9.586   9.233 -0.0842  0.1613 -0.1762
  114POPC   GL1 1792   7.204   9.514   8.755 -0.0970 -0.1064  0.1637
  114POPC   GL2 1793   7.324   9.699   8.490 -0.0954  0.1840 -0.3518
  114POPC   C1A 1794   6.960   9.434   8.476 -0.0339  0.0232  0.3322
  114POPC   D2A 1795   6.765   9.778   8.165  0.0714 -0.0689 -0.1295
  114POPC   C3A 1796   6.296   9.816   8.160  0.2672  0.1886 -0.2076
  114POPC   C4A 1797   5.881   9.865   8.350 -0.1580 -0.1026  0.1192
  114POPC   C1B 1798   7.246   9.574   8.083 -0.2135 -0.0866  0.0089
  114POPC   C2B 1799   7.392   9.560   7.726 -0.1144  0.0208 -0.0985
  114POPC   C3B 1800   7.482   9.237   7.438  0.0538  0.0535 -0.2793
  114POPC   C4B 1801   7.388   9.116   6.991 -0.0644  0.0440  0.0831
  115POPC   NC3 1802   2.865   4.898   8.577  0.0373 -0.0713  0.1326
  115POPC   PO4 1803   2.971   4.502   8.710  0.1497 -0.3109  0.2032
  115POPC   GL1 1804   3.086   4.282   8.381  0.1238 -0.1052 -0.1824
  115POPC   GL2 1805   2.807   3.906   8.323 -0.1023 -0.1145 -0.1962
  115POPC   C1A 1806   3.261   4.057   8.066 -0.3293 -0.0017 -0.0581
  115POPC   D2A 1807   3.401   3.996   7.656  0.0668 -0.2729 -0.2878
  115POPC   C3A 1808   3.788   4.007   7.465  0.0315  0.0490  0.3092
  115POPC   C4A 1809   4.150   3.791   7.203  0.0105 -0.4616  0.0888
  115POPC   C1B 1810   2.798   3.842   7.851  0.1204  0.1073 -0.1343
  115POPC   C2B 1811   2.927   4.048   7.479 -0.1430  0.2227 -0.1353
  115POPC   C3B 1812   3.369   4.053   7.148 -0.0037  0.2050 -0.1676
  115POPC   C4B 1813   3.684   4.269   7.073 -0.0989 -0.2788  0.3091
  116POPC   NC3 1814   5.260   2.903   9.039  0.0828 -0.0075 -0.0286
  116POPC   PO4 1815   5.439   2.565   8.836 -0.0689 -0.2975 -0.1114
  116POPC   GL1 1816   5.267   2.703   8.385 -0.2862 -0.1453  0.0034
  116POPC   GL2 1817   5.349   2.649   8.025  0.5991 -0.0854  0.1450
  116POPC   C1A 1818   5.178   3.073   8.106  0.0490 -0.0303  0.0152
  116POPC   D2A 1819   4.926   3.232   7.811  0.1463 -0.0046  0.1451
  116POPC   C3A 1820   4.958   3.047   7.435  0.0785 -0.1612 -0.2098
  116POPC   C4A 1821   4.975   3.164   7.048 -0.1985  0.1361 -0.1517
  116POPC   C1B 1822   5.424   3.039   7.683 -0.3662  0.1970 -0.2932
  116POPC   C2B 1823   5.337   3.448   7.483  0.0165 -0.1849  0.0741
  116POPC   C3B 1824   5.057   3.690   7.138  0.1828 -0.0340  0.0284
  116POPC   C4B 1825   4.707   3.962   7.016 -0.1613  0.1160 -0.1133
  117POPC   NC3 1826   3.229   5.692   8.443 -0.0220  0.0021  0.0870
  117POPC   PO4 1827   2.798   5.520   8.498  0.1999  0.0706 -0.1489
  117POPC   GL1 1828   2.733   5.669   8.122  0.4306 -0.3744 -0.0332
  117POPC   GL2 1829   3.027   5.686   8.000  0.0773 -0.0619  0.2352
  117POPC   C1A 1830   2.681   5.831   7.646 -0.0495  0.0738 -0.0245
  117POPC   D2A 1831   2.684   5.898   7.241 -0.0620 -0.1378 -0.0952
  117POPC   C3A 1832   2.788   5.769   6.832  0.2235 -0.0577  0.0125
  117POPC   C4A 1833   2.942   5.446   6.498  0.2435 -0.2329  0.3015
  117POPC   C1B 1834   3.215   5.734   7.533 -0.1669  0.3065 -0.1270
  117POPC   C2B 1835   3.273   5.857   7.170 -0.1819 -0.0154  0.0703
  117POPC   C3B 1836   3.397   5.793   6.766  0.0518 -0.3589  0.0579
  117POPC   C4B 1837   3.443   5.327   6.679  0.1545  0.0101  0.0140
  118POPC   NC3 1838   2.575   2.824   8.884  0.1231 -0.0817  0.0565
  118POPC   PO4 1839   3.003   3.109   8.672  0.1186  0.0918 -0.0913
  118POPC   GL1 1840   3.098   3.032   8.252 -0.5295  0.1992  0.0221
  118POPC   GL2 1841   3.209   2.793   8.212  0.2391  0.0629  0.0225
  118POPC   C1A 1842   3.214   3.081   7.767 -0.0102  0.0285 -0.1217
  118POPC   D2A 1843   3.307   3.177   7.361  0.1131  0.1967 -0.0431
  118POPC   C3A 1844   3.134   3.538   7.148 -0.0159  0.0375  0.0975
  118POPC   C4A 1845   2.695   3.875   7.084  0.3760 -0.2999  0.0703
  118POPC   C1B 1846   3.080   2.585   7.764  0.1717  0.1108  0.0896
  118POPC   C2B 1847   3.209   2.644   7.290  0.2247  0.1392 -0.2873
  118POPC   C3B 1848   3.210   2.473   6.886 -0.0405 -0.2110 -0.0752
  118POPC   C4B 1849   3.112   2.270   6.549  0.0650 -0.0518 -0.1275
  119POPC   NC3 1850   2.374   0.323   8.865  0.2960 -0.0951 -0.0996
  119POPC   PO4 1851   2.594  -0.149   8.740  0.1070 -0.0354  0.2606
  119POPC   GL1 1852   2.571  -0.336   8.345 -0.0750 -0.0648 -0.0269
  119POPC   GL2 1853   2.724   0.034   8.217 -0.3043  0.1172  0.1337
  119POPC   C1A 1854   2.729  -0.339   7.851  0.3877 -0.1306  0.2554
  119POPC   D2A 1855   2.938  -0.628   7.499 -0.2290 -0.3499  0.0982
  119POPC   C3A 1856   2.618  -0.877   7.506 -0.3008  0.1823  0.2755
  119POPC   C4A 1857   2.196  -0.903   7.640 -0.0915  0.0175 -0.0037
  119POPC   C1B 1858   2.451   0.037   7.872 -0.1897  0.3545 -0.0115
  119POPC   C2B 1859   2.205   0.181   7.584  0.0135 -0.0329  0.0677
  119POPC   C3B 1860   2.255   0.226   7.169  0.1416  0.2623  0.1903
  119POPC   C4B 1861   2.214   0.178   6.758  0.2046  0.0527 -0.1711
  120POPC   NC3 1862   4.671   1.256   8.626  0.0137 -0.1837  0.2715
  120POPC   PO4 1863   5.021   1.616   8.687  0.0918 -0.3411  0.1521
  120POPC   GL1 1864   5.121   1.477   8.243 -0.2298  0.0058  0.0689
  120POPC   GL2 1865   5.247   1.168   8.358  0.0382 -0.1855 -0.2215
  120POPC   C1A 1866   4.977   1.218   7.872  0.1937  0.2751 -0.0910
  120POPC   D2A 1867   4.943   1.119   7.407 -0.0331 -0.2947  0.1394
  120POPC   C3A 1868   5.330   1.056   7.114  0.2423  0.4065  0.0839
  120POPC   C4A 1869   5.782   1.188   7.030 -0.0761  0.0135 -0.1828
  120POPC   C1B 1870   5.467   1.279   7.922 -0.4341 -0.1537  0.2221
  120POPC   C2B 1871   5.537   1.290   7.483  0.0316  0.1570 -0.1464
  120POPC   C3B 1872   5.492   1.582   7.179  0.2621 -0.3111 -0.2307
  120POPC   C4B 1873   5.505   1.526   6.699 -0.0545  0.2628 -0.1252
  121POPC   NC3 1874   4.254   7.743   9.345 -0.1579  0.1033 -0.1833
  121POPC   PO4 1875   4.414   7.351   9.397 -0.1180 -0.0706  0.0345
  121POPC   GL1 1876   4.707   7.269   9.052  0.4161  0.3019 -0.0004
  121POPC   GL2 1877   4.495   7.057   8.811  0.0251  0.2424 -0.0492
  121POPC   C1A 1878   4.902   7.306   8.686  0.1000  0.0355 -0.0909
  121POPC   D2A 1879   5.139   6.870   8.610  0.2082 -0.0552  0.0322
  121POPC   C3A 1880   5.523   6.822   8.461 -0.0711  0.0198 -0.0981
  121POPC   C4A 1881   5.989   6.908   8.476  0.2717  0.0539 -0.0362
  121POPC   C1B 1882   4.624   6.883   8.458 -0.2153 -0.1412  0.2463
  121POPC   C2B 1883   4.830   6.807   8.047 -0.0483  0.2770 -0.0597
  121POPC   C3B 1884   4.982   7.067   7.715  0.3397  0.1174 -0.1861
  121POPC   C4B 1885   5.350   7.218   7.465  0.0149 -0.1047 -0.0762
  122POPC   NC3 1886   7.222   1.081   8.964 -0.1429 -0.1542  0.1332
  122POPC   PO4 1887   6.973   1.356   8.715  0.0325 -0.3281 -0.0942
  122POPC   GL1 1888   6.851   1.401   8.250 -0.1982  0.1809 -0.1018
  122POPC   GL2 1889   6.747   1.662   8.106 -0.2239  0.1652  0.1491
  122POPC   C1A 1890   6.936   1.108   7.974 -0.0470 -0.1241  0.0064
  122POPC   D2A 1891   6.731   0.816   7.854  0.0324 -0.0023 -0.1328
  122POPC   C3A 1892   6.387   0.854   7.619 -0.1197 -0.2612 -0.1139
  122POPC   C4A 1893   6.014   0.768   7.292  0.4268 -0.0967  0.1719
  122POPC   C1B 1894   6.705   1.910   7.761  0.0685  0.0431 -0.1524
  122POPC   C2B 1895   6.633   2.245   7.432 -0.4286 -0.2917 -0.1354
  122POPC   C3B 1896   6.649   2.669   7.317 -0.3923 -0.1263 -0.0723
  122POPC   C4B 1897   6.684   3.017   6.957 -0.1612  0.2611 -0.1103
  123POPC   NC3 1898   9.519   6.867   8.677  0.0473 -0.2157  0.2061
  123POPC   PO4 1899   9.532   6.803   8.202 -0.2376 -0.3735 -0.1947
  123POPC   GL1 1900   9.464   6.925   7.808  0.0214  0.1301  0.2211
  123POPC   GL2 1901   9.145   6.901   7.698  0.0547 -0.1621  0.0114
  123POPC   C1A 1902   9.485   7.119   7.350 -0.1758  0.1403 -0.1376
  123POPC   D2A 1903   9.472   7.427   6.991 -0.1240 -0.2742  0.0178
  123POPC   C3A 1904   9.576   7.957   7.184 -0.0637 -0.1097 -0.0196
  123POPC   C4A 1905   9.790   8.334   7.470 -0.0436  0.2726 -0.2779
  123POPC   C1B 1906   9.114   6.788   7.259 -0.0050 -0.1245  0.3086
  123POPC   C2B 1907   9.152   6.562   6.978  0.4915  0.2763  0.2333
  123POPC   C3B 1908   9.508   6.459   6.659  0.3407 -0.1955  0.1225
  123POPC   C4B 1909   9.849   6.593   6.440  0.1701 -0.3831  0.0208
  124POPC   NC3 1910   1.390   1.410   9.187  0.0969 -0.0283  0.1014
  124POPC   PO4 1911   1.156   1.807   9.025  0.2340  0.2854 -0.0304
  124POPC   GL1 1912   1.295   1.925   8.560  0.1754  0.2215 -0.1853
  124POPC   GL2 1913   1.592   1.726   8.420 -0.1329 -0.0656  0.1089
  124POPC   C1A 1914   1.258   2.232   8.212 -0.1896  0.0912  0.1642
  124POPC   D2A 1915   1.228   2.124   7.738  0.2271 -0.1713  0.0602
  124POPC   C3A 1916   1.534   2.215   7.500 -0.2344  0.0270  0.1213
  124POPC   C4A 1917   1.742   2.080   7.035 -0.1991  0.1178 -0.2666
  124POPC   C1B 1918   1.536   1.845   8.001 -0.1846 -0.3340 -0.1389
  124POPC   C2B 1919   1.879   1.924   7.742  0.3110  0.0584  0.0614
  124POPC   C3B 1920   2.016   1.776   7.412 -0.0467 -0.0405  0.1885
  124POPC   C4B 1921   1.889   1.619   6.925 -0.1589 -0.0394  0.2792
  125POPC   NC3 1922   9.484   3.821   8.738  0.2284 -0.0655 -0.3837
  125POPC   PO4 1923   9.681   3.945   8.341 -0.3167 -0.0272 -0.0321
  125POPC   GL1 1924   9.879   3.695   7.998  0.1879  0.0277 -0.0412
  125POPC   GL2 1925   9.863   3.347   7.984 -0.0885  0.2196 -0.0882
  125POPC   C1A 1926   9.846   3.633   7.563  0.1750  0.4847  0.2121
  125POPC   D2A 1927   9.906   3.358   7.267  0.3247  0.0354  0.3085
  125POPC   C3A 1928  10.216   3.258   6.902 -0.2860 -0.2094 -0.2399
  125POPC   C4A 1929  10.614   3.198   6.941 -0.0399 -0.1768  0.1182
  125POPC   C1B 1930   9.599   3.123   7.683 -0.1672 -0.1286 -0.1117
  125POPC   C2B 1931   9.437   3.162   7.208  0.4498 -0.3283  0.0316
  125POPC   C3B 1932   9.191   3.075   6.773  0.1776 -0.2005  0.3759
  125POPC   C4B 1933   9.060   3.498   6.502  0.2417 -0.0388  0.1316
  126POPC   NC3 1934   5.180   5.006   9.174  0.1588  0.0873  0.0648
  126POPC   PO4 1935   5.179   4.929   8.795  0.0602 -0.1043 -0.0716
  126POPC   GL1 1936   5.245   5.002   8.397  0.1088  0.0317 -0.3203
  126POPC   GL2 1937   5.425   4.829   8.218  0.0183  0.2607  0.2284
  126POPC   C1A 1938   5.144   5.146   7.966  0.0456  0.1635  0.4616
  126POPC   D2A 1939   5.154   4.953   7.598  0.1901 -0.1510  0.2104
  126POPC   C3A 1940   4.761   4.882   7.311 -0.0988  0.2231  0.0109
  126POPC   C4A 1941   4.314   5.145   7.264 -0.1652 -0.0426 -0.0708
  126POPC   C1B 1942   5.498   4.720   7.847  0.1119  0.2287  0.2592
  126POPC   C2B 1943   5.642   4.857   7.385 -0.1108  0.0136  0.3283
  126POPC   C3B 1944   5.900   5.032   7.010  0.2599  0.1048 -0.0662
  126POPC   C4B 1945   5.882   5.501   6.829  0.0138 -0.1066  0.1241
  127POPC   NC3 1946   1.344   2.856   9.280  0.0633 -0.0652 -0.0275
  127POPC   PO4 1947   1.045   2.781   9.018 -0.2293 -0.1159 -0.1190
  127POPC   GL1 1948   1.036   2.890   8.616 -0.2083  0.0891  0.1424
  127POPC   GL2 1949   0.848   3.107   8.458 -0.1269  0.0832 -0.4326
  127POPC   C1A 1950   1.335   2.699   8.226 -0.1492 -0.0682 -0.0358
  127POPC   D2A 1951   1.175   2.746   7.887  0.1629 -0.0501 -0.2521
  127POPC   C3A 1952   1.418   2.736   7.503 -0.0271  0.0625  0.1037
  127POPC   C4A 1953   1.685   2.682   7.196  0.0700  0.1231  0.0301
  127POPC   C1B 1954   0.823   3.190   7.982  0.1319  0.1195 -0.0317
  127POPC   C2B 1955   0.835   3.591   7.862  0.0682 -0.2225 -0.2052
  127POPC   C3B 1956   0.910   3.991   7.670  0.1996 -0.2388 -0.0169
  127POPC   C4B 1957   1.227   4.143   7.754 -0.1082  0.0568 -0.2097
  128POPC   NC3 1958   7.979   1.982   9.034  0.1647  0.1222  0.1702
  128POPC   PO4 1959   8.036   1.724   8.688  0.1302 -0.0309  0.2293
  128POPC   GL1 1960   8.072   1.754   8.204 -0.1229 -0.2516 -0.0069
  128POPC   GL2 1961   7.785   1.701   8.019 -0.1024 -0.1043 -0.1847
  128POPC   C1A 1962   8.380   1.849   7.820  0.1709 -0.1303  0.1200
  128POPC   D2A 1963   8.464   1.842   7.341  0.0807 -0.2783 -0.1527
  128POPC   C3A 1964   8.776   2.162   7.152  0.1359  0.1092  0.0895
  128POPC   C4A 1965   9.215   2.243   6.818  0.0070  0.3579 -0.3304
  128POPC   C1B 1966   7.920   2.226   8.029 -0.0550  0.1604 -0.1479
  128POPC   C2B 1967   8.185   2.566   7.997 -0.1858  0.0369 -0.1631
  128POPC   C3B 1968   8.544   2.823   7.820  0.0164  0.1276  0.1144
  128POPC   C4B 1969   8.902   3.002   7.876  0.0601 -0.0661 -0.0603
  129POPC   NC3 1970   2.212   9.195   8.303  0.1167 -0.1624 -0.3701
  129POPC   PO4 1971   2.042   9.658   8.339 -0.0956  0.0443  0.0841
  129POPC   GL1 1972   1.977   9.573   7.885  0.1516 -0.0072 -0.4419
  129POPC   GL2 1973   2.230   9.487   7.863  0.1128  0.2632 -0.0417
  129POPC   C1A 1974   1.984   9.729   7.382 -0.0683 -0.3795  0.1027
  129POPC   D2A 1975   2.205   9.612   6.978 -0.0484  0.0928  0.0362
  129POPC   C3A 1976   2.154   9.354   6.657  0.0663  0.1908 -0.1754
  129POPC   C4A 1977   2.333   8.961   6.409  0.0152  0.0391  0.0195
  129POPC   C1B 1978   2.492   9.534   7.447 -0.4516  0.0317 -0.0854
  129POPC   C2B 1979   2.617   9.368   7.058  0.0607 -0.0537 -0.0268
  129POPC   C3B 1980   2.637   9.244   6.596  0.0694 -0.1205  0.0957
  129POPC   C4B 1981   2.791   8.953   6.158  0.5602 -0.1234  0.1609
  130POPC   NC3 1982   3.920   1.094   8.950  0.2830 -0.1583 -0.0510
  130POPC   PO4 1983   3.755   0.916   8.611 -0.2552  0.0072 -0.0094
  130POPC   GL1 1984   3.524   0.760   8.202  0.2800 -0.3905  0.0218
  130POPC   GL2 1985   3.826   0.588   8.223 -0.0085 -0.1064 -0.1929
  130POPC   C1A 1986   3.539   0.813   7.781 -0.2895 -0.4381  0.3098
  130POPC   D2A 1987   3.480   0.752   7.331  0.0104  0.2037 -0.2702
  130POPC   C3A 1988   3.523   1.137   7.002 -0.0340 -0.2419 -0.1610
  130POPC   C4A 1989   3.482   1.538   6.869  0.1130  0.2269 -0.2256
  130POPC   C1B 1990   3.893   0.436   7.733  0.0906  0.1242  0.0705
  130POPC   C2B 1991   3.777   0.379   7.280 -0.1696 -0.1371  0.0750
  130POPC   C3B 1992   3.595   0.066   6.974  0.0702 -0.2315 -0.0908
  130POPC   C4B 1993   3.463  -0.362   6.874 -0.1144 -0.0708  0.2579
  131POPC   NC3 1994   3.475   3.035   8.796 -0.0435  0.4522  0.0163
  131POPC   PO4 1995   3.541   3.442   9.057  0.0239  0.2772  0.3230
  131POPC   GL1 1996   3.400   3.485   8.554 -0.0472 -0.1660 -0.1456
  131POPC   GL2 1997   3.537   3.289   8.281 -0.4635  0.2371 -0.0915
  131POPC   C1A 1998   3.135   3.541   8.176 -0.1142 -0.0083 -0.0384
  131POPC   D2A 1999   3.121   3.517   7.673  0.1614 -0.2608  0.0405
  131POPC   C3A 2000   2.773   3.422   7.501  0.1252 -0.3477  0.0447
  131POPC   C4A 2001   2.635   3.342   7.112 -0.4974  0.1553 -0.3721
  131POPC   C1B 2002   3.931   3.242   8.184 -0.2324 -0.0279 -0.0378
  131POPC   C2B 2003   4.056   3.003   7.859  0.2959  0.0028  0.2106
  131POPC   C3B 2004   4.136   2.741   7.558 -0.1481 -0.2914 -0.2361
  131POPC   C4B 2005   4.489   2.370   7.365 -0.5121  0.0684  0.1263
  132POPC   NC3 2006   9.246   7.850   8.281  0.0589  0.0461 -0.1000
  132POPC   PO4 2007   9.251   8.247   8.468  0.0771  0.0504 -0.1957
  132POPC   GL1 2008   9.332   8.538   8.080 -0.0556 -0.1039 -0.0722
  132POPC   GL2 2009   9.051   8.722   7.913 -0.0602  0.5272 -0.1062
  132POPC   C1A 2010   9.710   8.583   7.878 -0.0971  0.2350 -0.0711
  132POPC   D2A 2011  10.155   8.723   7.722  0.0058  0.1149 -0.1479
  132POPC   C3A 2012  10.577   8.731   7.920 -0.4561 -0.2307 -0.1361
  132POPC   C4A 2013  10.998   8.835   7.863  0.0941  0.1623 -0.0073
  132POPC   C1B 2014   9.384   8.769   7.565  0.2776 -0.3073 -0.0256
  132POPC   C2B 2015   9.591   8.806   7.262 -0.0128 -0.0120  0.2349
  132POPC   C3B 2016   9.914   8.527   6.958 -0.0795 -0.3230 -0.0828
  132POPC   C4B 2017  10.290   8.479   6.647 -0.0489  0.0840  0.0846
  133POPC   NC3 2018   2.843   5.581   8.955 -0.0646 -0.0638 -0.0381
  133POPC   PO4 2019   3.147   5.284   8.744  0.0374  0.0329 -0.0867
  133POPC   GL1 2020   3.097   5.211   8.243  0.1061 -0.1071 -0.0184
  133POPC   GL2 2021   2.732   5.060   8.138  0.2181 -0.1369  0.1226
  133POPC   C1A 2022   3.145   4.842   7.909 -0.2372  0.1264 -0.1991
  133POPC   D2A 2023   3.111   4.598   7.642  0.0907  0.2321  0.1584
  133POPC   C3A 2024   2.808   4.502   7.300  0.2542 -0.0864  0.1508
  133POPC   C4A 2025   2.452   4.234   7.425 -0.2123 -0.3383  0.2232
  133POPC   C1B 2026   2.706   5.326   7.765  0.1947 -0.2819  0.1493
  133POPC   C2B 2027   2.749   5.396   7.291 -0.0859  0.0337 -0.3495
  133POPC   C3B 2028   3.120   5.420   7.025 -0.1129 -0.1982  0.1547
  133POPC   C4B 2029   3.551   5.485   7.166  0.2040 -0.2643 -0.1942
  134POPC   NC3 2030   9.236   4.718   8.554  0.1230  0.1057 -0.0128
  134POPC   PO4 2031   8.932   4.707   8.759  0.0362  0.0876  0.0733
  134POPC   GL1 2032   8.809   4.498   8.284 -0.0112 -0.0404 -0.2499
  134POPC   GL2 2033   8.520   4.498   8.346 -0.2956  0.1093  0.0813
  134POPC   C1A 2034   8.983   4.410   7.962  0.1733  0.0995  0.0778
  134POPC   D2A 2035   9.134   4.262   7.702  0.0904 -0.1157 -0.0579
  134POPC   C3A 2036   9.167   4.466   7.248 -0.0517 -0.2920 -0.2653
  134POPC   C4A 2037   9.200   4.621   6.858  0.1463  0.0418  0.2621
  134POPC   C1B 2038   8.464   4.231   7.857  0.0324 -0.1441  0.2908
  134POPC   C2B 2039   8.693   4.124   7.472 -0.1183 -0.1519  0.1823
  134POPC   C3B 2040   9.061   3.961   7.194  0.1400  0.0518  0.0441
  134POPC   C4B 2041   9.233   4.026   6.792  0.0424 -0.2683 -0.0201
  135POPC   NC3 2042   9.803   3.423   8.516 -0.1914 -0.1793 -0.1975
  135POPC   PO4 2043   9.325   3.383   8.716  0.1207 -0.0395 -0.1590
  135POPC   GL1 2044   9.294   3.153   8.348 -0.0711 -0.2091 -0.2692
  135POPC   GL2 2045   9.599   3.030   8.282  0.0614  0.2196 -0.0202
  135POPC   C1A 2046   9.330   3.414   7.972  0.0046  0.0310  0.1525
  135POPC   D2A 2047   9.465   3.925   7.881 -0.2396 -0.1040  0.2008
  135POPC   C3A 2048   9.541   4.003   7.428 -0.0512 -0.0655  0.3434
  135POPC   C4A 2049   9.677   4.281   7.038 -0.2998 -0.1791  0.0193
  135POPC   C1B 2050   9.394   2.761   8.054 -0.0797  0.2201  0.1247
  135POPC   C2B 2051   9.221   2.409   7.788 -0.0785  0.1544 -0.2197
  135POPC   C3B 2052   9.155   1.923   7.693  0.1521 -0.1044 -0.0048
  135POPC   C4B 2053   8.840   1.585   7.752  0.2034  0.0701  0.3401
  136POPC   NC3 2054   3.313   4.861   8.897  0.0897 -0.2101  0.1495
  136POPC   PO4 2055   3.720   5.000   8.834 -0.0350  0.1654 -0.0269
  136POPC   GL1 2056   3.657   4.776   8.445  0.1310  0.5484 -0.0632
  136POPC   GL2 2057   3.291   4.769   8.370 -0.0594  0.1736 -0.0135
  136POPC   C1A 2058   3.633   4.954   7.918  0.1939 -0.2440  0.0552
  136POPC   D2A 2059   3.804   5.122   7.566 -0.1225 -0.1912 -0.1580
  136POPC   C3A 2060   4.030   4.813   7.132  0.2777 -0.1323 -0.1699
  136POPC   C4A 2061   4.388   4.645   6.928  0.0823 -0.0630  0.0577
  136POPC   C1B 2062   3.438   4.524   7.991 -0.3745  0.3857 -0.2058
  136POPC   C2B 2063   3.538   4.444   7.599 -0.2616 -0.0936  0.0158
  136POPC   C3B 2064   3.532   4.715   7.276 -0.1993  0.2038  0.2536
  136POPC   C4B 2065   3.694   4.809   6.786 -0.3555  0.3151 -0.0243
  137POPC   NC3 2066   6.573   4.646   8.598  0.0162 -0.1211 -0.0088
  137POPC   PO4 2067   6.884   4.201   8.673  0.1374 -0.5196  0.0871
  137POPC   GL1 2068   6.848   4.274   8.230  0.0987  0.2271 -0.0961
  137POPC   GL2 2069   7.189   4.285   8.061 -0.0807  0.3777 -0.0854
  137POPC   C1A 2070   6.795   4.074   7.841 -0.0701 -0.3507 -0.0303
  137POPC   D2A 2071   6.912   3.826   7.490  0.1120  0.2022  0.0519
  137POPC   C3A 2072   6.814   3.587   7.123  0.0703 -0.1250  0.3236
  137POPC   C4A 2073   6.373   3.450   6.981 -0.0752 -0.0190 -0.0198
  137POPC   C1B 2074   7.581   4.450   7.964 -0.1402 -0.0843 -0.1915
  137POPC   C2B 2075   7.972   4.454   7.828  0.2336  0.2857 -0.2944
  137POPC   C3B 2076   8.389   4.649   7.667  0.4805 -0.1311  0.0139
  137POPC   C4B 2077   8.776   4.635   7.540 -0.1269  0.1236 -0.0229
  138POPC   NC3 2078   4.825   7.382   9.676  0.1184 -0.2988 -0.1791
  138POPC   PO4 2079   4.777   7.732   9.390  0.2415  0.0016 -0.0121
  138POPC   GL1 2080   4.878   7.898   8.918  0.0511  0.0173 -0.1539
  138POPC   GL2 2081   4.680   7.792   8.725 -0.2152 -0.0683  0.2148
  138POPC   C1A 2082   4.940   8.233   8.509 -0.3855  0.2384 -0.0086
  138POPC   D2A 2083   5.205   8.514   8.236  0.0281 -0.0882  0.1556
  138POPC   C3A 2084   5.383   8.212   8.079  0.0084  0.2386  0.2073
  138POPC   C4A 2085   5.351   8.038   7.717 -0.0400  0.1892 -0.3339
  138POPC   C1B 2086   4.480   8.038   8.386  0.0586 -0.1721  0.0813
  138POPC   C2B 2087   4.482   7.761   7.974 -0.0152  0.0779 -0.0956
  138POPC   C3B 2088   4.166   7.591   7.764 -0.1857 -0.0218  0.0197
  138POPC   C4B 2089   4.064   7.210   7.878  0.4397 -0.1154 -0.0392
  139POPC   NC3 2090   1.775   8.572   8.764  0.0900 -0.2242 -0.0104
  139POPC   PO4 2091   2.003   8.213   8.759 -0.4641  0.2683  0.0152
  139POPC   GL1 2092   1.795   8.146   8.407  0.1931  0.0007 -0.0763
  139POPC   GL2 2093   1.559   8.372   8.266  0.2302 -0.0276  0.1926
  139POPC   C1A 2094   1.704   8.046   7.932 -0.0904  0.0338 -0.3357
  139POPC   D2A 2095   1.836   7.690   7.590  0.0603  0.0178  0.1090
  139POPC   C3A 2096   1.688   7.790   7.255  0.3651 -0.0557  0.1098
  139POPC   C4A 2097   1.646   7.450   6.976 -0.0195 -0.2186  0.1026
  139POPC   C1B 2098   1.525   8.675   7.816 -0.3689  0.1965 -0.2215
  139POPC   C2B 2099   1.650   8.771   7.481 -0.2614  0.0127  0.0014
  139POPC   C3B 2100   2.011   8.672   7.286 -0.0285 -0.1153 -0.1754
  139POPC   C4B 2101   2.325   8.902   7.014 -0.2491 -0.2902 -0.2217
  140POPC   NC3 2102   6.820   6.709   9.606  0.1741  0.2219  0.1680
  140POPC   PO4 2103   7.058   7.157   9.491  0.2742  0.0386 -0.1641
  140POPC   GL1 2104   6.885   6.900   9.123 -0.4120 -0.2254  0.0066
  140POPC   GL2 2105   6.958   6.719   8.758  0.3676 -0.0617  0.1801
  140POPC   C1A 2106   6.358   6.889   9.122  0.1568  0.3969 -0.1952
  140POPC   D2A 2107   5.944   6.910   9.011 -0.0764  0.2613 -0.0825
  140POPC   C3A 2108   5.742   7.259   8.760 -0.2600 -0.0928 -0.1017
  140POPC   C4A 2109   5.658   7.287   8.378  0.3656  0.0243 -0.0648
  140POPC   C1B 2110   6.641   7.005   8.567  0.0168 -0.1022  0.0836
  140POPC   C2B 2111   6.418   7.021   8.208  0.1052 -0.1273  0.0782
  140POPC   C3B 2112   6.048   7.222   8.056 -0.2491  0.0719  0.1020
  140POPC   C4B 2113   5.557   7.091   7.926 -0.2655  0.2247  0.0658
  141POPC   NC3 2114   9.819   1.619   8.957 -0.2599  0.1985 -0.2720
  141POPC   PO4 2115  10.322   1.508   8.761 -0.1941  0.0706 -0.1700
  141POPC   GL1 2116   9.983   1.530   8.456  0.0381 -0.1841 -0.1836
  141POPC   GL2 2117   9.713   1.646   8.421  0.1787 -0.0950 -0.4668
  141POPC   C1A 2118   9.878   1.462   8.013 -0.3692  0.0192 -0.1533
  141POPC   D2A 2119   9.907   1.416   7.560  0.3039 -0.0650  0.0763
  141POPC   C3A 2120   9.871   1.756   7.219  0.1291 -0.2437 -0.3548
  141POPC   C4A 2121   9.816   1.903   6.765 -0.2255 -0.3427 -0.0071
  141POPC   C1B 2122   9.807   1.974   8.190  0.0922 -0.0261 -0.2075
  141POPC   C2B 2123   9.719   2.271   7.838  0.2630  0.2326  0.1089
  141POPC   C3B 2124   9.975   2.241   7.433 -0.0253  0.1741  0.0179
  141POPC   C4B 2125   9.748   2.322   7.110  0.2272 -0.0773 -0.1970
  142POPC   NC3 2126   8.707   4.300   8.900 -0.1580  0.0076 -0.2782
  142POPC   PO4 2127   8.831   4.069   8.554  0.3303 -0.0329  0.1388
  142POPC   GL1 2128   8.779   4.008   8.179  0.1408  0.1445  0.0532
  142POPC   GL2 2129   8.574   3.697   8.156  0.0707 -0.4112 -0.2285
  142POPC   C1A 2130   8.937   3.739   7.822  0.1469 -0.1245  0.0435
  142POPC   D2A 2131   9.107   3.477   7.458  0.1826  0.0398 -0.2661
  142POPC   C3A 2132   9.204   3.512   6.970 -0.1859  0.1989 -0.5339
  142POPC   C4A 2133   9.633   3.713   6.998 -0.0006  0.0263  0.1330
  142POPC   C1B 2134   8.380   3.745   7.708 -0.1747 -0.1897 -0.2127
  142POPC   C2B 2135   8.543   3.729   7.246 -0.0486 -0.1356 -0.1475
  142POPC   C3B 2136   8.532   4.054   6.898 -0.0801 -0.1278  0.1914
  142POPC   C4B 2137   8.793   4.336   6.747 -0.0616  0.3332  0.0651
  143POPC   NC3 2138   1.350   9.322   8.585  0.3129  0.2002  0.0519
  143POPC   PO4 2139   1.681   9.355   8.444 -0.2537 -0.0819  0.1178
  143POPC   GL1 2140   1.642   9.238   7.995  0.4123  0.3496 -0.1496
  143POPC   GL2 2141   1.335   9.214   7.778 -0.1018 -0.2267 -0.4546
  143POPC   C1A 2142   1.798   9.239   7.530  0.1378 -0.1171  0.2949
  143POPC   D2A 2143   1.911   9.172   7.089  0.1629  0.1030 -0.2148
  143POPC   C3A 2144   1.689   9.060   6.665 -0.0179 -0.0483  0.2995
  143POPC   C4A 2145   1.874   8.988   6.174 -0.1528  0.0740  0.3196
  143POPC   C1B 2146   1.369   9.131   7.318 -0.1375 -0.0006 -0.1341
  143POPC   C2B 2147   1.362   9.322   6.906 -0.1259 -0.3842 -0.0983
  143POPC   C3B 2148   1.140   9.017   6.622 -0.2029  0.1517  0.1088
  143POPC   C4B 2149   1.309   8.723   6.257 -0.1558 -0.1150 -0.0647
  144POPC   NC3 2150   7.607   6.116   8.317 -0.2161  0.4398  0.0832
  144POPC   PO4 2151   7.936   6.386   8.208  0.1938  0.0054 -0.1607
  144POPC   GL1 2152   7.754   6.589   7.978  0.0982 -0.1174 -0.2732
  144POPC   GL2 2153   7.503   6.424   7.878 -0.1063  0.1703 -0.4685
  144POPC   C1A 2154   7.794   6.878   7.644  0.4215  0.0620  0.0980
  144POPC   D2A 2155   8.098   7.136   7.394 -0.3954 -0.2382 -0.0242
  144POPC   C3A 2156   8.000   7.164   6.882 -0.2038 -0.1784 -0.1950
  144POPC   C4A 2157   7.991   7.455   6.561  0.1683 -0.1476 -0.0957
  144POPC   C1B 2158   7.578   6.439   7.488 -0.1055  0.1270  0.2548
  144POPC   C2B 2159   7.559   6.345   7.036 -0.1234  0.0341 -0.2931
  144POPC   C3B 2160   7.969   6.318   6.740  0.3203  0.0150 -0.0985
  144POPC   C4B 2161   8.234   6.729   6.744  0.1390 -0.2038  0.0692
  145POPC   NC3 2162   0.761   8.204   8.641  0.1766 -0.1884  0.0765
  145POPC   PO4 2163   0.355   8.186   8.659 -0.3133  0.0024 -0.1120
  145POPC   GL1 2164   0.278   7.958   8.297  0.3591 -0.0426  0.1141
  145POPC   GL2 2165   0.243   7.536   8.120  0.0298  0.0347  0.1528
  145POPC   C1A 2166   0.231   8.080   7.871  0.1522 -0.1410  0.2139
  145POPC   D2A 2167   0.519   8.355   7.621  0.1927  0.0932  0.1401
  145POPC   C3A 2168   0.385   8.642   7.292 -0.2356 -0.0160 -0.2162
  145POPC   C4A 2169   0.440   8.950   7.068 -0.2879  0.0883  0.1519
  145POPC   C1B 2170   0.340   7.557   7.651  0.3783 -0.2083  0.1856
  145POPC   C2B 2171   0.348   7.885   7.322 -0.0135 -0.3477 -0.1708
  145POPC   C3B 2172   0.197   8.090   6.932  0.1614 -0.2857  0.6550
  145POPC   C4B 2173  -0.171   7.832   6.755 -0.3189  0.0073  0.0179
  146POPC   NC3 2174   1.737   4.515   8.941  0.2322  0.0057 -0.1212
  146POPC   PO4 2175   1.696   4.068   8.847  0.0352  0.2297  0.0525
  146POPC   GL1 2176   1.753   3.802   8.439 -0.1702  0.2719 -0.0540
  146POPC   GL2 2177   1.767   3.354   8.465  0.4994 -0.0121  0.0654
  146POPC   C1A 2178   1.774   3.900   7.968  0.0298  0.3345  0.2232
  146POPC   D2A 2179   2.048   4.122   7.659 -0.0364 -0.0261  0.0267
  146POPC   C3A 2180   2.046   4.092   7.160 -0.2247 -0.0583 -0.1201
  146POPC   C4A 2181   2.232   4.119   6.762 -0.0201  0.0661 -0.2001
  146POPC   C1B 2182   1.834   3.385   7.973 -0.1911  0.0227  0.1654
  146POPC   C2B 2183   1.851   3.480   7.604  0.1050  0.1826 -0.3395
  146POPC   C3B 2184   1.820   3.765   7.428 -0.2220 -0.0807 -0.2548
  146POPC   C4B 2185   1.475   3.958   7.252 -0.3800  0.0637  0.0512
  147POPC   NC3 2186   7.175   0.099   9.065  0.0152 -0.0451  0.3183
  147POPC   PO4 2187   7.615  -0.033   8.874  0.1134 -0.0923 -0.1171
  147POPC   GL1 2188   7.833   0.016   8.543 -0.0146  0.1494  0.2560
  147POPC   GL2 2189   8.121  -0.225   8.350 -0.0207 -0.0125 -0.1324
  147POPC   C1A 2190   7.642  -0.023   8.144  0.1803  0.3276 -0.1443
  147POPC   D2A 2191   7.877  -0.149   7.692  0.1709 -0.0837 -0.1835
  147POPC   C3A 2192   7.679   0.037   7.366  0.1078  0.2768 -0.0086
  147POPC   C4A 2193   7.819   0.168   6.950 -0.1445  0.0447  0.0013
  147POPC   C1B 2194   7.857  -0.540   8.031 -0.1027  0.0563 -0.1159
  147POPC   C2B 2195   7.518  -0.733   7.948  0.2272 -0.1346  0.0248
  147POPC   C3B 2196   7.247  -1.043   7.675 -0.0184 -0.2815 -0.0372
  147POPC   C4B 2197   6.820  -1.278   7.636 -0.2927  0.3291 -0.2135
  148POPC   NC3 2198   0.043   9.044   8.511  0.3585  0.0628 -0.1046
  148POPC   PO4 2199  -0.313   8.890   8.398  0.1490  0.1628  0.0681
  148POPC   GL1 2200  -0.514   9.130   7.978 -0.0774 -0.0418  0.0150
  148POPC   GL2 2201  -0.811   9.289   8.029 -0.1049  0.0724 -0.0854
  148POPC   C1A 2202  -0.538   9.291   7.520  0.1221 -0.0870 -0.1728
  148POPC   D2A 2203  -0.470   9.557   7.207  0.1866  0.0327  0.4422
  148POPC   C3A 2204  -0.409   9.923   7.265  0.3310 -0.0352  0.2936
  148POPC   C4A 2205  -0.044  10.048   7.496  0.1179 -0.1994  0.0362
  148POPC   C1B 2206  -1.018   9.171   7.651  0.1615 -0.0800  0.2714
  148POPC   C2B 2207  -0.845   9.026   7.234  0.2157 -0.1228  0.1170
  148POPC   C3B 2208  -0.714   9.299   6.834 -0.0230  0.3065 -0.4789
  148POPC   C4B 2209  -0.434   9.275   6.620  0.0998  0.3390 -0.2464
  149POPC   NC3 2210   4.903   3.782   9.189 -0.0602 -0.2907  0.1081
  149POPC   PO4 2211   4.905   4.111   8.947  0.0788  0.0940 -0.0632
  149POPC   GL1 2212   4.892   4.270   8.638  0.0744 -0.2382  0.1685
  149POPC   GL2 2213   5.103   4.510   8.603  0.0109  0.0065 -0.0344
  149POPC   C1A 2214   4.607   4.671   8.385  0.2136  0.2403 -0.2787
  149POPC   D2A 2215   4.538   5.143   8.231 -0.1867 -0.2958 -0.3185
  149POPC   C3A 2216   4.486   5.195   7.865 -0.3258  0.1479 -0.3778
  149POPC   C4A 2217   4.138   5.455   7.733  0.2559  0.0763  0.1357
  149POPC   C1B 2218   4.997   4.591   8.186 -0.0643 -0.2676 -0.0598
  149POPC   C2B 2219   5.089   4.427   7.740  0.3906  0.3406  0.1648
  149POPC   C3B 2220   4.962   4.113   7.510 -0.1423  0.1619 -0.0205
  149POPC   C4B 2221   4.625   4.321   7.399  0.3286 -0.2039  0.0191
  150POPC   NC3 2222   4.831   3.778   5.047 -0.1233 -0.0619 -0.0083
  150POPC   PO4 2223   5.273   3.957   5.125  0.0023  0.1014 -0.1655
  150POPC   GL1 2224   5.148   4.263   5.415  0.0856 -0.0509 -0.1419
  150POPC   GL2 2225   5.475   4.363   5.568  0.0815  0.1652 -0.3226
  150POPC   C1A 2226   4.993   4.526   5.737  0.0344 -0.3043  0.1201
  150POPC   D2A 2227   4.913   4.773   6.092  0.0770  0.0198 -0.2431
  150POPC   C3A 2228   5.240   4.833   6.431  0.0348 -0.3588  0.0947
  150POPC   C4A 2229   5.689   4.682   6.437  0.1137  0.2626  0.1854
  150POPC   C1B 2230   5.434   4.464   5.987 -0.1896 -0.2178  0.0465
  150POPC   C2B 2231   5.245   4.311   6.325  0.0074  0.2976 -0.0047
  150POPC   C3B 2232   5.354   4.438   6.688 -0.2760  0.0200  0.0866
  150POPC   C4B 2233   5.404   4.856   6.922 -0.1410  0.1067 -0.3090
  151POPC   NC3 2234   0.241   5.447   4.408 -0.1855  0.3196  0.0494
  151POPC   PO4 2235   0.468   5.376   4.764  0.2735 -0.1958 -0.1206
  151POPC   GL1 2236   0.453   5.255   5.201  0.1334  0.2432  0.1681
  151POPC   GL2 2237   0.362   5.531   5.234  0.3439 -0.0532 -0.0186
  151POPC   C1A 2238   0.342   4.964   5.568 -0.1572  0.1501 -0.0207
  151POPC   D2A 2239   0.254   4.668   6.011  0.0213  0.3628  0.3659
  151POPC   C3A 2240   0.391   4.748   6.519  0.1298  0.0660 -0.0471
  151POPC   C4A 2241   0.760   4.510   6.776  0.2649 -0.1948 -0.0291
  151POPC   C1B 2242   0.071   5.401   5.499 -0.0399 -0.0076 -0.0286
  151POPC   C2B 2243   0.095   5.434   6.027  0.2744  0.0973  0.0753
  151POPC   C3B 2244   0.102   5.149   6.257  0.1800 -0.2585  0.0432
  151POPC   C4B 2245   0.014   5.059   6.717 -0.0406 -0.4411  0.0727
  152POPC   NC3 2246   2.965   8.725   2.725  0.2037  0.1052  0.5149
  152POPC   PO4 2247   3.332   8.713   2.988  0.2052 -0.4438 -0.2577
  152POPC   GL1 2248   3.458   9.039   3.353  0.2840  0.2354 -0.0348
  152POPC   GL2 2249   3.473   9.339   3.371  0.3208  0.0377 -0.0121
  152POPC   C1A 2250   3.684   8.987   3.793  0.1188  0.1468  0.2428
  152POPC   D2A 2251   3.630   8.744   4.154  0.3184 -0.4773 -0.0700
  152POPC   C3A 2252   3.910   8.583   4.376 -0.4414 -0.2418  0.0441
  152POPC   C4A 2253   3.833   8.291   4.712  0.0286  0.3782  0.2247
  152POPC   C1B 2254   3.326   9.424   3.776 -0.1087  0.0823  0.3238
  152POPC   C2B 2255   3.470   9.397   4.178  0.5365 -0.1745  0.1471
  152POPC   C3B 2256   3.832   9.110   4.468 -0.2519  0.0023 -0.0968
  152POPC   C4B 2257   3.884   9.243   4.924  0.1016  0.3370 -0.0946
  153POPC   NC3 2258   1.439   5.097   4.931 -0.0069  0.0948 -0.3689
  153POPC   PO4 2259   1.790   5.298   5.062 -0.2516 -0.0419  0.0865
  153POPC   GL1 2260   1.909   5.496   5.450  0.1327  0.2512  0.1708
  153POPC   GL2 2261   2.203   5.616   5.414  0.1482 -0.3164  0.0900
  153POPC   C1A 2262   1.802   5.391   5.851  0.0950 -0.2878  0.0274
  153POPC   D2A 2263   1.873   5.208   6.240  0.1541  0.1299  0.1570
  153POPC   C3A 2264   1.505   4.998   6.457 -0.0002  0.0268  0.1641
  153POPC   C4A 2265   1.295   4.927   6.726 -0.0006 -0.0101  0.0582
  153POPC   C1B 2266   2.080   6.034   5.608 -0.0331  0.3602 -0.2413
  153POPC   C2B 2267   1.861   6.267   5.935  0.1297  0.0636  0.2699
  153POPC   C3B 2268   1.652   6.209   6.356  0.1091  0.3429  0.1911
  153POPC   C4B 2269   1.707   5.921   6.739  0.0314  0.1318  0.1046
  154POPC   NC3 2270   0.505   4.251   4.209 -0.0239 -0.2354  0.3292
  154POPC   PO4 2271   0.712   4.555   4.548 -0.3280 -0.0940  0.3315
  154POPC   GL1 2272   0.543   4.463   5.015 -0.0133  0.0485 -0.2718
  154POPC   GL2 2273   0.571   4.206   5.179  0.1808  0.0166  0.4034
  154POPC   C1A 2274   0.715   4.610   5.526  0.1599  0.3599  0.2556
  154POPC   D2A 2275   1.196   4.574   5.630  0.0414 -0.0660  0.1469
  154POPC   C3A 2276   1.333   4.573   6.046 -0.2606  0.2328  0.0406
  154POPC   C4A 2277   1.819   4.542   5.904  0.0940  0.2845  0.0666
  154POPC   C1B 2278   0.823   4.141   5.529  0.1992  0.0624 -0.1040
  154POPC   C2B 2279   1.143   4.155   5.889  0.1145  0.5748  0.1692
  154POPC   C3B 2280   1.096   3.967   6.229 -0.1395  0.1378  0.0171
  154POPC   C4B 2281   1.291   3.891   6.651 -0.0403 -0.1323  0.0571
  155POPC   NC3 2282   8.280   3.819   5.083 -0.1903 -0.0778 -0.1007
  155POPC   PO4 2283   8.739   3.901   5.143 -0.0147  0.0112  0.1646
  155POPC   GL1 2284   8.815   4.086   5.498  0.0059  0.0768 -0.0220
  155POPC   GL2 2285   9.025   4.393   5.492 -0.1301 -0.0688  0.3367
  155POPC   C1A 2286   8.795   4.429   5.869  0.3285 -0.4840  0.0767
  155POPC   D2A 2287   9.106   4.667   6.140  0.2356  0.1042  0.2791
  155POPC   C3A 2288   8.992   4.987   6.511 -0.0556  0.2063 -0.1237
  155POPC   C4A 2289   8.915   5.067   7.022  0.0724 -0.0377  0.0388
  155POPC   C1B 2290   9.291   4.269   5.859 -0.2376 -0.1983  0.1199
  155POPC   C2B 2291   9.405   3.982   6.203 -0.1072 -0.3066  0.2664
  155POPC   C3B 2292   9.518   3.584   6.391  0.2788 -0.2137 -0.3917
  155POPC   C4B 2293   9.621   3.317   6.720 -0.2778  0.1688 -0.2682
  156POPC   NC3 2294   6.378   1.529   3.967 -0.2240 -0.0396 -0.1558
  156POPC   PO4 2295   6.167   1.681   4.348 -0.2541 -0.1337  0.1933
  156POPC   GL1 2296   5.978   1.750   4.780  0.2332  0.3360  0.0056
  156POPC   GL2 2297   5.645   1.563   4.889 -0.4772 -0.0834  0.0498
  156POPC   C1A 2298   5.979   1.626   5.231 -0.0394  0.1430 -0.3665
  156POPC   D2A 2299   6.212   1.643   5.647  0.2270  0.2453  0.3031
  156POPC   C3A 2300   5.970   1.630   6.027 -0.1876 -0.2869 -0.0608
  156POPC   C4A 2301   5.577   1.493   6.181 -0.0030 -0.0555 -0.4198
  156POPC   C1B 2302   5.358   1.470   5.176 -0.2072 -0.2197  0.0768
  156POPC   C2B 2303   5.170   1.453   5.489  0.1705 -0.1333  0.1200
  156POPC   C3B 2304   5.175   1.308   5.942  0.4518 -0.2940  0.1802
  156POPC   C4B 2305   5.150   0.826   6.093  0.0191  0.0611  0.2223
  157POPC   NC3 2306   9.180   5.801   4.540  0.1011  0.1679 -0.0326
  157POPC   PO4 2307   8.847   5.671   4.411 -0.2333 -0.1095  0.4280
  157POPC   GL1 2308   8.955   5.431   4.853 -0.2433 -0.1657  0.2888
  157POPC   GL2 2309   9.274   5.415   4.902 -0.1258  0.0250  0.2252
  157POPC   C1A 2310   8.954   5.347   5.272  0.0192  0.0624 -0.0122
  157POPC   D2A 2311   8.783   5.566   5.650 -0.0623 -0.2452  0.0070
  157POPC   C3A 2312   8.559   5.505   5.946  0.2203  0.0254  0.3748
  157POPC   C4A 2313   8.513   5.116   6.307 -0.1138 -0.0355  0.2093
  157POPC   C1B 2314   9.376   5.582   5.347 -0.2888 -0.0428 -0.2148
  157POPC   C2B 2315   9.390   5.547   5.749 -0.1030 -0.0872  0.0006
  157POPC   C3B 2316   9.418   5.565   6.118 -0.1355 -0.2979  0.1872
  157POPC   C4B 2317   9.416   5.845   6.475 -0.0064  0.1274 -0.0206
  158POPC   NC3 2318   4.999   3.355   5.241 -0.1693  0.1037 -0.0229
  158POPC   PO4 2319   4.601   3.361   4.950 -0.0045 -0.3139 -0.0061
  158POPC   GL1 2320   4.546   3.116   5.276  0.0058 -0.1108 -0.0190
  158POPC   GL2 2321   4.207   3.106   5.187 -0.2249  0.0986 -0.0995
  158POPC   C1A 2322   4.465   3.100   5.726 -0.2587 -0.1178  0.0589
  158POPC   D2A 2323   4.369   3.069   6.152  0.2359  0.1708 -0.4181
  158POPC   C3A 2324   4.461   3.487   6.350  0.1413  0.1193 -0.1392
  158POPC   C4A 2325   4.433   3.716   6.684  0.0363  0.0385  0.0021
  158POPC   C1B 2326   4.157   2.765   5.528  0.1464  0.3977 -0.3084
  158POPC   C2B 2327   4.124   2.495   5.904  0.0775  0.0477 -0.0181
  158POPC   C3B 2328   4.063   2.472   6.323 -0.2367 -0.0502  0.0619
  158POPC   C4B 2329   4.265   2.264   6.804 -0.2604 -0.2495 -0.1325
  159POPC   NC3 2330   5.881   0.916   3.729 -0.1456 -0.0512 -0.0299
  159POPC   PO4 2331   6.259   0.702   3.522 -0.0548  0.1360 -0.0882
  159POPC   GL1 2332   6.171   0.462   3.887 -0.1046  0.0616  0.2243
  159POPC   GL2 2333   6.135   0.754   4.217  0.0621 -0.2353  0.0157
  159POPC   C1A 2334   6.274   0.251   4.368 -0.0704  0.3642  0.2454
  159POPC   D2A 2335   6.583   0.152   4.842  0.1114 -0.0558  0.2517
  159POPC   C3A 2336   6.652  -0.173   4.822 -0.1317 -0.0692 -0.1574
  159POPC   C4A 2337   6.574  -0.640   4.961 -0.1630 -0.3117 -0.1961
  159POPC   C1B 2338   6.066   0.653   4.623  0.3372  0.1556  0.0109
  159POPC   C2B 2339   6.150   0.402   4.920  0.0629  0.1319  0.0700
  159POPC   C3B 2340   6.158   0.027   5.081  0.1086  0.0339 -0.0064
  159POPC   C4B 2341   6.136  -0.204   5.474  0.0040 -0.0931 -0.0366
  160POPC   NC3 2342   7.839   8.613   4.032  0.0420  0.1632 -0.1589
  160POPC   PO4 2343   8.172   8.354   4.241 -0.3709 -0.3089 -0.5133
  160POPC   GL1 2344   7.987   8.071   4.550 -0.0372 -0.0882  0.2964
  160POPC   GL2 2345   8.011   7.778   4.715 -0.2187 -0.2154  0.1915
  160POPC   C1A 2346   7.759   8.221   4.910  0.0026  0.0830  0.0040
  160POPC   D2A 2347   7.360   8.226   5.107  0.3049 -0.1026  0.1622
  160POPC   C3A 2348   7.184   8.627   5.264 -0.1047  0.0294  0.2250
  160POPC   C4A 2349   6.906   9.052   5.241  0.1164  0.1649 -0.0287
  160POPC   C1B 2350   7.746   7.691   5.105 -0.4191  0.0985 -0.2865
  160POPC   C2B 2351   7.519   7.759   5.375  0.3295 -0.0028  0.0736
  160POPC   C3B 2352   7.142   7.753   5.576  0.0631  0.0376  0.1087
  160POPC   C4B 2353   6.790   7.521   5.638  0.0026 -0.1199 -0.2188
  161POPC   NC3 2354   2.941   3.789   4.533  0.0685 -0.2297 -0.1501
  161POPC   PO4 2355   3.119   4.168   4.590  0.2136 -0.0230  0.4658
  161POPC   GL1 2356   3.026   4.248   5.035 -0.1126  0.0819 -0.2760
  161POPC   GL2 2357   2.723   4.206   5.286  0.0667 -0.0084 -0.0718
  161POPC   C1A 2358   3.124   3.919   5.386  0.1913 -0.1575 -0.0226
  161POPC   D2A 2359   3.140   3.921   5.867 -0.3094  0.0066 -0.1531
  161POPC   C3A 2360   3.110   4.129   6.280 -0.2380 -0.1152  0.2528
  161POPC   C4A 2361   3.054   4.097   6.699 -0.0844 -0.0396  0.1826
  161POPC   C1B 2362   3.175   4.408   5.526  0.0673  0.0435  0.1452
  161POPC   C2B 2363   3.243   4.590   5.906 -0.0563 -0.0255  0.1842
  161POPC   C3B 2364   3.016   4.576   6.440  0.0569  0.1660 -0.0569
  161POPC   C4B 2365   3.240   4.523   6.884  0.0007  0.3571  0.2768
  162POPC   NC3 2366   4.429   8.876   2.561  0.2832  0.2064 -0.2368
  162POPC   PO4 2367   4.773   8.795   2.612  0.1727  0.1479 -0.1045
  162POPC   GL1 2368   5.115   8.710   3.005  0.2004 -0.0718  0.2770
  162POPC   GL2 2369   5.393   8.902   3.072  0.3614 -0.1547 -0.1776
  162POPC   C1A 2370   5.372   8.321   3.219  0.5968 -0.3103  0.0378
  162POPC   D2A 2371   5.717   8.121   3.458 -0.0466 -0.0695  0.0875
  162POPC   C3A 2372   5.824   7.756   3.148  0.0971  0.0674 -0.3309
  162POPC   C4A 2373   5.939   7.354   3.196  0.0512 -0.2473  0.2353
  162POPC   C1B 2374   5.430   9.193   3.420 -0.1257  0.0446  0.1223
  162POPC   C2B 2375   5.456   9.428   3.765 -0.0777 -0.1727  0.0484
  162POPC   C3B 2376   5.618   9.450   4.153 -0.2744 -0.1330 -0.1463
  162POPC   C4B 2377   5.592   9.425   4.567  0.2380  0.1167 -0.1168
  163POPC   NC3 2378   0.126   0.365   4.355 -0.3376 -0.1001  0.0588
  163POPC   PO4 2379   0.023   0.446   4.764  0.0326  0.4898 -0.3364
  163POPC   GL1 2380  -0.142   0.421   5.266 -0.2507 -0.3051  0.0006
  163POPC   GL2 2381  -0.143   0.163   5.432  0.0576  0.0689  0.2136
  163POPC   C1A 2382   0.010   0.617   5.673 -0.3725  0.3817  0.3258
  163POPC   D2A 2383   0.030   0.402   6.042 -0.1830  0.0399 -0.0969
  163POPC   C3A 2384  -0.256   0.250   6.361 -0.0044 -0.3190  0.0004
  163POPC   C4A 2385  -0.371  -0.062   6.709 -0.1334 -0.0960  0.0554
  163POPC   C1B 2386   0.269   0.066   5.539 -0.1800 -0.1412 -0.3803
  163POPC   C2B 2387   0.433  -0.311   5.632  0.0299 -0.1262 -0.0866
  163POPC   C3B 2388   0.363  -0.621   5.939  0.3174  0.0699 -0.3489
  163POPC   C4B 2389   0.202  -0.928   6.194  0.0364  0.0885 -0.0615
  164POPC   NC3 2390   9.740   5.873   4.143 -0.2157  0.3824  0.2071
  164POPC   PO4 2391   9.621   5.550   4.479  0.5526  0.0395 -0.2418
  164POPC   GL1 2392   9.558   5.781   4.866  0.0601  0.0728  0.0475
  164POPC   GL2 2393   9.531   6.144   4.867 -0.0900 -0.3913 -0.0967
  164POPC   C1A 2394   9.780   5.792   5.175  0.1488  0.2707 -0.3287
  164POPC   D2A 2395   9.772   5.850   5.622  0.1072  0.2596  0.1639
  164POPC   C3A 2396   9.399   6.098   5.793 -0.0487 -0.2762 -0.1159
  164POPC   C4A 2397   9.035   5.975   5.980  0.0469 -0.2347  0.2865
  164POPC   C1B 2398   9.295   6.101   5.251 -0.4152 -0.0519 -0.1194
  164POPC   C2B 2399   9.001   6.246   5.458 -0.2146  0.0977 -0.0129
  164POPC   C3B 2400   8.896   6.481   5.921 -0.1612  0.0267  0.0852
  164POPC   C4B 2401   8.713   6.552   6.250  0.1004 -0.1249  0.0816
  165POPC   NC3 2402   7.564   6.048   4.186  0.1083 -0.0965 -0.1700
  165POPC   PO4 2403   7.286   5.749   3.939  0.0040  0.0333  0.2176
  165POPC   GL1 2404   7.022   6.071   4.109 -0.2076 -0.0732  0.0123
  165POPC   GL2 2405   6.711   6.123   4.027  0.2035  0.1366  0.2380
  165POPC   C1A 2406   6.902   6.053   4.564 -0.1170 -0.1837 -0.3215
  165POPC   D2A 2407   7.085   5.926   4.932 -0.0027  0.0992 -0.4634
  165POPC   C3A 2408   7.194   5.824   5.398  0.0536 -0.1770  0.0622
  165POPC   C4A 2409   7.089   5.542   5.692  0.1618  0.1557  0.1809
  165POPC   C1B 2410   6.447   6.201   4.356  0.1306  0.0581  0.2561
  165POPC   C2B 2411   6.182   6.488   4.710 -0.2028 -0.1169 -0.0587
  165POPC   C3B 2412   6.145   6.671   5.100  0.2494 -0.5034 -0.0137
  165POPC   C4B 2413   6.051   6.810   5.560  0.1100  0.0492  0.4267
  166POPC   NC3 2414   2.272   3.522   5.018  0.1319  0.0785 -0.0573
  166POPC   PO4 2415   2.650   3.275   4.907  0.0753  0.0682 -0.1333
  166POPC   GL1 2416   2.869   3.376   5.240 -0.1362  0.2097 -0.3340
  166POPC   GL2 2417   2.725   3.560   5.467  0.0439 -0.3084  0.0750
  166POPC   C1A 2418   3.233   3.449   5.539 -0.0208  0.0237 -0.0357
  166POPC   D2A 2419   3.473   3.359   5.807 -0.1762 -0.0017 -0.0750
  166POPC   C3A 2420   3.329   3.531   6.204  0.3618  0.3957  0.0889
  166POPC   C4A 2421   3.441   3.738   6.559 -0.3028  0.0569 -0.1464
  166POPC   C1B 2422   2.610   3.994   5.758  0.1179 -0.2020 -0.0428
  166POPC   C2B 2423   2.764   4.313   5.951 -0.0084  0.1546  0.1972
  166POPC   C3B 2424   2.642   4.230   6.379  0.1736 -0.5498 -0.1118
  166POPC   C4B 2425   2.651   3.892   6.610  0.2033 -0.2294 -0.0972
  167POPC   NC3 2426   3.911   1.612   4.720 -0.0600  0.2303  0.2375
  167POPC   PO4 2427   3.906   1.195   4.487 -0.0822  0.0644 -0.2965
  167POPC   GL1 2428   3.666   0.949   4.780 -0.0738  0.0749 -0.2778
  167POPC   GL2 2429   3.454   0.731   4.766  0.3116  0.2277 -0.0299
  167POPC   C1A 2430   3.852   0.712   5.096  0.0410 -0.0129 -0.1046
  167POPC   D2A 2431   3.692   0.428   5.465 -0.0094 -0.0330  0.2428
  167POPC   C3A 2432   3.472   0.204   5.320 -0.3395  0.3807 -0.0547
  167POPC   C4A 2433   3.036   0.071   5.259  0.3665 -0.0727 -0.0301
  167POPC   C1B 2434   3.370   0.269   4.822 -0.0514 -0.0368  0.3661
  167POPC   C2B 2435   3.262  -0.008   4.779 -0.0662  0.1164 -0.2088
  167POPC   C3B 2436   2.896  -0.227   4.801 -0.2246 -0.0252 -0.0334
  167POPC   C4B 2437   2.812  -0.462   5.136 -0.1654  0.1886 -0.3256
  168POPC   NC3 2438   5.425   9.490   2.419  0.0486 -0.1429 -0.0740
  168POPC   PO4 2439   5.126   9.759   2.667 -0.0661  0.1977 -0.1539
  168POPC   GL1 2440   4.932   9.669   3.052 -0.0452 -0.2679 -0.0158
  168POPC   GL2 2441   5.177   9.826   3.328 -0.2800  0.1041  0.1531
  168POPC   C1A 2442   4.980   9.356   3.387  0.0994  0.0344 -0.2844
  168POPC   D2A 2443   5.027   9.202   3.732  0.3757  0.0569 -0.6053
  168POPC   C3A 2444   4.935   8.826   3.503  0.2390  0.0299 -0.0038
  168POPC   C4A 2445   4.595   8.567   3.398  0.5279 -0.3258  0.0179
  168POPC   C1B 2446   5.024   9.831   3.760 -0.0355  0.1214 -0.2423
  168POPC   C2B 2447   5.055   9.574   4.099 -0.3555  0.3146  0.0926
  168POPC   C3B 2448   5.198   9.206   4.264  0.1671  0.1313 -0.1024
  168POPC   C4B 2449   5.268   8.960   4.638 -0.1757 -0.1654  0.1859
  169POPC   NC3 2450   8.018   2.486   5.041 -0.0044 -0.1746  0.2544
  169POPC   PO4 2451   8.398   2.525   5.168 -0.1288  0.1772  0.1278
  169POPC   GL1 2452   8.388   2.520   5.587 -0.2725 -0.0398 -0.4547
  169POPC   GL2 2453   8.504   2.120   5.729  0.1369 -0.3655  0.2137
  169POPC   C1A 2454   8.413   2.487   6.164 -0.0478  0.1487  0.2611
  169POPC   D2A 2455   8.229   2.403   6.455  0.0201  0.3033  0.1470
  169POPC   C3A 2456   7.902   2.011   6.452 -0.2916 -0.0585  0.0752
  169POPC   C4A 2457   8.005   1.592   6.311  0.1450 -0.3067  0.2072
  169POPC   C1B 2458   8.594   2.009   6.125 -0.0867  0.0762 -0.2281
  169POPC   C2B 2459   8.465   1.865   6.499 -0.0618 -0.1108 -0.1393
  169POPC   C3B 2460   8.446   1.518   6.809  0.1277 -0.0071 -0.2465
  169POPC   C4B 2461   8.120   1.297   6.938 -0.0646 -0.0065  0.2348
  170POPC   NC3 2462   8.780   2.233   5.309 -0.5741 -0.1248  0.0698
  170POPC   PO4 2463   8.657   1.784   5.212 -0.0339 -0.1537  0.0305
  170POPC   GL1 2464   8.846   1.621   5.564 -0.0304  0.1015  0.0506
  170POPC   GL2 2465   9.176   1.696   5.567 -0.1217  0.1677  0.0243
  170POPC   C1A 2466   8.704   1.576   5.960 -0.1459 -0.2127 -0.1959
  170POPC   D2A 2467   8.764   1.450   6.444  0.1099 -0.0250  0.0248
  170POPC   C3A 2468   8.389   1.162   6.502  0.1718  0.1635  0.2920
  170POPC   C4A 2469   7.962   0.941   6.558  0.2662 -0.2346 -0.0247
  170POPC   C1B 2470   9.213   1.297   5.862  0.3094 -0.2463  0.1246
  170POPC   C2B 2471   9.215   1.265   6.306  0.0601 -0.1324  0.1290
  170POPC   C3B 2472   9.420   1.688   6.410  0.1869  0.0954 -0.1592
  170POPC   C4B 2473   9.507   2.104   6.377  0.0331 -0.1492  0.2120
  171POPC   NC3 2474   0.569   2.551   4.998  0.0146 -0.1629  0.0539
  171POPC   PO4 2475   0.584   3.039   5.169 -0.1869 -0.2088 -0.1352
  171POPC   GL1 2476   0.795   3.070   5.590  0.1720 -0.1143  0.0634
  171POPC   GL2 2477   1.105   2.791   5.379  0.1923 -0.0419  0.2109
  171POPC   C1A 2478   1.167   3.166   5.871 -0.0060 -0.1800  0.1054
  171POPC   D2A 2479   1.383   2.941   6.252  0.0740 -0.0792 -0.0435
  171POPC   C3A 2480   1.253   2.829   6.682 -0.2085 -0.1868  0.1850
  171POPC   C4A 2481   1.080   2.756   7.087 -0.1340 -0.0763 -0.0292
  171POPC   C1B 2482   1.299   2.679   5.700  0.0312 -0.1093 -0.2401
  171POPC   C2B 2483   1.425   2.416   6.118 -0.1244  0.2332 -0.1356
  171POPC   C3B 2484   1.429   2.359   6.517  0.0285 -0.0043 -0.4362
  171POPC   C4B 2485   1.321   2.356   6.921 -0.1442 -0.0414  0.1927
  172POPC   NC3 2486   4.159   3.468   4.761 -0.2741  0.0600  0.2609
  172POPC   PO4 2487   4.255   3.870   5.017 -0.1533  0.3189  0.3180
  172POPC   GL1 2488   4.480   3.919   5.360 -0.3421  0.2808  0.0825
  172POPC   GL2 2489   4.585   3.562   5.460 -0.1504  0.2429 -0.1710
  172POPC   C1A 2490   4.747   4.082   5.647 -0.4723  0.0519  0.0464
  172POPC   D2A 2491   5.030   3.988   5.950 -0.2050  0.0546 -0.3053
  172POPC   C3A 2492   4.892   3.757   6.224 -0.4284  0.4767 -0.0593
  172POPC   C4A 2493   4.879   3.457   6.657  0.3933  0.0061  0.2238
  172POPC   C1B 2494   4.872   3.335   5.895 -0.2468 -0.3663 -0.1632
  172POPC   C2B 2495   4.883   3.106   6.318 -0.0780 -0.2252  0.0836
  172POPC   C3B 2496   4.478   3.128   6.691 -0.2525 -0.4728 -0.1869
  172POPC   C4B 2497   4.085   3.378   6.765 -0.0669 -0.2535  0.2259
  173POPC   NC3 2498   8.355   8.598   4.714 -0.0681  0.0330  0.1176
  173POPC   PO4 2499   8.566   8.207   4.549  0.3172 -0.0020 -0.2692
  173POPC   GL1 2500   8.363   8.137   4.924  0.0185 -0.2403 -0.1532
  173POPC   GL2 2501   8.555   8.258   5.192 -0.1116 -0.0955 -0.0135
  173POPC   C1A 2502   8.082   8.021   5.291 -0.3640 -0.1736 -0.1384
  173POPC   D2A 2503   7.795   8.073   5.798  0.2006  0.2296 -0.0337
  173POPC   C3A 2504   7.459   7.897   5.997  0.1975 -0.1287  0.0230
  173POPC   C4A 2505   7.187   7.597   6.213 -0.0137 -0.0698 -0.1983
  173POPC   C1B 2506   8.554   7.784   5.427  0.0390  0.1183 -0.2105
  173POPC   C2B 2507   8.835   7.501   5.610  0.1547  0.0696  0.0726
  173POPC   C3B 2508   8.935   7.356   6.074  0.0338 -0.7021  0.5552
  173POPC   C4B 2509   8.938   7.133   6.394  0.0706  0.0169  0.3147
  174POPC   NC3 2510   9.067   0.903   4.883  0.2055 -0.0453  0.3643
  174POPC   PO4 2511   8.937   0.409   4.932 -0.3560 -0.0103  0.0130
  174POPC   GL1 2512   8.991   0.599   5.331 -0.0742 -0.2699 -0.1078
  174POPC   GL2 2513   9.236   0.386   5.322 -0.0268  0.0607  0.1004
  174POPC   C1A 2514   8.985   0.632   5.717  0.1497  0.0023  0.0460
  174POPC   D2A 2515   9.082   0.863   6.075 -0.1913  0.0247  0.2031
  174POPC   C3A 2516   9.326   0.712   6.482 -0.0238  0.0390 -0.1087
  174POPC   C4A 2517   9.611   0.831   6.854 -0.1950 -0.2097 -0.0971
  174POPC   C1B 2518   9.399   0.413   5.765 -0.3024 -0.1636  0.1040
  174POPC   C2B 2519   9.139   0.345   6.098  0.0848  0.0176  0.2981
  174POPC   C3B 2520   8.940   0.187   6.477  0.1156 -0.1385  0.1012
  174POPC   C4B 2521   8.486   0.229   6.578 -0.3641 -0.1034 -0.0133
  175POPC   NC3 2522   9.587   7.493   4.941 -0.1285  0.0668 -0.0147
  175POPC   PO4 2523   9.929   7.835   4.942  0.2223 -0.1538 -0.1032
  175POPC   GL1 2524   9.872   8.166   5.349 -0.2194 -0.0109 -0.1320
  175POPC   GL2 2525   9.822   8.510   5.384  0.0450  0.1175 -0.2952
  175POPC   C1A 2526   9.535   8.216   5.674 -0.3895  0.1448 -0.4018
  175POPC   D2A 2527   9.596   8.397   6.053  0.0345  0.0918  0.3561
  175POPC   C3A 2528   9.239   8.507   6.281 -0.2126  0.0887 -0.1142
  175POPC   C4A 2529   8.789   8.776   6.023  0.0652  0.1252 -0.0668
  175POPC   C1B 2530  10.041   8.534   5.730  0.2845 -0.1037 -0.0352
  175POPC   C2B 2531  10.127   8.486   6.126 -0.2641  0.0984  0.0578
  175POPC   C3B 2532   9.886   8.280   6.463  0.0270  0.1586 -0.2352
  175POPC   C4B 2533   9.560   8.307   6.739 -0.1254  0.1479  0.0220
  176POPC   NC3 2534   2.383   2.850   4.884 -0.2573  0.0567 -0.1283
  176POPC   PO4 2535   2.600   2.495   4.727  0.0231 -0.3103 -0.1467
  176POPC   GL1 2536   2.859   2.824   5.043 -0.1530 -0.2333 -0.1631
  176POPC   GL2 2537   2.616   2.905   5.373  0.1207 -0.0093  0.0423
  176POPC   C1A 2538   3.171   2.805   5.310  0.2013 -0.3061  0.0701
  176POPC   D2A 2539   3.224   2.923   5.765  0.0336  0.2935 -0.2831
  176POPC   C3A 2540   2.963   3.231   5.929 -0.0110  0.2549  0.1746
  176POPC   C4A 2541   2.706   3.574   6.216  0.2074 -0.1241 -0.3410
  176POPC   C1B 2542   2.789   2.656   5.765  0.0174  0.2844  0.0236
  176POPC   C2B 2543   2.585   2.367   5.991 -0.0516 -0.2306 -0.0552
  176POPC   C3B 2544   2.374   2.161   6.339 -0.1668  0.1423  0.0408
  176POPC   C4B 2545   1.984   2.066   6.625  0.4566 -0.2843  0.1540
  177POPC   NC3 2546   1.306   6.114   4.463 -0.3031  0.3166  0.1825
  177POPC   PO4 2547   1.510   6.098   4.790  0.0034 -0.0634  0.2551
  177POPC   GL1 2548   1.216   6.014   5.095 -0.1342  0.1706 -0.1256
  177POPC   GL2 2549   1.366   5.719   5.230  0.0924 -0.0978 -0.0347
  177POPC   C1A 2550   0.937   5.939   5.451 -0.1506 -0.0220  0.0753
  177POPC   D2A 2551   0.810   5.904   5.888  0.0468 -0.1482  0.1690
  177POPC   C3A 2552   1.030   5.588   6.112 -0.2646  0.3585 -0.0022
  177POPC   C4A 2553   0.977   5.339   6.486 -0.2777  0.1317 -0.0844
  177POPC   C1B 2554   1.541   5.977   5.576  0.0324  0.0188  0.0859
  177POPC   C2B 2555   1.296   6.134   5.915 -0.1409  0.1909  0.2308
  177POPC   C3B 2556   1.137   6.073   6.280  0.1612 -0.1971  0.0962
  177POPC   C4B 2557   1.208   5.953   6.706 -0.1716 -0.0038 -0.0028
  178POPC   NC3 2558   6.713   4.658   4.727 -0.0425  0.2129 -0.2925
  178POPC   PO4 2559   6.930   4.569   5.138  0.1353  0.0231  0.4565
  178POPC   GL1 2560   6.656   4.617   5.411  0.0846 -0.2121 -0.0837
  178POPC   GL2 2561   6.408   4.711   5.166 -0.0624  0.1856 -0.1301
  178POPC   C1A 2562   6.542   4.905   5.715 -0.0985  0.0951 -0.1187
  178POPC   D2A 2563   6.417   5.021   6.048  0.0487 -0.2525 -0.0835
  178POPC   C3A 2564   5.993   4.821   6.016  0.1830 -0.4446 -0.1048
  178POPC   C4A 2565   5.797   4.717   5.688  0.1395  0.1882  0.1845
  178POPC   C1B 2566   6.134   5.038   5.484  0.1162 -0.1183 -0.2428
  178POPC   C2B 2567   6.139   5.406   5.827 -0.1409  0.1656 -0.0419
  178POPC   C3B 2568   6.323   5.760   5.967 -0.0526 -0.1766  0.0079
  178POPC   C4B 2569   6.378   6.104   6.143 -0.0805 -0.2260 -0.0511
  179POPC   NC3 2570   7.632   6.896   2.915  0.2871  0.1543 -0.0761
  179POPC   PO4 2571   7.635   7.102   3.333  0.0596  0.0735 -0.1693
  179POPC   GL1 2572   7.299   7.239   3.600  0.0094 -0.3356  0.3363
  179POPC   GL2 2573   7.094   7.436   3.341 -0.2204  0.0341 -0.0851
  179POPC   C1A 2574   7.102   7.532   3.868 -0.1095 -0.0688 -0.0593
  179POPC   D2A 2575   7.162   7.973   3.958 -0.2875  0.2562  0.3392
  179POPC   C3A 2576   6.883   8.234   3.899 -0.2011 -0.4409  0.0948
  179POPC   C4A 2577   6.550   8.334   3.819  0.1840 -0.0087  0.0991
  179POPC   C1B 2578   6.667   7.463   3.359  0.1224  0.1167  0.1431
  179POPC   C2B 2579   6.318   7.351   3.556 -0.1171  0.1528 -0.1234
  179POPC   C3B 2580   6.005   7.035   3.569  0.0783  0.0383  0.0020
  179POPC   C4B 2581   5.668   7.174   3.971  0.0162  0.1583  0.2867
  180POPC   NC3 2582   4.477   6.805   2.492  0.1365  0.1873  0.0064
  180POPC   PO4 2583   4.422   7.182   2.461 -0.0993 -0.0447 -0.1239
  180POPC   GL1 2584   4.633   7.437   2.925  0.1275  0.0905  0.0662
  180POPC   GL2 2585   4.716   7.753   2.891  0.0395 -0.2644  0.1424
  180POPC   C1A 2586   4.412   7.571   3.307 -0.0392 -0.2939  0.2123
  180POPC   D2A 2587   4.235   7.739   3.695  0.1527  0.0598 -0.1133
  180POPC   C3A 2588   4.489   7.789   4.181  0.1180  0.1870  0.2296
  180POPC   C4A 2589   4.466   7.619   4.540  0.0557  0.2772  0.0616
  180POPC   C1B 2590   4.811   8.006   3.402  0.0699  0.3905  0.2074
  180POPC   C2B 2591   5.035   8.274   3.581 -0.0779  0.1430  0.1997
  180POPC   C3B 2592   5.287   8.398   3.900 -0.1227 -0.2764  0.1754
  180POPC   C4B 2593   5.187   8.761   4.001 -0.0102  0.0041  0.1585
  181POPC   NC3 2594   6.365   4.064   4.514  0.1775  0.0718  0.0729
  181POPC   PO4 2595   6.013   3.943   4.875 -0.0673  0.2888  0.0499
  181POPC   GL1 2596   6.089   4.010   5.306 -0.2585 -0.0628  0.0151
  181POPC   GL2 2597   6.317   4.237   5.378  0.0087 -0.1880 -0.1797
  181POPC   C1A 2598   5.923   4.122   5.722 -0.0215 -0.3999 -0.1138
  181POPC   D2A 2599   5.892   4.353   6.122  0.2218  0.1214  0.0611
  181POPC   C3A 2600   5.750   4.150   6.542  0.1733  0.0337 -0.0449
  181POPC   C4A 2601   5.485   3.936   6.871 -0.0770 -0.0037  0.3067
  181POPC   C1B 2602   6.516   4.318   5.828  0.0340  0.3163  0.0736
  181POPC   C2B 2603   6.396   4.482   6.199  0.2146  0.1466 -0.1229
  181POPC   C3B 2604   6.189   4.614   6.529  0.2033  0.0429  0.0200
  181POPC   C4B 2605   5.993   5.044   6.497 -0.0791  0.2556 -0.2011
  182POPC   NC3 2606   1.708   1.061   4.568 -0.2506  0.4635 -0.1344
  182POPC   PO4 2607   2.185   1.245   4.556  0.0214 -0.0898  0.0667
  182POPC   GL1 2608   1.949   1.100   4.993 -0.2039  0.2927 -0.1130
  182POPC   GL2 2609   2.165   1.224   5.176  0.0830 -0.2013 -0.0799
  182POPC   C1A 2610   1.599   0.988   5.207  0.1985 -0.0108  0.2052
  182POPC   D2A 2611   1.379   1.135   5.528  0.2054  0.2709 -0.0239
  182POPC   C3A 2612   1.471   1.031   5.878  0.2395  0.1749  0.1138
  182POPC   C4A 2613   1.697   0.719   6.073  0.0694  0.1279  0.1895
  182POPC   C1B 2614   2.345   1.324   5.541  0.2807  0.1443  0.1473
  182POPC   C2B 2615   2.714   1.340   5.687 -0.0722  0.1824  0.2603
  182POPC   C3B 2616   2.930   1.557   6.022 -0.0565  0.1686  0.0019
  182POPC   C4B 2617   2.886   1.972   6.234 -0.1417  0.0843 -0.0806
  183POPC   NC3 2618   6.693   0.541   3.753 -0.1394 -0.0805 -0.1186
  183POPC   PO4 2619   6.671   0.712   4.218  0.1611 -0.0662  0.0607
  183POPC   GL1 2620   6.817   0.696   4.600  0.0688 -0.1737 -0.1288
  183POPC   GL2 2621   6.986   0.360   4.530  0.3756  0.0647 -0.1394
  183POPC   C1A 2622   6.797   0.547   5.097  0.3873  0.0330  0.1050
  183POPC   D2A 2623   6.731   0.682   5.497  0.2476  0.0510 -0.0549
  183POPC   C3A 2624   6.689   0.402   5.784 -0.2069  0.0045  0.1743
  183POPC   C4A 2625   6.983   0.390   6.104 -0.1755  0.2222  0.1107
  183POPC   C1B 2626   7.154   0.127   4.891  0.1484  0.1083 -0.1127
  183POPC   C2B 2627   7.062   0.234   5.322 -0.0251 -0.3422 -0.3752
  183POPC   C3B 2628   7.120   0.096   5.708  0.1856 -0.2358  0.2098
  183POPC   C4B 2629   6.971  -0.206   5.989  0.0464 -0.0239 -0.0604
  184POPC   NC3 2630   1.035   4.328   4.860 -0.3448  0.2476  0.4171
  184POPC   PO4 2631   1.464   4.562   4.973 -0.2442 -0.0505 -0.1949
  184POPC   GL1 2632   1.648   4.842   5.332 -0.0543 -0.1702  0.2338
  184POPC   GL2 2633   1.960   4.936   5.420  0.3297  0.0362 -0.0813
  184POPC   C1A 2634   1.576   4.997   5.729 -0.1104 -0.0690 -0.1697
  184POPC   D2A 2635   1.388   5.268   6.035 -0.4070 -0.2108 -0.0231
  184POPC   C3A 2636   1.039   5.098   5.886  0.1941 -0.0136  0.3480
  184POPC   C4A 2637   0.826   4.923   5.872  0.0342 -0.0559 -0.0597
  184POPC   C1B 2638   2.141   4.921   5.810 -0.1510 -0.1360 -0.3107
  184POPC   C2B 2639   2.176   4.804   6.263 -0.0281  0.1902  0.0110
  184POPC   C3B 2640   2.331   4.597   6.622 -0.1875  0.0718 -0.1236
  184POPC   C4B 2641   2.672   4.384   6.841 -0.3222 -0.1447  0.1426
  185POPC   NC3 2642   7.409   3.884   4.867 -0.0527 -0.0821 -0.1614
  185POPC   PO4 2643   7.789   3.811   4.996 -0.1399  0.1544 -0.6069
  185POPC   GL1 2644   7.952   3.847   5.429  0.0753  0.0436  0.1323
  185POPC   GL2 2645   8.107   3.500   5.428  0.1786  0.2735  0.2886
  185POPC   C1A 2646   7.800   3.802   5.723  0.2964 -0.2435  0.1125
  185POPC   D2A 2647   8.016   3.590   5.945  0.1223  0.0044  0.2146
  185POPC   C3A 2648   8.403   3.799   6.112 -0.3146 -0.1742  0.0024
  185POPC   C4A 2649   8.371   4.209   6.409  0.0748 -0.0280  0.0434
  185POPC   C1B 2650   7.854   3.226   5.684 -0.3366 -0.1437 -0.0600
  185POPC   C2B 2651   7.756   3.228   6.054 -0.1906  0.1710 -0.0299
  185POPC   C3B 2652   7.449   3.292   6.405 -0.0566 -0.0942  0.3230
  185POPC   C4B 2653   7.186   3.007   6.515 -0.0103  0.3504  0.1476
  186POPC   NC3 2654   2.708   7.746   3.466  0.1791 -0.3833  0.3585
  186POPC   PO4 2655   2.564   7.458   3.845 -0.1531 -0.0508  0.2231
  186POPC   GL1 2656   2.571   7.592   4.228 -0.0142 -0.2250 -0.3002
  186POPC   GL2 2657   2.479   7.827   4.293 -0.0047  0.1082  0.4908
  186POPC   C1A 2658   2.765   7.476   4.555 -0.2492 -0.0149  0.2284
  186POPC   D2A 2659   2.951   7.295   4.851  0.0511  0.5383  0.3241
  186POPC   C3A 2660   3.297   7.095   4.701  0.0860  0.0137  0.1682
  186POPC   C4A 2661   3.553   6.950   4.376  0.0919 -0.0837  0.1998
  186POPC   C1B 2662   2.656   7.920   4.660 -0.1687 -0.0416 -0.2277
  186POPC   C2B 2663   3.039   7.859   4.945 -0.0883  0.3268 -0.2348
  186POPC   C3B 2664   3.288   8.137   5.103 -0.0345  0.2921 -0.2203
  186POPC   C4B 2665   3.639   8.504   5.272  0.1500  0.1545  0.0574
  187POPC   NC3 2666   5.374   1.950   4.620  0.0632  0.0120  0.0082
  187POPC   PO4 2667   5.551   2.400   4.621  0.0034 -0.0585 -0.0366
  187POPC   GL1 2668   5.370   2.455   4.987 -0.2705  0.1138 -0.1317
  187POPC   GL2 2669   5.068   2.393   5.004 -0.0149 -0.0853  0.1704
  187POPC   C1A 2670   5.457   2.076   5.219 -0.0496  0.3060 -0.6400
  187POPC   D2A 2671   5.570   1.885   5.566 -0.0870  0.2169  0.0562
  187POPC   C3A 2672   5.637   1.470   5.663  0.0469 -0.2476  0.2620
  187POPC   C4A 2673   5.677   1.201   5.442 -0.1066  0.1178 -0.1196
  187POPC   C1B 2674   5.012   2.171   5.462 -0.2287  0.1381 -0.3602
  187POPC   C2B 2675   4.975   1.843   5.752  0.3792  0.3348 -0.2539
  187POPC   C3B 2676   4.725   1.650   6.171  0.0807  0.1861  0.0360
  187POPC   C4B 2677   4.854   1.259   6.372  0.3468 -0.1634  0.1548
  188POPC   NC3 2678   4.072   2.345   4.450 -0.2037 -0.1053 -0.0905
  188POPC   PO4 2679   3.983   2.603   4.630  0.1654 -0.3280  0.1171
  188POPC   GL1 2680   4.115   2.605   5.030 -0.2268 -0.1495 -0.1617
  188POPC   GL2 2681   3.760   2.547   5.232  0.0815  0.0019  0.2921
  188POPC   C1A 2682   4.606   2.631   5.243  0.0921  0.0504 -0.0263
  188POPC   D2A 2683   5.019   2.641   5.503 -0.1350 -0.1639  0.1873
  188POPC   C3A 2684   4.770   2.701   5.958 -0.0192 -0.0158  0.1138
  188POPC   C4A 2685   4.596   2.627   6.314 -0.1332  0.0743  0.1520
  188POPC   C1B 2686   3.677   2.688   5.670 -0.0910  0.0085 -0.0700
  188POPC   C2B 2687   3.767   2.790   5.988  0.0180 -0.0269 -0.1067
  188POPC   C3B 2688   3.636   3.045   6.342  0.2202  0.0957  0.0496
  188POPC   C4B 2689   3.562   3.274   6.723 -0.3733  0.0275  0.2168
  189POPC   NC3 2690   8.232   6.530   4.304  0.1582  0.1086 -0.1029
  189POPC   PO4 2691   8.672   6.585   4.397 -0.0360  0.0621 -0.0944
  189POPC   GL1 2692   8.546   6.285   4.750 -0.1326 -0.2939 -0.0139
  189POPC   GL2 2693   8.233   6.221   4.770 -0.0780 -0.0414 -0.1235
  189POPC   C1A 2694   8.656   6.134   5.130 -0.2501  0.0283  0.0135
  189POPC   D2A 2695   8.467   6.058   5.524  0.0524 -0.1768 -0.0808
  189POPC   C3A 2696   8.566   5.979   5.937  0.0013  0.0727 -0.1955
  189POPC   C4A 2697   8.670   6.062   6.361  0.0580  0.1182  0.1586
  189POPC   C1B 2698   8.166   6.426   5.132  0.0853  0.0415  0.0264
  189POPC   C2B 2699   8.073   6.452   5.458  0.0613 -0.1636  0.0192
  189POPC   C3B 2700   7.802   6.541   5.700 -0.1601  0.0245  0.0756
  189POPC   C4B 2701   7.429   6.800   5.848 -0.1252  0.2798 -0.0441
  190POPC   NC3 2702   0.992   1.233   4.210 -0.4649 -0.1097  0.1775
  190POPC   PO4 2703   1.279   1.232   4.598 -0.1617  0.0348 -0.3227
  190POPC   GL1 2704   1.290   1.273   4.932 -0.1584  0.1544 -0.0365
  190POPC   GL2 2705   1.004   1.363   5.168 -0.1061 -0.0687  0.1661
  190POPC   C1A 2706   1.557   1.482   5.113 -0.3053  0.1129  0.1854
  190POPC   D2A 2707   1.735   1.661   5.497  0.3834  0.0804 -0.1742
  190POPC   C3A 2708   1.609   1.452   5.846  0.4306 -0.1923  0.1683
  190POPC   C4A 2709   1.524   1.415   6.277  0.1863  0.0247 -0.0828
  190POPC   C1B 2710   0.710   1.461   5.555  0.0263  0.1783 -0.0087
  190POPC   C2B 2711   0.465   1.523   5.887  0.4258  0.0813  0.0750
  190POPC   C3B 2712   0.156   1.795   5.872 -0.0606 -0.2157 -0.4073
  190POPC   C4B 2713  -0.035   2.236   5.956 -0.1126  0.0726  0.0367
  191POPC   NC3 2714   3.052   8.599   3.473 -0.1047 -0.1272 -0.3330
  191POPC   PO4 2715   2.868   8.207   3.517  0.0624  0.0421  0.1384
  191POPC   GL1 2716   2.826   7.925   3.904  0.1126 -0.2051 -0.1358
  191POPC   GL2 2717   3.078   7.606   3.768 -0.1954  0.1114  0.0826
  191POPC   C1A 2718   3.011   7.871   4.279  0.0762 -0.0647  0.0796
  191POPC   D2A 2719   3.173   8.156   4.516  0.0227  0.2350 -0.1448
  191POPC   C3A 2720   2.849   8.399   4.794  0.0964 -0.3328  0.1326
  191POPC   C4A 2721   2.600   8.678   5.128  0.1950  0.2277  0.1297
  191POPC   C1B 2722   3.220   7.384   4.228 -0.2493  0.1209  0.1954
  191POPC   C2B 2723   3.295   7.581   4.572  0.2584  0.0372 -0.0456
  191POPC   C3B 2724   3.553   7.898   4.662  0.0528  0.4210 -0.1675
  191POPC   C4B 2725   3.762   8.003   5.098 -0.1532  0.2096  0.1756
  192POPC   NC3 2726   3.146   6.227   3.248  0.3091  0.0716  0.2440
  192POPC   PO4 2727   3.076   6.585   3.641 -0.0435  0.0826  0.0110
  192POPC   GL1 2728   3.525   6.713   3.840  0.0117 -0.1044 -0.0686
  192POPC   GL2 2729   3.787   6.543   4.001 -0.1507  0.0210 -0.0949
  192POPC   C1A 2730   3.723   7.102   3.927  0.0277 -0.2574  0.1901
  192POPC   D2A 2731   3.634   7.539   3.876  0.0850  0.1338  0.0343
  192POPC   C3A 2732   3.936   7.733   4.100  0.1252  0.0061  0.0681
  192POPC   C4A 2733   4.098   8.009   4.382  0.2036  0.0385  0.0478
  192POPC   C1B 2734   4.157   6.754   4.153  0.0137  0.3741  0.0903
  192POPC   C2B 2735   4.618   6.720   4.283 -0.0996 -0.3753 -0.0129
  192POPC   C3B 2736   4.944   6.947   4.479 -0.1714 -0.1770 -0.2275
  192POPC   C4B 2737   5.294   6.916   4.897  0.0650 -0.0479  0.4658
  193POPC   NC3 2738   2.143   6.263   4.805  0.3181 -0.2497  0.1521
  193POPC   PO4 2739   2.201   5.684   4.730  0.1697  0.0425  0.3227
  193POPC   GL1 2740   2.478   5.925   5.032  0.3055  0.1913  0.0420
  193POPC   GL2 2741   2.617   6.162   4.920  0.0780  0.0763 -0.2707
  193POPC   C1A 2742   2.542   6.108   5.410 -0.3393 -0.2356 -0.0554
  193POPC   D2A 2743   2.690   6.133   5.843  0.3653  0.0051 -0.1187
  193POPC   C3A 2744   2.787   6.463   6.178 -0.0521  0.2661  0.0203
  193POPC   C4A 2745   2.504   6.539   6.552 -0.1475 -0.1802 -0.0735
  193POPC   C1B 2746   2.909   6.420   5.083 -0.1079  0.1690 -0.2016
  193POPC   C2B 2747   2.962   6.810   5.312 -0.2065 -0.1493  0.0985
  193POPC   C3B 2748   3.103   7.114   5.516  0.2719 -0.5167 -0.0283
  193POPC   C4B 2749   3.221   7.390   5.893 -0.1452  0.0044  0.1082
  194POPC   NC3 2750   7.205   6.695   3.244 -0.2805 -0.1676 -0.4421
  194POPC   PO4 2751   6.923   6.388   3.468 -0.0048  0.0637 -0.2665
  194POPC   GL1 2752   6.529   6.619   3.516  0.0378  0.3018  0.1245
  194POPC   GL2 2753   6.152   6.559   3.480  0.0278  0.1268 -0.2323
  194POPC   C1A 2754   6.537   6.943   3.677  0.2399 -0.1747 -0.2182
  194POPC   D2A 2755   6.178   7.065   4.024  0.0433 -0.2651 -0.2671
  194POPC   C3A 2756   6.067   7.494   4.009 -0.0727 -0.0780 -0.1996
  194POPC   C4A 2757   6.238   7.974   4.109 -0.2646 -0.0091 -0.5044
  194POPC   C1B 2758   5.910   6.671   3.911 -0.3292  0.0697 -0.0571
  194POPC   C2B 2759   5.921   6.737   4.316 -0.1006 -0.1123 -0.2446
  194POPC   C3B 2760   5.718   6.806   4.719  0.2108 -0.2291  0.2382
  194POPC   C4B 2761   5.665   6.840   5.222  0.3751 -0.3513 -0.1552
  195POPC   NC3 2762   0.427   6.782   5.065  0.0258 -0.1920 -0.0184
  195POPC   PO4 2763   0.883   6.896   5.095  0.0274 -0.1189  0.0803
  195POPC   GL1 2764   0.768   6.860   5.525 -0.2008 -0.1665 -0.1498
  195POPC   GL2 2765   0.986   7.126   5.618 -0.0414 -0.0439 -0.0551
  195POPC   C1A 2766   0.580   7.004   5.894 -0.0696 -0.0693  0.2654
  195POPC   D2A 2767   0.696   7.148   6.318 -0.3924 -0.0982  0.0517
  195POPC   C3A 2768   0.799   7.534   6.444 -0.1757  0.0047 -0.1100
  195POPC   C4A 2769   1.081   7.857   6.331  0.2686  0.1811  0.0302
  195POPC   C1B 2770   1.449   7.058   5.803 -0.4764  0.2282 -0.1829
  195POPC   C2B 2771   1.799   7.167   5.969 -0.1731 -0.1737  0.1072
  195POPC   C3B 2772   2.107   7.542   6.066 -0.0995 -0.2852  0.0269
  195POPC   C4B 2773   2.019   7.827   6.423  0.1067  0.4226 -0.1292
  196POPC   NC3 2774   4.757   1.749   4.319 -0.0757 -0.0447  0.1377
  196POPC   PO4 2775   5.193   1.473   4.287  0.1317 -0.0710  0.1357
  196POPC   GL1 2776   5.244   1.061   4.576 -0.2115 -0.0782  0.2521
  196POPC   GL2 2777   5.457   1.097   4.789 -0.2626 -0.0407  0.2938
  196POPC   C1A 2778   5.015   0.731   4.815  0.1737  0.0825 -0.0865
  196POPC   D2A 2779   4.852   0.517   5.115  0.0159 -0.0600  0.1905
  196POPC   C3A 2780   4.468   0.498   5.357  0.2277  0.0900  0.1867
  196POPC   C4A 2781   4.190   0.314   5.598  0.5369 -0.3882  0.4226
  196POPC   C1B 2782   5.364   0.935   5.209  0.2500 -0.0072  0.2645
  196POPC   C2B 2783   5.411   0.843   5.650  0.0679  0.0061 -0.3725
  196POPC   C3B 2784   5.617   1.015   5.913 -0.5707  0.5692 -0.3201
  196POPC   C4B 2785   6.001   1.165   5.866  0.1508 -0.2580 -0.0685
  197POPC   NC3 2786   8.770   4.305   4.841  0.2075 -0.0773  0.0158
  197POPC   PO4 2787   8.508   4.765   4.748  0.1337  0.3386 -0.1180
  197POPC   GL1 2788   8.495   5.114   4.994  0.5406  0.4380  0.2839
  197POPC   GL2 2789   8.148   5.346   5.094 -0.1072  0.2707 -0.0830
  197POPC   C1A 2790   8.497   5.081   5.346 -0.4140 -0.1342  0.1940
  197POPC   D2A 2791   8.484   4.836   5.867  0.2426  0.0747 -0.1209
  197POPC   C3A 2792   8.590   4.630   6.333  0.4936  0.1187 -0.0090
  197POPC   C4A 2793   8.500   4.773   6.723  0.0356 -0.1201 -0.1178
  197POPC   C1B 2794   8.029   5.161   5.496 -0.0618  0.1331 -0.0987
  197POPC   C2B 2795   8.070   5.140   5.930 -0.1078 -0.1284  0.1297
  197POPC   C3B 2796   7.755   5.128   6.277 -0.2043 -0.0875  0.2394
  197POPC   C4B 2797   7.492   5.019   6.627 -0.3569 -0.1496 -0.0558
  198POPC   NC3 2798   4.597   5.768   3.476  0.3204 -0.0327 -0.0031
  198POPC   PO4 2799   4.226   5.850   3.636  0.2473  0.0403 -0.1405
  198POPC   GL1 2800   4.143   6.011   4.021 -0.4794  0.0689 -0.2945
  198POPC   GL2 2801   4.145   5.846   4.362 -0.0093 -0.0379 -0.1478
  198POPC   C1A 2802   4.288   6.307   4.429  0.0815  0.1315 -0.2105
  198POPC   D2A 2803   4.405   6.463   4.698  0.4374 -0.1177 -0.2033
  198POPC   C3A 2804   4.470   6.909   4.717  0.0560  0.2578  0.1951
  198POPC   C4A 2805   4.292   7.234   4.864 -0.2072  0.0002  0.1942
  198POPC   C1B 2806   4.097   6.002   4.828 -0.3111  0.0034 -0.0927
  198POPC   C2B 2807   4.276   6.226   5.184  0.2243  0.4057 -0.0497
  198POPC   C3B 2808   4.440   6.579   5.276 -0.0985  0.0060 -0.0544
  198POPC   C4B 2809   4.437   7.042   5.391 -0.2856 -0.1407 -0.3359
  199POPC   NC3 2810   1.965   0.692   4.353  0.0030  0.1317  0.0315
  199POPC   PO4 2811   1.430   0.677   4.338  0.1431 -0.1646 -0.1438
  199POPC   GL1 2812   1.362   0.730   4.788 -0.1271 -0.2513 -0.1554
  199POPC   GL2 2813   0.990   0.890   5.005  0.0997  0.0781  0.0965
  199POPC   C1A 2814   1.331   0.498   5.154  0.2857  0.2110  0.0434
  199POPC   D2A 2815   1.399   0.669   5.533 -0.3629 -0.3500 -0.1012
  199POPC   C3A 2816   1.813   0.748   5.618 -0.1372 -0.1414  0.1508
  199POPC   C4A 2817   1.881   1.078   5.628  0.1373 -0.2752 -0.0448
  199POPC   C1B 2818   0.891   0.865   5.419  0.4855 -0.0726 -0.0380
  199POPC   C2B 2819   0.971   0.905   5.821  0.0495 -0.0292 -0.2036
  199POPC   C3B 2820   0.640   1.135   6.084 -0.0546  0.1140  0.0710
  199POPC   C4B 2821   0.364   1.271   6.321  0.2047  0.2042  0.1139
  200POPC   NC3 2822   8.048   4.603   4.557 -0.1824 -0.2708  0.2282
  200POPC   PO4 2823   8.194   4.279   4.796 -0.3836 -0.0798  0.1109
  200POPC   GL1 2824   8.392   4.260   5.239  0.0914  0.3722  0.0442
  200POPC   GL2 2825   8.577   4.567   5.319 -0.1502 -0.2351  0.1967
  200POPC   C1A 2826   8.314   4.184   5.754 -0.4794 -0.1420 -0.0662
  200POPC   D2A 2827   8.167   4.456   6.030 -0.1370  0.3753  0.3656
  200POPC   C3A 2828   7.786   4.714   6.010 -0.1335 -0.0921 -0.0233
  200POPC   C4A 2829   7.336   4.819   6.153 -0.0477  0.2627 -0.2527
  200POPC   C1B 2830   8.140   4.709   5.538 -0.0957 -0.0470 -0.3705
  200POPC   C2B 2831   7.758   4.369   5.637 -0.2399  0.0649  0.1131
  200POPC   C3B 2832   7.794   4.139   6.084 -0.0588  0.0408  0.0114
  200POPC   C4B 2833   7.951   3.905   6.381 -0.0880 -0.0984 -0.0331
  201POPC   NC3 2834   4.348   0.632   3.280  0.0038 -0.2915 -0.3452
  201POPC   PO4 2835   4.845   0.647   3.221 -0.0453 -0.2845 -0.2488
  201POPC   GL1 2836   4.846   0.319   3.571  0.1018 -0.0066  0.0362
  201POPC   GL2 2837   4.556   0.032   3.603  0.0844 -0.2011  0.0200
  201POPC   C1A 2838   4.659   0.392   3.930 -0.0474 -0.2945 -0.2361
  201POPC   D2A 2839   4.790   0.550   4.373  0.2190  0.0830 -0.0031
  201POPC   C3A 2840   4.900   0.237   4.501  0.1630  0.3041 -0.1875
  201POPC   C4A 2841   4.817   0.016   4.862  0.1560 -0.1039 -0.0468
  201POPC   C1B 2842   4.595  -0.349   3.726  0.0808  0.2189 -0.1385
  201POPC   C2B 2843   4.537  -0.791   3.641 -0.2029 -0.1396  0.1118
  201POPC   C3B 2844   4.692  -1.163   3.926 -0.2082  0.1349  0.1587
  201POPC   C4B 2845   4.420  -1.468   4.111  0.0538 -0.1885  0.1998
  202POPC   NC3 2846   4.343   0.940   4.264  0.1756 -0.0553  0.0228
  202POPC   PO4 2847   4.417   1.391   4.251  0.2828 -0.1186 -0.0774
  202POPC   GL1 2848   4.419   1.124   4.691 -0.1751  0.0887  0.3344
  202POPC   GL2 2849   4.218   1.235   4.897 -0.1470  0.0052  0.0290
  202POPC   C1A 2850   4.718   1.058   5.072  0.1547  0.0308 -0.0424
  202POPC   D2A 2851   4.921   0.900   5.411  0.0491 -0.0307 -0.1581
  202POPC   C3A 2852   4.793   0.555   5.755 -0.2024 -0.0478  0.0586
  202POPC   C4A 2853   5.123   0.240   5.961 -0.1722 -0.1081 -0.0428
  202POPC   C1B 2854   4.250   1.024   5.240 -0.0347  0.0243  0.1638
  202POPC   C2B 2855   4.238   1.208   5.583  0.1055  0.1269  0.2547
  202POPC   C3B 2856   4.262   1.574   5.807  0.1164 -0.0118 -0.1535
  202POPC   C4B 2857   4.168   1.786   6.178  0.1439 -0.1682  0.3370
  203POPC   NC3 2858   9.573   1.746   4.151 -0.1024 -0.3402 -0.2500
  203POPC   PO4 2859   9.465   1.764   4.694  0.0356  0.0631 -0.0852
  203POPC   GL1 2860   9.568   1.643   5.196 -0.2437 -0.0252  0.1245
  203POPC   GL2 2861   9.693   1.891   5.448 -0.3674  0.0002 -0.3024
  203POPC   C1A 2862   9.775   1.453   5.605 -0.1514 -0.3540  0.1410
  203POPC   D2A 2863   9.695   1.402   6.037 -0.0603  0.1368  0.2669
  203POPC   C3A 2864   9.936   1.698   6.336 -0.0871 -0.0775 -0.0292
  203POPC   C4A 2865  10.122   2.010   6.381 -0.4616 -0.0850  0.2878
  203POPC   C1B 2866   9.526   1.874   5.836 -0.3754 -0.0238 -0.3383
  203POPC   C2B 2867   9.116   1.862   6.081  0.0585  0.3477  0.3245
  203POPC   C3B 2868   8.956   1.913   6.502 -0.1394  0.0992 -0.0949
  203POPC   C4B 2869   8.845   1.826   6.840  0.3438 -0.2883 -0.1562
  204POPC   NC3 2870   9.743   9.551   4.768 -0.1311  0.0540 -0.0480
  204POPC   PO4 2871   9.986   9.894   4.975 -0.0480 -0.0689 -0.0817
  204POPC   GL1 2872   9.973   9.622   5.257  0.2703  0.2175 -0.4060
  204POPC   GL2 2873  10.061   9.343   5.181  0.1063  0.0065 -0.1600
  204POPC   C1A 2874   9.765   9.538   5.630 -0.2178  0.1893  0.2937
  204POPC   D2A 2875   9.753   9.371   6.053  0.0891 -0.2441 -0.5261
  204POPC   C3A 2876   9.362   9.555   6.265 -0.0110  0.1524  0.0844
  204POPC   C4A 2877   9.013   9.452   6.447  0.1063 -0.0641  0.0011
  204POPC   C1B 2878   9.930   9.051   5.633 -0.3686  0.2987 -0.3826
  204POPC   C2B 2879   9.666   8.848   5.878  0.0429 -0.3581 -0.3383
  204POPC   C3B 2880   9.662   8.868   6.349  0.1371 -0.1670 -0.0226
  204POPC   C4B 2881   9.829   8.947   6.745 -0.1865  0.2501  0.2333
  205POPC   NC3 2882   8.489   7.653   4.731 -0.1154  0.1579 -0.0256
  205POPC   PO4 2883   8.234   7.340   4.556  0.0808  0.0592  0.3469
  205POPC   GL1 2884   7.917   7.292   4.869  0.3888  0.0212 -0.0752
  205POPC   GL2 2885   8.158   7.169   5.045  0.0414 -0.2171 -0.0589
  205POPC   C1A 2886   7.485   7.212   4.955 -0.0458  0.1299  0.1829
  205POPC   D2A 2887   7.100   7.254   5.301  0.1119 -0.0547  0.2891
  205POPC   C3A 2888   6.966   6.995   5.586  0.2319  0.0643 -0.0679
  205POPC   C4A 2889   6.923   6.899   5.974  0.3391  0.2054 -0.0073
  205POPC   C1B 2890   8.152   7.471   5.362 -0.0348 -0.1243 -0.1033
  205POPC   C2B 2891   7.959   7.550   5.670  0.0312  0.0041 -0.0382
  205POPC   C3B 2892   8.057   7.682   6.055 -0.1315 -0.0303  0.0849
  205POPC   C4B 2893   8.423   7.466   6.262 -0.3547  0.2317 -0.0797
  206POPC   NC3 2894   3.128   1.614   4.431 -0.0881  0.1148 -0.0134
  206POPC   PO4 2895   3.439   1.596   4.562 -0.1667  0.1932 -0.2917
  206POPC   GL1 2896   3.490   1.607   5.005  0.2097  0.1927  0.0072
  206POPC   GL2 2897   3.637   1.320   5.132 -0.3888  0.1519  0.0425
  206POPC   C1A 2898   3.590   1.808   5.300 -0.1157  0.0416  0.1392
  206POPC   D2A 2899   3.390   2.210   5.253  0.2279 -0.0017 -0.1394
  206POPC   C3A 2900   3.268   2.421   5.644 -0.1473  0.1212 -0.0127
  206POPC   C4A 2901   3.216   2.364   6.058 -0.3982  0.2456 -0.1613
  206POPC   C1B 2902   3.504   0.970   5.229 -0.0245  0.1007 -0.0436
  206POPC   C2B 2903   3.439   0.799   5.733 -0.0892  0.1924  0.3933
  206POPC   C3B 2904   3.602   0.932   6.197 -0.1122 -0.1849  0.1601
  206POPC   C4B 2905   3.698   1.206   6.514  0.2962  0.2066 -0.0255
  207POPC   NC3 2906   1.299   7.933   4.407 -0.1386  0.2713 -0.0405
  207POPC   PO4 2907   0.973   8.026   4.786 -0.2067  0.0086 -0.0907
  207POPC   GL1 2908   0.942   7.757   5.139  0.2018 -0.0539  0.2123
  207POPC   GL2 2909   0.910   8.053   5.306 -0.1799 -0.1314 -0.1417
  207POPC   C1A 2910   0.845   7.608   5.555  0.1190  0.0960  0.0375
  207POPC   D2A 2911   0.991   7.446   5.936  0.0857  0.1607  0.5677
  207POPC   C3A 2912   1.016   6.905   6.086  0.2679 -0.3168 -0.1882
  207POPC   C4A 2913   0.845   6.484   6.094 -0.1951 -0.0013 -0.1515
  207POPC   C1B 2914   1.072   8.006   5.725  0.0671 -0.0771  0.2307
  207POPC   C2B 2915   1.345   8.065   5.995 -0.1134 -0.0543 -0.1182
  207POPC   C3B 2916   1.758   8.191   6.204  0.1536 -0.1507  0.3458
  207POPC   C4B 2917   1.763   8.547   6.433 -0.1649 -0.2437  0.1925
  208POPC   NC3 2918   6.494   6.130   3.540  0.1379  0.1363  0.1434
  208POPC   PO4 2919   6.047   6.026   3.499 -0.3008  0.1818 -0.1068
  208POPC   GL1 2920   6.219   6.255   3.914 -0.0048  0.2238  0.4178
  208POPC   GL2 2921   5.985   6.239   4.171  0.2272 -0.0434  0.0251
  208POPC   C1A 2922   6.435   6.565   4.013  0.0163 -0.2885  0.2559
  208POPC   D2A 2923   6.905   6.629   3.910  0.4043 -0.1541  0.1397
  208POPC   C3A 2924   6.938   7.094   3.998  0.2537 -0.1684  0.1196
  208POPC   C4A 2925   6.929   7.361   4.367 -0.2418 -0.1597 -0.1021
  208POPC   C1B 2926   5.905   6.111   4.488 -0.1456  0.1145 -0.1734
  208POPC   C2B 2927   5.711   6.137   4.900  0.0490  0.0770 -0.0693
  208POPC   C3B 2928   5.839   6.337   5.341  0.1220  0.0555 -0.3136
  208POPC   C4B 2929   6.014   6.271   5.795  0.1556 -0.0447  0.2615
  209POPC   NC3 2930   6.901   4.102   5.265  0.1137  0.0791  0.0498
  209POPC   PO4 2931   6.555   4.014   4.960 -0.1105  0.1958  0.2001
  209POPC   GL1 2932   6.558   3.749   5.275 -0.2267  0.0368 -0.0047
  209POPC   GL2 2933   6.390   3.462   5.194  0.2389  0.1736  0.1189
  209POPC   C1A 2934   6.444   3.815   5.675 -0.1299 -0.1164  0.0580
  209POPC   D2A 2935   6.505   3.896   6.103  0.1929  0.1744 -0.0890
  209POPC   C3A 2936   6.843   3.622   6.235 -0.2208  0.1335  0.2267
  209POPC   C4A 2937   6.782   3.256   6.509 -0.1313  0.1118  0.1676
  209POPC   C1B 2938   6.423   3.353   5.600  0.0746 -0.1693 -0.1119
  209POPC   C2B 2939   6.557   3.132   5.997  0.0704 -0.2590 -0.0495
  209POPC   C3B 2940   6.688   2.792   6.146 -0.2884  0.1429 -0.1073
  209POPC   C4B 2941   6.617   2.404   6.170 -0.1096  0.1984  0.2302
  210POPC   NC3 2942   8.604   0.283   5.256 -0.0240  0.1747 -0.0672
  210POPC   PO4 2943   8.247   0.399   4.982  0.0558 -0.1519  0.2322
  210POPC   GL1 2944   8.040   0.150   5.221 -0.0831  0.2436 -0.3298
  210POPC   GL2 2945   8.137   0.347   5.464 -0.1712 -0.0357 -0.2142
  210POPC   C1A 2946   7.947  -0.098   5.564  0.0221 -0.3126 -0.0891
  210POPC   D2A 2947   8.045  -0.434   5.765  0.2646 -0.0983  0.0196
  210POPC   C3A 2948   8.420  -0.525   5.952  0.3198  0.2188 -0.3083
  210POPC   C4A 2949   8.517  -0.760   6.241 -0.0006 -0.2480  0.0616
  210POPC   C1B 2950   8.051   0.266   5.901  0.0631 -0.0563 -0.2162
  210POPC   C2B 2951   7.871  -0.010   6.169 -0.3440  0.0543  0.2681
  210POPC   C3B 2952   7.657  -0.134   6.602 -0.1259 -0.1931  0.0375
  210POPC   C4B 2953   7.705  -0.342   7.050  0.2452 -0.1092 -0.0470
  211POPC   NC3 2954   8.470   1.637   4.720  0.1141  0.0770 -0.2887
  211POPC   PO4 2955   8.881   1.381   5.000  0.0844 -0.4026 -0.0288
  211POPC   GL1 2956   8.491   1.305   5.225 -0.1745  0.1185 -0.0657
  211POPC   GL2 2957   8.336   1.403   5.517 -0.1399  0.2042  0.0468
  211POPC   C1A 2958   8.275   0.897   5.474 -0.0571 -0.2830  0.0705
  211POPC   D2A 2959   7.820   0.705   5.653 -0.2643  0.0695  0.4028
  211POPC   C3A 2960   7.824   0.752   6.055  0.0001  0.1773 -0.1336
  211POPC   C4A 2961   7.651   0.417   6.272  0.2997  0.1075  0.0300
  211POPC   C1B 2962   7.836   1.350   5.666 -0.0792  0.1429 -0.0433
  211POPC   C2B 2963   7.555   1.174   5.898 -0.1561 -0.1812 -0.1394
  211POPC   C3B 2964   7.325   0.875   6.128 -0.1567  0.0837  0.0757
  211POPC   C4B 2965   7.134   0.764   6.570  0.1622  0.1043 -0.2801
  212POPC   NC3 2966   1.677   6.858   4.486  0.1170 -0.0649 -0.1171
  212POPC   PO4 2967   1.768   6.698   4.892  0.1721  0.0817  0.1221
  212POPC   GL1 2968   2.160   6.697   5.086  0.2123  0.1687 -0.0962
  212POPC   GL2 2969   2.067   6.954   5.257  0.0539  0.0092 -0.2863
  212POPC   C1A 2970   2.501   6.589   5.409  0.0412 -0.1596  0.1027
  212POPC   D2A 2971   2.747   6.819   5.768  0.0622  0.0055 -0.1627
  212POPC   C3A 2972   2.720   6.954   6.254 -0.0967 -0.1692  0.2370
  212POPC   C4A 2973   2.870   6.868   6.704  0.0590 -0.1440 -0.0925
  212POPC   C1B 2974   1.984   6.797   5.728 -0.6125  0.2195  0.1673
  212POPC   C2B 2975   2.229   6.613   5.973 -0.0247 -0.0206  0.0798
  212POPC   C3B 2976   2.318   6.099   6.179 -0.0204  0.1910  0.1581
  212POPC   C4B 2977   2.464   5.633   6.419 -0.3087  0.0703  0.3395
  213POPC   NC3 2978   6.792   5.578   3.997 -0.1111 -0.1917 -0.3026
  213POPC   PO4 2979   6.540   5.469   4.445  0.1198  0.0811  0.0264
  213POPC   GL1 2980   6.642   5.406   4.889 -0.2711 -0.1632 -0.0810
  213POPC   GL2 2981   6.747   5.117   5.031 -0.0195  0.2620 -0.5105
  213POPC   C1A 2982   6.664   5.746   5.199 -0.0699 -0.1710 -0.1644
  213POPC   D2A 2983   6.765   5.969   5.608 -0.2116  0.1939 -0.2680
  213POPC   C3A 2984   6.941   5.910   6.070  0.2150 -0.1221  0.0788
  213POPC   C4A 2985   7.049   5.674   6.455 -0.2895  0.0869  0.2474
  213POPC   C1B 2986   6.532   5.350   5.407  0.2439 -0.2538  0.1884
  213POPC   C2B 2987   6.642   5.412   5.858 -0.3520  0.1567 -0.2841
  213POPC   C3B 2988   6.637   5.466   6.346  0.2551 -0.0425 -0.2535
  213POPC   C4B 2989   6.340   5.449   6.502 -0.0115 -0.2015 -0.1514
  214POPC   NC3 2990   1.925   2.042   4.632  0.0293 -0.2439 -0.2629
  214POPC   PO4 2991   2.397   2.037   4.733  0.3102 -0.2169 -0.0046
  214POPC   GL1 2992   2.353   2.121   5.190 -0.1790 -0.0098 -0.0951
  214POPC   GL2 2993   2.533   2.433   5.240  0.3261 -0.1121 -0.1877
  214POPC   C1A 2994   2.109   2.020   5.564 -0.0132  0.0023  0.0759
  214POPC   D2A 2995   1.944   1.825   6.004 -0.0391  0.0285 -0.0234
  214POPC   C3A 2996   2.065   1.382   6.143  0.2307 -0.0971 -0.1206
  214POPC   C4A 2997   2.082   0.958   6.167 -0.0868 -0.2666  0.1117
  214POPC   C1B 2998   2.791   2.183   5.525  0.2713  0.0382 -0.0276
  214POPC   C2B 2999   3.093   1.950   5.657  0.0357 -0.0305 -0.3171
  214POPC   C3B 3000   3.478   1.756   5.910 -0.0840 -0.0146 -0.1409
  214POPC   C4B 3001   3.646   1.623   6.290  0.3590 -0.0866 -0.0459
  215POPC   NC3 3002   1.217   6.471   4.914 -0.2076 -0.1678  0.2125
  215POPC   PO4 3003   0.911   6.220   4.706 -0.1317 -0.3464 -0.1271
  215POPC   GL1 3004   0.796   6.328   5.219  0.2338  0.1516  0.2171
  215POPC   GL2 3005   1.049   6.422   5.391 -0.1203  0.2004 -0.2391
  215POPC   C1A 3006   0.597   6.386   5.635 -0.1125  0.1076 -0.2574
  215POPC   D2A 3007   0.346   6.461   5.964 -0.2760 -0.2827 -0.0337
  215POPC   C3A 3008   0.420   6.292   6.365 -0.1630  0.0576  0.0073
  215POPC   C4A 3009   0.621   5.805   6.423 -0.0790  0.0324  0.4242
  215POPC   C1B 3010   1.337   6.587   5.717  0.1769  0.0798 -0.1563
  215POPC   C2B 3011   1.574   6.637   6.134  0.2517 -0.3036  0.3321
  215POPC   C3B 3012   1.632   6.918   6.397  0.1104  0.1372  0.2751
  215POPC   C4B 3013   1.699   7.328   6.511  0.0203  0.0375 -0.1058
  216POPC   NC3 3014   9.003   7.001   4.342  0.1150 -0.1184  0.3236
  216POPC   PO4 3015   9.218   6.649   4.150  0.1710  0.4067  0.0699
  216POPC   GL1 3016   9.275   6.623   4.658  0.0262 -0.0915 -0.1932
  216POPC   GL2 3017   8.950   6.629   4.825 -0.1254 -0.3462 -0.2232
  216POPC   C1A 3018   9.385   6.546   5.137 -0.0547 -0.4321  0.1223
  216POPC   D2A 3019   9.462   6.519   5.583  0.2680  0.1145  0.0246
  216POPC   C3A 3020   9.373   6.778   5.982  0.0449  0.1384 -0.0326
  216POPC   C4A 3021   9.207   6.755   6.416 -0.2061  0.0372  0.0744
  216POPC   C1B 3022   8.656   6.625   5.067  0.3175  0.2985 -0.0664
  216POPC   C2B 3023   8.547   6.570   5.558  0.0218 -0.0241  0.1960
  216POPC   C3B 3024   8.334   6.606   5.931  0.0018 -0.1331  0.0207
  216POPC   C4B 3025   7.957   6.679   6.218 -0.3018 -0.1386 -0.0002
  217POPC   NC3 3026   4.165   1.288   3.783  0.1220 -0.3744  0.2803
  217POPC   PO4 3027   3.910   0.990   4.063 -0.0588  0.1072 -0.1525
  217POPC   GL1 3028   3.852   0.671   4.420 -0.0690 -0.1451 -0.1912
  217POPC   GL2 3029   4.072   0.786   4.633 -0.1348  0.1710  0.1854
  217POPC   C1A 3030   3.880   0.305   4.616  0.3844  0.1295 -0.0116
  217POPC   D2A 3031   3.940   0.167   5.046  0.1276  0.0774  0.2585
  217POPC   C3A 3032   3.942  -0.245   5.223 -0.0603  0.0843  0.3533
  217POPC   C4A 3033   3.737  -0.512   5.554 -0.1171  0.2848 -0.2273
  217POPC   C1B 3034   4.381   0.664   4.873  0.0640 -0.0759  0.3177
  217POPC   C2B 3035   4.479   0.355   4.816  0.0213  0.1306 -0.0320
  217POPC   C3B 3036   4.419  -0.034   5.204 -0.1433  0.0345  0.2011
  217POPC   C4B 3037   4.316  -0.249   5.576  0.1272 -0.0761 -0.0677
  218POPC   NC3 3038   9.310   4.010   5.212  0.0123 -0.1424  0.0454
  218POPC   PO4 3039   9.264   3.606   5.182 -0.3078  0.2762 -0.0175
  218POPC   GL1 3040   9.322   3.721   5.614  0.0676 -0.0622  0.0800
  218POPC   GL2 3041   9.640   3.755   5.780  0.2484 -0.1172  0.1716
  218POPC   C1A 3042   9.333   3.464   5.961  0.2566  0.2505 -0.1976
  218POPC   D2A 3043   9.486   3.132   6.253 -0.0017 -0.0821  0.0839
  218POPC   C3A 3044   9.807   2.699   6.276  0.0670  0.1377 -0.2070
  218POPC   C4A 3045   9.862   2.437   6.618  0.0674  0.1529 -0.4147
  218POPC   C1B 3046   9.899   3.420   6.050  0.3327 -0.0751  0.2253
  218POPC   C2B 3047  10.056   3.089   6.142  0.2791 -0.1234  0.0250
  218POPC   C3B 3048  10.205   2.958   6.488  0.0093  0.1002  0.2145
  218POPC   C4B 3049  10.250   2.736   6.769  0.1143  0.1349  0.1526
  219POPC   NC3 3050   1.072   5.745   4.705 -0.2735  0.2670 -0.0738
  219POPC   PO4 3051   0.964   5.310   4.682 -0.0409 -0.0286  0.3699
  219POPC   GL1 3052   0.929   5.277   5.166  0.0293  0.0025 -0.0991
  219POPC   GL2 3053   1.278   5.222   5.393  0.0513  0.1201  0.0910
  219POPC   C1A 3054   0.817   5.463   5.537  0.2296  0.2475 -0.3348
  219POPC   D2A 3055   0.551   5.372   5.753  0.0576 -0.1110  0.0440
  219POPC   C3A 3056   0.611   5.381   6.172 -0.0883 -0.0222  0.0847
  219POPC   C4A 3057   0.508   5.260   6.662 -0.1412  0.0833  0.1114
  219POPC   C1B 3058   1.306   5.573   5.715  0.0360 -0.0562  0.4005
  219POPC   C2B 3059   1.496   5.719   6.143  0.1580  0.0874 -0.1345
  219POPC   C3B 3060   1.554   5.465   6.495 -0.0080 -0.2363 -0.3085
  219POPC   C4B 3061   2.047   5.455   6.652  0.0340 -0.0784 -0.2481
  220POPC   NC3 3062   3.304   2.041   4.787 -0.4554  0.0018 -0.0254
  220POPC   PO4 3063   3.686   2.143   4.674 -0.2444  0.0422 -0.1652
  220POPC   GL1 3064   3.912   2.056   5.062 -0.1062 -0.0882 -0.1584
  220POPC   GL2 3065   4.162   1.967   4.975  0.1493 -0.0012 -0.2278
  220POPC   C1A 3066   3.985   2.084   5.530  0.0428 -0.0047  0.0422
  220POPC   D2A 3067   3.746   2.165   5.893  0.3138 -0.0875  0.1488
  220POPC   C3A 3068   3.706   2.165   6.300 -0.1520  0.0096 -0.0614
  220POPC   C4A 3069   3.532   2.037   6.619 -0.0020 -0.1151  0.0878
  220POPC   C1B 3070   3.987   1.608   5.337 -0.1173 -0.2747  0.0188
  220POPC   C2B 3071   3.776   1.245   5.607 -0.2921 -0.1033 -0.1813
  220POPC   C3B 3072   3.910   1.234   6.001  0.0435  0.0842  0.2377
  220POPC   C4B 3073   4.327   1.305   6.196 -0.1082 -0.2544 -0.4574
  221POPC   NC3 3074   5.823   5.784   3.868  0.3027  0.2740 -0.0721
  221POPC   PO4 3075   5.724   5.534   4.194 -0.1958  0.0748  0.2651
  221POPC   GL1 3076   5.522   5.943   4.220 -0.1988 -0.0751  0.3699
  221POPC   GL2 3077   5.129   5.966   4.281 -0.2896 -0.1114 -0.1339
  221POPC   C1A 3078   5.403   6.352   4.592 -0.0769 -0.0321  0.0228
  221POPC   D2A 3079   5.350   6.470   5.051  0.1610  0.3092 -0.2249
  221POPC   C3A 3080   5.142   6.635   5.345  0.4219 -0.1433  0.0505
  221POPC   C4A 3081   4.839   6.657   5.641 -0.1698  0.1126  0.0433
  221POPC   C1B 3082   5.234   5.899   4.708  0.0530  0.1168 -0.2245
  221POPC   C2B 3083   5.241   5.985   5.078  0.0956  0.0780 -0.1261
  221POPC   C3B 3084   5.502   5.941   5.424  0.0375 -0.1446  0.1521
  221POPC   C4B 3085   5.836   5.830   5.795  0.1894 -0.1134  0.0120
  222POPC   NC3 3086   2.894   0.214   4.300 -0.2853 -0.2220 -0.1156
  222POPC   PO4 3087   2.950   0.665   4.277 -0.0649  0.2047  0.2218
  222POPC   GL1 3088   2.961   0.537   4.695  0.0945  0.0413  0.2498
  222POPC   GL2 3089   2.698   0.411   4.926 -0.0319  0.1241  0.1098
  222POPC   C1A 3090   3.128   0.589   5.142 -0.0254  0.3452  0.3187
  222POPC   D2A 3091   3.139   0.395   5.639  0.1456  0.3514  0.4008
  222POPC   C3A 3092   3.437   0.150   5.903 -0.2092  0.1647 -0.1426
  222POPC   C4A 3093   3.836  -0.021   5.700  0.1869 -0.4232 -0.1468
  222POPC   C1B 3094   2.667   0.407   5.382  0.1624 -0.3532  0.0047
  222POPC   C2B 3095   2.606   0.265   5.838 -0.2423  0.3003 -0.0414
  222POPC   C3B 3096   2.791   0.262   6.259  0.2279 -0.0554  0.0119
  222POPC   C4B 3097   3.094   0.017   6.225  0.2205  0.1146 -0.2911
  223POPC   NC3 3098   5.657   6.323   2.993  0.0395 -0.1935  0.0261
  223POPC   PO4 3099   5.201   6.150   3.199 -0.1291  0.0151 -0.1171
  223POPC   GL1 3100   5.364   6.363   3.653  0.0346  0.3133 -0.1151
  223POPC   GL2 3101   5.664   6.258   3.737  0.1498 -0.2249 -0.0723
  223POPC   C1A 3102   5.481   6.785   3.657  0.2111  0.0833 -0.3513
  223POPC   D2A 3103   5.456   7.247   3.395 -0.1487 -0.1955  0.0774
  223POPC   C3A 3104   5.795   7.555   3.598  0.2096 -0.1505 -0.3793
  223POPC   C4A 3105   6.073   7.815   3.633 -0.1195  0.3402 -0.3515
  223POPC   C1B 3106   5.542   6.426   4.115  0.1665  0.1601  0.0491
  223POPC   C2B 3107   5.403   6.787   4.337  0.0657  0.0325 -0.2179
  223POPC   C3B 3108   5.373   7.209   4.461  0.0042 -0.2192  0.3024
  223POPC   C4B 3109   5.402   7.652   4.574 -0.0241  0.0040 -0.1279
  224POPC   NC3 3110   3.710   9.702   3.121  0.1339  0.2110  0.0657
  224POPC   PO4 3111   3.965   9.339   3.222  0.1634  0.2392 -0.0726
  224POPC   GL1 3112   3.986   9.371   3.687 -0.0245  0.2020 -0.2065
  224POPC   GL2 3113   3.801   9.636   3.699 -0.0988 -0.2522  0.0908
  224POPC   C1A 3114   4.263   9.288   4.016  0.0602 -0.1252  0.0865
  224POPC   D2A 3115   4.689   9.253   4.124 -0.2869  0.1075 -0.0672
  224POPC   C3A 3116   4.792   8.855   4.474  0.0708  0.0946 -0.1629
  224POPC   C4A 3117   4.989   8.525   4.542 -0.2218 -0.2602 -0.0351
  224POPC   C1B 3118   4.206   9.763   3.895  0.0001 -0.2134 -0.1342
  224POPC   C2B 3119   4.612   9.769   4.219 -0.1631  0.3316  0.0739
  224POPC   C3B 3120   4.716   9.550   4.503 -0.0035  0.0708  0.2226
  224POPC   C4B 3121   5.105   9.606   4.571 -0.1669  0.2647  0.2947
  225POPC   NC3 3122   9.426   7.042   4.011  0.1092  0.1135  0.3795
  225POPC   PO4 3123   9.416   7.188   4.517  0.0959  0.0229  0.3215
  225POPC   GL1 3124   9.497   7.029   4.901  0.0856 -0.1566 -0.2103
  225POPC   GL2 3125   9.717   6.774   4.893  0.1542 -0.0683 -0.1805
  225POPC   C1A 3126   9.136   6.989   5.170  0.0832 -0.2146  0.2118
  225POPC   D2A 3127   8.964   6.803   5.462 -0.0090 -0.2451  0.1793
  225POPC   C3A 3128   8.724   6.903   5.889 -0.1640 -0.1995 -0.1449
  225POPC   C4A 3129   8.407   6.958   6.275 -0.1534  0.2691 -0.3308
  225POPC   C1B 3130   9.754   6.849   5.309  0.1025  0.3920 -0.0651
  225POPC   C2B 3131   9.877   6.842   5.704 -0.0137  0.1253 -0.0826
  225POPC   C3B 3132   9.977   7.067   6.093  0.1141  0.0827 -0.2967
  225POPC   C4B 3133  10.004   7.269   6.429 -0.0622  0.2002  0.2491
  226POPC   NC3 3134   9.143   1.791   5.105 -0.2837 -0.0744 -0.1174
  226POPC   PO4 3135   9.294   2.162   5.304 -0.1530  0.0335 -0.3788
  226POPC   GL1 3136   9.163   2.294   5.726 -0.0445 -0.1511  0.0689
  226POPC   GL2 3137   8.880   2.442   5.828  0.1423  0.1213  0.1611
  226POPC   C1A 3138   9.420   2.478   6.056 -0.1182 -0.4664 -0.1388
  226POPC   D2A 3139   9.282   2.657   6.511  0.4627 -0.0428  0.0439
  226POPC   C3A 3140   9.481   2.679   6.866  0.1231  0.0451 -0.1305
  226POPC   C4A 3141   9.852   2.824   7.087  0.2783 -0.0238  0.4696
  226POPC   C1B 3142   8.965   2.347   6.275 -0.0413 -0.1635  0.1957
  226POPC   C2B 3143   8.711   2.305   6.551 -0.0179  0.0801  0.2254
  226POPC   C3B 3144   8.533   2.583   6.863 -0.1538  0.0864  0.1276
  226POPC   C4B 3145   8.438   2.687   7.270  0.1615  0.2448 -0.0963
  227POPC   NC3 3146   3.010   5.421   4.288  0.1351  0.2024 -0.1244
  227POPC   PO4 3147   3.199   5.816   4.062 -0.1695  0.2097 -0.0025
  227POPC   GL1 3148   3.413   5.824   4.446 -0.0181 -0.2573  0.2841
  227POPC   GL2 3149   3.445   5.629   4.770 -0.2512 -0.0295  0.0031
  227POPC   C1A 3150   3.785   6.172   4.478 -0.0822 -0.0143  0.0415
  227POPC   D2A 3151   3.909   6.600   4.614 -0.1673 -0.0268 -0.2788
  227POPC   C3A 3152   3.793   7.068   4.768  0.1603  0.0118  0.2405
  227POPC   C4A 3153   3.738   7.432   4.412 -0.2100 -0.4332  0.1045
  227POPC   C1B 3154   3.675   5.749   5.007 -0.0546 -0.1312  0.0265
  227POPC   C2B 3155   3.484   5.866   5.416 -0.1415  0.1660 -0.3079
  227POPC   C3B 3156   3.262   5.796   5.840 -0.3178 -0.0833 -0.1022
  227POPC   C4B 3157   3.203   6.150   6.146 -0.0174  0.0285  0.0594
  228POPC   NC3 3158   4.829   5.239   3.257  0.1768  0.1699  0.0242
  228POPC   PO4 3159   4.965   5.449   3.608  0.2355  0.2127  0.0023
  228POPC   GL1 3160   4.835   5.738   3.927  0.0972  0.0326 -0.0603
  228POPC   GL2 3161   4.659   5.563   4.120  0.1225  0.0204  0.0239
  228POPC   C1A 3162   4.805   6.259   3.996  0.1183  0.2209 -0.2819
  228POPC   D2A 3163   5.070   6.607   4.058 -0.0107 -0.4780  0.0623
  228POPC   C3A 3164   5.046   6.896   3.839  0.0615 -0.0092 -0.1464
  228POPC   C4A 3165   5.161   7.286   3.860 -0.1066  0.0769 -0.0500
  228POPC   C1B 3166   4.586   5.914   4.365  0.0623  0.0918  0.2068
  228POPC   C2B 3167   4.770   5.871   4.719 -0.3299  0.2452 -0.0053
  228POPC   C3B 3168   4.698   6.028   5.027  0.1104  0.1961 -0.1044
  228POPC   C4B 3169   4.817   6.242   5.254  0.0539 -0.0124 -0.0290
  229POPC   NC3 3170   8.218   0.067   4.608  0.0236  0.1012  0.0185
  229POPC   PO4 3171   8.619   0.010   4.786 -0.1477  0.1500  0.1059
  229POPC   GL1 3172   8.427  -0.150   5.082 -0.3381 -0.2097  0.1568
  229POPC   GL2 3173   8.545  -0.170   5.373 -0.0381 -0.0362  0.2447
  229POPC   C1A 3174   8.128  -0.381   5.188 -0.1530 -0.0282 -0.2128
  229POPC   D2A 3175   7.663  -0.487   5.408 -0.2404 -0.0874  0.0013
  229POPC   C3A 3176   7.483  -0.261   5.771 -0.0538  0.1035 -0.0035
  229POPC   C4A 3177   7.352   0.014   6.200  0.0935  0.0813  0.0955
  229POPC   C1B 3178   8.454  -0.047   5.817  0.4346 -0.1797  0.0458
  229POPC   C2B 3179   8.548   0.219   6.046  0.1585  0.1053  0.1566
  229POPC   C3B 3180   8.724   0.610   6.305 -0.2058 -0.1957 -0.1856
  229POPC   C4B 3181   8.896   0.946   6.573  0.1783 -0.1562 -0.1664
  230POPC   NC3 3182   8.275   5.770   4.022  0.1809  0.2699 -0.0191
  230POPC   PO4 3183   8.065   5.962   4.337 -0.0901  0.1254 -0.2782
  230POPC   GL1 3184   7.778   6.051   4.635  0.2056  0.0500 -0.1676
  230POPC   GL2 3185   7.762   6.375   4.519  0.0407  0.2324 -0.0753
  230POPC   C1A 3186   7.598   6.124   5.022  0.5768  0.1987  0.3848
  230POPC   D2A 3187   7.429   6.303   5.424  0.0331 -0.0713 -0.1231
  230POPC   C3A 3188   7.315   6.788   5.333  0.0110  0.0625 -0.3214
  230POPC   C4A 3189   7.320   6.704   4.985  0.2587  0.0037 -0.1985
  230POPC   C1B 3190   7.849   6.672   4.826  0.0250 -0.1696  0.0679
  230POPC   C2B 3191   7.902   6.871   5.271  0.1995  0.1385 -0.2427
  230POPC   C3B 3192   7.629   7.133   5.544  0.0226 -0.2305  0.2499
  230POPC   C4B 3193   7.317   7.334   5.755 -0.0550  0.0332  0.1146
  231POPC   NC3 3194   9.679   4.534   4.465  0.1061  0.0839 -0.2054
  231POPC   PO4 3195   9.551   4.846   4.834  0.0458 -0.0453  0.0495
  231POPC   GL1 3196   9.498   5.099   5.255 -0.1571  0.1682  0.0398
  231POPC   GL2 3197   9.752   4.968   5.374  0.1762 -0.0859 -0.2874
  231POPC   C1A 3198   9.233   4.921   5.485 -0.1546  0.0437  0.2111
  231POPC   D2A 3199   8.940   5.027   5.722  0.1462 -0.0411  0.0264
  231POPC   C3A 3200   8.977   5.268   6.086  0.1917  0.3564 -0.0759
  231POPC   C4A 3201   8.866   5.615   6.345 -0.2311 -0.0915  0.2377
  231POPC   C1B 3202   9.699   5.132   5.788  0.2342  0.1433  0.1739
  231POPC   C2B 3203   9.495   5.081   6.100  0.0668 -0.0277  0.1331
  231POPC   C3B 3204   9.453   4.737   6.443  0.1703 -0.0767  0.4076
  231POPC   C4B 3205   9.481   4.336   6.536 -0.2869 -0.4208  0.3829
  232POPC   NC3 3206   4.367   5.075   4.109 -0.3182  0.2215 -0.2665
  232POPC   PO4 3207   4.323   5.261   4.432  0.2940 -0.0489  0.0064
  232POPC   GL1 3208   4.407   5.480   4.804 -0.1804 -0.0204  0.1213
  232POPC   GL2 3209   4.069   5.399   4.913 -0.1516  0.0841 -0.0347
  232POPC   C1A 3210   4.361   5.676   5.210 -0.1478 -0.1775  0.3662
  232POPC   D2A 3211   4.011   5.939   5.459 -0.0386  0.1628  0.0518
  232POPC   C3A 3212   3.890   6.356   5.556 -0.1355  0.0860 -0.3114
  232POPC   C4A 3213   3.568   6.678   5.570  0.1664 -0.0434  0.0693
  232POPC   C1B 3214   3.898   5.463   5.367  0.0782 -0.1492 -0.2647
  232POPC   C2B 3215   3.864   5.629   5.895 -0.4771  0.2214 -0.1442
  232POPC   C3B 3216   3.822   5.384   6.235 -0.4165 -0.0007 -0.0720
  232POPC   C4B 3217   3.963   5.138   6.555 -0.1498 -0.0311  0.1812
  233POPC   NC3 3218   3.796   0.526   3.955 -0.1566  0.0236 -0.1215
  233POPC   PO4 3219   3.603   0.202   3.857  0.0213  0.3034 -0.0098
  233POPC   GL1 3220   3.783  -0.012   4.138 -0.1319  0.0475 -0.0019
  233POPC   GL2 3221   3.508  -0.039   4.322 -0.1047 -0.0043  0.2063
  233POPC   C1A 3222   4.090  -0.303   4.342 -0.1938  0.1394 -0.0990
  233POPC   D2A 3223   4.334  -0.576   4.506 -0.1193 -0.1021 -0.0776
  233POPC   C3A 3224   4.315  -1.022   4.298 -0.0340 -0.1141 -0.1534
  233POPC   C4A 3225   4.100  -1.160   3.867 -0.0980  0.0221 -0.1822
  233POPC   C1B 3226   3.702  -0.223   4.760 -0.3679  0.3094  0.0780
  233POPC   C2B 3227   3.456  -0.259   5.123  0.1117  0.0837  0.1096
  233POPC   C3B 3228   3.295  -0.266   5.605  0.1675 -0.2481  0.4472
  233POPC   C4B 3229   3.082  -0.595   5.813 -0.1403 -0.1627 -0.1449
  234POPC   NC3 3230   2.547   5.265   4.619 -0.0840 -0.0772 -0.1726
  234POPC   PO4 3231   2.403   4.813   4.696  0.0461  0.1149  0.1422
  234POPC   GL1 3232   2.743   4.881   5.026  0.0495  0.1515  0.1307
  234POPC   GL2 3233   2.877   4.710   5.177  0.1389  0.1490  0.0359
  234POPC   C1A 3234   2.992   5.090   5.448 -0.1871  0.1515 -0.1280
  234POPC   D2A 3235   3.073   5.036   5.910  0.0458  0.2880  0.0310
  234POPC   C3A 3236   3.255   5.405   6.133 -0.4586 -0.0152 -0.2207
  234POPC   C4A 3237   3.346   5.728   6.305  0.0929 -0.3678  0.2614
  234POPC   C1B 3238   2.683   4.600   5.555  0.0721 -0.3124  0.0239
  234POPC   C2B 3239   2.594   4.801   5.989 -0.2715  0.2485 -0.4163
  234POPC   C3B 3240   2.563   5.168   6.397  0.2307 -0.0518 -0.1217
  234POPC   C4B 3241   2.472   5.319   6.848 -0.2188 -0.1341 -0.1048
  235POPC   NC3 3242   2.292   9.417   4.683  0.0143 -0.0355 -0.0416
  235POPC   PO4 3243   1.963   9.182   4.440  0.0110  0.2135  0.1971
  235POPC   GL1 3244   1.909   9.141   4.892 -0.2584  0.0704 -0.0147
  235POPC   GL2 3245   2.032   8.823   5.003 -0.0623  0.0282 -0.0681
  235POPC   C1A 3246   1.836   9.423   5.205 -0.0215  0.1397 -0.1729
  235POPC   D2A 3247   1.881   9.730   5.529 -0.2193 -0.1909 -0.2362
  235POPC   C3A 3248   2.285   9.786   5.716  0.0765 -0.0422  0.3445
  235POPC   C4A 3249   2.813   9.756   5.696  0.0578  0.1973  0.2074
  235POPC   C1B 3250   2.255   8.977   5.336  0.0376 -0.3377  0.2877
  235POPC   C2B 3251   2.284   9.008   5.850  0.3621 -0.3072  0.1833
  235POPC   C3B 3252   2.176   9.411   6.092 -0.2815 -0.1066 -0.2226
  235POPC   C4B 3253   2.352   9.893   6.201  0.0118 -0.0473 -0.2356
  236POPC   NC3 3254   8.580   2.980   5.265  0.5102  0.0738  0.1983
  236POPC   PO4 3255   8.524   3.348   5.154 -0.0704 -0.1534 -0.0138
  236POPC   GL1 3256   8.359   3.140   5.660  0.1762 -0.0311 -0.2784
  236POPC   GL2 3257   8.571   2.931   5.834  0.0064  0.2684 -0.1970
  236POPC   C1A 3258   8.284   3.172   6.110  0.0098 -0.2110  0.4257
  236POPC   D2A 3259   8.445   3.384   6.432 -0.1018 -0.1068 -0.2128
  236POPC   C3A 3260   8.296   3.747   6.641  0.0086 -0.0989 -0.1113
  236POPC   C4A 3261   8.014   3.663   6.982  0.2251  0.1104  0.0613
  236POPC   C1B 3262   8.830   3.205   6.063  0.0286 -0.1739 -0.0955
  236POPC   C2B 3263   8.831   3.587   6.020 -0.2477 -0.1432 -0.0768
  236POPC   C3B 3264   8.915   3.987   6.020  0.3167  0.1224  0.3120
  236POPC   C4B 3265   8.981   4.254   6.288 -0.4032 -0.2221 -0.0549
  237POPC   NC3 3266   0.935   2.940   4.874  0.1080 -0.0374  0.2434
  237POPC   PO4 3267   1.268   2.617   4.925 -0.0334 -0.0287 -0.2143
  237POPC   GL1 3268   1.325   2.336   5.226 -0.1626 -0.0041 -0.1229
  237POPC   GL2 3269   1.403   1.988   5.204 -0.2970 -0.0118  0.0417
  237POPC   C1A 3270   1.624   2.316   5.552  0.2773  0.0896 -0.0940
  237POPC   D2A 3271   1.940   2.381   5.853  0.1142  0.0867 -0.0454
  237POPC   C3A 3272   1.933   2.390   6.266 -0.1813  0.1129 -0.1092
  237POPC   C4A 3273   1.851   2.624   6.688  0.0582 -0.1039 -0.0080
  237POPC   C1B 3274   1.194   1.666   5.548  0.0154 -0.2223  0.2249
  237POPC   C2B 3275   1.037   1.338   5.874 -0.0868 -0.2404  0.0609
  237POPC   C3B 3276   1.136   1.084   6.282  0.0343  0.1264 -0.2121
  237POPC   C4B 3277   0.970   0.785   6.472 -0.3060 -0.3111  0.0612
  238POPC   NC3 3278   0.444   8.002   4.673  0.3720  0.1109  0.2073
  238POPC   PO4 3279   0.632   8.412   4.688  0.0123 -0.0946 -0.1358
  238POPC   GL1 3280   0.905   8.514   4.984 -0.0013  0.1996  0.2400
  238POPC   GL2 3281   1.232   8.404   5.034  0.0043 -0.1019  0.0538
  238POPC   C1A 3282   0.948   8.581   5.405  0.1323 -0.0927  0.0735
  238POPC   D2A 3283   0.975   8.539   5.912 -0.4116 -0.1273 -0.0512
  238POPC   C3A 3284   0.758   8.273   6.248 -0.1861  0.1332  0.0025
  238POPC   C4A 3285   0.747   8.112   6.668 -0.4377 -0.1654  0.2358
  238POPC   C1B 3286   1.354   8.267   5.408  0.1940  0.0874 -0.0455
  238POPC   C2B 3287   1.680   8.178   5.609 -0.2379 -0.1779  0.1938
  238POPC   C3B 3288   2.084   8.096   5.837  0.0460 -0.1135  0.0878
  238POPC   C4B 3289   2.434   7.994   6.125 -0.1691 -0.1184 -0.1649
  239POPC   NC3 3290   9.863   3.243   4.471 -0.0551 -0.0534 -0.2864
  239POPC   PO4 3291  10.005   3.395   4.874  0.1345 -0.1942  0.2345
  239POPC   GL1 3292  10.233   3.521   5.329 -0.1034  0.3647  0.0682
  239POPC   GL2 3293  10.474   3.700   5.301 -0.0976 -0.0984 -0.1178
  239POPC   C1A 3294  10.289   3.729   5.825 -0.0098  0.0877  0.0765
  239POPC   D2A 3295  10.468   4.011   6.115 -0.1924 -0.1868  0.2971
  239POPC   C3A 3296  10.647   4.517   6.100 -0.2778  0.0988 -0.2614
  239POPC   C4A 3297  10.711   4.926   6.335  0.1565  0.1381  0.1808
  239POPC   C1B 3298  10.692   3.581   5.520 -0.2775  0.2358  0.0489
  239POPC   C2B 3299  10.882   3.637   5.913 -0.0523  0.1376 -0.1007
  239POPC   C3B 3300  10.620   3.532   6.277 -0.3622  0.2119 -0.0223
  239POPC   C4B 3301  10.235   3.652   6.480  0.4536  0.0910  0.2563
  240POPC   NC3 3302   7.764   9.158   3.393 -0.1654  0.1575 -0.2989
  240POPC   PO4 3303   7.622   8.998   3.816  0.0149 -0.0210  0.1651
  240POPC   GL1 3304   7.483   8.838   4.254  0.0754 -0.0337  0.1517
  240POPC   GL2 3305   7.472   9.018   4.482 -0.1133 -0.1262 -0.0491
  240POPC   C1A 3306   7.069   8.755   4.345  0.2264 -0.1174  0.1363
  240POPC   D2A 3307   6.748   8.664   4.149  0.2404  0.1115 -0.1849
  240POPC   C3A 3308   6.299   8.621   4.321  0.0472 -0.0618 -0.2746
  240POPC   C4A 3309   5.890   8.408   4.271  0.0789 -0.2253  0.1780
  240POPC   C1B 3310   7.355   8.578   4.756  0.0841 -0.1253 -0.3508
  240POPC   C2B 3311   6.934   8.333   4.826  0.0736  0.0257  0.1541
  240POPC   C3B 3312   6.594   8.304   4.939 -0.1845  0.0566 -0.1824
  240POPC   C4B 3313   6.135   8.405   4.787 -0.1724  0.3156  0.2354
  241POPC   NC3 3314   2.418   4.435   4.339 -0.0785 -0.0600  0.0157
  241POPC   PO4 3315   2.654   4.388   4.704 -0.0417  0.0191  0.0492
  241POPC   GL1 3316   2.324   4.470   5.064  0.4200  0.0826  0.0956
  241POPC   GL2 3317   2.262   4.705   5.172  0.1720 -0.0733  0.2301
  241POPC   C1A 3318   2.247   4.370   5.591 -0.0379 -0.0691  0.1470
  241POPC   D2A 3319   2.307   4.366   6.008  0.1455 -0.1242 -0.0524
  241POPC   C3A 3320   2.015   4.161   6.291 -0.1280  0.1833  0.0771
  241POPC   C4A 3321   1.590   4.125   6.167  0.1601 -0.1175 -0.1550
  241POPC   C1B 3322   2.496   5.087   5.489  0.3619 -0.0853 -0.2363
  241POPC   C2B 3323   2.658   5.292   5.863  0.2206  0.1218  0.2475
  241POPC   C3B 3324   2.274   5.540   5.902  0.1822 -0.0135 -0.0879
  241POPC   C4B 3325   1.985   5.717   6.224 -0.1951 -0.0028 -0.1554
  242POPC   NC3 3326   8.089   9.791   3.946  0.0833 -0.0001  0.1896
  242POPC   PO4 3327   8.299   9.574   4.182  0.1218  0.3042 -0.0064
  242POPC   GL1 3328   7.908   9.551   4.409  0.3470  0.2634  0.0245
  242POPC   GL2 3329   7.660   9.406   4.222 -0.2520  0.1400 -0.1154
  242POPC   C1A 3330   7.777   9.383   4.800 -0.1998 -0.3546 -0.0921
  242POPC   D2A 3331   7.504   9.646   5.023 -0.1756 -0.0680  0.3105
  242POPC   C3A 3332   7.572   9.906   5.243  0.1222  0.3182  0.0635
  242POPC   C4A 3333   7.533  10.345   5.283  0.0196  0.2193  0.1883
  242POPC   C1B 3334   7.266   9.435   4.515 -0.1776 -0.1013  0.1448
  242POPC   C2B 3335   7.035   9.385   4.892  0.1826 -0.0718 -0.4406
  242POPC   C3B 3336   7.026   9.677   5.192 -0.0553  0.4972  0.1459
  242POPC   C4B 3337   7.102   9.536   5.435  0.0856  0.1235  0.0785
  243POPC   NC3 3338   9.488   7.721   4.510  0.0467  0.2853 -0.2007
  243POPC   PO4 3339   9.024   7.501   4.732 -0.0906 -0.0632  0.4655
  243POPC   GL1 3340   8.974   7.441   5.142 -0.1273 -0.3827  0.3483
  243POPC   GL2 3341   9.253   7.431   5.312 -0.1494 -0.1275  0.2877
  243POPC   C1A 3342   8.627   7.168   5.293 -0.2785 -0.0929 -0.0646
  243POPC   D2A 3343   8.229   7.010   5.613 -0.1169 -0.0623  0.0553
  243POPC   C3A 3344   8.025   7.179   6.066 -0.0126 -0.2481  0.1521
  243POPC   C4A 3345   7.647   7.380   6.172  0.0535  0.0002  0.2041
  243POPC   C1B 3346   9.449   7.263   5.758  0.0186 -0.0773  0.0525
  243POPC   C2B 3347   9.440   7.232   6.203 -0.0324 -0.3692  0.2730
  243POPC   C3B 3348   9.552   7.094   6.548 -0.1230  0.0918 -0.0868
  243POPC   C4B 3349   9.835   7.092   6.824  0.1127  0.1617 -0.0507
  244POPC   NC3 3350   2.657   9.701   3.787  0.0645 -0.1500 -0.0795
  244POPC   PO4 3351   2.612   9.488   4.271 -0.0428 -0.3964  0.0624
  244POPC   GL1 3352   2.955   9.315   4.491  0.0806  0.1911 -0.3604
  244POPC   GL2 3353   3.049   9.034   4.348  0.1529 -0.1207  0.0568
  244POPC   C1A 3354   3.376   9.271   4.732  0.2056  0.2872  0.3811
  244POPC   D2A 3355   3.499   9.115   5.145  0.2821 -0.1763 -0.2347
  244POPC   C3A 3356   3.169   9.160   5.367  0.0983 -0.1653  0.1462
  244POPC   C4A 3357   2.886   8.961   5.509 -0.1861 -0.3390  0.0443
  244POPC   C1B 3358   3.012   8.907   4.850 -0.4718  0.2225 -0.2728
  244POPC   C2B 3359   3.157   8.673   5.177 -0.0489 -0.1675 -0.1197
  244POPC   C3B 3360   3.376   8.782   5.667 -0.0549  0.1074  0.2646
  244POPC   C4B 3361   3.757   8.688   5.730 -0.1053  0.3928  0.1632
  245POPC   NC3 3362   7.196   4.954   4.973 -0.1089  0.0870 -0.3662
  245POPC   PO4 3363   7.162   5.420   4.836  0.3993  0.0457  0.3964
  245POPC   GL1 3364   7.368   5.296   5.299  0.1231  0.0836  0.2686
  245POPC   GL2 3365   7.079   5.166   5.393 -0.0679 -0.0675  0.0022
  245POPC   C1A 3366   7.597   5.548   5.531  0.3378  0.2249  0.0316
  245POPC   D2A 3367   7.418   5.821   5.884  0.0370 -0.2334  0.0860
  245POPC   C3A 3368   7.365   6.207   5.930  0.0417  0.2258  0.0319
  245POPC   C4A 3369   7.180   6.472   6.252 -0.0721  0.0720  0.2014
  245POPC   C1B 3370   7.026   5.003   5.763 -0.2726 -0.1077  0.0630
  245POPC   C2B 3371   6.865   4.627   5.987  0.2222  0.2827 -0.0440
  245POPC   C3B 3372   6.832   4.210   6.161 -0.1957  0.1098  0.1783
  245POPC   C4B 3373   6.972   4.117   6.489  0.3307  0.1399  0.2223
  246POPC   NC3 3374   5.222   2.248   3.813 -0.0483  0.1298 -0.1405
  246POPC   PO4 3375   5.034   2.139   4.276 -0.0509 -0.1838 -0.4208
  246POPC   GL1 3376   4.811   2.004   4.776 -0.0378  0.0898  0.0265
  246POPC   GL2 3377   4.987   1.866   5.003 -0.0271 -0.0559  0.1726
  246POPC   C1A 3378   4.570   2.145   5.166 -0.1595 -0.0391 -0.0740
  246POPC   D2A 3379   4.521   1.921   5.482 -0.0745 -0.2141  0.0117
  246POPC   C3A 3380   4.584   2.185   5.893 -0.2015 -0.0683  0.2363
  246POPC   C4A 3381   4.427   2.153   6.333 -0.1413 -0.1597 -0.1294
  246POPC   C1B 3382   4.719   1.568   5.176  0.1265 -0.0412 -0.1273
  246POPC   C2B 3383   4.695   1.425   5.554  0.1145 -0.1623 -0.1965
  246POPC   C3B 3384   4.679   1.077   5.827 -0.0560  0.0072  0.1735
  246POPC   C4B 3385   4.437   0.767   5.986  0.0130  0.1328  0.0017
  247POPC   NC3 3386   6.215   2.629   4.905  0.0710  0.1788 -0.0362
  247POPC   PO4 3387   5.969   2.300   4.904  0.0640  0.3861 -0.0941
  247POPC   GL1 3388   5.936   2.371   5.250  0.1693  0.0167  0.1733
  247POPC   GL2 3389   5.853   2.659   5.329 -0.0463 -0.1422 -0.0540
  247POPC   C1A 3390   5.977   2.212   5.664  0.1659  0.2049  0.0980
  247POPC   D2A 3391   5.741   2.288   6.081 -0.1344 -0.0459 -0.1849
  247POPC   C3A 3392   5.456   1.958   6.085  0.2145 -0.2095  0.5166
  247POPC   C4A 3393   5.132   1.696   6.358  0.0260  0.2975  0.0059
  247POPC   C1B 3394   5.495   2.466   5.514 -0.3841  0.1571  0.0799
  247POPC   C2B 3395   5.279   2.367   5.910 -0.0322 -0.3931  0.4122
  247POPC   C3B 3396   5.008   2.113   6.156 -0.0246  0.3686 -0.2517
  247POPC   C4B 3397   4.837   2.166   6.596  0.1857  0.0053  0.2489
  248POPC   NC3 3398   9.558   3.649   4.804 -0.1586 -0.1399 -0.1778
  248POPC   PO4 3399   9.610   4.090   4.811 -0.1692 -0.2177  0.0155
  248POPC   GL1 3400   9.817   4.143   5.203  0.0317  0.0351  0.3006
  248POPC   GL2 3401   9.940   4.447   5.204 -0.0781 -0.2405  0.1795
  248POPC   C1A 3402  10.052   3.983   5.462  0.2858  0.1032  0.2259
  248POPC   D2A 3403   9.989   4.173   5.924 -0.1437 -0.0479  0.1851
  248POPC   C3A 3404   9.930   3.917   6.187 -0.0183  0.2577  0.0742
  248POPC   C4A 3405   9.821   3.979   6.568 -0.1320  0.1078 -0.0898
  248POPC   C1B 3406   9.804   4.552   5.574 -0.0683 -0.1172  0.1445
  248POPC   C2B 3407   9.674   4.532   5.961  0.2040  0.1081 -0.1859
  248POPC   C3B 3408   9.884   4.516   6.345  0.2604 -0.1655 -0.2782
  248POPC   C4B 3409  10.228   4.281   6.465  0.0293  0.2827 -0.2828
  249POPC   NC3 3410   7.567   0.287   3.330 -0.1470  0.4888  0.1450
  249POPC   PO4 3411   7.206   0.022   3.399 -0.0930  0.1427  0.1086
  249POPC   GL1 3412   7.014   0.022   3.794 -0.0041  0.1061 -0.0212
  249POPC   GL2 3413   6.783   0.039   3.860 -0.3068  0.1698 -0.1572
  249POPC   C1A 3414   7.059  -0.294   4.094  0.0178  0.0351  0.1808
  249POPC   D2A 3415   7.172  -0.751   3.955 -0.0019  0.1099  0.0721
  249POPC   C3A 3416   6.913  -1.004   3.736 -0.0362  0.0524 -0.1801
  249POPC   C4A 3417   6.896  -1.383   3.492 -0.1204  0.0600  0.0342
  249POPC   C1B 3418   6.736  -0.012   4.316 -0.0642 -0.2222  0.3208
  249POPC   C2B 3419   6.703  -0.423   4.390 -0.0611  0.0079 -0.0400
  249POPC   C3B 3420   6.576  -0.943   4.545  0.0948 -0.3015  0.0322
  249POPC   C4B 3421   6.814  -1.111   4.764  0.0290 -0.0590 -0.3348
  250POPC   NC3 3422   3.422   0.963   4.325  0.1099  0.0386 -0.1338
  250POPC   PO4 3423   3.110   1.113   4.547  0.0483  0.2344 -0.1161
  250POPC   GL1 3424   3.154   1.226   5.008  0.0376  0.0953 -0.1646
  250POPC   GL2 3425   2.973   1.462   5.027  0.1124  0.0642 -0.0331
  250POPC   C1A 3426   3.260   1.308   5.486  0.0462 -0.1697 -0.1751
  250POPC   D2A 3427   3.375   1.281   5.944 -0.1141  0.2707 -0.0552
  250POPC   C3A 3428   3.031   1.099   6.181  0.1099 -0.4103  0.1204
  250POPC   C4A 3429   2.618   1.138   6.173 -0.3001  0.0050 -0.0812
  250POPC   C1B 3430   2.661   1.721   5.410  0.1751 -0.1619 -0.2117
  250POPC   C2B 3431   2.531   1.856   5.852 -0.1195 -0.0059 -0.1489
  250POPC   C3B 3432   2.475   1.675   6.299 -0.0448  0.1965  0.0049
  250POPC   C4B 3433   2.312   1.732   6.548 -0.0625 -0.0149  0.2411
  251POPC   NC3 3434   5.369   0.730   3.004  0.3547  0.0920  0.0230
  251POPC   PO4 3435   5.478   0.933   3.455  0.4616  0.2097 -0.1078
  251POPC   GL1 3436   5.503   0.671   3.909  0.2041 -0.0276 -0.0905
  251POPC   GL2 3437   5.182   0.460   3.962 -0.0225  0.1788 -0.4527
  251POPC   C1A 3438   5.768   0.442   4.208  0.1995 -0.1248  0.1017
  251POPC   D2A 3439   5.841   0.058   4.458  0.2473  0.1251  0.0558
  251POPC   C3A 3440   5.686  -0.054   4.797  0.1504 -0.0168  0.0041
  251POPC   C4A 3441   5.278  -0.184   4.991  0.0744  0.0554  0.0289
  251POPC   C1B 3442   5.299   0.558   4.400 -0.4077  0.0211  0.0763
  251POPC   C2B 3443   5.596   0.567   4.781 -0.1738 -0.2464 -0.3876
  251POPC   C3B 3444   5.752   0.559   5.213 -0.0090  0.0193  0.0112
  251POPC   C4B 3445   5.775   0.209   5.439 -0.1746 -0.0024  0.0490
  252POPC   NC3 3446   1.029   9.400   4.650  0.1262  0.2350 -0.1935
  252POPC   PO4 3447   1.152   8.939   4.582  0.3143  0.1446 -0.1923
  252POPC   GL1 3448   1.155   8.970   4.954 -0.0681  0.2400  0.2470
  252POPC   GL2 3449   1.314   9.241   5.075  0.1840 -0.0073  0.1834
  252POPC   C1A 3450   1.060   9.073   5.465  0.1387  0.0436 -0.1696
  252POPC   D2A 3451   1.281   9.090   5.820 -0.3134 -0.0708 -0.2838
  252POPC   C3A 3452   1.437   9.190   6.250 -0.1645  0.2155  0.0395
  252POPC   C4A 3453   1.403   9.545   6.407 -0.0496  0.2936 -0.0681
  252POPC   C1B 3454   1.390   9.430   5.423 -0.0375  0.1516  0.2037
  252POPC   C2B 3455   1.418   9.649   5.881  0.1933  0.0811  0.0067
  252POPC   C3B 3456   1.497  10.023   6.154 -0.0812 -0.0689 -0.2309
  252POPC   C4B 3457   1.537  10.072   6.602  0.1902  0.0344  0.0747
  253POPC   NC3 3458   0.140   8.397   4.823  0.0182  0.6126  0.3077
  253POPC   PO4 3459  -0.300   8.268   4.955  0.2303 -0.2362 -0.1752
  253POPC   GL1 3460  -0.610   8.320   5.229 -0.0888 -0.5262 -0.2173
  253POPC   GL2 3461  -0.554   8.615   5.352 -0.0846 -0.3012 -0.2711
  253POPC   C1A 3462  -0.835   8.093   5.491 -0.0264  0.2016  0.0929
  253POPC   D2A 3463  -0.758   7.805   5.863 -0.0579 -0.0498 -0.0080
  253POPC   C3A 3464  -0.711   8.028   6.318  0.5664 -0.2066  0.0158
  253POPC   C4A 3465  -0.820   8.053   6.769 -0.1057  0.0329  0.0677
  253POPC   C1B 3466  -0.687   8.567   5.737  0.1393 -0.0842  0.0586
  253POPC   C2B 3467  -1.018   8.293   5.904  0.0833 -0.4514  0.2643
  253POPC   C3B 3468  -1.332   7.934   5.870  0.1212  0.1092  0.3098
  253POPC   C4B 3469  -1.473   7.420   5.826  0.3713 -0.1464  0.5207
  254POPC   NC3 3470   6.074   9.008   2.499 -0.3389  0.0824  0.2420
  254POPC   PO4 3471   5.805   9.221   2.623 -0.0869  0.0406  0.3114
  254POPC   GL1 3472   5.877   9.168   3.036  0.0041 -0.2394 -0.0838
  254POPC   GL2 3473   5.853   9.411   3.198 -0.0546  0.0969  0.3884
  254POPC   C1A 3474   6.130   8.949   3.366 -0.3528  0.0465 -0.1429
  254POPC   D2A 3475   6.207   8.855   3.841  0.0002 -0.4004 -0.1678
  254POPC   C3A 3476   6.500   9.135   3.977 -0.0479  0.0412 -0.0331
  254POPC   C4A 3477   6.442   9.580   3.848 -0.3022 -0.3486  0.2163
  254POPC   C1B 3478   5.983   9.337   3.677 -0.2744  0.0823 -0.1010
  254POPC   C2B 3479   6.049   9.209   4.194 -0.1156 -0.1228  0.2198
  254POPC   C3B 3480   6.060   9.067   4.530  0.0869  0.4850 -0.0105
  254POPC   C4B 3481   6.187   8.921   4.886 -0.0485  0.1360  0.1460
  255POPC   NC3 3482   2.052   4.310   4.740 -0.1430 -0.0764 -0.1110
  255POPC   PO4 3483   2.039   3.971   4.913  0.1494 -0.0598 -0.1441
  255POPC   GL1 3484   1.773   3.746   5.260  0.3612 -0.0836  0.1134
  255POPC   GL2 3485   1.602   3.440   5.225  0.3234  0.0802  0.0911
  255POPC   C1A 3486   1.967   3.529   5.576  0.4141  0.3036 -0.1696
  255POPC   D2A 3487   1.946   3.345   5.909 -0.0114  0.0707 -0.2346
  255POPC   C3A 3488   1.797   3.619   6.292  0.0094  0.1597  0.0372
  255POPC   C4A 3489   1.807   3.796   6.756 -0.0469  0.2044  0.0860
  255POPC   C1B 3490   1.588   3.154   5.541 -0.0094 -0.1689 -0.0270
  255POPC   C2B 3491   1.728   2.856   5.767 -0.3193 -0.1552 -0.4001
  255POPC   C3B 3492   1.876   2.859   6.282 -0.0033 -0.1648  0.1276
  255POPC   C4B 3493   2.139   3.124   6.452 -0.0443 -0.4339  0.1028
  256POPC   NC3 3494   0.186   2.197   5.323  0.0536  0.2661 -0.0019
  256POPC   PO4 3495   0.478   2.062   5.087 -0.1754 -0.2642  0.1930
  256POPC   GL1 3496   0.783   2.061   5.446 -0.0390 -0.1484 -0.0330
  256POPC   GL2 3497   0.584   2.163   5.770 -0.0395  0.1316 -0.0096
  256POPC   C1A 3498   1.136   2.240   5.671 -0.3646  0.1870 -0.0120
  256POPC   D2A 3499   1.495   1.947   5.906  0.0538  0.0764 -0.0020
  256POPC   C3A 3500   1.611   1.941   6.327  0.0106  0.0207  0.0156
  256POPC   C4A 3501   1.457   1.850   6.714  0.1018  0.0272 -0.2574
  256POPC   C1B 3502   0.947   1.831   5.986  0.1758 -0.0559  0.0801
  256POPC   C2B 3503   0.890   1.549   6.318  0.0289 -0.0125  0.0331
  256POPC   C3B 3504   1.100   1.445   6.696  0.0685 -0.1924 -0.0371
  256POPC   C4B 3505   1.318   1.044   6.781 -0.1359  0.1522 -0.1731
  257POPC   NC3 3506   6.836   1.720   4.350 -0.0377  0.2054 -0.2165
  257POPC   PO4 3507   6.864   2.020   4.688 -0.2602  0.1545  0.0549
  257POPC   GL1 3508   6.843   1.892   5.022  0.1009 -0.0076  0.0353
  257POPC   GL2 3509   7.006   1.657   4.990  0.0406 -0.4154 -0.0728
  257POPC   C1A 3510   6.622   1.752   5.379 -0.0884  0.2473  0.1103
  257POPC   D2A 3511   6.708   1.645   5.847  0.2429 -0.1137  0.0113
  257POPC   C3A 3512   6.473   1.428   6.074  0.0937 -0.1881  0.0519
  257POPC   C4A 3513   6.440   1.027   6.269  0.1346 -0.0588 -0.1558
  257POPC   C1B 3514   6.948   1.321   5.329 -0.0255 -0.1260 -0.2451
  257POPC   C2B 3515   6.985   1.189   5.764  0.2844 -0.3744 -0.3416
  257POPC   C3B 3516   6.853   0.869   6.000  0.0993 -0.2223 -0.0200
  257POPC   C4B 3517   6.601   0.570   6.325 -0.0823 -0.0002  0.1153
  258POPC   NC3 3518   7.492   2.965   4.498  0.1707  0.2859 -0.2244
  258POPC   PO4 3519   7.895   2.758   4.539 -0.2991 -0.1165 -0.2161
  258POPC   GL1 3520   7.730   2.920   4.965 -0.1052 -0.0481  0.4253
  258POPC   GL2 3521   7.585   2.726   5.279  0.1340  0.0181  0.1378
  258POPC   C1A 3522   7.730   3.237   5.230 -0.0480  0.1603  0.0605
  258POPC   D2A 3523   7.433   3.584   5.437 -0.3096 -0.0438 -0.3987
  258POPC   C3A 3524   7.388   3.439   5.808 -0.0692 -0.0296  0.1680
  258POPC   C4A 3525   7.091   3.216   6.037 -0.0480  0.0753 -0.2670
  258POPC   C1B 3526   7.380   2.491   5.575  0.2496 -0.0164 -0.2268
  258POPC   C2B 3527   7.506   2.202   5.738 -0.1885  0.0853  0.0716
  258POPC   C3B 3528   7.565   1.937   6.089  0.4643  0.0663 -0.6864
  258POPC   C4B 3529   7.378   1.964   6.462  0.5033  0.2185 -0.1226
  259POPC   NC3 3530   1.611   9.847   3.970 -0.2221  0.0674 -0.1564
  259POPC   PO4 3531   1.691  10.135   4.304 -0.0393  0.0978 -0.2534
  259POPC   GL1 3532   1.484  10.168   4.671  0.2309  0.0452 -0.0585
  259POPC   GL2 3533   1.126  10.108   4.680  0.0218  0.1688  0.1164
  259POPC   C1A 3534   1.737  10.016   5.028  0.0342 -0.2427 -0.6018
  259POPC   D2A 3535   2.150   9.791   5.015 -0.1503 -0.0886 -0.2124
  259POPC   C3A 3536   2.357   9.533   5.287 -0.0387 -0.0413  0.0271
  259POPC   C4A 3537   2.602   9.311   5.630 -0.0263  0.0549  0.0767
  259POPC   C1B 3538   1.242   9.870   5.077 -0.0403 -0.1211  0.3406
  259POPC   C2B 3539   1.403   9.966   5.442 -0.2092 -0.1237  0.0277
  259POPC   C3B 3540   1.703  10.177   5.681 -0.1718 -0.1352  0.1811
  259POPC   C4B 3541   2.072  10.246   5.896  0.2997  0.1567 -0.2626
  260POPC   NC3 3542   2.609   5.937   4.045 -0.2065  0.2544  0.0065
  260POPC   PO4 3543   2.719   5.802   4.546  0.3251 -0.2311 -0.0513
  260POPC   GL1 3544   3.046   6.003   4.809  0.0201 -0.2725  0.0905
  260POPC   GL2 3545   3.066   5.808   5.069  0.3218  0.1085  0.2210
  260POPC   C1A 3546   3.346   6.180   4.999 -0.0586  0.1224  0.1961
  260POPC   D2A 3547   3.741   6.270   5.111 -0.0618  0.5050 -0.1956
  260POPC   C3A 3548   3.989   6.724   5.105  0.2322  0.2822 -0.1363
  260POPC   C4A 3549   3.994   7.051   5.216  0.0810  0.1709  0.2325
  260POPC   C1B 3550   3.044   6.110   5.401 -0.0786 -0.0561  0.2427
  260POPC   C2B 3551   3.143   6.407   5.733  0.0418 -0.1363  0.0386
  260POPC   C3B 3552   3.208   6.852   5.915 -0.0212 -0.0851  0.1593
  260POPC   C4B 3553   3.618   7.110   6.157 -0.0224 -0.2674  0.2197
  261POPC   NC3 3554   2.122   7.547   4.129 -0.0342  0.1437 -0.0498
  261POPC   PO4 3555   2.000   7.221   4.341 -0.3373  0.0989 -0.1491
  261POPC   GL1 3556   2.287   7.365   4.687 -0.1917 -0.0439  0.1692
  261POPC   GL2 3557   2.200   7.139   4.791 -0.1534 -0.2564  0.0424
  261POPC   C1A 3558   2.592   7.607   4.991  0.1046  0.4303 -0.0857
  261POPC   D2A 3559   2.585   7.939   5.307 -0.0222  0.0465  0.1160
  261POPC   C3A 3560   2.451   7.711   5.661 -0.2009  0.1455 -0.3198
  261POPC   C4A 3561   2.701   7.424   5.880  0.0125 -0.1695  0.1337
  261POPC   C1B 3562   2.214   7.443   5.224  0.0377 -0.1633 -0.2855
  261POPC   C2B 3563   2.248   7.249   5.624 -0.1908  0.1852 -0.0288
  261POPC   C3B 3564   2.300   7.095   6.022  0.2765  0.1272 -0.2385
  261POPC   C4B 3565   2.127   6.948   6.400 -0.0102  0.3817  0.0079
  262POPC   NC3 3566   1.878   8.700   4.416 -0.3202  0.0015 -0.1003
  262POPC   PO4 3567   1.661   8.300   4.387  0.1764 -0.0324  0.2137
  262POPC   GL1 3568   1.706   8.236   4.786  0.3245  0.1467  0.1721
  262POPC   GL2 3569   1.570   8.014   4.820  0.2981  0.2274 -0.0693
  262POPC   C1A 3570   1.725   8.445   5.131  0.1578 -0.1599  0.1449
  262POPC   D2A 3571   1.460   8.746   5.237 -0.2660 -0.0824 -0.2123
  262POPC   C3A 3572   1.671   9.014   5.436 -0.1523 -0.1453  0.0104
  262POPC   C4A 3573   1.819   9.287   5.759  0.0375  0.0907  0.1149
  262POPC   C1B 3574   1.503   7.843   5.176 -0.1494 -0.0283  0.2761
  262POPC   C2B 3575   1.358   7.664   5.523 -0.0280 -0.1886 -0.1836
  262POPC   C3B 3576   1.473   7.548   5.986  0.0612  0.1401 -0.2317
  262POPC   C4B 3577   1.549   7.759   6.394 -0.3536 -0.2022 -0.0888
  263POPC   NC3 3578   0.252   9.080   4.243 -0.3730  0.4455  0.0941
  263POPC   PO4 3579   0.270   8.769   4.602  0.1662 -0.0203  0.2105
  263POPC   GL1 3580   0.468   8.905   4.965 -0.0931 -0.0551  0.2195
  263POPC   GL2 3581   0.745   9.205   4.996  0.1093  0.2553  0.3070
  263POPC   C1A 3582   0.457   8.526   5.349 -0.2226  0.1257 -0.0718
  263POPC   D2A 3583   0.605   8.305   5.686 -0.0990  0.0410 -0.3205
  263POPC   C3A 3584   0.651   7.902   5.953 -0.3570 -0.1995  0.2240
  263POPC   C4A 3585   0.451   7.441   6.042 -0.0288  0.1373  0.1322
  263POPC   C1B 3586   0.536   9.108   5.420  0.0002  0.0535  0.0575
  263POPC   C2B 3587   0.663   8.906   5.771 -0.2046  0.1532 -0.1429
  263POPC   C3B 3588   0.693   8.777   6.204  0.0302 -0.0488  0.0781
  263POPC   C4B 3589   0.591   9.041   6.570  0.0352 -0.1403  0.1022
  264POPC   NC3 3590   6.786   2.644   4.693 -0.3040  0.0131  0.0038
  264POPC   PO4 3591   6.861   3.105   4.772 -0.1084 -0.1951  0.3338
  264POPC   GL1 3592   6.825   3.271   5.273 -0.0721 -0.2883  0.0221
  264POPC   GL2 3593   7.175   3.173   5.335 -0.0017  0.0256 -0.2108
  264POPC   C1A 3594   6.946   3.545   5.522  0.1259  0.1579  0.1037
  264POPC   D2A 3595   6.987   3.899   5.726 -0.2646 -0.0948 -0.1405
  264POPC   C3A 3596   7.255   3.842   6.095  0.3583  0.1104 -0.2492
  264POPC   C4A 3597   7.585   3.699   6.146  0.1320 -0.1603  0.0167
  264POPC   C1B 3598   7.383   2.999   5.623  0.1457  0.3117  0.2236
  264POPC   C2B 3599   7.545   2.803   5.979  0.1614 -0.4528 -0.0718
  264POPC   C3B 3600   7.735   2.434   6.139  0.0731 -0.3186  0.0010
  264POPC   C4B 3601   8.023   2.160   5.997  0.1669 -0.0678 -0.1140
  265POPC   NC3 3602   0.783   7.283   4.822  0.1134 -0.0963  0.0031
  265POPC   PO4 3603   0.434   7.517   4.888  0.2346 -0.0397 -0.3676
  265POPC   GL1 3604   0.392   7.559   5.284  0.2576  0.2868  0.1500
  265POPC   GL2 3605   0.481   7.237   5.410  0.0738  0.2152  0.0200
  265POPC   C1A 3606   0.321   7.709   5.622 -0.4269  0.0758 -0.2461
  265POPC   D2A 3607   0.178   8.044   5.958  0.2677  0.2054 -0.2147
  265POPC   C3A 3608   0.354   7.939   6.346  0.0169  0.4216  0.0478
  265POPC   C4A 3609   0.362   7.677   6.643 -0.2568  0.3009  0.1312
  265POPC   C1B 3610   0.009   7.290   5.571 -0.0127  0.2385 -0.1625
  265POPC   C2B 3611  -0.041   7.602   5.931  0.1367  0.0786 -0.0718
  265POPC   C3B 3612  -0.197   7.692   6.294  0.2705 -0.0795  0.1805
  265POPC   C4B 3613  -0.515   7.587   6.517  0.2273  0.0877  0.0272
  266POPC   NC3 3614   5.179   5.485   4.158  0.1071 -0.1772  0.1143
  266POPC   PO4 3615   5.386   5.148   4.101  0.0626 -0.0893 -0.0651
  266POPC   GL1 3616   5.432   5.386   4.561  0.0084  0.1865 -0.1579
  266POPC   GL2 3617   5.606   5.629   4.624 -0.2703  0.1496  0.1234
  266POPC   C1A 3618   5.176   5.462   4.975  0.0961 -0.1231  0.0472
  266POPC   D2A 3619   4.878   5.610   5.195 -0.1051  0.0459  0.1703
  266POPC   C3A 3620   4.971   5.802   5.601  0.0157 -0.1602 -0.1809
  266POPC   C4A 3621   5.131   6.266   5.647  0.3625 -0.0631  0.1574
  266POPC   C1B 3622   5.622   5.648   5.059 -0.2515 -0.1407 -0.1054
  266POPC   C2B 3623   5.628   5.406   5.480  0.0202 -0.2358 -0.2651
  266POPC   C3B 3624   5.349   5.515   5.776 -0.4305  0.0696 -0.0054
  266POPC   C4B 3625   5.250   5.382   6.152 -0.0144 -0.1934 -0.1742
  267POPC   NC3 3626   7.063   2.316   5.006 -0.1986  0.1416  0.1882
  267POPC   PO4 3627   6.639   2.344   5.039  0.0129 -0.0066  0.1663
  267POPC   GL1 3628   6.672   2.315   5.437  0.2724 -0.2577  0.1930
  267POPC   GL2 3629   7.023   2.123   5.495  0.1080  0.2189  0.1337
  267POPC   C1A 3630   6.499   2.143   5.738  0.1221  0.0845  0.1858
  267POPC   D2A 3631   6.249   2.059   6.154 -0.1904 -0.0882  0.1620
  267POPC   C3A 3632   6.308   2.011   6.585  0.1213 -0.1954 -0.1798
  267POPC   C4A 3633   6.460   2.274   6.965  0.0097  0.1029 -0.0507
  267POPC   C1B 3634   6.997   2.014   5.824  0.3055 -0.3260 -0.3329
  267POPC   C2B 3635   6.876   1.951   6.259 -0.2472  0.2701  0.0826
  267POPC   C3B 3636   6.902   2.239   6.664  0.1265 -0.0916  0.1414
  267POPC   C4B 3637   6.854   2.645   6.654 -0.1863  0.1610  0.2632
  268POPC   NC3 3638   5.331   2.851   4.632  0.0799 -0.0048  0.1233
  268POPC   PO4 3639   5.234   2.991   5.042  0.1057  0.6088  0.1938
  268POPC   GL1 3640   5.483   3.050   5.369 -0.2891  0.1798 -0.0961
  268POPC   GL2 3641   5.350   3.328   5.601 -0.3070 -0.0965  0.1011
  268POPC   C1A 3642   5.219   2.906   5.901 -0.1161  0.4189  0.0955
  268POPC   D2A 3643   5.319   2.848   6.322 -0.1747  0.1412 -0.0109
  268POPC   C3A 3644   4.996   2.823   6.691 -0.0801  0.2217  0.1202
  268POPC   C4A 3645   4.849   2.533   6.897 -0.0830  0.2128  0.0637
  268POPC   C1B 3646   5.405   3.428   6.030  0.0013 -0.0113  0.2397
  268POPC   C2B 3647   5.789   3.416   6.370 -0.1819 -0.0888 -0.0431
  268POPC   C3B 3648   6.146   3.329   6.537  0.0272  0.0852 -0.0938
  268POPC   C4B 3649   6.334   2.988   6.537 -0.0415  0.1241 -0.1178
  269POPC   NC3 3650   8.825   9.461   4.915 -0.0087  0.1125  0.0768
  269POPC   PO4 3651   9.239   9.458   4.821  0.1760 -0.1633  0.0330
  269POPC   GL1 3652   9.417   9.542   5.195 -0.2792  0.2077  0.0450
  269POPC   GL2 3653   9.520   9.233   5.279  0.0900  0.2419  0.2591
  269POPC   C1A 3654   9.289   9.785   5.632 -0.1835  0.2824 -0.0902
  269POPC   D2A 3655   9.607   9.894   5.928 -0.3786  0.0228 -0.0288
  269POPC   C3A 3656  10.019   9.830   6.065 -0.1138 -0.1126  0.3542
  269POPC   C4A 3657  10.410   9.958   6.008  0.0186  0.0773 -0.0168
  269POPC   C1B 3658   9.317   9.244   5.644 -0.0889 -0.0968  0.1208
  269POPC   C2B 3659   9.248   9.037   6.056  0.0381 -0.0825  0.1698
  269POPC   C3B 3660   9.092   8.950   6.407 -0.0273  0.1718 -0.6129
  269POPC   C4B 3661   8.818   8.909   6.823 -0.0430 -0.0229 -0.1081
  270POPC   NC3 3662   6.424   3.516   4.664 -0.0434 -0.1686  0.2788
  270POPC   PO4 3663   6.361   3.148   4.810 -0.0423 -0.2147  0.0389
  270POPC   GL1 3664   6.522   2.916   5.172  0.0537  0.1485  0.0512
  270POPC   GL2 3665   6.346   2.748   5.335  0.0357 -0.0106 -0.2283
  270POPC   C1A 3666   6.705   2.879   5.637 -0.1015  0.2802  0.1337
  270POPC   D2A 3667   7.047   2.723   5.801 -0.0245  0.0153  0.1091
  270POPC   C3A 3668   7.154   2.401   6.034  0.1095  0.1348 -0.2964
  270POPC   C4A 3669   7.251   2.445   6.397 -0.0949  0.1078  0.1298
  270POPC   C1B 3670   6.239   2.646   5.779  0.4488  0.0569  0.0586
  270POPC   C2B 3671   6.122   2.576   6.144  0.0099  0.0804 -0.2137
  270POPC   C3B 3672   6.287   2.484   6.538  0.0786  0.1253  0.2062
  270POPC   C4B 3673   6.319   2.723   6.940  0.0288  0.2363 -0.0481
  271POPC   NC3 3674   1.291   3.614   4.837  0.1051  0.0817  0.2306
  271POPC   PO4 3675   0.973   3.779   4.928  0.0160 -0.2058 -0.0963
  271POPC   GL1 3676   1.111   3.847   5.265 -0.0327 -0.0406 -0.0699
  271POPC   GL2 3677   1.297   4.123   5.340  0.0890  0.1773  0.4625
  271POPC   C1A 3678   1.328   3.700   5.593  0.2594  0.0265  0.0324
  271POPC   D2A 3679   1.518   3.673   5.874  0.0090  0.3950 -0.0967
  271POPC   C3A 3680   1.263   3.515   6.286 -0.0348  0.2465  0.0817
  271POPC   C4A 3681   1.120   3.396   6.674 -0.2676  0.0667 -0.0792
  271POPC   C1B 3682   1.680   4.116   5.647 -0.4241 -0.1232 -0.3242
  271POPC   C2B 3683   1.992   3.974   5.772 -0.0801 -0.2557 -0.0104
  271POPC   C3B 3684   2.224   3.749   5.986  0.0169 -0.2762  0.1270
  271POPC   C4B 3685   2.276   3.699   6.416  0.2951  0.3210  0.0869
  272POPC   NC3 3686   3.815   3.015   4.871  0.1455 -0.0802 -0.1148
  272POPC   PO4 3687   3.644   3.384   4.725  0.1562  0.0264  0.2212
  272POPC   GL1 3688   3.792   3.613   5.091 -0.1808 -0.0450 -0.0917
  272POPC   GL2 3689   4.008   3.545   5.406  0.0888  0.1989 -0.1624
  272POPC   C1A 3690   3.595   3.827   5.443 -0.1571  0.1280  0.1001
  272POPC   D2A 3691   3.606   4.094   5.734  0.0490 -0.0264  0.0570
  272POPC   C3A 3692   3.688   3.821   6.106 -0.2770 -0.3538 -0.0206
  272POPC   C4A 3693   3.915   3.444   6.201 -0.0332 -0.0553  0.2016
  272POPC   C1B 3694   4.100   3.726   5.780  0.0613 -0.0145  0.1092
  272POPC   C2B 3695   4.465   3.903   5.974  0.5044  0.0309 -0.1973
  272POPC   C3B 3696   4.598   4.302   6.078  0.2695  0.2959  0.0200
  272POPC   C4B 3697   4.606   4.693   6.476  0.0586 -0.0603  0.1182
  273POPC   NC3 3698   8.672   5.179   4.489 -0.1614 -0.0875  0.1014
  273POPC   PO4 3699   8.380   5.537   4.429  0.1525 -0.0295 -0.3195
  273POPC   GL1 3700   8.218   5.730   4.755 -0.3861  0.0235 -0.0125
  273POPC   GL2 3701   8.564   5.787   4.808 -0.0728  0.2903 -0.0867
  273POPC   C1A 3702   8.110   5.970   5.171  0.0791 -0.2092 -0.0861
  273POPC   D2A 3703   7.811   6.037   5.545  0.1890 -0.2697  0.2265
  273POPC   C3A 3704   8.065   6.180   5.843 -0.2441  0.2787 -0.1501
  273POPC   C4A 3705   8.222   6.164   6.278 -0.1092 -0.0521  0.1402
  273POPC   C1B 3706   8.527   5.670   5.187  0.0623  0.0126  0.1066
  273POPC   C2B 3707   8.206   5.591   5.580 -0.2257  0.0371 -0.0523
  273POPC   C3B 3708   8.012   5.638   5.980  0.0882 -0.1961  0.2316
  273POPC   C4B 3709   7.757   5.693   6.288  0.3979  0.1231  0.0489
  274POPC   NC3 3710   9.413   2.665   5.197  0.1088  0.0549 -0.0918
  274POPC   PO4 3711   8.942   2.692   5.350  0.1610  0.0013  0.0625
  274POPC   GL1 3712   9.192   2.805   5.718  0.1538 -0.2513  0.2681
  274POPC   GL2 3713   9.145   2.851   5.976  0.0122 -0.3839 -0.3730
  274POPC   C1A 3714   9.739   2.899   5.787  0.0628  0.3940  0.2195
  274POPC   D2A 3715  10.144   3.112   5.686 -0.0883 -0.0751 -0.1140
  274POPC   C3A 3716  10.518   3.026   6.072  0.2213  0.2580 -0.0494
  274POPC   C4A 3717  10.772   3.058   6.451 -0.1440  0.1251  0.2993
  274POPC   C1B 3718   8.761   2.806   6.310 -0.0166 -0.0030  0.0625
  274POPC   C2B 3719   8.683   3.053   6.792 -0.1041 -0.1966 -0.0801
  274POPC   C3B 3720   8.738   3.494   6.887  0.2164 -0.0120  0.0204
  274POPC   C4B 3721   8.775   3.857   6.498  0.0797  0.0886  0.0228
  275POPC   NC3 3722   0.574   0.176   4.187 -0.0025 -0.3064 -0.1132
  275POPC   PO4 3723   0.802  -0.084   4.452 -0.0982  0.2863 -0.0478
  275POPC   GL1 3724   0.772  -0.124   4.824  0.4960 -0.0466  0.0969
  275POPC   GL2 3725   0.523  -0.205   5.007  0.2411  0.0887 -0.2045
  275POPC   C1A 3726   0.786   0.178   5.094  0.3102  0.5476  0.2799
  275POPC   D2A 3727   0.866   0.296   5.460 -0.1590  0.2551  0.0851
  275POPC   C3A 3728   1.042   0.280   5.896  0.1756 -0.0495  0.0191
  275POPC   C4A 3729   1.228   0.585   6.112 -0.3820 -0.2936  0.2729
  275POPC   C1B 3730   0.905  -0.315   5.350 -0.1382  0.1292 -0.0630
  275POPC   C2B 3731   0.922  -0.310   5.766  0.0099 -0.1838  0.0456
  275POPC   C3B 3732   0.970  -0.168   6.172 -0.1979 -0.0836 -0.1605
  275POPC   C4B 3733   1.041   0.230   6.487  0.0943 -0.0887  0.2664
  276POPC   NC3 3734   7.161   1.003   4.494 -0.0325  0.1747 -0.1305
  276POPC   PO4 3735   7.234   1.409   4.574 -0.1158 -0.0728  0.1002
  276POPC   GL1 3736   7.491   1.405   4.988 -0.2731 -0.3574 -0.1610
  276POPC   GL2 3737   7.614   1.694   5.219 -0.0834  0.1023  0.1091
  276POPC   C1A 3738   7.398   1.271   5.448 -0.0185  0.0106  0.1051
  276POPC   D2A 3739   7.172   0.839   5.371 -0.1961  0.0823 -0.0102
  276POPC   C3A 3740   7.249   0.646   5.671 -0.2139  0.2272  0.1234
  276POPC   C4A 3741   7.572   0.247   5.758 -0.3834 -0.0418  0.4064
  276POPC   C1B 3742   7.488   1.682   5.663 -0.1290  0.2081 -0.2167
  276POPC   C2B 3743   7.211   1.546   6.037  0.3155 -0.1338  0.2465
  276POPC   C3B 3744   6.968   1.351   6.244  0.1426 -0.0301 -0.0706
  276POPC   C4B 3745   6.593   1.516   6.625 -0.0437 -0.2678 -0.4108
  277POPC   NC3 3746   6.982   9.037   2.938 -0.1618 -0.0038  0.0538
  277POPC   PO4 3747   6.983   8.644   2.704  0.1627  0.3395  0.0157
  277POPC   GL1 3748   6.707   8.364   2.996 -0.0212 -0.0052 -0.1268
  277POPC   GL2 3749   6.845   8.264   3.108 -0.2607  0.1183 -0.0682
  277POPC   C1A 3750   6.332   8.337   3.272  0.1223 -0.2288  0.0201
  277POPC   D2A 3751   6.062   8.370   3.766 -0.2320  0.0483 -0.0183
  277POPC   C3A 3752   5.782   8.057   3.958  0.1293  0.1332  0.1730
  277POPC   C4A 3753   5.604   7.658   4.126 -0.0174 -0.0306  0.0990
  277POPC   C1B 3754   6.716   7.987   3.376  0.1265 -0.4143  0.4165
  277POPC   C2B 3755   6.664   7.797   3.693  0.0799 -0.1248  0.0005
  277POPC   C3B 3756   6.733   7.862   4.132 -0.2995 -0.3319 -0.0579
  277POPC   C4B 3757   6.607   8.221   4.327  0.3325 -0.2976  0.1906
  278POPC   NC3 3758   9.138   1.424   4.573  0.1308  0.3264  0.1685
  278POPC   PO4 3759   9.360   1.290   4.882 -0.0474 -0.2618  0.0082
  278POPC   GL1 3760   9.294   1.295   5.348 -0.0702  0.1319 -0.1103
  278POPC   GL2 3761   9.084   1.189   5.412  0.0298 -0.0961  0.0072
  278POPC   C1A 3762   9.559   1.018   5.672 -0.2725 -0.1007 -0.4240
  278POPC   D2A 3763   9.566   0.805   6.010 -0.0090 -0.0503 -0.0224
  278POPC   C3A 3764   9.680   0.996   6.360  0.0815 -0.0979  0.1016
  278POPC   C4A 3765   9.728   1.352   6.571 -0.0722  0.3179 -0.2343
  278POPC   C1B 3766   8.729   1.037   5.584  0.0767 -0.0742  0.0332
  278POPC   C2B 3767   8.506   0.714   5.895  0.1090  0.1849 -0.1019
  278POPC   C3B 3768   8.263   0.633   6.289  0.0153 -0.3341 -0.1279
  278POPC   C4B 3769   8.041   0.435   6.612  0.0861  0.0566 -0.3501
  279POPC   NC3 3770   6.123   5.320   4.527 -0.2554 -0.4625  0.1926
  279POPC   PO4 3771   6.327   4.927   4.610 -0.0028 -0.0573 -0.1010
  279POPC   GL1 3772   6.148   5.083   4.969 -0.0411 -0.1090  0.1863
  279POPC   GL2 3773   5.857   5.193   5.063  0.1863  0.1854 -0.0529
  279POPC   C1A 3774   6.165   5.555   5.143  0.0166  0.1836  0.1187
  279POPC   D2A 3775   6.203   5.853   5.448  0.2197 -0.0709 -0.2657
  279POPC   C3A 3776   6.438   6.259   5.461 -0.1699 -0.3247 -0.0183
  279POPC   C4A 3777   6.539   6.645   5.530  0.2698 -0.1055 -0.0953
  279POPC   C1B 3778   5.473   5.062   5.004 -0.1215 -0.1950  0.1594
  279POPC   C2B 3779   5.089   5.191   5.364  0.0221  0.0819  0.0451
  279POPC   C3B 3780   4.817   5.153   5.781  0.2535 -0.2699 -0.0851
  279POPC   C4B 3781   4.785   5.606   6.064  0.2699  0.2193  0.2123
  280POPC   NC3 3782   0.071   3.118   5.245  0.2999  0.0925 -0.4668
  280POPC   PO4 3783  -0.017   2.706   5.166 -0.0595  0.0327 -0.0613
  280POPC   GL1 3784   0.252   2.658   5.490 -0.1391 -0.1930 -0.2062
  280POPC   GL2 3785   0.614   2.545   5.461 -0.1163  0.1386  0.3129
  280POPC   C1A 3786   0.264   2.636   5.937  0.0773  0.1384  0.0093
  280POPC   D2A 3787   0.460   2.463   6.329 -0.1420 -0.3560 -0.0677
  280POPC   C3A 3788   0.706   2.015   6.455  0.1478  0.0744 -0.1093
  280POPC   C4A 3789   1.130   2.021   6.358  0.1905 -0.0751 -0.0856
  280POPC   C1B 3790   0.785   2.618   5.817  0.2113 -0.2198 -0.0328
  280POPC   C2B 3791   0.949   2.595   6.258 -0.1960 -0.3522  0.0119
  280POPC   C3B 3792   0.892   2.480   6.636  0.1398 -0.2252 -0.4591
  280POPC   C4B 3793   0.777   2.297   6.924 -0.1082 -0.0480  0.1591
  281POPC   NC3 3794   8.919   8.534   4.869  0.4432 -0.0381  0.0938
  281POPC   PO4 3795   8.671   8.940   4.881 -0.1903 -0.2356  0.0682
  281POPC   GL1 3796   8.591   8.811   5.331  0.0168 -0.1148  0.1788
  281POPC   GL2 3797   8.856   8.592   5.359  0.0789 -0.3244  0.0714
  281POPC   C1A 3798   8.348   8.923   5.762  0.0000 -0.4150 -0.2477
  281POPC   D2A 3799   8.055   8.969   5.982 -0.0582 -0.2688 -0.2809
  281POPC   C3A 3800   7.948   8.758   6.352  0.1203  0.0498  0.2648
  281POPC   C4A 3801   7.784   8.750   6.810  0.0109 -0.1713  0.1392
  281POPC   C1B 3802   8.411   8.457   5.640 -0.0604  0.2093  0.1869
  281POPC   C2B 3803   8.324   8.368   6.046 -0.1138  0.0212  0.2277
  281POPC   C3B 3804   8.345   8.101   6.260  0.0711  0.1097  0.0606
  281POPC   C4B 3805   8.425   7.865   6.687  0.0428  0.0254  0.0359
  282POPC   NC3 3806   2.722   6.969   3.704  0.0041 -0.0812  0.0452
  282POPC   PO4 3807   2.457   6.612   4.028 -0.0791  0.1995 -0.3130
  282POPC   GL1 3808   2.627   6.537   4.519 -0.2055 -0.0624  0.3219
  282POPC   GL2 3809   2.808   6.307   4.479  0.1538 -0.4015 -0.0536
  282POPC   C1A 3810   2.573   6.789   4.926 -0.0613 -0.2784 -0.0945
  282POPC   D2A 3811   2.577   7.116   5.261 -0.1059 -0.3907 -0.0810
  282POPC   C3A 3812   2.807   7.474   5.395 -0.0809 -0.0913 -0.0279
  282POPC   C4A 3813   3.126   7.844   5.502 -0.2999  0.0934 -0.3220
  282POPC   C1B 3814   3.175   6.531   4.555  0.0037 -0.2134 -0.0708
  282POPC   C2B 3815   3.387   6.658   4.923  0.0908 -0.2022  0.0498
  282POPC   C3B 3816   3.532   7.003   5.143  0.2008  0.2859  0.0269
  282POPC   C4B 3817   3.628   7.171   5.571 -0.0585 -0.1271  0.2013
  283POPC   NC3 3818   5.634   4.236   5.019  0.1398 -0.1231  0.1888
  283POPC   PO4 3819   5.400   4.478   4.638 -0.0441 -0.1005 -0.2156
  283POPC   GL1 3820   5.294   4.562   5.022  0.2196  0.2015  0.0388
  283POPC   GL2 3821   5.043   4.765   4.997  0.3025 -0.2232 -0.3378
  283POPC   C1A 3822   5.366   4.795   5.415 -0.1649  0.1841 -0.1225
  283POPC   D2A 3823   5.293   4.929   5.762  0.0527  0.1320  0.1209
  283POPC   C3A 3824   5.577   5.041   6.105  0.0038  0.0064 -0.1873
  283POPC   C4A 3825   5.819   5.361   6.156 -0.0193  0.2938  0.2679
  283POPC   C1B 3826   4.765   4.763   5.338  0.1422  0.0576 -0.0842
  283POPC   C2B 3827   4.456   4.791   5.743  0.2077  0.0821  0.0508
  283POPC   C3B 3828   4.108   4.707   6.095 -0.1091 -0.2505 -0.1257
  283POPC   C4B 3829   4.055   4.531   6.554  0.1134  0.0102 -0.0726
  284POPC   NC3 3830   3.792   5.409   4.410  0.0164 -0.2837  0.1302
  284POPC   PO4 3831   3.328   5.155   4.502  0.1750  0.1564 -0.3378
  284POPC   GL1 3832   3.127   5.208   4.902 -0.1823 -0.0878  0.2047
  284POPC   GL2 3833   2.950   5.429   4.835  0.0066  0.3356  0.2794
  284POPC   C1A 3834   3.347   5.332   5.266 -0.0953  0.2354 -0.3025
  284POPC   D2A 3835   3.550   5.401   5.692 -0.0935 -0.0543  0.1680
  284POPC   C3A 3836   3.645   5.009   6.027 -0.1076 -0.1883  0.4365
  284POPC   C4A 3837   3.395   4.946   6.326 -0.0671 -0.1585 -0.2241
  284POPC   C1B 3838   2.742   5.487   5.240  0.0572 -0.0105 -0.2373
  284POPC   C2B 3839   2.871   5.669   5.597  0.1012  0.0752 -0.0483
  284POPC   C3B 3840   2.794   5.745   6.047 -0.2772 -0.1781  0.1894
  284POPC   C4B 3841   2.762   6.037   6.374  0.1255 -0.0269  0.0319
  285POPC   NC3 3842   5.144   6.266   2.737  0.2054  0.1453  0.1103
  285POPC   PO4 3843   5.013   6.630   2.510  0.3090 -0.2026  0.1885
  285POPC   GL1 3844   5.103   6.916   2.816 -0.0337  0.1461 -0.1406
  285POPC   GL2 3845   4.759   6.846   2.917 -0.2811 -0.1644 -0.2031
  285POPC   C1A 3846   5.037   7.040   3.252  0.0743  0.4152 -0.0354
  285POPC   D2A 3847   4.747   7.264   3.503 -0.0809 -0.3373  0.1217
  285POPC   C3A 3848   4.733   7.692   3.759 -0.0252  0.0790  0.1537
  285POPC   C4A 3849   4.853   8.165   4.016 -0.0052 -0.0382  0.0608
  285POPC   C1B 3850   4.419   7.004   3.258  0.0512 -0.0157 -0.1113
  285POPC   C2B 3851   4.154   7.230   3.607 -0.2340  0.2351 -0.0837
  285POPC   C3B 3852   4.253   7.327   3.982 -0.1442  0.0440 -0.2127
  285POPC   C4B 3853   4.219   7.177   4.383  0.1708 -0.2352  0.0426
  286POPC   NC3 3854   5.889   1.726   3.925 -0.3905  0.0621 -0.3345
  286POPC   PO4 3855   5.984   1.274   4.054  0.1605 -0.1484 -0.0652
  286POPC   GL1 3856   6.095   1.211   4.545  0.1520  0.0659 -0.1925
  286POPC   GL2 3857   6.425   1.085   4.629 -0.2719 -0.0771  0.2615
  286POPC   C1A 3858   5.933   1.141   5.014 -0.1612  0.0933  0.2303
  286POPC   D2A 3859   6.098   0.951   5.410  0.1018  0.2521  0.2208
  286POPC   C3A 3860   5.911   0.654   5.683 -0.0376  0.1407 -0.3738
  286POPC   C4A 3861   5.614   0.521   5.971 -0.3513 -0.2585 -0.0938
  286POPC   C1B 3862   6.417   0.860   4.935  0.0651 -0.3215 -0.2965
  286POPC   C2B 3863   6.456   1.189   5.185  0.1800 -0.0788 -0.2413
  286POPC   C3B 3864   6.483   1.192   5.637 -0.0257 -0.4131 -0.3225
  286POPC   C4B 3865   6.355   0.831   5.823  0.1951  0.0583  0.0592
  287POPC   NC3 3866   7.703   5.149   4.939  0.0071 -0.0178 -0.0752
  287POPC   PO4 3867   7.627   4.737   4.898 -0.1961 -0.0878  0.0612
  287POPC   GL1 3868   7.587   4.830   5.329  0.2333 -0.1635 -0.1335
  287POPC   GL2 3869   7.304   4.621   5.459 -0.3088 -0.0346  0.0529
  287POPC   C1A 3870   7.507   5.076   5.712 -0.0429 -0.1907  0.2340
  287POPC   D2A 3871   7.261   5.307   6.166 -0.0280 -0.3739  0.3019
  287POPC   C3A 3872   6.943   5.106   6.267  0.4347 -0.1098  0.0513
  287POPC   C4A 3873   6.658   4.850   6.459  0.2298  0.0951  0.2321
  287POPC   C1B 3874   7.401   4.398   5.935 -0.1345  0.3299 -0.0439
  287POPC   C2B 3875   7.368   4.273   6.322 -0.0394  0.0570 -0.1731
  287POPC   C3B 3876   7.706   4.415   6.540 -0.0195  0.0876  0.0695
  287POPC   C4B 3877   7.698   4.605   6.976  0.0954 -0.2243 -0.0706
  288POPC   NC3 3878   8.014   7.894   3.788  0.1489 -0.0476 -0.0679
  288POPC   PO4 3879   7.614   8.185   3.793  0.1209  0.2452  0.0154
  288POPC   GL1 3880   7.592   8.013   4.181  0.0102 -0.3464 -0.2263
  288POPC   GL2 3881   7.452   8.311   4.308  0.1236 -0.1979 -0.2779
  288POPC   C1A 3882   7.437   7.895   4.644 -0.3574 -0.0997  0.3366
  288POPC   D2A 3883   7.149   7.666   4.895 -0.1725  0.0048  0.1183
  288POPC   C3A 3884   6.835   7.787   5.192  0.1055 -0.3101  0.0218
  288POPC   C4A 3885   6.681   8.067   5.429 -0.0930  0.0523 -0.1402
  288POPC   C1B 3886   7.079   8.144   4.418 -0.2514  0.2866  0.0324
  288POPC   C2B 3887   6.763   7.867   4.607  0.0196 -0.0241  0.0189
  288POPC   C3B 3888   6.291   7.972   4.600 -0.0057  0.1753 -0.0737
  288POPC   C4B 3889   5.865   7.862   4.457 -0.2494 -0.1142 -0.1776
  289POPC   NC3 3890   4.330   4.294   3.908 -0.0809 -0.2532 -0.1856
  289POPC   PO4 3891   4.578   4.579   4.153 -0.2062  0.1367  0.2077
  289POPC   GL1 3892   4.439   4.760   4.569 -0.2601 -0.3238  0.1489
  289POPC   GL2 3893   4.434   4.639   4.844  0.1379  0.0542  0.1057
  289POPC   C1A 3894   4.601   5.055   4.967  0.2315 -0.0507 -0.3849
  289POPC   D2A 3895   4.388   5.176   5.388  0.1243  0.1788 -0.2427
  289POPC   C3A 3896   4.411   5.520   5.697  0.0311  0.0903  0.1752
  289POPC   C4A 3897   4.483   5.967   5.610 -0.1874 -0.0062 -0.3573
  289POPC   C1B 3898   4.287   4.686   5.249 -0.0351  0.2299  0.0208
  289POPC   C2B 3899   4.315   4.305   5.668  0.2568 -0.1550 -0.2539
  289POPC   C3B 3900   4.062   4.208   6.076 -0.1025 -0.1211  0.2507
  289POPC   C4B 3901   4.039   3.962   6.431 -0.0775  0.0356  0.1539
  290POPC   NC3 3902   5.931   3.459   4.930  0.1532  0.3033 -0.0751
  290POPC   PO4 3903   5.535   3.481   5.156  0.0530  0.0483 -0.0388
  290POPC   GL1 3904   5.612   3.834   5.502 -0.3529 -0.0867  0.1627
  290POPC   GL2 3905   5.814   3.652   5.646 -0.1258  0.0178  0.4507
  290POPC   C1A 3906   5.513   3.934   5.998 -0.1566  0.1167  0.2764
  290POPC   D2A 3907   5.384   3.798   6.392 -0.2314 -0.1082 -0.0697
  290POPC   C3A 3908   5.016   3.982   6.656 -0.0802  0.1426 -0.0347
  290POPC   C4A 3909   4.584   4.188   6.538  0.1542  0.1120  0.1086
  290POPC   C1B 3910   6.124   3.542   5.934  0.3908 -0.1441 -0.1321
  290POPC   C2B 3911   6.034   3.843   6.244  0.3068 -0.0621 -0.0530
  290POPC   C3B 3912   6.259   4.025   6.490 -0.1013 -0.0385  0.0129
  290POPC   C4B 3913   6.621   3.849   6.664 -0.0039  0.2863 -0.0297
  291POPC   NC3 3914   1.799   2.836   4.710  0.2590  0.0337 -0.3629
  291POPC   PO4 3915   1.950   3.119   4.994 -0.0811  0.2100  0.1101
  291POPC   GL1 3916   2.127   3.112   5.388 -0.2024 -0.2915 -0.2425
  291POPC   GL2 3917   2.136   2.804   5.368 -0.2651 -0.0619  0.2452
  291POPC   C1A 3918   2.392   3.303   5.696  0.1388 -0.0087  0.2080
  291POPC   D2A 3919   2.529   3.091   6.123 -0.3053 -0.0594  0.0218
  291POPC   C3A 3920   2.661   3.127   6.532  0.0170 -0.1360 -0.0615
  291POPC   C4A 3921   2.907   3.511   6.709 -0.0922 -0.2614  0.0546
  291POPC   C1B 3922   2.247   2.800   5.872  0.1885 -0.0806  0.1438
  291POPC   C2B 3923   2.401   2.659   6.309 -0.3543  0.0043  0.1255
  291POPC   C3B 3924   2.815   2.613   6.427 -0.1111 -0.3307  0.2765
  291POPC   C4B 3925   3.073   2.927   6.336 -0.1643 -0.1340 -0.1894
  292POPC   NC3 3926   0.681   6.809   4.179  0.0906  0.0090  0.1472
  292POPC   PO4 3927   0.713   6.713   4.592 -0.0622 -0.0785  0.1782
  292POPC   GL1 3928   0.442   6.374   4.803 -0.1053 -0.0418  0.2283
  292POPC   GL2 3929   0.084   6.343   4.818 -0.1813  0.3096 -0.3731
  292POPC   C1A 3930   0.343   6.136   5.164  0.4957 -0.0582  0.2003
  292POPC   D2A 3931   0.353   5.895   5.547  0.0680 -0.2408 -0.0419
  292POPC   C3A 3932   0.214   5.987   5.954 -0.2665  0.2517  0.1471
  292POPC   C4A 3933  -0.069   5.957   6.203 -0.0057  0.2302  0.2356
  292POPC   C1B 3934  -0.095   6.311   5.240  0.0828  0.3466  0.1385
  292POPC   C2B 3935   0.015   6.354   5.555  0.0869  0.2310 -0.1774
  292POPC   C3B 3936  -0.122   6.405   5.939 -0.0547 -0.0305 -0.2419
  292POPC   C4B 3937  -0.449   6.260   6.229  0.2464  0.2192  0.3497
  293POPC   NC3 3938   7.247   2.414   4.510 -0.1482 -0.4299 -0.0292
  293POPC   PO4 3939   7.554   2.395   4.873  0.0027 -0.2560  0.1493
  293POPC   GL1 3940   7.667   2.183   5.270 -0.2354  0.1862 -0.0943
  293POPC   GL2 3941   7.888   2.409   5.503  0.2350  0.1244  0.0360
  293POPC   C1A 3942   7.913   1.881   5.589  0.0302 -0.0636  0.0961
  293POPC   D2A 3943   8.203   1.693   5.888  0.2717 -0.0374  0.0459
  293POPC   C3A 3944   8.256   1.241   6.002  0.1430  0.0505  0.2144
  293POPC   C4A 3945   8.665   1.122   6.122 -0.3348  0.1510 -0.1153
  293POPC   C1B 3946   8.039   2.809   5.762  0.0917 -0.0938 -0.1002
  293POPC   C2B 3947   7.979   2.809   6.242 -0.2005  0.0633 -0.1065
  293POPC   C3B 3948   7.684   2.721   6.563 -0.0855  0.0956 -0.0425
  293POPC   C4B 3949   7.413   2.616   6.844 -0.0757  0.2877  0.1119
  294POPC   NC3 3950   3.115   4.716   4.715  0.0332 -0.0477 -0.2346
  294POPC   PO4 3951   3.498   4.653   4.755 -0.3072  0.0872  0.7010
  294POPC   GL1 3952   3.382   4.674   5.154 -0.0804 -0.2339  0.2412
  294POPC   GL2 3953   3.711   4.604   5.215  0.1057 -0.1774 -0.0065
  294POPC   C1A 3954   3.444   4.866   5.555 -0.2980 -0.4321  0.0677
  294POPC   D2A 3955   3.758   4.566   5.766 -0.1303 -0.1263 -0.0727
  294POPC   C3A 3956   3.537   4.465   6.243  0.0084  0.3304 -0.2952
  294POPC   C4A 3957   3.631   4.184   6.602 -0.0331  0.1465  0.1151
  294POPC   C1B 3958   3.939   4.951   5.517 -0.0508  0.0027  0.0207
  294POPC   C2B 3959   4.184   5.187   5.943 -0.0019  0.0068  0.1904
  294POPC   C3B 3960   4.466   5.153   6.278 -0.0205  0.1723 -0.1107
  294POPC   C4B 3961   4.853   5.279   6.482 -0.4003  0.0032 -0.0244
  295POPC   NC3 3962   9.469   8.620   4.626 -0.1113 -0.0654 -0.2201
  295POPC   PO4 3963   9.319   8.932   4.955 -0.0882 -0.1347 -0.4069
  295POPC   GL1 3964   9.016   9.124   5.231 -0.4720 -0.0496  0.1471
  295POPC   GL2 3965   8.938   9.440   5.410  0.0321 -0.0515 -0.2675
  295POPC   C1A 3966   8.923   8.993   5.677  0.3974  0.1267 -0.0803
  295POPC   D2A 3967   8.895   9.381   5.973 -0.1237 -0.1472  0.0971
  295POPC   C3A 3968   8.980   9.794   6.039 -0.1241  0.0240 -0.0194
  295POPC   C4A 3969   8.909  10.062   5.707  0.0018  0.2381  0.2577
  295POPC   C1B 3970   8.502   9.266   5.498  0.1548 -0.0766  0.0983
  295POPC   C2B 3971   8.042   9.080   5.319  0.0565 -0.2657 -0.0390
  295POPC   C3B 3972   7.765   9.003   5.082  0.2376 -0.3589  0.1976
  295POPC   C4B 3973   7.350   9.036   4.990  0.0445  0.0368 -0.1917
  296POPC   NC3 3974   2.696   1.112   4.758  0.1642 -0.2391 -0.0272
  296POPC   PO4 3975   2.302   0.818   4.779 -0.1623  0.2730  0.0164
  296POPC   GL1 3976   2.507   0.910   5.232 -0.0020 -0.2536  0.1085
  296POPC   GL2 3977   2.868   0.997   5.299  0.2654  0.2691  0.0545
  296POPC   C1A 3978   2.474   0.809   5.669 -0.1521  0.3478  0.0768
  296POPC   D2A 3979   2.442   0.573   6.122 -0.2169  0.0484  0.0862
  296POPC   C3A 3980   2.564   0.773   6.566 -0.6671  0.3860 -0.4640
  296POPC   C4A 3981   2.505   0.849   7.053  0.2058 -0.1346 -0.3477
  296POPC   C1B 3982   2.963   0.886   5.624 -0.3108 -0.0355  0.0022
  296POPC   C2B 3983   2.930   0.655   5.942 -0.0055 -0.3367  0.1441
  296POPC   C3B 3984   3.301   0.545   6.138 -0.2277 -0.0652 -0.0930
  296POPC   C4B 3985   3.625   0.478   6.379 -0.0707 -0.1999 -0.1228
  297POPC   NC3 3986   2.409   8.416   3.655 -0.1710 -0.1022  0.1756
  297POPC   PO4 3987   2.258   8.523   4.099  0.0127 -0.0897 -0.0861
  297POPC   GL1 3988   2.692   8.350   4.145  0.1324  0.1915  0.0673
  297POPC   GL2 3989   2.873   8.541   4.305  0.4282 -0.3277 -0.1639
  297POPC   C1A 3990   3.174   8.314   4.059 -0.2074 -0.1329  0.3246
  297POPC   D2A 3991   3.635   8.218   4.129 -0.2755  0.2475 -0.0548
  297POPC   C3A 3992   4.003   8.212   3.920 -0.2021 -0.1381 -0.0944
  297POPC   C4A 3993   4.401   8.228   3.658  0.0363  0.0063 -0.0193
  297POPC   C1B 3994   3.277   8.592   4.495 -0.2997 -0.2266 -0.0414
  297POPC   C2B 3995   3.504   8.650   4.760 -0.2867  0.0786  0.3279
  297POPC   C3B 3996   3.937   8.737   4.943 -0.0241  0.2718  0.0050
  297POPC   C4B 3997   3.963   8.901   5.284 -0.0690  0.2068 -0.3496
  298POPC   NC3 3998   0.265   1.264   4.593 -0.0388 -0.1176  0.1408
  298POPC   PO4 3999   0.448   1.598   4.883  0.0129 -0.1407 -0.1384
  298POPC   GL1 4000   0.473   1.173   5.123 -0.1145 -0.1414  0.2209
  298POPC   GL2 4001   0.318   0.942   5.027  0.0064 -0.0106  0.2110
  298POPC   C1A 4002   0.418   1.066   5.574  0.1415 -0.2314  0.1003
  298POPC   D2A 4003   0.103   1.095   5.916 -0.1793  0.1525  0.2452
  298POPC   C3A 4004   0.249   0.811   6.161 -0.0638  0.3378  0.1207
  298POPC   C4A 4005   0.066   0.571   6.509  0.0328 -0.0552 -0.1971
  298POPC   C1B 4006   0.377   0.588   5.297  0.1817  0.0116 -0.2261
  298POPC   C2B 4007   0.525   0.584   5.740 -0.1815  0.0034  0.0635
  298POPC   C3B 4008   0.701   0.598   6.140  0.2165  0.4487 -0.0608
  298POPC   C4B 4009   0.611   0.480   6.558  0.1804 -0.2407 -0.1942
  299POPC   NC3 4010   1.734   8.456   3.863 -0.2479 -0.1068  0.0984
  299POPC   PO4 4011   1.985   8.121   4.097 -0.1467  0.1476  0.2635
  299POPC   GL1 4012   2.134   8.146   4.488  0.1687 -0.0125  0.0438
  299POPC   GL2 4013   2.325   8.510   4.601  0.0357  0.1142  0.1441
  299POPC   C1A 4014   2.196   7.890   4.821  0.2619  0.0175  0.0757
  299POPC   D2A 4015   2.100   7.966   5.347  0.3395  0.0289  0.1104
  299POPC   C3A 4016   1.813   7.646   5.605 -0.3319  0.0163 -0.0849
  299POPC   C4A 4017   1.735   7.291   5.411 -0.1620 -0.0103 -0.1070
  299POPC   C1B 4018   2.254   8.353   5.024  0.0684 -0.0001  0.0041
  299POPC   C2B 4019   2.186   8.501   5.445 -0.0806  0.2250 -0.0332
  299POPC   C3B 4020   1.937   8.623   5.741  0.0350 -0.0909  0.1095
  299POPC   C4B 4021   1.465   8.631   5.772 -0.0207 -0.2073 -0.0719
  300POPC   NC3 4022   7.798   7.045   3.910 -0.2748 -0.0679  0.3838
  300POPC   PO4 4023   7.751   6.579   3.991  0.0858 -0.0787  0.1921
  300POPC   GL1 4024   7.328   6.483   4.157  0.1304  0.0636  0.2052
  300POPC   GL2 4025   7.330   6.756   4.282  0.0503  0.0321 -0.0703
  300POPC   C1A 4026   6.972   6.468   4.330  0.4679  0.1167  0.0255
  300POPC   D2A 4027   6.766   6.535   4.739 -0.5073  0.0084  0.5022
  300POPC   C3A 4028   6.564   6.215   4.953  0.0309  0.0846 -0.2629
  300POPC   C4A 4029   6.230   6.005   4.991  0.0580  0.0008  0.0781
  300POPC   C1B 4030   7.149   6.939   4.486 -0.1107  0.2153 -0.0185
  300POPC   C2B 4031   6.984   7.106   4.824  0.2729  0.1107 -0.0634
  300POPC   C3B 4032   6.853   6.802   5.134 -0.2250 -0.1180  0.3334
  300POPC   C4B 4033   6.981   6.308   5.255 -0.0906  0.0246 -0.1437
  301POPC   NC3 4034   5.697   0.028   3.238  0.2599  0.0992  0.1462
  301POPC   PO4 4035   6.136   0.059   3.399  0.1797  0.0670  0.2468
  301POPC   GL1 4036   5.857   0.051   3.797 -0.0106 -0.0020  0.1819
  301POPC   GL2 4037   5.511  -0.031   3.718  0.2169 -0.2136 -0.1102
  301POPC   C1A 4038   6.099  -0.160   4.138 -0.0104 -0.0220  0.1427
  301POPC   D2A 4039   6.236  -0.342   4.554 -0.3847  0.1832 -0.0159
  301POPC   C3A 4040   5.930  -0.501   4.931  0.1851  0.1472 -0.0269
  301POPC   C4A 4041   5.689  -0.258   5.309 -0.1701  0.1101  0.0002
  301POPC   C1B 4042   5.456   0.052   4.139  0.2026 -0.3248 -0.0098
  301POPC   C2B 4043   5.346   0.094   4.486 -0.0921 -0.1711 -0.0875
  301POPC   C3B 4044   5.226   0.294   4.855 -0.2711 -0.0964  0.0476
  301POPC   C4B 4045   5.252   0.369   5.386 -0.0129 -0.1753 -0.2446
  302W        W 4046   9.384   0.795   3.296  0.0895 -0.0329  0.2447
  303W        W 4047   3.720   3.994  12.205  0.2285 -0.0553 -0.0564
  304W        W 4048   4.530   4.673   3.625 -0.1868 -0.2859 -0.1619
  305W        W 4049   5.351   9.861   9.652 -0.1353 -0.0030  0.0221
  306W        W 4050   3.061   2.036  11.551  0.0967 -0.1765 -0.1277
  307W        W 4051   9.747   7.933  10.281 -0.0732 -0.1581  0.2024
  308W        W 4052   2.843   0.827   3.808 -0.1189  0.3102  0.1757
  309W        W 4053   1.992   2.242   1.806  0.0375 -0.4918  0.1704
  310W        W 4054   6.014   4.224  10.656  0.1064 -0.1719  0.3429
  311W        W 4055   0.020   4.534   3.264  0.1289  0.2569 -0.0688
  312W        W 4056   4.956   0.177  11.936  0.3500  0.1049  0.2279
  313W        W 4057   8.341   0.880  10.144 -0.0372 -0.1005  0.0692
  314W        W 4058   2.261   5.362   9.784 -0.2014  0.0490 -0.3094
  315W        W 4059   8.703   0.017   1.675  0.0546  0.1720  0.0779
  316W        W 4060   8.920   3.251   5.571 -0.0317  0.1623 -0.0138
  317W        W 4061   3.587   3.367   9.895  0.4426  0.0322 -0.2477
  318W        W 4062   5.624   7.943  11.619 -0.0504 -0.0994 -0.0660
  319W        W 4063   7.581   7.593   3.282 -0.3995 -0.1989  0.0857
  320W        W 4064   1.548   8.162   0.435  0.2824  0.0860 -0.0236
  321W        W 4065   3.766   4.453  12.044  0.0700  0.0684 -0.1163
  322W        W 4066   6.738   7.390  10.408  0.1000 -0.0168  0.0089
  323W        W 4067   7.489   0.173   2.369 -0.0138 -0.1916 -0.1004
  324W        W 4068   8.010   4.504   3.537  0.0689  0.0073 -0.2173
  325W        W 4069   8.478   8.337   1.246  0.0200 -0.2597  0.1216
  326W        W 4070   8.290   5.589   0.374 -0.2387  0.0803 -0.1044
  327W        W 4071   3.722   7.128   2.192  0.0399 -0.0601  0.2587
  328W        W 4072   1.680   6.880  11.163 -0.3041 -0.1380  0.1339
  329W        W 4073   9.087   4.793  10.120  0.3585 -0.1133 -0.1185
  330W        W 4074   0.223   4.679   4.364 -0.3370  0.2730  0.0641
  331W        W 4075   0.359   5.669   0.467 -0.2645  0.1449  0.0622
  332W        W 4076   4.385   8.824   6.866  0.1992 -0.1130  0.2171
  333W        W 4077   0.833   4.764   1.386 -0.2183 -0.0705 -0.2610
  334W        W 4078   6.484   5.434   1.465  0.2078 -0.2766 -0.1463
  335W        W 4079   9.238   5.576  11.546  0.0902  0.2750 -0.0715
  336W        W 4080   5.298   0.530   0.774 -0.4281 -0.2855  0.2872
  337W        W 4081   7.902   9.143   9.798 -0.2067  0.2147 -0.0906
  338W        W 4082   9.177   8.289   3.982 -0.1941  0.4943 -0.0800
  339W        W 4083   6.911   1.849   2.515  0.0203 -0.0334 -0.2987
  340W        W 4084   6.707   6.565   3.059 -0.0379 -0.0847 -0.2411
  341W        W 4085   2.929   4.653  10.910 -0.1002  0.1601 -0.1186
  342W        W 4086   6.447   8.493  11.029  0.1086 -0.3154 -0.1208
  343W        W 4087   7.000   1.273   1.881  0.0719  0.0908  0.0539
  344W        W 4088   2.624   6.476  10.609 -0.0498  0.1553  0.0371
  345W        W 4089   8.047   2.206   0.984 -0.0904 -0.0798  0.1005
  346W        W 4090   7.928   2.041   4.796  0.0557  0.1374 -0.1861
  347W        W 4091   6.807   1.655   9.943  0.2387 -0.1481  0.1606
  348W        W 4092   3.178   6.752  12.756  0.2227  0.1162  0.1537
  349W        W 4093   4.255   6.167   2.398  0.0415  0.2659 -0.0916
  350W        W 4094   1.299   1.068   3.179 -0.0342 -0.1135 -0.2227
  351W        W 4095   4.110   4.595  10.162 -0.2089  0.3273  0.0567
  352W        W 4096   3.169   7.086   0.408  0.0968  0.3815 -0.2697
  353W        W 4097   0.391   2.579   4.436  0.1380 -0.1085 -0.0648
  354W        W 4098   8.246   1.876   1.455 -0.0038 -0.0773  0.0574
  355W        W 4099   7.434   8.997   0.599  0.3321  0.5016  0.0257
  356W        W 4100   3.443   4.201   1.238  0.0307  0.4121  0.0105
  357W        W 4101   6.421   2.786   7.732  0.1838 -0.4648 -0.0477
  358W        W 4102   0.583   6.502   0.097  0.1467 -0.3071 -0.0421
  359W        W 4103   9.762   6.446  11.706  0.0992 -0.0532 -0.1227
  360W        W 4104   4.791   6.605  10.917 -0.0062 -0.1212 -0.0782
  361W        W 4105   0.847   4.923  11.104  0.2647 -0.6208 -0.2920
  362W        W 4106   7.879   9.728  12.145 -0.4001 -0.0238 -0.0137
  363W        W 4107   0.203   3.127  10.506 -0.3051  0.3132 -0.2041
  364W        W 4108   3.283   0.325  10.403  0.0342  0.0535  0.0386
  365W        W 4109   2.965   9.134   9.705  0.0390  0.0649 -0.1633
  366W        W 4110   0.596   8.707   2.253  0.1087 -0.1361 -0.0107
  367W        W 4111   4.257   2.453   2.161 -0.1072  0.2911 -0.0201
  368W        W 4112   7.687   6.400   9.578  0.0889  0.3769 -0.2792
  369W        W 4113   3.656   3.105   5.391 -0.0989 -0.2384  0.4584
  370W        W 4114   7.898   4.572   0.603 -0.1431  0.3423 -0.0285
  371W        W 4115   8.212   5.843   2.029 -0.1982 -0.3131  0.0772
  372W        W 4116   7.856   1.185   5.170 -0.1584  0.1344 -0.1799
  373W        W 4117   3.673   2.173  12.712  0.1960  0.1319 -0.1108
  374W        W 4118   7.989   9.526  11.031  0.1326 -0.1593 -0.2978
  375W        W 4119   7.744   9.274  12.386  0.1205  0.1142 -0.0547
  376W        W 4120   0.336   9.844   3.169  0.1738  0.2339 -0.1022
  377W        W 4121   4.600   9.820   2.704 -0.0000  0.0367  0.0713
  378W        W 4122   3.784   9.535  10.689  0.0369 -0.2880 -0.0681
  379W        W 4123   6.790   5.897   9.167 -0.0746  0.0744 -0.2565
  380W        W 4124   9.570   0.418   9.813  0.2454 -0.0005  0.0581
  381W        W 4125   1.388   7.347   0.662 -0.2265 -0.1222 -0.3234
  382W        W 4126   2.516   4.497  10.612 -0.0946  0.3674  0.1195
  383W        W 4127   3.483   0.633   2.599  0.0526  0.1420  0.3628
  384W        W 4128   0.465   1.956  12.227 -0.2936 -0.1169  0.1546
  385W        W 4129   9.783   3.481   3.022 -0.2943  0.2047  0.2908
  386W        W 4130   6.570   1.329   9.127  0.0659 -0.0675  0.2846
  387W        W 4131   1.163   1.960   1.355 -0.1235 -0.0457 -0.0381
  388W        W 4132   7.742   7.149   0.676 -0.2798  0.0754 -0.5118
  389W        W 4133   7.136   4.459   9.618 -0.1262  0.3667  0.0681
  390W        W 4134   9.585   9.849   0.456  0.2993 -0.2305 -0.1594
  391W        W 4135   3.215   9.835  10.800  0.3540  0.0297  0.0444
  392W        W 4136   0.587   8.690   8.465  0.2885  0.1646 -0.0415
  393W        W 4137   4.839   3.592   4.004 -0.1171 -0.1191 -0.0914
  394W        W 4138   4.355   2.115   9.119  0.0280  0.0683  0.0446
  395W        W 4139   1.530   7.916   2.674  0.0677 -0.0805  0.0541
  396W        W 4140   4.010   4.417   0.962 -0.1723 -0.2616 -0.3794
  397W        W 4141   6.581   4.689   2.293  0.0607  0.1554  0.0664
  398W        W 4142   9.122   4.800   2.422  0.0993 -0.1812 -0.1471
  399W        W 4143   3.705   3.311   3.203 -0.0553 -0.1806  0.1611
  400W        W 4144   0.262   1.630   5.346  0.0180  0.1383 -0.0687
  401W        W 4145   8.913   8.805  11.116 -0.0283 -0.1276  0.0060
  402W        W 4146   0.024   8.564  10.957  0.0025 -0.2390 -0.2762
  403W        W 4147   7.207   1.803   1.667 -0.2348  0.2215  0.0855
  404W        W 4148   8.474   3.101   0.949  0.1620 -0.1019 -0.4756
  405W        W 4149   1.759   9.248  12.371 -0.2142 -0.0663 -0.1822
  406W        W 4150   2.414   6.197   9.879  0.1048 -0.0604 -0.1486
  407W        W 4151   6.184   5.156   9.227 -0.0988 -0.3170  0.0318
  408W        W 4152   6.334   3.575   4.138 -0.0395 -0.0714 -0.3050
  409W        W 4153   3.866   5.498  11.987 -0.0919 -0.0272 -0.0678
  410W        W 4154   7.446   2.542  10.956 -0.1808  0.0930  0.1452
  411W        W 4155   0.252   5.634  11.168  0.0462  0.1848  0.1706
  412W        W 4156   6.304   3.077  10.521 -0.1656 -0.1875 -0.0966
  413W        W 4157   4.811   3.107   2.184 -0.0380 -0.2078 -0.2137
  414W        W 4158   9.062   5.385   1.055  0.1525 -0.0344  0.2435
  415W        W 4159   2.752   3.518   3.651 -0.2207 -0.1729 -0.0327
  416W        W 4160   7.003   4.063   9.175 -0.0639  0.1546 -0.2167
  417W        W 4161   4.734   2.453   0.443 -0.1906  0.0043 -0.2875
  418W        W 4162   0.868   9.630  10.334 -0.3041 -0.2271  0.1088
  419W        W 4163   5.025   2.658   4.303 -0.0669  0.1527  0.0351
  420W        W 4164   2.817   5.079   2.480  0.4639  0.0047 -0.1853
  421W        W 4165   7.308   2.269   1.534  0.1822 -0.0776  0.0235
  422W        W 4166   0.666   5.814  12.048  0.1668 -0.0112  0.3144
  423W        W 4167   9.389   3.250   1.230 -0.0093  0.3507  0.1103
  424W        W 4168   3.393   7.629  12.742 -0.2893  0.3640  0.1738
  425W        W 4169   9.053   8.007  11.843 -0.1189  0.1478 -0.0351
  426W        W 4170   3.491   6.879  11.445 -0.1579 -0.1236 -0.2539
  427W        W 4171   3.784   3.752   9.362  0.1201  0.1100 -0.1090
  428W        W 4172   9.225   7.965   2.157 -0.1188  0.1365  0.0868
  429W        W 4173   2.596   4.967   3.771  0.0770  0.0579 -0.3699
  430W        W 4174   8.921   1.032   2.597 -0.0535 -0.0546 -0.1079
  431W        W 4175   1.211   8.742  10.171 -0.0587 -0.1101  0.1502
  432W        W 4176   2.060   0.321   9.812  0.2577 -0.3485 -0.4188
  433W        W 4177   4.114   7.874  11.128 -0.1646  0.0538  0.1904
  434W        W 4178   4.073   6.469  12.055  0.2417  0.0133  0.0763
  435W        W 4179   3.230   3.315   1.616  0.1126 -0.1402 -0.1590
  436W        W 4180   8.240   3.348  10.844  0.0021  0.1308  0.0346
  437W        W 4181   2.977   9.669   3.385 -0.0809 -0.1260  0.3510
  438W        W 4182   3.904   4.041   1.384 -0.0021  0.1924  0.1556
  439W        W 4183   9.011   4.417  12.936 -0.2858 -0.3612 -0.1933
  440W        W 4184   2.134   1.434   3.608  0.0249  0.0401  0.0504
  441W        W 4185   5.106   4.913  12.018 -0.3360  0.0259  0.2696
  442W        W 4186   9.755   5.929   8.250  0.0651  0.1201  0.6734
  443W        W 4187   5.785   9.885   2.300  0.0931  0.1520 -0.2111
  444W        W 4188   3.023   2.539   4.029 -0.2771  0.1523  0.5418
  445W        W 4189   2.559   3.233  12.673 -0.1827  0.2304 -0.2622
  446W        W 4190   1.473   5.270   3.920 -0.0446  0.0233  0.4209
  447W        W 4191   6.900   6.668   0.894  0.1283  0.0605  0.0631
  448W        W 4192   1.653   2.751   5.229  0.0107  0.0625 -0.0034
  449W        W 4193   4.185   7.230   2.911  0.0679 -0.0016  0.3641
  450W        W 4194   6.017   1.000  10.332  0.0854  0.1554 -0.0804
  451W        W 4195   6.488   1.534   4.754 -0.0152  0.2125  0.1441
  452W        W 4196   5.107   2.258   9.693 -0.1526  0.3543  0.2488
  453W        W 4197   0.279   5.600  12.935  0.1886  0.0135 -0.4485
  454W        W 4198   6.461   4.333   3.610  0.4124 -0.1375  0.1324
  455W        W 4199   4.953   1.765   0.948  0.2349  0.1007 -0.1498
  456W        W 4200   9.656   1.890   0.125  0.0022  0.0025 -0.1965
  457W        W 4201   7.961   6.922   2.150 -0.1269 -0.1332 -0.1793
  458W        W 4202   6.618   2.781   2.204 -0.0245 -0.3250 -0.0699
  459W        W 4203   4.418   1.794   0.913  0.2635 -0.0409 -0.0563
  460W        W 4204   9.406   1.068   2.814 -0.3602  0.2234  0.2759
  461W        W 4205   0.175   2.601   3.426  0.0123  0.3219  0.1563
  462W        W 4206   2.562   5.174   8.904  0.0372  0.1204 -0.0601
  463W        W 4207   7.154   3.972   0.768  0.2189 -0.3408  0.0759
  464W        W 4208   1.000   0.127  12.811  0.5957  0.1119  0.2742
  465W        W 4209   1.568   4.980   3.505  0.1468 -0.0066 -0.1677
  466W        W 4210   5.403   6.235   0.225 -0.0215  0.2974  0.3551
  467W        W 4211   5.518   4.186   1.116 -0.1388 -0.0458 -0.0198
  468W        W 4212   4.615   9.555   9.763  0.0176  0.3590 -0.2341
  469W        W 4213   9.828   2.934   0.081  0.1460 -0.0367 -0.0621
  470W        W 4214   8.352   0.502   1.674 -0.1970  0.1695 -0.2238
  471W        W 4215   5.149   3.331   0.431  0.0296  0.1499 -0.0135
  472W        W 4216   9.434   8.872   2.450 -0.0147  0.0565  0.3646
  473W        W 4217   4.067   2.646   3.553  0.0575  0.0782  0.0165
  474W        W 4218   7.532   9.746  11.369 -0.2188  0.2669 -0.2388
  475W        W 4219   7.314   4.891   3.643 -0.1012  0.0098  0.1040
  476W        W 4220   6.857   3.116   3.480 -0.0636  0.2308  0.1420
  477W        W 4221   7.062   2.850   4.292  0.0748  0.2538 -0.0409
  478W        W 4222   5.481   2.280   8.412  0.1784 -0.1864  0.4314
  479W        W 4223   1.193   4.940   9.120 -0.1399  0.1704  0.0977
  480W        W 4224   0.722   1.604   0.659 -0.2488  0.2389 -0.2099
  481W        W 4225   8.872   2.237   9.570  0.5714  0.2102 -0.0532
  482W        W 4226   9.821   4.214   9.673 -0.1141 -0.3072 -0.0006
  483W        W 4227   5.115   1.387   2.207  0.2172  0.1888 -0.2608
  484W        W 4228   4.599   3.928   3.561 -0.2767 -0.0475 -0.0136
  485W        W 4229   6.515   2.923  12.250 -0.1039  0.1194 -0.0419
  486W        W 4230   0.281   4.116  10.583 -0.0550 -0.0021 -0.1697
  487W        W 4231   7.858   7.843   9.709  0.0540  0.0771  0.1450
  488W        W 4232   6.497   2.267   2.043  0.0451  0.0557 -0.0842
  489W        W 4233   8.643   1.855   0.234  0.4177  0.1330 -0.2547
  490W        W 4234   7.605   5.691  11.059 -0.1145 -0.3671 -0.2830
  491W        W 4235   0.631   8.617   2.980  0.0346 -0.3019 -0.0615
  492W        W 4236   6.211   3.928   8.153 -0.0089  0.1849  0.0310
  493W        W 4237   8.918   3.260   9.769  0.1431 -0.1251 -0.2161
  494W        W 4238   2.219   6.690   3.562 -0.0999  0.0274 -0.3183
  495W        W 4239   6.679   8.402   0.331 -0.3192 -0.3096  0.1798
  496W        W 4240   3.266   3.191   5.026  0.1253 -0.2897 -0.0372
  497W        W 4241   1.429   6.996  12.144  0.0343 -0.2897  0.1197
  498W        W 4242   5.211   4.128   9.355 -0.3466 -0.1305  0.0547
  499W        W 4243   6.499   2.615  12.665 -0.0822 -0.0678  0.2981
  500W        W 4244   0.746   7.689   0.466  0.3046 -0.2074 -0.1723
  501W        W 4245   6.386   7.939   0.295  0.0350 -0.2867 -0.0755
  502W        W 4246   2.819   1.668   2.242  0.0957 -0.1413  0.2380
  503W        W 4247   8.782   6.106  11.939  0.1962  0.2413  0.2760
  504W        W 4248   6.984   8.529  11.380  0.0735 -0.0961  0.0776
  505W        W 4249   1.223   6.539  12.286  0.1587  0.1298  0.0966
  506W        W 4250   3.260   4.933  11.252  0.3081 -0.0685 -0.0930
  507W        W 4251   6.579   8.910   9.155  0.3861  0.0093  0.0289
  508W        W 4252   2.820   9.680   0.532 -0.0072  0.0160 -0.2704
  509W        W 4253   3.305   9.185  10.563  0.0671  0.1470 -0.0444
  510W        W 4254   1.583   6.119   1.600  0.0695 -0.0146 -0.3121
  511W        W 4255   2.373   1.509   1.984 -0.0194 -0.0258 -0.1132
  512W        W 4256   6.948   4.958   9.517  0.1132 -0.3879 -0.0449
  513W        W 4257   1.945   7.656   3.706  0.0292  0.1821  0.1554
  514W        W 4258   3.972   5.138   3.387 -0.0236  0.2634 -0.2047
  515W        W 4259   3.005   6.816  11.556 -0.0354 -0.1277 -0.1855
  516W        W 4260   0.021   6.793  10.711 -0.1349  0.1649 -0.2399
  517W        W 4261   8.781   9.810   1.001  0.0167 -0.2031  0.1739
  518W        W 4262   4.592   6.835   0.091 -0.0762  0.0147  0.0689
  519W        W 4263   9.219   0.164   4.114  0.1431  0.2227  0.0892
  520W        W 4264   5.428   6.847   2.186 -0.4237 -0.2548  0.0295
  521W        W 4265   4.385   5.567  11.082  0.0204 -0.0321  0.2208
  522W        W 4266   0.043   2.702   9.889 -0.3080  0.2524  0.1159
  523W        W 4267   5.652   2.760  10.034 -0.4831 -0.0851 -0.4058
  524W        W 4268   4.798   5.364  10.254  0.1791  0.0904 -0.0074
  525W        W 4269   5.220   9.077  10.665 -0.0803  0.0205  0.1167
  526W        W 4270   0.175   2.622  11.718  0.0857  0.1132 -0.3250
  527W        W 4271   5.713   1.012  12.019  0.3762  0.2044  0.1281
  528W        W 4272   5.125   2.770   1.167  0.2852 -0.0154 -0.3382
  529W        W 4273   7.106   7.675  10.807 -0.1920 -0.0317  0.3297
  530W        W 4274   4.474   6.771  12.211  0.1180  0.0489 -0.0551
  531W        W 4275   9.273   4.420  10.347 -0.0315  0.0065  0.4699
  532W        W 4276   7.167   5.087   3.135  0.1093 -0.2033  0.3059
  533W        W 4277   2.232   2.202   4.261  0.0840  0.0404 -0.2586
  534W        W 4278   9.106   1.911   0.126  0.1754  0.1108 -0.0411
  535W        W 4279   9.777   7.829   9.040  0.1629 -0.1737 -0.0835
  536W        W 4280   6.983   2.667   5.326  0.1297 -0.1885  0.2181
  537W        W 4281   4.404   1.733   9.471  0.0667 -0.3180  0.3705
  538W        W 4282   7.928   3.318   1.430 -0.0554 -0.0854 -0.4614
  539W        W 4283   7.588   7.575  10.182 -0.1146 -0.1748  0.1096
  540W        W 4284   4.620   4.904   8.822  0.3428 -0.1367  0.2772
  541W        W 4285   3.987   0.550   2.529 -0.0560  0.1791  0.1293
  542W        W 4286   5.849   1.374   1.755 -0.0368  0.1413 -0.0088
  543W        W 4287   1.153   8.660  12.367  0.0127  0.1650 -0.2285
  544W        W 4288   0.400   9.509  11.609 -0.3621 -0.1596  0.0026
  545W        W 4289   0.125   7.856   0.677  0.2264 -0.1516 -0.0959
  546W        W 4290   4.766   3.238   3.097  0.2713  0.1025 -0.1756
  547W        W 4291   6.397   0.007   2.975 -0.1048  0.2736  0.0764
  548W        W 4292   8.011   0.339   0.693  0.3592 -0.0208  0.1353
  549W        W 4293   3.254   1.669  11.225  0.0497 -0.1708 -0.0056
  550W        W 4294   3.072   3.702  11.137 -0.0369 -0.0145  0.0882
  551W        W 4295   8.162   1.329  10.333 -0.1902  0.0844  0.1077
  552W        W 4296   2.511   2.341   1.839  0.0523  0.0708 -0.2142
  553W        W 4297   7.898   0.407   1.326 -0.0341 -0.0206  0.1165
  554W        W 4298   6.032   4.527  12.468  0.1746 -0.2068  0.3094
  555W        W 4299   3.690   6.533   9.528 -0.2106  0.0302 -0.0489
  556W        W 4300   9.464   6.519  10.646 -0.2411 -0.0862  0.0923
  557W        W 4301   6.868   4.650   3.811 -0.5118  0.1402 -0.1528
  558W        W 4302   6.298   7.631   2.093 -0.0937 -0.0022 -0.3857
  559W        W 4303   9.573   7.550   9.465  0.0983  0.0893 -0.1984
  560W        W 4304   7.756   6.544   1.347 -0.2395 -0.1650  0.1796
  561W        W 4305   8.581   1.347   0.224 -0.1676 -0.0812  0.2274
  562W        W 4306   5.610   7.296   0.324 -0.1269 -0.1167  0.2239
  563W        W 4307   7.723   4.800   0.184 -0.1752  0.0558 -0.1676
  564W        W 4308   6.763   2.407   8.724  0.0618 -0.0262  0.0627
  565W        W 4309   7.793   4.684  12.268  0.1224 -0.1519  0.1699
  566W        W 4310   0.608   0.108  11.734 -0.4724 -0.0845  0.0586
  567W        W 4311   6.498   9.346   2.171 -0.2162 -0.0758  0.1260
  568W        W 4312   1.157   2.097  10.115 -0.0528  0.0819  0.2130
  569W        W 4313   8.590   9.678   9.166 -0.0356 -0.0401  0.4452
  570W        W 4314   6.391   4.891  12.233  0.1020 -0.0090  0.1790
  571W        W 4315   5.035   6.941   9.531  0.1119  0.1725 -0.5244
  572W        W 4316   2.856   9.378  11.435  0.0988 -0.1022 -0.0083
  573W        W 4317   3.891   6.107   3.041 -0.0417  0.0923 -0.2959
  574W        W 4318   5.445   1.857   4.122  0.1103  0.0056 -0.2216
  575W        W 4319   5.685   3.304   1.007 -0.0153 -0.2971  0.1939
  576W        W 4320   4.096   5.454   3.969  0.4026 -0.1662 -0.0534
  577W        W 4321   6.033   0.821  11.176  0.1546  0.0059 -0.1541
  578W        W 4322   4.478   4.018   1.759  0.2598 -0.1115  0.2490
  579W        W 4323   2.706   6.789  12.031  0.1514  0.1732 -0.1940
  580W        W 4324   8.829   5.304   2.833 -0.1631  0.0725  0.3443
  581W        W 4325   8.123   6.029   9.486  0.0796  0.2333  0.0540
  582W        W 4326   0.681   6.056  11.602 -0.0362  0.2438 -0.2735
  583W        W 4327   6.920   5.309   0.798  0.1291  0.0521 -0.0424
  584W        W 4328   3.657   8.903  12.612 -0.0700 -0.1555  0.0264
  585W        W 4329   6.410   2.217   9.491 -0.3865  0.1561  0.1082
  586W        W 4330   5.027   0.753  10.384  0.0662 -0.0445  0.1352
  587W        W 4331   1.272   5.587  12.526 -0.0488 -0.3020  0.0238
  588W        W 4332   9.688   5.498   0.196 -0.0490 -0.0202 -0.0942
  589W        W 4333   1.513   0.649  12.623  0.2080  0.0888  0.1186
  590W        W 4334   7.167   8.840   1.675  0.1032  0.3003 -0.0613
  591W        W 4335   8.767   9.735  10.149 -0.2453 -0.0371  0.0794
  592W        W 4336   0.110   8.519   3.110 -0.0587 -0.1010 -0.1908
  593W        W 4337   5.003   2.787   3.443  0.5140  0.1833 -0.1347
  594W        W 4338   3.076   7.528   0.130 -0.0737  0.1125 -0.1630
  595W        W 4339   3.501   5.485   2.682  0.1787  0.0985  0.1028
  596W        W 4340   7.180   0.519  11.790  0.1201 -0.0082  0.0611
  597W        W 4341   3.093   3.210   9.793  0.0399 -0.0003  0.2197
  598W        W 4342   1.136   8.548  10.906  0.1064  0.1677  0.0058
  599W        W 4343   9.640   2.300  10.178 -0.1132 -0.2355  0.0247
  600W        W 4344   2.508   4.764  11.204 -0.2191  0.1047 -0.2100
  601W        W 4345   5.177   4.833  11.033 -0.2305 -0.1077  0.3041
  602W        W 4346   3.986   7.469   2.497 -0.2033 -0.0119 -0.0825
  603W        W 4347   2.739   2.073   3.139 -0.0152  0.3708  0.2659
  604W        W 4348   8.936   4.425  11.180  0.0455  0.0435 -0.2336
  605W        W 4349   9.297   7.345   8.459 -0.0991  0.3171  0.3167
  606W        W 4350   3.647   3.176   3.714  0.2008  0.0508  0.0467
  607W        W 4351   5.055   3.237   4.400 -0.0769  0.0837  0.1813
  608W        W 4352   8.797   1.807  11.416 -0.0026 -0.3954 -0.1237
  609W        W 4353   9.678   5.404  11.122  0.2974 -0.2095 -0.1928
  610W        W 4354   8.062   8.733   2.113  0.2034 -0.1228 -0.0454
  611W        W 4355   1.589   6.660   2.487  0.0720  0.0240  0.1954
  612W        W 4356   3.939   3.069   4.385  0.3083  0.3678 -0.2624
  613W        W 4357   6.461   2.335   1.314 -0.0148 -0.1089 -0.1838
  614W        W 4358   5.185   1.499   1.309  0.0049  0.1028  0.1501
  615W        W 4359   1.467   5.615  11.296  0.2091 -0.1728  0.0662
  616W        W 4360   2.997   8.984   9.139  0.1112 -0.1532  0.0011
  617W        W 4361   8.163   6.870   9.838  0.2039  0.1018 -0.0046
  618W        W 4362   7.205   0.356   9.507  0.0708  0.2117 -0.1975
  619W        W 4363   8.725   7.933  11.442 -0.1365  0.4884  0.2181
  620W        W 4364   7.237   5.617   9.202  0.1822 -0.0855 -0.1905
  621W        W 4365   0.762   9.648  11.254 -0.3202 -0.3250  0.0929
  622W        W 4366   7.846   4.298   5.160 -0.1718  0.0874  0.2311
  623W        W 4367   0.925   2.533  10.048  0.0600  0.0527  0.2692
  624W        W 4368   4.473   9.020  12.732  0.1859  0.0602 -0.1832
  625W        W 4369   6.617   5.834   7.929  0.0683 -0.1009  0.1400
  626W        W 4370   7.202   3.401   4.361 -0.0999 -0.2516  0.0583
  627W        W 4371   5.032   5.362   0.656 -0.1019 -0.2621  0.2358
  628W        W 4372   7.093   2.607  12.401  0.1315 -0.0208 -0.4027
  629W        W 4373   5.090   9.376  11.182  0.2245  0.0106  0.0327
  630W        W 4374   6.827   9.489  10.596  0.2354 -0.1333  0.0159
  631W        W 4375   6.653   3.836   8.411 -0.1715  0.1672 -0.0751
  632W        W 4376   0.807   3.203  12.980  0.1247 -0.2156  0.1361
  633W        W 4377   2.380   6.916   1.492  0.1147  0.0190  0.0287
  634W        W 4378   8.726   2.910  11.733 -0.2232  0.3626 -0.1127
  635W        W 4379   8.409   6.306   2.024 -0.0669 -0.0030 -0.2162
  636W        W 4380   4.575   1.662   8.942 -0.0719  0.0233  0.0400
  637W        W 4381   3.513   5.693  12.288  0.0532  0.0065  0.0085
  638W        W 4382   6.959   9.595  10.120  0.2360  0.0892  0.0841
  639W        W 4383   2.623   5.976   1.924 -0.0217  0.4084  0.0474
  640W        W 4384   4.791   4.816   2.963  0.2365  0.0829 -0.0558
  641W        W 4385   9.162   9.644   9.750  0.0445  0.0148 -0.2217
  642W        W 4386   1.306   8.782   9.690  0.5088 -0.2709  0.0918
  643W        W 4387   4.927   7.814   1.557  0.1267  0.0287  0.0493
  644W        W 4388   5.599   8.496   0.618 -0.1324 -0.2531  0.0941
  645W        W 4389   3.299   8.211   3.206  0.2042 -0.1117 -0.0025
  646W        W 4390   6.021   6.327   2.024  0.0441 -0.0353  0.0194
  647W        W 4391   0.388   5.413   1.419  0.0301  0.0925 -0.1254
  648W        W 4392   5.905   4.054   3.119  0.1093 -0.3140  0.1860
  649W        W 4393   9.187   3.995   3.709  0.1285  0.1945  0.0331
  650W        W 4394   7.323   6.663   9.298 -0.0763 -0.1500  0.1855
  651W        W 4395   5.631   3.965   4.056  0.1223  0.0104  0.2519
  652W        W 4396   4.601   9.084   9.919  0.0695 -0.1355  0.2032
  653W        W 4397   5.389   2.005   2.684 -0.3869 -0.4495 -0.0544
  654W        W 4398   9.505   8.659   3.085  0.0157 -0.0020  0.0816
  655W        W 4399   4.558   0.983   2.503  0.0339  0.0687  0.1806
  656W        W 4400   7.462   5.312   3.899  0.2408  0.0398 -0.0564
  657W        W 4401   5.821   7.744  10.284 -0.2395 -0.1991 -0.3723
  658W        W 4402   5.450   7.810   1.715 -0.1438  0.1686  0.1488
  659W        W 4403   0.133   4.313  11.060  0.1489 -0.0604 -0.0021
  660W        W 4404   7.298   6.745   0.552  0.1506 -0.3208  0.2731
  661W        W 4405   5.492   5.914  10.599 -0.2347 -0.1049  0.2254
  662W        W 4406   4.672   3.867   8.514 -0.0565 -0.4188  0.0226
  663W        W 4407   5.490   7.670   7.375 -0.1775  0.2741  0.1503
  664W        W 4408   9.829   8.962   2.789 -0.1505  0.0126  0.0423
  665W        W 4409   6.362   4.321  12.110  0.0339  0.1487  0.2925
  666W        W 4410   8.324   2.953   3.656 -0.1162 -0.0410  0.3374
  667W        W 4411   3.158   8.025  12.696 -0.0692 -0.2152  0.0134
  668W        W 4412   9.521   9.174   1.972 -0.0688 -0.3493 -0.2055
  669W        W 4413   0.545   4.903   8.341 -0.2619 -0.0896 -0.0375
  670W        W 4414   0.403   9.309  11.105  0.0169 -0.1551  0.1702
  671W        W 4415   0.858   5.087  10.498 -0.1008  0.3006  0.0028
  672W        W 4416   4.974   2.566   2.536  0.2561  0.1062 -0.3670
  673W        W 4417   5.029   0.349  10.089 -0.0439  0.0539 -0.5106
  674W        W 4418   3.385   2.514  12.396 -0.1866 -0.1958  0.2432
  675W        W 4419   6.013   0.380   0.220  0.0190 -0.4782  0.1861
  676W        W 4420   8.519   0.151  10.439  0.1913 -0.1562  0.2656
  677W        W 4421   5.973   7.662   0.099 -0.4472 -0.1050  0.2549
  678W        W 4422   4.417   7.697   2.449  0.1291 -0.3723  0.0724
  679W        W 4423   4.781   6.685   3.482 -0.0490 -0.4517 -0.1048
  680W        W 4424   9.685   6.203   1.183 -0.0079 -0.0520 -0.3926
  681W        W 4425   8.146   2.580   2.937 -0.0062 -0.1269 -0.1703
  682W        W 4426   8.712   5.950   2.159 -0.1407 -0.1383  0.1757
  683W        W 4427   9.277   3.346  12.396  0.0562 -0.0516  0.2488
  684W        W 4428   0.744   1.241   4.680 -0.1159  0.1731 -0.2119
  685W        W 4429   2.132   0.013  11.579 -0.2209 -0.2932  0.1756
  686W        W 4430   4.125   9.090   2.228 -0.0269  0.1721  0.0015
  687W        W 4431   5.553   5.250   2.518 -0.3481  0.0294 -0.0804
  688W        W 4432   2.633   1.649   4.450  0.1076  0.2335 -0.1191
  689W        W 4433   4.274   2.228  11.354 -0.1838  0.2658 -0.1478
  690W        W 4434   0.808   0.590   3.167  0.0022  0.1448  0.1266
  691W        W 4435   2.267   4.710   0.774  0.1752  0.0823  0.3887
  692W        W 4436   6.788   1.060  11.052  0.2750  0.0314  0.0085
  693W        W 4437   6.462   7.381   2.889  0.0500  0.0692 -0.1328
  694W        W 4438   1.654   0.924   2.831 -0.1015  0.2878 -0.0922
  695W        W 4439   0.258   5.899  12.363  0.2612 -0.0177 -0.1786
  696W        W 4440   4.523   8.374   0.787 -0.0775  0.1983 -0.1445
  697W        W 4441   9.584   2.186   4.438 -0.1904  0.0590 -0.1705
  698W        W 4442   9.470   7.207   2.404 -0.2931  0.1488  0.1280
  699W        W 4443   0.512   0.353  12.335  0.1651  0.0804 -0.0461
  700W        W 4444   6.915   7.199   1.148 -0.0805 -0.4856  0.4675
  701W        W 4445   2.467   4.002  10.621  0.1050  0.1019  0.2087
  702W        W 4446   0.603   5.724   0.922 -0.1079  0.0769  0.1799
  703W        W 4447   2.439   6.118   0.083 -0.0961  0.0319 -0.0068
  704W        W 4448   9.644   9.095   4.076 -0.0715  0.3396  0.1197
  705W        W 4449   8.270   3.474   2.643 -0.0515  0.1421 -0.1209
  706W        W 4450   8.126   7.452   4.025  0.0941  0.0058  0.1666
  707W        W 4451   2.529   4.547   9.004 -0.1931  0.5033  0.2823
  708W        W 4452   8.677   7.428  11.462  0.0358 -0.0224  0.2193
  709W        W 4453   1.666   5.462   2.254 -0.0201  0.1721 -0.0050
  710W        W 4454   8.712   0.947  12.537 -0.1820 -0.1858  0.4372
  711W        W 4455   5.880   2.235   2.147 -0.3147 -0.0696 -0.2594
  712W        W 4456   7.109   4.349   1.305 -0.0312 -0.1099 -0.0706
  713W        W 4457   6.410   9.661   1.758  0.2076 -0.0423 -0.1183
  714W        W 4458   9.141   0.000   4.632 -0.3861  0.0022 -0.0866
  715W        W 4459   5.555   1.042   1.480  0.1076  0.1794 -0.0496
  716W        W 4460   4.752   4.263   9.501  0.1989  0.1852 -0.0423
  717W        W 4461   7.747   4.792  11.726 -0.1190  0.1944 -0.0311
  718W        W 4462   1.474   0.459   0.853  0.0199  0.1923  0.1990
  719W        W 4463   4.643   3.831  12.039  0.1153  0.1663  0.0198
  720W        W 4464   9.404   9.717  12.001  0.1117 -0.0196  0.1340
  721W        W 4465   4.618   5.623   0.676 -0.1576 -0.0775  0.0977
  722W        W 4466   1.497   3.692   3.982 -0.0221 -0.0192 -0.0143
  723W        W 4467   8.054   2.724   0.832  0.4892 -0.2238 -0.1440
  724W        W 4468   2.154   2.707   3.444  0.0227  0.1485  0.0124
  725W        W 4469   1.348   6.165   0.737  0.2034  0.3839 -0.2497
  726W        W 4470   1.936   5.630   2.689 -0.0675 -0.0518  0.1716
  727W        W 4471   0.007   3.762   4.448  0.0214  0.1372 -0.0072
  728W        W 4472   3.701   5.842   4.020  0.1561  0.0457  0.1304
  729W        W 4473   7.513   0.542   2.867  0.2950 -0.1551 -0.1176
  730W        W 4474   3.565   1.002  12.917 -0.1292 -0.1662  0.2438
  731W        W 4475   0.108   8.109   0.225 -0.0512 -0.3441 -0.0781
  732W        W 4476   0.722   0.053   3.664 -0.0699  0.1543 -0.1054
  733W        W 4477   2.585   9.220   3.817 -0.1223  0.0721  0.0090
  734W        W 4478   2.445   8.989   4.787 -0.1215  0.2649  0.0527
  735W        W 4479   7.542   2.417   3.073 -0.0463 -0.0565 -0.0640
  736W        W 4480   8.574   1.928   2.269  0.2148  0.0417 -0.0175
  737W        W 4481   6.487   0.138  12.717  0.0445 -0.0065 -0.1687
  738W        W 4482   7.578   3.714   0.033  0.0421 -0.1109  0.0082
  739W        W 4483   2.185   2.186  10.142 -0.1099  0.1486  0.1093
  740W        W 4484   1.219   0.157  11.320 -0.1565  0.1413 -0.1493
  741W        W 4485   5.815   5.824   2.077 -0.0479  0.0203  0.0205
  742W        W 4486   4.238   7.444   1.079  0.0571 -0.1498  0.2947
  743W        W 4487   3.798   0.740  12.502 -0.1727 -0.5019  0.0367
  744W        W 4488   0.940   1.924  10.810 -0.0961 -0.0774 -0.1623
  745W        W 4489   9.843   9.250  10.025  0.0983  0.1310 -0.1000
  746W        W 4490   2.834   4.731   2.860  0.1321 -0.1083  0.1341
  747W        W 4491   6.121   1.981   0.081 -0.0212  0.2370  0.0029
  748W        W 4492   8.782   2.337   8.599 -0.0765 -0.0004 -0.0234
  749W        W 4493   6.780   3.029   9.218  0.0939 -0.0519  0.4305
  750W        W 4494   7.941   3.582   9.053  0.1388 -0.2824 -0.0638
  751W        W 4495   1.791   7.003  10.677 -0.3025 -0.0147  0.1873
  752W        W 4496   7.975   7.991  12.120  0.2989  0.2976 -0.1669
  753W        W 4497   3.366   6.303  12.611  0.0582 -0.0034  0.1509
  754W        W 4498   9.438   7.780   3.118 -0.1958  0.1375 -0.0009
  755W        W 4499   2.237   0.064   4.159  0.4277  0.0053 -0.1425
  756W        W 4500   4.973   6.138  11.375 -0.0714 -0.0507 -0.0803
  757W        W 4501   5.658   2.245   9.221 -0.0046 -0.0409 -0.1414
  758W        W 4502   0.503   1.664  12.611 -0.0467  0.4005 -0.0170
  759W        W 4503   8.403   2.866   4.323 -0.1363  0.2613  0.1617
  760W        W 4504   8.164   7.180  12.245  0.1579 -0.1081  0.2458
  761W        W 4505   8.249   6.014   0.730 -0.1049  0.0778  0.0269
  762W        W 4506   9.767   7.534   2.711  0.0151 -0.1151  0.0921
  763W        W 4507   1.101   5.353  11.233  0.1508  0.3737 -0.2406
  764W        W 4508   7.901   5.638  12.385 -0.4163 -0.0452  0.0266
  765W        W 4509   9.591   8.758   0.705 -0.2217 -0.1053  0.1533
  766W        W 4510   4.327   8.101   0.332 -0.0516 -0.3277 -0.0844
  767W        W 4511   9.420   2.061   9.762 -0.1410 -0.1294 -0.3598
  768W        W 4512   7.309   8.155   2.284 -0.0790 -0.0153  0.1302
  769W        W 4513   5.256   1.878   2.116  0.0787 -0.1403  0.0284
  770W        W 4514   5.514   1.582  11.265 -0.2314  0.0456 -0.0351
  771W        W 4515   2.802   0.978  12.654  0.0830 -0.3652 -0.0218
  772W        W 4516   5.913   7.778   0.606 -0.0106 -0.3808 -0.0146
  773W        W 4517   5.415   9.875  10.235  0.1155 -0.0671  0.0028
  774W        W 4518   7.824   5.778  11.611  0.3758  0.2202 -0.0642
  775W        W 4519   5.122   0.744   0.212  0.0273  0.1135  0.4480
  776W        W 4520   4.312   9.026   9.052  0.0677  0.0400  0.0678
  777W        W 4521   4.298   8.493   9.244  0.1769  0.1606 -0.1811
  778W        W 4522   9.499   7.260   3.059 -0.0154  0.0716  0.1609
  779W        W 4523   3.778   2.664  11.929 -0.0428  0.1556 -0.0658
  780W        W 4524   8.418   9.437  10.847 -0.3951  0.1657  0.1721
  781W        W 4525   7.489   0.178   3.816 -0.0076 -0.3116 -0.3564
  782W        W 4526   9.367   5.162   2.691  0.0570  0.1069 -0.0243
  783W        W 4527   2.786   3.010   2.877  0.0609  0.1218 -0.0537
  784W        W 4528   8.473   1.168   3.089  0.0086  0.0899 -0.1562
  785W        W 4529   0.570   7.685  12.061  0.0299  0.1594  0.0508
  786W        W 4530   7.326   0.307  10.806  0.3616 -0.2846  0.0057
  787W        W 4531   1.032   4.679  10.691 -0.0612 -0.0831 -0.2504
  788W        W 4532   3.003   2.809  10.058  0.1290 -0.1727  0.2556
  789W        W 4533   8.212   0.938  10.688 -0.0726  0.1000  0.1538
  790W        W 4534   6.506   4.207   2.275 -0.1565 -0.0867 -0.1648
  791W        W 4535   0.450   9.022   8.857 -0.0970  0.2902 -0.3147
  792W        W 4536   0.811   2.931  11.083 -0.0437 -0.0502  0.3978
  793W        W 4537   4.423   3.859  12.750  0.1746 -0.0702  0.2815
  794W        W 4538   9.847   6.686   0.932 -0.1255  0.1977 -0.0285
  795W        W 4539   3.165   8.379   9.984  0.0767  0.0289 -0.1609
  796W        W 4540   9.433   0.847   0.993  0.0689  0.0401  0.0079
  797W        W 4541   5.233   2.277  10.626 -0.1396  0.0570 -0.0912
  798W        W 4542   6.484   6.733   9.989  0.1177 -0.1800 -0.2769
  799W        W 4543   9.676   5.037   9.336 -0.1684  0.3164  0.1732
  800W        W 4544   6.212   5.478  10.187 -0.1934  0.2450 -0.4380
  801W        W 4545   4.728   7.519   2.130  0.0147  0.0150 -0.0764
  802W        W 4546   7.827   7.809   2.854  0.2948  0.3403 -0.0611
  803W        W 4547   7.802   6.557  10.039 -0.0427 -0.4414 -0.0079
  804W        W 4548   9.805   4.047   3.365 -0.4312  0.0657  0.0550
  805W        W 4549   4.634   6.351   0.549  0.1140 -0.1044  0.2244
  806W        W 4550   2.943   7.537  12.587 -0.0439  0.1102  0.1158
  807W        W 4551   8.212   5.239   2.211  0.1342  0.0778 -0.0886
  808W        W 4552   8.027   9.224  12.016 -0.0563  0.2644 -0.1028
  809W        W 4553   5.187   3.508   4.787  0.1161 -0.1654  0.2753
  810W        W 4554   9.621   2.843   1.249 -0.1589 -0.0320 -0.3670
  811W        W 4555   0.035   4.111  12.178 -0.2032 -0.0441  0.0768
  812W        W 4556   8.251   3.758  12.316 -0.0347  0.3287  0.1032
  813W        W 4557   4.250   2.358  12.821  0.2543  0.1779 -0.0221
  814W        W 4558   6.264   8.586   0.103 -0.1640  0.1340 -0.1123
  815W        W 4559   4.661   0.985  11.246  0.0090  0.1399  0.1517
  816W        W 4560   5.478   5.600   0.313  0.4446  0.0192 -0.2165
  817W        W 4561   6.388   3.834  10.698 -0.0782  0.1573  0.0576
  818W        W 4562   0.709   6.286   1.728  0.0185 -0.0321  0.0567
  819W        W 4563   1.523   6.176   0.287  0.0910 -0.2157  0.0842
  820W        W 4564   1.899   8.457   2.257  0.0773  0.1817 -0.2104
  821W        W 4565   5.322   3.926  11.207 -0.1297 -0.1798  0.1579
  822W        W 4566   8.216   0.716  11.988  0.4054 -0.0377 -0.0008
  823W        W 4567   4.527   6.323  11.778  0.2562 -0.1417  0.0531
  824W        W 4568   8.085   7.604  10.251 -0.1853  0.2140 -0.1006
  825W        W 4569   6.695   2.882   8.715 -0.1293 -0.0390 -0.2831
  826W        W 4570   3.189   4.116  10.850  0.1503 -0.0870  0.0036
  827W        W 4571   2.828   2.913  12.303 -0.0331  0.2256  0.0591
  828W        W 4572   0.231   0.841   1.644 -0.0074 -0.0847  0.0602
  829W        W 4573   0.849   7.115   0.809  0.0186 -0.3362  0.0450
  830W        W 4574   0.741   3.503   1.572 -0.2912 -0.3536  0.1687
  831W        W 4575   8.319   3.039   2.021  0.0727  0.1636  0.2375
  832W        W 4576   6.993   6.056   0.992 -0.0743 -0.0443 -0.1061
  833W        W 4577   0.254   4.948   1.285 -0.0805  0.1059 -0.0302
  834W        W 4578   8.403   9.030   0.254 -0.0620  0.1094  0.0223
  835W        W 4579   4.778   8.837   0.623 -0.1265  0.2182  0.1881
  836W        W 4580   4.371   4.862   2.650 -0.0160  0.1096  0.0001
  837W        W 4581   5.925   4.842   9.530 -0.2111 -0.0767  0.0490
  838W        W 4582   1.583   7.149   2.354  0.3093  0.1772  0.0429
  839W        W 4583   6.380   2.755   9.180  0.3270 -0.0314  0.2023
  840W        W 4584   9.085   8.519   0.090 -0.3274  0.1963 -0.2690
  841W        W 4585   2.858   8.848   0.806 -0.1738  0.1695 -0.1150
  842W        W 4586   1.142   4.628  10.166 -0.0894  0.2895  0.3399
  843W        W 4587   6.041   3.957  12.421 -0.0066 -0.0303  0.0271
  844W        W 4588   2.158   4.916  10.004  0.0750  0.2980 -0.1741
  845W        W 4589   6.895   2.001  10.740 -0.0655 -0.0143 -0.0649
  846W        W 4590   3.868   1.288   0.281  0.0154  0.2871  0.1615
  847W        W 4591   8.404   7.805   9.458 -0.1476 -0.2114  0.0328
  848W        W 4592   7.309   1.006   2.892  0.1588  0.1291  0.0852
  849W        W 4593   4.013   2.089   0.153 -0.1790  0.3626 -0.1441
  850W        W 4594   0.465   8.431  10.728  0.1829  0.2368  0.1657
  851W        W 4595   9.722   8.252  10.702  0.2433 -0.0041  0.0606
  852W        W 4596   8.447   9.646  12.027  0.0478 -0.0445  0.0056
  853W        W 4597   2.563   1.410  12.816  0.0422  0.1516 -0.3291
  854W        W 4598   9.231   2.128   1.589 -0.2345 -0.0388 -0.0948
  855W        W 4599   1.784   4.010   3.600  0.0212  0.3095 -0.1132
  856W        W 4600   5.068   6.992  10.025 -0.3829 -0.2026 -0.0800
  857W        W 4601   1.793   3.748   9.344  0.0108 -0.2027 -0.0388
  858W        W 4602   9.056   1.050  10.505 -0.3209 -0.1640 -0.0438
  859W        W 4603   5.950   4.281   0.924 -0.2319  0.0352 -0.3254
  860W        W 4604   5.738   9.379  12.148 -0.3373  0.0426 -0.5428
  861W        W 4605   0.803   6.431  10.006 -0.5590 -0.2284  0.3107
  862W        W 4606   4.188   3.421  12.938  0.2203  0.1296  0.2483
  863W        W 4607   8.974   7.163   3.087  0.1188  0.1285  0.0500
  864W        W 4608   5.241   3.689   9.557 -0.0921  0.0679  0.0569
  865W        W 4609   5.860   4.148  11.183  0.2002 -0.1557 -0.0596
  866W        W 4610   6.256   4.464   2.642  0.1158  0.1719 -0.1953
  867W        W 4611   7.813   5.345   1.060  0.3450 -0.1925  0.0302
  868W        W 4612   8.628   9.721  12.521 -0.0469  0.0077  0.0396
  869W        W 4613   6.996   5.510  11.887  0.1491  0.0080 -0.0049
  870W        W 4614   1.967   6.582  10.833 -0.0760 -0.3530 -0.2970
  871W        W 4615   5.201   3.961  12.115 -0.2623 -0.1961  0.1211
  872W        W 4616   7.596   0.966   9.303 -0.2633  0.2118 -0.0577
  873W        W 4617   4.085   4.424   2.834  0.2952 -0.0399  0.1839
  874W        W 4618   6.922   0.004   1.103 -0.2252 -0.0534 -0.2271
  875W        W 4619   1.268   3.251   3.500  0.0320 -0.2201 -0.0063
  876W        W 4620   0.051   1.411  10.646 -0.0866  0.0592 -0.0655
  877W        W 4621   7.948   0.828  12.922  0.1912 -0.0094  0.2233
  878W        W 4622   6.407   7.293  12.294 -0.1477  0.0282  0.0978
  879W        W 4623   9.184   9.594  11.451  0.5273  0.2834 -0.2247
  880W        W 4624   7.751   9.710   3.568 -0.0786 -0.1474  0.1859
  881W        W 4625   9.723   2.270   3.734  0.1329 -0.1843 -0.0335
  882W        W 4626   7.994   3.226  11.714  0.0564 -0.1257  0.1752
  883W        W 4627   1.603   4.429   4.504  0.3066 -0.1812  0.0068
  884W        W 4628   3.884   5.000   0.219  0.0405  0.1897 -0.1436
  885W        W 4629   7.815   4.614   8.843  0.0991  0.0682 -0.1034
  886W        W 4630   9.575   2.145  10.643 -0.0333 -0.1794  0.2244
  887W        W 4631   6.856   3.247   2.450  0.1607 -0.1328 -0.4802
  888W        W 4632   1.606   1.490   1.071 -0.1093 -0.0687  0.3812
  889W        W 4633   2.051   6.423   9.026 -0.1550 -0.0226  0.1246
  890W        W 4634   3.632   9.855  11.089 -0.3499  0.1137 -0.1025
  891W        W 4635   0.352   8.106  12.190 -0.2745 -0.0125 -0.1616
  892W        W 4636   0.305   9.383   4.703 -0.4501  0.1195 -0.1846
  893W        W 4637   6.433   7.748  12.581 -0.0220 -0.0418 -0.2428
  894W        W 4638   0.644   5.902   3.187 -0.1828  0.3656 -0.2447
  895W        W 4639   3.376   9.305  11.595  0.0961  0.2361 -0.2097
  896W        W 4640   8.915   6.466   2.280  0.0940  0.2729 -0.1922
  897W        W 4641   4.498   2.315  12.365 -0.0126 -0.0965  0.0841
  898W        W 4642   2.708   5.332   9.425 -0.0874 -0.3854 -0.0833
  899W        W 4643   3.992   8.369   1.385  0.0188 -0.2507 -0.0456
  900W        W 4644   6.257   7.623  10.517  0.1700  0.2898 -0.0795
  901W        W 4645   3.888   3.820   8.894  0.3001 -0.1122 -0.1202
  902W        W 4646   3.903   5.436   9.805  0.5304 -0.2539  0.2577
  903W        W 4647   5.519   3.383   9.893 -0.1548  0.3251  0.0072
  904W        W 4648   6.259   6.621  11.448  0.1394  0.2281 -0.2622
  905W        W 4649   1.026   2.256   0.965  0.0206 -0.0168  0.0466
  906W        W 4650   8.770   3.235   3.546 -0.0213  0.1693 -0.1031
  907W        W 4651   8.282   3.642  10.069 -0.2426  0.0794 -0.0688
  908W        W 4652   6.050   3.079   9.429  0.1754  0.1068  0.1293
  909W        W 4653   8.404   3.437   0.001 -0.2570 -0.1756 -0.0843
  910W        W 4654   9.291   0.661  10.210  0.0950  0.1204  0.2479
  911W        W 4655   0.203   0.008   2.622  0.1990  0.2063 -0.2386
  912W        W 4656   0.859   0.104   1.338  0.0079 -0.3233  0.2910
  913W        W 4657   9.292   4.475   2.823  0.2420  0.2432  0.0967
  914W        W 4658   8.995   4.824   1.922 -0.0659  0.1584 -0.0064
  915W        W 4659   9.899   4.159   9.117  0.2155 -0.1981  0.4691
  916W        W 4660   1.712   5.905   1.003  0.2304  0.0314  0.1344
  917W        W 4661   2.303   7.307  10.110  0.0218  0.2617  0.2023
  918W        W 4662   9.173   4.970   4.478  0.3072  0.0348 -0.1900
  919W        W 4663   9.299   5.238  10.338  0.1166 -0.1938  0.1218
  920W        W 4664   1.248   8.168  12.519 -0.0927  0.1974  0.0278
  921W        W 4665   1.035   6.790  11.888 -0.1333 -0.1013  0.0554
  922W        W 4666   4.185   2.786  12.259 -0.0400  0.1053  0.3003
  923W        W 4667   5.990   5.871   2.955  0.1727 -0.0341  0.1355
  924W        W 4668   3.264   2.865  11.998 -0.0373 -0.1363  0.2790
  925W        W 4669   2.655   3.041   0.455  0.2213  0.0644  0.1986
  926W        W 4670   2.884   3.394   1.263 -0.0429 -0.0518 -0.0828
  927W        W 4671   4.992   7.124   1.358 -0.2734  0.0369  0.1282
  928W        W 4672   3.877   8.536  11.229 -0.0448  0.0779 -0.2423
  929W        W 4673   1.161   5.738  11.692 -0.2706 -0.0833 -0.0527
  930W        W 4674   9.789   5.985  11.140 -0.1867 -0.0174  0.0682
  931W        W 4675   2.330   7.968   3.774  0.0154  0.0670  0.1409
  932W        W 4676   2.060   1.274   4.062 -0.1004 -0.1238 -0.0992
  933W        W 4677   6.459   5.193  10.679  0.1937  0.0624  0.1115
  934W        W 4678   0.376   6.171   0.450  0.1456  0.2872 -0.1254
  935W        W 4679   3.005   1.683   3.911  0.0288  0.1937 -0.0360
  936W        W 4680   2.878   1.158   2.494 -0.2369  0.1727 -0.2889
  937W        W 4681   2.093   5.083   1.717  0.2743 -0.3897 -0.1894
  938W        W 4682   7.718   2.408  12.820  0.1979 -0.0378 -0.0548
  939W        W 4683   1.484   6.858   1.541 -0.0007 -0.0605 -0.0808
  940W        W 4684   8.464   2.548  12.504  0.1776 -0.3421  0.2320
  941W        W 4685   6.701   1.964  11.265  0.0303 -0.1060  0.1899
  942W        W 4686   3.029   8.988  11.796  0.0205  0.1573  0.1266
  943W        W 4687   5.700   6.232  10.953 -0.0727 -0.0447  0.0596
  944W        W 4688   8.331   1.292  12.783 -0.0169  0.2747 -0.3089
  945W        W 4689   7.088   5.522  11.358  0.0744  0.1900 -0.1574
  946W        W 4690   5.970   1.562  11.008  0.2376 -0.1103  0.1607
  947W        W 4691   8.559   7.258  11.000 -0.0451  0.0377  0.2089
  948W        W 4692   7.817   4.058   3.532 -0.1698  0.0052 -0.1109
  949W        W 4693   6.698   9.431   0.942 -0.2803 -0.3449  0.3414
  950W        W 4694   2.781   7.326  10.359  0.0692 -0.0869 -0.1422
  951W        W 4695   3.965   6.356   0.513 -0.1343  0.1676  0.1279
  952W        W 4696   1.937   0.516  11.356 -0.0119 -0.2848 -0.2078
  953W        W 4697   8.688   6.875   1.596 -0.0012  0.1588  0.0225
  954W        W 4698   7.956   4.567   9.349  0.3294 -0.0886 -0.0621
  955W        W 4699   6.166   4.693   8.985 -0.0316  0.0207  0.0609
  956W        W 4700   0.987   9.017   1.986  0.1787 -0.3233 -0.2439
  957W        W 4701   7.880   2.788  11.823 -0.2643  0.1821 -0.0514
  958W        W 4702   0.753   4.145  12.688  0.0016  0.1488 -0.0199
  959W        W 4703   9.740   8.093   1.909 -0.3342  0.2772  0.1967
  960W        W 4704   7.464   4.059   9.875  0.2251  0.0488 -0.0831
  961W        W 4705   8.592   4.111   9.960 -0.4686  0.0612  0.2054
  962W        W 4706   3.420   0.389  10.894 -0.3443  0.0859 -0.4517
  963W        W 4707   9.249   5.166  10.996 -0.0587  0.0590 -0.0119
  964W        W 4708   4.521   2.811  11.823 -0.0713 -0.0756  0.2338
  965W        W 4709   5.598   5.832   3.322 -0.1085  0.0031  0.1483
  966W        W 4710   5.376   6.117   1.883  0.1510  0.0342  0.0033
  967W        W 4711   7.380   6.787   3.751  0.0152  0.1430 -0.1591
  968W        W 4712   9.080   5.733  11.108 -0.1973 -0.1088 -0.0302
  969W        W 4713   8.524   1.529   0.741  0.0908 -0.1517  0.0078
  970W        W 4714   0.088   5.355   9.570 -0.2304  0.0180 -0.2525
  971W        W 4715   3.210   1.905  12.909  0.1506  0.0792 -0.2320
  972W        W 4716   8.276   7.144   1.775 -0.0584 -0.2711 -0.0521
  973W        W 4717   1.644   1.837   9.318 -0.0965 -0.0868  0.1348
  974W        W 4718   5.738   7.770   2.144 -0.1118 -0.2143 -0.2224
  975W        W 4719   5.771   4.731   4.766 -0.0731 -0.1199 -0.1606
  976W        W 4720   9.343   8.712   4.171  0.1457  0.2166  0.0695
  977W        W 4721   4.249   3.167   0.395 -0.1222 -0.0728  0.1439
  978W        W 4722   8.635   3.633   5.589 -0.2489  0.0874 -0.1906
  979W        W 4723   6.790   7.096   9.944 -0.0857 -0.2423 -0.0295
  980W        W 4724   9.224   3.935   2.493 -0.2848 -0.0959 -0.0985
  981W        W 4725   3.804   8.051   0.405  0.0085  0.4962  0.2656
  982W        W 4726   3.177   2.929  11.427 -0.2169  0.0644  0.3541
  983W        W 4727   6.936   7.696   1.697 -0.2957 -0.1265 -0.2181
  984W        W 4728   0.255   5.207   0.384 -0.0504 -0.0935  0.0133
  985W        W 4729   4.102   3.420   9.104  0.1572 -0.3350  0.1099
  986W        W 4730   0.187   7.566  11.228  0.1655  0.0337  0.0640
  987W        W 4731   1.707   6.147  10.684 -0.2808  0.0379 -0.1620
  988W        W 4732   8.524   0.283  12.902  0.2544 -0.2393  0.1787
  989W        W 4733   4.406   3.060   1.551  0.1662 -0.6256 -0.2909
  990W        W 4734   0.952   5.105  11.740 -0.0384  0.3955 -0.0376
  991W        W 4735   1.455   0.521  12.039  0.2687 -0.3164 -0.1981
  992W        W 4736   0.550   2.677   8.822 -0.1639 -0.0462 -0.2056
  993W        W 4737   6.683   9.001  10.604  0.1882  0.2036  0.0549
  994W        W 4738   3.229   0.979   2.839  0.2024  0.1664  0.4107
  995W        W 4739   9.493   7.811   1.505  0.2204  0.0222 -0.1211
  996W        W 4740   7.731   8.714  10.159 -0.2497  0.1732  0.2652
  997W        W 4741   8.741   3.907  12.963 -0.2346  0.2515 -0.0641
  998W        W 4742   9.432   4.640  11.091  0.1283 -0.0319 -0.1973
  999W        W 4743   3.365   3.787  11.721 -0.1247  0.1764 -0.0335
 1000W        W 4744   3.311   2.379   2.252 -0.0725  0.2729  0.1979
 1001W        W 4745   4.011   3.305   9.618  0.0728  0.2902 -0.0491
 1002W        W 4746   9.445   4.444   9.814  0.2982  0.3411 -0.2072
 1003W        W 4747   3.365   8.763   0.893  0.2210 -0.2100  0.0846
 1004W        W 4748   0.785   2.111   0.550 -0.3053  0.2265 -0.0877
 1005W        W 4749   1.261   2.981  10.390 -0.3136  0.1515 -0.0248
 1006W        W 4750   0.582   6.255   4.241 -0.0124  0.1744 -0.1625
 1007W        W 4751   0.596   0.637  12.702 -0.1201  0.0445  0.1162
 1008W        W 4752   1.683   9.063   8.917 -0.4340 -0.2165 -0.1433
 1009W        W 4753   8.726   9.099  10.705  0.1210  0.4855  0.1520
 1010W        W 4754   5.253   5.743  11.498 -0.1049  0.0272 -0.0969
 1011W        W 4755   8.823   6.612  12.718  0.0952  0.0382  0.0954
 1012W        W 4756   3.021   1.327  12.901 -0.1143 -0.2594 -0.1779
 1013W        W 4757   5.208   0.053   2.223 -0.0892 -0.2228 -0.1287
 1014W        W 4758   5.454   6.738  10.701 -0.1288  0.1877  0.0901
 1015W        W 4759   2.445   3.225   1.601  0.1570 -0.1580  0.0006
 1016W        W 4760   5.188   4.983   4.563 -0.0019  0.5691 -0.1384
 1017W        W 4761   5.237   7.202   5.272 -0.0832 -0.0782 -0.0838
 1018W        W 4762   7.119   5.408   3.557 -0.0492  0.1437 -0.2141
 1019W        W 4763   0.909   7.792  12.466  0.1198  0.0848 -0.1427
 1020W        W 4764   1.731   5.172   2.711  0.1622  0.0098  0.1806
 1021W        W 4765   7.095   9.880  11.113 -0.0377 -0.2380 -0.0152
 1022W        W 4766   6.787   3.282   4.036 -0.3399 -0.1306 -0.1137
 1023W        W 4767   4.148   4.747  11.274 -0.3086 -0.1956  0.5429
 1024W        W 4768   2.458   0.008   9.772 -0.0076  0.0181  0.0477
 1025W        W 4769   8.034   9.774  12.612  0.1396  0.0960  0.2166
 1026W        W 4770   7.234   0.935  12.070  0.0356  0.0053 -0.0497
 1027W        W 4771   3.873   7.508   3.241  0.3141  0.1845 -0.1695
 1028W        W 4772   4.678   8.064   2.090  0.2974 -0.1709  0.0790
 1029W        W 4773   2.151   8.426   1.556  0.0316 -0.3288 -0.1277
 1030W        W 4774   6.840   6.331  10.148  0.2822  0.0481  0.4389
 1031W        W 4775   0.043   2.710   0.637 -0.0215  0.0991  0.1147
 1032W        W 4776   0.823   8.128   4.294 -0.1577 -0.0498  0.3014
 1033W        W 4777   6.201   4.758   0.420  0.0117  0.0914 -0.0935
 1034W        W 4778   4.982   6.059   2.254  0.0728 -0.1930 -0.1019
 1035W        W 4779   8.622   7.738   0.974  0.0351 -0.1486 -0.1052
 1036W        W 4780   1.957   9.416   9.374 -0.2118 -0.0673 -0.0582
 1037W        W 4781   9.048   2.547  11.827 -0.1087 -0.0153 -0.5889
 1038W        W 4782   6.696   2.475  12.080 -0.3331  0.1469  0.0588
 1039W        W 4783   4.050   4.165   9.231 -0.0874  0.3166  0.0632
 1040W        W 4784   0.956   8.863   0.257  0.3366 -0.3462  0.0948
 1041W        W 4785   1.538   6.660  11.792 -0.0281 -0.0487 -0.4016
 1042W        W 4786   2.225   1.298   8.863 -0.2346 -0.0374  0.1888
 1043W        W 4787   2.159   0.422   3.393  0.1625  0.2255 -0.0502
 1044W        W 4788   1.833   7.754   4.464 -0.4142  0.1681  0.2256
 1045W        W 4789   8.009   9.428   2.935 -0.0031 -0.0051  0.0999
 1046W        W 4790   1.029   0.677   2.333 -0.0776 -0.3854 -0.4529
 1047W        W 4791   6.057   2.247   9.912  0.1416  0.3349 -0.0454
 1048W        W 4792   5.259   2.734  11.644  0.0100 -0.0439 -0.1019
 1049W        W 4793   7.845   8.565   4.569 -0.0604  0.1210 -0.1014
 1050W        W 4794   8.161   6.377  10.835 -0.1686  0.4097  0.0186
 1051W        W 4795   2.943   3.337   9.214  0.0909  0.2321 -0.0669
 1052W        W 4796   7.124   7.214   1.645 -0.2393  0.1836 -0.0090
 1053W        W 4797   1.219   7.957  12.967 -0.0100  0.0092  0.2093
 1054W        W 4798   8.265   4.865   8.171  0.0596  0.1811 -0.0392
 1055W        W 4799   6.033   7.503  10.974  0.1918  0.0554 -0.4825
 1056W        W 4800   0.630   2.250   1.566  0.0004 -0.0214  0.1018
 1057W        W 4801   8.362   5.881   3.454  0.2537 -0.4373 -0.0936
 1058W        W 4802   1.898   1.597  10.661  0.1787 -0.1397 -0.2644
 1059W        W 4803   9.780   6.223  12.482 -0.0576  0.1261 -0.2576
 1060W        W 4804   3.903   1.785  11.375 -0.1284 -0.3225 -0.0945
 1061W        W 4805   2.381   8.217  12.947 -0.2656  0.0001  0.0304
 1062W        W 4806   8.158   4.986   8.904  0.0917 -0.3836  0.0339
 1063W        W 4807   8.056   1.711   0.961  0.0879  0.0732  0.2634
 1064W        W 4808   7.597   9.114   2.865 -0.2690  0.1587 -0.2153
 1065W        W 4809   8.725   7.988   1.902  0.1008  0.1587 -0.5615
 1066W        W 4810   7.126   5.988   8.881 -0.0373  0.0288 -0.1666
 1067W        W 4811   8.526   5.963  11.206 -0.1832 -0.0433  0.0844
 1068W        W 4812   5.926   1.268  11.407  0.3522 -0.1484  0.1675
 1069W        W 4813   8.636   0.663  10.460 -0.1699 -0.1312  0.1348
 1070W        W 4814   0.144   7.953   1.551  0.0647  0.1734 -0.3683
 1071W        W 4815   1.225   1.312   1.507 -0.1467  0.1232  0.3269
 1072W        W 4816   1.505   1.819  10.375 -0.0309  0.0988  0.1423
 1073W        W 4817   2.064   2.479   4.996 -0.3452 -0.0842  0.1273
 1074W        W 4818   8.942   7.838   4.378  0.2979  0.1106  0.1552
 1075W        W 4819   5.702   3.454   7.828  0.0749 -0.1870 -0.2963
 1076W        W 4820   2.035   0.970  10.763 -0.0053  0.0257  0.1802
 1077W        W 4821   5.201   6.372   8.892 -0.1367  0.0959 -0.0020
 1078W        W 4822   7.210   9.441   1.689 -0.0608 -0.0299 -0.3734
 1079W        W 4823   6.621   7.808  10.193  0.3603 -0.1442 -0.0018
 1080W        W 4824   6.046   4.759   2.061 -0.2942  0.1673 -0.2463
 1081W        W 4825   7.464   5.049  12.876  0.2069 -0.1607  0.0460
 1082W        W 4826   1.188   9.287   9.059 -0.2382 -0.1599 -0.1573
 1083W        W 4827   8.750   2.290   2.718 -0.2124  0.3602  0.2904
 1084W        W 4828   5.174   4.511  12.579  0.0814  0.0880 -0.0845
 1085W        W 4829   0.361   2.640  11.227  0.2359 -0.0405  0.2106
 1086W        W 4830   6.403   3.332   9.664  0.0256  0.0479 -0.1193
 1087W        W 4831   3.997   6.125  11.607 -0.3094  0.2060 -0.3794
 1088W        W 4832   6.577   9.666   3.376 -0.0027  0.1337 -0.2510
 1089W        W 4833   8.388   1.165   3.930  0.0431  0.0253 -0.1182
 1090W        W 4834   0.106   6.113   1.732 -0.2312  0.3312 -0.2203
 1091W        W 4835   0.320   1.225  11.041  0.0826 -0.0954  0.1259
 1092W        W 4836   1.521   7.104  11.570  0.1022  0.2355 -0.5128
 1093W        W 4837   7.057   6.021  12.167 -0.1960 -0.2253  0.2051
 1094W        W 4838   2.385   3.559   2.338  0.4057 -0.0982 -0.2247
 1095W        W 4839   7.236   9.650   0.154 -0.0663 -0.0277 -0.1323
 1096W        W 4840   3.833   0.652   2.979 -0.0088 -0.3190 -0.1155
 1097W        W 4841   3.407   3.667  10.684 -0.4160  0.4888 -0.1427
 1098W        W 4842   3.747   1.748   0.469  0.0435 -0.2479  0.0350
 1099W        W 4843   1.402   5.605   9.896 -0.2524  0.1625  0.0355
 1100W        W 4844   8.105   7.007   2.595  0.0594  0.0527 -0.2631
 1101W        W 4845   0.495   6.912  10.762  0.0531  0.1844  0.0680
 1102W        W 4846   4.087   8.238   9.649 -0.0848 -0.1368 -0.0380
 1103W        W 4847   1.174   3.764   3.606  0.1339  0.0498 -0.0685
 1104W        W 4848   6.467   3.698  12.674  0.0484 -0.6555 -0.1617
 1105W        W 4849   4.443   2.202   1.737  0.0610  0.1385  0.2722
 1106W        W 4850   8.186   6.494   1.112 -0.0764  0.1230  0.1089
 1107W        W 4851   1.012   3.653   3.129 -0.1829  0.3052 -0.2273
 1108W        W 4852   4.318   5.803   8.748  0.1480  0.3155 -0.1313
 1109W        W 4853   2.848   2.472  12.498  0.1325  0.0541 -0.1377
 1110W        W 4854   8.853   6.288   1.766 -0.4510  0.1752  0.2027
 1111W        W 4855   1.109   4.419   4.292 -0.0637 -0.0116 -0.0301
 1112W        W 4856   7.996   4.067  11.402 -0.1188  0.2254 -0.1755
 1113W        W 4857   5.860   5.974  12.321 -0.0796 -0.0259 -0.1191
 1114W        W 4858   6.071   1.876   1.236  0.3685 -0.1488  0.0975
 1115W        W 4859   9.263   9.113   1.506 -0.1735 -0.0136  0.0457
 1116W        W 4860   9.700   6.478   1.834 -0.1300  0.1063 -0.2722
 1117W        W 4861   9.250   9.795   8.235  0.0088 -0.0203  0.3057
 1118W        W 4862   3.179   4.072  12.819 -0.1066  0.1862  0.2014
 1119W        W 4863   4.301   7.598  10.515 -0.1436 -0.1428  0.1870
 1120W        W 4864   9.413   3.585   4.216 -0.1539 -0.2936  0.1834
 1121W        W 4865   2.691   3.428   9.629 -0.0570 -0.0394 -0.1890
 1122W        W 4866   9.267   3.496  10.817 -0.0986  0.2917  0.3007
 1123W        W 4867   5.217   3.085  10.262  0.0650 -0.0829  0.0102
 1124W        W 4868   5.103   0.289   2.920 -0.0149  0.2484 -0.2218
 1125W        W 4869   3.145   0.592   9.107 -0.1311  0.4061 -0.1286
 1126W        W 4870   3.087   2.340   9.224  0.1624 -0.1756 -0.0429
 1127W        W 4871   4.200   5.285   9.448  0.1507 -0.1826  0.0731
 1128W        W 4872   8.796   5.345  11.329 -0.0838  0.1885 -0.0379
 1129W        W 4873   7.158   0.716   0.141 -0.0119  0.1899  0.1251
 1130W        W 4874   1.137   4.653   2.204 -0.1553  0.0493 -0.0094
 1131W        W 4875   2.099   7.778  10.090 -0.0006  0.1157 -0.1312
 1132W        W 4876   6.079   8.540  11.700 -0.0293 -0.1871  0.0166
 1133W        W 4877   0.567   3.999   0.496  0.1769  0.0331  0.0911
 1134W        W 4878   8.172   9.020   8.328 -0.0553  0.1681  0.1778
 1135W        W 4879   0.471   1.480  10.355  0.1814  0.0890 -0.1206
 1136W        W 4880   0.268   8.141  12.672 -0.3256 -0.0338  0.1913
 1137W        W 4881   7.435   3.451  11.218  0.0626  0.0293  0.0189
 1138W        W 4882   4.778   5.803   8.419  0.0774 -0.2292  0.0092
 1139W        W 4883   7.457   3.940   2.181 -0.2767 -0.0431 -0.2694
 1140W        W 4884   1.918   9.266  11.793  0.0541  0.0729 -0.2843
 1141W        W 4885   0.629   9.207   1.775 -0.0315  0.0951 -0.0867
 1142W        W 4886   5.020   1.735   3.888  0.2128 -0.2827 -0.0430
 1143W        W 4887   6.546   9.821  11.191 -0.0848  0.1571 -0.1172
 1144W        W 4888   0.700   8.628   4.277 -0.0950  0.2237 -0.0471
 1145W        W 4889   8.364   9.186  11.623 -0.4190 -0.0632  0.0936
 1146W        W 4890   1.482   3.916  12.623 -0.2037  0.4854 -0.1547
 1147W        W 4891   3.725   6.111   9.845 -0.0006  0.2732  0.4249
 1148W        W 4892   5.259   2.746   3.861  0.2060 -0.0388 -0.0292
 1149W        W 4893   7.566   1.705   0.856  0.2152  0.3074 -0.1280
 1150W        W 4894   3.919   2.316   3.957 -0.0879  0.1354 -0.0584
 1151W        W 4895   0.321   4.474   9.964  0.0268 -0.2175  0.3617
 1152W        W 4896   7.733   7.336   2.573 -0.1650  0.0612 -0.2695
 1153W        W 4897   9.049   9.282  10.356 -0.1460 -0.2617  0.6694
 1154W        W 4898   8.692   6.648   3.067  0.1489 -0.1968  0.1904
 1155W        W 4899   8.358   0.194   2.680  0.1115 -0.1587 -0.1451
 1156W        W 4900   8.913   8.871   2.499  0.3021 -0.1390 -0.0804
 1157W        W 4901   2.856   5.767   0.003  0.2225  0.0537 -0.1862
 1158W        W 4902   5.135   1.186  10.104  0.2659  0.1474 -0.4603
 1159W        W 4903   4.743   1.371   9.783  0.0501  0.1802 -0.1643
 1160W        W 4904   8.900   2.274   3.303  0.1912 -0.0817  0.0885
 1161W        W 4905   1.014   3.417   2.604  0.0892  0.2532 -0.0526
 1162W        W 4906   4.254   0.334   3.777  0.2681 -0.2418 -0.2459
 1163W        W 4907   9.424   3.141  11.247  0.3649  0.0454 -0.0888
 1164W        W 4908   0.557   1.817   3.358  0.2597  0.3260 -0.0221
 1165W        W 4909   0.447   4.085   9.012  0.2238 -0.3130  0.2339
 1166W        W 4910   8.025   3.622   4.072 -0.2008 -0.0473  0.1324
 1167W        W 4911   9.259   8.187   1.049  0.1571  0.0070 -0.1396
 1168W        W 4912   9.476   9.145  11.824  0.0153 -0.3289  0.1507
 1169W        W 4913   1.540   5.933   4.024  0.0395  0.3083 -0.1195
 1170W        W 4914   6.834   5.533   1.856  0.0287 -0.2786  0.0806
 1171W        W 4915   3.517   1.019   3.787 -0.1989  0.5485  0.2320
 1172W        W 4916   0.814   3.295   9.555  0.1035  0.2409 -0.3413
 1173W        W 4917   7.658   5.444   9.774 -0.2668 -0.0428  0.1742
 1174W        W 4918   5.285   8.975  12.928  0.0061  0.0505 -0.0069
 1175W        W 4919   8.132   3.651   9.538  0.3189  0.0535  0.0391
 1176W        W 4920   2.605   8.661  10.225 -0.0863  0.0163 -0.2132
 1177W        W 4921   2.464   1.552   4.915  0.1870 -0.0286 -0.0980
 1178W        W 4922   5.940   5.223   3.792 -0.1169  0.0555  0.1522
 1179W        W 4923   8.106   4.830   5.073 -0.1713  0.1508 -0.0343
 1180W        W 4924   3.964   7.840   1.275  0.0551 -0.1056  0.2726
 1181W        W 4925   0.047   2.792   1.839  0.0175  0.1572 -0.2739
 1182W        W 4926   0.445   3.220   1.300 -0.1376 -0.0681  0.2606
 1183W        W 4927   4.491   6.782   9.217 -0.0543 -0.1398 -0.0592
 1184W        W 4928   6.799   7.731   2.990 -0.0373  0.1642 -0.3375
 1185W        W 4929   3.401   9.783   2.036  0.0572  0.1198  0.1562
 1186W        W 4930   0.311   3.437  11.996  0.1740  0.0201  0.0206
 1187W        W 4931   7.888   7.532  12.031  0.2009  0.1643 -0.1961
 1188W        W 4932   3.797   0.378   3.408 -0.0124  0.2709  0.1890
 1189W        W 4933   2.115   3.085  12.975  0.0227  0.0091  0.0028
 1190W        W 4934   5.711   4.090   9.309  0.3956 -0.1704  0.0987
 1191W        W 4935   0.693   7.263  11.104 -0.3436  0.1640 -0.2345
 1192W        W 4936   3.491   7.666   1.231 -0.2591 -0.0153 -0.6027
 1193W        W 4937   0.509   7.325  12.946 -0.1743 -0.1746 -0.0985
 1194W        W 4938   1.741   4.027   9.838 -0.0202 -0.0020 -0.0405
 1195W        W 4939   9.194   0.008   1.422 -0.3234  0.0280  0.1026
 1196W        W 4940   6.096   8.023  11.762  0.1370 -0.0797 -0.1818
 1197W        W 4941   1.424   9.593  12.366  0.1092 -0.2427  0.0556
 1198W        W 4942   4.034   3.274  10.146 -0.0444 -0.3647  0.0511
 1199W        W 4943   5.480   0.094   1.251  0.2970 -0.0746  0.1043
 1200W        W 4944   3.841   1.015   0.749  0.1003  0.1383  0.0961
 1201W        W 4945   8.921   7.885  12.297  0.0607  0.0497 -0.0240
 1202W        W 4946   1.346   2.332   3.505  0.0647  0.1112 -0.0719
 1203W        W 4947   5.977   1.554  10.476  0.1030  0.4226 -0.0290
 1204W        W 4948   7.073   0.899   3.852  0.0497  0.1160 -0.0750
 1205W        W 4949   7.902   0.398   1.951  0.0856  0.3179  0.2708
 1206W        W 4950   4.542   1.772   3.866  0.1401  0.0598  0.2454
 1207W        W 4951   4.330   4.756   3.139 -0.3369  0.0990  0.1175
 1208W        W 4952   9.728   7.007   3.565  0.1357  0.0642  0.1341
 1209W        W 4953   1.766   7.694   9.593  0.1380 -0.1764 -0.0626
 1210W        W 4954   5.730   2.564  12.435  0.0103 -0.1619  0.2727
 1211W        W 4955   5.875   8.628  12.789 -0.1143 -0.0290  0.3709
 1212W        W 4956   9.289   8.239  12.435 -0.0018 -0.0099 -0.1705
 1213W        W 4957   3.298   4.482  10.064 -0.1321  0.0769 -0.2344
 1214W        W 4958   2.240   7.676   3.290  0.1974  0.2784  0.1315
 1215W        W 4959   5.690   4.629   0.415  0.0398  0.1810  0.1319
 1216W        W 4960   4.897   1.983  11.634  0.0751  0.2553  0.0857
 1217W        W 4961   3.920   8.044   2.541  0.1900 -0.0105  0.3060
 1218W        W 4962   8.189   7.486   9.766  0.0046 -0.1855 -0.0708
 1219W        W 4963   7.679   6.087  12.191 -0.1021  0.1834  0.0333
 1220W        W 4964   1.165   9.273  10.061  0.0366 -0.0675 -0.3597
 1221W        W 4965   7.328   7.662  11.414  0.0959  0.2309 -0.0436
 1222W        W 4966   9.831   5.041   4.464  0.4866 -0.0248 -0.1017
 1223W        W 4967   4.038   2.440   8.775 -0.4744 -0.1727 -0.1857
 1224W        W 4968   0.811   1.774  11.298  0.1457  0.0431 -0.0483
 1225W        W 4969   1.614   8.998  10.045  0.1092  0.5951  0.0897
 1226W        W 4970   9.680   3.340   3.572 -0.2312 -0.2652  0.1223
 1227W        W 4971   8.517   9.216   3.852 -0.1351 -0.2547  0.2375
 1228W        W 4972   5.231   6.532   9.874 -0.1065 -0.0160 -0.1102
 1229W        W 4973   4.135   9.636   1.406  0.0493 -0.1912  0.2279
 1230W        W 4974   1.155   6.513   9.051  0.2269 -0.1184 -0.1621
 1231W        W 4975   8.187   3.266   0.430 -0.0261 -0.1298  0.0328
 1232W        W 4976   0.075   8.539   0.003 -0.4786  0.1430 -0.0262
 1233W        W 4977   6.199   5.738   4.174 -0.1050 -0.1830 -0.2035
 1234W        W 4978   5.434   2.037  11.073 -0.3571  0.3343  0.1418
 1235W        W 4979   1.667   9.395   4.055 -0.1883 -0.0839  0.3432
 1236W        W 4980   5.471   6.794  12.443  0.1031 -0.3584 -0.1891
 1237W        W 4981   4.971   0.822   3.674  0.2259 -0.0776 -0.0002
 1238W        W 4982   0.327   2.196  12.643  0.0592 -0.1912  0.1626
 1239W        W 4983   8.873   3.521   4.795 -0.1019  0.1149  0.0672
 1240W        W 4984   7.361   9.610   2.222 -0.1173  0.0734 -0.1522
 1241W        W 4985   8.765   8.227   2.406 -0.1728  0.2118 -0.0458
 1242W        W 4986   2.241   9.409   0.892  0.3392 -0.1147  0.1345
 1243W        W 4987   3.620   4.534   2.716  0.0330 -0.1136  0.3765
 1244W        W 4988   6.774   4.570  12.303 -0.3159 -0.1775 -0.1627
 1245W        W 4989   6.974   2.561  10.126 -0.1431  0.1499  0.0591
 1246W        W 4990   2.901   7.216   1.660  0.1609 -0.0854  0.0853
 1247W        W 4991   3.150   9.026   2.343 -0.1491 -0.2546  0.2823
 1248W        W 4992   6.908   0.248  11.439  0.1707 -0.2572  0.1834
 1249W        W 4993   6.165   6.436   0.357  0.2502  0.1959  0.1094
 1250W        W 4994   1.382   3.703   0.452 -0.1417  0.2517  0.2656
 1251W        W 4995   4.966   4.591   1.142  0.0405  0.2196 -0.2006
 1252W        W 4996   4.115   0.283   0.226 -0.3174 -0.2295  0.0296
 1253W        W 4997   3.055   2.589   4.523  0.1763  0.3467 -0.2719
 1254W        W 4998   5.424   1.573  10.302 -0.0466  0.0927 -0.0293
 1255W        W 4999   5.785   8.990  10.885 -0.2582  0.0954  0.0727
 1256W        W 5000   2.217   5.531  11.174 -0.2365 -0.1934  0.2281
 1257W        W 5001   0.131   5.989   3.256  0.0648 -0.2890  0.3406
 1258W        W 5002   1.256   6.386   2.731 -0.4360  0.1092  0.2549
 1259W        W 5003   7.355   2.898  10.519  0.0465 -0.0643  0.0246
 1260W        W 5004   1.668   6.391  12.680  0.0215  0.0810 -0.0560
 1261W        W 5005   0.482   2.552   9.694 -0.0238 -0.0591  0.0791
 1262W        W 5006   0.722   3.596  10.674  0.1548  0.1540 -0.0240
 1263W        W 5007   2.242   7.281   2.813  0.0767 -0.1264  0.1226
 1264W        W 5008   0.063   0.401   0.255 -0.2136 -0.0440 -0.1680
 1265W        W 5009   0.605   6.822   1.106  0.1524 -0.0771 -0.0898
 1266W        W 5010   2.311   7.767   2.053  0.0383  0.0713  0.1261
 1267W        W 5011   4.998   4.535   9.122  0.0051  0.0424  0.3814
 1268W        W 5012   2.996   7.297  11.323 -0.1914  0.0881 -0.1480
 1269W        W 5013   2.886   2.941  12.930  0.0627 -0.3567  0.1550
 1270W        W 5014   5.826   3.208  11.764  0.0547 -0.0282 -0.0937
 1271W        W 5015   0.255   3.181   3.189 -0.3051 -0.0351 -0.0015
 1272W        W 5016   6.290   7.729   0.957 -0.3285 -0.2558 -0.1106
 1273W        W 5017   2.533   1.703   3.568  0.1944 -0.1541 -0.0711
 1274W        W 5018   1.073   7.411   9.242  0.0848 -0.1345 -0.0274
 1275W        W 5019   3.128   0.791   1.248  0.4503  0.0489 -0.0037
 1276W        W 5020   9.823   2.260  11.439 -0.1376 -0.2372 -0.2773
 1277W        W 5021   7.547   1.950   0.003 -0.0464 -0.1063  0.0594
 1278W        W 5022   0.601   1.025  10.559 -0.2058 -0.0616 -0.1840
 1279W        W 5023   9.614   5.156   9.840  0.2462  0.3048  0.0890
 1280W        W 5024   6.088   1.341   9.973 -0.1312 -0.1893 -0.1521
 1281W        W 5025   9.594   4.879   3.021 -0.3775 -0.0012 -0.1067
 1282W        W 5026   9.444   6.049  11.565 -0.0699  0.0601 -0.1389
 1283W        W 5027   9.496   3.353   2.006  0.0311  0.0498  0.1346
 1284W        W 5028   5.086   4.204   0.864 -0.1911  0.1785  0.3008
 1285W        W 5029   5.744   5.515  12.366  0.0950 -0.0929  0.0086
 1286W        W 5030   5.297   3.653   1.896 -0.0515  0.2414  0.2673
 1287W        W 5031   1.584   4.237  10.263  0.0507 -0.0737 -0.1322
 1288W        W 5032   0.783   7.022   8.409  0.3028 -0.5324  0.3320
 1289W        W 5033   1.965   5.003   0.550 -0.0372 -0.1573  0.0084
 1290W        W 5034   7.977   8.413   1.697 -0.1872  0.3779  0.4914
 1291W        W 5035   7.686   1.300   3.158 -0.0073 -0.1576  0.0611
 1292W        W 5036   3.785   6.559  10.042  0.0860  0.1730 -0.3688
 1293W        W 5037   2.309   6.650   2.024 -0.2882  0.0932 -0.0141
 1294W        W 5038   2.547   4.249   9.395  0.1432 -0.0137 -0.0914
 1295W        W 5039   3.551   3.711   1.166 -0.1131  0.3650  0.1615
 1296W        W 5040   3.138   2.904   1.355 -0.1146  0.2403 -0.0464
 1297W        W 5041   7.524   3.310  10.227  0.1172 -0.1674 -0.0266
 1298W        W 5042   6.151   5.773  11.947 -0.0745  0.0645  0.3047
 1299W        W 5043   7.075   5.144   9.085  0.0129  0.0773 -0.3270
 1300W        W 5044   1.753   1.485   9.651  0.0540 -0.4042 -0.0781
 1301W        W 5045   2.342   3.849   8.675  0.1206  0.3208  0.2899
 1302W        W 5046   3.281   3.822   2.571 -0.0537 -0.1181  0.2288
 1303W        W 5047   8.397   7.159   3.767  0.2368  0.0860  0.1844
 1304W        W 5048   8.758   0.516   1.941  0.1022  0.1256 -0.1132
 1305W        W 5049   2.647   2.933  11.353  0.2621  0.0862 -0.2705
 1306W        W 5050   1.678   2.640  11.315 -0.0848 -0.2877 -0.1531
 1307W        W 5051   2.442   5.989  12.576  0.0240  0.2351  0.0620
 1308W        W 5052   1.858   9.567   1.108  0.1576 -0.0548  0.0873
 1309W        W 5053   6.412   8.400  10.075  0.2641 -0.1130  0.1933
 1310W        W 5054   9.743   2.950   3.173  0.1010 -0.0296 -0.2250
 1311W        W 5055   0.148   0.208  11.904  0.1130 -0.5534 -0.0705
 1312W        W 5056   7.119   6.480  11.073 -0.1753 -0.2039  0.3565
 1313W        W 5057   8.228   4.365   8.768 -0.1691 -0.0173  0.0069
 1314W        W 5058   0.929   9.625  11.735 -0.2435  0.1198 -0.0130
 1315W        W 5059   2.868   6.568  10.095 -0.2975 -0.3979  0.3198
 1316W        W 5060   9.406   2.339   0.065  0.0537  0.0479 -0.3088
 1317W        W 5061   4.875   0.291   2.472  0.2205 -0.1079 -0.1891
 1318W        W 5062   1.137   1.729   0.390 -0.2174 -0.0124 -0.0407
 1319W        W 5063   4.205   6.376   0.118 -0.0916 -0.0303 -0.1807
 1320W        W 5064   4.947   3.563   2.359 -0.2421 -0.1000 -0.2586
 1321W        W 5065   6.295   7.755   3.186  0.0462 -0.1075 -0.2838
 1322W        W 5066   9.232   7.727  12.685 -0.0544  0.1387  0.2614
 1323W        W 5067   5.893   6.293   2.468  0.2449  0.1108 -0.2425
 1324W        W 5068   2.562   0.527   1.715  0.1579  0.1789 -0.1207
 1325W        W 5069   8.841   1.501   2.251 -0.1730  0.1320  0.0927
 1326W        W 5070   4.619   0.509   2.123 -0.2272  0.1323 -0.1470
 1327W        W 5071   7.147   5.621  10.122 -0.0902 -0.1796 -0.2466
 1328W        W 5072   9.331   8.474  10.997 -0.0061 -0.2935 -0.1706
 1329W        W 5073   4.096   9.053  10.705 -0.2064 -0.2798 -0.4599
 1330W        W 5074   7.583   5.833   2.825  0.0067 -0.1930 -0.4318
 1331W        W 5075   5.594   2.192   9.751  0.0491  0.0665 -0.2049
 1332W        W 5076   3.278   0.555   3.745  0.2510 -0.1051  0.3626
 1333W        W 5077   2.859   8.037  12.015 -0.3036  0.1793 -0.1382
 1334W        W 5078   6.413   1.659  10.355 -0.1521  0.2534 -0.0012
 1335W        W 5079   9.680   1.803  11.473  0.0233  0.2054 -0.0081
 1336W        W 5080   5.290   8.893  11.155 -0.1249  0.0501 -0.2960
 1337W        W 5081   2.100   9.561  10.992  0.2902 -0.1336 -0.3631
 1338W        W 5082   1.027   3.657   4.408  0.0267  0.0764 -0.3569
 1339W        W 5083   1.555   0.036   2.663 -0.2226 -0.1776 -0.2244
 1340W        W 5084   2.374   5.541   4.246 -0.1322  0.0481 -0.1048
 1341W        W 5085   9.186   5.684   8.929 -0.1219 -0.2060 -0.2645
 1342W        W 5086   1.850   7.394   9.988 -0.1960 -0.0424  0.0315
 1343W        W 5087   2.119   1.085  11.414  0.2607  0.0208 -0.0052
 1344W        W 5088   1.898   2.605   9.953 -0.0749  0.2626  0.0369
 1345W        W 5089   0.821   8.300  12.138 -0.1055  0.0842 -0.0327
 1346W        W 5090   2.339   5.489   1.219  0.1045 -0.2846  0.4148
 1347W        W 5091   0.164   5.018  10.086 -0.1969 -0.0367  0.1746
 1348W        W 5092   5.854   4.579  12.024  0.0629  0.0591  0.1751
 1349W        W 5093   7.376   4.606   8.385 -0.0756  0.3882  0.1561
 1350W        W 5094   5.015   4.044   4.668  0.1862  0.0178 -0.2094
 1351W        W 5095   1.416   6.511  10.007  0.0562  0.1303  0.3388
 1352W        W 5096   7.342   8.444   9.697  0.2516  0.1336  0.0442
 1353W        W 5097   4.591   4.850   9.305  0.1936 -0.3939  0.2199
 1354W        W 5098   0.696   6.400  10.752 -0.0248 -0.0985  0.2136
 1355W        W 5099   2.009   0.370   0.698 -0.3383  0.0806  0.0709
 1356W        W 5100   7.832   0.004   1.556  0.3595 -0.0771  0.1046
 1357W        W 5101   9.850   2.406  10.999 -0.0604 -0.1811  0.0198
 1358W        W 5102   3.087   8.006   0.343 -0.2460  0.0490  0.1151
 1359W        W 5103   0.853   1.074  10.100  0.1573 -0.0892 -0.1810
 1360W        W 5104   2.096   0.978   3.342  0.1847  0.0117  0.0841
 1361W        W 5105   3.498   2.185  12.058 -0.4034 -0.2298  0.2930
 1362W        W 5106   7.422   0.838   3.299 -0.0387  0.2376  0.0966
 1363W        W 5107   4.768   0.641  11.758  0.4039  0.2825  0.2088
 1364W        W 5108   4.383   5.809   2.681 -0.1206  0.2523 -0.0655
 1365W        W 5109   5.193   1.107   9.603 -0.0250  0.0559 -0.2955
 1366W        W 5110   2.035   4.116   1.773  0.0169 -0.0301 -0.0062
 1367W        W 5111   5.614   7.850  11.136  0.1707 -0.0949 -0.0985
 1368W        W 5112   1.396   6.561  10.845 -0.2533 -0.3080  0.2040
 1369W        W 5113   7.830   9.864   2.711 -0.0930  0.3817  0.0455
 1370W        W 5114   3.505   5.081   9.746 -0.1617 -0.0776  0.0001
 1371W        W 5115   1.063   3.359   3.931 -0.4413  0.2181  0.1030
 1372W        W 5116   2.085   8.406   1.084  0.2076  0.0911  0.3451
 1373W        W 5117   3.539   2.596  11.108  0.3024  0.0943 -0.0684
 1374W        W 5118   4.323   8.310  10.978  0.2218  0.0667  0.0373
 1375W        W 5119   8.287   0.709  12.559  0.0924 -0.1593 -0.3337
 1376W        W 5120   0.211   1.962   9.500 -0.0556  0.1460 -0.3727
 1377W        W 5121   0.379   3.458   9.774  0.0363 -0.2556 -0.0197
 1378W        W 5122   2.377   3.598   1.240 -0.3255  0.1568  0.0414
 1379W        W 5123   9.297   8.005   0.148  0.4695 -0.0471  0.0735
 1380W        W 5124   3.823   2.011  10.353 -0.0924  0.0979 -0.2156
 1381W        W 5125   8.786   3.056   4.578  0.2079 -0.4509  0.1396
 1382W        W 5126   3.285   2.405   9.905 -0.1537 -0.0708  0.0079
 1383W        W 5127   8.138   1.232   8.799 -0.4241 -0.1613  0.0677
 1384W        W 5128   6.343   8.509   1.088  0.0004 -0.2200 -0.2501
 1385W        W 5129   1.223   5.236   1.392 -0.2247  0.2839  0.0305
 1386W        W 5130   8.022   9.654   0.522  0.1957  0.2615 -0.1212
 1387W        W 5131   8.685   1.890  10.903 -0.0353 -0.1220  0.2881
 1388W        W 5132   4.436   8.037  12.811 -0.3701  0.0523  0.1561
 1389W        W 5133   7.681   8.623   2.991 -0.1137 -0.1379  0.2875
 1390W        W 5134   5.805   6.472   9.460  0.3569  0.0699  0.3137
 1391W        W 5135   9.393   3.488  10.333  0.0776 -0.0907  0.0680
 1392W        W 5136   0.089   9.416   0.545  0.3683  0.1180  0.1210
 1393W        W 5137   6.597   9.904  10.201 -0.1979 -0.4513  0.1498
 1394W        W 5138   0.722   0.797   1.919  0.0901  0.2784 -0.1954
 1395W        W 5139   7.349   5.139  11.850 -0.0967 -0.0866 -0.0953
 1396W        W 5140   4.575   2.942  10.904  0.1731  0.1188 -0.2502
 1397W        W 5141   1.802   2.916   9.544  0.1966 -0.3605 -0.0436
 1398W        W 5142   5.683   1.958  11.599  0.2072 -0.0535 -0.0284
 1399W        W 5143   8.456   8.017  12.498 -0.0976  0.2333 -0.0634
 1400W        W 5144   6.066   4.155  10.129 -0.0522 -0.0243  0.5631
 1401W        W 5145   9.669   8.746  10.565 -0.0586  0.1126  0.2910
 1402W        W 5146   5.030   4.702   9.630 -0.0189  0.1871 -0.1469
 1403W        W 5147   7.009   1.235   1.380  0.1946 -0.1832  0.3281
 1404W        W 5148   6.862   0.712   9.709 -0.0624  0.2152 -0.1679
 1405W        W 5149   3.535   9.214   2.876 -0.0693  0.2643 -0.3313
 1406W        W 5150   0.339   3.048   9.518 -0.0309 -0.1366 -0.3129
 1407W        W 5151   7.255   7.470  12.866 -0.0178  0.1386 -0.0635
 1408W        W 5152   0.545   6.976   0.351  0.0641  0.1380  0.0980
 1409W        W 5153   1.249   6.653  11.387 -0.2019  0.1225 -0.2061
 1410W        W 5154   5.156   1.782  10.713 -0.1123  0.0014 -0.1524
 1411W        W 5155   1.913   8.144   9.815  0.1339 -0.0378 -0.1306
 1412W        W 5156   3.364   7.356   0.786 -0.0680  0.0515  0.0361
 1413W        W 5157   9.879   1.017   3.212 -0.4182  0.2451  0.0742
 1414W        W 5158   4.081   5.493  11.524  0.2016 -0.1202  0.3969
 1415W        W 5159   0.269   6.399   2.147 -0.1252  0.0299 -0.0922
 1416W        W 5160   0.537   7.397  10.614 -0.0105  0.1338 -0.1181
 1417W        W 5161   9.863   7.726   1.168  0.2757  0.1804 -0.4364
 1418W        W 5162   4.266   1.957   2.291  0.0015 -0.1767  0.0983
 1419W        W 5163   4.062   5.371  12.874  0.2341 -0.2865  0.2342
 1420W        W 5164   6.603   7.582   9.257  0.1702 -0.2477 -0.0770
 1421W        W 5165   2.213   5.330   9.230  0.2069 -0.1771 -0.2024
 1422W        W 5166   7.497   1.275   1.384  0.0946  0.4565  0.3134
 1423W        W 5167   3.096   7.129   9.257  0.1988 -0.1326 -0.2616
 1424W        W 5168   5.522   3.015   4.190 -0.3140 -0.1154 -0.0854
 1425W        W 5169   3.805   7.663  11.468 -0.2600  0.1988 -0.0233
 1426W        W 5170   3.097   6.606   0.211  0.1944  0.2879 -0.1114
 1427W        W 5171   7.554   3.096  11.517 -0.1225 -0.0539  0.1620
 1428W        W 5172   8.461   9.431   8.671  0.0210  0.1185  0.1356
 1429W        W 5173   5.823   8.183  10.025 -0.2089 -0.2164  0.0695
 1430W        W 5174   2.851   9.489   2.701 -0.0197  0.2068 -0.0698
 1431W        W 5175   2.581   8.705   1.234  0.0300 -0.0462 -0.1620
 1432W        W 5176   1.689   2.734   3.661 -0.1767  0.2053  0.0248
 1433W        W 5177   9.620   9.530   9.526 -0.4578 -0.0418 -0.4107
 1434W        W 5178   6.356   6.426  10.406 -0.1231 -0.1374  0.1094
 1435W        W 5179   8.453   1.966   3.363  0.1658  0.0753 -0.0547
 1436W        W 5180   8.938   3.045   0.798  0.0884  0.1046 -0.1645
 1437W        W 5181   7.537   4.418   1.058  0.0850 -0.0665 -0.0118
 1438W        W 5182   9.071   6.787  12.311  0.1400 -0.2623 -0.1938
 1439W        W 5183   1.839   0.656   4.848  0.0528 -0.1737  0.1391
 1440W        W 5184   5.089   9.255   2.782 -0.1315 -0.3023 -0.0382
 1441W        W 5185   1.688   9.760  11.498 -0.2142 -0.2279 -0.0047
 1442W        W 5186   4.906   1.153  11.767  0.0380  0.3932  0.0203
 1443W        W 5187   3.132   3.689  12.147  0.0895 -0.1936  0.0717
 1444W        W 5188   9.594   1.335  11.668 -0.1298 -0.2718 -0.2220
 1445W        W 5189   8.124   1.890   4.405  0.1587 -0.0713  0.2397
 1446W        W 5190   0.105   6.238   9.314 -0.1813 -0.0275  0.4653
 1447W        W 5191   7.764   2.843   9.650 -0.3791  0.1235  0.1174
 1448W        W 5192   8.829   0.824   1.495 -0.1880  0.5217  0.1263
 1449W        W 5193   2.732   9.329  12.434  0.0671 -0.2656 -0.0568
 1450W        W 5194   0.350   0.594   0.665 -0.0234 -0.0887 -0.1869
 1451W        W 5195   9.821   8.502   1.626 -0.2555 -0.3019  0.0464
 1452W        W 5196   6.479   5.989   9.990  0.0347 -0.1520  0.1342
 1453W        W 5197   5.870   3.776  10.415  0.0957  0.2327  0.1819
 1454W        W 5198   9.246   2.844   4.702 -0.2680  0.2746 -0.2399
 1455W        W 5199   2.091   0.667   2.948 -0.0051 -0.0735  0.1949
 1456W        W 5200   0.993   7.281   2.997 -0.0064 -0.4261 -0.4155
 1457W        W 5201   4.092   8.444  12.990 -0.0216  0.0983  0.4678
 1458W        W 5202   9.688   6.773   4.340  0.0670 -0.0588  0.2403
 1459W        W 5203   4.225   7.290  10.082  0.0488 -0.0753  0.0485
 1460W        W 5204   0.710   0.966   0.629 -0.0298 -0.1783 -0.0291
 1461W        W 5205   1.994   2.369   3.076 -0.0330 -0.0732  0.0298
 1462W        W 5206   9.455   1.198  12.757 -0.0442 -0.0262 -0.0568
 1463W        W 5207   1.182   5.891  12.149 -0.0901 -0.0736 -0.1720
 1464W        W 5208   2.262   1.087   1.083 -0.1521  0.1808  0.2976
 1465W        W 5209   5.809   5.723  10.961  0.0486  0.3510 -0.1023
 1466W        W 5210   7.875   0.446   9.615  0.1001  0.0377  0.1916
 1467W        W 5211   5.257   5.908  12.393 -0.0676 -0.0957  0.0877
 1468W        W 5212   6.776   3.849   4.364  0.1704  0.0196  0.0424
 1469W        W 5213   1.822   7.046   0.699 -0.2645  0.0831 -0.1497
 1470W        W 5214   8.921   1.545   3.380 -0.1359 -0.1879  0.0468
 1471W        W 5215   0.169   6.339  10.658  0.1229 -0.1501 -0.0938
 1472W        W 5216   3.441   9.321  11.044  0.0882  0.0139 -0.0059
 1473W        W 5217   9.693   7.699   5.449  0.3589  0.1978 -0.0124
 1474W        W 5218   6.839   3.205   0.443 -0.3164  0.2094 -0.1078
 1475W        W 5219   6.239   1.076   1.836 -0.3740 -0.1715  0.1115
 1476W        W 5220   7.784   9.041   1.061 -0.3426 -0.0501  0.0861
 1477W        W 5221   2.319   0.354   9.393  0.0133  0.3324 -0.1365
 1478W        W 5222   8.108   5.678  10.674  0.0545 -0.1223 -0.4645
 1479W        W 5223   4.657   4.889  10.212 -0.1961 -0.1617 -0.2776
 1480W        W 5224   0.068   5.930   4.553  0.1235  0.0936  0.0289
 1481W        W 5225   2.041   9.875   8.815 -0.0887  0.2907 -0.1832
 1482W        W 5226   9.832   6.483  11.107 -0.0031  0.0165  0.1248
 1483W        W 5227   6.365   7.233  12.944  0.0734  0.0540  0.1677
 1484W        W 5228   0.092   8.983  12.165  0.1368  0.0556  0.0885
 1485W        W 5229   8.670   6.069   9.695  0.2951 -0.0651  0.0004
 1486W        W 5230   7.453   5.680  10.518 -0.1146 -0.2567  0.1019
 1487W        W 5231   0.155   6.671   0.410  0.3784  0.1880  0.0133
 1488W        W 5232   7.986   3.813  10.623  0.0274  0.2264 -0.2274
 1489W        W 5233   3.051   5.851   0.645  0.0105 -0.2239  0.0671
 1490W        W 5234   6.313   5.609   0.217  0.0001  0.1556 -0.1300
 1491W        W 5235   6.516   0.989  11.776  0.0598 -0.5209 -0.0816
 1492W        W 5236   6.884   6.001   1.630 -0.0666  0.4655 -0.2125
 1493W        W 5237   7.816   4.129  12.549 -0.2006 -0.0928  0.3971
 1494W        W 5238   9.180   7.428   4.173  0.3387 -0.2246 -0.0166
 1495W        W 5239   0.490   5.861   1.850 -0.0766  0.0271  0.2375
 1496W        W 5240   9.133   6.726   9.067  0.0578  0.0610 -0.0942
 1497W        W 5241   7.261   1.781   8.875 -0.3156 -0.1063  0.0385
 1498W        W 5242   2.851   9.062   3.443 -0.1801 -0.1118 -0.0777
 1499W        W 5243   8.034   1.335   2.779  0.3131 -0.0151  0.0948
 1500W        W 5244   3.333   9.336   9.303 -0.0357 -0.0028 -0.0813
 1501W        W 5245   6.463   5.526   2.328 -0.1205  0.2451  0.1550
 1502W        W 5246   9.405   2.597   9.880 -0.0970  0.1243  0.0903
 1503W        W 5247   7.886   4.958   9.581  0.1624  0.0755  0.3013
 1504W        W 5248   1.166   2.372   4.074 -0.0765  0.3134  0.1482
 1505W        W 5249   8.581   6.766   9.388 -0.1603 -0.0641 -0.1693
 1506W        W 5250   3.197   2.611   3.095 -0.0475 -0.0657 -0.1866
 1507W        W 5251   9.053   2.760  11.374 -0.0453 -0.2688  0.0710
 1508W        W 5252   9.134   0.194   9.949  0.0261  0.4416  0.1587
 1509W        W 5253   2.265   3.000   1.200 -0.1171 -0.1648 -0.2582
 1510W        W 5254   5.251   6.602  11.216 -0.2068 -0.0269  0.1110
 1511W        W 5255   2.362   0.146   2.062  0.0476 -0.3977  0.0470
 1512W        W 5256   6.717   4.659  11.342  0.1658  0.2248 -0.3937
 1513W        W 5257   1.698   5.150   9.157  0.4465  0.0082 -0.2864
 1514W        W 5258   1.445   8.342   0.926 -0.0041 -0.0160  0.2307
 1515W        W 5259   5.042   3.506  12.002  0.0832  0.0318 -0.2347
 1516W        W 5260   5.890   4.400   3.706  0.0787 -0.1542  0.2595
 1517W        W 5261   0.311   3.260  12.866 -0.0294 -0.0195  0.0406
 1518W        W 5262   3.649   1.747   2.725  0.0547 -0.1294 -0.5348
 1519W        W 5263   8.555   6.445  11.541 -0.1805  0.3107 -0.1406
 1520W        W 5264   0.201   0.136   9.156 -0.2045 -0.0605 -0.2298
 1521W        W 5265   1.165   0.086   0.919  0.1395 -0.3089  0.0719
 1522W        W 5266   1.589   5.635  12.093 -0.0068  0.1807  0.2512
 1523W        W 5267   2.210   3.110   9.843  0.0866 -0.3153 -0.1506
 1524W        W 5268   4.106   3.957  11.367 -0.1079 -0.0473  0.1521
 1525W        W 5269   7.740   2.864   2.849  0.3589 -0.2098  0.1007
 1526W        W 5270   6.894   2.521  10.892  0.3476  0.1828 -0.1424
 1527W        W 5271   4.896   1.156   0.307  0.0319  0.1086  0.0635
 1528W        W 5272   2.596   5.323  11.458  0.0983  0.4134  0.0762
 1529W        W 5273   1.228   8.266   4.025 -0.2545 -0.1008 -0.0782
 1530W        W 5274   7.421   5.428   0.631  0.3350  0.2718 -0.0244
 1531W        W 5275   1.169   9.534  10.951 -0.0568 -0.4565 -0.2451
 1532W        W 5276   5.480   0.569  11.045 -0.3953 -0.1823  0.0844
 1533W        W 5277   9.428   3.695   3.339  0.2276 -0.3539 -0.0775
 1534W        W 5278   8.657   4.634   2.206 -0.0032 -0.0818 -0.0753
 1535W        W 5279   1.044   4.961   4.215  0.1269 -0.2222 -0.0419
 1536W        W 5280   1.967   4.163   4.154  0.6121  0.1404  0.0443
 1537W        W 5281   2.670   6.342  11.696  0.1039  0.0802  0.1932
 1538W        W 5282   4.904   1.886   2.577  0.3959 -0.0072  0.2259
 1539W        W 5283   2.107   6.142   1.760 -0.0597  0.1300  0.0387
 1540W        W 5284   3.246   9.871   9.269  0.0740 -0.2499 -0.3349
 1541W        W 5285   0.146   7.919   3.390  0.2494 -0.4791 -0.1965
 1542W        W 5286   3.790   1.985   1.410 -0.2572 -0.1231  0.3150
 1543W        W 5287   0.116   3.047  11.496  0.0632  0.0886 -0.0925
 1544W        W 5288   6.669   3.868   3.900  0.0461 -0.0163 -0.1057
 1545W        W 5289   2.429   2.153   0.894  0.2410 -0.0186  0.3211
 1546W        W 5290   1.862   6.835  12.853 -0.0814  0.4153  0.2402
 1547W        W 5291   3.269   4.706   9.462 -0.1512  0.2804  0.1617
 1548W        W 5292   0.064   9.841   1.528  0.1296 -0.0583 -0.0510
 1549W        W 5293   5.869   4.583  10.250  0.0107 -0.4763  0.1785
 1550W        W 5294   4.399   0.051   9.421  0.2814 -0.1639 -0.0861
 1551W        W 5295   8.955   1.087   3.160 -0.2207  0.0711 -0.0171
 1552W        W 5296   8.193   8.729   9.573 -0.0110 -0.0482  0.1373
 1553W        W 5297   4.390   2.248   3.712  0.2281 -0.0212 -0.1251
 1554W        W 5298   9.295   3.513  11.777  0.2241  0.0916 -0.1234
 1555W        W 5299   4.720   3.719   9.658 -0.2108 -0.3595 -0.3335
 1556W        W 5300   7.104   1.684   3.518  0.0700 -0.1291 -0.2710
 1557W        W 5301   4.740   2.463  10.936 -0.1794 -0.1037  0.2946
 1558W        W 5302   9.734   9.053   9.507  0.2779  0.1706 -0.1289
 1559W        W 5303   6.419   3.752   2.396  0.0271  0.0743  0.2997
 1560W        W 5304   9.358   7.775   9.846  0.0915 -0.1008  0.3995
 1561W        W 5305   8.216   6.397   3.396 -0.0096  0.0583  0.3718
 1562W        W 5306   6.049   2.812  11.464  0.0990 -0.0324  0.0504
 1563W        W 5307   3.361   8.744   1.914  0.0354  0.0145  0.0477
 1564W        W 5308   9.813   9.101  10.879  0.3029 -0.2545  0.1816
 1565W        W 5309   9.094   8.512  11.868 -0.0074 -0.4094  0.1430
 1566W        W 5310   8.234   1.144  12.269 -0.0342  0.1111 -0.2526
 1567W        W 5311   3.834   9.478   2.317 -0.3521  0.0372  0.0147
 1568W        W 5312   3.162   6.342   2.368  0.2542 -0.2068  0.1279
 1569W        W 5313   1.539   5.106   4.373 -0.0427 -0.2008 -0.2092
 1570W        W 5314   5.035   6.569   0.204  0.3156  0.0577  0.0935
 1571W        W 5315   8.233   2.584   0.020  0.3056 -0.2924  0.4093
 1572W        W 5316   3.395   7.159  12.399  0.0736  0.0997  0.0894
 1573W        W 5317   3.625   1.427   0.924  0.2835 -0.6093  0.0811
 1574W        W 5318   0.845   3.156   4.394  0.0901 -0.0918 -0.0333
 1575W        W 5319   4.854   5.414   4.519  0.3643  0.1738  0.1799
 1576W        W 5320   7.638   7.273   1.942 -0.0621 -0.0210 -0.0237
 1577W        W 5321   9.587   2.904   2.266  0.1888  0.0699  0.0213
 1578W        W 5322   3.685   0.098   1.212  0.2737 -0.1425  0.1839
 1579W        W 5323   0.706   8.725  12.658  0.1024 -0.2557 -0.1122
 1580W        W 5324   7.175   4.809   0.993  0.3021  0.1430  0.3157
 1581W        W 5325   3.435   5.309   1.171  0.2383  0.0914 -0.3927
 1582W        W 5326   4.068   0.963   2.239 -0.4078  0.3329  0.1281
 1583W        W 5327   7.591   1.916   2.435 -0.0422 -0.0258  0.0734
 1584W        W 5328   1.293   0.322   1.379 -0.0197 -0.2731 -0.1765
 1585W        W 5329   7.483   4.200   2.702 -0.1407 -0.1451  0.3424
 1586W        W 5330   4.079   4.029   3.559  0.1906 -0.2360  0.1216
 1587W        W 5331   0.875   9.038   0.778 -0.2971  0.0853  0.1244
 1588W        W 5332   1.556   7.803   4.032  0.0922  0.1735  0.0332
 1589W        W 5333   3.564   2.624   2.558 -0.1193 -0.2635  0.2310
 1590W        W 5334   3.971   3.534   3.609  0.5255  0.1457  0.1161
 1591W        W 5335   4.250   0.392  12.246 -0.1274 -0.1978  0.0627
 1592W        W 5336   4.735   1.257   3.840  0.2534  0.1455 -0.2404
 1593W        W 5337   8.213   1.221   4.396  0.1038 -0.2424  0.0067
 1594W        W 5338   4.322   8.010   8.964 -0.2521  0.2780 -0.1389
 1595W        W 5339   0.144   4.602  10.451 -0.2776  0.1862  0.1383
 1596W        W 5340   2.843   1.830  10.412  0.0342  0.1377 -0.2521
 1597W        W 5341   2.944   7.661  11.674  0.1030  0.1130 -0.0561
 1598W        W 5342   1.667   3.182  12.686 -0.1727 -0.2083  0.0990
 1599W        W 5343   0.968   3.053   1.614  0.3994 -0.0143 -0.0104
 1600W        W 5344   7.734   1.553   4.474 -0.1335  0.0020  0.0550
 1601W        W 5345   2.142   5.861   3.939 -0.0060 -0.1707  0.1460
 1602W        W 5346   3.394   4.161   0.617  0.1311 -0.0178 -0.2249
 1603W        W 5347   2.880   8.268  10.491 -0.1985 -0.2457 -0.0040
 1604W        W 5348   0.160   2.190   1.712  0.0544  0.6060 -0.0320
 1605W        W 5349   8.062   3.770  11.782 -0.0188  0.4341 -0.1900
 1606W        W 5350   6.025   7.385  12.595  0.1281  0.0378 -0.0401
 1607W        W 5351   5.768   0.459   3.577 -0.2418 -0.0661 -0.0311
 1608W        W 5352   8.553   3.209  10.129  0.0013 -0.0514  0.0198
 1609W        W 5353   8.261   5.759  11.905 -0.0245  0.0156 -0.0683
 1610W        W 5354   1.043   7.948   1.276  0.0959  0.0204 -0.0030
 1611W        W 5355   0.794   7.774   2.112 -0.0190  0.2154 -0.2134
 1612W        W 5356   8.500   9.066  12.137 -0.0871  0.1198 -0.0919
 1613W        W 5357   6.885   2.850   2.771 -0.0982  0.1424  0.0454
 1614W        W 5358   5.626   5.439   2.996 -0.2138 -0.0419  0.2740
 1615W        W 5359   8.802   9.324  11.263  0.0624  0.3206  0.0357
 1616W        W 5360   2.468   1.904   9.827  0.0646  0.1074  0.0273
 1617W        W 5361   2.443   9.164  11.132  0.2239 -0.1595 -0.0318
 1618W        W 5362   3.092   2.820   2.515 -0.4475  0.2356 -0.0032
 1619W        W 5363   6.226   9.886   9.836  0.0366 -0.0204  0.0521
 1620W        W 5364   0.652   2.543   1.144  0.1548 -0.5521 -0.0915
 1621W        W 5365   6.005   2.291  11.700 -0.0401 -0.0308  0.3805
 1622W        W 5366   8.032   9.035   2.577  0.0143 -0.1127  0.2240
 1623W        W 5367   6.427   2.338   0.475 -0.5354 -0.0874  0.1011
 1624W        W 5368   3.675   9.649  11.721 -0.2976  0.3673 -0.1619
 1625W        W 5369   5.331   0.995   2.597  0.1003 -0.1887 -0.1499
 1626W        W 5370   1.372   9.409  11.897  0.2893 -0.0369  0.0416
 1627W        W 5371   7.389   6.374   1.002 -0.0886 -0.0012 -0.0673
 1628W        W 5372   5.430   8.339  11.228 -0.0104 -0.0752  0.0376
 1629W        W 5373   4.049   9.048   1.353 -0.0608  0.0786 -0.1190
 1630W        W 5374   5.806   6.896   0.839 -0.2475  0.0988 -0.1284
 1631W        W 5375   3.966   6.921  12.323  0.0925  0.3620  0.0472
 1632W        W 5376   2.349   3.353  10.331  0.1226  0.0507 -0.0284
 1633W        W 5377   8.991   7.458   0.707 -0.0875  0.1690  0.0451
 1634W        W 5378   3.580   7.780   2.954  0.0803  0.1224 -0.3063
 1635W        W 5379   6.653   2.898  11.292 -0.2667  0.1716 -0.2156
 1636W        W 5380   1.976   1.749   5.047  0.0669 -0.0114  0.1124
 1637W        W 5381   9.856   3.456  11.149  0.0299  0.1603  0.0237
 1638W        W 5382   8.262   2.334   2.445  0.1169  0.0251 -0.2403
 1639W        W 5383   6.727   5.650  10.435 -0.2106  0.0239 -0.0204
 1640W        W 5384   5.984   8.432  10.907  0.0386  0.1361 -0.0168
 1641W        W 5385   7.267   7.270  12.283  0.0687 -0.0686 -0.0066
 1642W        W 5386   8.678   0.910  10.946  0.0935  0.0049 -0.1437
 1643W        W 5387   2.107   4.821   9.051 -0.0180 -0.4562 -0.2049
 1644W        W 5388   4.577   5.086   0.274  0.2214  0.3601 -0.0270
 1645W        W 5389   4.182   3.173   3.882  0.0092  0.0510  0.0520
 1646W        W 5390   2.367   0.905  11.884 -0.0073  0.0153  0.0498
 1647W        W 5391   2.201   7.016   8.270 -0.5701 -0.0901 -0.1466
 1648W        W 5392   0.787   9.196  12.905 -0.3031  0.0214 -0.1258
 1649W        W 5393   2.997   2.639   9.608 -0.3431 -0.1932  0.1627
 1650W        W 5394   8.409   5.597   3.001  0.2879 -0.1671  0.0160
 1651W        W 5395   6.542   3.861  11.622  0.1407  0.0198  0.0574
 1652W        W 5396   0.405   0.242   1.754 -0.1733  0.2716 -0.2856
 1653W        W 5397   5.328   6.444   9.378 -0.1641 -0.0303  0.0163
 1654W        W 5398   9.043   0.334  10.449 -0.0996  0.1600 -0.0955
 1655W        W 5399   4.318   9.548   2.364  0.0554  0.0290 -0.1534
 1656W        W 5400   9.397   7.047   9.344  0.2282 -0.1744 -0.0061
 1657W        W 5401   9.030   6.738  10.779  0.3043  0.0852 -0.1546
 1658W        W 5402   4.896   7.419  10.178  0.2627 -0.3632 -0.2385
 1659W        W 5403   7.809   7.901  12.737 -0.3459 -0.4241 -0.2145
 1660W        W 5404   8.944   3.608   3.238  0.3635 -0.0592  0.0517
 1661W        W 5405   6.549   1.565   2.794 -0.0518 -0.0566  0.2506
 1662W        W 5406   0.090   7.833   3.907  0.0183 -0.1809  0.0526
 1663W        W 5407   6.848   7.267  12.600  0.1868 -0.2215 -0.3556
 1664W        W 5408   0.072   7.182   5.102  0.0883  0.3140 -0.2306
 1665W        W 5409   8.985   0.090  12.886 -0.1929 -0.0058 -0.2975
 1666W        W 5410   6.039   1.671   2.057 -0.1571 -0.3244 -0.0123
 1667W        W 5411   7.862   7.121   8.257 -0.1159  0.0720 -0.2413
 1668W        W 5412   5.375   4.425  12.118  0.1352 -0.0066  0.1652
 1669W        W 5413   6.437   8.973  10.174  0.0865  0.1063  0.1047
 1670W        W 5414   3.817   6.682   1.825  0.0304 -0.2341  0.1128
 1671W        W 5415   8.218   2.097   5.251 -0.2091 -0.2512 -0.2480
 1672W        W 5416   7.319   4.052   8.466  0.3275 -0.2133 -0.1690
 1673W        W 5417   7.210   2.267   3.978 -0.1775  0.1286 -0.0605
 1674W        W 5418   9.582   6.913   0.025 -0.0404 -0.1833  0.1476
 1675W        W 5419   2.878   9.600   9.416  0.2381  0.1142 -0.2307
 1676W        W 5420   0.746   7.307  12.492 -0.3080  0.0772 -0.0706
 1677W        W 5421   4.668   0.116  12.489  0.0185  0.2190  0.0422
 1678W        W 5422   6.537   2.639   1.716 -0.2287 -0.3252 -0.0013
 1679W        W 5423   1.923   5.464  11.548 -0.1721 -0.0477 -0.1940
 1680W        W 5424   8.141   8.848  12.902 -0.1725 -0.4418 -0.1236
 1681W        W 5425   4.087   1.032  10.105  0.1975  0.0533 -0.2105
 1682W        W 5426   1.694   1.958   4.139  0.0319 -0.1067 -0.1607
 1683W        W 5427   5.466   4.056   2.182  0.0677  0.1268 -0.0247
 1684W        W 5428   3.714   6.087  12.076  0.0848 -0.3691 -0.0930
 1685W        W 5429   3.417   6.284   0.497  0.0454 -0.0035 -0.0989
 1686W        W 5430   3.329   0.517   3.097 -0.5499 -0.3012  0.0173
 1687W        W 5431   2.514   4.956   2.104 -0.0854 -0.2862 -0.0247
 1688W        W 5432   4.668   3.649  10.703  0.0049 -0.1491  0.0464
 1689W        W 5433   2.886   1.220   0.402  0.1745  0.0967  0.2349
 1690W        W 5434   0.150   2.390   4.827 -0.0281  0.2087  0.1568
 1691W        W 5435   1.984   5.990   0.437 -0.2411  0.3017 -0.0237
 1692W        W 5436   8.179   7.895   1.045 -0.1118 -0.0764  0.1175
 1693W        W 5437   8.181   0.923   8.322  0.2411  0.1471  0.4408
 1694W        W 5438   5.223   9.063   9.328  0.1181 -0.0073  0.0976
 1695W        W 5439   0.717   0.328  11.318  0.0395 -0.1013 -0.0070
 1696W        W 5440   8.531   5.794   9.308 -0.0496 -0.0469  0.0494
 1697W        W 5441   8.121   4.954  12.624  0.1098  0.0807  0.2181
 1698W        W 5442   8.148   9.579   1.122  0.3478 -0.2228  0.1289
 1699W        W 5443   7.934   7.038  10.250 -0.2048 -0.1324  0.1083
 1700W        W 5444   3.833   7.520  10.450 -0.0783 -0.0617 -0.1859
 1701W        W 5445   4.657   7.660   0.248 -0.0195 -0.3022  0.0334
 1702W        W 5446   9.248   5.521   3.515 -0.0554 -0.1102 -0.0655
 1703W        W 5447   6.101   6.338   1.346  0.0707  0.0912  0.0383
 1704W        W 5448   5.515   5.452   9.875  0.1412  0.0810 -0.1620
 1705W        W 5449   9.220   5.810   3.957  0.0811 -0.1536 -0.0308
 1706W        W 5450   4.701   4.010   0.527  0.0741  0.2320 -0.1427
 1707W        W 5451   4.809   3.033   3.948  0.1473 -0.3046  0.0579
 1708W        W 5452   7.337   7.127   2.327 -0.1482  0.0675 -0.3379
 1709W        W 5453   8.424   2.692   1.717 -0.0537  0.0574 -0.3951
 1710W        W 5454   8.290   5.122  10.461  0.0216 -0.1167 -0.4706
 1711W        W 5455   2.604   9.419  11.849  0.0112 -0.2146  0.0504
 1712W        W 5456   5.873   9.744   8.996 -0.0226  0.0737  0.2551
 1713W        W 5457   5.287   5.412  12.209  0.1764 -0.1096 -0.0501
 1714W        W 5458   9.781   4.635   1.470 -0.1203  0.3453  0.2270
 1715W        W 5459   1.021   3.174   3.090 -0.1826  0.2733 -0.0913
 1716W        W 5460   4.480   0.511   2.719 -0.3106  0.1850 -0.2402
 1717W        W 5461   7.240   2.587   1.174 -0.0757  0.0913  0.2919
 1718W        W 5462   1.049   7.105   1.736 -0.0942  0.0268 -0.1576
 1719W        W 5463   9.677   1.336   4.488  0.0628 -0.2183  0.1767
 1720W        W 5464   5.184   2.493   0.725 -0.0861 -0.0228  0.1017
 1721W        W 5465   1.044   8.451   2.064  0.0075 -0.1174 -0.1766
 1722W        W 5466   4.782   6.216   3.541 -0.0347 -0.0748 -0.1276
 1723W        W 5467   8.467   3.787   4.085 -0.0164  0.0466  0.2122
 1724W        W 5468   7.420   0.712   1.257  0.0730  0.1476  0.0109
 1725W        W 5469   5.264   6.055  10.199  0.1540 -0.1085 -0.2879
 1726W        W 5470   1.546   3.913   4.436  0.4617  0.6328 -0.1915
 1727W        W 5471   6.262   5.077   8.656  0.1005  0.2692 -0.2062
 1728W        W 5472   9.859   8.720   2.237 -0.4727 -0.1054 -0.1986
 1729W        W 5473   5.710   2.161  12.092  0.0077 -0.0176 -0.0044
 1730W        W 5474   2.305   1.793   8.843  0.3535 -0.3219  0.1400
 1731W        W 5475   1.392   9.513   3.646 -0.1869  0.1677 -0.2329
 1732W        W 5476   6.058   2.590   8.140 -0.3494 -0.1070 -0.0802
 1733W        W 5477   5.579   8.376  11.863  0.0944  0.0975  0.2972
 1734W        W 5478   5.719   1.493   9.558  0.2818  0.0645 -0.1607
 1735W        W 5479   8.468   7.110   2.926  0.0107  0.1609 -0.1621
 1736W        W 5480   2.244   2.533  10.661  0.1102  0.0865  0.2160
 1737W        W 5481   7.722   1.483   9.033  0.2131  0.2507  0.3913
 1738W        W 5482   6.415   6.690   1.175  0.1041  0.1988 -0.0635
 1739W        W 5483   4.577   4.233   0.037 -0.3897  0.0835 -0.0399
 1740W        W 5484   3.807   0.143   0.596  0.0679 -0.0074  0.0474
 1741W        W 5485   8.693   7.089   0.151 -0.3390 -0.0857  0.3684
 1742W        W 5486   5.911   4.393   1.731 -0.0021 -0.1554 -0.1828
 1743W        W 5487   2.882   6.909  10.589 -0.1949 -0.3467 -0.0326
 1744W        W 5488   7.022   0.951   0.953  0.4144 -0.1797 -0.0926
 1745W        W 5489   1.829   6.460   2.885 -0.0490 -0.0659  0.0209
 1746W        W 5490   1.177   9.289   9.543  0.2581  0.3185  0.0084
 1747W        W 5491   5.536   4.185   0.631 -0.1528  0.0080  0.0299
 1748W        W 5492   6.873   4.323   2.615  0.2474 -0.2447  0.1674
 1749W        W 5493   1.835   4.742   1.441  0.2052 -0.0537 -0.0511
 1750W        W 5494   5.750   1.849   1.663  0.0746 -0.3790 -0.2826
 1751W        W 5495   4.331   5.303   1.333  0.1969 -0.0705  0.0607
 1752W        W 5496   0.701   1.822   9.541  0.0201  0.1206  0.1255
 1753W        W 5497   0.346   4.712   2.891  0.1122 -0.2272 -0.1888
 1754W        W 5498   5.303   7.145  12.852  0.1157  0.5170 -0.1559
 1755W        W 5499   6.897   6.303  12.947 -0.0783 -0.1444  0.1952
 1756W        W 5500   0.855   7.673   4.428  0.1018 -0.1807  0.1302
 1757W        W 5501   1.876   1.922  11.501 -0.0336 -0.1995 -0.0833
 1758W        W 5502   0.617   3.248  11.424  0.1263  0.1966 -0.0345
 1759W        W 5503   3.210   3.696   0.194 -0.0957 -0.3357 -0.0460
 1760W        W 5504   0.967   7.259   0.347  0.0185  0.3502 -0.3551
 1761W        W 5505   9.336   1.323   2.421  0.0470  0.2130  0.2413
 1762W        W 5506   0.039   6.804   9.068  0.1620 -0.0048  0.1167
 1763W        W 5507   5.995   3.001  12.210 -0.3285  0.1448  0.0987
 1764W        W 5508   9.274   8.315  10.425  0.0604 -0.3483 -0.1203
 1765W        W 5509   0.355   7.702   8.724 -0.1764  0.0174 -0.1422
 1766W        W 5510   0.429   4.401  12.397 -0.1362  0.2463  0.2148
 1767W        W 5511   7.954   4.253   2.420 -0.0318  0.1675  0.1776
 1768W        W 5512   3.453   3.153   2.489 -0.1211  0.4171 -0.0750
 1769W        W 5513   9.050   7.124  12.770  0.0697 -0.1350  0.0061
 1770W        W 5514   5.408   3.129   1.944 -0.1724  0.2482  0.1151
 1771W        W 5515   3.352   7.370  11.703 -0.1391 -0.2427  0.2374
 1772W        W 5516   4.900   8.149   1.121 -0.1582 -0.0489  0.2310
 1773W        W 5517   8.587   7.525   1.434  0.1936 -0.1046 -0.0718
 1774W        W 5518   1.968   0.407  10.634 -0.0169  0.1252  0.0012
 1775W        W 5519   1.541   5.854   2.030  0.2559 -0.0513 -0.0151
 1776W        W 5520   6.423   3.117   3.101 -0.1312  0.1365  0.1208
 1777W        W 5521   2.924   3.879   9.301  0.1403 -0.2420 -0.1336
 1778W        W 5522   5.249   2.524  11.099 -0.0191  0.1202  0.0795
 1779W        W 5523   6.296   1.914   0.733  0.0703  0.2610  0.2325
 1780W        W 5524   6.820   0.925   2.725 -0.0460 -0.2684 -0.0950
 1781W        W 5525   0.130   3.953   0.279 -0.0625 -0.2569 -0.0466
 1782W        W 5526   7.270   5.430   8.730  0.5470 -0.1386 -0.0140
 1783W        W 5527   6.000   4.042   2.582 -0.0145 -0.2075  0.0249
 1784W        W 5528   7.417   4.098   5.397  0.2588 -0.0146  0.0382
 1785W        W 5529   4.991   8.690  10.434  0.2116  0.3030  0.1179
 1786W        W 5530   9.513   6.966  10.330 -0.2301 -0.3141 -0.2323
 1787W        W 5531   2.681   4.277   2.604  0.0147 -0.0136 -0.1534
 1788W        W 5532   4.015   1.728   9.068  0.1142 -0.5346  0.0400
 1789W        W 5533   8.671   8.426   2.944  0.1552 -0.1596  0.4617
 1790W        W 5534   1.582   7.623  11.356  0.0743 -0.0630 -0.1056
 1791W        W 5535   0.247   5.159  11.043 -0.0906 -0.2051 -0.1835
 1792W        W 5536   6.565   2.963   4.361 -0.0646  0.0602  0.0465
 1793W        W 5537   5.641   4.643   1.263  0.0670 -0.1440  0.4931
 1794W        W 5538   3.319   8.543  11.178  0.0269  0.1016  0.2496
 1795W        W 5539   6.881   1.855   3.102  0.1232 -0.1777 -0.3498
 1796W        W 5540   9.867   0.470   3.361 -0.0301 -0.0256  0.1428
 1797W        W 5541   5.472   5.468   3.688  0.0377  0.0260 -0.1742
 1798W        W 5542   3.744   1.062   2.601  0.1412  0.4112  0.1407
 1799W        W 5543   0.260   6.686   2.610 -0.0306 -0.0813 -0.2361
 1800W        W 5544   1.925   4.501   9.853  0.0134 -0.0788 -0.1850
 1801W        W 5545   4.833   5.154   9.577 -0.0129 -0.1956 -0.2743
 1802W        W 5546   4.849   8.320   1.614  0.1220  0.1205 -0.2298
 1803W        W 5547   4.564   3.705   4.593  0.0837 -0.0425  0.2091
 1804W        W 5548   7.767   7.637   1.051  0.0165  0.0902 -0.0160
 1805W        W 5549   5.259   1.690  12.514  0.0327 -0.1439 -0.2694
 1806W        W 5550   5.143   7.813  12.433  0.0417  0.0480 -0.4086
 1807W        W 5551   8.385   5.623   2.449 -0.0885 -0.0230 -0.1763
 1808W        W 5552   1.739   5.233  10.035 -0.0120 -0.1253 -0.1548
 1809W        W 5553   2.917   9.528   2.135 -0.2392 -0.1812  0.0628
 1810W        W 5554   4.649   1.155   1.986 -0.1705  0.0186  0.0420
 1811W        W 5555   8.320   4.234  12.113  0.1521 -0.2520  0.0326
 1812W        W 5556   5.136   1.542   0.384  0.1469  0.0126  0.1852
 1813W        W 5557   4.810   0.067   8.928  0.1029  0.2503 -0.2117
 1814W        W 5558   5.014   3.214  12.477 -0.2231  0.1037 -0.0722
 1815W        W 5559   7.158   6.760   8.245  0.0881 -0.0272 -0.2543
 1816W        W 5560   6.160   4.578   3.206 -0.0104 -0.1548 -0.1830
 1817W        W 5561   8.173   6.624  11.267  0.1827  0.0887  0.1534
 1818W        W 5562   5.544   9.596   9.346 -0.0924  0.2078  0.1232
 1819W        W 5563   4.813   7.428   5.422 -0.0442  0.2761 -0.2956
 1820W        W 5564   4.811   5.699  12.086 -0.3301 -0.1148  0.1096
 1821W        W 5565   3.620   2.515  10.231 -0.0693 -0.0447  0.0933
 1822W        W 5566   2.555   7.227   9.467  0.0840  0.2746  0.0739
 1823W        W 5567   2.109   3.347   0.802 -0.0591  0.2314 -0.0260
 1824W        W 5568   2.509   6.104   9.066  0.1911  0.2427 -0.1626
 1825W        W 5569   8.769   3.610   8.719 -0.0844 -0.3063  0.0650
 1826W        W 5570   4.750   1.996   1.355 -0.3195 -0.2195 -0.4439
 1827W        W 5571   4.301   4.412   1.424  0.2035 -0.1560 -0.0420
 1828W        W 5572   5.545   2.486   4.157 -0.3285 -0.1558 -0.1878
 1829W        W 5573   0.636   9.736   1.971  0.1623  0.2960 -0.3510
 1830W        W 5574   0.202   9.016   1.978 -0.0383 -0.2126  0.0653
 1831W        W 5575   0.106   5.973  10.339  0.1116  0.1970  0.0207
 1832W        W 5576   5.590   1.193   9.918  0.0186 -0.1885  0.1861
 1833W        W 5577   1.265   9.504  12.904 -0.1062  0.5136  0.0486
 1834W        W 5578   8.955   2.721   0.341 -0.0113  0.2958  0.0805
 1835W        W 5579   1.547   2.848  11.783 -0.5112 -0.3081 -0.1679
 1836W        W 5580   5.464   4.602   3.348 -0.0605  0.1521 -0.0649
 1837W        W 5581   3.832   7.362  12.022  0.1394  0.2234 -0.0755
 1838W        W 5582   1.982   7.912  11.751 -0.0286  0.1051  0.0338
 1839W        W 5583   4.548   2.630  10.439 -0.1838  0.2195  0.5079
 1840W        W 5584   2.786   2.466   2.816  0.0500  0.0287 -0.2418
 1841W        W 5585   9.766   1.610   9.638 -0.2434  0.0090  0.2981
 1842W        W 5586   3.081   5.398   0.265 -0.0499 -0.3861  0.0812
 1843W        W 5587   5.496   3.518  10.660 -0.2355 -0.0893  0.1947
 1844W        W 5588   1.380   8.854   8.487 -0.0999  0.4200 -0.2491
 1845W        W 5589   2.036   0.174  12.438 -0.0994  0.0805 -0.0454
 1846W        W 5590   8.022   1.568   4.032 -0.1959 -0.2861 -0.3006
 1847W        W 5591   2.921   8.606  11.495 -0.1357 -0.0719  0.1271
 1848W        W 5592   8.470   6.991   4.220  0.2255 -0.0133  0.2053
 1849W        W 5593   4.584   7.073   1.082 -0.0373 -0.0901 -0.0500
 1850W        W 5594   8.242   7.330   0.890 -0.1354 -0.3845  0.0770
 1851W        W 5595   9.181   8.804   9.717 -0.0112  0.2148 -0.2593
 1852W        W 5596   1.326   1.494  11.053 -0.0389 -0.2854  0.1620
 1853W        W 5597   3.370   9.289   1.974  0.0014 -0.1564  0.0521
 1854W        W 5598   9.218   7.739  11.494 -0.1433  0.1479  0.3528
 1855W        W 5599   0.613   4.514   1.931  0.1148 -0.0495 -0.0178
 1856W        W 5600   1.971   3.600  11.266 -0.1171 -0.1494  0.1236
 1857W        W 5601   0.510   0.359   4.756  0.0600 -0.1372  0.1207
 1858W        W 5602   8.727   2.646  10.296 -0.0186  0.1796  0.1266
 1859W        W 5603   7.729   9.162  10.667 -0.0318  0.3912 -0.0328
 1860W        W 5604   5.772   3.517  12.162 -0.1071  0.0893 -0.0077
 1861W        W 5605   8.693   8.626   9.781 -0.0677 -0.0464 -0.1927
 1862W        W 5606   8.544   7.416   0.517  0.2526  0.0980  0.2600
 1863W        W 5607   7.741   4.861   1.232 -0.1824  0.1338 -0.1415
 1864W        W 5608   2.377   6.616  10.126  0.1590  0.1569 -0.1006
 1865W        W 5609   7.567   9.429   0.390 -0.3219 -0.0343  0.1159
 1866W        W 5610   8.646   2.173  10.432 -0.1360  0.1701 -0.1025
 1867W        W 5611   5.205   5.881   0.984  0.2196  0.3832  0.1495
 1868W        W 5612   9.502   0.840   5.094  0.1046  0.2174  0.1444
 1869W        W 5613   2.222   4.199   3.624 -0.3381 -0.0843 -0.0291
 1870W        W 5614   9.263   1.212   3.619  0.0520  0.2255 -0.2441
 1871W        W 5615   2.159   3.402  11.904  0.1633 -0.0440  0.0051
 1872W        W 5616   8.875   0.361   9.420 -0.0898 -0.1231  0.0742
 1873W        W 5617   9.600   7.363  11.533 -0.0377 -0.3248 -0.1459
 1874W        W 5618   8.815   1.305   1.655  0.0381 -0.3943  0.1842
 1875W        W 5619   0.041   9.694  10.927  0.0158 -0.2815  0.1363
 1876W        W 5620   8.594   8.637   3.406 -0.0564 -0.1977  0.0533
 1877W        W 5621   6.448   7.759  12.074 -0.0733 -0.1725  0.1732
 1878W        W 5622   9.479   7.141  12.497 -0.0340  0.2336  0.1055
 1879W        W 5623   4.078   2.410  10.141 -0.1004  0.4450  0.0819
 1880W        W 5624   1.178   4.416  11.127 -0.3355  0.0127 -0.0330
 1881W        W 5625   4.311   3.662   3.965  0.0052 -0.2806  0.1950
 1882W        W 5626   0.268   7.160  12.261  0.2142 -0.0467 -0.0448
 1883W        W 5627   1.997   3.861  10.825 -0.1792 -0.1582  0.0573
 1884W        W 5628   2.053   6.470   2.455 -0.0625 -0.2282 -0.0257
 1885W        W 5629   9.149   5.693   3.054  0.0441  0.4251  0.0368
 1886W        W 5630   1.400   2.703   9.768  0.1226 -0.0581 -0.3912
 1887W        W 5631   1.573   6.877   9.074  0.4908  0.0813 -0.1588
 1888W        W 5632   0.990   1.831  11.778  0.1768  0.3039 -0.0868
 1889W        W 5633   5.292   1.025   0.656 -0.1923 -0.3703  0.0150
 1890W        W 5634   9.159   3.364   2.413 -0.1334 -0.0006 -0.1440
 1891W        W 5635   4.246   1.660   0.226 -0.0460 -0.0632  0.0903
 1892W        W 5636   8.290   9.727   9.991 -0.4513  0.1612 -0.2883
 1893W        W 5637   0.378   2.093  11.379 -0.1335 -0.0999 -0.0723
 1894W        W 5638   1.812   7.728   0.698 -0.0524 -0.0791  0.1268
 1895W        W 5639   4.941   7.244   2.540  0.3544 -0.1809  0.3011
 1896W        W 5640   0.128   4.953   3.628 -0.1915  0.0762  0.2490
 1897W        W 5641   0.870   5.672   3.632  0.0529 -0.2267 -0.1125
 1898W        W 5642   2.751   4.485   3.936 -0.0738  0.0744 -0.4233
 1899W        W 5643   4.116   2.793   1.244  0.4613  0.1491 -0.1143
 1900W        W 5644   2.154   7.120   3.745 -0.3166  0.1403 -0.0081
 1901W        W 5645   6.681   4.726   9.938 -0.2206  0.1400 -0.0213
 1902W        W 5646   3.125   7.323   2.925  0.3061 -0.0231  0.2406
 1903W        W 5647   4.096   4.219  12.401 -0.0245 -0.0314 -0.1523
 1904W        W 5648   0.897   1.628   2.394  0.0678  0.1333 -0.0794
 1905W        W 5649   3.597   5.306  10.483 -0.2384  0.1633  0.0889
 1906W        W 5650   2.793   3.845   2.355  0.2277  0.1044 -0.0706
 1907W        W 5651   3.857   6.122   9.358 -0.0570 -0.0248  0.1522
 1908W        W 5652   3.099   4.934   3.810  0.1708  0.2257 -0.1810
 1909W        W 5653   1.286   0.013   1.774 -0.1744  0.1590 -0.1883
 1910W        W 5654   1.395   7.022   0.293 -0.1062  0.0671  0.2178
 1911W        W 5655   8.813   9.416  11.769  0.0083 -0.0263  0.2436
 1912W        W 5656   6.242   3.762   0.384  0.1047  0.4139  0.1355
 1913W        W 5657   2.487   9.076   1.613 -0.1833  0.2632  0.0309
 1914W        W 5658   0.225   2.705   9.150  0.1103 -0.4156 -0.1669
 1915W        W 5659   9.617   3.536   2.473 -0.0102 -0.0381 -0.1268
 1916W        W 5660   4.698   6.563   9.968  0.1459 -0.2291  0.1303
 1917W        W 5661   4.216   1.573   9.943 -0.1452 -0.1831  0.1627
 1918W        W 5662   1.273   2.311  11.092  0.0394  0.0378 -0.1629
 1919W        W 5663   3.782   2.979   2.820 -0.0903 -0.1712 -0.1091
 1920W        W 5664   2.737   7.755  11.268 -0.3588 -0.0593 -0.4911
 1921W        W 5665   7.258   4.329  10.526 -0.1621 -0.1515 -0.1084
 1922W        W 5666   1.040   9.536   3.292  0.0800 -0.4508 -0.0347
 1923W        W 5667   0.062   6.669  12.841 -0.1648 -0.0929 -0.0685
 1924W        W 5668   0.710   7.035   9.179  0.0324 -0.0174 -0.1670
 1925W        W 5669   5.745   4.009  12.088  0.0556  0.2418  0.0667
 1926W        W 5670   8.516   8.603  12.623  0.0326 -0.0841 -0.0221
 1927W        W 5671   4.516   9.509   9.016 -0.0385 -0.2236 -0.3045
 1928W        W 5672   7.912   1.033  11.721  0.1830 -0.3807 -0.4498
 1929W        W 5673   8.063   0.608  11.508  0.0393  0.1443  0.1358
 1930W        W 5674   2.505   0.733   3.464 -0.0588 -0.1167  0.1876
 1931W        W 5675   4.043   9.693  12.074 -0.0921  0.2985  0.0759
 1932W        W 5676   3.328   4.034  10.355 -0.0870 -0.2348  0.1192
 1933W        W 5677   1.677   6.536  10.404 -0.1626 -0.1972  0.2323
 1934W        W 5678   8.982   7.679   3.333  0.0708 -0.4865  0.0339
 1935W        W 5679   8.359   1.406  10.927 -0.1368 -0.1895 -0.0944
 1936W        W 5680   4.311   1.805  11.640 -0.0485 -0.0507 -0.0476
 1937W        W 5681   7.787   2.077   0.533  0.0236  0.1832  0.0102
 1938W        W 5682   9.396   5.643  10.754  0.0260  0.1853 -0.2106
 1939W        W 5683   2.543   8.965  11.631 -0.0282 -0.1317  0.1022
 1940W        W 5684   7.953   3.498  12.747  0.0987  0.0945  0.0794
 1941W        W 5685   6.357   0.389   0.608  0.2378 -0.0251 -0.1241
 1942W        W 5686   0.678   3.792   2.534  0.2593  0.0169  0.0263
 1943W        W 5687   5.494   5.038   9.604 -0.2982 -0.1649 -0.1737
 1944W        W 5688   1.625   3.627   1.407  0.0386  0.0729 -0.4918
 1945W        W 5689   5.129   3.644   2.820 -0.1331 -0.1356 -0.2212
 1946W        W 5690   7.689   3.987   0.962  0.1267  0.0437  0.1442
 1947W        W 5691   7.293   8.599   3.883 -0.0060  0.2571 -0.0185
 1948W        W 5692   6.558   5.320  12.536 -0.0047  0.1620 -0.0797
 1949W        W 5693   5.343   5.198   1.956 -0.2027  0.1039 -0.1437
 1950W        W 5694   9.662   1.657   1.052  0.4229 -0.0459 -0.3087
 1951W        W 5695   1.800   2.126   3.441  0.0111 -0.0132 -0.5263
 1952W        W 5696   2.814   0.569   2.124  0.2402 -0.0897 -0.2995
 1953W        W 5697   2.250   6.782   3.079  0.0652  0.1628 -0.1583
 1954W        W 5698   8.936   4.582   3.740 -0.0371  0.0075 -0.0470
 1955W        W 5699   0.997   9.208   1.433 -0.2581  0.1427 -0.0218
 1956W        W 5700   7.177   8.482   0.032 -0.0006  0.1624  0.0550
 1957W        W 5701   7.655   4.412  11.431 -0.0855  0.1430  0.0588
 1958W        W 5702   7.938   6.232  11.694 -0.0389  0.1632 -0.1397
 1959W        W 5703   2.183   5.356   2.203  0.0511 -0.0440  0.1663
 1960W        W 5704   4.093   2.433   2.696 -0.0355 -0.0306 -0.0049
 1961W        W 5705   0.830   3.711  11.821  0.4214 -0.1873 -0.0115
 1962W        W 5706   3.141   5.909   9.906  0.0503  0.0571  0.0233
 1963W        W 5707   0.212   8.670  12.557  0.0651  0.1648  0.0649
 1964W        W 5708   7.516   6.146   9.141 -0.2570 -0.3574  0.2074
 1965W        W 5709   5.084   1.753   3.114  0.1452  0.0947  0.3141
 1966W        W 5710   9.757   3.935  10.987 -0.0721  0.1165  0.0576
 1967W        W 5711   9.742   7.213   8.220  0.1735  0.2026 -0.0319
 1968W        W 5712   9.329   0.908   4.435 -0.2460 -0.0866 -0.1594
 1969W        W 5713   5.534   7.453  12.379  0.1378 -0.1782  0.1688
 1970W        W 5714   3.199   3.368  12.842 -0.1839  0.1718 -0.1442
 1971W        W 5715   8.706   4.814   2.721  0.1165  0.0522  0.1452
 1972W        W 5716   7.027   0.458   1.470  0.2022  0.2053 -0.1960
 1973W        W 5717   4.165   9.243  10.086  0.2897 -0.0764 -0.0325
 1974W        W 5718   2.487   9.133  10.130  0.2778  0.3944 -0.0674
 1975W        W 5719   1.109   3.349   9.087  0.1273 -0.1830  0.2782
 1976W        W 5720   5.720   4.991   1.679  0.1067 -0.0620  0.0192
 1977W        W 5721   3.309   4.266  12.199  0.3316  0.0809 -0.1839
 1978W        W 5722   0.903   7.609   1.680  0.0568  0.0265 -0.0396
 1979W        W 5723   7.684   4.384  10.824 -0.0145  0.3159 -0.0740
 1980W        W 5724   0.014   1.860   4.945  0.0122 -0.0968 -0.3467
 1981W        W 5725   6.511   4.653   9.451 -0.0492  0.0320 -0.2867
 1982W        W 5726   6.198   3.575  11.813 -0.0069 -0.0393  0.0837
 1983W        W 5727   9.813   5.095   2.122  0.1005  0.3097 -0.1653
 1984W        W 5728   5.525   2.719   9.404  0.0993  0.0037  0.0571
 1985W        W 5729   7.993   0.440   2.994 -0.2248 -0.3223  0.5847
 1986W        W 5730   3.182   0.029   2.508 -0.0996  0.1312 -0.1986
 1987W        W 5731   3.332   5.319   2.172 -0.4029  0.2098 -0.0587
 1988W        W 5732   2.893   6.014   2.721 -0.0147  0.1493  0.0879
 1989W        W 5733   2.504   4.027   1.519  0.1983 -0.2773  0.1570
 1990W        W 5734   7.080   2.728   3.783 -0.1771  0.0196 -0.1138
 1991W        W 5735   2.218   6.751   0.529  0.0688  0.1910  0.0561
 1992W        W 5736   5.622   0.698   0.388 -0.0729 -0.2426 -0.0836
 1993W        W 5737   8.603   8.967   2.889 -0.2531 -0.0210 -0.0090
 1994W        W 5738   6.557   0.704  11.343 -0.3055 -0.1309 -0.1771
 1995W        W 5739   7.337   1.895   4.284 -0.0445 -0.0462  0.2585
 1996W        W 5740   8.795   9.100  12.607 -0.0212 -0.1867 -0.0074
 1997W        W 5741   8.431   7.976   2.721 -0.0578  0.0731 -0.0189
 1998W        W 5742   1.816   0.512   9.396  0.0290  0.1733 -0.1399
 1999W        W 5743   2.063   8.897   1.295 -0.1358 -0.1502  0.0245
 2000W        W 5744   9.579   0.397   0.695 -0.1211  0.1490  0.4708
 2001W        W 5745   3.655   6.719  12.745 -0.1861  0.2697  0.0613
 2002W        W 5746   5.043   0.456   8.830  0.1468 -0.1123  0.3603
 2003W        W 5747   0.688   9.089   4.002  0.3712 -0.1653 -0.0649
 2004W        W 5748   9.015   9.299   0.468 -0.1073 -0.0272 -0.1656
 2005W        W 5749   4.148   1.913   2.793  0.0920  0.0514  0.0874
 2006W        W 5750   4.847   2.447  12.047 -0.1083  0.0663 -0.1883
 2007W        W 5751   7.719   0.854   1.658  0.3181 -0.3902 -0.0059
 2008W        W 5752   6.339   3.094   0.329 -0.1186  0.0356 -0.1951
 2009W        W 5753   0.959   7.952  10.078 -0.3534 -0.2461  0.0565
 2010W        W 5754   8.791   4.974   4.065  0.2380 -0.0181  0.1341
 2011W        W 5755   0.572   9.513   3.540 -0.0345 -0.0384 -0.2414
 2012W        W 5756   6.304   1.798   9.122  0.0833  0.2728 -0.2405
 2013W        W 5757   9.618   5.515   2.376  0.0977  0.1608 -0.1434
 2014W        W 5758   5.969   5.565   2.567 -0.1093 -0.1095 -0.2717
 2015W        W 5759   0.188   2.209  10.443 -0.0922  0.0264 -0.1391
 2016W        W 5760   9.720   3.057  12.046 -0.2794 -0.1239  0.3230
 2017W        W 5761   0.794   9.350   2.330 -0.0845 -0.0527 -0.0258
 2018W        W 5762   0.049   0.783  12.756 -0.0716 -0.0470  0.0846
 2019W        W 5763   0.752   2.325  10.580 -0.1483  0.1503 -0.1315
 2020W        W 5764   9.365   1.297   0.788 -0.1794  0.0884  0.0647
 2021W        W 5765   6.397   6.581  10.964 -0.0371 -0.0338  0.4018
 2022W        W 5766   3.892   3.515  11.533 -0.0072 -0.1638  0.0141
 2023W        W 5767   6.621   5.711  12.189  0.0263  0.0491 -0.1283
 2024W        W 5768   3.021   2.018   1.938 -0.0174  0.1100 -0.0337
 2025W        W 5769   3.617   6.285  10.801  0.2292 -0.0259 -0.2188
 2026W        W 5770   8.019   4.082   4.055  0.0705  0.3149 -0.3565
 2027W        W 5771   0.004   1.252   0.093 -0.1211 -0.4266 -0.1200
 2028W        W 5772   1.242   6.906   2.762  0.0956  0.1972  0.1808
 2029W        W 5773   4.986   2.249   2.930 -0.0291 -0.0130  0.1773
 2030W        W 5774   2.628   2.960   9.468 -0.2700  0.0099  0.0223
 2031W        W 5775   3.345   0.539   0.941 -0.2361  0.2136  0.1273
 2032W        W 5776   5.432   1.144   0.138 -0.0492  0.0636  0.1846
 2033W        W 5777   9.376   0.033   8.724 -0.0820 -0.1514 -0.1474
 2034W        W 5778   5.709   5.061   9.091  0.0509  0.2717 -0.0982
 2035W        W 5779   1.359   8.968   0.805 -0.2044 -0.2000  0.2148
 2036W        W 5780   2.663   0.665   9.182 -0.4353 -0.0414  0.0954
 2037W        W 5781   9.694   3.860  10.466  0.3176  0.1134  0.0027
 2038W        W 5782   5.249   6.603   3.172 -0.2444 -0.1933  0.1277
 2039W        W 5783   0.721   2.928   3.628 -0.1132  0.0328 -0.0803
 2040W        W 5784   4.665   3.309   0.618  0.1997 -0.1178  0.2903
 2041W        W 5785   6.420   3.325   3.704 -0.1786  0.0838  0.2335
 2042W        W 5786   3.236   1.912   1.438 -0.2456 -0.0420  0.2193
 2043W        W 5787   4.206   5.013   1.780  0.0176  0.3394 -0.0288
 2044W        W 5788   0.051   6.963   1.669 -0.2275  0.1952 -0.2272
 2045W        W 5789   6.904   9.862   1.599  0.2076  0.1567 -0.1749
 2046W        W 5790   7.165   0.477   3.576 -0.2932 -0.1972  0.0798
 2047W        W 5791   0.320   3.775   9.395 -0.2275  0.0985  0.2930
 2048W        W 5792   8.858   8.238  12.724  0.0492  0.0112  0.2443
 2049W        W 5793   2.465   9.455   3.368 -0.1276 -0.2502  0.1612
 2050W        W 5794   7.209   5.260   2.640  0.0386  0.1474  0.1872
 2051W        W 5795   7.142   3.773   1.818 -0.2947  0.0744  0.2428
 2052W        W 5796   2.868   2.508  11.536 -0.1738 -0.0377 -0.0299
 2053W        W 5797   4.093   4.138   9.731 -0.1822 -0.1386 -0.3414
 2054W        W 5798   7.453   5.246  10.851 -0.0619 -0.0984 -0.3217
 2055W        W 5799   8.374   2.069  11.240  0.0448 -0.1476 -0.1820
 2056W        W 5800   7.805   4.665   2.696 -0.2034 -0.4616 -0.0749
 2057W        W 5801   6.628   8.990  11.100 -0.0840 -0.0219  0.2827
 2058W        W 5802   8.929   8.483  10.692  0.1871 -0.1807 -0.3392
 2059W        W 5803   9.140   4.502   1.545 -0.0545 -0.1336  0.3414
 2060W        W 5804   5.087   1.821   0.002  0.0495  0.3033  0.0743
 2061W        W 5805   5.926   0.632  12.769 -0.1488  0.3465  0.3580
 2062W        W 5806   4.395   4.599  12.661 -0.0255  0.0970 -0.0510
 2063W        W 5807   3.843   5.232   2.018 -0.0287  0.0261  0.0513
 2064W        W 5808   4.599   4.378   2.772 -0.0499 -0.1624  0.1089
 2065W        W 5809   4.000   4.083   1.914 -0.1707 -0.2061 -0.0003
 2066W        W 5810   9.854   5.185  10.542  0.2597  0.2251  0.1370
 2067W        W 5811   5.367   0.217   0.405 -0.1313  0.1369 -0.1373
 2068W        W 5812   0.121   7.177   2.618  0.3036 -0.0185  0.1176
 2069W        W 5813   1.550   3.610   8.880  0.2200 -0.2395 -0.0303
 2070W        W 5814   1.932   1.286   9.269 -0.2756  0.2459 -0.2785
 2071W        W 5815   1.926   9.679   4.433  0.1879  0.0281  0.0190
 2072W        W 5816   2.933   0.112   2.989 -0.2100 -0.2168 -0.3677
 2073W        W 5817   1.582   4.245   0.580 -0.0112  0.0522  0.0761
 2074W        W 5818   3.649   1.920   4.240 -0.2984 -0.2565 -0.0250
 2075W        W 5819   5.477   8.590  10.703  0.1482  0.1022 -0.1025
 2076W        W 5820   5.668   1.910  10.651 -0.0182 -0.0692  0.3410
 2077W        W 5821   2.783   7.385   0.675  0.0487 -0.0458 -0.2158
 2078W        W 5822   1.795   9.434   0.560 -0.0651  0.1117 -0.4891
 2079W        W 5823   1.985   5.393   0.878 -0.2703  0.0167 -0.0344
 2080W        W 5824   0.962   5.544  10.165  0.0112 -0.4328  0.3160
 2081W        W 5825   4.579   9.759  11.936  0.0549 -0.2358  0.1779
 2082W        W 5826   8.608   1.508   2.738 -0.1369 -0.0557  0.1398
 2083W        W 5827   2.065   9.411  10.183  0.0458 -0.0497  0.1483
 2084W        W 5828   2.776   0.773   0.174  0.2394  0.0204  0.2966
 2085W        W 5829   7.904   0.549   2.481 -0.0296 -0.2131 -0.1697
 2086W        W 5830   9.709   7.448   4.124  0.3671  0.3724  0.0930
 2087W        W 5831   8.483   3.663  10.530  0.0649 -0.0318  0.1049
 2088W        W 5832   9.590   9.487   2.866 -0.1996 -0.0647  0.1598
 2089W        W 5833   0.240   7.412   3.742 -0.1181  0.0259 -0.0569
 2090W        W 5834   4.632   7.958  11.983 -0.0644  0.0998 -0.0441
 2091W        W 5835   7.453   1.986  10.718  0.1735  0.1907  0.0366
 2092W        W 5836   7.151   4.305  11.490 -0.1172  0.1659 -0.0784
 2093W        W 5837   9.234   6.261   0.397  0.1462  0.3103 -0.3500
 2094W        W 5838   6.597   9.378   0.329 -0.2146  0.1522  0.2920
 2095W        W 5839   1.863   5.842   4.420 -0.0061 -0.2207  0.1238
 2096W        W 5840   9.581   0.047  11.181  0.2821 -0.2575  0.0281
 2097W        W 5841   9.288   7.306   3.533 -0.0738 -0.0791 -0.0035
 2098W        W 5842   1.153   7.949   0.671 -0.1498 -0.1051 -0.0398
 2099W        W 5843   4.191   7.012  10.563 -0.2229 -0.3580  0.0440
 2100W        W 5844   9.894   4.775  10.882 -0.0492  0.3085 -0.2907
 2101W        W 5845   3.848   6.276  12.549 -0.1593  0.0824 -0.0680
 2102W        W 5846   1.952   0.724   1.157 -0.1988 -0.4755  0.2659
 2103W        W 5847   3.401   0.415   4.369  0.0521  0.0922 -0.1663
 2104W        W 5848   1.913   2.356   3.875 -0.1929  0.2915  0.1099
 2105W        W 5849   3.559   6.986   9.176 -0.0894  0.0063  0.2334
 2106W        W 5850   1.534   4.082   4.915  0.0746 -0.0386 -0.1761
 2107W        W 5851   0.928   2.604   1.958  0.0792 -0.1267 -0.3939
 2108W        W 5852   9.562   3.708   0.376  0.0861 -0.0444  0.0810
 2109W        W 5853   6.474   5.467   8.979 -0.0815 -0.2111  0.0240
 2110W        W 5854   9.222   1.637  11.834 -0.1834 -0.0792 -0.0753
 2111W        W 5855   0.443   5.900  10.711 -0.1513 -0.0134 -0.0908
 2112W        W 5856   0.794   1.660   3.828  0.0148 -0.2206 -0.1247
 2113W        W 5857   3.724   8.394   2.083  0.0168  0.0435 -0.0215
 2114W        W 5858   0.133   6.925  11.817  0.0801 -0.2763  0.2170
 2115W        W 5859   5.554   0.165  11.775 -0.0633  0.1122 -0.2180
 2116W        W 5860   2.470   8.811   0.132 -0.0621  0.1006 -0.1786
 2117W        W 5861   9.231   1.669   1.428  0.1439 -0.2433 -0.4356
 2118W        W 5862   3.651   1.428   9.278 -0.0112 -0.0622 -0.0136
 2119W        W 5863   1.337   1.904   3.759  0.1207 -0.1723 -0.0214
 2120W        W 5864   6.829   0.888   3.329  0.0491  0.2245 -0.4848
 2121W        W 5865   6.393   4.894   2.870  0.1333  0.5200  0.3174
 2122W        W 5866   1.192   2.771   0.341 -0.1292 -0.2177  0.1748
 2123W        W 5867   3.059   5.468  11.543 -0.0045  0.0607  0.1367
 2124W        W 5868   4.495   2.770   2.484 -0.3769 -0.1707  0.0318
 2125W        W 5869   6.680   5.494   9.964  0.1006  0.3515  0.1847
 2126W        W 5870   2.147   8.879   8.691  0.0640  0.1211 -0.2070
 2127W        W 5871   3.323   0.806   0.413  0.0707 -0.1960  0.2326
 2128W        W 5872   8.697   1.788   1.519 -0.0061  0.0451  0.2178
 2129W        W 5873   9.330   4.263   3.277 -0.0191 -0.1303 -0.1361
 2130W        W 5874   8.900   1.841   8.763 -0.1196 -0.0887 -0.0122
 2131W        W 5875   2.378   8.093   9.687 -0.0120  0.2585 -0.0444
 2132W        W 5876   4.947   3.432   9.996 -0.1613  0.0733  0.1716
 2133W        W 5877   8.649   3.149   2.392 -0.3570 -0.0506 -0.0381
 2134W        W 5878   0.474   8.889   0.485 -0.2036  0.1645  0.0732
 2135W        W 5879   9.785   0.019   3.018 -0.0231 -0.4158  0.2970
 2136W        W 5880   8.169   6.766  11.755 -0.3036 -0.0864 -0.0986
 2137W        W 5881   5.038   5.697   2.598 -0.1924  0.0545  0.0185
 2138W        W 5882   5.403   8.948   2.503 -0.0584  0.2969 -0.1739
 2139W        W 5883   6.608   4.339   4.144  0.2032 -0.0402 -0.0566
 2140W        W 5884   0.071   3.111   2.653 -0.0030 -0.1474 -0.3088
 2141W        W 5885   0.125   7.795  10.687  0.0360  0.0331 -0.0241
 2142W        W 5886   7.413   9.543  12.103 -0.1485 -0.1873  0.1454
 2143W        W 5887   4.538   0.580  10.188  0.0501  0.0065  0.6909
 2144W        W 5888   6.987   1.309   0.139 -0.2097  0.0971  0.3422
 2145W        W 5889   4.308   2.131  10.705  0.1029  0.0260 -0.2639
 2146W        W 5890   7.590   2.066   1.219 -0.0152  0.1692  0.0553
 2147W        W 5891   4.885   7.214   0.429 -0.1111  0.0829  0.2172
 2148W        W 5892   0.307   8.363   4.342 -0.2873  0.2284  0.0117
 2149W        W 5893   2.556   8.195   1.339  0.1200  0.0010  0.2344
 2150W        W 5894   2.186   4.047   9.645 -0.1727  0.0417 -0.0366
 2151W        W 5895   1.142   8.816  11.295  0.0619 -0.1384  0.2008
 2152W        W 5896   7.897   6.148   3.741 -0.3653  0.1137 -0.2417
 2153W        W 5897   6.702   3.152   7.973  0.5183 -0.0875 -0.0484
 2154W        W 5898   2.678   5.703   9.963  0.4148  0.0205  0.1791
 2155W        W 5899   9.411   1.741   3.636  0.0102  0.0307 -0.0320
 2156W        W 5900   7.198   7.667   1.267  0.1426  0.1021 -0.2529
 2157W        W 5901   2.359   5.254   8.433 -0.1045 -0.2427  0.1467
 2158W        W 5902   3.385   6.201   3.710  0.2350 -0.2369 -0.0906
 2159W        W 5903   0.028   7.618   0.000 -0.1028 -0.0534 -0.0351
 2160W        W 5904   4.777   3.026   9.043  0.3162 -0.1981  0.0367
 2161W        W 5905   2.061   6.879   9.251 -0.1119  0.1367 -0.1260
 2162W        W 5906   5.986   5.226  10.999  0.1053  0.0840 -0.0068
 2163W        W 5907   9.668   2.324   3.245 -0.1702  0.0431 -0.0791
 2164W        W 5908   0.926   6.860   0.012  0.2355  0.0933 -0.1028
 2165W        W 5909   1.855   4.803   8.594  0.4142  0.1222  0.0846
 2166W        W 5910   5.616   9.321   0.592 -0.1826  0.0874 -0.0929
 2167W        W 5911   5.550   7.900  12.687  0.0113 -0.0797  0.2530
 2168W        W 5912   8.794   8.931   1.381  0.0886  0.0623  0.3939
 2169W        W 5913   1.535   8.448   1.962  0.0140 -0.0590  0.4319
 2170W        W 5914   6.613   3.514   0.114 -0.1477  0.1350 -0.0671
 2171W        W 5915   8.872   3.524   4.259 -0.0998 -0.1650  0.1749
 2172W        W 5916   6.040   6.620   2.823  0.1992 -0.3218 -0.0872
 2173W        W 5917   2.335   2.338  11.495 -0.2435  0.0708 -0.0889
 2174W        W 5918   1.045   7.944   9.343 -0.1893 -0.4197 -0.1637
 2175W        W 5919   4.518   4.183  11.514 -0.1247  0.1589  0.1638
 2176W        W 5920   0.938   0.760   4.500 -0.2146 -0.1610 -0.0714
 2177W        W 5921   0.877   0.741   9.411  0.0857  0.1480 -0.0124
 2178W        W 5922   0.244   4.350   3.753 -0.2544 -0.2679 -0.1359
 2179W        W 5923   2.840   3.618  12.649  0.1900 -0.2890  0.0235
 2180W        W 5924   2.265   5.168   5.078 -0.3443 -0.0604  0.1576
 2181W        W 5925   9.578   6.756   0.562 -0.1188 -0.0726  0.0289
 2182W        W 5926   6.490   0.883   0.978 -0.0778 -0.2364 -0.2360
 2183W        W 5927   1.111   8.717   3.149 -0.0628 -0.1226 -0.0217
 2184W        W 5928   2.291   5.816  10.439  0.0499  0.1402 -0.0183
 2185W        W 5929   3.870   8.739   1.740 -0.0265 -0.1126 -0.0464
 2186W        W 5930   2.540   4.550  12.421  0.0561  0.1727 -0.2261
 2187W        W 5931   6.974   9.692  12.622  0.0762  0.4699  0.1555
 2188W        W 5932   4.331   0.909  12.500 -0.0284  0.1316  0.3840
 2189W        W 5933   3.298   5.886   0.190 -0.0852 -0.0787  0.2960
 2190W        W 5934   7.096   4.173   0.301  0.4371  0.0342 -0.1227
 2191W        W 5935   8.919   0.563   3.313  0.0206  0.1037  0.1129
 2192W        W 5936   3.189   4.490   1.667  0.1222 -0.0220 -0.0232
 2193W        W 5937   3.190   2.073   4.187  0.0502  0.0224  0.0907
 2194W        W 5938   6.868   5.078  12.900 -0.1572 -0.0847 -0.0018
 2195W        W 5939   5.363   0.084   9.115  0.0250 -0.1478 -0.1887
 2196W        W 5940   9.320   4.270   1.116 -0.3527  0.0993  0.0097
 2197W        W 5941   8.481   2.202   4.262 -0.0507 -0.0168  0.0337
 2198W        W 5942   7.777   6.665   0.757 -0.3192 -0.1386 -0.3677
 2199W        W 5943   1.305   7.194  11.023  0.0829  0.3055 -0.1910
 2200W        W 5944   3.327   5.243  12.808 -0.1675  0.0792 -0.0809
 2201W        W 5945   9.171   5.128   3.181 -0.0748  0.1977 -0.1031
 2202W        W 5946   7.145   3.983  11.012 -0.3124 -0.0024 -0.1812
 2203W        W 5947   3.707   6.772   1.255  0.1854  0.4151 -0.2661
 2204W        W 5948   2.881   1.382  12.114 -0.2267  0.5645 -0.1821
 2205W        W 5949   3.640   9.133   1.090  0.0557  0.5629  0.3594
 2206W        W 5950   4.337   8.936   1.747 -0.1789 -0.2359 -0.0926
 2207W        W 5951   2.410   1.909   1.599 -0.0397 -0.3126  0.0424
 2208W        W 5952   8.989   6.875   2.665  0.0135  0.2150  0.0279
 2209W        W 5953   2.468   4.946   3.128 -0.0775 -0.0655 -0.0533
 2210W        W 5954   4.869   5.847   1.377 -0.0405 -0.1496  0.2784
 2211W        W 5955   6.608   8.849   0.479  0.4102 -0.3481  0.2782
 2212W        W 5956   8.728   0.848   0.538 -0.1762 -0.1347 -0.0650
 2213W        W 5957   1.662   6.081   2.583  0.0883 -0.0270 -0.2410
 2214W        W 5958   0.206   9.866   3.768  0.4245  0.0106 -0.1732
 2215W        W 5959   9.071   8.286   8.986  0.0640 -0.1454  0.1831
 2216W        W 5960   7.900   7.343  11.549  0.0319 -0.0977  0.1200
 2217W        W 5961   4.379   6.403   3.805  0.1212 -0.1159  0.1275
 2218W        W 5962   2.014   7.368  11.610  0.1904 -0.1344  0.5196
 2219W        W 5963   6.927   2.154   9.762 -0.0191  0.0104  0.1825
 2220W        W 5964   4.760   4.249  12.521  0.2300 -0.0325 -0.1246
 2221W        W 5965   7.597   6.154  10.323  0.0993 -0.0226 -0.0710
 2222W        W 5966   3.506   5.687  11.676 -0.0903 -0.1161  0.3782
 2223W        W 5967   2.833   0.953   1.740 -0.2036  0.0594 -0.2213
 2224W        W 5968   0.063   4.046  11.459 -0.1072 -0.2309  0.0240
 2225W        W 5969   7.700   8.133   3.210  0.0949 -0.3846  0.0342
 2226W        W 5970   8.768   4.624   9.790  0.1896  0.4188 -0.0227
 2227W        W 5971   5.432   6.029   9.683 -0.1767  0.2935  0.1380
 2228W        W 5972   8.461   3.152   1.545 -0.1056 -0.2868 -0.0245
 2229W        W 5973   5.994   5.129  10.509 -0.5713 -0.0573  0.4982
 2230W        W 5974   4.630   4.859   1.434 -0.0678 -0.0020  0.1784
 2231W        W 5975   1.943   7.294   8.681 -0.2131 -0.3858  0.0756
 2232W        W 5976   5.079   5.748   1.825  0.0545  0.0828 -0.1599
 2233W        W 5977   9.705   0.712   9.403 -0.1414 -0.1706 -0.0009
 2234W        W 5978   8.926   2.808   8.397  0.1706 -0.0820 -0.0288
 2235W        W 5979   4.214   3.161   0.912 -0.0763  0.0354 -0.0193
 2236W        W 5980   0.728   5.464   0.186  0.0545  0.2605 -0.1150
 2237W        W 5981   9.336   5.510   1.427 -0.2559 -0.2408 -0.0026
 2238W        W 5982   5.042   9.290   0.513 -0.0445 -0.0064  0.0549
 2239W        W 5983   2.288   8.804   0.777 -0.1250  0.0559  0.1086
 2240W        W 5984   2.073   1.163   2.021 -0.1438 -0.1056 -0.1542
 2241W        W 5985   7.465   3.016   1.290  0.1280 -0.1492 -0.4206
 2242W        W 5986   5.521   4.683  11.681  0.1367  0.2897  0.0780
 2243W        W 5987   8.311   0.529   1.059  0.1581 -0.0311 -0.0074
 2244W        W 5988   6.601   7.634   2.476 -0.0536  0.0155 -0.0195
 2245W        W 5989   2.831   5.432   2.127  0.2740  0.1237 -0.1480
 2246W        W 5990   3.598   5.397   0.388  0.0213 -0.2511  0.1004
 2247W        W 5991   5.185   4.899   1.509  0.0558 -0.3110 -0.0446
 2248W        W 5992   6.473   9.280  12.476 -0.3095 -0.1055  0.2437
 2249W        W 5993   8.983   0.098   3.642  0.1110  0.0983 -0.2542
 2250W        W 5994   1.314   3.661   9.490  0.0996  0.1719  0.0974
 2251W        W 5995   6.716   3.410  12.075  0.0103 -0.3181  0.1262
 2252W        W 5996   7.936   6.079   3.013 -0.1841  0.0593 -0.1439
 2253W        W 5997   6.986   5.085  10.089 -0.2438 -0.0948 -0.1682
 2254W        W 5998   9.212   6.076   9.828  0.1696 -0.0616  0.0302
 2255W        W 5999   7.432   5.014   9.801 -0.2616  0.1142 -0.0001
 2256W        W 6000   4.393   4.539   1.973  0.1325 -0.0968  0.0644
 2257W        W 6001   9.370   2.873  12.883  0.0161 -0.1537  0.0546
 2258W        W 6002   1.333   0.542   9.454  0.1039  0.2570  0.1589
 2259W        W 6003   1.334   7.246  10.009  0.3648 -0.0064 -0.2391
 2260W        W 6004   6.049   1.914  12.374 -0.0491  0.3578  0.0759
 2261W        W 6005   4.952   3.534  11.229 -0.0807 -0.0162  0.3647
 2262W        W 6006   9.379   4.712   0.808  0.0857 -0.0379  0.2682
 2263W        W 6007   3.327   0.959   1.706  0.1193 -0.2268 -0.0378
 2264W        W 6008   3.848   4.575   1.777 -0.0558 -0.0356 -0.3605
 2265W        W 6009   4.168   5.052  11.691  0.2150  0.1475  0.1102
 2266W        W 6010   2.160   0.841   9.163 -0.1748  0.2499  0.1346
 2267W        W 6011   3.169   1.576   9.432  0.0263  0.2275 -0.2652
 2268W        W 6012   7.998   1.692   9.488  0.0685 -0.1954 -0.1476
 2269W        W 6013   0.480   6.896  12.637 -0.0714  0.1923  0.1147
 2270W        W 6014   5.639   0.221  12.925  0.2433 -0.3515  0.1577
 2271W        W 6015   9.217   1.364  10.067 -0.2779 -0.0346 -0.4668
 2272W        W 6016   5.385   1.816   9.380  0.2125  0.1411 -0.1424
 2273W        W 6017   3.144   4.839   1.245 -0.1385  0.2603  0.1250
 2274W        W 6018   2.152   6.524   8.183 -0.3546 -0.0161 -0.1731
 2275W        W 6019   1.126   8.474   8.815 -0.2002  0.1049 -0.3082
 2276W        W 6020   0.304   4.731   0.261  0.1186 -0.0561 -0.1251
 2277W        W 6021   8.803   0.552   3.846  0.2790  0.0994 -0.2108
 2278W        W 6022   9.516   0.789   2.375  0.0171 -0.0145 -0.2286
 2279W        W 6023   6.348   5.055  12.984 -0.1133 -0.3369 -0.3202
 2280W        W 6024   7.076   3.341  10.789 -0.0687  0.2093  0.0897
 2281W        W 6025   6.601   4.529   0.228  0.2141  0.1345 -0.1462
 2282W        W 6026   2.043   9.715   3.129  0.3307  0.0760 -0.0272
 2283W        W 6027   6.433   6.151   1.737  0.0058 -0.1056 -0.2557
 2284W        W 6028   6.978   0.568   2.049 -0.0546  0.1601  0.0733
 2285W        W 6029   3.705   2.029   8.738  0.2544 -0.0102 -0.2882
 2286W        W 6030   6.430   5.136   1.916 -0.0724 -0.0711  0.2211
 2287W        W 6031   9.223   0.629  12.766  0.1507  0.0064 -0.0452
 2288W        W 6032   2.425   5.767   9.545 -0.1128  0.1680 -0.2082
 2289W        W 6033   1.375   2.418   8.669 -0.2494 -0.4978 -0.0643
 2290W        W 6034   1.799   6.481   5.435  0.2640 -0.0092 -0.4101
 2291W        W 6035   6.608   2.844   3.851  0.2085  0.1446 -0.1539
 2292W        W 6036   4.542   3.616  10.167 -0.1084 -0.1727  0.0169
 2293W        W 6037   0.506   8.294   3.400  0.0613  0.1227 -0.1140
 2294W        W 6038   3.057   5.710   3.077  0.1223 -0.5501 -0.2227
 2295W        W 6039   9.531   5.729  10.278  0.0925 -0.1220 -0.4174
 2296W        W 6040   4.445   3.263   4.307 -0.3521 -0.1331  0.2285
 2297W        W 6041   0.351   3.031   4.266 -0.1045  0.0261 -0.2486
 2298W        W 6042   9.778   1.200   1.030 -0.2546 -0.1935  0.0986
 2299W        W 6043   6.817   1.874   2.058  0.0651  0.1364 -0.0207
 2300W        W 6044   1.846   4.345   5.241  0.1778 -0.0645  0.1961
 2301W        W 6045   0.664   9.203  10.250  0.5858 -0.2945  0.1800
 2302W        W 6046   7.340   9.858   1.411 -0.0731  0.1601  0.2528
 2303W        W 6047   0.133   9.330   1.309  0.5734 -0.2697  0.1565
 2304W        W 6048   8.070   7.586   1.456  0.1811  0.0001 -0.0605
 2305W        W 6049   1.707   7.550  11.916  0.3065 -0.0903  0.0467
 2306W        W 6050   6.473   6.344  11.824  0.1539  0.0061  0.1516
 2307W        W 6051   9.313   1.705   0.592  0.2374  0.1256  0.3685
 2308W        W 6052   2.411   7.761  10.455 -0.1142 -0.0535 -0.0577
 2309W        W 6053   4.126   9.784  11.400  0.0467  0.0142 -0.1008
 2310W        W 6054   8.914   7.237   3.804  0.1734 -0.0242  0.1136
 2311W        W 6055   8.374   5.439   0.898 -0.0112 -0.2285  0.0082
 2312W        W 6056   8.289   8.759  11.812 -0.4064  0.3738  0.0736
 2313W        W 6057   3.422   2.897   4.601 -0.0289 -0.2798 -0.0050
 2314W        W 6058   6.622   3.989   0.077 -0.0546  0.0042  0.0563
 2315W        W 6059   8.020   6.307  12.473 -0.1102 -0.0682  0.0729
 2316W        W 6060   6.125   1.582   0.377  0.1327  0.3591  0.3734
 2317W        W 6061   3.277   9.650   2.903  0.0293 -0.3623  0.2491
 2318W        W 6062   9.660   6.325   0.082 -0.0436 -0.4280 -0.2837
 2319W        W 6063   1.572   4.732   9.439  0.0385  0.0242 -0.0270
 2320W        W 6064   3.969   1.535   4.139 -0.0854  0.0928 -0.2307
 2321W        W 6065   9.663   2.746   3.672  0.3095  0.2447 -0.1177
 2322W        W 6066   7.667   5.957   1.956  0.0827 -0.0171 -0.0270
 2323W        W 6067   1.723   3.556   3.403 -0.3371 -0.2580  0.2345
 2324W        W 6068   2.051   8.938   9.242  0.4288 -0.0988  0.0306
 2325W        W 6069   2.396   6.998  10.503  0.0094  0.0497 -0.0596
 2326W        W 6070   2.847   0.746   0.693  0.1761 -0.0391  0.3512
 2327W        W 6071   8.618   9.007   9.465 -0.2183 -0.2282 -0.1328
 2328W        W 6072   1.815   7.029   2.767 -0.0059  0.0988 -0.0544
 2329W        W 6073   0.407   2.829   0.253  0.1575 -0.0562 -0.0472
 2330W        W 6074   7.507   3.007  11.016  0.1199  0.1564  0.0944
 2331W        W 6075   6.737   1.250   4.314  0.3894 -0.0238 -0.0538
 2332W        W 6076   9.377   1.096  10.976  0.2648  0.1207  0.0878
 2333W        W 6077   9.017   5.328   1.776  0.0837 -0.1904 -0.0248
 2334W        W 6078   5.001   9.712  10.064 -0.0120  0.1887 -0.1052
 2335W        W 6079   9.032   9.756   9.306  0.1622  0.0685 -0.0353
 2336W        W 6080   9.464   5.373  12.748  0.0442  0.1899 -0.1968
 2337W        W 6081   4.053   4.434  10.674  0.0018  0.0154  0.3267
 2338W        W 6082   9.548   4.399  12.605  0.0490 -0.0572 -0.2116
 2339W        W 6083   2.131   4.117   0.099  0.0225 -0.1720 -0.2515
 2340W        W 6084   1.795   6.322   4.396 -0.0393 -0.0873 -0.0717
 2341W        W 6085   5.973   9.724   1.227  0.1534 -0.0948 -0.1982
 2342W        W 6086   9.704   0.021   4.052 -0.1985  0.0672  0.0695
 2343W        W 6087   5.636   1.523   2.240  0.3502  0.0990 -0.2004
 2344W        W 6088   2.078   0.930   9.738 -0.1690  0.0295  0.0167
 2345W        W 6089   3.543   2.549   9.420 -0.0991 -0.0712  0.0536
 2346W        W 6090   6.308   9.848   9.216 -0.3178  0.0590 -0.2264
 2347W        W 6091   8.207   2.007   3.855 -0.0046  0.2190 -0.0034
 2348W        W 6092   7.989   0.860   2.126  0.2805  0.1494  0.0752
 2349W        W 6093   9.131   4.922   1.167  0.2275  0.0702 -0.0221
 2350W        W 6094   9.608   3.828  12.551 -0.2451  0.1670  0.4481
 2351W        W 6095   9.493   4.553   9.317  0.0495 -0.0137  0.1296
 2352W        W 6096   8.341   6.800   4.718 -0.0436  0.4209 -0.1949
 2353W        W 6097   1.020   3.014   9.945  0.3834 -0.1167 -0.1075
 2354W        W 6098   6.344   7.288  10.131  0.2515 -0.0904  0.2902
 2355W        W 6099   2.009   5.983   2.237  0.0217  0.1719 -0.2358
 2356W        W 6100   7.125   1.784   8.416 -0.0451  0.2226  0.1030
 2357W        W 6101   9.515   1.241   9.288  0.1754 -0.1436 -0.3304
 2358W        W 6102   3.609   3.887  11.250  0.1091 -0.0730 -0.0142
 2359W        W 6103   7.451   6.022   1.404 -0.0624 -0.0362  0.3358
 2360W        W 6104   7.868   8.358   9.787 -0.0631 -0.1926 -0.2480
 2361W        W 6105   9.056   1.261  12.267  0.3130 -0.3358  0.0457
 2362W        W 6106   4.967   5.545  12.622  0.0977 -0.0260  0.0320
 2363W        W 6107   4.508   9.377   0.525 -0.3009  0.0101 -0.1690
 2364W        W 6108   1.978   7.466   9.209 -0.1389 -0.3341  0.2661
 2365W        W 6109   8.290   6.602  10.274 -0.4026  0.0027 -0.3317
 2366W        W 6110   1.527   7.960   2.199 -0.0746 -0.1620 -0.4830
 2367W        W 6111   5.372   8.322  10.272 -0.0105 -0.4586 -0.1830
 2368W        W 6112   6.097   1.270   8.922 -0.2096 -0.0023 -0.1567
 2369W        W 6113   7.356   7.196   9.981 -0.1279  0.0563  0.1685
 2370W        W 6114   3.851   6.697  10.500  0.1732  0.1518 -0.1753
 2371W        W 6115   8.024   0.747   9.259 -0.0302 -0.0448  0.3880
 2372W        W 6116   5.414   5.241  11.698  0.1710  0.2173 -0.1068
 2373W        W 6117   5.858   8.233   0.299 -0.2603 -0.2039 -0.1039
 2374W        W 6118   1.128   6.281  11.750  0.2502  0.1092  0.0117
 2375W        W 6119   4.197   3.994   4.317  0.0040 -0.3474  0.2109
 2376W        W 6120   7.680   3.419  10.697  0.3805  0.0285 -0.2508
 2377W        W 6121   2.333   2.875  12.243 -0.1765  0.1256 -0.0313
 2378W        W 6122   4.292   2.735   4.127 -0.1649 -0.0017  0.0176
 2379W        W 6123   0.657   5.153   0.686 -0.2360 -0.0352  0.0069
 2380W        W 6124   3.738   0.363  12.835 -0.1346 -0.0613 -0.1488
 2381W        W 6125   8.476   2.477   0.935 -0.2349  0.1888 -0.2125
 2382W        W 6126   4.342   0.980   0.872 -0.0610  0.1102  0.1220
 2383W        W 6127   1.343   0.296   2.255  0.0643  0.0621 -0.0231
 2384W        W 6128   1.536   0.826  10.889  0.0585  0.1994  0.4679
 2385W        W 6129   8.037   1.229   9.342 -0.0655 -0.1360 -0.0504
 2386W        W 6130   7.025   5.231  10.568 -0.0073 -0.0311  0.0587
 2387W        W 6131   0.852   5.187   3.797 -0.1779 -0.3189 -0.0654
 2388W        W 6132   4.156   9.367   0.982 -0.0507  0.1287 -0.2246
 2389W        W 6133   9.871   6.188   3.746 -0.0373 -0.2007 -0.1914
 2390W        W 6134   4.293   0.820   1.808 -0.0029  0.2213  0.2286
 2391W        W 6135   5.072   0.375  10.762 -0.2773  0.0424  0.0567
 2392W        W 6136   9.360   9.368   2.407  0.3263 -0.0710 -0.0233
 2393W        W 6137   7.147   2.151  11.146  0.0588 -0.3476 -0.1441
 2394W        W 6138   0.875   0.288   1.956  0.1044 -0.2284  0.1752
 2395W        W 6139   0.361   6.673   9.426  0.2479 -0.0027 -0.1340
 2396W        W 6140   7.676   8.782   9.621 -0.1195  0.0813  0.1507
 2397W        W 6141   3.462   1.886   3.729  0.2044 -0.0539  0.1106
 2398W        W 6142   7.343   4.341   4.970  0.0265 -0.0580  0.2270
 2399W        W 6143   1.996   8.381  12.324 -0.0521 -0.2723 -0.0535
 2400W        W 6144   2.100   7.207   2.345  0.1001 -0.2213  0.2049
 2401W        W 6145   9.135   1.450   2.837  0.0205 -0.1895  0.0019
 2402W        W 6146   6.814   2.414   2.447 -0.2844 -0.0706  0.4252
 2403W        W 6147   6.705   7.894  10.683  0.2516  0.2163 -0.0666
 2404W        W 6148   6.457   4.453  10.305 -0.1971  0.1093  0.0947
 2405W        W 6149   8.268   5.308   9.307  0.3017  0.0642 -0.1321
 2406W        W 6150   1.978   6.741  11.591 -0.1443 -0.2492  0.2178
 2407W        W 6151   6.461   0.797  10.328  0.1786  0.0379  0.1106
 2408W        W 6152   4.614   1.076  12.877 -0.0701  0.0133 -0.0416
 2409W        W 6153   9.696   8.187   1.276  0.0101 -0.2690  0.1864
 2410W        W 6154   1.622   1.098  11.328  0.1026  0.3652 -0.2520
 2411W        W 6155   1.561   5.691   0.112 -0.1098  0.2690  0.1392
 2412W        W 6156   3.426   4.158   9.358 -0.1007 -0.1467  0.0439
 2413W        W 6157   8.786   5.827   1.200 -0.1495 -0.0074  0.1813
 2414W        W 6158   2.709   9.224  12.946 -0.1781  0.0376  0.0575
 2415W        W 6159   6.161   5.318  12.129  0.1926  0.1994 -0.0015
 2416W        W 6160   8.227   7.267   0.145  0.1516  0.1125 -0.3116
 2417W        W 6161   8.682   1.503  12.395  0.1134  0.1756 -0.0661
 2418W        W 6162   2.702   3.948   9.744 -0.1149 -0.3818 -0.3097
 2419W        W 6163   8.412   2.764   0.509 -0.0030 -0.1852  0.1926
 2420W        W 6164   2.524   0.997   2.140  0.1397  0.0935  0.2103
 2421W        W 6165   1.801   8.625   0.681 -0.1030  0.3691 -0.1651
 2422W        W 6166   7.109   9.528   0.619 -0.0174  0.0745 -0.3408
 2423W        W 6167   8.087   0.044   9.437  0.1769 -0.2436 -0.0040
 2424W        W 6168   0.051   4.121  12.686 -0.0470  0.1446 -0.1417
 2425W        W 6169   8.792   7.831   9.062  0.0378 -0.0874 -0.1370
 2426W        W 6170   3.889   0.813   9.439 -0.1269 -0.1471  0.0163
 2427W        W 6171   9.242   2.537   9.340  0.1724  0.0592  0.2665
 2428W        W 6172   8.471   0.192   3.677 -0.1246 -0.2086 -0.2295
 2429W        W 6173   6.549   4.283   9.088 -0.0423  0.0918 -0.0478
 2430W        W 6174   4.150   4.979   8.533 -0.0127 -0.0578 -0.1036
 2431W        W 6175   5.209   8.770   0.364 -0.0691 -0.3018 -0.1480
 2432W        W 6176   9.428   1.251   0.235 -0.0568 -0.3347 -0.4061
 2433W        W 6177   2.662   6.993   0.336  0.2552  0.0338 -0.1507
 2434W        W 6178   5.435   8.686   2.066  0.1272  0.0089  0.1895
 2435W        W 6179   2.963   7.609   9.450  0.0508 -0.0506 -0.4064
 2436W        W 6180   7.111   3.791  11.541 -0.1746 -0.0241  0.0046
 2437W        W 6181   7.160   4.504  11.004  0.3211 -0.1064  0.1594
 2438W        W 6182   8.576   5.041   8.602  0.0809 -0.3811 -0.2361
 2439W        W 6183   6.640   3.953  10.198 -0.0065 -0.1577  0.0471
 2440W        W 6184   8.378   4.610   9.124 -0.2624  0.0665  0.1332
 2441W        W 6185   1.793   4.477   3.748 -0.1111 -0.0276  0.0115
 2442W        W 6186   4.440   7.346   0.640 -0.0576 -0.1931  0.0863
 2443W        W 6187   3.124   0.981  11.829  0.0862 -0.1697 -0.0560
 2444W        W 6188   8.069   7.012   9.333  0.0235  0.1010  0.2682
 2445W        W 6189   0.420   9.732  12.138  0.3037 -0.0282  0.3359
 2446W        W 6190   9.338   2.004   3.254 -0.0643  0.0276  0.0054
 2447W        W 6191   6.266   8.589   9.483 -0.0763  0.3047  0.1444
 2448W        W 6192   5.521   5.990   9.137 -0.3113  0.2126  0.0511
 2449W        W 6193   9.234   6.458  11.833  0.2445 -0.2414 -0.2088
 2450W        W 6194   7.390   2.434   9.567 -0.3312  0.0475 -0.1608
 2451W        W 6195   2.227   1.572  11.450 -0.0498 -0.1380 -0.0692
 2452W        W 6196   4.126   1.421   2.076  0.2295 -0.0578  0.0684
 2453W        W 6197   6.681   6.342  11.304 -0.0774 -0.0457  0.1287
 2454W        W 6198   3.298   1.381   2.517  0.0176 -0.1521 -0.1676
 2455W        W 6199   7.947   3.249   3.585  0.0017  0.0854 -0.0607
 2456W        W 6200   3.080   2.989   4.095  0.2988 -0.1565  0.0409
 2457W        W 6201   1.627   1.015   8.991  0.0375 -0.0094 -0.3606
 2458W        W 6202   1.992   9.526   0.091  0.2390 -0.1725 -0.3611
 2459W        W 6203   0.825   8.287   3.777 -0.0029 -0.2103 -0.6476
 2460W        W 6204   8.823   5.784   8.049 -0.0412 -0.2491  0.1417
 2461W        W 6205   2.873   9.836  12.172  0.0420 -0.1057  0.1265
 2462W        W 6206   8.347   3.982   2.604  0.2332  0.0269 -0.2026
 2463W        W 6207   3.061   1.166   4.043  0.1062  0.1972  0.0505
 2464W        W 6208   2.678   0.931  10.768 -0.0178 -0.1293  0.2596
 2465W        W 6209   1.208   9.546   0.458  0.0140 -0.1170 -0.1603
 2466W        W 6210   1.144   0.576  11.002 -0.1311 -0.0136 -0.1695
 2467W        W 6211   2.176   7.853  12.622 -0.0196 -0.0163 -0.2573
 2468W        W 6212   6.446   8.838   2.846 -0.0687  0.0979  0.3043
 2469W        W 6213   1.322   1.464  12.018  0.0858 -0.1230  0.0395
 2470W        W 6214   8.654   1.006   8.504  0.1389 -0.0246 -0.2735
 2471W        W 6215   6.171   8.107   2.353 -0.3158  0.2628 -0.1297
 2472W        W 6216   6.841   4.183  11.922 -0.0428  0.2392 -0.1977
 2473W        W 6217   4.546   6.018   1.986  0.0649  0.0183  0.0453
 2474W        W 6218   5.949   7.966   1.699  0.0518  0.0446  0.0225
 2475W        W 6219   4.696   5.034  11.154 -0.1912  0.2240 -0.0993
 2476W        W 6220   9.356   7.175   0.402 -0.1950 -0.0668  0.0188
 2477W        W 6221   9.089   2.162   4.243 -0.0470  0.1460 -0.0446
 2478W        W 6222   6.298   3.834   9.715 -0.2937  0.2262  0.3340
 2479W        W 6223   1.811   8.464  10.202  0.3057  0.0488  0.0647
 2480W        W 6224   1.130   1.913   2.817  0.0846 -0.4868  0.0059
 2481W        W 6225   0.965   4.978   1.827 -0.1684  0.0434  0.0676
 2482W        W 6226   2.693   5.226  10.123 -0.2392 -0.2584 -0.1299
 2483W        W 6227   1.303   0.944   3.670 -0.0994 -0.0222  0.2628
 2484W        W 6228   5.427   3.401  11.115 -0.0616 -0.0223  0.2299
 2485W        W 6229   2.868   3.081   1.862  0.0905 -0.1915 -0.2460
 2486W        W 6230   7.944   4.068   9.736  0.2113 -0.2373  0.0067
 2487W        W 6231   0.929   7.268   9.716  0.0583  0.0712  0.1866
 2488W        W 6232   6.266   6.918   3.170  0.2825  0.1049  0.3107
 2489W        W 6233   8.324   0.212  12.356  0.1521  0.1107 -0.1721
 2490W        W 6234   3.258   3.890   8.921 -0.1871 -0.1540 -0.0321
 2491W        W 6235   4.940   7.831   0.709 -0.0963 -0.0333  0.0887
 2492W        W 6236   3.517   8.525  12.166  0.0702 -0.1337 -0.2084
 2493W        W 6237   0.620   8.204   2.409 -0.1369 -0.1520  0.0309
 2494W        W 6238   3.729   9.014  10.394 -0.1718 -0.3652  0.0497
 2495W        W 6239   6.647   0.457   2.509 -0.3209  0.3071 -0.1790
 2496W        W 6240   1.297   3.319   0.119  0.1125  0.2679  0.0595
 2497W        W 6241   7.855   2.289   2.651  0.2777  0.2108 -0.0881
 2498W        W 6242   1.949   7.179   3.236  0.4410  0.0527 -0.1707
 2499W        W 6243   7.743   8.617   2.444  0.2786  0.2947  0.0306
 2500W        W 6244   4.192   3.532  10.613 -0.0309 -0.0013  0.2086
 2501W        W 6245   9.368   1.749  12.707 -0.1936 -0.0266 -0.1135
 2502W        W 6246   3.124   1.761   2.865  0.0263 -0.1037  0.2463
 2503W        W 6247   2.022   3.911   1.128  0.1948  0.1211  0.1128
 2504W        W 6248   7.935   0.904   9.773  0.2682  0.3537 -0.0723
 2505W        W 6249   6.350   6.809  12.022  0.1708 -0.2361  0.0090
 2506W        W 6250   2.127   9.843   3.659 -0.1874 -0.0963  0.0544
 2507W        W 6251   1.738   4.699  12.329 -0.1349 -0.2012  0.0667
 2508W        W 6252   1.044   6.886   3.285 -0.2189  0.0496 -0.1274
 2509W        W 6253   8.048   4.621  11.123  0.0693  0.4180  0.1212
 2510W        W 6254   5.473   4.034   2.736 -0.1506 -0.3395  0.2213
 2511W        W 6255   2.630   9.138   2.488  0.1414  0.1136  0.2385
 2512W        W 6256   8.808   5.563   0.239  0.2303  0.0142  0.0208
 2513W        W 6257   3.577   5.836  12.774 -0.0171 -0.0640 -0.0407
 2514W        W 6258   7.712   3.923  10.994  0.2279 -0.1835  0.2806
 2515W        W 6259   2.812   8.620   1.678 -0.1822 -0.0818 -0.1101
 2516W        W 6260   4.108   5.347   2.635  0.1209  0.1374  0.0538
 2517W        W 6261   5.649   0.585  12.214  0.2055 -0.1091 -0.2897
 2518W        W 6262   8.407   6.462   8.088 -0.1993 -0.1152  0.3463
 2519W        W 6263   1.690   6.348   2.072  0.2306 -0.4629  0.1116
 2520W        W 6264   4.232   0.742  10.495 -0.0200 -0.1920  0.0403
 2521W        W 6265   8.184   4.430  12.747 -0.0790 -0.3220  0.0852
 2522W        W 6266   0.301   5.878   4.126 -0.0588  0.0107  0.1559
 2523W        W 6267   5.304   4.639   0.737  0.0956 -0.1318 -0.1792
 2524W        W 6268   6.474   8.929  12.029 -0.2185  0.0989  0.0744
 2525W        W 6269   8.568   2.104   4.849  0.0282 -0.3984 -0.1384
 2526W        W 6270   1.873   3.063  12.111  0.2701 -0.2306 -0.1402
 2527W        W 6271   1.209   3.355  12.510  0.1846 -0.2963 -0.1592
 2528W        W 6272   0.185   7.687   9.399 -0.2508 -0.0179 -0.2836
 2529W        W 6273   0.428   8.105   2.840 -0.2644 -0.0799  0.1866
 2530W        W 6274   2.437   0.380   3.828 -0.3181  0.0556  0.1221
 2531W        W 6275   1.568   7.723  12.582  0.0470 -0.2274 -0.0751
 2532W        W 6276   5.326   0.033  11.020  0.1319 -0.3354  0.2228
 2533W        W 6277   9.280   9.653   0.153 -0.1338 -0.3953 -0.0452
 2534W        W 6278   2.037   6.317   3.851  0.0234  0.0373 -0.2368
 2535W        W 6279   0.441   7.670  10.148 -0.2020 -0.0454 -0.0892
 2536W        W 6280   8.560   4.727  12.920  0.0779 -0.0175 -0.1715
 2537W        W 6281   4.652   1.540  11.838  0.0011  0.0779 -0.0785
 2538W        W 6282   7.743   5.596   1.453  0.0012  0.0722  0.4338
 2539W        W 6283   0.024   5.685   9.182  0.2421 -0.2635 -0.1120
 2540W        W 6284   0.735   6.965   2.634  0.4081  0.1624  0.1819
 2541W        W 6285   1.917   1.130  10.197  0.0564 -0.2407 -0.1603
 2542W        W 6286   5.939   2.102  11.142 -0.0013  0.0635 -0.2630
 2543W        W 6287   1.122   3.828   2.126 -0.0414  0.0716  0.2872
 2544W        W 6288   2.774   3.004   1.022  0.1557  0.1937 -0.0575
 2545W        W 6289   2.218   0.096   1.573  0.1620 -0.2324  0.5407
 2546W        W 6290   8.973   1.915   4.652  0.2865  0.2640 -0.2174
 2547W        W 6291   6.232   4.876  11.187  0.2489 -0.3547  0.2696
 2548W        W 6292   9.253   3.274   4.548 -0.3752 -0.0993  0.3493
 2549W        W 6293   1.348   1.093   2.502  0.0562  0.4042 -0.1230
 2550W        W 6294   7.955   0.150  11.368  0.2456 -0.3048  0.0992
 2551W        W 6295   7.136   9.061  11.405  0.4837 -0.1711  0.0037
 2552W        W 6296   9.260   5.718   0.023  0.0875  0.1420  0.1997
 2553W        W 6297   8.055   7.625   0.544  0.0379  0.0595  0.3575
 2554W        W 6298   4.067   5.826   0.748  0.3066 -0.0748  0.2408
 2555W        W 6299   4.661   1.872   9.839 -0.0642 -0.0024  0.1853
 2556W        W 6300   4.435   5.797  10.479 -0.1744  0.2311 -0.0295
 2557W        W 6301   7.235   8.593   3.200 -0.1949  0.0772  0.1749
 2558W        W 6302   5.097   3.483   3.386 -0.0316 -0.2125  0.1692
 2559W        W 6303   4.914   6.100   9.837  0.0205  0.2177  0.0131
 2560W        W 6304   0.804   9.646   0.116  0.0721  0.1002 -0.0115
 2561W        W 6305   5.150   4.164   9.857 -0.1347 -0.0426 -0.0380
 2562W        W 6306   6.859   5.137  11.595 -0.1247  0.1951 -0.1074
 2563W        W 6307   9.628   9.460  11.243 -0.1124  0.2054 -0.1624
 2564W        W 6308   5.884   9.258  12.816 -0.0513  0.0108  0.2561
 2565W        W 6309   4.220   6.387   1.904 -0.0909  0.1666  0.0329
 2566W        W 6310   5.529   3.867   4.694 -0.1471  0.0593 -0.0622
 2567W        W 6311   6.357   2.369  11.288 -0.1471 -0.1290 -0.2835
 2568W        W 6312   1.031   8.073  10.850 -0.2493  0.0176 -0.0691
 2569W        W 6313   5.318   2.574  12.133 -0.2441 -0.2766  0.1700
 2570W        W 6314   4.505   6.959   9.741  0.1477 -0.2037 -0.0681
 2571W        W 6315   9.071   3.932  11.704  0.0926  0.0729 -0.1039
 2572W        W 6316   4.249   3.773   0.235  0.0091 -0.1620 -0.0841
 2573W        W 6317   0.606   6.870   3.147  0.1001  0.0723  0.0226
 2574W        W 6318   0.429   7.266   4.452  0.1273  0.2890 -0.2112
 2575W        W 6319   7.295   4.013   3.544 -0.1070 -0.2659  0.0717
 2576W        W 6320   4.820   0.137   9.680  0.0002  0.1285 -0.3535
 2577W        W 6321   2.599   8.956   3.019 -0.1558  0.2974  0.0480
 2578W        W 6322   4.464   2.588   9.045 -0.2202  0.1244  0.0502
 2579W        W 6323   2.849   8.092   9.505 -0.1475  0.1890  0.0374
 2580W        W 6324   9.329   5.119   2.139 -0.0939 -0.0959  0.0223
 2581W        W 6325   8.213   5.028   2.713  0.1385  0.0091 -0.0087
 2582W        W 6326   6.962   4.330  12.870  0.3329  0.2127  0.2325
 2583W        W 6327   3.935   8.676   2.540 -0.2270  0.2429 -0.3645
 2584W        W 6328   5.895   6.897  11.691  0.1775 -0.2212  0.1285
 2585W        W 6329   8.224   1.043  11.255 -0.0492  0.0141  0.2170
 2586W        W 6330   9.466   1.650  10.743 -0.2567  0.0614 -0.1569
 2587W        W 6331   3.262   0.600   9.994  0.4261  0.2926  0.2677
 2588W        W 6332   5.255   9.645   6.318 -0.3183  0.2449  0.2347
 2589W        W 6333   0.455   7.767   4.164  0.0388  0.1912 -0.1672
 2590W        W 6334   6.196   3.679   8.640 -0.1057 -0.5005 -0.1357
 2591W        W 6335   1.021   0.267   2.673  0.0890 -0.0360  0.1257
 2592W        W 6336   9.534   0.393  12.005 -0.3546 -0.1481 -0.2852
 2593W        W 6337   4.015   4.614   2.350  0.0301  0.0011 -0.2938
 2594W        W 6338   6.371   9.783   8.662 -0.5084  0.1131  0.0079
 2595W        W 6339   6.521   5.831  11.318  0.1255 -0.1939 -0.0703
 2596W        W 6340   5.525   9.413   1.124 -0.0554  0.0169 -0.1157
 2597W        W 6341   1.077   0.292   8.638  0.1462 -0.3592 -0.0127
 2598W        W 6342   2.155   2.705  11.187  0.1111 -0.2458 -0.2054
 2599W        W 6343   4.957   1.438   4.782 -0.0749 -0.2531  0.5132
 2600W        W 6344   7.045   5.753   0.521  0.0736 -0.0786  0.0073
 2601W        W 6345   5.725   1.669   9.008 -0.0891 -0.2470  0.2248
 2602W        W 6346   5.902   2.675   4.439 -0.1144 -0.1457 -0.0224
 2603W        W 6347   6.705   1.789   9.490 -0.0672 -0.1757  0.1523
 2604W        W 6348   7.502   3.841   3.131  0.1151 -0.0706  0.1893
 2605W        W 6349   4.017   5.464  10.738 -0.1115  0.3106 -0.0058
 2606W        W 6350   2.989   2.552   1.792 -0.3632 -0.2956 -0.2477
 2607W        W 6351   0.354   2.626   3.922 -0.6460 -0.0004 -0.2632
 2608W        W 6352   9.620   2.452   0.938 -0.0334  0.0543 -0.0635
 2609W        W 6353   8.090   9.769  10.566 -0.0940  0.0630  0.0649
 2610W        W 6354   0.227   6.347   8.856  0.1732 -0.1364  0.0211
 2611W        W 6355   3.123   1.284   9.893  0.0373 -0.0004 -0.0015
 2612W        W 6356   6.220   2.119   3.685  0.1687  0.0509  0.2978
 2613W        W 6357   8.378   2.038   8.697 -0.1603  0.2178 -0.4154
 2614W        W 6358   8.418   5.229   0.054 -0.3129 -0.2855 -0.0265
 2615W        W 6359   4.913   0.741   2.767  0.1931  0.1042  0.1044
 2616W        W 6360   4.719   8.623   2.071 -0.0437  0.0100 -0.0531
 2617W        W 6361   0.745   7.533  11.529  0.0844  0.0312  0.0363
 2618W        W 6362   6.612   0.196   1.990 -0.2743 -0.1729 -0.2831
 2619W        W 6363   1.270   0.871   0.557 -0.0283  0.0040 -0.1623
 2620W        W 6364   0.402   8.052   5.220  0.0624  0.0439 -0.1997
 2621W        W 6365   8.838   2.684   9.788 -0.1577 -0.1744  0.2897
 2622W        W 6366   6.943   3.818  10.576 -0.0427  0.2137 -0.0983
 2623W        W 6367   9.404   9.438   4.319  0.0300  0.0196 -0.0347
 2624W        W 6368   3.393   7.871  11.730 -0.1608  0.0742 -0.0336
 2625W        W 6369   6.068   0.558   9.445 -0.1282  0.2419 -0.0486
 2626W        W 6370   3.622   2.809   1.077  0.0176 -0.1550 -0.2652
 2627W        W 6371   9.006   8.741   3.108  0.1469  0.0658 -0.0937
 2628W        W 6372   9.367   3.554   9.207  0.1648  0.1817  0.1545
 2629W        W 6373   4.637   2.396  10.044 -0.0747  0.2387  0.3970
 2630W        W 6374   8.864   1.682  10.420  0.0965  0.2949  0.0605
 2631W        W 6375   1.789   8.924   1.817  0.1312 -0.2626  0.0205
 2632W        W 6376   4.168   3.754  12.262  0.0593  0.0593 -0.0969
 2633W        W 6377   1.803   6.631  12.247 -0.0066  0.2399  0.0121
 2634W        W 6378   3.687   0.129  10.574 -0.3956  0.2664  0.0833
 2635W        W 6379   2.071   3.612   1.700 -0.1572 -0.0048 -0.2674
 2636W        W 6380   0.392   5.551   2.831 -0.0905  0.3376  0.2236
 2637W        W 6381   9.232   7.918   9.393  0.0418 -0.1358  0.2240
 2638W        W 6382   2.657   0.565  10.384 -0.2827 -0.1303  0.0717
 2639W        W 6383   4.221   5.454   0.343 -0.0791 -0.0724 -0.1318
 2640W        W 6384   5.830   2.702   8.573 -0.0804  0.0356  0.4638
 2641W        W 6385   4.874   3.996   2.563 -0.1413 -0.0923 -0.3778
 2642W        W 6386   2.028   3.537   8.929  0.2173  0.2901 -0.0112
 2643W        W 6387   0.753   4.494   0.559 -0.0500 -0.1138  0.0269
 2644W        W 6388   8.822   6.277  10.991  0.1057 -0.0366  0.1950
 2645W        W 6389   2.867   7.378   1.155 -0.2214  0.0946 -0.0685
 2646W        W 6390   6.050   3.139   1.248  0.0978 -0.1329 -0.1495
 2647W        W 6391   1.269   3.967  10.910 -0.0530  0.3366  0.0135
 2648W        W 6392   5.079   6.536  11.707  0.0694  0.1713 -0.0856
 2649W        W 6393   3.642   3.877   9.802 -0.2297 -0.2724  0.0394
 2650W        W 6394   6.636   9.156   3.313  0.1086 -0.0462 -0.0937
 2651W        W 6395   3.406   1.607  12.562  0.0204  0.2873 -0.1272
 2652W        W 6396   5.275   2.239  11.604 -0.0607 -0.1052 -0.1010
 2653W        W 6397   7.543   3.560  11.719 -0.1281  0.0226  0.0033
 2654W        W 6398   0.667   3.477  12.565  0.0463  0.0517  0.0214
 2655W        W 6399   0.115   1.343   4.131  0.0489  0.2397  0.0433
 2656W        W 6400   3.891   8.842   3.140 -0.2876  0.0537 -0.2483
 2657W        W 6401   6.857   1.194   4.894 -0.2994 -0.2529  0.0680
 2658W        W 6402   4.444   1.422   2.957 -0.3049 -0.1257 -0.2291
 2659W        W 6403   6.395   9.823   2.346 -0.1849 -0.1188  0.1786
 2660W        W 6404   6.983   0.035   2.415  0.0074 -0.1204 -0.0681
 2661W        W 6405   3.377   8.821   9.502 -0.0436 -0.0853  0.0129
 2662W        W 6406   7.930   8.404   8.620 -0.1041  0.0464  0.4991
 2663W        W 6407   4.927   4.434   1.646  0.0535  0.0025  0.1800
 2664W        W 6408   6.518   5.250  11.201 -0.0578 -0.1480  0.0787
 2665W        W 6409   5.246   3.655  10.278 -0.2314  0.2189  0.1013
 2666W        W 6410   8.079   2.628   2.083  0.2947  0.1023 -0.2650
 2667W        W 6411   1.308   9.285   2.289 -0.0302  0.0541 -0.1559
 2668W        W 6412   7.778   2.784   9.041  0.0116  0.2364 -0.1570
 2669W        W 6413   8.640   6.057   0.284 -0.2729  0.1976  0.0803
 2670W        W 6414   5.552   5.769  12.800  0.1681 -0.0213 -0.0149
 2671W        W 6415   0.794   6.067  10.391 -0.0904 -0.0394 -0.1273
 2672W        W 6416   6.607   7.343   1.764  0.0212  0.1477  0.5282
 2673W        W 6417   9.249   1.581  11.299 -0.0270  0.0182 -0.2745
 2674W        W 6418   6.725   4.123  11.267 -0.4011  0.1064  0.0548
 2675W        W 6419   5.981   1.485   3.039 -0.1081 -0.0935 -0.0340
 2676W        W 6420   8.450   3.330   9.676  0.2510  0.2015  0.1332
 2677W        W 6421   1.032   9.496   1.837 -0.1288  0.2043 -0.0795
 2678W        W 6422   2.977   7.280   3.365 -0.1299 -0.1247  0.1760
 2679W        W 6423   1.140   8.265  11.345 -0.0210 -0.4288 -0.1292
 2680W        W 6424   7.566   3.347   4.037  0.3265 -0.0495  0.2630
 2681W        W 6425   2.064   9.666   1.961  0.2102 -0.0441  0.0080
 2682W        W 6426   0.475   1.123  12.738  0.3357 -0.2602 -0.3217
 2683W        W 6427   0.947   0.780  12.059  0.2565  0.2065  0.0310
 2684W        W 6428   8.857   9.072   3.469  0.1303 -0.1802 -0.1072
 2685W        W 6429   8.398   6.957   0.587 -0.1409  0.0407 -0.2397
 2686W        W 6430   7.728   2.034  10.290 -0.1112 -0.2067  0.2088
 2687W        W 6431   1.168   7.295   5.200  0.2682 -0.1228  0.0855
 2688W        W 6432   3.356   9.705  10.346  0.3804  0.3159  0.1519
 2689W        W 6433   9.400   5.942   2.527 -0.0292 -0.1682  0.0381
 2690W        W 6434   4.351   8.259   1.688  0.0789 -0.0167 -0.0400
 2691W        W 6435   9.288   7.871   4.968 -0.4110  0.1530  0.1538
 2692W        W 6436   2.122   5.613  12.348  0.0188  0.0641 -0.0831
 2693W        W 6437   1.681   0.568   2.498  0.0310 -0.0468 -0.1653
 2694W        W 6438   8.022   0.526   4.512 -0.0502 -0.0863  0.2467
 2695W        W 6439   2.685   2.992   3.617  0.1818 -0.0475 -0.0143
 2696W        W 6440   9.796   5.233   1.616  0.0094  0.2961 -0.0799
 2697W        W 6441   3.622   3.635   2.196  0.2185  0.3185 -0.0940
 2698W        W 6442   7.938   2.480   3.664 -0.4770 -0.0169 -0.2221
 2699W        W 6443   9.829   1.983   0.720  0.3694  0.1369  0.2838
 2700W        W 6444   4.938   9.207  10.235 -0.0704 -0.0602 -0.2923
 2701W        W 6445   3.845   8.013  12.889  0.1858  0.2280 -0.1203
 2702W        W 6446   5.817   3.527   1.515 -0.1941 -0.0055 -0.0214
 2703W        W 6447   8.858   9.115   9.936 -0.1116 -0.0509  0.0151
 2704W        W 6448   9.617   4.942  12.457 -0.5556 -0.0814 -0.1461
 2705W        W 6449   6.448   4.075   1.657 -0.4512  0.1084 -0.1906
 2706W        W 6450   3.637   4.260  12.611  0.6410 -0.0222 -0.3485
 2707W        W 6451   6.866   4.859   2.736  0.2792 -0.1059  0.3480
 2708W        W 6452   1.551   4.688   2.521  0.3018  0.0721  0.0479
 2709W        W 6453   5.941   9.778   2.793 -0.1476 -0.2969 -0.2811
 2710W        W 6454   9.834   8.733   3.573  0.2483  0.0096 -0.0282
 2711W        W 6455   1.031   7.541   3.431  0.1367  0.3059  0.0879
 2712W        W 6456   3.554   4.958   3.531 -0.0497  0.4276 -0.1538
 2713W        W 6457   1.161   3.912   1.537  0.1071 -0.1489 -0.1540
 2714W        W 6458   1.095   1.168   9.555 -0.0960  0.0593  0.2500
 2715W        W 6459   9.321   1.675   9.399  0.0178 -0.0034  0.2076
 2716W        W 6460   9.029   8.768   9.125 -0.3220  0.2472 -0.0870
 2717W        W 6461   0.241   5.732   8.510  0.2925  0.2356 -0.1944
 2718W        W 6462   0.553   6.818   8.774 -0.1352  0.0100  0.1904
 2719W        W 6463   8.448   3.228  12.504  0.0344 -0.0395  0.0556
 2720W        W 6464   0.262   4.184   2.299  0.1860 -0.1522  0.0994
 2721W        W 6465   7.926   4.140   1.870  0.0483 -0.2054 -0.0089
 2722W        W 6466   1.935   3.607   3.907  0.1848  0.2122  0.4781
 2723W        W 6467   8.252   6.631   1.658  0.0257  0.2242  0.0619
 2724W        W 6468   9.246   6.587   3.154  0.0351 -0.1051  0.1794
 2725W        W 6469   2.455   0.604  12.532  0.0081  0.2374 -0.0750
 2726W        W 6470   2.136   3.357  12.469 -0.3069  0.2759 -0.0753
 2727W        W 6471   6.883   7.918   2.182  0.0840 -0.0849  0.1013
 2728W        W 6472   1.095   3.420   0.758 -0.2712  0.0043  0.0436
 2729W        W 6473   8.382   4.485   0.641  0.2638 -0.0590  0.0953
 2730W        W 6474   4.911   2.881   0.741 -0.0839 -0.2752 -0.2086
 2731W        W 6475   2.336   5.054   4.213 -0.0259  0.0429  0.3935
 2732W        W 6476   5.999   0.725   0.738  0.1313 -0.0290 -0.1016
 2733W        W 6477   6.046   2.930   0.790  0.3732 -0.0862 -0.1169
 2734W        W 6478   6.157   8.852  11.187  0.0790 -0.1607  0.0894
 2735W        W 6479   2.098   5.121   0.060 -0.1933 -0.0435 -0.1653
 2736W        W 6480   9.348   7.842   8.794  0.0709  0.0778 -0.1502
 2737W        W 6481   0.739   4.059   1.695  0.1485 -0.2952 -0.0518
 2738W        W 6482   3.728   1.447   3.584  0.3717 -0.2880  0.1775
 2739W        W 6483   7.896   0.333  12.775 -0.1143 -0.2042 -0.1751
 2740W        W 6484   7.610   2.558  12.217 -0.2423 -0.1493 -0.0188
 2741W        W 6485   1.187   2.868   3.835 -0.0818 -0.2930  0.0805
 2742W        W 6486   0.804   4.316   9.941 -0.0145  0.0801 -0.2276
 2743W        W 6487   6.370   9.546  12.856 -0.2405  0.2767  0.0598
 2744W        W 6488   7.271   4.830   2.385  0.0868  0.1581  0.0151
 2745W        W 6489   8.369   0.544   2.227  0.2945  0.1761 -0.4433
 2746W        W 6490   0.565   2.069   4.603  0.1628  0.1005 -0.1167
 2747W        W 6491   1.598   8.936  11.622  0.0063 -0.0738 -0.0204
 2748W        W 6492   2.798   2.214   9.630  0.2544 -0.0332 -0.0545
 2749W        W 6493   8.242   3.593   1.702  0.1295  0.3984 -0.0799
 2750W        W 6494   6.878   8.674  10.246 -0.0328 -0.0474  0.0931
 2751W        W 6495   0.459   7.675  12.572  0.2644 -0.4150 -0.2207
 2752W        W 6496   3.062   0.477   1.611 -0.0820 -0.0393 -0.1880
 2753W        W 6497   1.031   7.757   3.898 -0.2880 -0.2999 -0.1017
 2754W        W 6498   7.179   1.429   0.987 -0.0633 -0.0753 -0.1210
 2755W        W 6499   7.135   1.735   0.336  0.1989  0.0130 -0.3198
 2756W        W 6500   9.377   4.681   3.506  0.1000  0.5452 -0.2543
 2757W        W 6501   8.092   2.923   5.309 -0.0559  0.0514  0.1831
 2758W        W 6502   9.645   1.072   1.968  0.0820  0.0080 -0.2797
 2759W        W 6503   0.289   3.660  11.550 -0.0660  0.1207  0.0615
 2760W        W 6504   2.837   1.988   4.963  0.1502  0.0908 -0.1268
 2761W        W 6505   2.631   4.154  11.528  0.1356  0.1457  0.0210
 2762W        W 6506   2.600   5.225   1.669  0.1775  0.1028  0.1755
 2763W        W 6507   2.166   7.311   1.822 -0.2014  0.1242 -0.1202
 2764W        W 6508   2.076   5.812  11.883 -0.0843  0.0410 -0.0874
 2765W        W 6509   1.920   7.072  11.999  0.0891  0.0009 -0.2323
 2766W        W 6510   0.394   6.411   3.140 -0.0941 -0.0516 -0.2420
 2767W        W 6511   2.883   8.595   9.673  0.0072  0.0219  0.0815
 2768W        W 6512   8.296   0.620  11.079 -0.1573  0.1873  0.2646
 2769W        W 6513   8.946   1.794   0.990 -0.3202 -0.0426 -0.0747
 2770W        W 6514   0.760   4.711   2.691  0.0764  0.0016 -0.1277
 2771W        W 6515   2.070   0.917  12.468 -0.1560  0.0555  0.2516
 2772W        W 6516   4.252   7.447   2.021 -0.1719 -0.2033 -0.0267
 2773W        W 6517   7.315   0.044   4.349  0.1381  0.0380 -0.1132
 2774W        W 6518   3.383   6.256   4.206  0.2213 -0.1029 -0.3127
 2775W        W 6519   3.940   2.946   0.059  0.1357  0.0856 -0.0547
 2776W        W 6520   5.552   7.750   2.589 -0.2472  0.1241  0.1232
 2777W        W 6521   9.399   9.537   9.072 -0.1552 -0.3347  0.0462
 2778W        W 6522   6.751   1.418   2.321  0.0638  0.1149 -0.0955
 2779W        W 6523   6.350   6.845   0.669 -0.0307  0.0444  0.0628
 2780W        W 6524   7.463   1.282  11.731  0.0905 -0.0695  0.0446
 2781W        W 6525   9.004   5.786  10.182  0.0297  0.0385  0.1747
 2782W        W 6526   4.164   8.599   2.122 -0.2303  0.3260 -0.0963
 2783W        W 6527   2.931   5.797   9.404  0.0122 -0.0269  0.0575
 2784W        W 6528   4.357   1.859  12.232 -0.0194 -0.0519  0.1223
 2785W        W 6529   2.808   4.971   4.317 -0.1124  0.1802  0.3354
 2786W        W 6530   1.667   4.205   1.500 -0.0632  0.4216  0.1083
 2787W        W 6531   5.610   4.725  12.482 -0.2955  0.0013  0.3167
 2788W        W 6532   1.853   5.837   5.042  0.0203 -0.2847 -0.0984
 2789W        W 6533   2.706   4.205  10.179  0.1177 -0.1620 -0.0977
 2790W        W 6534   8.993   1.217  11.673  0.1170  0.0038  0.2830
 2791W        W 6535   4.499   2.431   4.726  0.3725  0.1262 -0.1412
 2792W        W 6536   2.082   9.053   0.309 -0.3293  0.0424 -0.0074
 2793W        W 6537   5.388   8.136   1.319 -0.1535 -0.0872  0.0129
 2794W        W 6538   4.285   6.620   8.689 -0.0364  0.2932 -0.1688
 2795W        W 6539   0.663   3.866   3.547  0.0928  0.0361 -0.0358
 2796W        W 6540   6.063   3.512   3.094 -0.2549 -0.0571  0.1000
 2797W        W 6541   9.287   9.153   9.379  0.1311  0.0585  0.3870
 2798W        W 6542   2.736   3.639  10.104 -0.1842  0.0743  0.2313
 2799W        W 6543   0.039   9.460   3.372 -0.2587 -0.0459 -0.1249
 2800W        W 6544   1.658   9.709  11.001  0.1527 -0.3203  0.1693
 2801W        W 6545   8.084   6.136  10.380  0.0702 -0.3017  0.1904
 2802W        W 6546   8.109   6.550   2.423  0.0211 -0.1347 -0.0542
 2803W        W 6547   0.999   7.520  10.779  0.2209  0.2559 -0.1000
 2804W        W 6548   0.906   1.378   8.680  0.1943  0.0026 -0.1679
 2805W        W 6549   9.212   8.429   0.609  0.1075  0.2057 -0.1940
 2806W        W 6550   6.138   2.714   1.991  0.1538 -0.1223 -0.0629
 2807W        W 6551   8.088   2.455  12.153 -0.2087  0.3563  0.0516
 2808W        W 6552   2.408   5.741   8.689 -0.0806  0.0757  0.1603
 2809W        W 6553   1.815   2.975   1.013 -0.3866  0.0231  0.2082
 2810W        W 6554   7.701   7.462  12.536  0.2500  0.1836 -0.2537
 2811W        W 6555   0.874   9.527   0.939 -0.1898  0.2421 -0.0387
 2812W        W 6556   7.426   2.451   0.318 -0.1094  0.1670  0.0774
 2813W        W 6557   1.781   6.454   9.478 -0.1460 -0.2440 -0.1138
 2814W        W 6558   9.886   7.765  12.088  0.2087 -0.3566 -0.3024
 2815W        W 6559   1.594   1.056   9.514  0.0747  0.0468  0.1135
 2816W        W 6560   6.676   3.300   1.304 -0.0280  0.2186  0.0094
 2817W        W 6561   7.831   6.009   9.916  0.0046  0.1234  0.5089
 2818W        W 6562   5.482   9.534   0.168  0.2609 -0.0079  0.2238
 2819W        W 6563   4.768   5.888   3.019  0.4552  0.1370 -0.4056
 2820W        W 6564   2.937   3.900   0.571  0.1519  0.0144  0.0354
 2821W        W 6565   7.520   7.059  12.860  0.0700 -0.2337  0.0104
 2822W        W 6566   5.441   1.019   2.050 -0.1559 -0.0243 -0.1643
 2823W        W 6567   9.535   2.651  11.461  0.0072 -0.0425  0.0157
 2824W        W 6568   8.556   0.374  11.896 -0.3351 -0.0082 -0.1941
 2825W        W 6569   1.728   7.742   3.216 -0.0999  0.2688  0.0894
 2826W        W 6570   8.346   1.263   2.281 -0.0679  0.0397  0.1088
 2827W        W 6571   6.563   3.109  10.087  0.3345 -0.1280 -0.0053
 2828W        W 6572   3.421   6.019   2.702  0.0056 -0.1654  0.1543
 2829W        W 6573   8.471   6.037  10.690  0.1629  0.0606  0.1836
 2830W        W 6574   5.791   9.666   9.994  0.1634 -0.2006  0.0695
 2831W        W 6575   1.842   9.064   0.858 -0.1774 -0.1188  0.0791
 2832W        W 6576   0.562   8.288  10.075  0.0483  0.0316 -0.0718
 2833W        W 6577   2.018   4.281  10.582 -0.1144  0.4302 -0.1382
 2834W        W 6578   9.197   6.697   0.197 -0.0811 -0.0929 -0.1795
 2835W        W 6579   8.738   3.224   0.334 -0.1863 -0.3055 -0.2619
 2836W        W 6580   5.236   7.455   2.902  0.0204 -0.4271 -0.3268
 2837W        W 6581   1.850   2.042  12.248  0.0347  0.1390  0.1097
 2838W        W 6582   9.196   6.626   1.736  0.1438  0.1869  0.0278
 2839W        W 6583   7.566   9.895   9.418 -0.4367  0.1138 -0.1637
 2840W        W 6584   3.259   2.127  10.315 -0.0403 -0.1539 -0.1439
 2841W        W 6585   2.595   9.676  11.074  0.2967 -0.1014 -0.0109
 2842W        W 6586   6.280   3.618   1.848 -0.1139  0.1029  0.2057
 2843W        W 6587   3.217   3.257  12.348  0.4179  0.0529  0.0208
 2844W        W 6588   2.776   3.164   2.352  0.1962 -0.0908  0.1529
 2845W        W 6589   1.982   9.722   9.815  0.0514  0.1946  0.1368
 2846W        W 6590   3.225   2.079  12.438 -0.0966 -0.0976 -0.3852
 2847W        W 6591   1.365   1.953   4.645  0.0265 -0.1344  0.0227
 2848W        W 6592   7.324   8.856  10.488  0.2835 -0.0591  0.1923
 2849W        W 6593   1.322   3.104  11.027 -0.0938 -0.2075 -0.1415
 2850W        W 6594   9.808   1.478   0.521 -0.5183  0.1233  0.2219
 2851W        W 6595   7.403   0.373   8.612  0.0888  0.1889  0.2380
 2852W        W 6596   7.402   6.384  11.896  0.0371  0.0537 -0.0675
 2853W        W 6597   9.887   3.699   8.979 -0.2914 -0.1473 -0.0457
 2854W        W 6598   9.520   5.996   1.630 -0.0737 -0.2140 -0.1841
 2855W        W 6599   3.546   4.282   4.389 -0.1488 -0.1410  0.1021
 2856W        W 6600   5.076   1.041   1.664  0.0647 -0.0205  0.1195
 2857W        W 6601   7.857   1.801  11.620  0.0039 -0.2399 -0.3311
 2858W        W 6602   8.003   5.011   1.842  0.2718  0.1463 -0.2233
 2859W        W 6603   6.260   9.166   7.026  0.3926  0.0071 -0.3401
 2860W        W 6604   3.408   2.909  12.928 -0.0264 -0.1068  0.0763
 2861W        W 6605   7.745   6.340   0.230 -0.3562  0.0337  0.2061
 2862W        W 6606   3.030   3.646   4.038  0.0299 -0.3469  0.3013
 2863W        W 6607   7.430   7.245   0.358  0.0453  0.0199  0.1698
 2864W        W 6608   2.064   2.890   0.429  0.0038  0.0317  0.5632
 2865W        W 6609   9.106   2.799   2.796  0.0530 -0.3710 -0.3255
 2866W        W 6610   6.679   1.871  12.133 -0.1236  0.1810  0.1196
 2867W        W 6611   0.015   1.037   8.400 -0.1506 -0.1832  0.0325
 2868W        W 6612   9.599   8.776  12.872 -0.0225 -0.0045 -0.3601
 2869W        W 6613   3.245   7.678  11.233  0.1669 -0.0122 -0.2897
 2870W        W 6614   0.624   7.814   3.205 -0.1311 -0.0760 -0.0296
 2871W        W 6615   6.608   3.822   8.914 -0.0976 -0.2239 -0.3348
 2872W        W 6616   9.839   5.309   4.920 -0.1849 -0.0546  0.0440
 2873W        W 6617   6.293   3.586   1.335  0.1032  0.4363  0.2156
 2874W        W 6618   8.784   2.536   9.070 -0.1430  0.0620 -0.0007
 2875W        W 6619   4.240   1.910   4.437 -0.0869  0.1386 -0.1131
 2876W        W 6620   3.454   3.002  10.226 -0.2232 -0.1698  0.1329
 2877W        W 6621   9.281   3.566   2.863 -0.1319 -0.0664 -0.0259
 2878W        W 6622   7.166   8.301   9.214 -0.0630 -0.0563  0.0098
 2879W        W 6623   2.626   1.752  11.846  0.0419  0.1210 -0.3456
 2880W        W 6624   1.842   7.904  12.229 -0.0563 -0.2686  0.3605
 2881W        W 6625   5.500   3.685   9.097 -0.0120 -0.0272  0.0784
 2882W        W 6626   0.336   7.019   8.107  0.1956 -0.0326  0.2478
 2883W        W 6627   2.700   0.152   2.478 -0.1248 -0.1403 -0.0563
 2884W        W 6628   4.270   3.165  11.429  0.2742 -0.1287  0.0314
 2885W        W 6629   6.877   0.108  10.625  0.1351  0.0048 -0.1168
 2886W        W 6630   3.271   4.123   3.981 -0.2023 -0.0521 -0.1399
 2887W        W 6631   9.016   2.570   0.835  0.3393  0.0359  0.0807
 2888W        W 6632   2.599   7.716   1.551  0.1242 -0.1119 -0.0862
 2889W        W 6633   2.518   5.731   2.424  0.2591 -0.1002  0.0142
 2890W        W 6634   0.203   5.464   2.316 -0.2990 -0.0948  0.0921
 2891W        W 6635   2.456   7.634  11.697  0.0344 -0.3501  0.0679
 2892W        W 6636   5.419   4.599  10.070  0.0685 -0.1152 -0.0134
 2893W        W 6637   7.500   5.923   0.584 -0.1849 -0.0449  0.1412
 2894W        W 6638   1.121   5.242   0.469  0.0259  0.1038  0.0375
 2895W        W 6639   3.455   3.763   4.421  0.0454 -0.1173 -0.2071
 2896W        W 6640   4.867   0.224   0.676 -0.0884 -0.0570 -0.1474
 2897W        W 6641   0.375   8.348   1.543  0.0860 -0.2305  0.0335
 2898W        W 6642   0.066   1.370  12.585 -0.2326 -0.4236 -0.4062
 2899W        W 6643   2.755   4.103   4.229  0.1942  0.0835 -0.0814
 2900W        W 6644   3.492   4.088   1.700  0.2576 -0.3220 -0.2743
 2901W        W 6645   7.162   2.554   9.015  0.0548  0.0913  0.3205
 2902W        W 6646   6.676   4.149   9.588 -0.0767  0.1263 -0.0432
 2903W        W 6647   8.478   5.478   8.843  0.3350  0.1797 -0.3189
 2904W        W 6648   7.612   4.857  11.146 -0.3717 -0.1188 -0.1588
 2905W        W 6649   0.723   3.970  10.295  0.3948 -0.1522  0.3070
 2906W        W 6650   1.672   2.679  10.397  0.2609  0.1658 -0.3926
 2907W        W 6651   7.385   8.094   1.032 -0.3984  0.4216  0.1118
 2908W        W 6652   0.893   5.957   2.727  0.3300 -0.3084  0.1650
 2909W        W 6653   5.949   1.118   0.063  0.1904  0.1513  0.2995
 2910W        W 6654   6.408   5.116   9.641 -0.1902 -0.0686 -0.0784
 2911W        W 6655   5.756   1.465  12.322  0.2423  0.3305  0.1686
 2912W        W 6656   5.954   2.540   9.511 -0.1959 -0.1214  0.2180
 2913W        W 6657   3.425   0.356  12.447 -0.2793 -0.1669 -0.0721
 2914W        W 6658   8.127   3.789   4.541  0.0538  0.3907  0.2325
 2915W        W 6659   8.322   4.910   4.230 -0.0970 -0.0253 -0.1742
 2916W        W 6660   8.878   2.086  11.839  0.0973  0.4046  0.0721
 2917W        W 6661   6.756   6.390   1.305 -0.1445 -0.2480  0.2831
 2918W        W 6662   7.252   2.177   0.708 -0.0951 -0.1847  0.2040
 2919W        W 6663   2.324   4.667   0.244  0.2366 -0.2022 -0.2623
 2920W        W 6664   2.556   6.288   3.650  0.1932 -0.1116  0.1433
 2921W        W 6665   9.296   8.408   9.426 -0.1934  0.2451  0.4917
 2922W        W 6666   9.010   2.523  12.771 -0.1248  0.0953 -0.3233
 2923W        W 6667   7.324   4.414   8.859 -0.2416  0.1635 -0.0529
 2924W        W 6668   0.591   2.478  12.297  0.1024  0.1493 -0.1807
 2925W        W 6669   8.726   4.824   1.457  0.3624 -0.1511 -0.1129
 2926W        W 6670   9.041   8.034  11.015  0.2416  0.2868 -0.0779
 2927W        W 6671   1.570   2.389   4.585  0.1244  0.1541 -0.0522
 2928W        W 6672   1.842   5.474   3.619  0.4675  0.1940  0.1089
 2929W        W 6673   3.028   2.611   8.684 -0.0565 -0.0326  0.0542
 2930W        W 6674   0.039   8.632   1.082 -0.3176 -0.1051 -0.0365
 2931W        W 6675   8.734   0.442  12.438 -0.2626  0.0095 -0.0760
 2932W        W 6676   0.161   8.792   9.201  0.0583 -0.0417  0.0638
 2933W        W 6677   0.699   0.847  10.997 -0.0733  0.0156  0.2176
 2934W        W 6678   4.709   4.021   1.259  0.1773 -0.1820 -0.0132
 2935W        W 6679   7.191   2.344  10.534  0.0216 -0.1087 -0.2886
 2936W        W 6680   8.142   4.755   2.274  0.0310 -0.1299 -0.4462
 2937W        W 6681   3.411   0.385   9.516  0.0953  0.1085 -0.1930
 2938W        W 6682   9.639   5.312   8.951  0.1225 -0.1909 -0.2107
 2939W        W 6683   1.706   4.075  11.172 -0.2191  0.2700  0.0461
 2940W        W 6684   8.975   6.922   0.601  0.0538 -0.0621 -0.2975
 2941W        W 6685   9.750   5.573  11.604 -0.3270 -0.0615 -0.2015
 2942W        W 6686   4.675   7.976  10.816  0.1488 -0.0628  0.1156
 2943W        W 6687   6.929   5.874   9.734 -0.0620 -0.1409  0.0316
 2944W        W 6688   3.021   8.372   0.973  0.1832  0.0387 -0.1343
 2945W        W 6689   1.445   5.263  11.645 -0.0093  0.2986  0.0971
 2946W        W 6690   1.242   4.415   0.976  0.0602  0.1499  0.1218
 2947W        W 6691   6.364   5.262   4.044  0.0607  0.1527 -0.1303
 2948W        W 6692   2.885   4.328   3.149 -0.1244  0.2991  0.0103
 2949W        W 6693   2.492   6.576   0.081  0.3535  0.0851  0.2202
 2950W        W 6694   4.111   0.315   1.393  0.3272  0.0488  0.2507
 2951W        W 6695   0.980   2.758  12.014  0.1904 -0.0268 -0.1141
 2952W        W 6696   6.809   8.509   0.842  0.3479  0.3373  0.2437
 2953W        W 6697   1.510   8.325  10.708  0.0737 -0.1131  0.1929
 2954W        W 6698   9.445   0.408   0.134  0.1270  0.0436 -0.4723
 2955W        W 6699   5.970   5.386   1.498 -0.0030 -0.0269 -0.0827
 2956W        W 6700   2.243   9.586  12.649 -0.1749  0.1226 -0.0574
 2957W        W 6701   1.831   5.758   8.514 -0.0355  0.4981 -0.1336
 2958W        W 6702   1.853   0.249   1.205  0.0212  0.2395  0.5543
 2959W        W 6703   5.164   7.129  11.844 -0.1294 -0.3450  0.4017
 2960W        W 6704   4.842   0.008  11.090 -0.2131 -0.1021  0.2770
 2961W        W 6705   8.883   3.386  10.503  0.1428  0.0229  0.1761
 2962W        W 6706   9.625   8.290   9.002 -0.0811 -0.1359  0.1088
 2963W        W 6707   2.975   0.539   2.655 -0.0869  0.2482  0.1059
 2964W        W 6708   3.087   0.373   0.492  0.2940 -0.0802  0.0978
 2965W        W 6709   6.961   7.755  11.724  0.0490  0.2314 -0.0139
 2966W        W 6710   3.778   2.304   9.785 -0.1336  0.2040  0.1499
 2967W        W 6711   5.694   8.957  10.391  0.1438  0.1005  0.0766
 2968W        W 6712   2.771   8.127   1.877 -0.1391 -0.2512 -0.2007
 2969W        W 6713   3.302   6.568  10.504 -0.1544  0.1244 -0.1103
 2970W        W 6714   2.719   1.659  11.346 -0.0949 -0.0012  0.0586
 2971W        W 6715   1.690   1.317   3.433  0.3545 -0.1998 -0.4719
 2972W        W 6716   7.287   8.585   0.916  0.4987  0.2898  0.1648
 2973W        W 6717   2.575   1.390   4.002  0.1408  0.1196  0.0843
 2974W        W 6718   2.315   8.937   3.461 -0.0164  0.0665 -0.0854
 2975W        W 6719   9.226   2.561   1.284 -0.0487 -0.3131  0.0663
 2976W        W 6720   0.847   1.150   3.768 -0.0676  0.1864 -0.1786
 2977W        W 6721   0.500   5.090  11.949  0.1642 -0.0559  0.1952
 2978W        W 6722   3.963   4.942   4.558 -0.2831  0.3137 -0.1783
 2979W        W 6723   7.470   0.555   2.098 -0.3001 -0.2617  0.1623
 2980W        W 6724   1.230   7.589   4.761 -0.2553 -0.0436  0.1109
 2981W        W 6725   5.107   8.247  12.081 -0.1055 -0.2038  0.2718
 2982W        W 6726   2.374   1.814  10.534  0.0236  0.0360 -0.1145
 2983W        W 6727   1.413   5.588   2.719 -0.0410 -0.3212  0.0989
 2984W        W 6728   0.778   3.270  12.102  0.0519 -0.0941 -0.2710
 2985W        W 6729   8.686   7.575   2.931 -0.4547 -0.2375 -0.3650
 2986W        W 6730   8.403   9.033   9.929  0.0182 -0.3924  0.0256
 2987W        W 6731   7.101   3.544   3.374 -0.0008 -0.0161  0.3416
 2988W        W 6732   2.702   4.738   1.095  0.0436 -0.1262 -0.0914
 2989W        W 6733   6.557   9.775  12.344 -0.0731 -0.3665 -0.1649
 2990W        W 6734   2.766   2.502   1.098  0.0314 -0.1049  0.2061
 2991W        W 6735   5.486   0.970  10.405  0.1613  0.0976  0.0303
 2992W        W 6736   1.375   4.375   9.776 -0.0158  0.1543 -0.0246
 2993W        W 6737   2.586   0.246   0.532  0.0184 -0.2858 -0.1307
 2994W        W 6738   1.119   1.271   0.872  0.0943 -0.0173  0.0056
 2995W        W 6739   5.982   9.711  11.119  0.0911  0.2501  0.1959
 2996W        W 6740   5.745   3.029   5.761  0.1674  0.2800 -0.0800
 2997W        W 6741   8.242   8.453   0.805  0.2140 -0.3574 -0.0374
 2998W        W 6742   2.643   1.227   3.487 -0.0726 -0.2271 -0.0265
 2999W        W 6743   2.739   4.152  10.960  0.1945  0.1349 -0.1887
 3000W        W 6744   7.338   4.284  12.405  0.0642  0.0486 -0.0270
 3001W        W 6745   5.010   4.332  11.341 -0.2110 -0.1909 -0.0318
 3002W        W 6746   6.065   2.526   3.983  0.3454  0.0648  0.0022
 3003W        W 6747   8.186   9.412   1.593 -0.2350 -0.1799 -0.0643
 3004W        W 6748   2.897   0.102   1.963 -0.1582 -0.0325  0.0840
 3005W        W 6749   5.743   3.160  10.384  0.0774 -0.0102  0.0761
 3006W        W 6750   4.465   5.279   3.629 -0.0730  0.0063 -0.1368
 3007W        W 6751   1.234   2.855   4.410  0.1180  0.1104 -0.2659
 3008W        W 6752   4.078   5.697   9.181 -0.0054 -0.1082 -0.1414
 3009W        W 6753   6.310   7.142   1.412  0.1463 -0.0890 -0.1180
 3010W        W 6754   4.421   7.116  12.578 -0.2479 -0.2025 -0.2484
 3011W        W 6755   2.916   1.679  12.557  0.2547 -0.1197 -0.0687
 3012W        W 6756   4.697   7.272  12.013  0.0873  0.2333 -0.1993
 3013W        W 6757   6.617   5.700   0.805 -0.2509 -0.0287  0.1840
 3014W        W 6758   3.877   6.201   3.584 -0.2691  0.2491  0.1894
 3015W        W 6759   3.856   8.654   0.949  0.2378 -0.1442  0.0246
 3016W        W 6760   7.622   4.806   3.278 -0.1728  0.1251  0.1276
 3017W        W 6761   0.705   8.795  12.160 -0.0518  0.2664 -0.1428
 3018W        W 6762   3.190   9.727  11.293  0.0795 -0.1401 -0.1001
 3019W        W 6763   1.453   0.254  12.905 -0.1403  0.0060 -0.0933
 3020W        W 6764   6.132   9.234   1.810  0.2167 -0.1314 -0.0077
 3021W        W 6765   0.197   5.060   9.148 -0.1643  0.3076  0.3071
 3022W        W 6766   7.336   6.582   0.075  0.2280  0.3180  0.0274
 3023W        W 6767   5.116   5.050  12.523 -0.0167 -0.2431  0.0670
 3024W        W 6768   3.222   6.141  12.068  0.2512 -0.1348 -0.3465
 3025W        W 6769   6.868   1.349   3.169 -0.1575  0.0064 -0.0912
 3026W        W 6770   8.411   1.860  12.745  0.0152  0.0331 -0.1469
 3027W        W 6771   5.918   8.281   0.914  0.0966  0.0573  0.2302
 3028W        W 6772   6.583   8.383   2.255 -0.3140 -0.1723  0.1741
 3029W        W 6773   7.468   2.560   1.867 -0.1096  0.0650 -0.1785
 3030W        W 6774   8.455   1.033   0.958  0.4374 -0.0032 -0.0421
 3031W        W 6775   0.693   1.272  11.354 -0.0727  0.1405  0.2055
 3032W        W 6776   5.503   6.759  11.920  0.2921 -0.3692 -0.0166
 3033W        W 6777   2.606   2.695  10.394 -0.2025  0.2779 -0.1859
 3034W        W 6778   1.595   2.277   0.076  0.0724  0.2150 -0.4142
 3035W        W 6779   2.696   7.782  12.918 -0.0651  0.0949  0.1315
 3036W        W 6780   8.959   9.098   4.116  0.2280 -0.0955  0.0680
 3037W        W 6781   9.025   9.496   1.709  0.1198  0.0449 -0.0345
 3038W        W 6782   8.884   7.815   9.757  0.0244 -0.0129 -0.0256
 3039W        W 6783   8.252   5.027   1.378  0.1498 -0.1559 -0.3781
 3040W        W 6784   3.057   4.661  12.117  0.1355 -0.6966 -0.0815
 3041W        W 6785   9.648   4.760   2.504 -0.2859  0.3406 -0.1443
 3042W        W 6786   1.564   1.708   1.495 -0.2431 -0.0773  0.1091
 3043W        W 6787   6.071   3.068   9.976  0.2642  0.0652  0.1435
 3044W        W 6788   8.552   4.223   2.993  0.0281  0.2516 -0.2079
 3045W        W 6789   3.788   7.461   8.646  0.1388 -0.0515  0.0344
 3046W        W 6790   3.981   2.783   0.691  0.1268  0.0528  0.1314
 3047W        W 6791   4.139   2.789   1.833  0.1726 -0.0672 -0.2363
 3048W        W 6792   1.831   7.292   0.287  0.1702 -0.0344 -0.1471
 3049W        W 6793   4.648   8.285   2.958 -0.0998 -0.1958  0.0380
 3050W        W 6794   4.880   1.277   0.970 -0.2163  0.0894  0.3231
 3051W        W 6795   2.514   0.513   9.817  0.0705  0.4806  0.0224
 3052W        W 6796   5.662   5.968  11.356  0.0807 -0.1654  0.1233
 3053W        W 6797   6.198   7.880   9.944  0.0759  0.0149  0.0455
 3054W        W 6798   7.790   8.689   0.705 -0.1472  0.3023 -0.1052
 3055W        W 6799   7.911   7.042   8.798 -0.0536 -0.5094 -0.1750
 3056W        W 6800   9.744   5.828  12.807  0.1227  0.2850 -0.3070
 3057W        W 6801   6.337   1.998  10.894 -0.1003 -0.0983 -0.0058
 3058W        W 6802   3.410   4.086   3.050 -0.0789  0.2028 -0.4548
 3059W        W 6803   4.120   0.023   0.978 -0.5353 -0.2415 -0.2395
 3060W        W 6804   7.449   8.428  10.640  0.1054  0.2081  0.4662
 3061W        W 6805   5.479   3.087  12.100 -0.2569  0.0924  0.0374
 3062W        W 6806   1.939   6.791   4.105 -0.0126  0.0694  0.1502
 3063W        W 6807   0.539   1.013   9.186 -0.0087 -0.2082  0.0523
 3064W        W 6808   3.113   4.510  12.606 -0.1383  0.2062  0.1921
 3065W        W 6809   4.423   9.899   0.536 -0.2387 -0.2559  0.1983
 3066W        W 6810   2.036   1.571   1.652 -0.3460  0.0203 -0.0931
 3067W        W 6811   1.879   2.592  12.145  0.0854  0.0797  0.2069
 3068W        W 6812   2.916   5.248   2.938 -0.2097  0.0590 -0.3173
 3069W        W 6813   7.057   4.209   3.980 -0.0532  0.2113 -0.0840
 3070W        W 6814   0.653   8.333  11.222 -0.0158  0.4345 -0.1501
 3071W        W 6815   5.727   7.118  10.853  0.0398  0.2877  0.3438
 3072W        W 6816   6.311   2.940   2.543 -0.2591 -0.1330 -0.0604
 3073W        W 6817   0.934   4.086   0.182  0.0857 -0.4274  0.0246
 3074W        W 6818   7.400   7.566  11.873  0.0061 -0.0185 -0.2226
 3075W        W 6819   5.685   5.642  11.757  0.0191  0.1592  0.1109
 3076W        W 6820   4.024   5.191  10.230 -0.0627  0.0495 -0.4251
 3077W        W 6821   7.043   0.477   3.048  0.1125  0.2870 -0.2407
 3078W        W 6822   7.003   1.032  11.617  0.2271 -0.3603 -0.0828
 3079W        W 6823   9.853   1.834  12.411  0.3679  0.2389  0.0535
 3080W        W 6824   1.621   4.737   3.018 -0.0678 -0.1214  0.0085
 3081W        W 6825   0.219   6.661   3.599  0.0791  0.0465  0.0347
 3082W        W 6826   0.834   1.569   1.162 -0.1868  0.2018 -0.0305
 3083W        W 6827   2.290   7.393   1.306  0.0112  0.3005 -0.0059
 3084W        W 6828   4.150   7.988   2.101 -0.3709 -0.2578  0.1330
 3085W        W 6829   9.698   4.151   0.678  0.1776  0.0453  0.1390
 3086W        W 6830   6.689   6.023   0.321 -0.0534 -0.1408  0.4320
 3087W        W 6831   4.511   4.384   0.899  0.4389  0.2142  0.0079
 3088W        W 6832   9.830   0.123   9.544 -0.0873  0.1669 -0.1236
 3089W        W 6833   1.065   2.100   1.829 -0.0993 -0.4157 -0.1257
 3090W        W 6834   2.487   0.882   8.761  0.0572  0.0492 -0.6173
 3091W        W 6835   4.777   5.423   1.144  0.2867 -0.0476  0.2263
 3092W        W 6836   8.117   1.621   5.098  0.1249  0.1907 -0.2660
 3093W        W 6837   3.670   0.743  10.549  0.2706 -0.1040 -0.1031
 3094W        W 6838   6.396   4.385  11.601  0.0320  0.2193 -0.3129
 3095W        W 6839   9.035   7.614   1.205 -0.3308  0.1071 -0.0230
 3096W        W 6840   7.979   5.529   2.768  0.1515 -0.4696  0.0610
 3097W        W 6841   7.635   1.025   2.508 -0.1089  0.1586 -0.0629
 3098W        W 6842   0.005   4.175   4.153  0.0670  0.1870  0.1500
 3099W        W 6843   0.801   4.246   1.260  0.1395  0.4084 -0.0005
 3100W        W 6844   7.944   0.903   4.144 -0.0178  0.0700 -0.1135
 3101W        W 6845   5.735   6.372   1.650 -0.0652  0.3146  0.2569
 3102W        W 6846   5.795   5.063   0.699 -0.0281 -0.1296 -0.1866
 3103W        W 6847   5.596   9.429  10.942  0.3476 -0.2508  0.2535
 3104W        W 6848   8.605   6.747  11.028  0.3209 -0.1197  0.1509
 3105W        W 6849   1.145   1.055  11.173  0.0205 -0.0089  0.2763
 3106W        W 6850   1.109   5.732   2.310 -0.4576 -0.0184 -0.1011
 3107W        W 6851   8.940   7.986   2.829 -0.0869 -0.2855 -0.0434
 3108W        W 6852   4.991   7.811   2.452  0.0436  0.0302 -0.0765
 3109W        W 6853   8.459   0.252  11.409 -0.1663  0.3465 -0.1467
 3110W        W 6854   1.060   6.856   9.998  0.1635  0.0744 -0.2051
 3111W        W 6855   4.464   9.905   0.083  0.0551 -0.0410  0.0451
 3112W        W 6856   4.980   5.452   9.128  0.1694  0.1300 -0.0960
 3113W        W 6857   0.180   4.232   4.693 -0.0801 -0.2512  0.3290
 3114W        W 6858   2.657   7.646   9.939  0.0513 -0.0804  0.1095
 3115W        W 6859   4.647   1.707   8.420  0.1432 -0.0898 -0.1103
 3116W        W 6860   9.680   8.273   3.850 -0.0123  0.2803  0.0565
 3117W        W 6861   5.209   8.307  12.616  0.0478  0.0769  0.0991
 3118W        W 6862   6.763   1.618   1.512  0.2243 -0.0315 -0.1091
 3119W        W 6863   0.313   7.680   2.506 -0.1167  0.1954 -0.0690
 3120W        W 6864   7.713   6.101  10.781  0.0162  0.0183 -0.0373
 3121W        W 6865   2.153   6.282  10.464  0.6176 -0.2105 -0.0650
 3122W        W 6866   1.577   6.403   1.158  0.0785 -0.4455 -0.1311
 3123W        W 6867   7.199   4.764   1.494  0.0409 -0.3796  0.0941
 3124W        W 6868   3.834   3.869   3.115 -0.3457 -0.3612  0.1518
 3125W        W 6869   1.531   1.933  10.889 -0.1121 -0.1908  0.1855
 3126W        W 6870   7.251   2.993   9.330 -0.1721  0.0449  0.1001
 3127W        W 6871   4.950   6.833   9.079 -0.0021  0.1697  0.2199
 3128W        W 6872   1.165   5.223   3.404 -0.0425  0.1702  0.0547
 3129W        W 6873   5.811   3.684  11.443  0.0738  0.2047 -0.4124
 3130W        W 6874   9.675   0.044   3.566  0.0920  0.0594  0.2344
 3131W        W 6875   3.227   6.595   9.388  0.0217 -0.1858  0.1652
 3132W        W 6876   1.595   3.472   0.937  0.0600 -0.0941  0.1956
 3133W        W 6877   2.287   7.064   0.020 -0.1538 -0.2722 -0.0559
 3134W        W 6878   0.941   2.183  12.109 -0.0232 -0.0447 -0.1756
 3135W        W 6879   6.761   1.828   8.975 -0.2341 -0.0800  0.0618
 3136W        W 6880   2.997   6.829  11.065  0.0248  0.1191 -0.3166
 3137W        W 6881   1.181   0.248   4.174  0.2642  0.2717 -0.0744
 3138W        W 6882   0.150   2.692   2.412 -0.3635 -0.0801  0.1488
 3139W        W 6883   9.536   6.795  12.062 -0.0759  0.1079 -0.1465
 3140W        W 6884   2.045   3.690   4.372  0.1462  0.1539  0.3640
 3141W        W 6885   3.327   3.596   3.097  0.1155  0.3013  0.1435
 3142W        W 6886   1.879   5.450   4.120  0.1734 -0.1044 -0.0322
 3143W        W 6887   1.468   8.830   4.174 -0.0294  0.2175 -0.0509
 3144W        W 6888   0.360   4.889  12.375  0.0397  0.0327  0.0413
 3145W        W 6889   9.632   9.111   3.240 -0.2290 -0.1877  0.1314
 3146W        W 6890   5.459   1.245   8.866 -0.2038  0.0301 -0.1315
 3147W        W 6891   5.094   2.643   2.029  0.0909 -0.4856 -0.1502
 3148W        W 6892   8.414   4.921  10.033  0.5467  0.0926 -0.0087
 3149W        W 6893   7.696   8.910  11.987  0.2314  0.2071  0.3384
 3150W        W 6894   6.789   8.805   0.012  0.1790  0.0382 -0.0906
 3151W        W 6895   8.210   5.319  12.202  0.0510  0.0082 -0.0470
 3152W        W 6896   8.434   7.661   8.774  0.0193 -0.0030  0.1649
 3153W        W 6897   0.227   4.690  11.844  0.0171 -0.1032  0.1964
 3154W        W 6898   6.486   7.137   9.558 -0.3887 -0.1250 -0.1418
 3155W        W 6899   1.414   2.867  12.408  0.2178  0.0449  0.0076
 3156W        W 6900   0.326   0.776   4.522 -0.4346 -0.3937  0.0118
 3157W        W 6901   5.324   1.532   2.652 -0.2338  0.1566 -0.5750
 3158W        W 6902   6.846   6.497  12.366  0.2907  0.0330  0.0956
 3159W        W 6903   7.983   7.451  11.060 -0.0377  0.1112  0.4234
 3160W        W 6904   8.421   0.657   3.250  0.1243 -0.1390 -0.0166
 3161W        W 6905   7.452   7.404  11.020  0.1358  0.3182  0.2027
 3162W        W 6906   7.397   7.217   4.099  0.1751  0.1131  0.1159
 3163W        W 6907   8.866   6.250   0.872 -0.0456 -0.0183  0.3704
 3164W        W 6908   6.135   2.324  12.656  0.0432  0.0320 -0.3032
 3165W        W 6909   5.842   5.606  10.453  0.0922  0.1695 -0.0245
 3166W        W 6910   7.742   9.557  10.326  0.2645  0.1048  0.0901
 3167W        W 6911   5.441   7.021   6.568 -0.1396  0.1200 -0.1658
 3168W        W 6912   0.960   2.126   4.923  0.0591 -0.2752 -0.3991
 3169W        W 6913   7.143   1.557   9.280  0.2214  0.0234  0.1379
 3170W        W 6914   1.499   7.749   8.545  0.2173  0.1586 -0.0054
 3171W        W 6915   2.277   9.491  11.472 -0.0629 -0.1589 -0.2170
 3172W        W 6916   4.714   5.824   9.005  0.1544 -0.1095 -0.2041
 3173W        W 6917   3.468   9.837  12.727 -0.1317  0.1146  0.1153
 3174W        W 6918   3.045   8.121  11.475  0.2539 -0.2573 -0.0128
 3175W        W 6919   6.352   3.939   2.982 -0.3178  0.0475  0.0698
 3176W        W 6920   4.510   0.307  10.578 -0.0360  0.3744 -0.0015
 3177W        W 6921   1.326   5.116   2.406  0.0023 -0.2539  0.4916
 3178W        W 6922   6.574   2.274  12.966 -0.1204 -0.0232  0.2647
 3179W        W 6923   5.408   3.075   3.379 -0.0058 -0.4911  0.0802
 3180W        W 6924   6.793   4.034   3.444 -0.1350  0.1510 -0.1548
 3181W        W 6925   3.787   9.197   9.636 -0.2184  0.3510  0.3082
 3182W        W 6926   7.235   1.218   3.484 -0.6080  0.1466 -0.2015
 3183W        W 6927   5.127   3.769   5.519  0.0039 -0.0481  0.1032
 3184W        W 6928   4.745   7.625  11.578 -0.2165  0.0990 -0.1427
 3185W        W 6929   2.303   0.229  10.250 -0.0847  0.2487 -0.1328
 3186W        W 6930   6.751   8.806   1.258  0.0753  0.1169  0.2857
 3187W        W 6931   7.829   0.692   5.015 -0.1173  0.2096 -0.2123
 3188W        W 6932   1.940   1.784   2.104 -0.0440 -0.0422 -0.5303
 3189W        W 6933   4.043   6.865   0.905  0.0653  0.2657  0.2603
 3190W        W 6934   9.375   2.610   4.031  0.2176 -0.0661 -0.2603
 3191W        W 6935   8.894   2.064  12.662 -0.1091  0.1838  0.1979
 3192W        W 6936   7.823   0.111   4.293 -0.0255 -0.3696 -0.0801
 3193W        W 6937   1.524   7.722   9.156  0.0754 -0.1374 -0.0584
 3194W        W 6938   7.740   9.414   2.494  0.0230 -0.2730  0.0176
 3195W        W 6939   1.080   2.468   2.900  0.2060  0.2766 -0.1349
 3196W        W 6940   6.925   8.148   9.938 -0.1347  0.2949 -0.1946
 3197W        W 6941   1.385   4.235   2.297 -0.1280  0.1355 -0.0564
 3198W        W 6942   7.493   8.774  11.032 -0.2397  0.0143  0.0114
 3199W        W 6943   1.464   7.313   3.490  0.1112 -0.1796 -0.0701
 3200W        W 6944   7.757   5.084   2.372 -0.0286  0.0473 -0.0745
 3201W        W 6945   9.345   3.558  12.904 -0.0810  0.0514  0.1646
 3202W        W 6946   4.846   1.938   0.491  0.0383 -0.0126  0.0758
 3203W        W 6947   3.339   1.406   0.308 -0.0594  0.1056 -0.1386
 3204W        W 6948   1.426   9.065   0.255 -0.3250  0.1794 -0.2578
 3205W        W 6949   7.931   3.716   2.202  0.2627 -0.1802  0.2669
 3206W        W 6950   0.050   1.103   9.025  0.3792 -0.0157 -0.4426
 3207W        W 6951   8.035   9.239   2.147  0.3021  0.1045  0.2000
 3208W        W 6952   7.902   8.198   2.249 -0.1583  0.0058 -0.1716
 3209W        W 6953   6.863   3.762   2.863  0.3302 -0.0578 -0.0759
 3210W        W 6954   4.411   8.740  12.252  0.1670  0.3843  0.2850
 3211W        W 6955   3.370   2.007   9.559  0.2203  0.0091 -0.1558
 3212W        W 6956   9.540   5.054  11.405 -0.2766  0.4228 -0.1650
 3213W        W 6957   0.419   5.899   9.015 -0.0400  0.4436  0.3314
 3214W        W 6958   8.295   2.084   2.912  0.0124  0.0269 -0.1331
 3215W        W 6959   7.250   1.962  10.159 -0.1811 -0.1113  0.2217
 3216W        W 6960   6.129   0.316   2.590  0.4225  0.1495  0.3035
 3217W        W 6961   1.660   8.277   1.422 -0.1942 -0.0552  0.5483
 3218W        W 6962   7.504   9.701  10.818 -0.0411 -0.3543  0.1406
 3219W        W 6963   0.960   4.391  12.351 -0.1177 -0.6181  0.3404
 3220W        W 6964   5.110   0.886  10.876 -0.0813  0.0749 -0.1435
 3221W        W 6965   3.132   4.555   4.197  0.4149 -0.1392 -0.1691
 3222W        W 6966   5.354   3.629  12.462 -0.0168 -0.3640 -0.1003
 3223W        W 6967   4.222   1.335  12.838  0.0015  0.3111  0.0563
 3224W        W 6968   1.597   7.249   1.806  0.0583  0.0421 -0.2168
 3225W        W 6969   9.250   1.481   1.872  0.3281  0.3713 -0.2989
 3226W        W 6970   5.001   0.914   2.196 -0.0721  0.0738 -0.1309
 3227W        W 6971   6.638   6.029  10.736  0.3943  0.0145  0.0384
 3228W        W 6972   5.010   5.225   2.304  0.0503 -0.1557  0.3172
 3229W        W 6973   9.796   3.487   9.507  0.5008  0.1522 -0.3710
 3230W        W 6974   0.743   8.699   1.652  0.2653 -0.2098 -0.1957
 3231W        W 6975   5.858   2.985  10.864 -0.3511  0.4442  0.1980
 3232W        W 6976   7.445   8.030   0.015 -0.2083  0.4859 -0.0937
 3233W        W 6977   4.155   0.826  12.972 -0.1670 -0.3360  0.1284
 3234W        W 6978   0.573   9.623   1.475 -0.0865 -0.2408 -0.3342
 3235W        W 6979   7.886   1.659  10.574  0.0401  0.1290  0.0086
 3236W        W 6980   3.183   2.890   3.486 -0.2648 -0.1306  0.3054
 3237W        W 6981   1.968   6.466   0.226 -0.0133  0.1826  0.1165
 3238W        W 6982   0.288   0.042  11.339 -0.1345 -0.1047  0.0657
 3239W        W 6983   0.715   1.168   1.535  0.0552 -0.1783 -0.3769
 3240W        W 6984   1.321   6.303   9.497  0.2676 -0.0274 -0.0505
 3241W        W 6985   3.940   2.332   8.247 -0.2253  0.2268 -0.1645
 3242W        W 6986   7.717   5.765   3.335  0.0942 -0.1073 -0.2347
 3243W        W 6987   5.524   7.510  10.592 -0.0291  0.0659  0.0830
 3244W        W 6988   9.418   5.432   9.391 -0.1241 -0.0251 -0.0858
 3245W        W 6989   4.637   9.306   2.668 -0.0130 -0.0971  0.2596
 3246W        W 6990   8.823   2.828   3.290 -0.1215 -0.1185 -0.0945
 3247W        W 6991   5.028   0.259   1.140 -0.1995 -0.2289  0.2285
 3248W        W 6992   1.641   0.313  11.021  0.2789 -0.0990  0.0729
 3249W        W 6993   9.165   7.156  11.876  0.1083  0.2364 -0.0954
 3250W        W 6994   5.258   1.885  12.034 -0.1537 -0.2776  0.2573
 3251W        W 6995   6.037   7.264   0.626 -0.1926 -0.2329 -0.0449
 3252W        W 6996   2.446   2.616   0.225 -0.3818 -0.1189  0.1247
 3253W        W 6997   9.887   0.276  10.701 -0.1751 -0.2234  0.3259
 3254W        W 6998   3.546   8.146   1.176  0.0949 -0.0999  0.0670
 3255W        W 6999   2.742   6.963   2.886  0.0446 -0.2117  0.2470
 3256W        W 7000   2.886   8.527  10.936  0.2168 -0.0648 -0.3889
 3257W        W 7001   9.629   4.779   8.907  0.0086 -0.2223  0.0815
 3258W        W 7002   5.037   1.367  11.055 -0.1237 -0.2034 -0.0860
 3259W        W 7003   3.078   6.150   1.419 -0.2918 -0.0031 -0.2828
 3260W        W 7004   5.214   6.384   0.671 -0.2641 -0.1037  0.2768
 3261W        W 7005   5.606   4.949  11.211  0.1066 -0.3886  0.1064
 3262W        W 7006   8.338   3.538   3.539  0.4900 -0.2022 -0.0205
 3263W        W 7007   2.233   1.438   9.820 -0.1924  0.0229  0.0052
 3264W        W 7008   7.705   3.697  12.184 -0.0603  0.2317 -0.0853
 3265W        W 7009   3.681   4.603   9.182 -0.1123 -0.1814 -0.2550
 3266W        W 7010   5.667   5.045  12.083  0.0513 -0.0903 -0.2177
 3267W        W 7011   0.352   2.150   3.695  0.1022  0.1278  0.0538
 3268W        W 7012   5.217   3.273   1.000  0.0039 -0.1285  0.0709
 3269W        W 7013   2.316   3.680   3.533 -0.0611  0.1720  0.0997
 3270W        W 7014   1.556   5.957   3.065 -0.2394 -0.0392 -0.1205
 3271W        W 7015   9.038   0.875  11.313  0.0129  0.0460 -0.2093
 3272W        W 7016   4.415   2.717  11.276 -0.2883 -0.2433 -0.1327
 3273W        W 7017   0.710   2.075   4.100 -0.1918 -0.0390 -0.1442
 3274W        W 7018   3.894   5.875   0.239  0.3550 -0.1051 -0.1370
 3275W        W 7019   9.580   6.580   3.855 -0.0860 -0.1945  0.0390
 3276W        W 7020   7.540   4.457   3.732  0.3084  0.1890  0.0633
 3277W        W 7021   8.746   3.543   0.786  0.2452 -0.0859  0.0406
 3278W        W 7022   8.265   3.137   3.186  0.0105  0.3133 -0.1124
 3279W        W 7023   3.706   0.203   1.742  0.2725  0.0785 -0.0473
 3280W        W 7024   1.355   9.661   4.362  0.1863  0.0955 -0.4337
 3281W        W 7025   0.249   8.981   3.330  0.0884  0.1209 -0.0531
 3282W        W 7026   4.520   3.530   1.281  0.4655  0.2047  0.0947
 3283W        W 7027   3.838   0.431  11.328 -0.0694  0.2312  0.0915
 3284W        W 7028   5.165   1.640   9.816 -0.0870 -0.1213 -0.0891
 3285W        W 7029   1.934   4.416   3.238  0.1810  0.3331  0.0189
 3286W        W 7030   1.785   4.436  11.922  0.0054  0.2312  0.1457
 3287W        W 7031   8.566   9.049   4.418  0.1793 -0.0147  0.0598
 3288W        W 7032   2.178   5.296   3.296 -0.1447 -0.1961 -0.1702
 3289W        W 7033   0.800   9.566  12.455  0.0276  0.0184 -0.1584
 3290W        W 7034   3.339   4.972   0.410  0.0275  0.0864  0.0124
 3291W        W 7035   7.342   6.171   2.376 -0.0628  0.3866  0.2623
 3292W        W 7036   1.486   6.832   5.264 -0.0139  0.0207 -0.0254
 3293W        W 7037   3.769   2.359   1.081 -0.0875 -0.0979 -0.1936
 3294W        W 7038   1.355   9.824  10.577  0.2100 -0.1744  0.0543
 3295W        W 7039   4.888   0.347  12.963  0.1499  0.0635 -0.1487
 3296W        W 7040   6.340   1.161   0.554 -0.2273  0.1334 -0.1960
 3297W        W 7041   0.237   0.059   7.939  0.0255  0.1904 -0.2792
 3298W        W 7042   9.583   8.007  11.123 -0.0213  0.2916  0.1243
 3299W        W 7043   8.516   7.942  11.879 -0.1340 -0.0018 -0.0713
 3300W        W 7044   4.824   2.856   4.833  0.0568  0.0758 -0.1585
 3301W        W 7045   6.000   9.484   2.234 -0.0520  0.4376  0.0372
 3302W        W 7046   9.508   8.753  12.332  0.0259 -0.3297 -0.0480
 3303W        W 7047   0.054   5.515  10.104 -0.1031  0.1901 -0.0682
 3304W        W 7048   4.872   6.908  12.610  0.0455 -0.1710 -0.1358
 3305W        W 7049   8.758   4.209   2.519  0.1218 -0.1209  0.1372
 3306W        W 7050   5.732   9.091   2.089 -0.3834  0.1960  0.1547
 3307W        W 7051   1.307   5.953  10.315  0.1492 -0.0074 -0.0568
 3308W        W 7052   8.264   0.310   4.140 -0.0070 -0.1037 -0.2046
 3309W        W 7053   0.165   8.127  11.115 -0.0224  0.0886 -0.1238
 3310W        W 7054   4.083   0.251  11.720  0.3781  0.0896  0.0573
 3311W        W 7055   2.494   4.230  12.001  0.3796 -0.1810  0.1160
 3312W        W 7056   1.118   2.842  12.862 -0.3162  0.0708  0.0327
 3313W        W 7057   2.121   3.981  11.610 -0.1769  0.0108  0.0989
 3314W        W 7058   3.724   2.821   9.782  0.2383 -0.1462  0.0316
 3315W        W 7059   5.132   4.481   2.366 -0.0298 -0.3254  0.2638
 3316W        W 7060   2.692   5.377   3.363 -0.4170 -0.0285 -0.3376
 3317W        W 7061   7.912   3.260   9.880  0.1511  0.1477  0.0233
 3318W        W 7062   7.824   6.469   2.006  0.1445  0.4119  0.0398
 3319W        W 7063   1.458   1.008   0.133  0.1217  0.3075  0.2458
 3320W        W 7064   0.662   0.526   8.912 -0.3540 -0.1319  0.0040
 3321W        W 7065   8.337   9.885   0.833  0.0518  0.3778 -0.1483
 3322W        W 7066   0.019   9.434   1.826  0.0828  0.1962 -0.0653
 3323W        W 7067   2.892   9.752   1.037  0.0483  0.0451  0.1518
 3324W        W 7068   1.055   4.612  11.561 -0.1662  0.2882  0.0316
 3325W        W 7069   0.233   3.940   8.570 -0.1973  0.0300 -0.0678
 3326W        W 7070   5.382   2.748   1.577 -0.2254 -0.0219 -0.1951
 3327W        W 7071   1.998   8.918   2.517 -0.0258 -0.2585  0.1821
 3328W        W 7072   9.638   6.262   9.641  0.1548 -0.0512 -0.0631
 3329W        W 7073   4.102   6.464   2.760  0.1238 -0.2924 -0.0632
 3330W        W 7074   9.244   4.865   9.634 -0.1982  0.2210 -0.1896
 3331W        W 7075   7.825   8.126   0.772  0.1923 -0.0293  0.0744
 3332W        W 7076   6.386   2.481   4.452 -0.4608  0.2840 -0.0718
 3333W        W 7077   5.725   8.727   9.388 -0.0433  0.0889  0.1487
 3334W        W 7078   2.426   3.961   4.545 -0.1462 -0.0211  0.0341
 3335W        W 7079   0.644   2.325  11.759  0.2223 -0.0288  0.1945
 3336W        W 7080   3.117   2.724   0.287 -0.0888  0.2154 -0.0663
 3337W        W 7081   4.681   5.616   0.108  0.1726 -0.3027 -0.0685
 3338W        W 7082   0.534   5.515  10.414  0.0226 -0.4363  0.1201
 3339W        W 7083   3.780   4.033  10.675 -0.1208  0.0259 -0.0756
 3340W        W 7084   9.379   7.785  10.675 -0.1828 -0.1828  0.0217
 3341W        W 7085   1.348   7.930   1.701  0.1084  0.1633  0.3437
 3342W        W 7086   4.145   6.641  11.567 -0.0579 -0.1209  0.0341
 3343W        W 7087   2.877   7.211  11.846  0.1964  0.0232  0.1249
 3344W        W 7088   8.208   4.826   0.279  0.0069  0.1030  0.1653
 3345W        W 7089   4.540   9.458  11.123  0.0371  0.1501  0.1112
 3346W        W 7090   6.701   6.870  11.672  0.0746  0.2031 -0.2325
 3347W        W 7091   0.249   3.866   4.994  0.0028 -0.0680 -0.1247
 3348W        W 7092   0.927   8.923   8.727  0.1880 -0.2050  0.2433
 3349W        W 7093   1.748   4.886  11.677  0.1792 -0.0085  0.1004
 3350W        W 7094   1.986   8.949   3.952  0.2280  0.0663 -0.0295
 3351W        W 7095   7.544   7.045  11.833 -0.1343 -0.1233 -0.1353
 3352W        W 7096   1.745   7.263  12.427 -0.2534  0.2766 -0.2206
 3353W        W 7097   4.182   5.595   2.208  0.2029 -0.1181 -0.1931
 3354W        W 7098   6.775   0.843   0.476  0.2007  0.0845  0.2025
 3355W        W 7099   9.170   5.204  12.381 -0.2794 -0.3037 -0.0639
 3356W        W 7100   5.885   2.478  10.824 -0.1899 -0.2990 -0.0842
 3357W        W 7101   4.394   2.288  11.866  0.1746  0.2246 -0.1213
 3358W        W 7102   2.633   8.917  12.166 -0.0004 -0.1161  0.0134
 3359W        W 7103   8.551   6.116   4.247 -0.0537 -0.0336 -0.1964
 3360W        W 7104   6.431   7.242   0.950  0.0861 -0.0673  0.1335
 3361W        W 7105   5.944   5.889  10.067  0.1193 -0.3932 -0.0013
 3362W        W 7106   2.918   1.017  10.297  0.0070 -0.0892 -0.1989
 3363W        W 7107   6.904   9.386   3.649  0.0694 -0.1360 -0.2466
 3364W        W 7108   1.565   0.782   2.091 -0.1209  0.3900 -0.1021
 3365W        W 7109   9.066   4.564  10.766 -0.2168  0.0575  0.1479
 3366W        W 7110   3.063   3.848   1.083  0.3363  0.3954 -0.0643
 3367W        W 7111   0.154   2.192   9.961  0.1027  0.0606  0.0533
 3368W        W 7112   3.305   4.968  10.736 -0.2042 -0.0622 -0.0064
 3369W        W 7113   3.119   2.585  10.476 -0.1029 -0.0323  0.2333
 3370W        W 7114   3.187   1.329   3.589 -0.0931 -0.2907 -0.2324
 3371W        W 7115   8.858   5.910   2.657  0.0565 -0.0378 -0.2387
 3372W        W 7116   7.109   5.646   3.085 -0.0654  0.4092 -0.2206
 3373W        W 7117   6.022   0.413  11.972  0.2149 -0.1386  0.6818
 3374W        W 7118   0.857   1.251  12.404 -0.4150 -0.3061 -0.0149
 3375W        W 7119   6.804   9.416  12.100 -0.0928  0.2828  0.4040
 3376W        W 7120   6.520   2.793   1.222 -0.0749  0.1031  0.0467
 3377W        W 7121   7.229   8.954  12.794 -0.0345  0.0596  0.3424
 3378W        W 7122   1.395   9.451   0.898 -0.1419  0.0258 -0.2537
 3379W        W 7123   5.869   9.226  11.341  0.2763  0.0741  0.1114
 3380W        W 7124   6.898   4.201   4.704  0.0352  0.2585 -0.0806
 3381W        W 7125   7.737   0.900   0.483 -0.0038  0.1928  0.1308
 3382W        W 7126   9.677   0.172   1.143 -0.0209 -0.1106  0.1636
 3383W        W 7127   1.147   0.700   9.897  0.2535  0.4394 -0.2204
 3384W        W 7128   9.069   5.821   9.398 -0.0770 -0.2475  0.0420
 3385W        W 7129   2.245   2.117  11.935  0.2083  0.0254  0.2131
 3386W        W 7130   8.599   2.083   9.123 -0.1181 -0.0106 -0.2649
 3387W        W 7131   2.804   5.017  10.616  0.2419  0.2774  0.3033
 3388W        W 7132   3.479   6.476  11.773 -0.1532  0.0048 -0.1230
 3389W        W 7133   3.815   1.651   1.748 -0.2067 -0.0448  0.0955
 3390W        W 7134   0.320   7.444   0.431  0.0928  0.0443  0.0696
 3391W        W 7135   9.162   4.063   1.688  0.4269 -0.1251  0.0325
 3392W        W 7136   1.964   7.423  11.032  0.0781 -0.0733 -0.1480
 3393W        W 7137   4.526   5.966   0.981  0.4622 -0.2803  0.2292
 3394W        W 7138   6.769   5.697   8.675 -0.1585  0.2909 -0.2718
 3395W        W 7139   1.379   6.942   4.133 -0.1729  0.2197 -0.0841
 3396W        W 7140   1.993   2.260  11.133 -0.0847 -0.0483 -0.2602
 3397W        W 7141   8.402   3.654   2.249  0.2216 -0.0680  0.0946
 3398W        W 7142   1.206   0.069   3.610  0.1121  0.0233  0.0903
 3399W        W 7143   3.828   7.594   0.743 -0.3339  0.2295  0.2721
 3400W        W 7144   7.692   5.445   1.908  0.1669 -0.1059 -0.1844
 3401W        W 7145   0.457   7.337   1.787  0.0592  0.0321  0.3010
 3402W        W 7146   8.684   1.034   3.575 -0.0793 -0.2030  0.0842
 3403W        W 7147   1.549   7.367   4.411 -0.0752  0.0899  0.3105
 3404W        W 7148   6.409   9.899   1.090 -0.0421  0.0041 -0.0556
 3405W        W 7149   6.170   9.881  12.062  0.0049  0.0470  0.0590
 3406W        W 7150   8.680   8.311  10.235  0.0946  0.0534 -0.1777
 3407W        W 7151   0.083   3.428   4.039  0.1621  0.0131 -0.1313
 3408W        W 7152   3.397   1.273  10.841 -0.0354 -0.0322 -0.2280
 3409W        W 7153   2.660   5.638   0.865  0.0973  0.1728  0.1305
 3410W        W 7154   8.239   2.408   8.953 -0.0559  0.0601  0.0558
 3411W        W 7155   0.677   6.014  12.974  0.0617 -0.0487  0.0503
 3412W        W 7156   0.878   3.081   1.095  0.1819  0.1862  0.1797
 3413W        W 7157   5.653   6.880   3.058  0.0733  0.1531 -0.0637
 3414W        W 7158   5.341   2.018   8.830 -0.0371  0.0977  0.3200
 3415W        W 7159   3.965   0.334   9.652 -0.0852  0.2818 -0.0977
 3416W        W 7160   7.329   5.245   1.161 -0.0481  0.1968 -0.1197
 3417W        W 7161   2.886   5.076  11.830  0.0595 -0.0520  0.0019
 3418W        W 7162   9.625   4.761  10.183 -0.0284  0.1314  0.0712
 3419W        W 7163   8.407   3.405  12.004 -0.3450  0.2807 -0.1382
 3420W        W 7164   0.372   0.483   2.226 -0.1851  0.1177  0.2850
 3421W        W 7165   0.456   2.496  10.196 -0.1799 -0.1766  0.0606
 3422W        W 7166   7.636   7.737   2.285  0.0072  0.1470 -0.2558
 3423W        W 7167   0.813   3.547   0.362  0.4341 -0.0218  0.1666
 3424W        W 7168   4.334   1.837  12.755  0.0717 -0.2546 -0.0348
 3425W        W 7169   9.873   7.177   4.616 -0.1798 -0.0713 -0.0764
 3426W        W 7170   6.296   2.362   2.482  0.3599  0.2509  0.0786
 3427W        W 7171   5.247   6.828   1.062  0.1074 -0.1514 -0.2172
 3428W        W 7172   2.895   1.320   2.991 -0.1939 -0.2431  0.1334
 3429W        W 7173   9.207   2.246   3.730 -0.1614  0.2143  0.0917
 3430W        W 7174   4.281   7.234   1.495 -0.2385  0.0495  0.2684
 3431W        W 7175   0.383   2.218  10.932 -0.1546 -0.0627 -0.0693
 3432W        W 7176   1.532   8.866   2.320 -0.0698  0.1236 -0.0984
 3433W        W 7177   8.905   8.975   0.079 -0.2242  0.0902 -0.0697
 3434W        W 7178   8.110   1.874   9.981  0.0582  0.1784  0.2950
 3435W        W 7179   9.899   7.958   2.905 -0.1318  0.1829  0.0354
 3436W        W 7180   8.719   6.908  11.541  0.1622 -0.1844 -0.2071
 3437W        W 7181   6.193   5.995   0.617  0.1309 -0.0887  0.1357
 3438W        W 7182   9.868   2.283   0.335  0.0554 -0.0969 -0.0296
 3439W        W 7183   0.175   2.706   1.325  0.2608  0.2056  0.1307
 3440W        W 7184   8.024   2.171   0.110  0.1199  0.1519  0.1630
 3441W        W 7185   8.818   0.184   2.870 -0.2396 -0.0688  0.2091
 3442W        W 7186   8.012   8.336  12.533 -0.1983  0.0117 -0.0912
 3443W        W 7187   2.659   6.024   3.214 -0.0993  0.2733  0.1846
 3444W        W 7188   7.955   2.301  11.605 -0.3235 -0.4608  0.0795
 3445W        W 7189   8.005   9.153   0.547  0.3018  0.2943 -0.1937
 3446W        W 7190   5.697   0.278   9.905 -0.2153  0.1573  0.2802
 3447W        W 7191   8.520   2.510  10.848 -0.0792  0.1974 -0.1728
 3448W        W 7192   8.547   2.026  12.282 -0.3214  0.0405 -0.0854
 3449W        W 7193   0.200   3.080   3.668 -0.0270  0.0584 -0.1460
 3450W        W 7194   3.065   9.364   8.456 -0.0202 -0.2417 -0.0648
 3451W        W 7195   3.692   9.463  10.118 -0.0194  0.2180 -0.4570
 3452W        W 7196   0.148   2.229   4.137 -0.1412  0.4779  0.3549
 3453W        W 7197   1.097   5.414  12.059  0.1826 -0.1534 -0.1755
 3454W        W 7198   1.513   4.833   9.924 -0.0070 -0.3168 -0.1817
 3455W        W 7199   6.804   9.873   9.574 -0.0130  0.4127 -0.1852
 3456W        W 7200   8.301   9.905  10.974  0.1997 -0.0059 -0.3086
 3457W        W 7201   7.952   1.731  12.906 -0.1279  0.1829  0.1718
 3458W        W 7202   3.532   3.650   0.650  0.2082  0.0014 -0.2183
 3459W        W 7203   1.056   3.355   5.228 -0.2559  0.5373  0.0345
 3460W        W 7204   5.016   9.768  11.562  0.1830 -0.3108 -0.2286
 3461W        W 7205   4.890   4.698  12.968  0.0666 -0.1020  0.2030
 3462W        W 7206   0.185   3.658  10.770 -0.0453  0.0980  0.2227
 3463W        W 7207   1.020   6.235   0.357  0.2398 -0.4647 -0.0100
 3464W        W 7208   6.797   9.371   2.546 -0.3758 -0.4017 -0.1063
 3465W        W 7209   3.780   5.534   3.061 -0.2783  0.1251  0.0170
 3466W        W 7210   7.268   3.546   0.438 -0.1862 -0.0281 -0.0714
 3467W        W 7211   1.697   8.651   0.166 -0.4156  0.1039  0.3550
 3468W        W 7212   4.502   5.853  11.595  0.0730 -0.3031  0.0746
 3469W        W 7213   0.802   5.827  12.543 -0.0858 -0.0870  0.2066
 3470W        W 7214   0.791   4.076  10.822 -0.1758 -0.2144 -0.2176
 3471W        W 7215   6.476   3.281  10.971  0.0241  0.0149 -0.0924
 3472W        W 7216   3.449   8.678   9.073 -0.3038 -0.1022  0.1152
 3473W        W 7217   0.986   8.563   2.569 -0.0018  0.1717 -0.1421
 3474W        W 7218   9.668   8.682  11.837  0.1483 -0.2072  0.0217
 3475W        W 7219   4.179   6.508   9.551 -0.2885  0.0693  0.4572
 3476W        W 7220   6.478   3.329   0.838 -0.0810 -0.1387 -0.0571
 3477W        W 7221   4.499   5.576   1.717  0.2962 -0.0451  0.1574
 3478W        W 7222   1.613   9.044   9.439  0.1257  0.0551 -0.0950
 3479W        W 7223   3.959   1.208  10.672 -0.1008 -0.0798 -0.0593
 3480W        W 7224   4.141   8.786  10.080  0.4934 -0.1070  0.3828
 3481W        W 7225   2.364   1.275  10.476 -0.0990 -0.0378 -0.0399
 3482W        W 7226   2.105   5.052  12.511  0.2176  0.0849  0.1166
 3483W        W 7227   1.821   4.943   0.996  0.1090  0.1523 -0.1469
 3484W        W 7228   4.717   5.223  12.292  0.2804 -0.1257  0.1148
 3485W        W 7229   6.149   6.359   9.177 -0.0471  0.1867  0.2257
 3486W        W 7230   1.735   2.419   2.632  0.1048 -0.0353  0.2185
 3487W        W 7231   3.743   7.884   9.500  0.0506  0.2477 -0.3047
 3488W        W 7232   7.818   0.528  10.116  0.0898  0.0584 -0.0292
 3489W        W 7233   1.246   8.976  12.785 -0.1268  0.0469  0.0335
 3490W        W 7234   8.638   6.685   0.971 -0.3547 -0.2846  0.1553
 3491W        W 7235   8.274   2.726  11.501  0.1243  0.0477 -0.0970
 3492W        W 7236   1.373   3.204   9.616 -0.0982 -0.0090 -0.3020
 3493W        W 7237   7.435   8.224  12.510  0.1086  0.3203  0.3115
 3494W        W 7238   6.919   7.405   2.145 -0.0326 -0.2587  0.3006
 3495W        W 7239   8.347   2.386   8.374  0.1179  0.1149 -0.0244
 3496W        W 7240   3.044   9.700   4.118 -0.2337 -0.0646 -0.1595
 3497W        W 7241   6.469   1.000   3.897 -0.0667  0.0716  0.0646
 3498W        W 7242   2.678   5.954  12.138 -0.0961 -0.1032 -0.1241
 3499W        W 7243   1.557   6.490   3.961 -0.4091 -0.1617  0.0383
 3500W        W 7244   2.850   6.481   0.715  0.1313  0.0343 -0.1283
 3501W        W 7245   1.300   1.974  12.373  0.3147  0.1070 -0.0829
 3502W        W 7246   0.785   6.518   2.789 -0.0490  0.0327 -0.5928
 3503W        W 7247   3.410   5.247  12.059 -0.1525 -0.0730  0.0046
 3504W        W 7248   6.941   9.136  10.201 -0.0943  0.1161  0.1265
 3505W        W 7249   8.965   6.253   3.979 -0.1944  0.2371  0.2254
 3506W        W 7250   0.652   6.975   3.656  0.3513 -0.2288  0.1093
 3507W        W 7251   1.700   4.585  11.297  0.2463  0.1884  0.0361
 3508W        W 7252   1.659   1.483  11.628  0.0628  0.1513  0.3441
 3509W        W 7253   1.786   1.547   8.848  0.1763  0.0898 -0.4540
 3510W        W 7254   3.072   3.337  11.799 -0.1452  0.1612  0.1136
 3511W        W 7255   0.378   5.505   3.776 -0.1563  0.2249 -0.1933
 3512W        W 7256   7.269   0.144   1.944 -0.3688 -0.0204 -0.1541
 3513W        W 7257   8.769   4.243   0.381 -0.0061 -0.3240  0.0509
 3514W        W 7258   5.146   2.282   0.205  0.1757  0.0825 -0.0027
 3515W        W 7259   8.588   3.722  11.571  0.1154 -0.0381  0.1726
 3516W        W 7260   0.042   3.189   2.158  0.0506  0.0534 -0.1781
 3517W        W 7261   9.563   0.491   4.168 -0.2379  0.2285 -0.0276
 3518W        W 7262   8.486   9.643  11.517  0.0134 -0.1570  0.1491
 3519W        W 7263   8.298   4.086   3.378  0.3662 -0.0681  0.2237
 3520W        W 7264   4.433   8.973  11.796  0.2345 -0.2113  0.0038
 3521W        W 7265   6.681   4.750   1.239 -0.0391  0.0600 -0.0955
 3522W        W 7266   9.672   7.273  12.064 -0.0651 -0.2757 -0.1820
 3523W        W 7267   4.525   8.535  12.689 -0.1802 -0.2879  0.3084
 3524W        W 7268   2.622   2.328   8.655 -0.3397  0.1172 -0.1716
 3525W        W 7269   2.587   0.324  12.071  0.2526 -0.1176 -0.1379
 3526W        W 7270   6.047   2.851  12.694  0.0519 -0.1209 -0.0320
 3527W        W 7271   8.416   7.410   3.301 -0.1849  0.0603 -0.2272
 3528W        W 7272   6.700   3.408  10.474  0.0301 -0.0863  0.3736
 3529W        W 7273   4.619   1.519   0.575  0.1962  0.0507 -0.3649
 3530W        W 7274   7.282   1.183  10.144 -0.1058  0.2715  0.0033
 3531W        W 7275   0.192   4.882   0.736  0.3100 -0.3089 -0.1149
 3532W        W 7276   3.522   2.692   3.831  0.0681  0.0597  0.0771
 3533W        W 7277   0.110   7.216  10.323  0.0759  0.0659 -0.5201
 3534W        W 7278   1.891   1.122  12.030  0.0533 -0.3056  0.2750
 3535W        W 7279   5.593   4.190  12.516  0.0489  0.1136 -0.0630
 3536W        W 7280   6.269   3.389  12.307 -0.0747 -0.1665  0.0708
 3537W        W 7281   4.119   2.735   3.065  0.1871  0.2599 -0.1098
 3538W        W 7282   9.730   4.768   0.450 -0.2638  0.1662  0.1031
 3539W        W 7283   0.263   7.813   1.980  0.2027 -0.0857 -0.2537
 3540W        W 7284   8.359   2.266   0.509 -0.1000 -0.0468  0.1726
 3541W        W 7285   1.159   4.229  10.497  0.3146  0.1421  0.1630
 3542W        W 7286   4.670   4.329   5.110  0.1619 -0.3380 -0.2511
 3543W        W 7287   5.463   7.323  10.121 -0.1398  0.3609  0.1967
 3544W        W 7288   9.738   5.347   3.995 -0.0525 -0.1561  0.1997
 3545W        W 7289   6.926   7.040  10.750 -0.0748 -0.0065  0.2301
 3546W        W 7290   7.642   3.636   1.810 -0.1572  0.0488 -0.1548
 3547W        W 7291   2.383   3.819   4.063 -0.4213 -0.1170 -0.0287
 3548W        W 7292   8.890   3.326   1.279  0.0815 -0.0125  0.0024
 3549W        W 7293   5.342   3.698   0.704  0.1877 -0.1119  0.0743
 3550W        W 7294   3.991   8.092  10.512 -0.0608  0.2418 -0.1436
 3551W        W 7295   8.313   3.799  11.029 -0.3160  0.1486 -0.3164
 3552W        W 7296   1.624   6.082   9.844  0.0330  0.2129  0.3090
 3553W        W 7297   0.447   0.369   3.392  0.0044  0.0156 -0.0070
 3554W        W 7298   1.337   1.177   9.969  0.1374 -0.0968 -0.0264
 3555W        W 7299   2.235   4.628   3.938 -0.0795 -0.2107  0.0338
 3556W        W 7300   0.330   9.468  12.964  0.1036 -0.1007 -0.0641
 3557W        W 7301   7.456   5.855   9.561 -0.0556 -0.0237  0.0524
 3558W        W 7302   1.758   8.578   9.693  0.1291  0.1708  0.0838
 3559W        W 7303   4.289   6.109  11.213  0.0977 -0.2171 -0.2636
 3560W        W 7304   3.453   0.706  12.153  0.5432 -0.1092 -0.3277
 3561W        W 7305   0.082   1.943   2.225 -0.1094  0.4249 -0.2616
 3562W        W 7306   2.493   8.601  11.247  0.1198 -0.0632  0.0386
 3563W        W 7307   9.357   2.038  11.137 -0.1462  0.0657  0.5489
 3564W        W 7308   4.644   3.222  10.487 -0.4226  0.5955 -0.2988
 3565W        W 7309   5.211   2.192  12.471 -0.2489 -0.1650 -0.1322
 3566W        W 7310   2.587   5.642   2.879  0.2895  0.3595 -0.1219
 3567W        W 7311   0.053   0.556  12.273 -0.1044 -0.1623 -0.3003
 3568W        W 7312   5.313   5.760  10.986  0.0978 -0.4204  0.1077
 3569W        W 7313   6.522   6.284   0.835  0.0686  0.0754  0.1864
 3570W        W 7314   7.354   7.388   0.857 -0.1126  0.0265  0.1466
 3571W        W 7315   7.998   0.045   2.310 -0.0236  0.0515 -0.0089
 3572W        W 7316   8.828   2.191   0.536 -0.0160  0.0187 -0.2120
 3573W        W 7317   3.125   8.872  12.856  0.0341 -0.3973  0.1014
 3574W        W 7318   8.012   8.581   9.078  0.0831 -0.1311 -0.1769
 3575W        W 7319   9.880   7.172   9.467  0.0593 -0.0819 -0.2477
 3576W        W 7320   8.337   6.840   8.912 -0.0595  0.1346 -0.1435
 3577W        W 7321   2.722   8.147  10.018 -0.0030  0.2217  0.2190
 3578W        W 7322   0.870   1.696  12.245  0.2320  0.0756  0.0531
 3579W        W 7323   5.220   7.082  10.483  0.1629 -0.0979 -0.0685
 3580W        W 7324   6.568   1.525  11.738 -0.1628 -0.2150  0.0206
 3581W        W 7325   4.255   2.249   1.215  0.0389  0.0429 -0.1416
 3582W        W 7326   0.160   5.142   3.157  0.0548  0.0252  0.3278
 3583W        W 7327   8.003   9.073   4.225 -0.1972  0.2912  0.0031
 3584W        W 7328   2.927   5.308  11.058  0.2440  0.1487  0.0119
 3585W        W 7329   0.594   1.925   1.954 -0.0942 -0.1056  0.0380
 3586W        W 7330   5.388   8.990   0.840 -0.0005 -0.2383 -0.0071
 3587W        W 7331   5.592   4.870   3.786  0.0433 -0.2573  0.0925
 3588W        W 7332   2.714   3.365  12.186  0.3223  0.0859  0.2440
 3589W        W 7333   9.135   3.940   4.750  0.1947  0.0192 -0.0603
 3590W        W 7334   0.279   8.860   1.428 -0.1519 -0.1712  0.0541
 3591W        W 7335   6.247   6.891  12.510  0.2592 -0.0743 -0.2692
 3592W        W 7336   2.714   4.065   3.708 -0.1068  0.4385  0.0409
 3593W        W 7337   9.604   1.806   2.597 -0.0655  0.0550 -0.3684
 3594W        W 7338   0.661   9.071   4.546  0.1027 -0.0254  0.2843
 3595W        W 7339   8.059   7.018  12.705 -0.0752 -0.0924  0.1883
 3596W        W 7340   5.885   0.749   9.886 -0.0037  0.1307  0.2857
 3597W        W 7341   3.016   1.779   9.848  0.1725  0.0752  0.2642
 3598W        W 7342   9.304   2.642  10.453 -0.2943 -0.3258  0.5677
 3599W        W 7343   6.391   6.372   2.575  0.2869  0.0483 -0.0307
 3600W        W 7344   4.431   8.713   1.181 -0.4927 -0.0725  0.0394
 3601W        W 7345   3.932   6.910  11.058 -0.0814  0.2609 -0.0172
 3602W        W 7346   7.991   1.875   2.022 -0.1437  0.5164 -0.1950
 3603W        W 7347   3.565   5.581   1.569 -0.0609  0.1081  0.0395
 3604W        W 7348   7.889   0.342  10.930 -0.1707  0.0961 -0.4556
 3605W        W 7349   9.642   3.959   2.905  0.1663  0.0351 -0.1639
 3606W        W 7350   2.875   7.680  10.728  0.2435  0.3115  0.0409
 3607W        W 7351   7.548   4.988   0.736  0.2520  0.1670 -0.1973
 3608W        W 7352   2.394   1.408  10.977  0.1315 -0.0568  0.4487
 3609W        W 7353   3.764   6.909   2.612 -0.1083  0.3878 -0.3521
 3610W        W 7354   4.229   6.687   1.340  0.0476  0.1323  0.0697
 3611W        W 7355   8.778   3.306  11.008  0.0561 -0.5113 -0.0682
 3612W        W 7356   6.385   4.530   0.849  0.2109  0.2703 -0.2184
 3613W        W 7357   4.396   9.446  11.601  0.2021 -0.0356  0.1422
 3614W        W 7358   2.819   2.282  10.115 -0.0199  0.0791  0.3868
 3615W        W 7359   4.345   3.192   2.105  0.3136  0.1084  0.0959
 3616W        W 7360   5.962   5.113  11.566 -0.2817  0.0752  0.1820
 3617W        W 7361   6.477   5.039  10.222 -0.0378 -0.2574 -0.0672
 3618W        W 7362   0.175   0.119   0.687  0.3876 -0.1716 -0.0262
 3619W        W 7363   0.299   8.526   2.602  0.1775 -0.0547  0.0792
 3620W        W 7364   6.082   3.151   4.397 -0.1366 -0.0008  0.1687
 3621W        W 7365   1.056   6.649   2.373 -0.1405 -0.1579 -0.1542
 3622W        W 7366   0.817   6.704   1.994 -0.2624 -0.0039  0.1088
 3623W        W 7367   8.192   1.234   3.471  0.2893 -0.0886 -0.5804
 3624W        W 7368   7.513   0.376   0.271 -0.0154 -0.0257 -0.1018
 3625W        W 7369   0.860   6.499  12.675  0.0468  0.1391 -0.4023
 3626W        W 7370   7.606   6.688   2.424 -0.0465 -0.2426  0.1150
 3627W        W 7371   8.220   4.607  10.436 -0.0524 -0.1351 -0.1084
 3628W        W 7372   6.188   8.503   2.610 -0.1113 -0.1267 -0.0488
 3629W        W 7373   1.670   0.728   9.890 -0.0954  0.2194 -0.0435
 3630W        W 7374   5.672   8.763  11.467 -0.0031  0.4738  0.0977
 3631W        W 7375   8.923   1.902   1.915 -0.2241 -0.0459  0.0774
 3632W        W 7376   1.843   0.759  11.722  0.0130 -0.1340  0.2083
 3633W        W 7377   1.248   4.330  12.726  0.0423 -0.0880  0.2869
 3634W        W 7378   9.390   4.068   9.399 -0.0748 -0.4282 -0.1765
 3635W        W 7379   0.631   9.639   2.728 -0.2126 -0.1196  0.1353
 3636W        W 7380   5.159   5.386   1.411  0.0753 -0.0325  0.0168
 3637W        W 7381   0.127   4.579   9.306 -0.0676 -0.0540 -0.2023
 3638W        W 7382   0.053   7.169  12.785 -0.0683  0.2344 -0.3243
 3639W        W 7383   1.131   1.068   1.921 -0.0170 -0.0891  0.2319
 3640W        W 7384   9.396   3.337   9.806 -0.1129  0.0862  0.0934
 3641W        W 7385   3.106   3.465   0.711 -0.0748  0.1876 -0.0232
 3642W        W 7386   5.648   1.533  11.812  0.0189  0.0522 -0.0213
 3643W        W 7387   1.573   6.856   3.175  0.0558  0.1202 -0.1498
 3644W        W 7388   6.404   1.941   1.645 -0.1569  0.5649 -0.2044
 3645W        W 7389   4.384   4.211   3.171 -0.0588  0.0813 -0.0825
 3646W        W 7390   6.550   1.098   1.422  0.0740  0.1787  0.2211
 3647W        W 7391   1.203   7.426  12.437 -0.1453  0.0038 -0.1487
 3648W        W 7392   7.497   9.179  10.041  0.0758  0.2314  0.1328
 3649W        W 7393   9.291   2.832  12.241  0.0494  0.0081  0.1884
 3650W        W 7394   2.890   3.353   3.244 -0.2856 -0.0512  0.1068
 3651W        W 7395   6.230   4.442   4.779  0.0195  0.1147 -0.0387
 3652W        W 7396   5.629   9.110   9.623  0.0260  0.2456 -0.2191
 3653W        W 7397   5.458   6.312   2.297  0.0259  0.1285  0.3763
 3654W        W 7398   1.070   9.160  12.343 -0.0475 -0.0908  0.0419
 3655W        W 7399   3.299   6.407   9.926 -0.0163  0.0086 -0.1389
 3656W        W 7400   8.194   6.701   3.804 -0.1741 -0.1680  0.2777
 3657W        W 7401   3.913   3.898   4.681  0.3988  0.1804  0.2946
 3658W        W 7402   9.544   3.152   4.926  0.2394 -0.1195  0.4335
 3659W        W 7403   2.561   1.896   4.025 -0.0630  0.1819 -0.0953
 3660W        W 7404   7.683   6.891   9.681  0.1342 -0.0693 -0.0865
 3661W        W 7405   9.207   8.481   2.681 -0.1538  0.0472 -0.0106
 3662W        W 7406   9.292   8.870  11.402  0.1568  0.0514 -0.2953
 3663W        W 7407   8.668   2.834  12.914  0.1042  0.0442  0.3007
 3664W        W 7408   8.137   6.930   3.287 -0.1392 -0.0173 -0.2021
 3665W        W 7409   7.338   0.668   4.869 -0.0323 -0.2216  0.0877
 3666W        W 7410   6.221   1.284   3.531  0.2890  0.0913 -0.0272
 3667W        W 7411   2.437   3.025  10.762  0.2568 -0.1393 -0.0698
 3668W        W 7412   7.836   6.277   8.738  0.1069 -0.2151  0.2044
 3669W        W 7413   8.340   9.479   4.661  0.0658  0.3797 -0.3197
 3670W        W 7414   5.681   1.394   3.425  0.0941 -0.0436  0.2914
 3671W        W 7415   4.691   6.104  10.914 -0.2705 -0.2618 -0.0905
 3672W        W 7416   4.641   1.485  11.349 -0.0049 -0.0898  0.0773
 3673W        W 7417   1.869   4.416   1.078  0.2945  0.0653  0.0820
 3674W        W 7418   9.075   2.114  10.613  0.0932 -0.1578  0.1318
 3675W        W 7419   5.880   4.608   5.223  0.0890  0.0449  0.0216
 3676W        W 7420   0.999   2.018   3.320 -0.1292  0.1031  0.0031
 3677W        W 7421   4.226   8.293  10.129  0.2654 -0.1850  0.0108
 3678W        W 7422   9.615   4.222   1.734  0.2536 -0.0246 -0.1939
 3679W        W 7423   4.174   7.356  10.944  0.1154 -0.0831  0.1800
 3680W        W 7424   4.867   3.715  12.481  0.2362 -0.1361 -0.1751
 3681W        W 7425   1.662   8.096  11.115  0.0775  0.0603  0.1399
 3682W        W 7426   2.421   1.949  11.047  0.2316  0.1557  0.0284
 3683W        W 7427   8.721   6.532   8.811 -0.1602 -0.0318 -0.1009
 3684W        W 7428   5.189   1.227  12.674  0.1880 -0.3533 -0.0424
 3685W        W 7429   7.265   1.202  10.670 -0.2695 -0.0216 -0.0407
 3686W        W 7430   3.600   3.204  11.771  0.0571  0.1567  0.2556
 3687W        W 7431   3.714   2.278   0.613 -0.2327 -0.0819  0.5808
 3688W        W 7432   8.991   4.655   3.159  0.0889  0.0971 -0.1095
 3689W        W 7433   8.472   1.989   1.008  0.2979 -0.2611  0.1039
 3690W        W 7434   4.173   4.554  11.749  0.0616 -0.2440  0.2178
 3691W        W 7435   5.606   1.971   0.115 -0.3056  0.0943 -0.1179
 3692W        W 7436   8.438   8.675  11.330 -0.0174 -0.3233 -0.1024
 3693W        W 7437   9.220   0.767   0.512 -0.1554 -0.0662 -0.0540
 3694W        W 7438   1.112   2.464  12.484 -0.0288  0.1634 -0.0029
 3695W        W 7439   9.668   0.353   8.991  0.0726 -0.1578  0.4232
 3696W        W 7440   9.031   4.869   4.918 -0.1401  0.0991 -0.4145
 3697W        W 7441   0.041   0.445   1.488 -0.0091 -0.3953  0.3148
 3698W        W 7442   2.170   1.732   4.299  0.1203 -0.2731  0.0464
 3699W        W 7443   6.742   2.020  10.300  0.2613 -0.1089  0.2333
 3700W        W 7444   2.753   2.377   0.550 -0.0430  0.0206  0.1448
 3701W        W 7445   7.038   4.763   8.738  0.0907  0.1238 -0.2773
 3702W        W 7446   3.782   2.507   2.083  0.2018 -0.5131 -0.0914
 3703W        W 7447   3.928   1.794   1.004  0.3727  0.1023  0.2251
 3704W        W 7448   1.928   9.745   2.475 -0.1158 -0.3050 -0.1010
 3705W        W 7449   1.541   7.776  10.081  0.0740  0.1062  0.1082
 3706W        W 7450   3.984   7.054   8.911 -0.3300 -0.0796  0.2132
 3707W        W 7451   3.370   7.395   1.737 -0.1618 -0.2712  0.1172
 3708W        W 7452   2.140   7.932   1.333  0.0959  0.3673  0.2649
 3709W        W 7453   2.998   9.447   1.609 -0.3426 -0.0668 -0.3171
 3710W        W 7454   7.574   0.463   9.224  0.0943  0.1820  0.1463
 3711W        W 7455   3.012   7.857  10.275 -0.1600  0.1886 -0.1247
 3712W        W 7456   8.874   4.590   9.278 -0.0879 -0.2569 -0.0304
 3713W        W 7457   5.171   6.321  10.821  0.1374  0.1255  0.0057
 3714W        W 7458   3.769   5.557   3.606  0.1882 -0.3177 -0.2312
 3715W        W 7459   4.781   2.587  12.930 -0.4289  0.3176  0.0223
 3716W        W 7460   5.151   2.824   0.251 -0.0558 -0.1079  0.1822
 3717W        W 7461   9.185   3.438   3.753 -0.3863  0.1974 -0.1493
 3718W        W 7462   4.263   4.002  10.896  0.0274  0.0076 -0.1622
 3719W        W 7463   1.267   6.216   2.245 -0.1028  0.2309  0.1269
 3720W        W 7464   6.281   5.220   0.568  0.3050 -0.0510 -0.1911
 3721W        W 7465   0.820   4.248   2.307  0.2133  0.1265 -0.3649
 3722W        W 7466   2.130   8.840  12.067 -0.0716  0.4066  0.0796
 3723W        W 7467   9.685   8.452   2.716 -0.0806  0.3703 -0.1700
 3724W        W 7468   4.959   7.846   9.833  0.3117 -0.1529 -0.0393
 3725W        W 7469   7.136   0.187   0.536 -0.1057 -0.0239 -0.0948
 3726W        W 7470   0.377   9.638  10.161 -0.1586  0.0526 -0.1353
 3727W        W 7471   3.995   1.286   1.179  0.3115 -0.4140 -0.0835
 3728W        W 7472   3.379   7.185  12.969  0.0592  0.1482  0.1860
 3729W        W 7473   9.906   7.588   9.916  0.3026  0.1460 -0.0495
 3730W        W 7474   3.019   4.400   9.180  0.0407 -0.1075 -0.2453
 3731W        W 7475   6.715   6.000  12.606  0.3370 -0.0326  0.1640
 3732W        W 7476   1.067   8.560   8.286  0.2309 -0.2083  0.1557
 3733W        W 7477   8.947   1.304   1.020  0.1788  0.0407  0.3917
 3734W        W 7478   8.922   7.521   8.714  0.1286 -0.0439  0.0684
 3735W        W 7479   4.781   1.105  12.207 -0.0251  0.0342  0.2511
 3736W        W 7480   6.860   7.626  12.225  0.1204 -0.1180  0.1787
 3737W        W 7481   7.112   2.101   9.243 -0.0748 -0.0154  0.1737
 3738W        W 7482   2.589   0.319  12.969 -0.0732  0.1617 -0.3235
 3739W        W 7483   7.734   2.088  12.033  0.0128 -0.1663 -0.1871
 3740W        W 7484   3.325   3.626   9.487  0.1526 -0.0391 -0.2368
 3741W        W 7485   3.267   9.484   9.832 -0.1061  0.1983  0.0080
 3742W        W 7486   8.838   6.151  12.434  0.1761 -0.0641 -0.0054
 3743W        W 7487   0.189   1.495   3.176  0.1585  0.0776  0.2642
 3744W        W 7488   0.574   1.976   0.993 -0.1625  0.1556 -0.2858
 3745W        W 7489   0.812   5.822   1.354  0.2845  0.0280 -0.3071
 3746W        W 7490   0.344   8.945  12.934 -0.1699 -0.2059 -0.1207
 3747W        W 7491   5.213   0.867  12.298  0.1805 -0.3367 -0.0204
 3748W        W 7492   1.391   2.480   1.989 -0.0169  0.2686 -0.2045
 3749W        W 7493   9.044   1.025   2.066 -0.1828 -0.2162 -0.1280
 3750W        W 7494   8.919   3.422   9.296 -0.1574  0.0803  0.0103
 3751W        W 7495   3.332   2.415   1.462  0.2249  0.0218  0.1349
 3752W        W 7496   8.893   3.114   8.865 -0.0968  0.0306  0.0239
 3753W        W 7497   5.701   3.929   3.529 -0.2326 -0.3316  0.1215
 3754W        W 7498   8.071   3.581   1.054 -0.4101 -0.1664  0.2677
 3755W        W 7499   0.360   1.008  10.079 -0.1061  0.3913  0.0630
 3756W        W 7500   0.751   6.285  12.177  0.1768  0.1230  0.3417
 3757W        W 7501   2.048   1.896   0.732  0.1186  0.1033 -0.1413
 3758W        W 7502   6.089   0.076  11.576 -0.0771  0.1163 -0.0479
 3759W        W 7503   5.508   7.889   0.268 -0.1450  0.3323 -0.0486
 3760W        W 7504   0.576   5.423  11.474 -0.1735  0.1084  0.0211
 3761W        W 7505   4.592   2.643   1.292  0.3382  0.2394 -0.1577
 3762W        W 7506   5.995   6.874   0.258 -0.0379 -0.1086  0.0065
 3763W        W 7507   2.866   6.805   1.331  0.0290 -0.2098 -0.0168
 3764W        W 7508   0.244   0.204  12.695 -0.0153 -0.1423 -0.1382
 3765W        W 7509   7.309   9.404  10.524 -0.1468  0.1069 -0.0233
 3766W        W 7510   2.325   3.677  12.921 -0.0320 -0.1293 -0.1308
 3767W        W 7511   0.380   9.181   9.435 -0.1016 -0.1681  0.0007
 3768W        W 7512   5.627   8.846  11.983 -0.0007  0.0751  0.2709
 3769W        W 7513   1.741   5.757  10.318  0.0619 -0.3286 -0.6552
 3770W        W 7514   4.401   7.866   0.716 -0.1428 -0.1122 -0.1622
 3771W        W 7515   6.092   5.532   8.648 -0.2570  0.1004 -0.0988
 3772W        W 7516   7.947   7.366   3.551  0.0644 -0.2417  0.1279
 3773W        W 7517   0.780   5.787  11.127  0.1572 -0.2006 -0.0340
 3774W        W 7518   0.212   4.802   2.408 -0.2452  0.2104  0.1546
 3775W        W 7519   8.916   2.621   4.340 -0.2913  0.0978  0.1311
 3776W        W 7520   1.630   1.292   1.828  0.0942 -0.1802  0.0226
 3777W        W 7521   6.158   4.504  12.935 -0.1973 -0.1201  0.2897
 3778W        W 7522   6.352   3.129   1.678  0.1522  0.1751  0.3925
 3779W        W 7523   0.214   9.376  10.572 -0.0567 -0.0571  0.1519
 3780W        W 7524   7.029   2.238   3.513 -0.0096  0.4598  0.1779
 3781W        W 7525   4.410   4.189   4.698  0.0966 -0.0586  0.0631
 3782W        W 7526   1.161   4.789   3.687 -0.3269  0.0530  0.2719
 3783W        W 7527   9.853   0.795  11.841  0.0624 -0.0523  0.0084
 3784W        W 7528   8.016   1.236   0.703 -0.1663 -0.0177 -0.1043
 3785W        W 7529   5.651   2.756   1.107  0.0911 -0.0420 -0.0195
 3786W        W 7530   6.872   1.880   0.728  0.2869 -0.2454  0.0717
 3787W        W 7531   9.014   6.154  12.947 -0.1525 -0.1205 -0.2435
 3788W        W 7532   6.035   6.427   0.876  0.0063  0.0301  0.1718
 3789W        W 7533   1.052   2.295   0.183  0.1514  0.2021 -0.1988
 3790W        W 7534   5.441   3.232   9.409 -0.0165  0.2659 -0.1241
 3791W        W 7535   9.509   7.467  10.297 -0.0872 -0.0504  0.1674
 3792W        W 7536   4.006   9.558   0.416 -0.0377 -0.0228  0.0319
 3793W        W 7537   5.256   9.169  12.175 -0.1678 -0.1374  0.2886
 3794W        W 7538   5.464   3.234   2.916  0.2813 -0.0272 -0.4748
 3795W        W 7539   9.423   2.258   2.426 -0.2175  0.0674 -0.1188
 3796W        W 7540   8.831   3.232   2.909  0.1331 -0.0085 -0.0502
 3797W        W 7541   3.117   1.469   8.900 -0.1535 -0.3939 -0.0733
 3798W        W 7542   0.237   4.354   0.638 -0.0452  0.0970 -0.1220
 3799W        W 7543   5.466   1.346  10.743 -0.0829 -0.2304  0.2305
 3800W        W 7544   3.674   4.817  11.039 -0.0589 -0.0381  0.1412
 3801W        W 7545   0.555   4.236  11.295 -0.0017  0.0166  0.1762
 3802W        W 7546   7.502   1.041   2.037  0.0486  0.2409  0.0569
 3803W        W 7547   6.062   2.285   1.696  0.0678 -0.1554 -0.0251
 3804W        W 7548   1.574   0.041   8.558 -0.1241  0.1528  0.0021
 3805W        W 7549   9.842   4.533   0.984 -0.0032 -0.2722  0.2844
 3806W        W 7550   2.710   1.185   0.903  0.1370 -0.0950 -0.4623
 3807W        W 7551   2.106   7.412  10.560  0.2707 -0.0798 -0.1194
 3808W        W 7552   8.403   1.975   9.600  0.1379 -0.0659 -0.1040
 3809W        W 7553   2.933   7.767   2.511  0.1768  0.0908  0.2071
 3810W        W 7554   4.458   9.482   3.158  0.0643  0.0648 -0.1251
 3811W        W 7555   5.309   0.414   3.418 -0.0727  0.1510  0.0614
 3812W        W 7556   4.008   2.283  12.242 -0.1508  0.1100  0.0660
 3813W        W 7557   5.138   5.966  12.883  0.1307 -0.1230  0.0028
 3814W        W 7558   2.532   4.780  11.734 -0.3181 -0.1659 -0.2059
 3815W        W 7559   4.062   4.973  10.730 -0.0972  0.0902 -0.2882
 3816W        W 7560   0.389   1.711   9.898  0.1446  0.2322 -0.0260
 3817W        W 7561   5.745   1.491   1.307 -0.1666  0.0885 -0.1748
 3818W        W 7562   0.705   1.842   0.128  0.0557  0.2252  0.1996
 3819W        W 7563   6.422   8.007   2.794 -0.1042  0.0401 -0.0439
 3820W        W 7564   0.730   9.104   3.126 -0.2508 -0.1879 -0.0025
 3821W        W 7565   1.266   4.868   0.093  0.0692  0.0243  0.1357
 3822W        W 7566   0.095   9.632  12.519  0.0353  0.2500 -0.0772
 3823W        W 7567   8.587   4.078   0.834  0.0789  0.0378 -0.1155
 3824W        W 7568   1.706   6.359  11.239 -0.2044  0.1862 -0.1696
 3825W        W 7569   7.652   8.353  11.344 -0.1880  0.5228 -0.0296
 3826W        W 7570   3.787   3.176   1.980 -0.0482  0.1567 -0.0012
 3827W        W 7571   1.023   4.183   3.167  0.0499 -0.0141 -0.2454
 3828W        W 7572   2.338   0.472  11.665 -0.0540  0.3543  0.1502
 3829W        W 7573   5.893   8.412   7.682 -0.1559 -0.0890 -0.2252
 3830W        W 7574   8.328   8.078   9.900  0.0362  0.1616 -0.3588
 3831W        W 7575   1.041   0.403  11.722  0.0504  0.2243 -0.2149
 3832W        W 7576   9.620   5.144   1.111  0.1177 -0.0412  0.3015
 3833W        W 7577   1.027   2.813   2.411 -0.0272  0.2428  0.2622
 3834W        W 7578   5.190   5.573   3.189  0.0786 -0.1654  0.0120
 3835W        W 7579   6.956   8.146   2.660 -0.3123  0.1276  0.1111
 3836W        W 7580   1.782   2.961  10.876  0.0739  0.0903  0.0296
 3837W        W 7581   5.598   4.258   0.067  0.1064  0.0997  0.0383
 3838W        W 7582   1.242   3.923  10.061 -0.1776  0.1066  0.3634
 3839W        W 7583   9.028   9.137   2.080  0.0927  0.1426  0.0609
 3840W        W 7584   6.311   8.844   1.498  0.3313 -0.0115  0.1554
 3841W        W 7585   6.227   5.963  10.453 -0.3499 -0.1728  0.2110
 3842W        W 7586   7.030   7.870   9.471 -0.2049 -0.1962  0.0326
 3843W        W 7587   6.755   1.351   3.630  0.2245  0.1679 -0.3238
 3844W        W 7588   3.501   5.315  11.041  0.0678 -0.0589  0.2847
 3845W        W 7589   2.841   3.339  10.966 -0.5912  0.2593 -0.0741
 3846W        W 7590   6.965   9.487   3.118  0.0504  0.0425 -0.6572
 3847W        W 7591   6.131   6.816   9.560  0.0856 -0.0034 -0.1840
 3848W        W 7592   8.071   5.332   3.387 -0.3006  0.3041  0.5187
 3849W        W 7593   2.241   9.051  12.673  0.3935 -0.0942  0.0991
 3850W        W 7594   6.996   6.805  10.310 -0.2209  0.1274 -0.1701
 3851W        W 7595   7.821   6.548  10.551  0.2264 -0.1808 -0.0634
 3852W        W 7596   7.446   6.463  12.462  0.4572 -0.4231  0.0342
 3853W        W 7597   4.729   4.041   4.209 -0.0324 -0.0470  0.0249
 3854W        W 7598   2.891   7.104  12.356  0.1935 -0.0018  0.0894
 3855W        W 7599   1.147   6.872   9.483 -0.0085  0.0566 -0.1504
 3856W        W 7600   0.570   7.326   2.318 -0.2713  0.1075 -0.2247
 3857W        W 7601   7.060   8.642   0.483  0.0712  0.0597  0.2627
 3858W        W 7602   2.933   0.370  10.774 -0.0585  0.0741 -0.2620
 3859W        W 7603   3.764   8.268   9.241 -0.0178 -0.3963  0.2034
 3860W        W 7604   5.817   5.968   0.225  0.2210 -0.1654  0.0907
 3861W        W 7605   7.838   4.279  10.198  0.1989 -0.2182  0.0099
 3862W        W 7606   4.763   9.053   0.155 -0.0137  0.0619  0.0898
 3863W        W 7607   1.815   1.350   2.418  0.3847 -0.2345  0.0876
 3864W        W 7608   9.856   3.416  10.123 -0.1663  0.0664 -0.1366
 3865W        W 7609   0.818   8.988   9.729 -0.0108  0.1111  0.0186
 3866W        W 7610   5.695   3.854   9.876 -0.1880  0.0320  0.0722
 3867W        W 7611   6.822   6.490  10.667 -0.4620 -0.0167  0.1405
 3868W        W 7612   8.362   4.895   9.547 -0.1312  0.1412 -0.1383
 3869W        W 7613   4.053   3.119  11.876 -0.1222  0.2690 -0.1020
 3870W        W 7614   7.534   9.156   1.989  0.3258  0.0244  0.0256
 3871W        W 7615   9.388   2.987   1.659 -0.0291 -0.0679 -0.1469
 3872W        W 7616   9.209   4.197   8.893  0.0138  0.1645 -0.1567
 3873W        W 7617   1.622   7.390  10.444 -0.2919  0.2851  0.1307
 3874W        W 7618   8.171   1.697   0.437  0.0548 -0.1023  0.1761
 3875W        W 7619   1.019   8.127   3.317  0.1096 -0.0522 -0.2149
 3876W        W 7620   6.927   6.315   2.663  0.0170  0.0963  0.3814
 3877W        W 7621   8.948   3.320  11.524  0.2115 -0.0418  0.1650
 3878W        W 7622   0.900   3.369   2.027  0.3830  0.3704  0.2172
 3879W        W 7623   8.652   8.161   4.024  0.3508 -0.3141 -0.5054
 3880W        W 7624   0.284   1.167  11.792  0.0497  0.0411 -0.0512
 3881W        W 7625   9.038   4.049   2.951  0.1205  0.0486  0.0251
 3882W        W 7626   6.193   8.861  10.594  0.2941 -0.2140  0.1589
 3883W        W 7627   2.122   2.905  10.366  0.0104 -0.0986  0.1402
 3884W        W 7628   8.652   7.085  12.165  0.1690  0.2260 -0.4023
 3885W        W 7629   4.630   4.808  11.697 -0.1013  0.1352 -0.0550
 3886W        W 7630   7.738   9.492   9.152  0.1237 -0.0376  0.0925
 3887W        W 7631   5.469   6.980  11.453  0.2414 -0.2569  0.0082
 3888W        W 7632   2.626   6.759  12.640 -0.0195 -0.1307  0.1984
 3889W        W 7633   2.635   9.125   8.707  0.1433 -0.0375 -0.0140
 3890W        W 7634   8.019   4.569   4.002 -0.1308  0.0067 -0.1385
 3891W        W 7635   8.344   2.910   8.266 -0.3476  0.0943 -0.1046
 3892W        W 7636   1.462   7.349  12.924 -0.1686 -0.1492  0.0437
 3893W        W 7637   0.327   7.320   9.025 -0.2219 -0.0008 -0.0186
 3894W        W 7638   1.931   0.043   9.392  0.2893  0.1008  0.1821
 3895W        W 7639   2.887   6.265   9.663 -0.0328  0.2709  0.2099
 3896W        W 7640   8.872   1.263   3.969 -0.2450  0.2196 -0.4692
 3897W        W 7641   5.225   7.550   0.455  0.0381 -0.0353 -0.2087
 3898W        W 7642   1.835   6.862   2.066 -0.2249  0.0330 -0.1556
 3899W        W 7643   2.618   1.686   2.724 -0.1001  0.0736  0.2931
 3900W        W 7644   1.151   0.206   0.425 -0.3989  0.0913  0.2910
 3901W        W 7645   1.950   5.758   1.389  0.0157  0.1383 -0.1418
 3902W        W 7646   8.857   0.013  12.142  0.1075 -0.1392  0.3514
 3903W        W 7647   5.426   1.158  11.594  0.0138 -0.0021  0.0709
 3904W        W 7648   1.339   1.875  11.428 -0.1288 -0.1728  0.1258
 3905W        W 7649   4.411   2.588   0.834  0.0729 -0.0543  0.1453
 3906W        W 7650   2.377   5.550  12.906 -0.1604  0.0081 -0.2208
 3907W        W 7651   6.571   2.146   2.797  0.1293  0.2104 -0.3290
 3908W        W 7652   8.547   9.457   0.547  0.1331 -0.1118  0.2213
 3909W        W 7653   7.730   0.174  10.516 -0.1106 -0.0181  0.1077
 3910W        W 7654   4.242   8.893   9.632 -0.2326  0.0701  0.2379
 3911W        W 7655   5.785   2.522  12.968 -0.2338 -0.3760 -0.1655
 3912W        W 7656   0.514   8.691   0.969  0.0790 -0.0855  0.1134
 3913W        W 7657   7.088   5.084   4.060  0.3125 -0.1915  0.1714
 3914W        W 7658   9.579   0.795  12.415  0.1437 -0.4356  0.1597
 3915W        W 7659   3.737   6.258   2.319 -0.2946 -0.1325  0.1619
 3916W        W 7660   0.820   5.288  12.615  0.1816 -0.0314 -0.2850
 3917W        W 7661   1.898   6.777   1.120  0.0098 -0.4018  0.3099
 3918W        W 7662   0.702   4.881   9.967  0.1699  0.5171 -0.0240
 3919W        W 7663   7.028   3.096  12.279  0.3534  0.0329 -0.1488
 3920W        W 7664   1.255   2.949   0.860 -0.1312 -0.2482 -0.2871
 3921W        W 7665   2.349   5.774   3.497  0.0003 -0.1474  0.0462
 3922W        W 7666   5.891   4.653  10.931  0.0699 -0.1072 -0.1910
 3923W        W 7667   1.432   5.185   0.930  0.1441 -0.1347  0.1453
 3924W        W 7668   4.827   0.916   9.351  0.0107 -0.1421 -0.1800
 3925W        W 7669   7.091   4.157   3.004 -0.3656  0.2480  0.2849
 3926W        W 7670   2.731   0.117   1.443 -0.0932 -0.2025  0.0254
 3927W        W 7671   7.816   1.249  12.719  0.0258  0.0070 -0.1448
 3928W        W 7672   6.527   7.981   1.710 -0.3019  0.1786 -0.0387
 3929W        W 7673   7.652   5.078   2.854  0.1986 -0.0565  0.0012
 3930W        W 7674   3.506   3.172   9.463  0.1337  0.0098 -0.1388
 3931W        W 7675   9.027   6.989   2.082 -0.1957  0.2531  0.0159
 3932W        W 7676   9.172   4.028   0.644 -0.1384  0.0304 -0.2993
 3933W        W 7677   8.814   8.046   0.270 -0.4446 -0.2266 -0.0402
 3934W        W 7678   0.749   5.732   5.043  0.0220  0.0687 -0.0625
 3935W        W 7679   8.835   1.872   2.969  0.0218  0.0428  0.0437
 3936W        W 7680   6.218   2.457  12.130 -0.1082 -0.0581 -0.1232
 3937W        W 7681   7.740   1.259  12.164  0.0786 -0.0589  0.1540
 3938W        W 7682   9.198   7.491   2.691  0.2075  0.1877  0.1017
 3939W        W 7683   5.324   8.533   4.963  0.0682  0.1962  0.1036
 3940W        W 7684   0.982   3.982  11.294 -0.0089 -0.2217  0.0682
 3941W        W 7685   8.364   4.146   2.131  0.0727 -0.0458  0.2587
 3942W        W 7686   2.799   9.039   2.015 -0.0398 -0.0599 -0.2274
 3943W        W 7687   0.371   9.558   8.760  0.0255 -0.0866 -0.2178
 3944W        W 7688   7.666   4.621  12.727  0.1626 -0.0702  0.0464
 3945W        W 7689   1.167   2.758   3.343  0.2056  0.0389  0.0233
 3946W        W 7690   9.103   1.883   2.481  0.0336 -0.1459 -0.1394
 3947W        W 7691   3.035   5.572   2.588 -0.0149 -0.0887  0.1538
 3948W        W 7692   3.090   5.671   1.714  0.1391  0.1178 -0.1904
 3949W        W 7693   2.310   5.590   1.750  0.3249  0.1333 -0.3353
 3950W        W 7694   6.287   9.437  11.449  0.0076 -0.1924  0.0818
 3951W        W 7695   5.537   0.461  10.383  0.0969  0.1703  0.0035
 3952W        W 7696   0.958   0.259   9.642  0.0917  0.2646 -0.0104
 3953W        W 7697   8.849   2.443   1.712  0.0052 -0.0755  0.0417
 3954W        W 7698   1.589   3.904   1.937  0.0090  0.1492  0.1744
 3955W        W 7699   4.471   1.122   3.378  0.0946 -0.1897 -0.0932
 3956W        W 7700   1.020   4.147   9.488 -0.0203 -0.0808  0.1315
 3957W        W 7701   3.583   6.534   3.338 -0.2637  0.0177 -0.0980
 3958W        W 7702   4.153   1.446   0.674 -0.1470  0.3488 -0.4981
 3959W        W 7703   5.162   5.257   2.824  0.1041 -0.1534  0.0693
 3960W        W 7704   7.389   5.726   1.029 -0.0546 -0.0923  0.1261
 3961W        W 7705   0.086   6.992   3.985  0.0212  0.1575  0.1498
 3962W        W 7706   7.245   7.294  10.500  0.1907  0.0154  0.0171
 3963W        W 7707   1.379   5.404  10.397 -0.1754 -0.3070  0.2074
 3964W        W 7708   6.999   3.534   0.978 -0.0123 -0.0758  0.1525
 3965W        W 7709   4.229   7.506   8.855 -0.1490  0.0624 -0.0106
 3966W        W 7710   6.962   5.785   2.533  0.1291 -0.1329  0.2507
 3967W        W 7711   1.703   1.539   4.589 -0.2807 -0.0735  0.0169
 3968W        W 7712   2.114   0.668  10.217 -0.2194 -0.0541  0.0691
 3969W        W 7713   4.399   1.072   9.637 -0.3386 -0.4020  0.0424
 3970W        W 7714   6.748   7.591  12.975 -0.0102 -0.1356 -0.2469
 3971W        W 7715   8.856   3.834  11.142 -0.1058 -0.2162  0.1553
 3972W        W 7716   2.931   0.191   9.564 -0.1525  0.0109  0.0688
 3973W        W 7717   9.511   1.965   2.016  0.1667  0.1458 -0.1929
 3974W        W 7718   1.471   5.660  10.808 -0.2593 -0.1410  0.0714
 3975W        W 7719   9.867   8.943   0.321  0.1042 -0.0961  0.0742
 3976W        W 7720   4.742   2.805  12.379 -0.2602 -0.0581 -0.0775
 3977W        W 7721   3.590   7.083   3.462 -0.3802 -0.2156  0.1360
 3978W        W 7722   2.580   2.611   9.860 -0.1373  0.1674 -0.0383
 3979W        W 7723   3.871   2.965   9.228 -0.1158  0.0662  0.3728
 3980W        W 7724   9.295   5.836  12.533  0.0442 -0.0310 -0.1283
 3981W        W 7725   8.753   5.764  12.734  0.2489 -0.1851 -0.1811
 3982W        W 7726   2.984   0.751   9.585  0.0837  0.0536 -0.0161
 3983W        W 7727   3.201   7.571  12.149  0.3325 -0.2059  0.1068
 3984W        W 7728   6.734   2.884  10.565  0.2144  0.0360  0.0286
 3985W        W 7729   0.414   1.250   2.790  0.1084  0.1568  0.4635
 3986W        W 7730   9.654   4.860  11.823 -0.3104 -0.0141  0.2125
 3987W        W 7731   6.913   1.395  12.029  0.2883  0.0105 -0.3078
 3988W        W 7732   0.207   0.508  11.111  0.3499  0.0187 -0.1502
 3989W        W 7733   3.222   6.940  10.218  0.0594  0.2377 -0.2700
 3990W        W 7734   7.398   4.494   0.559 -0.1237 -0.0703 -0.2287
 3991W        W 7735   6.042   4.840   1.028 -0.2034  0.0706  0.5936
 3992W        W 7736   3.530   3.677   3.951  0.0068 -0.0577  0.1141
 3993W        W 7737   4.062   3.579   2.442 -0.4728  0.1310  0.1736
 3994W        W 7738   9.643   9.713   9.975 -0.1539 -0.4078  0.0811
 3995W        W 7739   3.261   2.457   0.968  0.3042  0.3831  0.0460
 3996W        W 7740   5.245   8.618   9.535  0.1660 -0.0722  0.1973
 3997W        W 7741   7.958   2.383  10.001  0.1070 -0.0361  0.0511
 3998W        W 7742   4.876   0.816   9.854  0.2199  0.1660  0.3116
 3999W        W 7743   7.126   8.648   2.187  0.0180  0.0212  0.4006
 4000W        W 7744   3.728   0.704   9.928 -0.0003 -0.2809  0.0549
 4001W        W 7745   5.991   7.115   2.756  0.2432 -0.2200 -0.1435
 4002W        W 7746   1.445   4.903  10.406 -0.0030  0.0094 -0.1268
 4003W        W 7747   1.563   5.547   4.681 -0.1690 -0.1025 -0.2704
 4004W        W 7748   8.444   6.207  12.762  0.0673  0.2521 -0.1315
 4005W        W 7749   0.469   7.032  11.479 -0.1161 -0.1692 -0.1255
 4006W        W 7750   5.762   6.664  11.255  0.0610 -0.2539 -0.3616
 4007W        W 7751   0.996   9.702   9.331 -0.0175  0.1165 -0.2999
 4008W        W 7752   1.886   0.612  12.203 -0.1463  0.1346  0.2104
 4009W        W 7753   9.587   9.255  10.441  0.4072 -0.0219  0.1844
 4010W        W 7754   0.473   3.031  10.087  0.1039  0.2168  0.2625
 4011W        W 7755   0.989   6.726   1.483  0.1419  0.2815  0.0898
 4012W        W 7756   1.667   5.905  11.641  0.2132  0.0281  0.0087
 4013W        W 7757   7.683   2.616  11.378  0.4276  0.0661 -0.2285
 4014W        W 7758   4.487   4.435   9.010  0.1307 -0.1043  0.2949
 4015W        W 7759   9.498   8.326   2.301 -0.0426  0.1178  0.1115
 4016W        W 7760   7.206   3.618  12.122  0.1880 -0.0133 -0.4119
 4017W        W 7761   4.454   5.283  10.651  0.3151 -0.0521  0.0547
 4018W        W 7762   4.531   1.948   3.119  0.2021 -0.2760 -0.1157
 4019W        W 7763   2.553   2.818   8.321  0.0808 -0.2076  0.1854
 4020W        W 7764   2.335   5.234   2.678 -0.0984  0.1236 -0.3828
 4021W        W 7765   4.468   1.614   4.734  0.1054 -0.2875 -0.2276
 4022W        W 7766   0.100   1.800   4.461  0.3041  0.0091  0.0390
 4023W        W 7767   4.589   6.519  11.351 -0.2175  0.1687  0.0999
 4024W        W 7768   6.784   9.694   9.007 -0.1066 -0.0081  0.0867
 4025W        W 7769   1.957   4.742   4.325  0.3752  0.1117  0.1694
 4026W        W 7770   8.554   5.184   0.523 -0.2319 -0.1428  0.2310
 4027W        W 7771   6.295   9.894   0.234  0.2538  0.1895 -0.0271
 4028W        W 7772   4.052   0.423   2.012 -0.2764  0.2039 -0.5426
 4029W        W 7773   1.376   6.973   1.006  0.1698  0.2403  0.0964
 4030W        W 7774   3.712   3.251  12.684  0.1133 -0.3366  0.1170
 4031W        W 7775   9.499   7.418  12.945 -0.0686  0.0411  0.0908
 4032W        W 7776   9.379   6.538   0.986 -0.1598 -0.0475  0.0696
 4033W        W 7777   3.286   6.933   2.626 -0.1802 -0.0655 -0.1656
 4034W        W 7778   6.754   9.280   1.592 -0.0414  0.0982  0.2836
 4035W        W 7779   5.340   1.442   1.806 -0.1628 -0.1568 -0.0513
 4036W        W 7780   1.123   5.130  10.017 -0.4211  0.0792 -0.1315
 4037W        W 7781   7.910   3.538  11.331 -0.1166  0.2390 -0.1163
 4038W        W 7782   0.272   9.808   0.290  0.1700 -0.1211 -0.0528
 4039W        W 7783   7.951   3.537   3.171  0.2279  0.1319  0.0870
 4040W        W 7784   5.462   9.453  12.609  0.2967  0.0705  0.1374
 4041W        W 7785   4.560   2.233   4.255  0.2160 -0.0098  0.3531
 4042W        W 7786   3.508   8.621   1.367  0.2797  0.1223 -0.2340
 4043W        W 7787   7.956   9.632  11.662  0.0923  0.1345  0.1093
 4044W        W 7788   5.875   4.946   2.799 -0.0017  0.0211 -0.0545
 4045W        W 7789   2.230   6.641  11.967  0.1044 -0.1234  0.1345
 4046W        W 7790   9.704   3.573  12.133 -0.0192  0.2909 -0.0852
 4047W        W 7791   6.563   8.747  11.555  0.3231  0.0422  0.0574
 4048W        W 7792   3.411   3.428  11.382 -0.0554  0.1917  0.1024
 4049W        W 7793   3.771   4.482   0.400  0.0588 -0.0433  0.1140
 4050W        W 7794   7.362   6.364   1.850  0.1961  0.1814 -0.0888
 4051W        W 7795   9.000   7.016   8.679 -0.1138 -0.0980 -0.1207
 4052W        W 7796   6.584   3.543   3.226 -0.0322  0.0853 -0.2733
 4053W        W 7797   1.905   5.982   9.399  0.3708 -0.0638 -0.1565
 4054W        W 7798   4.240   5.803   1.377  0.1435  0.1669  0.0722
 4055W        W 7799   2.032   9.022   9.734  0.1240 -0.0307 -0.1316
 4056W        W 7800   5.953   6.024   9.569  0.0327  0.0866 -0.2184
 4057W        W 7801   8.718   4.350   1.790  0.0728  0.0399  0.0686
 4058W        W 7802   4.356   1.229  10.958 -0.2479 -0.0346 -0.2330
 4059W        W 7803   9.659   0.831   3.733  0.4333 -0.1525 -0.0255
 4060W        W 7804   2.422   7.645  10.908  0.0862  0.1154 -0.2135
 4061W        W 7805   7.318   2.574   2.622 -0.2275  0.1995  0.3377
 4062W        W 7806   6.269   1.245  10.825 -0.0315  0.0230 -0.1210
 4063W        W 7807   5.463   1.787   3.654  0.1086 -0.0845  0.0315
 4064W        W 7808   2.214   0.859   1.636  0.0021 -0.2366 -0.0733
 4065W        W 7809   4.897   9.493   1.763 -0.0701  0.1205  0.0343
 4066W        W 7810   0.093   2.151   2.683  0.1342 -0.3101  0.1437
 4067W        W 7811   3.737   3.663  10.300  0.1407 -0.0471  0.0148
 4068W        W 7812   6.517   3.868  12.160 -0.0773  0.0179 -0.0296
 4069W        W 7813   5.575   0.687  11.554 -0.0302 -0.2457  0.2081
 4070W        W 7814   2.006   1.704   3.237  0.1167  0.3228  0.1112
 4071W        W 7815   0.310   9.467   2.301 -0.0831 -0.1945 -0.0162
 4072W        W 7816   2.202   3.091   2.139  0.0381  0.2975  0.0321
 4073W        W 7817   1.034   0.927  12.696  0.0270 -0.2507 -0.0117
 4074W        W 7818   6.439   2.634  11.694 -0.1441  0.2148 -0.0310
 4075W        W 7819   8.527   0.993   1.892  0.0713 -0.0615 -0.3996
 4076W        W 7820   6.542   8.085   0.766 -0.0212 -0.0322 -0.1560
 4077W        W 7821   7.881   3.840   1.431  0.1331  0.1575  0.1064
 4078W        W 7822   8.754   4.681  11.791  0.0587 -0.1692 -0.0386
 4079W        W 7823   0.857   6.386   3.379  0.2226 -0.0164  0.0411
 4080W        W 7824   4.047   9.801  10.266  0.1275 -0.1443 -0.1721
 4081W        W 7825   3.838   9.026   0.545  0.1109 -0.0166  0.0570
 4082W        W 7826   7.500   5.148   1.595  0.0431 -0.2972  0.0104
 4083W        W 7827   5.462   5.207  12.825  0.1762  0.2353 -0.0433
 4084W        W 7828   7.514   8.577   8.940 -0.0582 -0.2681 -0.1264
 4085W        W 7829   4.500   2.107   0.178  0.0839 -0.0106  0.3710
 4086W        W 7830   1.883   6.563   1.587 -0.0200  0.0547  0.0465
 4087W        W 7831   6.450   1.778  12.728 -0.2028  0.3281  0.4377
 4088W        W 7832   7.587   7.581   3.820 -0.2140  0.2511 -0.0509
 4089W        W 7833   2.434   9.596   2.349 -0.0773  0.1063  0.0967
 4090W        W 7834   0.665   0.628   9.940  0.2891 -0.2083 -0.0455
 4091W        W 7835   8.638   1.165   4.570 -0.4730  0.1256 -0.1263
 4092W        W 7836   2.431   7.758   2.554 -0.1934  0.3248  0.0681
 4093W        W 7837   8.754   3.637  10.050 -0.0021 -0.0088 -0.0646
 4094W        W 7838   1.069   4.200  11.879  0.3193 -0.4085  0.0423
 4095W        W 7839   2.132   6.239   1.260 -0.0054 -0.1800  0.3814
 4096W        W 7840   9.857   3.267   1.003  0.0863 -0.2191  0.0962
 4097W        W 7841   7.320   3.274   4.886 -0.2095  0.1416  0.0591
 4098W        W 7842   6.013   9.579   9.518 -0.2184 -0.5074  0.0538
 4099W        W 7843   5.624   4.489   2.924  0.2535  0.0643  0.2405
 4100W        W 7844   2.522   5.494  11.899 -0.0703 -0.1141 -0.3208
 4101W        W 7845   1.584   2.334  12.580 -0.1360  0.2159 -0.0077
 4102W        W 7846   4.629   6.475  12.633  0.1234 -0.0592  0.1973
 4103W        W 7847   6.675   4.895   0.691 -0.0486 -0.0331  0.0235
 4104W        W 7848   7.722   6.453   3.371 -0.0847  0.0848  0.0235
 4105W        W 7849   8.702   9.472   9.641 -0.0133 -0.0064 -0.0938
 4106W        W 7850   5.062   5.917   0.477  0.1207 -0.0850  0.1496
 4107W        W 7851   0.610   1.111   3.294  0.2414  0.1027  0.2036
 4108W        W 7852   8.836   0.869   9.400 -0.1637 -0.0746 -0.0209
 4109W        W 7853   6.969   8.094  12.086  0.0640  0.2484  0.3661
 4110W        W 7854   4.351   0.631  11.433 -0.1290 -0.0940  0.0746
 4111W        W 7855   6.811   5.588  10.957  0.3456 -0.0556  0.2124
 4112W        W 7856   6.871   5.882  11.632 -0.1124 -0.1436 -0.0724
 4113W        W 7857   2.349   8.021  12.118 -0.0112  0.0217  0.0005
 4114W        W 7858   8.706   2.075   3.815 -0.0167 -0.2488  0.3329
 4115W        W 7859   6.046   8.769  12.209 -0.0027 -0.2394  0.0998
 4116W        W 7860   3.252   9.288  12.608 -0.2713 -0.0723 -0.2105
 4117W        W 7861   1.728   0.296  10.231 -0.0224  0.0073  0.2058
 4118W        W 7862   8.158   6.964  10.825 -0.0851 -0.2142  0.2098
 4119W        W 7863   0.653   1.333   9.629 -0.1637  0.3324 -0.0041
 4120W        W 7864   1.825   3.803   0.689  0.0827  0.1456  0.0307
 4121W        W 7865   6.285   9.518  10.267 -0.3479 -0.2258  0.1806
 4122W        W 7866   7.555   1.526   1.866 -0.5242 -0.1224  0.0734
 4123W        W 7867   9.011   6.142   3.028 -0.0987 -0.3071 -0.1154
 4124W        W 7868   6.267   5.659   1.890  0.2441 -0.0231 -0.2052
 4125W        W 7869   0.120   9.545   9.221 -0.2167  0.1067  0.1053
 4126W        W 7870   7.577   8.371   0.356  0.0800  0.0170 -0.2200
 4127W        W 7871   2.334   6.854   2.591 -0.2039  0.0925 -0.0943
 4128W        W 7872   1.965   5.002   9.566  0.4895 -0.4094  0.1500
 4129W        W 7873   6.283   5.841   9.220 -0.2261 -0.0809  0.1089
 4130W        W 7874   9.805   0.379  11.488 -0.0122 -0.1108 -0.1054
 4131W        W 7875   0.820   1.146   2.373 -0.2057  0.2807 -0.2706
 4132W        W 7876   3.235   6.456  11.316  0.0596 -0.1606 -0.1787
 4133W        W 7877   8.731   7.632  12.715  0.3618 -0.3480  0.0979
 4134W        W 7878   2.649   4.642   1.694  0.0551 -0.1058  0.0625
 4135W        W 7879   3.479   4.859  12.431 -0.0035  0.1783  0.3865
 4136W        W 7880   9.898   0.417   2.515  0.3064 -0.1711  0.4247
 4137W        W 7881   5.409   4.354   1.605  0.0139 -0.1343  0.0556
 4138W        W 7882   3.449   4.354   8.841  0.0105  0.0089  0.1239
 4139W        W 7883   3.140   6.951   9.722 -0.0037 -0.2557 -0.1572
 4140W        W 7884   2.942   9.403  10.919  0.2767 -0.1775 -0.0660
 4141W        W 7885   6.280   0.763   8.947 -0.0529 -0.0784 -0.0977
 4142W        W 7886   8.980   0.410   2.375 -0.2994 -0.3265 -0.1222
 4143W        W 7887   2.137   2.722   1.815 -0.0737 -0.2065 -0.0880
 4144W        W 7888   2.478   4.820   9.391 -0.2876  0.0951 -0.0657
 4145W        W 7889   3.465   5.276   3.999  0.0741  0.0181  0.0331
 4146W        W 7890   3.499   4.900   1.776 -0.0041  0.0460 -0.0549
 4147W        W 7891   7.944   1.237   1.769 -0.2283  0.0602  0.2728
 4148W        W 7892   4.821   4.853   2.494  0.3268 -0.3568  0.0005
 4149W        W 7893   4.752   8.165  12.456  0.0286  0.2989  0.1074
 4150W        W 7894   3.898   2.197  11.732 -0.1150  0.0564 -0.2666
 4151W        W 7895   1.685   2.307   9.525 -0.0230  0.0089  0.1379
 4152W        W 7896   9.655   2.414   5.574  0.0770 -0.0581 -0.3144
 4153W        W 7897   7.984   0.322   3.615 -0.0012 -0.1384  0.0154
 4154W        W 7898   0.742   9.181  11.467  0.5984  0.0667 -0.0762
 4155W        W 7899   7.063   7.590  10.022 -0.0112 -0.1574 -0.4770
 4156W        W 7900   7.634   8.650   3.495  0.0590 -0.1705 -0.1439
 4157W        W 7901   7.402   3.614   2.646 -0.0221 -0.2070  0.1837
 4158W        W 7902   0.168   3.267   9.108 -0.0070 -0.1726  0.1620
 4159W        W 7903   7.921   5.649   0.700  0.2483  0.3916  0.2319
 4160W        W 7904   1.897   0.678  12.923  0.2637 -0.2763  0.0530
 4161W        W 7905   7.242   2.791   4.905  0.0669 -0.0507  0.1553
 4162W        W 7906   3.776   0.125   9.184 -0.0522 -0.1304 -0.0622
 4163W        W 7907   4.742   3.674   0.152  0.2723  0.0878  0.0927
 4164W        W 7908   5.835   3.044   1.675  0.1592 -0.2445 -0.1903
 4165W        W 7909   0.507   3.916  12.213  0.2705  0.0688  0.0836
 4166W        W 7910   4.667   7.612  12.431  0.0015 -0.2529 -0.0430
 4167W        W 7911   9.291   2.748   8.762  0.3209 -0.0475  0.2757
 4168W        W 7912   6.645   1.032   8.663 -0.0894 -0.0103 -0.1951
 4169W        W 7913   9.037   2.404  12.311 -0.0038 -0.0490  0.0194
 4170W        W 7914   1.567   4.801   8.186  0.0895 -0.1794 -0.0988
 4171W        W 7915   6.929   4.597   9.169 -0.2780 -0.0511 -0.1783
 4172W        W 7916   4.273   8.605   2.956  0.2759  0.0154 -0.0856
 4173W        W 7917   5.470   8.497   0.056 -0.2335 -0.1000  0.0957
 4174W        W 7918   1.974   3.840  12.554  0.1584  0.1001 -0.3152
 4175W        W 7919   0.453   0.508   9.446  0.0972 -0.1886 -0.1709
 4176W        W 7920   5.181   2.005  10.209 -0.2763 -0.0370 -0.2029
 4177W        W 7921   1.424   9.088  10.964  0.1772 -0.0108 -0.0509
 4178W        W 7922   7.878   4.205   0.072 -0.1950 -0.0355 -0.1552
 4179W        W 7923   1.328   7.472   1.455  0.2084 -0.0760  0.0785
 4180W        W 7924   8.809   5.045   3.520  0.0417 -0.0256  0.1688
 4181W        W 7925   1.374   5.693   3.520 -0.4769 -0.2567 -0.1608
 4182W        W 7926   7.824   0.025   1.019  0.0311 -0.0667  0.0516
 4183W        W 7927   5.713   6.479   0.542 -0.0326 -0.0996  0.5289
 4184W        W 7928   1.244   5.027   2.892 -0.0260 -0.1298  0.0762
 4185W        W 7929   9.431   4.062   0.048  0.0395 -0.3532  0.1987
 4186W        W 7930   0.073   1.622   1.850  0.1326  0.0865  0.3139
 4187W        W 7931   4.531   5.772  10.008 -0.1069  0.0714  0.3653
 4188W        W 7932   1.382   2.925   2.771  0.2658 -0.1040 -0.2799
 4189W        W 7933   7.277   2.127   2.099  0.1303  0.2481 -0.2553
 4190W        W 7934   0.277   8.183   1.064  0.4438 -0.5081 -0.0182
 4191W        W 7935   3.809   1.311  12.472  0.0017  0.1284  0.3860
 4192W        W 7936   9.814   0.924   4.694  0.0048 -0.0548  0.1819
 4193W        W 7937   5.828   2.880   3.209 -0.1401 -0.0159 -0.1207
 4194W        W 7938   6.921   5.875   3.579  0.0671  0.0549 -0.0108
 4195W        W 7939   1.927   7.094   1.486  0.0174  0.1140  0.3392
 4196W        W 7940   0.989   0.785   4.047  0.0882 -0.2855  0.0910
 4197W        W 7941   0.073   6.396   4.199  0.2184 -0.2005 -0.3855
 4198W        W 7942   9.551   8.252   9.948 -0.2567 -0.1328 -0.0354
 4199W        W 7943   0.855   4.911  12.257 -0.1519 -0.1816 -0.1400
 4200W        W 7944   7.746   0.985  10.254  0.1704  0.1741 -0.1349
 4201W        W 7945   8.102   9.008   4.755  0.4921  0.2682 -0.0934
 4202W        W 7946   1.671   0.690   3.340  0.3555  0.1248 -0.1213
 4203W        W 7947   7.379   7.834   9.157 -0.2277  0.0760  0.4171
 4204W        W 7948   1.802   4.978   2.172 -0.0135  0.0336 -0.2501
 4205W        W 7949   9.625   2.580  11.939  0.0162  0.2006  0.0515
 4206W        W 7950   9.204   7.446   2.076  0.3300  0.2601  0.0194
 4207W        W 7951   8.593   9.445   1.932 -0.1683 -0.3055  0.0277
 4208W        W 7952   9.846   5.764   2.727  0.0425  0.0519 -0.1350
 4209W        W 7953   0.370   8.750   3.905  0.0158  0.0027 -0.3191
 4210W        W 7954   4.160   4.022  10.286 -0.1316  0.0499 -0.2971
 4211W        W 7955   2.909   4.794   0.579  0.1023 -0.1380 -0.0888
 4212W        W 7956   9.672   8.244   0.769 -0.2622 -0.1358  0.0499
 4213W        W 7957   9.749   4.377  11.713  0.1828 -0.2050 -0.0307
 4214W        W 7958   1.962   0.156   0.055 -0.3434 -0.0143  0.1301
 4215W        W 7959   8.012   4.222   2.922  0.0904  0.1493  0.5103
 4216W        W 7960   3.625   1.252   2.065 -0.0390  0.1590  0.2668
 4217W        W 7961   5.189   5.047   1.021  0.1334  0.0668 -0.2598
 4218W        W 7962   3.777   1.291   9.811  0.4002  0.1256 -0.2467
 4219W        W 7963   9.250   0.834   9.143 -0.2035  0.3011 -0.0019
 4220W        W 7964   0.248   1.613  11.358  0.0451 -0.0699 -0.1399
 4221W        W 7965   2.055   5.944   8.934  0.0478 -0.0795 -0.1122
 4222W        W 7966   1.314   4.917  11.306  0.1295 -0.0525 -0.1970
 4223W        W 7967   9.001   1.304   0.454  0.4354  0.4851  0.2165
 4224W        W 7968   3.849   7.434   9.217 -0.5128 -0.0161 -0.1167
 4225W        W 7969   8.546   5.506   1.981 -0.2205  0.0917 -0.2770
 4226W        W 7970   6.306   3.853   0.915  0.1066  0.1385  0.0568
 4227W        W 7971   2.970   5.968   3.636  0.0946 -0.0194  0.2051
 4228W        W 7972   0.558   4.348   3.232  0.1095 -0.2480 -0.0924
 4229W        W 7973   6.298   5.133   3.447 -0.3714 -0.0683  0.1796
 4230W        W 7974   2.481   9.633  10.268 -0.0273 -0.1338 -0.0182
 4231W        W 7975   3.561   4.494   3.793  0.1550  0.1481  0.1993
 4232W        W 7976   4.757   3.130   0.098 -0.3204 -0.0985 -0.1304
 4233W        W 7977   9.319   7.145   0.906  0.1433  0.3127  0.2245
 4234W        W 7978   3.211   1.490  10.345  0.1589 -0.0677  0.1843
 4235W        W 7979   6.529   8.467  10.549  0.0420  0.0468  0.1612
 4236W        W 7980   3.287   7.896   9.779  0.0023  0.1944  0.1403
 4237W        W 7981   9.278   8.986  10.734 -0.1722 -0.0258 -0.0401
 4238W        W 7982   8.428   8.889   0.775 -0.0439 -0.2163  0.2683
 4239W        W 7983   1.266   5.558   4.281  0.0494 -0.0424  0.0748
 4240W        W 7984   1.243   5.144  10.811 -0.0910  0.3642  0.1247
 4241W        W 7985   0.934   5.667   9.636 -0.0468 -0.1580 -0.1582
 4242W        W 7986   0.156   8.177   9.822 -0.0572  0.2341  0.0505
 4243W        W 7987   8.281   7.899   2.180 -0.5102  0.2777 -0.5383
 4244W        W 7988   6.260   0.600   2.148 -0.4345  0.0425  0.2531
 4245W        W 7989   3.411   6.469   1.520 -0.0857 -0.0382 -0.1221
 4246W        W 7990   5.792   0.441   2.218 -0.1361  0.0969  0.0761
 4247W        W 7991   4.665   6.190   0.035 -0.3003  0.1747 -0.1382
 4248W        W 7992   1.654   3.017  10.034  0.2952 -0.1433  0.0371
 4249W        W 7993   9.795   9.654   0.893 -0.0326  0.3706  0.0718
 4250W        W 7994   2.087   9.840   0.507  0.1227  0.1504 -0.2350
 4251W        W 7995   8.019   9.336   3.799 -0.1298  0.2653  0.2128
 4252W        W 7996   3.517   8.383   0.590  0.2095 -0.0061 -0.0993
 4253W        W 7997   6.853   6.492   1.795 -0.0864  0.0599  0.0273
 4254W        W 7998   2.195   4.194  10.151 -0.0315 -0.2161 -0.1560
 4255W        W 7999   3.577   7.267   2.919  0.1929  0.3153 -0.2611
 4256W        W 8000   2.329   5.395   3.734  0.2329  0.0541  0.0650
 4257W        W 8001   3.322   2.899   2.052  0.3051 -0.1348 -0.0015
 4258W        W 8002   4.800   9.618  12.899 -0.0893 -0.0790  0.3136
 4259W        W 8003   6.656   0.712   1.735  0.3876 -0.1581 -0.3238
 4260W        W 8004   1.324   6.871  12.651  0.0493  0.2501 -0.0831
 4261W        W 8005   6.064   7.691   2.579 -0.0523 -0.1253 -0.3639
 4262W        W 8006   8.061   7.858  10.704  0.1515  0.2871  0.0834
 4263W        W 8007   3.087   1.520   0.771 -0.1908  0.0567 -0.3828
 4264W        W 8008   3.658   9.612   1.551  0.1595  0.0325 -0.2354
 4265W        W 8009   0.664   3.009   2.683 -0.4530 -0.0033 -0.0533
 4266W        W 8010   3.610   7.314  11.155  0.1449  0.3326 -0.0600
 4267W        W 8011   8.854   8.564   8.587 -0.0362  0.1181  0.1114
 4268W        W 8012   3.794   0.222  12.178  0.0847  0.1345  0.0147
 4269W        W 8013   9.592   5.443   3.064 -0.0503 -0.4054  0.0315
 4270W        W 8014   9.408   1.273   4.106  0.1373  0.0120  0.0422
 4271W        W 8015   9.239   4.428   4.739 -0.0874  0.0899 -0.0614
 4272W        W 8016   7.601   5.289  11.392 -0.1491  0.1685 -0.2456
 4273W        W 8017   9.881   4.577  12.273 -0.1451 -0.2839 -0.1993
 4274W        W 8018   7.022   1.361   2.721 -0.1092  0.0648  0.0055
 4275W        W 8019   9.712   6.045  12.014  0.1054  0.2371  0.1087
 4276W        W 8020   3.000   8.423   9.105 -0.1251  0.3360  0.1428
 4277W        W 8021   0.197   1.108   0.681 -0.2465  0.1249  0.0235
 4278W        W 8022   1.136   6.715   3.739  0.2462 -0.0617 -0.1433
 4279W        W 8023   9.760   5.638  12.329  0.4248 -0.3071 -0.1377
 4280W        W 8024   7.337   7.642   1.927  0.0287 -0.0377 -0.0237
 4281W        W 8025   5.590   2.942  11.279 -0.0953 -0.0836 -0.0006
 4282W        W 8026   1.899   0.443   8.881 -0.2879 -0.0052  0.3493
 4283W        W 8027   4.021   2.895   2.337 -0.1734  0.1961 -0.0315
 4284W        W 8028   6.833   2.524   9.428  0.2122  0.2618 -0.0452
 4285W        W 8029   0.780   8.255  12.778  0.1565 -0.1187  0.1930
 4286W        W 8030   0.832   0.085   3.183  0.0431 -0.1068  0.0198
 4287W        W 8031   8.129   1.534  11.931  0.2530  0.2178 -0.0796
 4288W        W 8032   4.029   3.228   5.794  0.3134  0.0148  0.0151
 4289W        W 8033   1.135   2.295  11.645  0.0248 -0.2867 -0.0107
 4290W        W 8034   8.005   1.282   1.236  0.1655 -0.1448  0.3018
 4291W        W 8035   4.698   1.639  10.797 -0.0110  0.1171  0.1892
 4292W        W 8036   9.214   7.202  10.651  0.0385  0.0642  0.1888
 4293W        W 8037   8.395   7.745   0.107 -0.1034  0.1629  0.0476
 4294W        W 8038   4.370   5.456  11.915  0.3202 -0.0838 -0.0346
 4295W        W 8039   3.481   1.843   9.987 -0.1521  0.0826  0.0350
 4296W        W 8040   6.052   1.787  11.909  0.0919  0.4606  0.2231
 4297W        W 8041   1.967   5.642  10.772 -0.3771 -0.3892  0.1681
 4298W        W 8042   5.000   2.064   8.428 -0.1250  0.1614 -0.2534
 4299W        W 8043   2.871   4.129   1.872  0.1179  0.0407  0.0413
 4300W        W 8044   1.752   7.273   4.836  0.2298 -0.2549  0.0103
 4301W        W 8045   7.672   8.918  12.717 -0.3463 -0.0524 -0.2949
 4302W        W 8046   9.896   3.542   0.032  0.2650 -0.2200 -0.2329
 4303W        W 8047   1.770   3.487   4.746 -0.0460 -0.1860  0.2773
 4304W        W 8048   0.453   2.969  11.986 -0.0710  0.1395  0.4390
 4305W        W 8049   5.377   1.952   0.589 -0.2805  0.1268 -0.0983
 4306W        W 8050   1.216   8.256   2.897  0.1152 -0.2863  0.0468
 4307W        W 8051   2.948   0.408  12.425 -0.0300 -0.1180  0.3310
 4308W        W 8052   8.631   2.331   0.025  0.0196  0.1744 -0.2197
 4309W        W 8053   3.944   2.624  11.452  0.1054 -0.0788 -0.3183
 4310W        W 8054   6.418   0.371  12.269  0.0048 -0.0868 -0.1148
 4311W        W 8055   0.509   0.276   2.865  0.0291 -0.3879  0.0817
 4312W        W 8056   7.806   1.866   3.001 -0.1910  0.0236 -0.3631
 4313W        W 8057   4.026   0.376  10.233 -0.2887 -0.0809 -0.0568
 4314W        W 8058   0.287   3.963  10.014 -0.2013  0.0204  0.5214
 4315W        W 8059   5.110   0.783  11.414  0.0439  0.1465  0.0769
 4316W        W 8060   3.693   4.188  11.628  0.2005  0.2864  0.2413
 4317W        W 8061   0.264   9.835   4.516 -0.0371 -0.0639 -0.1070
 4318W        W 8062   6.133   4.284   9.452 -0.1633  0.2691  0.0593
 4319W        W 8063   7.496   6.870  10.312  0.0949  0.0317 -0.1263
 4320W        W 8064   4.592   0.683   0.271 -0.0966  0.1302 -0.0016
 4321W        W 8065   9.344   2.196   0.530  0.4888  0.2837  0.0191
 4322W        W 8066   7.657   6.504  11.055 -0.0492 -0.1235  0.1654
 4323W        W 8067   3.845   0.619  11.905  0.0117 -0.1349 -0.2610
 4324W        W 8068   7.143   8.407   1.394 -0.4430  0.0537 -0.1884
 4325W        W 8069   2.186   8.049   0.580  0.1678  0.2068 -0.2584
 4326W        W 8070   7.059   7.590   0.360 -0.1326 -0.1055 -0.1525
 4327W        W 8071   5.166   4.657   4.101 -0.2589 -0.1373  0.1111
 4328W        W 8072   4.828   4.428   3.296 -0.0008 -0.1706  0.2769
 4329W        W 8073   6.667   1.864   3.791 -0.3433  0.0076 -0.1344
 4330W        W 8074   2.770   3.599   1.801  0.2708 -0.0710  0.0510
 4331W        W 8075   1.064   0.515  12.462  0.0441 -0.1804  0.0371
 4332W        W 8076   8.599   8.302  11.040  0.0798 -0.2567 -0.1468
 4333W        W 8077   1.572   4.047   0.115  0.2977  0.1704  0.1734
 4334W        W 8078   1.312   6.426   3.208 -0.0333  0.2101  0.2370
 4335W        W 8079   5.231   7.711   1.172 -0.0924 -0.1986 -0.0782
 4336W        W 8080   2.464   1.641   0.756  0.2456 -0.1200 -0.0183
 4337W        W 8081   4.113   3.159   3.351 -0.5767  0.3103  0.0219
 4338W        W 8082   9.852   2.400  12.860  0.0563  0.1617 -0.0118
 4339W        W 8083   3.335   4.694   3.168 -0.1773  0.1955  0.2244
 4340W        W 8084   5.133   4.025  12.786 -0.0294 -0.0881  0.0313
 4341W        W 8085   3.208   0.573  12.916  0.0115  0.2253  0.0123
 4342W        W 8086   1.907   2.088  10.603 -0.1131 -0.1785  0.1476
 4343W        W 8087   1.764   7.323   1.097 -0.2042  0.2098  0.1784
 4344W        W 8088   5.480   9.649  11.419  0.2089  0.1619  0.0019
 4345W        W 8089   6.062   3.881   9.081  0.0893 -0.0225  0.0617
 4346W        W 8090   1.287   4.860  12.530  0.0339  0.1259 -0.0629
 4347W        W 8091   5.178   3.891   3.711 -0.0413  0.3073  0.0683
 4348W        W 8092   9.801   8.534   9.504  0.0916 -0.2559  0.0766
 4349W        W 8093   6.718   5.289   3.220 -0.1912 -0.3293  0.0880
 4350W        W 8094   8.396   8.759   4.028 -0.1686 -0.1186  0.0732
 4351W        W 8095   4.170   7.659  11.781 -0.3693 -0.1035  0.3462
 4352W        W 8096   2.022   8.468   9.217 -0.0395 -0.0984 -0.0449
 4353W        W 8097   7.084   7.181  11.791  0.2731 -0.0812 -0.0306
 4354W        W 8098   1.441   1.480   2.813  0.0643  0.0070  0.0738
 4355W        W 8099   1.268   6.084  11.302  0.2044  0.4139  0.0803
 4356W        W 8100   0.521   3.730   2.026  0.2627 -0.0965  0.0129
 4357W        W 8101   2.607   6.133   0.993  0.0622 -0.0539 -0.0847
 4358W        W 8102   0.127   5.867   9.699  0.2882  0.2655 -0.1463
 4359W        W 8103   6.806   0.468  10.169 -0.1341 -0.1336 -0.2470
 4360W        W 8104   8.716   7.372   1.926  0.1484 -0.0142  0.0492
 4361W        W 8105   1.551   8.782  10.546 -0.1898  0.2683 -0.3428
 4362W        W 8106   3.707   1.702   2.215 -0.1553  0.0690  0.1160
 4363W        W 8107   6.345   5.905   1.263 -0.2319 -0.2427  0.2174
 4364W        W 8108   8.324   0.702   3.770  0.1043  0.1613  0.2310
 4365W        W 8109   8.588   7.934  10.663 -0.0533 -0.1039  0.2096
 4366W        W 8110   4.836   1.903  12.282 -0.0155 -0.0169 -0.3407
 4367W        W 8111   9.364   6.690   2.283 -0.0509 -0.0427 -0.0687
 4368W        W 8112   8.447   6.141   3.025 -0.0888 -0.0696 -0.1308
 4369W        W 8113   2.534   2.506  11.960 -0.4098  0.0031 -0.2229
 4370W        W 8114   7.216   6.626   1.437 -0.2508  0.2183 -0.1809
 4371W        W 8115   1.470   7.313   9.495 -0.0841 -0.0363 -0.3281
 4372W        W 8116   3.599   5.501   8.988 -0.1880 -0.1471  0.0331
 4373W        W 8117   8.888   8.829   0.599 -0.1383  0.0824  0.2784
 4374W        W 8118   8.764   0.349   1.293 -0.0685  0.1736 -0.0416
 4375W        W 8119   3.480   1.802  11.638 -0.0450  0.0939  0.1969
 4376W        W 8120   7.884   2.816   3.298  0.1152 -0.2706  0.2721
 4377W        W 8121   9.878   3.221   1.519  0.0595  0.0553 -0.2708
 4378W        W 8122   7.571   5.606   2.349 -0.0214  0.1557 -0.2653
 4379W        W 8123   2.011   2.071   1.222 -0.3209  0.2023 -0.0711
 4380W        W 8124   0.734   6.213   2.300  0.1244 -0.0277  0.0835
 4381W        W 8125   4.836   6.767   0.748  0.1586 -0.0050 -0.1635
 4382W        W 8126   9.264   2.215  11.541 -0.0622  0.0227 -0.0591
 4383W        W 8127   4.310   3.510  11.102 -0.3806  0.3934  0.0355
 4384W        W 8128   7.613   4.053   0.446 -0.2110  0.1192 -0.1594
 4385W        W 8129   8.366   6.256   3.847 -0.1555  0.3373 -0.0581
 4386W        W 8130   1.938   1.205   0.201 -0.0207  0.0445 -0.0512
 4387W        W 8131   2.089   1.340  12.672 -0.0147 -0.1009  0.5332
 4388W        W 8132   3.515   5.699  10.099 -0.1902 -0.1448  0.0065
 4389W        W 8133   3.448   3.762  12.532 -0.0718  0.0162  0.0654
 4390W        W 8134   8.985   7.814   3.840 -0.1192  0.2615 -0.0193
 4391W        W 8135   3.426   6.038   1.890  0.0998 -0.3793  0.0539
 4392W        W 8136   7.168   3.412   1.419 -0.1142  0.0922 -0.0537
 4393W        W 8137   1.310   4.669  11.970  0.2285  0.0756  0.0750
 4394W        W 8138   5.182   2.271   1.183 -0.0864  0.1051 -0.0005
 4395W        W 8139   9.562   6.821   2.718  0.1036 -0.1955 -0.3921
 4396W        W 8140   1.257   7.016   4.795 -0.0399  0.0453  0.0506
 4397W        W 8141   0.322   1.839   0.473 -0.3219 -0.0520 -0.3934
 4398W        W 8142   1.419   3.427  10.091  0.2089 -0.0013 -0.2805
 4399W        W 8143   6.818   3.175   1.855  0.3131 -0.0369 -0.0277
 4400W        W 8144   5.747   2.905   4.924 -0.0622  0.0170  0.0537
 4401W        W 8145   3.178   2.901   9.174  0.3359  0.4505 -0.3450
 4402W        W 8146   6.828   8.870  12.449  0.1578  0.2986 -0.2238
 4403W        W 8147   9.167   3.024  10.150  0.1895 -0.0489 -0.3233
 4404W        W 8148   5.159   3.971   1.409 -0.2243  0.0103 -0.1785
 4405W        W 8149   6.244   1.517   9.507 -0.2243  0.2494 -0.0456
 4406W        W 8150   8.910   2.369  11.122 -0.0058  0.1224  0.2302
 4407W        W 8151   9.107   4.053  10.043 -0.4185 -0.4459 -0.1072
 4408W        W 8152   9.717   0.806   0.475  0.0475 -0.0043  0.0865
 4409W        W 8153   0.139   3.815   2.581 -0.0160 -0.3410  0.0618
 4410W        W 8154   3.492   4.661   0.790 -0.0338 -0.1181  0.1601
 4411W        W 8155   9.191   1.148   1.415  0.1129  0.1344 -0.0014
 4412W        W 8156   6.972   8.431  12.542 -0.3408 -0.0198 -0.1094
 4413W        W 8157   1.063   4.825   0.843  0.0423 -0.0720 -0.4316
 4414W        W 8158   7.312   0.655   0.741  0.0800 -0.0105 -0.0180
 4415W        W 8159   4.405   3.858   8.968 -0.0733 -0.0604  0.0753
 4416W        W 8160   7.276   9.125   3.434 -0.1698  0.5531  0.1903
 4417W        W 8161   1.591   6.142   8.989  0.1287 -0.3140 -0.0031
 4418W        W 8162   2.676   1.371   9.068  0.1603  0.2999  0.2054
 4419W        W 8163   8.237   0.744   0.535 -0.1049 -0.0919  0.4232
 4420W        W 8164   2.376   4.464   2.948  0.2891  0.3004 -0.0214
 4421W        W 8165   8.221   0.941   4.794  0.1200  0.1837 -0.1402
 4422W        W 8166   7.117   9.137   0.290  0.1755 -0.2161  0.0893
 4423W        W 8167   6.288   3.828  11.189  0.1125 -0.2419 -0.0825
 4424W        W 8168   3.470   8.254   0.088  0.2039 -0.3485 -0.3271
 4425W        W 8169   4.525   8.960  10.373  0.1214  0.0179 -0.0952
 4426W        W 8170   4.252   7.034  11.881  0.0738  0.0316 -0.2824
 4427W        W 8171   0.533   5.452   3.329 -0.2426  0.2050 -0.0966
 4428W        W 8172   8.796   2.889  12.340  0.1321  0.1355 -0.1157
 4429W        W 8173   8.243   9.268  12.522 -0.1447  0.2194 -0.0473
 4430W        W 8174   3.031   2.369  11.984  0.0059 -0.3934 -0.3023
 4431W        W 8175   1.050   9.693   3.983  0.2349 -0.1118 -0.1903
 4432W        W 8176   1.811   7.605   1.505  0.0532  0.0585 -0.3374
 4433W        W 8177   7.930   8.020   0.251 -0.0535  0.4160 -0.0002
 4434W        W 8178   2.463   6.607   1.075  0.2256 -0.1175 -0.0591
 4435W        W 8179   4.756   3.964  11.115 -0.0130 -0.1293  0.4406
 4436W        W 8180   7.939   2.953   4.009 -0.2111  0.0072 -0.1571
 4437W        W 8181   3.549   0.835  11.150  0.0379 -0.1455  0.0174
 4438W        W 8182   1.753   0.435   1.693  0.1108  0.1542  0.2902
 4439W        W 8183   8.446   1.439   1.264 -0.0652  0.2343  0.1562
 4440W        W 8184   1.739   9.788   1.581  0.3280  0.1494  0.3308
 4441W        W 8185   9.429   3.900   2.077  0.2383  0.1114 -0.0595
 4442W        W 8186   1.824   9.725  12.060 -0.0431  0.1146  0.0355
 4443W        W 8187   1.166   7.755   3.011  0.1101  0.1414 -0.0887
 4444W        W 8188   1.078   0.830   1.126  0.0758  0.1301  0.3585
 4445W        W 8189   4.749   8.572  11.934  0.2664 -0.0784  0.1864
 4446W        W 8190   7.554   0.671   3.858  0.0626  0.0183 -0.2010
 4447W        W 8191   6.648   7.447  10.975  0.3779  0.4825 -0.0167
 4448W        W 8192   0.912   6.867  12.376  0.2038 -0.1937 -0.0104
 4449W        W 8193   8.036   3.232  10.393  0.0053  0.2060 -0.1627
 4450W        W 8194   8.206   4.491  11.653  0.1039  0.1080 -0.0837
 4451W        W 8195   8.638   8.424  11.759 -0.4196 -0.1156  0.1632
 4452W        W 8196   4.204   7.645  12.672 -0.0356  0.0789 -0.0081
 4453W        W 8197   9.293   5.372   4.187 -0.0442 -0.1053 -0.1956
 4454W        W 8198   0.602   6.583   0.642 -0.0000 -0.0635 -0.2649
 4455W        W 8199   2.039   5.788   3.116 -0.3495 -0.1388 -0.0462
 4456W        W 8200   8.254   6.296   9.894  0.2786 -0.1455  0.0470
 4457W        W 8201   4.911   8.279   2.532  0.2899  0.1000  0.1418
 4458W        W 8202   6.069   0.975   1.328  0.1199 -0.0295  0.1337
 4459W        W 8203   1.944   2.755  12.593 -0.2881 -0.0988 -0.1760
 4460W        W 8204   7.716   1.201   3.686  0.0503 -0.2838  0.0836
 4461W        W 8205   1.987   7.994   9.235 -0.0243 -0.1035  0.2242
 4462W        W 8206   1.516   9.212   1.330 -0.0039  0.2869 -0.2812
 4463W        W 8207   2.559   5.153   0.281 -0.1894 -0.1735 -0.0433
 4464W        W 8208   9.733   3.369  10.664 -0.2205  0.0591  0.1727
 4465W        W 8209   2.389   6.125  10.866  0.1444 -0.1762  0.1682
 4466W        W 8210   1.161   9.255   4.164 -0.1348 -0.0171 -0.0096
 4467W        W 8211   9.853   8.874   5.053  0.2003 -0.2720  0.3386
 4468W        W 8212   3.821   7.196   0.421 -0.0206 -0.4466 -0.1953
 4469W        W 8213   6.448   0.333  10.531  0.3300  0.2616  0.1208
 4470W        W 8214   0.814   5.434   1.665  0.0686  0.2456 -0.0305
 4471W        W 8215   7.375   2.895   9.910  0.1198  0.1185  0.0831
 4472W        W 8216   0.622   1.619   4.369  0.2738  0.1880  0.4883
 4473W        W 8217   9.773   1.849   3.072 -0.2847  0.1011  0.1835
 4474W        W 8218   0.644   8.573  11.679  0.0677  0.1110  0.3136
 4475W        W 8219   0.659   7.921   0.946 -0.3133  0.2793 -0.1299
 4476W        W 8220   3.644   8.849  10.882 -0.0000 -0.1242 -0.3254
 4477W        W 8221   0.856   6.311  11.208  0.0720  0.3564  0.1994
 4478W        W 8222   1.139   7.277   3.902 -0.0812  0.0299  0.0315
 4479W        W 8223   6.003   3.470  10.795  0.1561  0.0236 -0.2289
 4480W        W 8224   5.238   9.865  12.808 -0.0922 -0.0510  0.0838
 4481W        W 8225   7.455   0.363  11.282 -0.1954  0.5410  0.0755
 4482W        W 8226   1.130   9.075   2.803 -0.3275  0.1498 -0.0037
 4483W        W 8227   9.725   6.678   9.482 -0.1325  0.2841 -0.0585
 4484W        W 8228   0.601   9.155   1.156  0.0198 -0.3700  0.0166
 4485W        W 8229   7.122   9.088  10.891  0.0553  0.4589  0.4286
 4486W        W 8230   7.686   4.525   9.778  0.1859 -0.3100  0.4598
 4487W        W 8231   4.246   8.606   5.673 -0.0682  0.0944  0.0649
 4488W        W 8232   8.660   5.549   9.733  0.1288  0.1148  0.1998
 4489W        W 8233   7.316   0.471  10.282  0.0716 -0.1987 -0.0720
 4490W        W 8234   2.488   0.544   4.403  0.4324  0.1860 -0.0382
 4491W        W 8235   8.599   8.568   0.166  0.0123  0.0120 -0.2161
 4492W        W 8236   1.994   7.990   2.441 -0.0264 -0.0181  0.0274
 4493W        W 8237   0.404   9.060   2.618  0.0075  0.1599  0.1587
 4494W        W 8238   4.549   3.355   2.643  0.1946  0.1743 -0.0458
 4495W        W 8239   9.479   8.712   1.918  0.0751 -0.1172  0.0787
 4496W        W 8240   5.015   8.827   9.919 -0.0189  0.1028  0.0569
 4497W        W 8241   6.406   1.220  11.330  0.0312 -0.1188 -0.2606
 4498W        W 8242   2.236   8.569   9.875  0.1699  0.1220  0.0679
 4499W        W 8243   5.593   3.768  12.871  0.2932 -0.0471  0.2398
 4500W        W 8244   4.640   6.455   2.196 -0.0578 -0.0369  0.1556
 4501W        W 8245   2.780   2.233   2.403  0.3036 -0.1646  0.0474
 4502W        W 8246   1.850   0.205   2.179 -0.1041  0.3815  0.0732
 4503W        W 8247   3.327   0.016   0.828 -0.0309 -0.1017 -0.2359
 4504W        W 8248   9.758   5.039   0.040 -0.3737 -0.2815 -0.0261
 4505W        W 8249   0.877   1.595   1.749  0.3411 -0.2568 -0.0342
 4506W        W 8250   8.585   7.263   9.541 -0.0452  0.0227  0.1621
 4507W        W 8251   2.335   2.220   3.461 -0.1569 -0.0496  0.0331
 4508W        W 8252   9.363   0.184   9.433 -0.1310 -0.2479  0.0387
 4509W        W 8253   5.839   4.279   4.514  0.1052  0.1476 -0.2788
 4510W        W 8254   8.895   8.212   3.498 -0.1955 -0.0550 -0.0175
 4511W        W 8255   9.560   5.737   9.743 -0.2856  0.3236  0.1743
 4512W        W 8256   9.158   9.581   3.878  0.0672 -0.1993  0.0032
 4513W        W 8257   3.977   1.236   3.192  0.1266  0.2778  0.0538
 4514W        W 8258   8.109   4.998  11.477 -0.4634  0.3305  0.0462
 4515W        W 8259   9.595   8.429   0.299 -0.0747 -0.1305  0.0074
 4516W        W 8260   0.173   9.584   9.733  0.2106 -0.0944 -0.2967
 4517W        W 8261   3.440   2.451  11.584 -0.1988  0.2957  0.2207
 4518W        W 8262   3.324   7.981   9.221  0.4120  0.0144  0.1473
 4519W        W 8263   6.386   1.342  12.967 -0.0725  0.1003  0.0321
 4520W        W 8264   7.244   1.751   9.698 -0.3714  0.1420 -0.1714
 4521W        W 8265   5.798   1.149   0.549  0.1203 -0.1484 -0.0744
 4522W        W 8266   6.155   7.598   1.507  0.5109 -0.1030  0.0271
 4523W        W 8267   6.465   2.051   4.180  0.4715  0.2306  0.0132
 4524W        W 8268   4.387   3.573  11.672 -0.4437 -0.0864  0.2368
 4525W        W 8269   1.010   8.784   1.192  0.0257 -0.1518  0.1864
 4526W        W 8270   0.231   6.225   8.360  0.1551  0.0099 -0.1426
 4527W        W 8271   6.304   5.687  10.890  0.0298  0.0657 -0.0844
 4528W        W 8272   0.798   4.674   8.723 -0.1101  0.0408 -0.2312
 4529W        W 8273   8.028   8.990  11.067  0.3053 -0.2253  0.1484
 4530W        W 8274   3.553   8.069  11.329  0.1225 -0.0237  0.0434
 4531W        W 8275   5.009   4.389  10.824  0.1862 -0.1065  0.0421
 4532W        W 8276   8.388   4.524   1.219 -0.0181 -0.3886  0.1484
 4533W        W 8277   4.135   5.453   8.270  0.1222  0.1260 -0.0271
 4534W        W 8278   2.516   7.084   4.181  0.2704  0.1219  0.0470
 4535W        W 8279   7.008   1.942  11.657  0.4844  0.0986 -0.0382
 4536W        W 8280   1.715   3.152  11.400  0.1271 -0.0447 -0.0019
 4537W        W 8281   2.109   5.012  11.353  0.3603  0.3054  0.0485
 4538W        W 8282   7.962   7.538   8.763 -0.0840 -0.1335  0.2354
 4539W        W 8283   1.994   9.819  10.532  0.0134 -0.1581  0.1455
 4540W        W 8284   4.632   4.496   0.448  0.1577  0.1740 -0.2418
 4541W        W 8285   2.540   7.087   2.022  0.0824 -0.0233  0.2071
 4542W        W 8286   6.739   6.882   1.496  0.0677  0.2967 -0.0930
 4543W        W 8287   9.803   9.721  10.448 -0.2050 -0.1046 -0.3563
 4544W        W 8288   1.198   3.883   2.667 -0.0588 -0.1577  0.2583
 4545W        W 8289   8.864   8.457   1.680  0.1370 -0.1137 -0.2426
 4546W        W 8290   7.090   1.430   3.967 -0.0144 -0.0577 -0.0933
 4547W        W 8291   4.123   4.031  11.857  0.0190  0.0483 -0.0312
 4548W        W 8292   9.722   3.832   3.823 -0.0507 -0.0325 -0.1312
 4549W        W 8293   5.559   5.109  10.253 -0.2246  0.1627 -0.1428
 4550W        W 8294   6.412   3.180  12.745  0.2521  0.1251  0.1903
 4551W        W 8295   1.451   4.186  12.182 -0.4052 -0.0710  0.3089
 4552W        W 8296   6.457   1.504   1.925  0.1712 -0.0166  0.2240
 4553W        W 8297   3.434   1.975   0.940 -0.0402 -0.0710 -0.2360
 4554W        W 8298   1.145   9.581   2.744  0.3420 -0.2038 -0.0201
 4555W        W 8299   4.800   5.208   1.740  0.2142  0.0012 -0.2633
 4556W        W 8300   8.493   7.708   3.733 -0.1050  0.0419  0.1283
 4557W        W 8301   9.613   2.052   9.218 -0.1947 -0.2261  0.2459
 4558W        W 8302   7.639   7.467   4.470  0.1225  0.0675  0.2843
 4559W        W 8303   9.568   0.676  10.635  0.0363 -0.0468 -0.1481
 4560W        W 8304   5.116   0.461   1.978  0.1141  0.2825 -0.2254
 4561W        W 8305   4.555   2.200   2.685  0.0351 -0.0623  0.3811
 4562W        W 8306   5.313   1.353  12.141  0.1275  0.1097  0.1867
 4563W        W 8307   1.617   9.415   9.825  0.0450 -0.0309  0.0319
 4564W        W 8308   1.135   5.662   1.017  0.0433 -0.1845 -0.1310
 4565W        W 8309   9.055   6.888   9.699 -0.0503 -0.0012  0.0483
 4566W        W 8310   2.742   3.399  11.444 -0.0353 -0.0353 -0.3904
 4567W        W 8311   0.275   6.002   1.274  0.0366 -0.1179 -0.6886
 4568W        W 8312   5.464   9.310  10.113  0.1127  0.3104 -0.1267
 4569W        W 8313   2.736   3.366   4.300  0.3970 -0.1910 -0.1066
 4570W        W 8314   5.154   9.405   9.721  0.2173 -0.0437 -0.2998
 4571W        W 8315   7.297   7.887   2.997 -0.1175  0.0857 -0.1848
 4572W        W 8316   3.704   7.697   2.145 -0.1651 -0.0865  0.1241
 4573W        W 8317   9.448   4.849  10.667 -0.0565  0.0516 -0.0038
 4574W        W 8318   5.182   9.555  10.599  0.0209  0.4099  0.1423
 4575W        W 8319   0.868   2.500   4.589 -0.0291  0.5489 -0.0530
 4576W        W 8320   9.014   6.340  10.217 -0.1397  0.0513 -0.0248
 4577W        W 8321   9.448   3.188   5.454  0.0092  0.3579 -0.0811
 4578W        W 8322   7.813   6.124   1.006 -0.0143  0.4074 -0.2085
 4579W        W 8323   3.710   6.477  11.329 -0.1285 -0.1534  0.1518
 4580W        W 8324   1.206   4.389   2.744 -0.2215  0.2178  0.0454
 4581W        W 8325   7.618   0.964   8.076  0.0929 -0.0645  0.0388
 4582W        W 8326   6.711   5.261   0.328 -0.1328 -0.0267  0.1302
 4583W        W 8327   4.369   1.164   0.320  0.1540  0.0333  0.0378
 4584W        W 8328   6.219   2.617   0.144 -0.2583  0.0128 -0.1867
 4585W        W 8329   3.775   1.709  12.898  0.2532  0.2654 -0.2083
 4586W        W 8330   8.988   6.895  10.246 -0.4750 -0.0899 -0.0878
 4587W        W 8331   9.457   5.316  11.981 -0.0286  0.0567  0.3702
 4588W        W 8332   0.449   3.805   4.026 -0.0179  0.0300 -0.4299
 4589W        W 8333   9.155   0.626  12.242 -0.2064  0.1203  0.3771
 4590W        W 8334   1.784   7.955  10.470  0.0122  0.1312  0.0705
 4591W        W 8335   2.384   0.682   0.820 -0.0801  0.1524 -0.0975
 4592W        W 8336   5.597   8.958  12.488 -0.2211  0.0561 -0.1906
 4593W        W 8337   2.965   4.943   0.033  0.0314  0.1104  0.0249
 4594W        W 8338   2.284   6.441   9.467  0.0269 -0.0127 -0.2266
 4595W        W 8339   5.960   2.162   4.392  0.0224 -0.1524 -0.1257
 4596W        W 8340   7.424   2.819  12.705 -0.0948  0.0578 -0.0701
 4597W        W 8341   5.808   1.115   9.228  0.2055 -0.1408 -0.0290
 4598W        W 8342   5.457   2.956   0.649 -0.1325  0.1059 -0.2950
 4599W        W 8343   8.545   7.048  12.650  0.2080 -0.0109 -0.2249
 4600W        W 8344   6.305   6.280   3.093  0.0245 -0.0498  0.3107
 4601W        W 8345   2.545   2.434   3.881  0.0090 -0.2486 -0.1551
 4602W        W 8346   1.477   1.474   0.090 -0.0481  0.1019 -0.0901
 4603W        W 8347   6.042   8.138  12.804  0.1797  0.1881  0.1194
 4604W        W 8348   8.753   3.734   3.643 -0.1225  0.1140 -0.0319
 4605W        W 8349   8.743   9.339   2.568  0.1461  0.0338  0.1014
 4606W        W 8350   5.362   5.532   9.411  0.1886 -0.2753 -0.3023
 4607W        W 8351   8.071   1.356   9.823 -0.4014 -0.2026 -0.1187
 4608W        W 8352   7.364   8.698  12.318 -0.0598 -0.0861  0.3114
 4609W        W 8353   6.966   0.659  10.615  0.2742 -0.0032  0.1105
 4610W        W 8354   6.885   4.436   0.738  0.2463  0.2091  0.1886
 4611W        W 8355   3.078   4.400   0.890 -0.0842 -0.0003  0.4029
 4612W        W 8356   1.852   3.765   2.690 -0.1472  0.0683 -0.1100
 4613W        W 8357   4.450   5.657  12.457 -0.0320  0.2639  0.2436
 4614W        W 8358   8.279   4.616   1.778  0.1888 -0.2096 -0.1345
 4615W        W 8359   1.024   5.644  10.666  0.1997 -0.1949 -0.2349
 4616W        W 8360   6.636   2.371   3.827  0.2281  0.2872 -0.0944
 4617W        W 8361   2.407   8.221   2.233 -0.1155  0.0626  0.2219
 4618W        W 8362   7.224   1.060   0.478 -0.2040  0.1444 -0.2504
 4619W        W 8363   7.705   7.871  11.106  0.1510 -0.3346 -0.5126
 4620W        W 8364   7.218   5.767   2.086 -0.2818  0.0227  0.3946
 4621W        W 8365   1.268   7.488   2.542  0.0309 -0.0258 -0.3754
 4622W        W 8366   0.017   9.411  11.965  0.1264  0.0101 -0.0383
 4623W        W 8367   2.425   2.699  12.717 -0.2260 -0.1124 -0.0568
 4624W        W 8368   1.087   7.435  11.896  0.0284 -0.0377  0.1076
 4625W        W 8369   3.392   1.790  10.774  0.1987  0.2195  0.3902
 4626W        W 8370   7.499   3.257   3.099  0.0224  0.1635  0.0502
 4627W        W 8371   1.106   4.730   9.559 -0.0403  0.6120 -0.0287
 4628W        W 8372   0.429   2.702  10.717 -0.1979 -0.0508  0.0463
 4629W        W 8373   2.551   2.758   1.570 -0.0747  0.2253 -0.3469
 4630W        W 8374   7.778   6.610  12.103  0.0460  0.3026  0.0428
 4631W        W 8375   7.793   1.370  11.225 -0.1868  0.0196 -0.1544
 4632W        W 8376   9.627   0.063   4.509 -0.0546 -0.2790  0.1891
 4633W        W 8377   8.455   1.055   9.149  0.1083  0.0829 -0.1907
 4634W        W 8378   9.454   4.086   4.328  0.0831  0.1230  0.0032
 4635W        W 8379   4.703   6.704   1.727 -0.0944  0.3162  0.2297
 4636W        W 8380   8.607   4.135  12.536 -0.0015 -0.0692 -0.0122
 4637W        W 8381   2.560   1.011   4.313 -0.2080  0.6236 -0.0505
 4638W        W 8382   9.134   0.151   1.904 -0.1104  0.0980 -0.0797
 4639W        W 8383   8.648   1.390  10.000  0.1709  0.0571 -0.0030
 4640W        W 8384   2.644   4.347   0.529 -0.2506 -0.0001 -0.0055
 4641W        W 8385   9.747   6.315   0.642 -0.0014  0.2420 -0.4230
 4642W        W 8386   3.009   8.909   1.317 -0.0744 -0.1706  0.1334
 4643W        W 8387   0.798   7.223   1.317 -0.0833  0.1262  0.0583
 4644W        W 8388   5.405   4.688  12.959  0.2195 -0.1397 -0.0658
 4645W        W 8389   8.006   3.240   4.373 -0.0975 -0.1794 -0.0590
 4646W        W 8390   2.931   3.440   2.697 -0.0794 -0.2924 -0.0852
 4647W        W 8391   2.482   8.129  11.468 -0.2052  0.1832 -0.3083
 4648W        W 8392   6.912   1.577  10.452  0.1158 -0.1319  0.1437
 4649W        W 8393   1.571   3.217   3.888  0.0762  0.0386 -0.1527
 4650W        W 8394   5.693   3.034   8.159  0.1898  0.1967  0.0689
 4651W        W 8395   3.511   3.997   3.552  0.0484  0.1576 -0.0245
 4652W        W 8396   2.527   4.006   0.985  0.1555 -0.1803 -0.1163
 4653W        W 8397   5.508   5.918   1.412 -0.0018 -0.0835  0.1838
 4654W        W 8398   0.533   3.767  12.987  0.3339 -0.2128  0.4687
 4655W        W 8399   5.843   5.554   9.144  0.0436 -0.2560 -0.2056
 4656W        W 8400   0.586   7.395   3.378 -0.1469 -0.1226 -0.0423
 4657W        W 8401   0.426   5.034  12.835  0.0267  0.0135 -0.1772
 4658W        W 8402   2.408   5.216   0.737  0.0174  0.2290 -0.1598
 4659W        W 8403   9.701   2.404   1.511  0.2691  0.1421 -0.0596
 4660W        W 8404   2.562   1.621   8.321  0.3528  0.2525 -0.1020
 4661W        W 8405   8.030   1.271   0.189 -0.0021 -0.1313 -0.0873
 4662W        W 8406   0.374   3.234   1.814 -0.0985 -0.0393  0.1785
 4663W        W 8407   1.310   1.669   4.204 -0.0245  0.1824 -0.0612
 4664W        W 8408   7.533   0.407   1.626  0.1000  0.0992 -0.0415
 4665W        W 8409   1.136   0.984   9.059 -0.1707 -0.1382 -0.0552
 4666W        W 8410   7.358   9.531   3.742 -0.0241 -0.0157  0.1851
 4667W        W 8411   5.525   2.481   0.383  0.0463 -0.0017  0.4575
 4668W        W 8412   6.197   1.747  11.396 -0.1529  0.1217  0.0274
 4669W        W 8413   0.285   1.066   2.115  0.3027  0.1131  0.0991
 4670W        W 8414   8.934   8.517   1.149 -0.1205 -0.0528  0.1069
 4671W        W 8415   2.613   7.982   0.405 -0.1313 -0.3431 -0.0668
 4672W        W 8416   6.871   3.008   9.722  0.0930 -0.1520  0.3260
 4673W        W 8417   3.080   9.179   3.033 -0.4370  0.3119 -0.2200
 4674W        W 8418   9.101   2.918   2.192  0.0574  0.2765  0.1614
 4675W        W 8419   8.484   7.587  12.280 -0.0626 -0.1898  0.2216
 4676W        W 8420   6.437   7.503   0.487  0.0592 -0.1325  0.0798
 4677W        W 8421   1.512   9.260   4.643 -0.1585  0.0293 -0.0033
 4678W        W 8422   2.310   4.876  10.436 -0.1222 -0.1328  0.2240
 4679W        W 8423   1.975   3.329   3.032  0.2663  0.2291  0.2163
 4680W        W 8424   5.575   5.181   1.242 -0.2714 -0.0461  0.1823
 4681W        W 8425   1.319   1.543  12.539 -0.1808 -0.0369  0.1938
 4682W        W 8426   3.809   3.433   0.271  0.1788 -0.0569  0.2541
 4683W        W 8427   6.918   4.279   1.834  0.2429  0.0659 -0.0369
 4684W        W 8428   1.699   9.559   8.958 -0.2275 -0.0840 -0.0259
 4685W        W 8429   6.044   9.425   0.264 -0.2294  0.0850  0.0808
 4686W        W 8430   0.413   6.371  12.513  0.1332 -0.2266 -0.1088
 4687W        W 8431   4.032   4.612   3.635 -0.2590 -0.1251 -0.0366
 4688W        W 8432   7.923   5.213   0.468  0.1908  0.0441 -0.1192
 4689W        W 8433   9.371   3.641  11.263  0.0832 -0.1425 -0.6007
 4690W        W 8434   8.055   2.410   4.169  0.3655 -0.5657  0.3676
 4691W        W 8435   2.650   7.477   2.988  0.1697 -0.1734  0.0554
 4692W        W 8436   4.333   6.408  10.485  0.2842  0.1379  0.1175
 4693W        W 8437   2.451   3.706   9.372 -0.0212 -0.0792  0.2822
 4694W        W 8438   7.312   2.699  11.819  0.2544 -0.1445  0.0732
 4695W        W 8439   8.668   8.783  10.320  0.1484 -0.3038 -0.1702
 4696W        W 8440   4.233   4.889   1.134  0.1162 -0.2705  0.0095
 4697W        W 8441   4.593   0.441   1.066 -0.2471 -0.3867 -0.2029
 4698W        W 8442   0.760   5.374   2.146  0.0171  0.0416  0.1735
 4699W        W 8443   3.049   5.872   2.198 -0.2122  0.1110 -0.0345
 4700W        W 8444   6.588   4.952   9.047  0.0033  0.1296 -0.1388
 4701W        W 8445   8.652   7.010  10.597  0.4498  0.1202  0.2527
 4702W        W 8446   5.951   0.198  12.470  0.2929 -0.3617 -0.0845
 4703W        W 8447   1.119   3.749  12.878  0.1360 -0.0686  0.2244
 4704W        W 8448   8.423   2.486   3.864 -0.0908 -0.0441 -0.0131
 4705W        W 8449   3.839   3.557  10.975 -0.0572 -0.0636  0.0342
 4706W        W 8450   7.140   6.270   0.564 -0.3013 -0.2346 -0.0851
 4707W        W 8451   5.501   4.697  10.626  0.1011  0.3969  0.1205
 4708W        W 8452   5.270   2.961   9.793 -0.1964  0.2189  0.1629
 4709W        W 8453   7.503   3.122  12.025 -0.1966  0.0376 -0.0711
 4710W        W 8454   7.746   0.790  11.127 -0.1334 -0.0601 -0.1400
 4711W        W 8455   1.488   4.947   1.753 -0.0441 -0.0916  0.0671
 4712W        W 8456   8.515   6.673   2.612 -0.3468 -0.0073  0.0159
 4713W        W 8457   2.159   6.682   4.525 -0.2940  0.0921  0.0623
 4714W        W 8458   1.334   5.670   8.705  0.1500  0.0874 -0.0205
 4715W        W 8459   6.442   9.004   0.907 -0.1539  0.2199 -0.0008
 4716W        W 8460   4.857   3.828  11.608  0.1535 -0.2474  0.1709
 4717W        W 8461   6.086   1.276  11.931 -0.5110 -0.0643  0.1496
 4718W        W 8462   8.495   3.734   0.404 -0.1295  0.1863  0.2094
 4719W        W 8463   6.001   6.486  11.925  0.3208  0.1986  0.1260
 4720W        W 8464   5.219   7.997   2.073  0.1673  0.2767 -0.2445
 4721W        W 8465   8.751   6.571   0.279  0.5108 -0.3506 -0.0732
 4722W        W 8466   2.595   8.120  10.996 -0.1541 -0.2438  0.1434
 4723W        W 8467   2.579   0.057  12.548 -0.0941 -0.0852 -0.0685
 4724W        W 8468   2.365   3.819  12.273 -0.0371  0.0629 -0.1457
 4725W        W 8469   9.669   7.595  12.532 -0.0556 -0.0914 -0.1969
 4726W        W 8470   0.600   7.845  11.030  0.1807 -0.1084 -0.2541
 4727W        W 8471   0.248   0.822   0.218 -0.3719 -0.2205 -0.1196
 4728W        W 8472   3.008   6.944   0.861 -0.3262 -0.2025 -0.3176
 4729W        W 8473   9.399   1.003  12.009  0.0223 -0.1590 -0.1145
 4730W        W 8474   2.456   0.642   2.484 -0.2402  0.0182 -0.3148
 4731W        W 8475   6.629   4.171   1.124 -0.1998 -0.0827 -0.2198
 4732W        W 8476   5.980   7.647  12.180  0.1380  0.0287  0.0340
 4733W        W 8477   5.037   2.793  10.594 -0.0133  0.1130  0.2132
 4734W        W 8478   0.020   0.056   2.025  0.1652 -0.5736 -0.2528
 4735W        W 8479   4.371   0.124   1.719 -0.0674  0.0079 -0.3668
 4736W        W 8480   2.065   7.817   0.139 -0.0493 -0.1467 -0.0278
 4737W        W 8481   0.642   4.506  10.361  0.1006  0.0944 -0.2205
 4738W        W 8482   2.418   4.543   9.804  0.3066 -0.0963  0.2903
 4739W        W 8483   2.362   9.398   9.672 -0.1254 -0.1737 -0.0666
 4740W        W 8484   0.830   2.418   3.695 -0.0085  0.0929  0.5132
 4741W        W 8485   2.498   0.004   4.575 -0.0452  0.2626 -0.1663
 4742W        W 8486   8.903   0.500   0.211  0.2123 -0.0598 -0.2651
 4743W        W 8487   3.834   4.180   3.994  0.0083 -0.3527  0.0854
 4744W        W 8488   4.982   2.986  11.993 -0.1055 -0.2651  0.1191
 4745W        W 8489   1.744   2.587   9.095  0.1404  0.0845  0.2265
 4746W        W 8490   8.150   0.446   0.201  0.0391  0.3529  0.4247
 4747W        W 8491   7.773   9.622   1.940  0.1519 -0.0251 -0.2306
 4748W        W 8492   3.207   5.017  10.220 -0.0243  0.2407  0.0608
 4749W        W 8493   7.471   3.081   3.642 -0.2809 -0.2419  0.0704
 4750W        W 8494   9.690   5.249   0.656  0.3569 -0.1984 -0.0337
 4751W        W 8495   6.926   5.168   1.558 -0.2300 -0.0470  0.1888
 4752W        W 8496   1.687   7.327   3.956 -0.1047 -0.0085  0.1537
 4753W        W 8497   8.127   4.140   1.063 -0.1262 -0.1644  0.1502
 4754W        W 8498   2.052   8.908  10.304 -0.0251  0.1726  0.4100
 4755W        W 8499   7.825   9.611   9.738 -0.1240 -0.3162  0.1856
 4756W        W 8500   5.033   7.290   0.905  0.0647 -0.1273 -0.1439
 4757W        W 8501   8.580   1.672   4.260  0.1098 -0.1958  0.2462
 4758W        W 8502   4.124   0.048  12.598 -0.0291  0.1191 -0.0530
 4759W        W 8503   4.959   4.376  11.803 -0.1288  0.0867  0.1769
 4760W        W 8504   1.197   8.400   1.437 -0.0489  0.2510 -0.2369
 4761W        W 8505   3.341   7.116   1.234 -0.1105 -0.0268 -0.1517
 4762W        W 8506   7.038   3.692   8.723 -0.0812  0.3055  0.0778
 4763W        W 8507   7.832   5.605   9.294  0.3370 -0.0470 -0.2755
 4764W        W 8508   5.864   3.126   2.245  0.0296 -0.1958  0.0707
 4765W        W 8509   4.815   2.430  11.441  0.0485  0.1453  0.1401
 4766W        W 8510   3.060   3.455   2.158  0.0350  0.2424 -0.0647
 4767W        W 8511   4.996   1.253  10.562  0.1598 -0.0992  0.1322
 4768W        W 8512   5.131   8.346   0.738 -0.3219  0.2422  0.0252
 4769W        W 8513   1.956   6.301   0.808 -0.0717  0.1191 -0.0735
 4770W        W 8514   5.665   0.986   4.307  0.0207  0.2047 -0.0498
 4771W        W 8515   8.592   0.778   5.095 -0.1739 -0.0316  0.1059
 4772W        W 8516   4.522   8.579   0.283  0.3770  0.2249 -0.0171
 4773W        W 8517   4.789   8.797  10.875  0.1325  0.0735 -0.0932
 4774W        W 8518   7.596   1.873   9.320  0.3393 -0.1094 -0.1000
 4775W        W 8519   1.545   4.518  10.724  0.2763 -0.3107  0.0392
 4776W        W 8520   7.383   3.886   1.334 -0.2840 -0.0354  0.1497
 4777W        W 8521   1.949   6.414   9.980  0.3115  0.0229 -0.0017
 4778W        W 8522   6.272   8.825   2.073 -0.1545 -0.3391 -0.0380
 4779W        W 8523   1.556   2.018   1.913 -0.0057 -0.1797 -0.0917
 4780W        W 8524   5.908   6.488  12.415  0.0105  0.0254 -0.1463
 4781W        W 8525   4.934   9.536   2.280 -0.1367  0.0617  0.3533
 4782W        W 8526   0.753   0.185   7.884  0.3511 -0.0781  0.0387
 4783W        W 8527   4.498   4.336  12.045  0.5713 -0.4822  0.0382
 4784W        W 8528   1.072   9.157   8.217 -0.1698  0.3286 -0.0667
 4785W        W 8529   6.173   1.934   2.995 -0.0125 -0.1692 -0.0575
 4786W        W 8530   7.853   3.123   0.978 -0.1683 -0.0424  0.0767
 4787W        W 8531   9.858   6.431   2.874 -0.0686  0.0650 -0.0230
 4788W        W 8532   4.469   5.090   2.180  0.1600  0.1650 -0.1240
 4789W        W 8533   3.258   6.896   3.112  0.2127 -0.0282 -0.2170
 4790W        W 8534   7.209   5.790   8.429 -0.0643 -0.0378  0.0297
 4791W        W 8535   1.630   6.883   3.678  0.0911 -0.1470  0.0017
 4792W        W 8536   1.249   7.563   2.044 -0.0346  0.0190 -0.0203
 4793W        W 8537   7.449   0.532  12.751  0.0077  0.2925  0.0277
 4794W        W 8538   3.776   6.368   0.951 -0.2505  0.0392 -0.1930
 4795W        W 8539   3.496   2.144   1.849  0.2601 -0.1815 -0.3843
 4796W        W 8540   6.995   9.016   0.838 -0.1658 -0.0636  0.1303
 4797W        W 8541   9.699   3.124   0.561  0.0848  0.1565  0.1576
 4798W        W 8542   9.642   6.488   3.389 -0.1506  0.0287  0.2475
 4799W        W 8543   2.677   6.997  10.009 -0.0666 -0.0763  0.3508
 4800W        W 8544   3.518   7.783  10.788 -0.0667  0.5180 -0.2472
 4801W        W 8545   0.274   3.331   0.402  0.1768 -0.0538 -0.1858
 4802W        W 8546   8.292   1.651   9.101  0.0379 -0.0600 -0.0602
 4803W        W 8547   8.148   7.408   2.160  0.1859  0.0359  0.4505
 4804W        W 8548   8.236   2.551  10.404  0.2442 -0.1713  0.0591
 4805W        W 8549   0.525   3.746  11.116  0.0523  0.1382 -0.0262
 4806W        W 8550   4.286   1.308  12.161 -0.1353 -0.0731  0.1008
 4807W        W 8551   4.922   5.299  11.768 -0.0564 -0.2492 -0.1820
 4808W        W 8552   4.751   2.221   2.195  0.3846  0.1629  0.0494
 4809W        W 8553   2.770   2.525   3.345  0.0423 -0.2532  0.0074
 4810W        W 8554   7.049   3.147  10.244  0.1100  0.2866  0.2835
 4811W        W 8555   8.823   0.069  11.637 -0.1415 -0.0891 -0.2019
 4812W        W 8556   1.263   5.352   1.868  0.0330  0.0064 -0.1420
 4813W        W 8557   3.481   9.091   1.558 -0.0333 -0.1415  0.2840
 4814W        W 8558   6.052   1.370   0.921  0.0416 -0.1392 -0.1739
 4815W        W 8559   1.430   3.076   1.342 -0.1505  0.0565 -0.2484
 4816W        W 8560   9.376   4.404  12.121 -0.1662 -0.1125 -0.2857
 4817W        W 8561   0.476   8.842  11.217  0.3072  0.1502 -0.0111
 4818W        W 8562   6.576   9.751  11.744  0.5021 -0.1730 -0.0486
 4819W        W 8563   1.231   9.746   8.858  0.2496 -0.0661 -0.0733
 4820W        W 8564   3.713   4.691  11.582  0.0137  0.0908 -0.0874
 4821W        W 8565   2.612   7.264   2.504  0.0751  0.1047  0.3016
 4822W        W 8566   1.716   1.978   2.916 -0.4197  0.0789 -0.2700
 4823W        W 8567   5.909   9.411  10.544  0.2801  0.1770 -0.0484
 4824W        W 8568   8.102   6.620   2.931  0.3118 -0.0624  0.1010
 4825W        W 8569   6.021   2.709   1.426 -0.1078  0.2530  0.0898
 4826W        W 8570   6.819   7.823  11.191 -0.2399  0.1548 -0.0677
 4827W        W 8571   5.161   0.849   1.139  0.0221  0.1424  0.4778
 4828W        W 8572   0.697   8.716   3.489  0.0393 -0.0553  0.0639
 4829W        W 8573   1.399   2.214   0.566 -0.0774  0.2815  0.0915
 4830W        W 8574   2.140   0.195  11.089 -0.1680  0.2864  0.0891
 4831W        W 8575   5.449   4.160  10.305  0.0233  0.1822  0.0157
 4832W        W 8576   5.053   8.187   9.368 -0.2084 -0.2614 -0.3087
 4833W        W 8577   8.297   9.091   1.211 -0.1565  0.1701 -0.0939
 4834W        W 8578   2.870   6.192   0.286  0.3313  0.1651 -0.1243
 4835W        W 8579   7.680   5.538   4.506  0.3029  0.0582 -0.0655
 4836W        W 8580   7.422   7.991   9.882  0.3182  0.1915 -0.2061
 4837W        W 8581   1.145   4.405   1.719  0.1021  0.1055  0.1356
 4838W        W 8582   3.378   8.064  12.251 -0.3175  0.1135 -0.1026
 4839W        W 8583   1.191   1.369  11.540 -0.0721  0.1894  0.2146
 4840W        W 8584   9.048   5.508   2.390  0.2726 -0.2453 -0.0439
 4841W        W 8585   9.049   5.098   0.677 -0.1443 -0.0834  0.0876
 4842W        W 8586   6.889   0.223  12.428  0.0478  0.0312  0.1139
 4843W        W 8587   6.893   5.634   1.192  0.0901  0.0182 -0.1198
 4844W        W 8588   8.946   9.646   2.282  0.1320 -0.0112  0.1692
 4845W        W 8589   4.888   6.280   0.993 -0.0385  0.0777  0.3872
 4846W        W 8590   7.822   8.842  11.519 -0.1511  0.2204  0.0448
 4847W        W 8591   3.898   1.805   9.618  0.1830 -0.1471 -0.1196
 4848W        W 8592   0.374   4.998  10.570  0.2874 -0.4518 -0.3038
 4849W        W 8593   8.271   1.549  11.414 -0.1399  0.2416 -0.2210
 4850W        W 8594   3.196   9.252   0.753  0.1294 -0.0167  0.1704
 4851W        W 8595   1.940   5.031   3.859  0.0348 -0.1287  0.5025
 4852W        W 8596   6.462   5.685   3.199 -0.0613  0.0252 -0.2112
 4853W        W 8597   7.160   9.086  11.940 -0.2589 -0.0391  0.0070
 4854W        W 8598   1.638   2.791  12.978  0.2006  0.0012  0.1683
 4855W        W 8599   0.318   0.722   3.053 -0.3996 -0.0768 -0.3102
 4856W        W 8600   5.017   1.096   3.188 -0.0706  0.0242  0.4160
 4857W        W 8601   8.825   8.368  12.220  0.2150  0.4312  0.0143
 4858W        W 8602   8.391   3.250   4.014  0.0677  0.0230 -0.0670
 4859W        W 8603   7.101   3.296   0.002 -0.1877  0.0718 -0.0670
 4860W        W 8604   1.554   1.004   0.954 -0.0547  0.2263 -0.0337
 4861W        W 8605   0.913   5.956   4.095 -0.1775 -0.0177 -0.0102
 4862W        W 8606   4.389   9.489   1.874 -0.1621  0.2635 -0.0945
 4863W        W 8607   1.993   8.982  10.962  0.2082 -0.2075  0.2113
 4864W        W 8608   2.416   3.315   3.928 -0.3543 -0.1247 -0.3102
 4865W        W 8609   3.880   7.543   1.643 -0.1086 -0.0558  0.2410
 4866W        W 8610   1.488   9.715   3.147 -0.3947  0.5506  0.4511
 4867W        W 8611   8.774   2.650   4.821 -0.0260 -0.1798 -0.2837
 4868W        W 8612   4.577   4.751  10.699  0.1406 -0.0137  0.2615
 4869W        W 8613   9.528   9.262  12.325  0.1666 -0.1916  0.0585
 4870W        W 8614   2.224   2.371   9.607  0.0680  0.0324  0.1910
 4871W        W 8615   4.392   8.232   2.541  0.0872 -0.0329  0.0969
 4872W        W 8616   6.966   5.140   7.785  0.1230 -0.0448 -0.1102
 4873W        W 8617   9.340   5.147   0.274 -0.0746 -0.1701 -0.1077
 4874W        W 8618   0.278   7.029   0.779  0.1556 -0.0340  0.1081
 4875W        W 8619   6.911   3.067   0.973 -0.1516  0.0208  0.0272
 4876W        W 8620   8.683   5.015   9.070  0.0471  0.0045  0.1391
 4877W        W 8621   1.491   1.179   4.156  0.0356  0.1787 -0.3302
 4878W        W 8622   4.991   6.746  12.152  0.0877 -0.1197  0.3057
 4879W        W 8623   1.856   3.160   4.342 -0.1083  0.0781  0.1899
 4880W        W 8624   1.910   4.810   4.861 -0.0660  0.2924 -0.1032
 4881W        W 8625   1.324   6.552   0.040 -0.0849 -0.3830 -0.3220
 4882W        W 8626   5.303   6.724   1.570 -0.2244  0.0436 -0.1263
 4883W        W 8627   1.155   8.558  11.833  0.3118  0.0565 -0.0349
 4884W        W 8628   3.655   0.587   9.081 -0.0741  0.2047 -0.0031
 4885W        W 8629   2.709   4.509  12.975  0.2176  0.3249  0.0112
 4886W        W 8630   4.182   7.728   2.890  0.0389  0.1272 -0.1430
 4887W        W 8631   1.931   2.456   0.906  0.2306  0.1596 -0.1714
 4888W        W 8632   8.096   8.269  10.989 -0.0784  0.0310  0.3980
 4889W        W 8633   2.843   3.864   2.908  0.0878  0.2057 -0.0555
 4890W        W 8634   8.933   6.156  11.465 -0.2580 -0.1371 -0.0231
 4891W        W 8635   1.709   9.332  10.515 -0.2955 -0.1075 -0.1113
 4892W        W 8636   9.611   3.917  11.815  0.1829  0.0984  0.3081
 4893W        W 8637   7.832   6.859   0.249  0.1868 -0.3456  0.1079
 4894W        W 8638   3.567   0.998   1.203  0.0055  0.1625 -0.2438
 4895W        W 8639   5.793   2.928   0.303 -0.2715 -0.0727 -0.0104
 4896W        W 8640   0.483   0.639   4.033  0.2640 -0.1138  0.1799
 4897W        W 8641   7.502   3.871  10.572  0.1629 -0.3092 -0.0209
 4898W        W 8642   2.755   7.544   2.079  0.2580 -0.3507  0.2942
 4899W        W 8643   3.783   6.872  11.858  0.3507 -0.0681 -0.0301
 4900W        W 8644   0.465   0.585  11.840  0.0515  0.4124 -0.0357
 4901W        W 8645   9.532   6.841   1.412 -0.0130 -0.0726  0.3022
 4902W        W 8646   3.228   7.199  10.813 -0.2782  0.5500 -0.0500
 4903W        W 8647   1.560   0.214  12.377 -0.1891  0.0951 -0.0982
 4904W        W 8648   4.631   5.656   9.492  0.0836  0.1171  0.1226
 4905W        W 8649   8.895   9.294   9.028 -0.0388 -0.2462 -0.1345
 4906W        W 8650   0.761   5.162   1.127 -0.3243 -0.2987  0.1782
 4907W        W 8651   3.194   2.384  12.825  0.3164  0.0940  0.2896
 4908W        W 8652   4.049   8.450   3.369  0.3457 -0.0943 -0.2471
 4909W        W 8653   3.619   5.963   1.207  0.1748  0.1326  0.0881
 4910W        W 8654   0.377   6.165   2.702 -0.0109 -0.0608  0.1045
 4911W        W 8655   0.634   3.077   9.082  0.0189 -0.0602  0.0117
 4912W        W 8656   4.924   2.430   1.637  0.0993 -0.0424  0.0592
 4913W        W 8657   4.746   0.541  11.121  0.1818 -0.1146  0.0187
 4914W        W 8658   1.725   5.282   1.370  0.0943  0.1956 -0.1579
 4915W        W 8659   1.012   7.477  12.925  0.0751 -0.0074 -0.1383
 4916W        W 8660   2.385   2.647   2.981 -0.1500 -0.2048 -0.1428
 4917W        W 8661   9.442   6.681   9.902 -0.2423 -0.1572 -0.1252
 4918W        W 8662   8.397   2.486   3.362 -0.0342 -0.0233 -0.0072
 4919W        W 8663   1.361   6.928  10.468  0.1554  0.2122  0.2733
 4920W        W 8664   1.568   2.895   1.772  0.2151 -0.3842 -0.0011
 4921W        W 8665   6.425   2.412  10.622  0.2102  0.1483  0.1050
 4922W        W 8666   7.726   4.106   4.588 -0.3466  0.3175  0.2872
 4923W        W 8667   5.411   2.989  12.811 -0.4453 -0.1253 -0.2808
 4924W        W 8668   0.938   3.473  11.101 -0.0646  0.1667 -0.0575
 4925W        W 8669   6.111   8.042   5.152 -0.0110  0.0247 -0.0512
 4926W        W 8670   4.239   6.941   1.837 -0.1237  0.0729 -0.0257
 4927W        W 8671   6.474   7.933   6.616 -0.0614 -0.1369  0.0653
 4928W        W 8672   3.126   4.343   3.600 -0.0164  0.0410 -0.0248
 4929W        W 8673   9.529   1.447   3.217  0.0025  0.0722 -0.0453
 4930W        W 8674   5.036   8.285  10.692 -0.0048 -0.0764  0.0575
 4931W        W 8675   7.416   8.076   1.619 -0.0107  0.2649  0.0790
 4932W        W 8676   1.920   2.888   2.874  0.0937  0.1898 -0.0776
 4933W        W 8677   2.332   9.205  10.619  0.0428 -0.4607 -0.0130
 4934W        W 8678   4.735   7.273  10.606 -0.1363 -0.2035 -0.2515
 4935W        W 8679   0.265   0.791   3.589  0.1630  0.1503 -0.0186
 4936W        W 8680   2.481   8.447  12.369  0.1322  0.0287  0.0073
 4937W        W 8681   3.654   8.207   9.908 -0.3657  0.3566 -0.3647
 4938W        W 8682   1.185   6.138  10.778 -0.0967  0.1054 -0.2123
 4939W        W 8683   5.484   3.708   1.206 -0.1719 -0.4486 -0.2352
 4940W        W 8684   1.416   7.646   0.293 -0.0980 -0.0145 -0.1633
 4941W        W 8685   4.666   0.943   1.442 -0.1490 -0.1148 -0.1565
 4942W        W 8686   2.586   6.345   1.525 -0.0616  0.0049  0.1425
 4943W        W 8687   1.824   0.225   3.056 -0.0657  0.1679  0.0575
 4944W        W 8688   1.525   7.848   1.089  0.1229 -0.2079 -0.0777
 4945W        W 8689   1.412   1.747   3.245 -0.0232 -0.2389  0.0745
 4946W        W 8690   7.082   6.834  12.608  0.1204 -0.2265 -0.0282
 4947W        W 8691   7.547   4.319   4.201 -0.2585  0.0694 -0.0535
 4948W        W 8692   1.973   9.330   1.598 -0.1904  0.2724  0.2234
 4949W        W 8693   3.872   5.032   3.863 -0.1816  0.0660 -0.3706
 4950W        W 8694   1.212   7.705   9.725 -0.2045 -0.2568  0.2117
 4951W        W 8695   7.379   1.936   4.831 -0.1230  0.4193  0.0262
 4952W        W 8696   3.230   3.715   4.938  0.1286  0.0189  0.2703
 4953W        W 8697   7.910   7.894   1.781 -0.1767 -0.1492  0.1105
 4954W        W 8698   1.902   5.322   8.253  0.1688 -0.2911 -0.1262
 4955W        W 8699   6.284   9.392  12.022 -0.1219  0.1779  0.2457
 4956W        W 8700   1.391   1.083  12.343 -0.0068  0.2062  0.0013
 4957W        W 8701   7.733   8.905   0.228  0.0949  0.1464 -0.3380
 4958W        W 8702   5.336   3.221  11.637  0.1882 -0.0023 -0.0360
 4959W        W 8703   7.596   1.837   8.480  0.0795  0.1701 -0.4501
 4960W        W 8704   9.574   6.466   9.002 -0.1255  0.0376  0.2916
 4961W        W 8705   1.373   3.905   0.979  0.0631  0.0942 -0.0678
 4962W        W 8706   0.287   1.775   4.001  0.1580  0.1064  0.2734
 4963W        W 8707   3.028   6.536   2.873  0.3754  0.0177  0.2209
 4964W        W 8708   7.231   5.600   4.392  0.2613 -0.0825 -0.1742
 4965W        W 8709   8.384   5.897  12.381 -0.0560  0.2531 -0.0317
 4966W        W 8710   0.851   1.984  12.668 -0.2695  0.1018 -0.0810
 4967W        W 8711   9.139   5.438   9.843  0.2398 -0.1552 -0.1465
 4968W        W 8712   3.938   0.853   3.557  0.1485  0.0025  0.2753
 4969W        W 8713   1.461   2.541   1.065  0.1921  0.1995 -0.1687
 4970W        W 8714   4.291   8.347  11.930  0.0843  0.1209  0.0022
 4971W        W 8715   4.456   4.733   9.796 -0.1291  0.0986  0.1444
 4972W        W 8716   9.897   5.153  12.108 -0.4205  0.2852  0.0060
 4973W        W 8717   8.512   3.700   3.021 -0.0900 -0.0729  0.0297
 4974W        W 8718   3.340   9.454   2.489  0.0386 -0.3185 -0.1260
 4975W        W 8719   0.045   5.913   2.224  0.3273  0.2241 -0.1767
 4976W        W 8720   5.785   7.244   2.246 -0.0021 -0.3395 -0.0948
 4977W        W 8721   1.402   6.764   2.022  0.0264 -0.0844 -0.3034
 4978W        W 8722   8.173   5.789   1.211  0.0432 -0.1117  0.5473
 4979W        W 8723   0.835   5.710   8.788  0.0185  0.2160  0.0559
 4980W        W 8724   2.093   4.489   9.383  0.0102  0.0716 -0.2034
 4981W        W 8725   0.637   4.880   3.447  0.1996  0.1029 -0.0954
 4982W        W 8726   7.318   6.823   1.914  0.0287 -0.1431  0.0611
 4983W        W 8727   1.550   8.209   9.404  0.2688  0.2364 -0.1434
 4984W        W 8728   4.623   2.468   3.319 -0.2246 -0.0700 -0.0422
 4985W        W 8729   5.512   8.314   2.487  0.2269  0.0220  0.4890
 4986W        W 8730   4.012   9.602   9.765 -0.4412 -0.0284  0.2437
 4987W        W 8731   7.699   7.904  11.697 -0.3297  0.1068  0.3817
 4988W        W 8732   0.675   5.110   3.000 -0.2027 -0.1291 -0.0517
 4989W        W 8733   8.880   4.326  12.142  0.3726  0.2024 -0.0755
 4990W        W 8734   0.432   7.290   9.581  0.2803 -0.0164 -0.1920
 4991W        W 8735   1.290   2.258  10.539 -0.1728 -0.1612 -0.1654
 4992W        W 8736   1.052   1.228   0.303  0.0394  0.0340 -0.1636
 4993W        W 8737   3.195   7.112   3.801 -0.1674  0.0719 -0.0950
 4994W        W 8738   5.776   0.567   1.222  0.2300  0.0602  0.3754
 4995W        W 8739   8.309   2.467   4.635  0.1695 -0.0043 -0.1236
 4996W        W 8740   7.214   0.827   1.720 -0.0278 -0.1577 -0.0711
 4997W        W 8741   4.278   6.755   0.460  0.0532  0.1616  0.3182
 4998W        W 8742   7.517   9.302  11.657 -0.2856  0.1268  0.0243
 4999W        W 8743   3.967   8.560   0.470 -0.2818 -0.0710 -0.0144
 5000W        W 8744   4.056   1.696  10.791 -0.0213  0.2118 -0.3549
 5001W        W 8745   9.844   2.668   4.115 -0.0515  0.0922  0.1220
 5002W        W 8746   0.793   2.717   4.122 -0.1700 -0.1730 -0.1371
 5003W        W 8747   8.483   0.297   9.153 -0.1461  0.0689 -0.0785
 5004W        W 8748   2.261   4.981   1.242 -0.3375 -0.0224 -0.2385
 5005W        W 8749   0.365   3.161  11.047  0.0044  0.4681  0.0737
 5006W        W 8750   6.004   4.239   0.406 -0.3194 -0.2172 -0.1491
 5007W        W 8751   2.305   0.848   3.939  0.2595  0.1292 -0.2474
 5008W        W 8752   7.233   5.380   0.164 -0.0150 -0.0834  0.0223
 5009W        W 8753   8.416   3.223  11.541 -0.3414  0.1044  0.1317
 5010W        W 8754   3.535   0.964   3.268 -0.0567 -0.1041 -0.2240
 5011W        W 8755   8.938   2.335   2.229 -0.0293 -0.1684  0.2777
 5012W        W 8756   3.673   7.126  10.214  0.1308 -0.0148 -0.0951
 5013W        W 8757   0.857   1.430  12.864 -0.2154 -0.1145  0.3330
 5014W        W 8758   0.679   9.495  10.759  0.1086 -0.1712  0.4108
 5015W        W 8759   2.013   6.244  11.687 -0.1928 -0.0586 -0.0580
 5016W        W 8760   4.695   2.750   2.937 -0.0853 -0.3947 -0.2610
 5017W        W 8761   7.667   1.972   9.804 -0.0382 -0.1752 -0.2027
 5018W        W 8762   0.321   8.980  11.725 -0.0917 -0.0713 -0.2378
 5019W        W 8763   9.384   2.579  10.969 -0.1896  0.3028  0.0781
 5020W        W 8764   6.111   5.986   8.278 -0.1083  0.1237 -0.2787
 5021W        W 8765   7.736   0.854   8.799  0.2415  0.0512 -0.0304
 5022W        W 8766   4.992   1.520   9.241  0.1561 -0.1800 -0.0993
 5023W        W 8767   8.821   4.594   4.408 -0.0137 -0.5800  0.1052
 5024W        W 8768   1.533   7.659  10.874  0.2369  0.0014  0.3794
 5025W        W 8769   0.484   0.928   1.084 -0.0159 -0.1819  0.1188
 5026W        W 8770   8.356   1.736  10.473  0.3310 -0.1934 -0.1542
 5027W        W 8771   9.616   6.076  10.630 -0.0220  0.5835 -0.0603
 5028W        W 8772   6.285   3.602  10.171 -0.0821 -0.0569  0.1945
 5029W        W 8773   3.732   1.303   8.283  0.0672 -0.1410  0.1185
 5030W        W 8774   2.107   4.515  11.516  0.3193 -0.1472 -0.1548
 5031W        W 8775   1.578   6.624   0.669 -0.2561 -0.1750 -0.0697
 5032W        W 8776   8.866   0.945  10.053 -0.0432  0.2711  0.0498
 5033W        W 8777   9.045   6.728   1.286  0.0664 -0.1802  0.0708
 5034W        W 8778   9.604   2.601   2.786 -0.1695 -0.0199  0.0183
 5035W        W 8779   8.979   5.282  11.873 -0.0775  0.1608 -0.1098
 5036W        W 8780   4.927   8.698  12.412  0.0156  0.1345 -0.2698
 5037W        W 8781   2.618   3.721  11.822  0.2288  0.5637  0.1968
 5038W        W 8782   2.439   7.320  11.352 -0.1815  0.2233  0.1901
 5039W        W 8783   7.321   1.200  11.183 -0.1270 -0.3064  0.0392
 5040W        W 8784   9.835   8.617   4.228 -0.2865  0.0171 -0.0693
 5041W        W 8785   8.108   5.143   4.636  0.1842  0.1956  0.1055
 5042W        W 8786   5.031   2.749   9.415  0.4560  0.1773  0.2573
 5043W        W 8787   4.935   8.551   0.007  0.2190 -0.0012 -0.2696
 5044W        W 8788   2.452   8.716   9.078 -0.1710  0.2029 -0.1392
 5045W        W 8789   7.743   7.336  10.601  0.1466  0.3138  0.0137
 5046W        W 8790   6.452   5.152   1.044 -0.0131  0.1327 -0.1250
 5047W        W 8791   1.873   1.171   1.388  0.0179  0.1802 -0.0895
 5048W        W 8792   5.641   4.514   4.140  0.0632  0.0189  0.0154
 5049W        W 8793   2.197   5.162  10.878  0.0171  0.4488  0.0286
 5050W        W 8794   6.010   6.887  10.059 -0.1920 -0.0568 -0.0823
 5051W        W 8795   0.886   8.194   0.314 -0.2214 -0.2034  0.3815
 5052W        W 8796   7.133   3.070   8.855 -0.3539 -0.1776 -0.0989
 5053W        W 8797   8.691   5.734   0.736  0.1812  0.1778  0.1927
 5054W        W 8798   0.675   2.126   9.903 -0.1467 -0.1942 -0.0143
 5055W        W 8799   2.930   6.505   1.922  0.2111  0.1177 -0.1942
 5056W        W 8800   1.066   7.512   1.015  0.0126  0.1037  0.1807
 5057W        W 8801   1.676   6.916   9.702  0.1538 -0.1274  0.2105
 5058W        W 8802   9.846   1.378   2.301  0.0427 -0.2467 -0.4635
 5059W        W 8803   2.972   6.287   9.127 -0.2644 -0.1119 -0.2204
 5060W        W 8804   9.534   8.142  11.917 -0.1781 -0.1469 -0.2008
 5061W        W 8805   4.663   6.826  10.434 -0.0935 -0.3534  0.1456
 5062W        W 8806   0.667   6.213   9.558 -0.1158  0.3112  0.0998
 5063W        W 8807   1.366   0.008  11.879  0.1403 -0.0705  0.3243
 5064W        W 8808   0.490   7.657   1.382 -0.1226 -0.1945  0.1047
 5065W        W 8809   5.849   3.379   8.955  0.0687  0.0002  0.0150
 5066W        W 8810   1.830   0.888   3.778 -0.1340  0.1639  0.0293
 5067W        W 8811   7.740   2.305   2.185  0.0649  0.1507  0.1939
 5068W        W 8812   8.702   0.358  10.846 -0.1205  0.1342  0.0522
 5069W        W 8813   9.188   0.819   3.959  0.0702 -0.0785  0.2829
 5070W        W 8814   0.582   7.123  10.062  0.0700  0.0938 -0.0347
 5071W        W 8815   0.635   7.719   9.142  0.1576 -0.0459  0.0213
 5072W        W 8816   7.259   8.145  11.533 -0.3276  0.1576 -0.2398
 5073W        W 8817   2.673   5.555  12.448  0.1049 -0.1764  0.0513
 5074W        W 8818   5.921   0.956   2.200 -0.1020  0.0816  0.1636
 5075W        W 8819   3.159   3.864   9.942  0.0089 -0.0948  0.0847
 5076W        W 8820   1.100   1.021  10.633 -0.1341  0.2059  0.2718
 5077W        W 8821   2.276   4.483   1.332 -0.0100 -0.4918 -0.0741
 5078W        W 8822   2.103   0.315   2.573 -0.1087 -0.2078  0.1122
 5079W        W 8823   7.832   5.274  11.909  0.1280  0.1669 -0.1070
 5080W        W 8824   1.666   3.282  10.491 -0.1568  0.1055 -0.2076
 5081W        W 8825   0.580   3.467   2.957 -0.0607 -0.5155  0.0360
 5082W        W 8826   1.052   6.725   0.496  0.0430  0.3122  0.5678
 5083W        W 8827   3.164   9.735  11.763 -0.0975  0.0662  0.1090
 5084W        W 8828   1.816   1.561  11.170  0.1664  0.0518 -0.2944
 5085W        W 8829   9.329   2.081   1.091  0.2073  0.2468 -0.0168
 5086W        W 8830   7.087   6.247   9.463  0.2015 -0.1321 -0.2990
 5087W        W 8831   8.872   3.416   1.990  0.1534  0.2273 -0.1567
 5088W        W 8832   8.766   1.956   8.283  0.2967  0.0970 -0.1614
 5089W        W 8833   0.001   8.598   8.730 -0.0515  0.2428  0.5552
 5090W        W 8834   5.225   2.789   2.994  0.1112  0.1782 -0.0611
 5091W        W 8835   1.537   2.928   8.816 -0.1348 -0.0504  0.2665
 5092W        W 8836   0.173   3.842   0.748 -0.2931 -0.0859 -0.2645
 5093W        W 8837   4.244   9.799  10.806  0.0321 -0.3138  0.0285
 5094W        W 8838   6.005   3.029   3.878  0.3457  0.1659 -0.1734
 5095W        W 8839   7.073   3.349  11.748 -0.1884  0.2548  0.1406
 5096W        W 8840   7.906   8.907   1.635  0.1992  0.0294 -0.2093
 5097W        W 8841   3.551   8.405  12.642  0.2302  0.2088  0.1785
 5098W        W 8842   6.984   8.007   0.103  0.0756 -0.3873 -0.1757
 5099W        W 8843   5.012   4.882   0.447  0.2634  0.5043  0.0231
 5100W        W 8844   0.611   5.020   4.410  0.3088 -0.5657 -0.3608
 5101W        W 8845   6.126   0.123   1.942  0.0349  0.0334  0.0630
 5102W        W 8846   7.973   3.012  11.193  0.3460  0.3196  0.0018
 5103W        W 8847   1.478   8.917  12.122  0.0969  0.1170  0.0698
 5104W        W 8848   1.108   2.517   1.519 -0.1196 -0.1835 -0.0535
 5105W        W 8849   5.202   2.528  10.140 -0.0310 -0.0964 -0.1590
 5106W        W 8850   5.615   7.421  11.850 -0.0432  0.3862  0.0115
 5107W        W 8851   8.383   7.381  11.852 -0.4038  0.1721 -0.0457
 5108W        W 8852   7.515   3.467   1.051  0.0771  0.1122 -0.0938
 5109W        W 8853   4.619   8.553  10.034 -0.1047  0.0955 -0.2276
 5110W        W 8854   9.392   0.547   4.711  0.3302 -0.0084  0.0312
 5111W        W 8855   4.498   9.562  10.247 -0.0487  0.1776 -0.3124
 5112W        W 8856   3.546   8.565   3.466 -0.2747  0.0125 -0.0303
 5113W        W 8857   8.274   0.889   2.678 -0.2489  0.0010 -0.2646
 5114W        W 8858   8.632   3.808   9.523  0.0425  0.0715  0.1309
 5115W        W 8859   3.183   3.323   4.539  0.4025  0.3595  0.0087
 5116W        W 8860   1.993   9.342   3.482  0.2038  0.1620  0.0901
 5117W        W 8861   0.659   9.302  12.034  0.1286  0.0524 -0.0329
 5118W        W 8862   2.488   3.803  11.154 -0.0066  0.1100 -0.4941
 5119W        W 8863   0.823   3.083   0.528  0.2964  0.2606 -0.1970
 5120W        W 8864   7.808   5.004   3.724  0.1426  0.1320  0.0698
 5121W        W 8865   5.299   6.947   0.584 -0.0308 -0.0175 -0.1561
 5122W        W 8866   2.433   2.040   0.373 -0.0957  0.1414 -0.1352
 5123W        W 8867   8.192   2.863   1.296  0.1658  0.2679  0.1013
 5124W        W 8868   0.535   4.688  11.463 -0.1709  0.1764 -0.1062
 5125W        W 8869   7.776   3.242   2.119  0.0844 -0.2368  0.0451
 5126W        W 8870   4.715   6.873  11.732  0.0811 -0.1305  0.1955
 5127W        W 8871   9.139   7.193   1.622  0.2641  0.2704  0.0795
 5128W        W 8872   9.343   0.188  11.584  0.3087 -0.2238 -0.1013
 5129W        W 8873   2.756   8.504   3.118  0.0831  0.0830  0.0653
 5130W        W 8874   4.625   9.795   1.329 -0.4004 -0.4705  0.1845
 5131W        W 8875   9.032   3.783   1.083  0.1742 -0.0487 -0.0727
 5132W        W 8876   5.536   1.339   3.901 -0.0697 -0.2195  0.2758
 5133W        W 8877   2.825   2.171   1.443  0.2058  0.2713  0.0062
 5134W        W 8878   6.664   9.835   0.581 -0.2505 -0.4788 -0.2355
 5135W        W 8879   9.776   2.378   2.105 -0.1454  0.1737  0.0700
 5136W        W 8880   7.301   1.264  12.426  0.2470 -0.0063 -0.0207
 5137W        W 8881   3.809   4.926   2.989  0.0449 -0.1065  0.0991
 5138W        W 8882   1.583   1.739   0.614 -0.1009 -0.0636  0.3096
 5139W        W 8883   3.261   5.319   9.392 -0.0640  0.0814 -0.2050
 5140W        W 8884   7.068   9.628  11.674 -0.0417 -0.1344 -0.1200
 5141W        W 8885   6.771   6.553   0.430  0.2217 -0.3584  0.1456
 5142W        W 8886   4.063   2.812  10.455 -0.0856  0.2187 -0.0896
 5143W        W 8887   1.605   0.515   0.341 -0.0379 -0.1693 -0.1209
 5144W        W 8888   6.877   3.884   1.428 -0.4164 -0.1566  0.1824
 5145W        W 8889   6.565   8.141  12.381 -0.1788  0.1939  0.1033
 5146W        W 8890   7.763   8.447  12.885 -0.0828  0.1243  0.1120
 5147W        W 8891   7.615   5.152  12.390 -0.1580  0.0892  0.1993
 5148W        W 8892   4.838   2.475   8.235  0.0242  0.3106 -0.2249
 5149W        W 8893   3.495   4.474  10.664  0.1726  0.1056 -0.0276
 5150W        W 8894   5.950   5.362   9.598  0.1431  0.0549 -0.0092
 5151W        W 8895   2.625   2.524  11.100 -0.2415  0.1376  0.0287
 5152W        W 8896   4.346   5.955   0.397 -0.1780  0.3338 -0.0514
 5153W        W 8897   9.036   7.897  10.284 -0.0043 -0.2890  0.3877
 5154W        W 8898   7.060   2.657   0.692 -0.1251  0.0813 -0.1104
 5155W        W 8899   2.893   2.136   3.716  0.3347  0.1972  0.0281
 5156W        W 8900   3.992   4.927   9.751 -0.1434 -0.0210 -0.0268
 5157W        W 8901   7.127   1.914   1.147  0.0091 -0.0385  0.0363
 5158W        W 8902   2.294   2.318  12.391 -0.0717  0.1744 -0.1318
 5159W        W 8903   5.491   8.594   1.101 -0.3300 -0.1491  0.3046
 5160W        W 8904   9.183   3.733   8.350  0.0033 -0.1280 -0.0750
 5161W        W 8905   3.849   4.328  11.126 -0.0413 -0.0787  0.1816
 5162W        W 8906   2.655   0.826   1.291  0.0619 -0.3266 -0.3810
 5163W        W 8907   6.591   8.911   9.684 -0.2863 -0.1376  0.0027
 5164W        W 8908   4.178   3.614   1.843  0.0413 -0.2942  0.1057
 5165W        W 8909   4.604   3.443   9.257  0.1917 -0.0062 -0.3546
 5166W        W 8910   5.792   3.396   3.567 -0.1778 -0.1996 -0.0145
 5167W        W 8911   2.328   1.607   9.293  0.0391 -0.1388 -0.2632
 5168W        W 8912   8.833   5.094   9.616  0.1423  0.1074 -0.1299
 5169W        W 8913   4.697   5.578   2.268  0.1912 -0.1181  0.1571
 5170W        W 8914   1.606   2.706   0.589 -0.1937 -0.0011 -0.3735
 5171W        W 8915   3.983   7.816  10.063 -0.1327  0.2424  0.0234
 5172W        W 8916   8.697   5.010  12.171 -0.0053  0.1006  0.2012
 5173W        W 8917   8.697   7.202   1.055  0.1628  0.3218 -0.1442
 5174W        W 8918   9.804   5.646   1.262  0.0417 -0.0636 -0.0878
 5175W        W 8919   2.563   5.071  12.245 -0.0537 -0.0411 -0.0861
 5176W        W 8920   3.113   8.268   1.488 -0.0236  0.1303 -0.1862
 5177W        W 8921   4.867   8.861   1.668 -0.5478 -0.0173 -0.3147
 5178W        W 8922   5.527   6.294  11.710  0.2167  0.2034  0.4306
 5179W        W 8923   3.671   0.694   2.068 -0.1602 -0.3735  0.0476
 5180W        W 8924   1.086   8.034   2.460 -0.1155 -0.0353  0.0543
 5181W        W 8925   9.507   4.682   1.951  0.0812  0.1607 -0.0062
 5182W        W 8926   5.546   3.643   3.170  0.1879  0.2622 -0.2045
 5183W        W 8927   8.495   5.557  10.374 -0.0331  0.1920  0.0377
 5184W        W 8928   2.089   8.384  11.150  0.3776  0.2210  0.0498
 5185W        W 8929   1.080   7.115   2.271  0.1036  0.0316  0.2925
 5186W        W 8930   0.874   2.773   9.527  0.1100  0.1726 -0.3205
 5187W        W 8931   9.253   3.138   0.333  0.1272  0.0533 -0.1724
 5188W        W 8932   3.146   0.354  11.944 -0.0776  0.0944  0.0962
 5189W        W 8933   2.150   7.029  12.476  0.1324  0.2274  0.0387
 5190W        W 8934   9.859   6.601  10.268  0.2370 -0.3088 -0.1875
 5191W        W 8935   6.634   0.922   2.188 -0.0524 -0.0077  0.0777
 5192W        W 8936   6.589   4.886   4.187 -0.1222 -0.0882 -0.1611
 5193W        W 8937   1.710   2.734   4.181 -0.0367  0.0720  0.0440
 5194W        W 8938   1.719   3.509  11.733 -0.1841 -0.5663  0.3255
 5195W        W 8939   6.991   2.913   1.487 -0.0113  0.0321  0.1404
 5196W        W 8940   1.207   6.118  12.579  0.2259 -0.2155 -0.0067
 5197W        W 8941   7.090   7.975  10.370 -0.3237  0.4156  0.1991
 5198W        W 8942   9.443   7.876   4.042 -0.1564  0.1873 -0.0158
 5199W        W 8943   1.628   8.604  11.137  0.2337  0.4678  0.1245
 5200W        W 8944   5.475   4.437  11.174 -0.2533 -0.2163  0.0989
 5201W        W 8945   7.428   2.198  11.619 -0.1482  0.1413 -0.0869
 5202W        W 8946   0.187   4.829   4.918 -0.3213  0.0582  0.0309
 5203W        W 8947   2.608   6.624   9.016  0.0844  0.0653 -0.1266
 5204W        W 8948   1.728   8.212  12.880  0.2100 -0.4427  0.1773
 5205W        W 8949   7.790   6.621   9.076  0.3594  0.4936  0.1788
 5206W        W 8950   0.502   1.676  11.743 -0.2310 -0.2175 -0.0021
 5207W        W 8951   5.887   7.422  11.465 -0.3336  0.1831 -0.0058
 5208W        W 8952   0.694   6.829   9.726 -0.0713  0.0383  0.0732
 5209W        W 8953   0.541   1.997   2.479  0.1113 -0.1598  0.2552
 5210W        W 8954   0.414   1.442  12.194 -0.0423  0.0467 -0.1060
 5211W        W 8955   9.488   7.957   2.661 -0.0442  0.1873  0.1509
 5212W        W 8956   2.073   2.377  12.909  0.0609 -0.3531  0.1462
 5213W        W 8957   1.498   5.155  12.115  0.3144 -0.0049  0.2764
 5214W        W 8958   5.442   5.162  10.762  0.1783 -0.1192 -0.3605
 5215W        W 8959   8.632   4.072  10.774  0.0383 -0.0633 -0.0228
 5216W        W 8960   9.005   1.425  10.896  0.0285  0.2335  0.0987
 5217W        W 8961   8.229   8.358   3.761  0.0466 -0.1570  0.1499
 5218W        W 8962   8.667   6.981   3.432 -0.2312 -0.1827 -0.0524
 5219W        W 8963   4.268   2.183   9.718 -0.2253 -0.3601  0.1806
 5220W        W 8964   7.614   0.688  10.676 -0.2905 -0.5093  0.0500
 5221W        W 8965   7.901   5.249  12.982 -0.0983 -0.0391 -0.1823
 5222W        W 8966   0.551   8.498   0.156 -0.4865  0.1542 -0.0623
 5223W        W 8967   6.940   3.555  12.567  0.0089  0.2175  0.1066
 5224W        W 8968   6.738   2.185  12.490  0.4314 -0.1900  0.5111
 5225W        W 8969   3.845   4.944  12.014 -0.0079  0.4601  0.1925
 5226W        W 8970   8.155   4.242  10.845  0.0016  0.1532 -0.1379
 5227W        W 8971   5.351   4.690   1.970 -0.2671 -0.0036 -0.0935
 5228W        W 8972   0.011   7.498   3.194  0.3434  0.1730 -0.2572
 5229W        W 8973   7.298   9.876  10.377 -0.0239 -0.2116 -0.0585
 5230W        W 8974   3.745   5.134   9.314  0.3115  0.0758 -0.1418
 5231W        W 8975   5.625   3.920   1.693  0.2327 -0.2445 -0.0533
 5232W        W 8976   5.199   2.166   7.933  0.1571 -0.1258  0.0357
 5233W        W 8977   3.406   4.488  11.282  0.0459  0.3783 -0.0018
 5234W        W 8978   8.199   5.442   1.621  0.2213  0.0589  0.1938
 5235W        W 8979   6.686   9.200  11.637 -0.0676  0.1288 -0.0878
 5236W        W 8980   4.934   9.229  12.640 -0.2818  0.2845  0.0472
 5237W        W 8981   2.681   3.813   5.000 -0.1715 -0.3791  0.0289
 5238W        W 8982   8.104   2.128  12.512  0.1499  0.3639  0.0718
 5239W        W 8983   1.386   0.555   8.897 -0.4089 -0.0605 -0.0245
 5240W        W 8984   4.065   1.478   2.583  0.2072 -0.0605  0.0937
 5241W        W 8985   5.499   1.888   1.175  0.1553  0.4374 -0.1593
 5242W        W 8986   2.765   5.785  10.681  0.0378  0.0758 -0.0383
 5243W        W 8987   2.443   7.763   0.951 -0.2916  0.0508 -0.0140
 5244W        W 8988   5.239   3.848   0.263  0.3226  0.0309 -0.4892
 5245W        W 8989   6.537   8.177  12.856  0.1637 -0.3112 -0.0119
 5246W        W 8990   6.132   7.273  11.878 -0.2349  0.2273 -0.1512
 5247W        W 8991   6.379   1.480  12.273 -0.3320 -0.2217 -0.1560
 5248W        W 8992   8.148   4.972   0.899  0.0226 -0.5903 -0.1053
 5249W        W 8993   8.205   8.281   3.241 -0.2761 -0.1994  0.0058
 5250W        W 8994   8.541   8.607   9.154  0.0848  0.1624  0.0067
 5251W        W 8995   7.316   6.094   3.208  0.0215  0.3555  0.2025
 5252W        W 8996   8.439   4.327   3.832  0.1213  0.2574 -0.0243
 5253W        W 8997   2.754   3.989   0.102  0.0243  0.1480 -0.5277
 5254W        W 8998   8.320   7.341   9.126  0.1013  0.0822  0.3862
 5255W        W 8999   7.525   8.216   2.733  0.3428  0.0918  0.0323
 5256W        W 9000   6.155   2.445   0.960 -0.1084 -0.0019 -0.1919
 5257W        W 9001   3.938   4.380   4.644 -0.0463  0.2748 -0.2078
 5258W        W 9002   1.399   3.128   4.886  0.1779  0.3136 -0.3138
 5259W        W 9003   7.698   4.599   2.128  0.1946  0.0489 -0.0056
 5260W        W 9004   0.447   1.499   2.243 -0.0274  0.0247  0.0990
 5261W        W 9005   5.310   6.365  12.190 -0.3732 -0.2261 -0.0804
 5262W        W 9006   3.401   1.477   3.152 -0.0542 -0.0936  0.0146
 5263W        W 9007   9.271   9.167  12.751 -0.0209  0.1041  0.1037
 5264W        W 9008   4.901   8.430  11.191 -0.1377 -0.2188  0.0085
 5265W        W 9009   3.176   8.843   0.413  0.0087 -0.1076  0.0047
 5266W        W 9010   0.757   2.472  12.784  0.1127  0.3084 -0.2561
 5267W        W 9011   3.333   1.589   1.834 -0.1876 -0.0767 -0.0918
 5268W        W 9012   3.465   5.890   3.280  0.0409  0.4633  0.1603
 5269W        W 9013   8.454   1.173  11.760 -0.0309 -0.2328 -0.0950
 5270W        W 9014   2.139   7.850  11.283  0.0309 -0.2274  0.1925
 5271W        W 9015   4.852   4.787   2.017 -0.2204  0.1536  0.1398
 5272W        W 9016   3.188   4.343   2.711 -0.1627  0.3408  0.0372
 5273W        W 9017   7.894   1.416   2.269 -0.2962  0.1061 -0.2483
 5274W        W 9018   0.802   2.611   0.655 -0.3339  0.0373 -0.1718
 5275W        W 9019   7.609   0.011   0.602  0.2635  0.2843 -0.0726
 5276W        W 9020   5.541   5.980   0.659  0.0327 -0.0951  0.1200
 5277W        W 9021   4.499   5.370   9.079 -0.1270 -0.0697 -0.2040
 5278W        W 9022   3.384   0.066   3.354  0.1731 -0.1177  0.5458
 5279W        W 9023   2.760   4.711  10.106  0.1439 -0.1391 -0.1233
 5280W        W 9024   4.387   0.140   9.944  0.0783 -0.3366  0.0136
 5281W        W 9025   7.300   3.377   9.760 -0.0409 -0.0870  0.0263
 5282W        W 9026   3.752   4.363   3.323  0.2667  0.2053  0.1675
 5283W        W 9027   1.877   3.754  10.229 -0.2766  0.0201 -0.0387
 5284W        W 9028   6.914   4.716  10.396  0.2506 -0.1392  0.2860
 5285W        W 9029   8.914   4.480   0.829  0.0301  0.0748  0.0833
 5286W        W 9030   2.941   4.984   9.180 -0.0442 -0.0710  0.1253
 5287W        W 9031   8.820   2.721   3.755  0.2376  0.0842 -0.0988
 5288W        W 9032   1.567   2.568   3.102 -0.2992 -0.1802 -0.2242
 5289W        W 9033   6.462   8.417  11.973  0.1008  0.3164 -0.0744
 5290W        W 9034   7.131   1.590  10.938 -0.2138  0.0295  0.0382
 5291W        W 9035   8.157   8.827   3.582  0.1792 -0.0868  0.0621
 5292W        W 9036   9.298   6.518  12.723 -0.2799  0.1798 -0.3281
 5293W        W 9037   6.378   3.104  11.807  0.0078 -0.1626  0.0416
 5294W        W 9038   0.482   3.357   2.380 -0.1811  0.0179  0.2118
 5295W        W 9039   4.330   2.979   4.702  0.0629  0.1654 -0.0795
 5296W        W 9040   7.894   0.420  12.294  0.3758 -0.2835 -0.3936
 5297W        W 9041   0.743   5.530   4.258  0.0061  0.0926 -0.2156
 5298W        W 9042   3.772   2.141   2.460  0.2464  0.0318  0.1762
 5299W        W 9043   9.685   7.725   2.254  0.2200 -0.1400  0.1297
 5300W        W 9044   6.345   2.826  10.965  0.0206 -0.0159 -0.1104
 5301W        W 9045   6.637   6.770  12.852  0.0986  0.1844  0.2656
 5302W        W 9046   6.862   2.188   8.226 -0.4555 -0.0088 -0.0531
 5303W        W 9047   7.814   2.822  10.158 -0.0612 -0.1840 -0.3190
 5304W        W 9048   8.672   5.961   8.831 -0.1302  0.1217 -0.1927
 5305W        W 9049   6.222   4.904   1.485  0.1641  0.2250  0.2407
 5306W        W 9050   2.905   4.299   1.331 -0.1212 -0.1324  0.1201
 5307W        W 9051   3.289   6.924  11.985 -0.1269  0.1453 -0.0133
 5308W        W 9052   0.278   8.049  11.680 -0.0361 -0.2046 -0.0692
 5309W        W 9053   5.739   8.935   0.207  0.3319 -0.0179  0.0042
 5310W        W 9054   7.387   3.842  12.584 -0.0460  0.0094  0.1382
 5311W        W 9055   1.275   9.698   1.315  0.0825 -0.3568 -0.4436
 5312W        W 9056   2.714   2.062  12.250  0.0266  0.1232 -0.3657
 5313W        W 9057   5.697   0.035  10.642 -0.2220 -0.2302  0.0283
 5314W        W 9058   1.060   7.761  11.248 -0.0219 -0.2316 -0.1427
 5315W        W 9059   2.266   3.605   9.918 -0.2018 -0.2573 -0.1708
 5316W        W 9060   0.807   0.441   0.887 -0.0258  0.1229 -0.2791
 5317W        W 9061   0.893   6.982  10.465 -0.1064  0.2023  0.1888
 5318W        W 9062   9.699   3.705   1.624  0.1475  0.1408 -0.1374
 5319W        W 9063   8.528   0.479   4.594  0.1497  0.2812  0.1823
 5320W        W 9064   5.892   1.799   2.595  0.3077 -0.2030  0.0461
 5321W        W 9065   5.054   9.657  12.353  0.0147 -0.2204  0.0479
 5322W        W 9066   3.728   8.744   0.083  0.3451  0.2319  0.0737
 5323W        W 9067   1.329   3.178   2.269 -0.0663  0.0079  0.4421
 5324W        W 9068   5.114   9.649   5.741 -0.1525  0.1401  0.0270
 5325W        W 9069   0.619   0.736   2.579 -0.1632  0.3191 -0.0360
 5326W        W 9070   7.170   5.429   9.680 -0.1781 -0.0546  0.1359
 5327W        W 9071   4.128   3.706   9.911  0.0393  0.1060  0.3071
 5328W        W 9072   2.569   6.266   2.333 -0.0115  0.2557  0.0570
 5329W        W 9073   7.414   5.638  12.196 -0.3177  0.0342 -0.0889
 5330W        W 9074   5.897   5.553   0.514 -0.1215 -0.0674  0.0870
 5331W        W 9075   5.311   2.504  12.806 -0.1471 -0.3831 -0.0959
 5332W        W 9076   8.387   9.278   3.229  0.0751 -0.2504  0.0033
 5333W        W 9077   2.310   1.550   0.264  0.0448  0.0697  0.0053
 5334W        W 9078   3.639   4.843  10.325 -0.2851 -0.0814 -0.0840
 5335W        W 9079   3.681   2.453   0.143  0.1370  0.1371  0.4103
 5336W        W 9080   9.151   2.355   4.769  0.1599  0.1602  0.2570
 5337W        W 9081   1.034   7.054  11.435 -0.1100 -0.1722 -0.0681
 5338W        W 9082   8.794   0.378   8.534  0.0325  0.4582  0.0296
 5339W        W 9083   7.915   8.578  10.623  0.2141 -0.1710 -0.2298
 5340W        W 9084   3.473   1.449   4.007 -0.2130 -0.0835 -0.0510
 5341W        W 9085   1.317   0.272   3.096  0.1914 -0.1720 -0.2376
 5342W        W 9086   3.361   8.361   9.560  0.0403  0.3782  0.0746
 5343W        W 9087   8.848   8.591   4.353 -0.2236 -0.0426 -0.1225
 5344W        W 9088   3.999   9.414  12.623  0.1903  0.0667 -0.0172
 5345W        W 9089   8.744   4.196   1.293  0.0352 -0.1065  0.1236
 5346W        W 9090   1.663   8.211   3.079  0.0631  0.1277  0.1150
 5347W        W 9091   2.643   0.319  11.227 -0.3526  0.1063 -0.0919
 5348W        W 9092   0.211   0.126   8.687  0.2589 -0.6797  0.0594
 5349W        W 9093   5.755   7.749   9.754  0.5365 -0.2058  0.0509
 5350W        W 9094   6.438   6.096   8.798  0.0679  0.0334  0.0616
 5351W        W 9095   9.461   7.757   0.926 -0.0537 -0.2553 -0.2106
 5352W        W 9096   4.353   1.933  10.223 -0.1722 -0.3298  0.3029
 5353W        W 9097   3.437   9.694   0.423 -0.0303 -0.1262 -0.1067
 5354W        W 9098   7.341   6.023  12.587 -0.2382 -0.2607 -0.0436
 5355W        W 9099   3.971   7.509   9.678 -0.1568  0.1923  0.2262
 5356W        W 9100   8.420   3.884   9.049 -0.1367 -0.0271  0.0753
 5357W        W 9101   9.221   4.500  11.654  0.3002  0.0460 -0.1483
 5358W        W 9102   6.524   0.210   1.478  0.1795 -0.0990 -0.3063
 5359W        W 9103   4.609   8.134   9.647 -0.0454  0.0348  0.3629
 5360W        W 9104   7.139   2.770  11.299 -0.0540 -0.4443  0.0526
 5361W        W 9105   3.996   8.591  10.530 -0.0594 -0.0169  0.2874
 5362W        W 9106   7.458   2.456   3.563  0.0519 -0.3747 -0.0670
 5363W        W 9107   3.140   0.297  11.429 -0.2369 -0.1110  0.1736
 5364W        W 9108   6.237   2.727   3.527 -0.3134 -0.2650 -0.2872
 5365W        W 9109   0.487   7.349   2.845 -0.0806  0.1202  0.1942
 5366W        W 9110   8.978   7.547  11.099  0.0752 -0.0848 -0.0472
 5367W        W 9111   7.808   1.682   1.433 -0.0443  0.5121 -0.0148
 5368W        W 9112   0.463   6.644  11.169  0.0134  0.0586  0.3275
 5369W        W 9113   7.813   6.952   1.649 -0.1064 -0.3339 -0.3617
 5370W        W 9114   3.886   0.340   8.681  0.2208  0.2682 -0.0733
 5371W        W 9115   7.466   7.522   9.586 -0.0176 -0.2595  0.1314
 5372W        W 9116   0.271   6.334   0.935 -0.4826  0.1259 -0.0800
 5373W        W 9117   5.147   3.479  12.889  0.0864  0.0577 -0.1045
 5374W        W 9118   4.114   0.206   2.912  0.0733 -0.0513  0.1297
 5375W        W 9119   6.317   5.655   9.654  0.0158  0.0374  0.1255
 5376W        W 9120   6.194   7.109   1.923  0.0457 -0.1072  0.2976
 5377W        W 9121   8.115   7.927   8.480 -0.0908  0.0785 -0.3374
 5378W        W 9122   4.855   8.978  11.341  0.1101 -0.0432  0.2781
 5379W        W 9123   9.822   9.232   2.395 -0.0373  0.0590 -0.2848
 5380W        W 9124   8.574   0.745  11.514 -0.0897  0.3401  0.0814
 5381W        W 9125   3.070   8.875  10.199  0.0941  0.0546  0.1484
 5382W        W 9126   6.823   1.396   0.573 -0.0561 -0.2287 -0.2800
 5383W        W 9127   6.945   1.491  11.446 -0.1251 -0.1843  0.0131
 5384W        W 9128   8.974   0.530   4.389  0.2588 -0.2089 -0.1316
 5385W        W 9129   9.669   8.793   9.955  0.0054  0.4720 -0.1525
 5386W        W 9130   4.645   9.110   2.097  0.0455  0.0405 -0.0708
 5387W        W 9131   8.483   5.050   3.163 -0.0433 -0.2981 -0.1381
 5388W        W 9132   8.669   3.882   4.531 -0.2412  0.0495  0.0480
 5389W        W 9133   0.977   7.184   4.373  0.1049  0.0452  0.1800
 5390W        W 9134   2.894   1.903  10.953 -0.1596 -0.0718 -0.0684
 5391W        W 9135   0.547   0.425  10.767 -0.1118 -0.2262  0.0638
 5392W        W 9136   3.553   4.820   4.199 -0.1207 -0.4669 -0.2840
 5393W        W 9137   2.439   8.689   2.592 -0.0526 -0.0514 -0.1896
 5394W        W 9138   9.402   9.520  10.797  0.4296  0.1927 -0.0025
 5395W        W 9139   6.067   5.519   0.976 -0.5451  0.2245  0.0576
 5396W        W 9140   4.824   9.302  11.693 -0.0240  0.1271  0.0210
 5397W        W 9141   7.453   2.165  12.489 -0.3863 -0.2626 -0.2401
 5398W        W 9142   3.252   2.171   0.404  0.1331 -0.0423 -0.1437
 5399W        W 9143   7.423   4.718   9.267 -0.1106 -0.1536  0.0359
 5400W        W 9144   6.323   1.014   9.405 -0.2464  0.1524 -0.3175
 5401W        W 9145   6.308   4.366  11.056 -0.0968  0.0013 -0.3318
 5402W        W 9146   9.036   7.525   0.130  0.2826 -0.1744 -0.1415
 5403W        W 9147   5.159   1.549  11.683 -0.1416  0.0782  0.1160
 5404W        W 9148   6.003   5.553   3.415  0.1216  0.0034 -0.3213
 5405W        W 9149   2.486   1.047   9.449 -0.2360  0.2464  0.2450
 5406W        W 9150   6.035   4.045  11.704  0.3515  0.0659 -0.0739
 5407W        W 9151   9.223   2.956   3.658  0.2732  0.1702 -0.0062
 5408W        W 9152   1.722   1.601   3.816 -0.1695  0.1948 -0.1490
 5409W        W 9153   2.880   8.373  12.915  0.2027  0.0302 -0.1097
 5410W        W 9154   2.214   8.184  10.352 -0.1682 -0.1848  0.1209
 5411W        W 9155   2.118   4.233   0.691  0.3426  0.2534 -0.0349
 5412W        W 9156   9.772   9.887  12.975  0.1403  0.0113 -0.0790
 5413W        W 9157   5.469   7.206   1.298  0.0148  0.1330 -0.2714
 5414W        W 9158   2.864   1.779   0.389  0.0743  0.0966  0.0923
 5415W        W 9159   2.578   2.374   9.140 -0.1829  0.0559  0.0120
 5416W        W 9160   1.548   0.125   9.091 -0.0060 -0.0612  0.1473
 5417W        W 9161   9.842   6.854   2.274  0.2205 -0.0425 -0.0698
 5418W        W 9162   9.350   1.691   8.865  0.0521 -0.1361  0.1556
 5419W        W 9163   9.762   9.761  11.617 -0.2194 -0.2201 -0.0349
 5420W        W 9164   5.870   7.300   9.790 -0.0920  0.0415 -0.1749
 5421W        W 9165   2.909   8.813   3.888 -0.5418 -0.1304 -0.3056
 5422W        W 9166   3.248   3.480   3.591 -0.0518 -0.3327 -0.1574
 5423W        W 9167   0.551   2.948   2.152  0.0157 -0.1694  0.0370
 5424W        W 9168   8.206   2.974   9.260 -0.0032 -0.1757  0.1743
 5425W        W 9169   0.490   5.388   9.900 -0.0470  0.1121  0.2732
 5426W        W 9170   4.829   1.994   9.362  0.1322  0.0626  0.0572
 5427W        W 9171   4.491   8.413  10.513 -0.2407 -0.0084 -0.1386
 5428W        W 9172   9.037   9.455  12.292 -0.1995 -0.0325 -0.0355
 5429W        W 9173   2.909   7.489   8.960  0.1505  0.2758 -0.4447
 5430W        W 9174   2.072   1.580   1.126  0.0960 -0.0256  0.1820
 5431W        W 9175   0.227   8.218   9.111 -0.3371 -0.0305  0.2344
 5432W        W 9176   3.547   1.477   1.389  0.0004  0.0293 -0.0900
 5433W        W 9177   8.341   6.300   8.598  0.2435  0.1087  0.0462
 5434W        W 9178   2.146   9.360   2.690  0.2071  0.0341 -0.3532
 5435W        W 9179   8.519   9.363  10.322 -0.1135  0.0004 -0.0999
 5436W        W 9180   9.673   8.048   9.545  0.0239  0.2751 -0.0835
 5437W        W 9181   9.066   4.613  12.487  0.1042  0.1735 -0.0051
 5438W        W 9182   7.858   5.408   8.862 -0.0923 -0.2936  0.1693
 5439W        W 9183   8.476   6.831   2.101  0.0223 -0.0047  0.1443
 5440W        W 9184   9.774   8.106   4.390  0.3510  0.0626 -0.2854
 5441W        W 9185   1.407   5.676   1.435 -0.2228 -0.1265 -0.0275
 5442W        W 9186   3.294   1.128   8.493  0.0672  0.1124 -0.1403
 5443W        W 9187   6.056   3.511  12.928 -0.0533  0.1832  0.1962
 5444W        W 9188   6.146   1.599   8.131 -0.0076  0.3410 -0.3101
 5445W        W 9189   5.034   3.142   2.673  0.0275 -0.2578  0.0462
 5446W        W 9190   6.839   2.933  11.767  0.1939  0.0833 -0.3398
 5447W        W 9191   7.347   5.906  11.762 -0.1335 -0.2250  0.2803
 5448W        W 9192   1.978   5.254   4.562 -0.2259 -0.1659  0.0159
 5449W        W 9193   9.661   2.542   9.032 -0.0472 -0.1591 -0.1172
 5450W        W 9194   1.123   4.761   4.694  0.1607  0.2568 -0.1980
 5451W        W 9195   8.350   9.130   9.051 -0.0403 -0.0881  0.1597
 5452W        W 9196   6.616   0.430   0.164 -0.1534  0.3480  0.0284
 5453W        W 9197   1.773   5.219  10.583 -0.3149  0.0331 -0.0539
 5454W        W 9198   6.441   4.239  12.595 -0.1744  0.1558  0.3868
 5455W        W 9199   5.783   3.586   2.045  0.3270  0.0831 -0.3297
 5456W        W 9200   6.909   4.043  12.418  0.0880 -0.0840 -0.0039
 5457W        W 9201   2.701   7.030   8.738 -0.0291 -0.0539 -0.1377
 5458W        W 9202   1.534   2.041   1.049 -0.1944 -0.1186  0.0495
 5459W        W 9203   6.673   8.866   1.856 -0.3129 -0.2589 -0.0424
 5460W        W 9204   4.237   6.760  10.155  0.0958  0.1662  0.0518
 5461W        W 9205   6.500   4.139   0.572  0.1124 -0.0081 -0.0879
 5462W        W 9206   0.409   4.131  11.811  0.1628  0.0750 -0.2703
 5463W        W 9207   9.590   0.200   1.686 -0.4305  0.1932 -0.0193
 5464W        W 9208   3.106   5.499  10.392  0.0097 -0.0266  0.0238
 5465W        W 9209   8.146   4.570   9.890  0.0556  0.1242  0.3645
 5466W        W 9210   0.080   0.883   2.612  0.0870  0.4065 -0.1487
 5467W        W 9211   8.467   3.389   9.091  0.5180  0.1314 -0.2902
 5468W        W 9212   9.252   6.080   2.033 -0.1860 -0.1140 -0.1915
 5469W        W 9213   7.769   6.993  11.220  0.0350 -0.3511 -0.0389
 5470W        W 9214   6.068   8.104  10.444 -0.1267 -0.0163 -0.0697
 5471W        W 9215   5.537   4.551   9.186 -0.0464  0.0551  0.1091
 5472W        W 9216   8.068   8.801  12.415 -0.2117 -0.0900 -0.1642
 5473W        W 9217   1.682   4.903  12.848 -0.0916  0.0433  0.0782
 5474W        W 9218   8.675   0.654   2.849  0.1588 -0.0613 -0.1539
 5475W        W 9219   6.437   0.766  10.852  0.1593  0.0427  0.2281
 5476W        W 9220   2.364   2.160   2.752 -0.0193  0.1413 -0.2385
 5477W        W 9221   6.349   9.084   0.033 -0.1273  0.2219  0.3491
 5478W        W 9222   0.930   5.716   0.573 -0.0056 -0.0638  0.3613
 5479W        W 9223   9.080   3.089   4.138 -0.2018 -0.1531  0.0628
 5480W        W 9224   3.749   5.149   0.762 -0.0956  0.1027 -0.0601
 5481W        W 9225   1.942   1.821   0.129  0.1868 -0.0330 -0.0648
 5482W        W 9226   7.120   0.105   9.948  0.1269 -0.1252 -0.1975
 5483W        W 9227   8.604   1.858  10.024 -0.2908  0.0382  0.1176
 5484W        W 9228   6.763   1.181  10.090 -0.0619  0.1067 -0.1987
 5485W        W 9229   4.525   6.228   1.438 -0.0230 -0.2161 -0.1324
 5486W        W 9230   6.718   1.057  12.362 -0.0606  0.2679 -0.2088
 5487W        W 9231   0.899   9.159  10.991 -0.0518  0.0841 -0.1290
 5488W        W 9232   7.875   7.493   9.311 -0.1090  0.0001  0.1735
 5489W        W 9233   9.084   1.729   4.018  0.5146 -0.2408 -0.1669
 5490W        W 9234   3.744   0.164   2.341 -0.1293  0.4034 -0.1386
 5491W        W 9235   2.416   3.574   2.866  0.1135  0.0422  0.0771
 5492W        W 9236   2.936   3.756  10.554 -0.0020 -0.0941 -0.0717
 5493W        W 9237   1.641   3.042   3.267 -0.3654 -0.1503 -0.0076
 5494W        W 9238   5.645   8.470  12.370  0.0211 -0.2562 -0.1174
 5495W        W 9239   0.344   8.248   3.872 -0.1605  0.0338  0.2343
 5496W        W 9240   8.569   2.503  12.013 -0.1139 -0.4624 -0.0888
 5497W        W 9241   2.741   6.338  11.159  0.1066 -0.0221 -0.2686
 5498W        W 9242   2.207   4.221  11.128  0.0098  0.0774 -0.1827
 5499W        W 9243   9.761   9.652   8.703 -0.0228 -0.2639 -0.3147
 5500W        W 9244   9.695   9.377   0.131  0.1427 -0.0042 -0.1674
 5501W        W 9245   4.145   9.182  12.140  0.2507 -0.1838 -0.1341
 5502W        W 9246   6.724   3.631   1.972 -0.0157 -0.4055  0.0120
 5503W        W 9247   7.982   9.325   0.018  0.0112  0.1632 -0.0328
 5504W        W 9248   5.051   5.966   9.372  0.0537 -0.4034 -0.3604
 5505W        W 9249   3.627   4.247   2.183 -0.1104  0.0169  0.1452
 5506W        W 9250   1.834   5.504   9.586  0.0734  0.3580 -0.5404
 5507W        W 9251   8.732   5.506   3.310  0.0624 -0.1369 -0.3720
 5508W        W 9252   9.712   1.400  11.113  0.0627  0.1400 -0.1279
 5509W        W 9253   5.515   8.011  10.668 -0.0656 -0.0842 -0.0511
 5510W        W 9254   6.880   7.135   0.614 -0.3221  0.1035  0.0221
 5511W        W 9255   4.146   9.833   3.337 -0.4476  0.2555 -0.0451
 5512W        W 9256   3.162   5.367   3.537 -0.3395  0.4192 -0.1338
 5513W        W 9257   2.968   7.848   0.820  0.0309  0.1274  0.1669
 5514W        W 9258   3.288   5.886   8.956 -0.2706 -0.2618  0.1991
 5515W        W 9259   6.005   9.326   0.926  0.0395  0.0593  0.1591
 5516W        W 9260   7.259   5.978   0.112 -0.1916 -0.1838 -0.0438
 5517W        W 9261   7.311   4.638   2.876  0.1203 -0.0376 -0.0598
 5518W        W 9262   7.859   2.886   1.664  0.3443 -0.2272  0.1082
 5519W        W 9263   8.567   7.714  10.197 -0.1021  0.2356  0.0053
 5520W        W 9264   0.718   7.741   9.683  0.2064  0.4005 -0.3224
 5521W        W 9265   5.832   1.779   0.786  0.1514 -0.1117 -0.0616
 5522W        W 9266   8.758   6.719   3.877 -0.1173  0.3253  0.0722
 5523W        W 9267   7.694   0.278   4.760  0.3582 -0.1151  0.0324
 5524W        W 9268   9.260   8.181   4.501  0.0578  0.2717 -0.0286
 5525W        W 9269   4.786   6.189  10.372 -0.3695  0.1149  0.4970
 5526W        W 9270   0.749   2.933  12.507 -0.1359 -0.0219  0.1584
 5527W        W 9271   7.899   2.872  10.716 -0.2397 -0.1067  0.1221
 5528W        W 9272   2.122   0.260   4.679  0.1258  0.0464  0.1657
 5529W        W 9273   4.232   6.244   9.997 -0.0768 -0.1104 -0.0381
 5530W        W 9274   2.363   9.537   1.391  0.0625  0.0829  0.0467
 5531W        W 9275   7.573   1.622   3.873  0.0510 -0.3759  0.0057
 5532W        W 9276   6.955   7.039   0.122  0.4161 -0.0498  0.1007
 5533W        W 9277   4.300   5.238   0.793 -0.0710  0.1123 -0.0394
 5534W        W 9278   8.959   8.357  11.368 -0.2657 -0.1062  0.1109
 5535W        W 9279   6.112   6.104  11.520  0.1665  0.1584  0.1256
 5536W        W 9280   9.875   0.852   4.164  0.2921 -0.1259  0.0075
 5537W        W 9281   7.338   8.390  10.168 -0.2104 -0.0020 -0.1717
 5538W        W 9282   8.982   0.978   0.052  0.2350  0.0476  0.1905
 5539W        W 9283   5.989   5.045   9.994  0.0978  0.0081 -0.1646
 5540W        W 9284   4.807   8.026   7.534 -0.4004 -0.1481  0.1418
 5541W        W 9285   2.983   1.738   3.346 -0.2962 -0.1056 -0.2945
 5542W        W 9286   8.491   0.817   4.271  0.0148 -0.0174  0.3562
 5543W        W 9287   1.089   9.786   2.294 -0.1239  0.2139  0.1519
 5544W        W 9288   2.668   5.840   1.373  0.1382  0.2665  0.1557
 5545W        W 9289   3.545   0.584   1.491 -0.6322 -0.2173  0.1267
 5546W        W 9290   4.745   0.044   2.060  0.1427 -0.0206  0.1005
 5547W        W 9291   5.359   9.125  11.626  0.1743 -0.1825 -0.1601
 5548W        W 9292   8.650   0.390   0.733 -0.1400  0.3234 -0.2127
 5549W        W 9293   1.039   4.039   0.675 -0.0126  0.0271 -0.0007
 5550W        W 9294   5.780   3.466   4.070  0.0488 -0.1366  0.1375
 5551W        W 9295   0.798   1.348  10.849 -0.0046  0.1290  0.3807
 5552W        W 9296   3.367   5.981  11.241  0.1134 -0.1694  0.1842
 5553W        W 9297   8.868   7.511  11.869  0.1959  0.1134 -0.3514
 5554W        W 9298   9.591   2.272   4.971 -0.3295  0.0556 -0.1144
 5555W        W 9299   8.215   8.254   9.384  0.4161  0.1202 -0.3365
 5556W        W 9300   3.604   8.961  11.362  0.2405 -0.1145  0.0619
 5557W        W 9301   9.529   9.517   1.311  0.1974  0.0711 -0.0321
 5558W        W 9302   9.528   1.227  10.440  0.5346  0.0690 -0.0827
 5559W        W 9303   0.188   1.014   9.554 -0.0045  0.1850 -0.0642
 5560W        W 9304   8.094   2.508  11.082 -0.0103  0.0624  0.0002
 5561W        W 9305   9.071   9.616   2.933 -0.0229  0.3241 -0.0754
 5562W        W 9306   8.595   1.244  10.506  0.0606  0.0155 -0.0814
 5563W        W 9307   4.609   7.531  11.082 -0.0045 -0.1352 -0.0518
 5564W        W 9308   3.455   0.693  11.631 -0.1180 -0.0073  0.1639
 5565W        W 9309   2.996   4.945   2.028 -0.1179 -0.2869 -0.0510
 5566W        W 9310   0.801   0.633   3.635 -0.2105  0.1850 -0.1521
 5567W        W 9311   9.262   4.599   4.129 -0.0938 -0.2749 -0.0938
 5568W        W 9312   8.286   2.834   9.855  0.0164  0.1061  0.0091
 5569W        W 9313   6.787   3.680  11.019 -0.0479  0.2559 -0.3101
 5570W        W 9314   2.956   8.533  11.967 -0.1791 -0.0882 -0.1199
 5571W        W 9315   3.534   2.087  11.175  0.2960 -0.1441 -0.1010
 5572W        W 9316   9.409   3.036  10.736  0.0411  0.5614  0.2088
 5573W        W 9317   9.509   2.209  12.445 -0.2756 -0.1548  0.2282
 5574W        W 9318   2.296   3.410   0.364  0.0968  0.3726  0.1729
 5575W        W 9319   2.531   8.393   0.824 -0.0080 -0.2444 -0.0072
 5576W        W 9320   9.066   7.722   1.708 -0.0814  0.2028  0.1228
 5577W        W 9321   0.127   6.969   3.136 -0.1642 -0.1604  0.1768
 5578W        W 9322   8.537   4.632  12.381  0.0857 -0.3166 -0.2405
 5579W        W 9323   3.712   4.474   9.690  0.4428 -0.1245 -0.1091
 5580W        W 9324   7.554   5.287   3.329 -0.2357 -0.1215 -0.0192
 5581W        W 9325   7.824   7.502   0.064 -0.2316 -0.1842 -0.0051
 5582W        W 9326   6.409   0.637  12.703  0.0094  0.0576  0.0741
 5583W        W 9327   2.588   4.408   8.430 -0.0616  0.3651  0.4166
 5584W        W 9328   5.134   5.048   9.998  0.3871  0.0267 -0.1881
 5585W        W 9329   3.444   4.673   2.207  0.3039 -0.2715  0.2174
 5586W        W 9330   6.598   7.315  11.778  0.0604 -0.1936 -0.0333
 5587W        W 9331   8.142   6.025   0.180  0.1548 -0.1471  0.0984
 5588W        W 9332   3.871   5.087   1.403  0.0045 -0.2543  0.1990
 5589W        W 9333   0.534   0.294   0.147 -0.1699 -0.1007  0.3032
 5590W        W 9334   5.599   0.251   2.738 -0.0389 -0.0251  0.0060
 5591W        W 9335   6.033   5.975  12.785  0.1927  0.0120 -0.0185
 5592W        W 9336   5.429   3.714  11.730 -0.2807  0.2358 -0.0848
 5593W        W 9337   6.749   6.378   9.062 -0.3105 -0.0175 -0.0274
 5594W        W 9338   4.066   5.981  10.790  0.3271 -0.0045 -0.0194
 5595W        W 9339   9.067   9.088   4.591  0.1338  0.0209 -0.2829
 5596W        W 9340   2.142   5.367  10.273 -0.2492  0.1796 -0.0784
 5597W        W 9341   3.762   3.054  11.214 -0.1341 -0.3731  0.2383
 5598W        W 9342   3.842   3.336   8.665 -0.0083 -0.0763  0.0838
 5599W        W 9343   8.390   8.753   1.654  0.1293  0.0733  0.1519
 5600W        W 9344   3.154   3.793   1.554  0.2138  0.0507  0.2007
 5601W        W 9345   2.236   6.787   8.710  0.1289  0.2001  0.1699
 5602W        W 9346   6.461   2.451  10.157 -0.0674  0.2418  0.1463
 5603W        W 9347   4.072   3.557   0.656  0.0229  0.1610  0.0439
 5604W        W 9348   5.777   2.699  11.883 -0.1225 -0.0757  0.1294
 5605W        W 9349   6.697   0.940  12.909  0.1710  0.1947 -0.0117
 5606W        W 9350   1.404   5.764   9.442 -0.2203 -0.2847 -0.1013
 5607W        W 9351   2.351   3.099   2.605 -0.0168  0.3135  0.0566
 5608W        W 9352   9.883   7.287  10.825 -0.2390 -0.1016  0.0656
 5609W        W 9353   6.207   5.983   2.367 -0.1947  0.0432  0.1993
 5610W        W 9354   4.214   9.122   5.674  0.1822  0.1189 -0.0398
 5611W        W 9355   4.354   0.225   8.743  0.0438  0.0797 -0.0212
 5612W        W 9356   0.563   2.768   1.671  0.0323 -0.0078  0.0349
 5613W        W 9357   9.255   4.044  10.946  0.2285 -0.0827  0.1970
 5614W        W 9358   6.238   1.343   2.423 -0.3356 -0.0870 -0.2448
 5615W        W 9359   6.742   9.766   0.070 -0.1275  0.0261  0.1257
 5616W        W 9360   7.128   9.440   1.166 -0.2184 -0.0982 -0.1438
 5617W        W 9361   4.126   8.994  11.308 -0.0819  0.0227  0.1707
 5618W        W 9362   8.658   9.712   3.893  0.3461  0.1239 -0.2337
 5619W        W 9363   6.264   9.767  10.697  0.1725  0.0818 -0.1402
 5620W        W 9364   9.734   3.585   5.297  0.0514  0.1017  0.0785
 5621W        W 9365   0.224   3.626   3.542  0.1974  0.2349 -0.3126
 5622W        W 9366   9.601   4.359   8.675  0.1560 -0.2459 -0.2634
 5623W        W 9367   9.524   6.224  10.155  0.0476  0.0318 -0.5786
 5624W        W 9368   4.519   4.451  11.052 -0.1676  0.2918  0.2339
 5625W        W 9369   6.015   3.185   5.325 -0.3049  0.1225  0.2097
 5626W        W 9370   1.023   3.811  12.345 -0.2001 -0.2357  0.5453
 5627W        W 9371   0.568   7.837   3.667  0.0842  0.0343 -0.0946
 5628W        W 9372   6.576   2.806   0.725 -0.0493 -0.2092  0.2712
 5629W        W 9373   9.033   8.967  12.133 -0.2296 -0.0335 -0.0591
 5630W        W 9374   5.124   2.330   9.170  0.2974 -0.3328  0.0590
 5631W        W 9375   9.245   8.788  10.306 -0.0373  0.1541  0.0720
 5632W        W 9376   8.222   4.864  11.992 -0.2306 -0.0384 -0.1227
 5633W        W 9377   4.373   2.868  12.702 -0.0889 -0.1080 -0.3135
 5634W        W 9378   4.039   3.595   1.161  0.0521 -0.1436 -0.0866
 5635W        W 9379   3.770   3.983   0.267  0.0432 -0.0439  0.0324
 5636W        W 9380   6.277   4.370   1.346  0.1662 -0.3649  0.0986
 5637W        W 9381   6.550   8.219  11.461 -0.2991 -0.3305  0.0563
 5638W        W 9382   6.910   2.911  12.750 -0.3158 -0.2570 -0.1430
 5639W        W 9383   6.034   4.032   2.068  0.1750 -0.0514  0.0566
 5640W        W 9384   8.836   1.627   9.310 -0.0464  0.0113  0.1340
 5641W        W 9385   7.617   4.794   4.140  0.1130 -0.3050 -0.0503
 5642W        W 9386   9.412   4.118  11.407 -0.0584 -0.0662 -0.4179
 5643W        W 9387   3.920   2.441   1.556  0.1524 -0.2536 -0.0006
 5644W        W 9388   8.628   0.071   0.346 -0.1121 -0.1659 -0.2223
 5645W        W 9389   8.541   7.166  10.112  0.0744 -0.1927 -0.0911
 5646W        W 9390   5.090   9.443   9.003  0.3349 -0.0355 -0.0067
 5647W        W 9391   3.088   1.319   1.285  0.3621 -0.0089 -0.0298
 5648W        W 9392   9.630   1.396   1.518 -0.0222  0.1034  0.1072
 5649W        W 9393   4.901   1.273   2.718 -0.3221 -0.2987  0.0485
 5650W        W 9394   9.649   5.218   3.498  0.1894  0.1658 -0.1812
 5651W        W 9395   2.976   6.850   4.195 -0.1320  0.1133  0.1007
 5652W        W 9396   6.508   5.460  11.768 -0.0988 -0.0489  0.2418
 5653W        W 9397   5.398   2.336   3.360  0.0221  0.0052 -0.0337
 5654W        W 9398   6.035   0.453   3.030 -0.3238 -0.0582 -0.0214
 5655W        W 9399   6.397   3.308   2.178 -0.0125  0.0520  0.1243
 5656W        W 9400   7.253   9.422   2.670 -0.1761 -0.3466 -0.0318
 5657W        W 9401   5.350   0.539   2.437 -0.1162 -0.2159  0.3971
 5658W        W 9402   3.691   3.608   1.630  0.1030  0.1545 -0.3818
 5659W        W 9403   8.577   0.083   9.669 -0.0851 -0.2645  0.0712
 5660W        W 9404   9.721   2.776  12.500  0.1204 -0.0368  0.0114
 5661W        W 9405   0.933   1.505   3.362  0.3407 -0.1166  0.4055
 5662W        W 9406   1.687   0.091   3.479 -0.1746 -0.1778 -0.0511
 5663W        W 9407   1.280   7.876  10.478  0.0934  0.1008 -0.1763
 5664W        W 9408   9.074   7.383   9.596  0.3621  0.1991  0.0848
 5665W        W 9409   5.105   8.105  11.576  0.2193 -0.0666  0.0490
 5666W        W 9410   1.619   3.208   0.479 -0.1886  0.1625 -0.0158
 5667W        W 9411   1.702   9.195  12.844 -0.0796  0.0709 -0.3069
 5668W        W 9412   8.648   7.475   4.234  0.0454 -0.1142  0.0057
 5669W        W 9413   2.486   8.894   9.541  0.1090  0.0151 -0.0599
 5670W        W 9414   2.773   3.455   0.196 -0.2087  0.0895 -0.3813
 5671W        W 9415   1.457   6.529   8.688 -0.4364  0.2024  0.1306
 5672W        W 9416   8.556   3.038  10.654 -0.1321 -0.2495  0.0078
 5673W        W 9417   0.440   2.935   0.883  0.1875  0.0309 -0.0805
 5674W        W 9418   7.858   6.944   4.388 -0.3080  0.0106 -0.1267
 5675W        W 9419   0.145   6.507   1.419  0.2449 -0.2928  0.1173
 5676W        W 9420   4.240   0.332  11.039 -0.0461 -0.0681  0.0458
 5677W        W 9421   1.750   3.311   1.973 -0.2414  0.1477 -0.1085
 5678W        W 9422   2.304   3.990   2.599  0.1023 -0.3732  0.0430
 5679W        W 9423   5.886   5.417   0.044 -0.0528  0.3726  0.0391
 5680W        W 9424   3.919   9.417  11.184  0.2701 -0.0219  0.1763
 5681W        W 9425   6.269   8.427   0.581 -0.0176 -0.0493 -0.1219
 5682W        W 9426   5.376   4.333   3.794  0.0526  0.1491 -0.0604
 5683W        W 9427   4.547   0.189  11.551 -0.1176  0.2939  0.1051
 5684W        W 9428   3.867   1.041   1.652  0.1660 -0.0704 -0.0939
 5685W        W 9429   8.804   7.714   2.430 -0.0274 -0.0327  0.0950
 5686W        W 9430   8.273   5.111   7.722 -0.0814 -0.3542  0.1098
 5687W        W 9431   5.173   0.319  11.374 -0.4902 -0.0855 -0.0261
 5688W        W 9432   3.526   7.669   0.284 -0.1737  0.3111  0.0011
 5689W        W 9433   9.699   2.694   4.585 -0.2357  0.1786  0.0701
 5690W        W 9434   0.508   6.650  10.330 -0.3048 -0.0394 -0.1545
 5691W        W 9435   2.135   8.508   0.348 -0.0447 -0.0071 -0.3012
 5692W        W 9436   7.086   9.219   2.170 -0.1001  0.0780  0.0458
 5693W        W 9437   6.970   9.384   9.620  0.0780  0.0714 -0.2641
 5694W        W 9438   4.962   5.793  10.650  0.0428  0.0176  0.0509
 5695W        W 9439   6.270   5.079   2.409  0.0334 -0.0794 -0.0249
 5696W        W 9440   1.109   5.897   1.778  0.3083  0.5106  0.0221
 5697W        W 9441   6.818   6.057   3.091 -0.3084  0.0303 -0.1460
 5698W        W 9442   1.747   5.381  12.739  0.0529  0.2529 -0.0413
 5699W        W 9443   1.521   4.745   4.062 -0.3199 -0.1886  0.0621
 5700W        W 9444   5.916   8.771   0.965 -0.0296 -0.1365  0.0962
 5701W        W 9445   8.331   8.232  12.954 -0.2657  0.1496  0.1516
 5702W        W 9446   6.329   9.310   1.319 -0.0029  0.0671  0.0167
 5703W        W 9447   3.234   3.943   2.100  0.2912 -0.1072  0.2339
 5704W        W 9448   1.913   1.353   2.902  0.0375  0.2229  0.2656
 5705W        W 9449   4.103   3.266  12.385 -0.0171 -0.4039  0.0418
 5706W        W 9450   9.652   7.624   3.639 -0.4649 -0.1225  0.0771
 5707W        W 9451   7.395   3.022   0.809 -0.1454 -0.0537  0.2321
 5708W        W 9452   8.632   4.216  11.681  0.1878 -0.1659 -0.4294
 5709W        W 9453   4.246   1.614   3.393  0.0027  0.1459  0.0517
 5710W        W 9454   4.141   2.831   8.408 -0.0029 -0.2830 -0.0270
 5711W        W 9455   6.355   1.833   2.441 -0.0258  0.0539  0.2935
 5712W        W 9456   5.962   6.636  10.770 -0.0621  0.0479 -0.1021
 5713W        W 9457   6.485   0.374  11.708  0.2495  0.4045 -0.1847
 5714W        W 9458   8.612   2.755   2.864 -0.1494 -0.1536  0.1080
 5715W        W 9459   1.501   7.326   2.970  0.1908  0.3066 -0.1260
 5716W        W 9460   5.688   2.760   3.653  0.1778 -0.0945  0.0969
 5717W        W 9461   2.199   4.594  12.777  0.2254  0.0299  0.3214
 5718W        W 9462   7.222   6.789  12.104 -0.0963 -0.0359  0.0347
 5719W        W 9463   1.186   3.503   1.259  0.0396  0.2839 -0.1295
 5720W        W 9464   0.077   5.291  12.642 -0.2734  0.1178 -0.0202
 5721W        W 9465   3.307   3.186   0.339 -0.1545  0.1243 -0.1194
 5722W        W 9466   3.428   1.039   8.976 -0.0835 -0.0900 -0.1139
 5723W        W 9467   6.715   5.121   3.716 -0.1721 -0.1485 -0.0304
 5724W        W 9468   9.028   1.248   9.586 -0.2270 -0.0962 -0.1227
 5725W        W 9469   9.696   8.233   3.296 -0.1642 -0.1239  0.1374
 5726W        W 9470   1.860   2.674   1.401 -0.2321  0.4002  0.0438
 5727W        W 9471   9.347   5.005   1.595 -0.1684 -0.0100 -0.0456
 5728W        W 9472   0.426   3.537   4.448  0.0766 -0.0448  0.2997
 5729W        W 9473   1.058   5.608   3.085 -0.4200  0.2206 -0.2403
 5730W        W 9474   8.226   8.271  11.597 -0.0013  0.1971 -0.1270
 5731W        W 9475   6.099   3.974  12.932  0.1349 -0.1665  0.3709
 5732W        W 9476   1.888   8.112   3.497 -0.2378  0.3935  0.0599
 5733W        W 9477   3.241   0.894   2.237 -0.1040 -0.0204 -0.0814
 5734W        W 9478   9.247   8.262   3.086  0.3262 -0.0462 -0.2310
 5735W        W 9479   4.820   3.910   3.113 -0.0459  0.0291  0.2607
 5736W        W 9480   5.716   4.383   9.704 -0.2837  0.1689  0.3970
 5737W        W 9481   9.662   4.237   2.325  0.4668 -0.2839 -0.1723
 5738W        W 9482   5.411   1.482   0.863  0.1639  0.1839  0.0550
 5739W        W 9483   9.179   0.569   2.865  0.2542  0.2894  0.3153
 5740W        W 9484   2.485   6.434  12.325 -0.1677 -0.0837  0.0813
 5741W        W 9485   4.312   2.769   9.841  0.0041 -0.1350  0.0380
 5742W        W 9486   9.257   4.236   8.299  0.2400  0.0830  0.1848
 5743W        W 9487   0.745   8.044   1.698  0.2488  0.0087 -0.0229
 5744W        W 9488   2.031   1.898   9.650 -0.2332  0.0555 -0.1186
 5745W        W 9489   6.623   4.766   3.388 -0.0603 -0.2257 -0.2751
 5746W        W 9490   3.766   2.637  12.639  0.1752 -0.0574  0.3641
 5747W        W 9491   6.294   2.542   8.647  0.0017  0.1859 -0.0387
 5748W        W 9492   0.204   3.723   1.278  0.2336  0.3348  0.0977
 5749W        W 9493   6.810   1.468  12.634 -0.0357 -0.0248 -0.0053
 5750W        W 9494   8.704   1.306  11.288  0.2610 -0.0517  0.2109
 5751W        W 9495   5.918   3.140   2.808  0.2105 -0.1400 -0.5389
 5752W        W 9496   6.000   6.785   2.302 -0.1868 -0.2950 -0.1521
 5753W        W 9497   6.270   6.705   1.663  0.0600  0.0913  0.0914
 5754W        W 9498   5.051   9.797   0.284  0.0941 -0.1585  0.0867
 5755W        W 9499   0.217   3.596  12.490 -0.0444 -0.2093 -0.1705
 5756W        W 9500   2.038   4.677  10.899 -0.0166 -0.0084  0.1375
 5757W        W 9501   1.705   2.346  11.717  0.1380 -0.1128  0.0097
 5758W        W 9502   9.338   0.662   1.870  0.2878  0.3075  0.0136
 5759W        W 9503   5.427   0.623  12.701  0.0061  0.1500  0.1491
 5760W        W 9504   0.113   8.431  10.340  0.2611  0.3500  0.0390
 5761W        W 9505   2.358   0.569  10.864 -0.0864  0.0014 -0.3513
 5762W        W 9506   3.819   3.171   1.340 -0.0237 -0.1908  0.1169
 5763W        W 9507   4.125   2.247   3.218  0.2583 -0.3439  0.0424
 5764W        W 9508   9.451   9.671   1.933 -0.1514 -0.1238 -0.1970
 5765W        W 9509   3.793   4.076   2.640 -0.0225 -0.0791  0.1116
 5766W        W 9510   8.660   4.885   0.967 -0.0307 -0.1768  0.0723
 5767W        W 9511   3.114   5.428   9.876  0.3399 -0.0211  0.1082
 5768W        W 9512   2.383   1.951   2.205  0.3139 -0.1392 -0.1013
 5769W        W 9513   8.399   2.432   9.407  0.0216 -0.1253 -0.0777
 5770W        W 9514   2.053   6.182  12.277  0.0158  0.0666  0.0048
 5771W        W 9515   9.888   1.274  10.150 -0.0163  0.0576 -0.1136
 5772W        W 9516   7.863   9.048   9.193  0.1471  0.1991  0.4681
 5773W        W 9517   3.251   1.888   2.354 -0.1309 -0.0774  0.1220
 5774W        W 9518   5.692   2.455  11.342 -0.0011 -0.2800  0.1750
 5775W        W 9519   3.608   4.687   1.363  0.1004  0.3033 -0.3826
 5776W        W 9520   5.796   1.780  10.009 -0.2300  0.4216  0.3070
 5777W        W 9521   7.237   4.413   2.171  0.2678  0.2646 -0.2606
 5778W        W 9522   8.754   9.251   0.923 -0.2870  0.2622  0.0889
 5779W        W 9523   0.389   0.533  10.307  0.3359 -0.0767  0.0501
 5780W        W 9524   0.552   4.573  10.813 -0.1056 -0.1518 -0.0011
 5781W        W 9525   2.293   6.201   4.274  0.0119 -0.0917  0.0315
 5782W        W 9526   3.341   8.020   3.681 -0.0441  0.3752  0.1727
 5783W        W 9527   2.889   7.998   8.878  0.0300  0.1217 -0.0713
 5784W        W 9528   1.371   3.223  12.004 -0.0025 -0.3433 -0.0313
 5785W        W 9529   2.689   1.424  10.124 -0.0985  0.1947  0.0648
 5786W        W 9530   3.668   2.814   3.281 -0.0526  0.2455  0.0476
 5787W        W 9531   5.854   8.502   2.227  0.1454  0.2581 -0.0664
 5788W        W 9532   9.805   1.373   2.815  0.0291  0.3711 -0.0643
 5789W        W 9533   2.129   5.190  11.890 -0.0578 -0.0482 -0.3778
 5790W        W 9534   6.117   9.087   9.541 -0.0406 -0.0100  0.0680
 5791W        W 9535   9.693   5.727   3.617  0.2423  0.0745  0.0724
 5792W        W 9536   4.168   5.927  12.049  0.0360  0.1048 -0.0347
 5793W        W 9537   0.263   8.321   2.061  0.0336 -0.1084 -0.2270
 5794W        W 9538   8.093   8.579   0.316 -0.1936  0.3669  0.0486
 5795W        W 9539   3.881   4.659  12.606  0.0497  0.0692 -0.0797
 5796W        W 9540   4.367   1.840  11.100  0.1626  0.0140 -0.0805
 5797W        W 9541   9.899   4.347   2.766  0.1562  0.0514  0.1844
 5798W        W 9542   5.718   3.841   0.342 -0.0591  0.4560 -0.1826
 5799W        W 9543   1.980   1.354   0.673 -0.0687  0.2840 -0.0234
 5800W        W 9544   0.898   0.059  12.167 -0.2041  0.0458  0.5072
 5801W        W 9545   3.037   4.436  10.465  0.2069 -0.0013 -0.2017
 5802W        W 9546   7.569   5.654   5.023  0.0761  0.1050  0.5940
 5803W        W 9547   2.889   1.434  10.751 -0.2608  0.0761 -0.3744
 5804W        W 9548   0.233   2.161   3.172 -0.1893  0.0015 -0.1526
 5805W        W 9549   5.214   8.000   2.865  0.1203 -0.0022  0.0139
 5806W        W 9550   2.089   5.517   0.409  0.1712  0.1432  0.5168
 5807W        W 9551   8.538   4.801  11.349  0.0501  0.2007 -0.2289
 5808W        W 9552   1.032   4.697   3.169  0.0211  0.1750  0.0732
 5809W        W 9553   0.719   5.360  10.933  0.2501 -0.0418 -0.3250
 5810W        W 9554   4.617   7.981  11.298 -0.2938 -0.4051  0.0333
 5811W        W 9555   8.726   0.447  10.032  0.1011 -0.2693  0.1420
 5812W        W 9556   4.450   8.627  11.441  0.2447  0.3867 -0.0167
 5813W        W 9557   7.482   1.114   4.125  0.0155 -0.1686 -0.2594
 5814W        W 9558   2.833   5.993   8.682  0.2883  0.4821 -0.0271
 5815W        W 9559   6.226   3.816   3.493  0.3765 -0.1695 -0.1029
 5816W        W 9560   4.387   7.760   1.609 -0.2601  0.1115 -0.1099
 5817W        W 9561   8.304   6.665  12.979  0.1257 -0.0212  0.0560
 5818W        W 9562   9.381   7.679  12.015  0.4291 -0.2679 -0.0618
 5819W        W 9563   8.636   2.681   2.178  0.2585  0.0732 -0.1694
 5820W        W 9564   6.249   0.454   1.098 -0.0431 -0.2821  0.0330
 5821W        W 9565   8.614   0.119   2.210 -0.4356  0.0077  0.0928
 5822W        W 9566   7.135   0.470   2.569  0.1686  0.2023  0.0333
 5823W        W 9567   9.209   7.462   9.104 -0.1038 -0.1941 -0.3639
 5824W        W 9568   9.378   2.536   1.906 -0.0567 -0.1020  0.3646
 5825W        W 9569   5.526   3.033   8.638  0.0613  0.3459  0.1302
 5826W        W 9570   2.273   0.588   0.333  0.0685 -0.3460  0.1752
 5827W        W 9571   3.798   0.640   0.406 -0.1971  0.1020 -0.2288
 5828W        W 9572   4.760   9.258  10.703 -0.2311  0.2349  0.3048
 5829W        W 9573   8.360   4.269   0.144  0.0027 -0.0200  0.0044
 5830W        W 9574   7.622   1.456   9.584  0.3680  0.1928  0.0609
 5831W        W 9575   1.040   2.255   2.374  0.0248  0.4155 -0.0352
 5832W        W 9576   3.228   1.052   0.821  0.4329  0.0304 -0.0210
 5833W        W 9577   0.128   0.917  10.657  0.0584 -0.4886  0.0708
 5834W        W 9578   0.202   6.180  12.926 -0.0525  0.2434 -0.0793
 5835W        W 9579   7.513   2.724   4.017  0.3518 -0.0390 -0.3914
 5836W        W 9580   6.399   2.769   9.706 -0.3174 -0.3886  0.0670
 5837W        W 9581   4.246   1.180  11.581 -0.1382 -0.1346 -0.2749
 5838W        W 9582   8.188   5.636  12.847  0.0960 -0.0088 -0.0745
 5839W        W 9583   2.101   7.946   2.929 -0.3804 -0.0154 -0.1669
 5840W        W 9584   5.937   8.226  11.346 -0.2764 -0.0291 -0.2041
 5841W        W 9585   0.240   6.419   9.890 -0.2094  0.0158 -0.0163
 5842W        W 9586   2.179   5.893   0.908 -0.1112  0.1451  0.2982
 5843W        W 9587   6.960   2.393   2.960  0.0852 -0.0488 -0.1276
 5844W        W 9588   4.651   0.856  10.693 -0.2189  0.2802 -0.0471
 5845W        W 9589   2.754   1.870   9.238 -0.2142 -0.1814 -0.2084
 5846W        W 9590   7.075   6.016  11.228  0.3023 -0.0850 -0.2953
 5847W        W 9591   0.833   2.375  11.178  0.4048  0.3876  0.1238
 5848W        W 9592   1.370   8.395   3.497 -0.1901 -0.1220  0.2285
 5849W        W 9593   1.818   3.460   9.767 -0.1191  0.4527 -0.1414
 5850W        W 9594   7.158   3.660   3.923 -0.2231  0.0728 -0.0519
 5851W        W 9595   4.304   0.447   0.704 -0.0240 -0.0553  0.1800
 5852W        W 9596   1.066   8.745   3.885  0.0513  0.1384  0.1112
 5853W        W 9597   1.622   9.858   0.811 -0.1290 -0.0261 -0.1304
 5854W        W 9598   1.562   8.765   1.195  0.2086  0.0650  0.0722
 5855W        W 9599   6.984   6.386  11.688 -0.2052 -0.4227 -0.0793
 5856W        W 9600   2.525   9.234   9.191  0.0334 -0.1087 -0.1543
 5857W        W 9601   7.065   7.478   9.032 -0.1498  0.2751 -0.2056
 5858W        W 9602   6.337   7.672  11.480  0.0859  0.4079 -0.2297
 5859W        W 9603   9.574   3.076   4.011 -0.0479  0.1244  0.1181
 5860W        W 9604   2.592   0.921   2.963  0.4075 -0.1186  0.2943
 5861W        W 9605   6.388   6.631   8.639 -0.0585 -0.1268  0.0530
 5862W        W 9606   4.153   8.947   0.180 -0.0601 -0.2200  0.2954
 5863W        W 9607   2.026   4.287  12.327  0.0796 -0.1329  0.1300
 5864W        W 9608   8.439   5.269  11.764 -0.1838 -0.1395  0.0636
 5865W        W 9609   0.223   1.320   1.421 -0.2053  0.3000 -0.0531
 5866W        W 9610   4.643   5.127  12.762 -0.0520  0.0165  0.1303
 5867W        W 9611   1.401   8.269  10.013  0.1822  0.3888 -0.0610
 5868W        W 9612   6.807   6.931   1.994  0.0509 -0.0629 -0.3271
 5869W        W 9613   5.381   7.926   8.992 -0.1904 -0.0918  0.0757
 5870W        W 9614   8.500   4.227  11.253  0.1152 -0.1752  0.0547
 5871W        W 9615   3.489   2.295  10.693 -0.1910  0.2223 -0.2495
 5872W        W 9616   2.748   0.807  12.173 -0.0537 -0.3051 -0.2939
 5873W        W 9617   3.785   1.831   3.256 -0.1116 -0.1028  0.0024
 5874W        W 9618   2.239   2.708   4.470 -0.0458  0.6154 -0.1667
 5875W        W 9619   8.817   6.353   9.330  0.0601 -0.1240 -0.1656
 5876W        W 9620   7.633   1.701  12.445 -0.2196  0.1398  0.0420
 5877W        W 9621   8.048   6.026  11.245  0.0002 -0.3211  0.0404
 5878W        W 9622   8.140   1.618  12.425  0.2228  0.1182  0.0970
 5879W        W 9623   1.551   2.265   1.469 -0.0428  0.0771 -0.6049
 5880W        W 9624   7.186   4.795  11.514 -0.0907  0.1213  0.1902
 5881W        W 9625   8.695   6.595  12.061  0.0161 -0.1350  0.0774
 5882W        W 9626   9.233   0.145  12.467 -0.2463  0.0719  0.0374
 5883W        W 9627   6.871   7.663   0.870 -0.0444  0.2787 -0.0771
 5884W        W 9628   7.483   4.224   9.343 -0.0876  0.1165 -0.0085
 5885W        W 9629   2.062   0.928   2.480 -0.1368  0.0424  0.1383
 5886W        W 9630   5.226   3.748   4.249 -0.0066 -0.1432  0.0925
 5887W        W 9631   6.043   0.308   8.936 -0.2176 -0.0963 -0.0785
 5888W        W 9632   6.430   2.091   8.543  0.4029  0.0630  0.2952
 5889W        W 9633   9.098   6.607  11.304  0.1668  0.0314 -0.2783
 5890W        W 9634   7.409   4.841  10.595 -0.0421 -0.2799  0.0719
 5891W        W 9635   9.404   0.762  11.600  0.1672 -0.1492  0.0468
 5892W        W 9636   8.191   5.519   8.017 -0.0408 -0.0241  0.0490
 5893W        W 9637   5.615   5.432  11.297  0.2743 -0.1190 -0.0717
 5894W        W 9638   1.326   4.749   1.318 -0.2329 -0.2285 -0.0603
 5895W        W 9639   0.084   7.653   4.482 -0.1921 -0.2477 -0.3721
 5896W        W 9640   5.104   4.808  11.499  0.1626  0.2960  0.1495
 5897W        W 9641   5.301   0.532   1.511 -0.1997 -0.2533 -0.0885
 5898W        W 9642   0.237   6.768   4.566  0.0064  0.0351 -0.4331
 5899W        W 9643   5.861   7.003  12.204 -0.1614 -0.2591 -0.1791
 5900W        W 9644   7.220   4.648   0.084  0.2093  0.0287  0.0646
 5901W        W 9645   0.720   4.546  11.947  0.0889  0.3639 -0.1757
 5902W        W 9646   8.444   3.420   4.538  0.1155  0.0571  0.0298
 5903W        W 9647   0.416   6.898   2.144 -0.1679  0.1017  0.3804
 5904W        W 9648   5.052   3.285  10.752  0.0556  0.0109 -0.0890
 5905W        W 9649   5.775   9.817   0.504 -0.0227  0.2529  0.4561
 5906W        W 9650   0.788   7.710   2.707  0.1448 -0.0988 -0.0106
 5907W        W 9651   6.237   4.611   9.844 -0.0503 -0.0054  0.1969
 5908W        W 9652   3.119   9.372   0.154  0.0440 -0.2092  0.1021
 5909W        W 9653   8.505   2.815   8.739 -0.2134 -0.2045  0.3049
 5910W        W 9654   8.918   5.172  12.920  0.2561 -0.0710  0.1406
 5911W        W 9655   8.368   1.581   1.888  0.0769  0.0867  0.0182
 5912W        W 9656   8.096   1.790   2.522 -0.1234 -0.0704  0.2313
 5913W        W 9657   5.855   4.904   0.070  0.3148  0.2538  0.2565
 5914W        W 9658   7.265   5.600   1.580  0.3804 -0.0128  0.1453
 5915W        W 9659   5.940   2.235   0.473 -0.1177  0.1077 -0.0755
 5916W        W 9660   9.456   6.213   4.306 -0.0629  0.1060 -0.2629
 5917W        W 9661   2.468   8.681  10.730  0.2431 -0.0214  0.1644
 5918W        W 9662   2.384   1.673  12.392 -0.1101 -0.1009 -0.2959
 5919W        W 9663   1.064   4.734   5.197  0.0683 -0.0158  0.0968
 5920W        W 9664   7.838   4.854  10.156 -0.2719 -0.0913  0.1798
 5921W        W 9665   5.731   3.312  12.615  0.3491 -0.1231  0.0345
 5922W        W 9666   6.481   6.834   2.705 -0.3800  0.1022 -0.1037
 5923W        W 9667   0.687   7.156  11.951  0.1743 -0.2269  0.0047
 5924W        W 9668   3.669   5.202  11.517  0.0057 -0.1947 -0.0989
 5925W        W 9669   7.368   4.520  11.978  0.0501 -0.0127  0.0304
 5926W        W 9670   5.448   5.088   0.353  0.0354  0.2115  0.0654
 5927W        W 9671   3.148   9.389  12.086  0.1114  0.0730 -0.1696
 5928W        W 9672   9.181   0.231   0.959 -0.0504  0.0389  0.1000
 5929W        W 9673   5.480   9.524   2.936  0.0607 -0.0614  0.0351
 5930W        W 9674   2.934   8.937  11.165  0.0956 -0.2662 -0.0781
 5931W        W 9675   5.109   6.456  12.695 -0.0854 -0.3523  0.1600
 5932W        W 9676   4.763   3.116   1.158  0.0720  0.1141  0.0150
 5933W        W 9677   0.219   5.552  11.917 -0.0744  0.3006 -0.3608
 5934W        W 9678   0.069   5.881   0.866  0.0985  0.1922 -0.0664
 5935W        W 9679   3.435   9.793  12.153  0.0901 -0.0440  0.0440
 5936W        W 9680   8.312   9.577   2.435 -0.0819 -0.0199  0.1413
 5937W        W 9681   8.029   8.627   1.207 -0.0011 -0.1541 -0.0164
 5938W        W 9682   9.111   6.549   8.503 -0.0460  0.0218 -0.1245
 5939W        W 9683   6.107   3.255  11.331  0.1357 -0.4460  0.1020
 5940W        W 9684   5.534   6.853   9.616 -0.1210  0.3686  0.1279
 5941W        W 9685   0.347   0.314   1.142 -0.1433 -0.1116  0.0757
 5942W        W 9686   8.952   2.831  10.814 -0.1409 -0.0602  0.0618
 5943W        W 9687   9.739   8.999   1.551 -0.0661  0.0817  0.2190
 5944W        W 9688   5.111   6.040  11.893 -0.1549  0.2127  0.1239
 5945W        W 9689   5.385   4.174   8.884  0.1113  0.0930  0.0810
 5946W        W 9690   1.780   5.520   1.776  0.0408  0.1458  0.0789
 5947W        W 9691   2.159   7.519  12.154  0.3663  0.2336  0.0149
 5948W        W 9692   2.291   6.922  10.984 -0.1466 -0.0282 -0.1773
 5949W        W 9693   1.233   0.610   1.788  0.1447  0.2947  0.0632
 5950W        W 9694   5.166   9.104   2.056  0.2698  0.1068 -0.0358
 5951W        W 9695   3.454   7.501   2.522  0.0057  0.1307  0.0540
 5952W        W 9696   8.833   7.963   4.857  0.0466  0.0571  0.0554
 5953W        W 9697   7.485   3.353  12.586 -0.1821 -0.0097  0.0311
 5954W        W 9698   0.858   0.613  10.451 -0.3407 -0.1681 -0.0081
 5955W        W 9699   5.613   3.385   0.160 -0.3995  0.2070 -0.0411
 5956W        W 9700   3.123   2.342  11.039  0.0868  0.1868 -0.0480
 5957W        W 9701   8.045   5.306   4.130  0.3862  0.2473 -0.1108
 5958W        W 9702   5.018   3.094   8.573  0.1389  0.1897 -0.3545
 5959W        W 9703   7.591   3.599   3.586 -0.0733  0.1554 -0.1337
 5960W        W 9704   9.541   1.130   8.744 -0.4127  0.0282  0.2428
 5961W        W 9705   8.450   1.428   9.540  0.0349 -0.2609  0.1109
 5962W        W 9706   0.755   0.917   0.130 -0.2559  0.2417  0.3271
 5963W        W 9707   2.345   0.869  12.926  0.3062  0.0617 -0.2062
 5964W        W 9708   2.965   9.709  12.723  0.1522 -0.3031  0.1512
 5965W        W 9709   6.270   8.080   1.304 -0.0636  0.0381  0.1484
 5966W        W 9710   3.099   5.879  12.546  0.1046  0.2540 -0.3676
 5967W        W 9711   0.270   5.102   4.097 -0.0063  0.1780 -0.0749
 5968W        W 9712   5.948   7.262  10.406  0.1250  0.1748 -0.2361
 5969W        W 9713   4.798   3.283  11.627 -0.0974 -0.0625  0.2049
 5970W        W 9714   4.277   4.658   0.143  0.1483  0.1841  0.1016
 5971W        W 9715   9.460   5.531   1.912 -0.0809  0.1864 -0.1273
 5972W        W 9716   7.094   8.118   0.596 -0.1536 -0.0997  0.0624
 5973W        W 9717   2.935   1.991   0.841 -0.0582  0.0703  0.3577
 5974W        W 9718   0.205   8.929  10.302  0.0345 -0.3513  0.0421
 5975W        W 9719   7.450   5.506  12.729 -0.1244 -0.4377  0.0856
 5976W        W 9720   3.079   8.414  12.444  0.0784 -0.3126  0.1865
 5977W        W 9721   7.303   6.179   9.932 -0.0254  0.0291 -0.4318
 5978W        W 9722   0.117   2.424  12.222 -0.2539 -0.1192  0.1330
 5979W        W 9723   5.015   3.424   1.428  0.1044 -0.1774  0.0414
 5980W        W 9724   1.916   3.338   2.470 -0.1324 -0.1882  0.0590
 5981W        W 9725   1.490   4.804   0.588 -0.4388 -0.0908  0.0802
 5982W        W 9726   3.087   5.187   1.589  0.2316  0.0482 -0.1104
 5983W        W 9727   4.741   1.538   3.383 -0.1204 -0.0069  0.2858
 5984W        W 9728   4.290   6.422   0.928  0.2710  0.0791 -0.0253
 5985W        W 9729   8.336   6.690  12.376 -0.0542 -0.0878 -0.2662
 5986W        W 9730   1.206   4.452   9.050 -0.2558  0.3402 -0.1454
 5987W        W 9731   9.334   3.460   0.752  0.3282  0.0002 -0.1032
 5988W        W 9732   5.704   1.010  12.589 -0.0315 -0.0958  0.0129
 5989W        W 9733   1.497   3.973   3.122 -0.0736  0.0870 -0.1071
 5990W        W 9734   5.086   4.328   0.353  0.0152 -0.1978 -0.3805
 5991W        W 9735   2.294   3.306   4.551  0.0782 -0.4278  0.0675
 5992W        W 9736   8.933   4.213   9.597 -0.1474  0.0228 -0.0019
 5993W        W 9737   9.830   2.906  11.014 -0.1476 -0.0319 -0.1159
 5994W        W 9738   1.273   1.894  12.934 -0.3373 -0.0690  0.1156
 5995W        W 9739   4.282   8.833   0.724  0.1650 -0.1877  0.1474
 5996W        W 9740   6.467   1.617   3.278  0.2020 -0.0706 -0.0035
 5997W        W 9741   2.516   4.358   2.101  0.0723 -0.1299  0.0045
 5998W        W 9742   2.384   3.116   3.178  0.2257  0.3050  0.1099
 5999W        W 9743   7.126   1.088   9.451 -0.2161 -0.0800 -0.0837
 6000W        W 9744   3.504   3.172   4.176 -0.0847 -0.1429  0.1444
 6001W        W 9745   3.585   2.839   1.646  0.1064 -0.2120 -0.0033
 6002W        W 9746   3.704   3.228   0.829  0.1359  0.1420 -0.0653
 6003W        W 9747   1.363   2.432  12.064  0.1959  0.0365 -0.1857
 6004W        W 9748   4.423   2.955   9.375  0.1582 -0.2221 -0.0225
 6005W        W 9749   8.266   7.073  11.382 -0.1891 -0.1303  0.2905
 6006W        W 9750   2.833   0.089   9.073  0.0917 -0.2136 -0.0276
 6007W        W 9751   6.447   6.594   2.115 -0.0048 -0.1764  0.2570
 6008W        W 9752   7.817   0.921   2.941 -0.2403  0.0724 -0.1824
 6009W        W 9753   1.457   5.638   0.651  0.3858  0.1611 -0.0407
 6010W        W 9754   9.820   2.629  10.544  0.0051  0.3151  0.0513
 6011W        W 9755   0.418   3.552  10.282  0.2793 -0.4093  0.1267
 6012W        W 9756   8.494   5.900   1.596  0.1487  0.0823  0.0785
 6013W        W 9757   2.325   8.675   1.968  0.4262 -0.0931 -0.3667
 6014W        W 9758   7.588   1.469   2.688 -0.0245 -0.2715  0.2556
 6015W        W 9759   2.061   4.870   2.850  0.4595 -0.0551 -0.1597
 6016W        W 9760   9.494   6.889  10.982 -0.0983  0.0504  0.0293
 6017W        W 9761   4.364   5.445   3.151 -0.0244  0.2889 -0.0786
 6018W        W 9762   5.078   6.516   2.016 -0.3619  0.0148  0.1433
 6019W        W 9763   8.728   5.677  11.661 -0.4311  0.0455  0.2823
 6020W        W 9764   2.959   1.164  11.261  0.2126 -0.0462 -0.0303
 6021W        W 9765   2.510   6.860  11.527 -0.0533 -0.1406 -0.1649
 6022W        W 9766   7.549   9.470  12.807 -0.2510  0.0706  0.1325
 6023W        W 9767   3.243   0.037   1.444 -0.0177  0.2030  0.1544
 6024W        W 9768   9.022   0.274   8.981 -0.0162 -0.0199  0.3886
 6025W        W 9769   4.823   5.396   8.653  0.0432 -0.0211 -0.0502
 6026W        W 9770   2.746   0.046  11.624  0.0669  0.0567  0.3659
 6027W        W 9771   7.128   0.429   4.048  0.0530 -0.0454 -0.0507
 6028W        W 9772   4.751   6.625   1.241  0.0113 -0.0726 -0.2314
 6029W        W 9773   0.554   3.349   3.890 -0.2131 -0.0766  0.0157
 6030W        W 9774   8.725   1.596  11.880  0.3053  0.0108  0.0392
 6031W        W 9775   0.819   8.790  10.641 -0.2260 -0.2734 -0.0168
 6032W        W 9776   9.890   4.696  11.367 -0.1554  0.0704  0.2017
 6033W        W 9777   2.966   4.081  11.907  0.0116 -0.0446 -0.0335
 6034W        W 9778   4.277   0.126   2.436 -0.1372  0.0992  0.1359
 6035W        W 9779   3.659   1.504   8.760  0.0766  0.1961  0.0051
 6036W        W 9780   1.514   9.379   1.793 -0.0367  0.0634  0.4685
 6037W        W 9781   9.093   1.847  12.249  0.0719 -0.0185  0.0990
 6038W        W 9782   9.507   7.397   1.301 -0.1218 -0.0657 -0.3555
 6039W        W 9783   3.861   0.583   1.034 -0.3662 -0.0649  0.2038
 6040W        W 9784   3.316   9.508   1.164 -0.5720 -0.1017 -0.3130
 6041W        W 9785   9.056   8.588   2.105 -0.0255  0.2926 -0.2085
 6042W        W 9786   2.218   6.869   9.769 -0.0182  0.0413  0.1901
 6043W        W 9787   6.434   6.911  10.467 -0.0713 -0.0816 -0.0385
 6044W        W 9788   9.859   1.755  10.338  0.0838 -0.2576  0.1158
 6045W        W 9789   7.752   9.838   0.093  0.1952  0.0408  0.0093
 6046W        W 9790   6.862   2.310   0.991  0.0684 -0.1465  0.2165
 6047W        W 9791   6.894   4.800   1.944  0.2347  0.0367  0.1075
 6048W        W 9792   3.715   6.721   0.238  0.2402 -0.0924  0.0850
 6049W        W 9793   7.974   3.274  12.223 -0.0145  0.0374  0.1733
 6050W        W 9794   2.495   1.291   1.494  0.0477 -0.2698 -0.2935
 6051W        W 9795   7.382   0.228   0.948 -0.0392 -0.1783  0.1254
 6052W        W 9796   1.760   2.229   8.344  0.3113 -0.0809  0.0632
 6053W        W 9797   1.349   3.749  11.913  0.1484  0.1900  0.1717
 6054W        W 9798   9.434   6.878  11.565  0.2416  0.0878 -0.1053
 6055W        W 9799   9.119   6.189   8.846 -0.0692  0.0554 -0.1276
 6056W        W 9800   9.565   6.085   3.095  0.1648 -0.1473  0.1260
 6057W        W 9801   8.868   3.335   8.259 -0.0329 -0.1833 -0.2374
 6058W        W 9802   1.229   5.340  12.988  0.0513  0.1059 -0.1795
 6059W        W 9803   8.922   3.277  12.054 -0.0185 -0.0231  0.0361
 6060W        W 9804   3.810   7.261   1.154  0.0032  0.1781 -0.0329
 6061W        W 9805   4.419   0.587   9.604 -0.0437 -0.0996 -0.2314
 6062W        W 9806   8.002   5.799   8.424  0.3177  0.0654 -0.1490
 6063W        W 9807   1.083   5.820  12.986  0.0500 -0.0005  0.2925
 6064W        W 9808   5.911   3.385   0.546  0.0804 -0.0857  0.2197
 6065W        W 9809   1.636   5.243   0.288 -0.1794 -0.1098  0.1538
 6066W        W 9810   7.203   4.662   4.524  0.1969 -0.1357  0.0564
 6067W        W 9811   4.220   0.943   2.925  0.1757 -0.1152  0.1208
 6068W        W 9812   8.380   1.906  11.770  0.2516  0.0522 -0.2108
 6069W        W 9813   1.160   3.402  10.658  0.1286 -0.3773  0.2287
 6070W        W 9814   1.412   7.829   3.550 -0.1149  0.1087  0.0821
 6071W        W 9815   1.324   3.436   1.813 -0.2507  0.0380 -0.4763
 6072W        W 9816   9.880   1.853  10.977 -0.1587 -0.1246  0.3119
 6073W        W 9817   0.099   4.661  12.763 -0.0824 -0.1346  0.2913
 6074W        W 9818   0.639   8.277   8.128 -0.0089 -0.2028 -0.1592
 6075W        W 9819   0.605   2.744   3.167  0.3274  0.1706  0.0317
 6076W        W 9820   9.333   9.550   3.404  0.1373 -0.0104 -0.2105
 6077W        W 9821   8.999   7.059  11.155 -0.1381 -0.0689 -0.0685
 6078W        W 9822   4.938   1.986  11.151  0.1504 -0.1072  0.0386
 6079W        W 9823   1.058   6.500   4.298 -0.2216 -0.1117  0.2683
 6080W        W 9824   0.345   6.186  11.122  0.4131  0.1693 -0.2375
 6081W        W 9825   6.734   3.565   9.937  0.1708  0.1475  0.0479
 6082W        W 9826   5.808   9.657   1.706  0.0565 -0.1612  0.0988
 6083W        W 9827   2.459   4.727   2.552 -0.4905 -0.3951  0.1590
 6084W        W 9828   9.827   0.936  11.280 -0.0510  0.1461  0.0254
 6085W        W 9829   3.740   7.971   3.460  0.0548  0.2989  0.1417
 6086W        W 9830   0.201   9.234   3.777  0.1030  0.0584  0.1905
 6087W        W 9831   6.326   7.130  11.414 -0.1148  0.2087 -0.2907
 6088W        W 9832   5.168   0.362  12.350 -0.2413 -0.1297 -0.0485
 6089W        W 9833   4.489   6.114   9.557 -0.0519  0.0047  0.1028
 6090W        W 9834   5.965   4.585  11.525  0.0268  0.2692  0.1008
 6091W        W 9835   8.408   7.737  11.046  0.3334 -0.2336  0.1149
 6092W        W 9836   5.904   7.348   1.136 -0.1896  0.0575  0.1157
 6093W        W 9837   3.603   5.287   8.425  0.3994 -0.0498  0.0198
 6094W        W 9838   2.919   6.314   3.989  0.4493 -0.0879 -0.0593
 6095W        W 9839   5.333   9.651   1.857  0.4114 -0.1031 -0.4394
 6096W        W 9840   8.393   4.263   9.501  0.1182  0.3272 -0.0424
 6097W        W 9841   9.283   6.404   2.704 -0.1031  0.0377 -0.0073
 6098W        W 9842   0.508   9.168  12.499 -0.0105 -0.0441 -0.1715
 6099W        W 9843   5.473   1.193   3.050 -0.1396  0.0070 -0.2264
 6100W        W 9844   2.258   9.191   2.063  0.0241  0.2908 -0.3252
 6101W        W 9845   4.178   2.531   0.309 -0.0720 -0.1291 -0.3059
 6102W        W 9846   3.100   5.678   1.131 -0.3524 -0.2818  0.3086
 6103W        W 9847   0.802   3.089  10.522 -0.2647 -0.0779  0.3975
 6104W        W 9848   6.150   5.328   2.980  0.2405 -0.2514  0.2636
 6105W        W 9849   3.688   7.090   1.636 -0.0052 -0.1702  0.3770
 6106W        W 9850   4.536   3.297  12.084  0.0607  0.0567  0.0278
 6107W        W 9851   7.676   9.471   1.386  0.1541 -0.0012  0.0215
 6108W        W 9852   3.445   9.009   9.981  0.1157  0.1143  0.5818
 6109W        W 9853   7.911   5.352  11.015 -0.0563  0.1586  0.0357
 6110W        W 9854   2.447   1.204  12.277 -0.3255 -0.0874 -0.1985
 6111W        W 9855   6.583   1.751   0.305 -0.0914 -0.2706 -0.1636
 6112W        W 9856   2.068   8.910  11.465 -0.2075 -0.1970  0.2178
 6113W        W 9857   5.125   4.368   2.846 -0.2213  0.1463  0.1624
 6114W        W 9858   0.816   1.231  11.862  0.3306  0.1443 -0.2629
 6115W        W 9859   1.511   8.381  12.131 -0.1760 -0.1280  0.0797
 6116W        W 9860   1.387   4.224  11.528  0.1262 -0.1153  0.0933
 6117W        W 9861   7.545   1.126   0.881  0.1284 -0.0836  0.2432
 6118W        W 9862   0.563   5.884   4.552 -0.3012 -0.4245 -0.1853
 6119W        W 9863   3.948   5.917   1.783  0.1041 -0.1885 -0.1853
 6120W        W 9864   1.186   3.919   9.057  0.0041  0.0483 -0.0463
 6121W        W 9865   8.801   3.588  12.523 -0.0994  0.1495 -0.1736
 6122W        W 9866   8.963   0.822   0.989  0.2076 -0.0606  0.0640
 6123W        W 9867   5.828   6.800   1.334 -0.1895  0.1228  0.2079
 6124W        W 9868   4.530   2.887   3.588 -0.1547 -0.0991 -0.1208
 6125W        W 9869   1.493   8.954   3.699 -0.0563 -0.0824 -0.0414
 6126W        W 9870   7.137   9.236  12.401  0.4222 -0.1598  0.0182
 6127W        W 9871   6.968   8.248   1.830 -0.3080  0.0378 -0.2771
 6128W        W 9872   2.850   6.810   2.320 -0.0179 -0.0417 -0.1596
 6129W        W 9873   7.819   4.283  11.952  0.0944 -0.3872  0.2287
 6130W        W 9874   8.865   3.906   2.136  0.1229  0.0027  0.0993
 6131W        W 9875   5.552   4.076  10.759  0.2410 -0.3601 -0.0004
 6132W        W 9876   3.912   9.189  11.734  0.0707 -0.1229  0.2472
 6133W        W 9877   2.656   3.136  10.041 -0.2431 -0.1311  0.4041
 6134W        W 9878   0.393   1.323   3.662 -0.1402 -0.0446  0.0473
 6135W        W 9879   9.391   9.240   9.959 -0.2198  0.1219  0.0446
 6136W        W 9880   4.020   0.766  10.943 -0.0181  0.1622  0.2120
 6137W        W 9881   7.379   8.637  11.681  0.1240  0.0642  0.3675
 6138W        W 9882   4.350   1.451  10.427  0.0304  0.2270  0.0392
 6139W        W 9883   3.507   2.509   4.347 -0.0546  0.0081  0.0683
 6140W        W 9884   3.441   8.007   2.481  0.0758 -0.1468 -0.1951
 6141W        W 9885   1.971   8.496  10.651 -0.0088 -0.1593  0.2451
 6142W        W 9886   9.036   4.935  11.445  0.0471  0.0110  0.1727
 6143W        W 9887   2.212   6.254   3.252  0.1935 -0.4593  0.1801
 6144W        W 9888   0.516   6.817   1.604  0.2744  0.2461  0.0103
 6145W        W 9889   9.773   7.461   1.735  0.0599  0.1615 -0.1379
 6146W        W 9890   4.845   6.975   2.156 -0.1984  0.0145 -0.2051
 6147W        W 9891   2.169   2.780   9.240 -0.1739  0.1331 -0.0573
 6148W        W 9892   8.838   8.016   1.397 -0.1421  0.0540 -0.6516
 6149W        W 9893   5.625   2.269  10.252  0.1608  0.1190 -0.1057
 6150W        W 9894   4.547   4.313  10.005  0.3277 -0.1202  0.1911
 6151W        W 9895   7.548   6.387   2.816  0.0162  0.2979 -0.1346
 6152W        W 9896   7.710   5.641   0.250  0.1797 -0.0330 -0.1750
 6153W        W 9897   2.721   7.991  12.483  0.0621  0.0293 -0.2161
 6154W        W 9898   0.157   0.609   9.841 -0.1973 -0.1981 -0.0754
 6155W        W 9899   3.896   9.805   0.050  0.0342 -0.5592  0.0707
 6156W        W 9900   2.421   1.380   3.072 -0.2009  0.2595 -0.1132
 6157W        W 9901   2.199   4.696  12.094  0.1309 -0.1813 -0.2935
 6158W        W 9902   1.107   2.218   9.649  0.1381 -0.0304  0.0093
 6159W        W 9903   7.216   3.749  10.183  0.0798  0.0114 -0.0691
 6160W        W 9904   9.306   0.118   2.647  0.4311 -0.1361 -0.0117
 6161W        W 9905   2.965   0.034   0.126 -0.1275  0.3136 -0.3913
 6162W        W 9906   3.523   6.723  10.932  0.1520 -0.1558 -0.0391
 6163W        W 9907   1.406   3.368   4.371  0.0674  0.0899  0.1670
 6164W        W 9908   9.191   3.531   1.600  0.2359 -0.0261 -0.1474
 6165W        W 9909   6.474   1.044   3.056  0.4138 -0.0564 -0.1468
 6166W        W 9910   4.206   0.847   1.329 -0.0508  0.1106  0.0048
 6167W        W 9911   2.472   7.179   3.331  0.0404  0.0787  0.3356
 6168W        W 9912   7.893   5.573  10.187 -0.0525  0.2670  0.0017
 6169W        W 9913   5.861   2.683   2.498  0.0060 -0.2440  0.2580
 6170W        W 9914   1.161   1.786   0.859  0.2753 -0.0390 -0.0294
 6171W        W 9915   8.971   1.454  12.835  0.0092 -0.1290 -0.0757
 6172W        W 9916   4.891   3.653   0.939 -0.3049  0.3405  0.1388
 6173W        W 9917   6.486   7.139   2.334 -0.0663  0.0122  0.1704
 6174W        W 9918   4.192   2.130   0.647 -0.1305 -0.3579 -0.0299
 6175W        W 9919   3.254   6.887   1.825 -0.0420 -0.1865  0.4936
 6176W        W 9920   7.216   4.772  12.490  0.1936 -0.0591 -0.1905
 6177W        W 9921   7.665   1.041   4.622  0.1611 -0.0214  0.1777
 6178W        W 9922   9.791   8.292  12.353  0.2702  0.1831  0.1120
 6179W        W 9923   5.167   0.444   9.472  0.1183  0.0662 -0.1434
 6180W        W 9924   7.967   7.303   3.033 -0.0736 -0.0900 -0.2961
 6181W        W 9925   9.292   2.630   3.241 -0.2393  0.1238  0.0470
 6182W        W 9926   2.427   8.465  11.854 -0.0225 -0.1449  0.1417
 6183W        W 9927   0.295   2.718  12.717  0.0018 -0.0109  0.0110
 6184W        W 9928   0.921   8.525   0.760  0.1870  0.1768  0.2897
 6185W        W 9929   9.334   9.051   3.701  0.2279  0.0043  0.2547
 6186W        W 9930   3.622   9.240  12.224  0.2117  0.1120  0.1434
 6187W        W 9931   3.693   2.266   3.499 -0.1252 -0.1037 -0.0377
 6188W        W 9932   3.093   8.241   2.758  0.3266  0.3858 -0.0747
 6189W        W 9933   8.536   4.608   3.319  0.1551  0.3525  0.2364
 6190W        W 9934   5.512   2.718  10.580 -0.0955 -0.0761  0.1025
 6191W        W 9935   4.858   0.005  10.535  0.0487 -0.0247  0.2746
 6192W        W 9936   8.068   0.211  11.828 -0.2442  0.0555 -0.1446
 6193W        W 9937   5.534   4.211  11.598  0.0791  0.1018 -0.1056
 6194W        W 9938   5.310   7.782  10.131  0.0125  0.0196  0.2586
 6195W        W 9939   4.151   8.345   5.197  0.2308 -0.0367 -0.1304
 6196W        W 9940   7.864   8.468  11.871  0.2391 -0.3983 -0.0581
 6197W        W 9941   6.269   7.088  10.882  0.1975 -0.1368  0.0220
 6198W        W 9942   6.011   0.252   1.514 -0.0406 -0.4440  0.0387
 6199W        W 9943   3.862   1.676  11.921  0.0875  0.0808  0.0691
 6200W        W 9944   0.587   9.354   0.478 -0.1579 -0.1379  0.0356
 6201W        W 9945   3.366   5.218   3.126  0.0918 -0.4037 -0.3032
 6202W        W 9946   4.925   5.331  10.752  0.5367  0.1326 -0.1818
 6203W        W 9947   6.140   5.552  12.581 -0.1324  0.1927  0.0865
 6204W        W 9948   0.694   5.043   9.063 -0.2440  0.0186  0.0696
 6205W        W 9949   5.887   3.361   8.486 -0.0235 -0.0890  0.3723
 6206W        W 9950   5.231   4.219   4.287  0.0311  0.3219 -0.2251
 6207W        W 9951   0.241   1.806  12.987 -0.0116  0.1449  0.0728
 6208W        W 9952   3.253   2.958   0.794  0.1520 -0.1706  0.5129
 6209W        W 9953   7.912   0.786   1.029  0.0033  0.0402  0.1511
 6210W        W 9954   6.759   4.274  10.743 -0.0064 -0.0253  0.0740
 6211W        W 9955   1.400   5.177   9.604  0.0968  0.0576 -0.0299
 6212W        W 9956   5.970   0.554  10.636  0.0022 -0.0387 -0.0677
 6213W        W 9957   8.337   8.029   1.615  0.1486 -0.1863  0.2932
 6214W        W 9958   2.098   3.369  10.887 -0.0085 -0.2645  0.0580
 6215W        W 9959   4.452   0.838   3.783  0.0460 -0.2826  0.0892
 6216W        W 9960   1.805   9.295   2.237  0.2467  0.2570 -0.0677
 6217W        W 9961   7.574   4.349   3.189  0.3034  0.1515 -0.2512
 6218W        W 9962   9.244   5.764  11.992 -0.1377  0.0560  0.0512
 6219W        W 9963   7.561   7.387   1.432  0.2765  0.2157 -0.1324
 6220W        W 9964   1.686   1.123  12.724  0.3888  0.3422 -0.0150
 6221W        W 9965   0.640   6.377   1.264 -0.1676  0.3421 -0.3841
 6222W        W 9966   0.882   3.454  10.138  0.1215 -0.0529 -0.0819
 6223W        W 9967   4.042   6.725   3.617  0.2174  0.2588  0.0423
 6224W        W 9968   1.650   9.757  10.205  0.2415  0.0521 -0.0392
 6225W        W 9969   8.043   3.724   0.214 -0.0683  0.1164 -0.4661
 6226W        W 9970   6.357   1.871   9.854  0.0212  0.0653 -0.1950
 6227W        W 9971   8.228   9.300   9.489  0.0898  0.0542  0.3739
 6228W        W 9972   5.964   5.925   1.587 -0.1025  0.0950  0.0217
 6229W        W 9973   7.440   9.178   8.984 -0.3365  0.0936 -0.1191
 6230W        W 9974   0.522   3.464   0.789 -0.0155 -0.1309  0.3490
 6231W        W 9975   1.770   6.433   3.454  0.2831  0.3315  0.0579
 6232W        W 9976   3.605   0.177   2.806 -0.1661 -0.0110 -0.1587
 6233W        W 9977   9.212   2.273   2.858  0.0455  0.1393  0.4633
 6234W        W 9978   6.436   3.440   2.739 -0.4703 -0.0848 -0.0199
 6235W        W 9979   4.794   2.069  10.518  0.0093 -0.2011 -0.0226
 6236W        W 9980   2.386   2.684   0.762 -0.0656 -0.1215  0.0423
 6237W        W 9981   5.393   5.691   2.253  0.1178  0.0930 -0.3350
 6238W        W 9982   7.085   5.997  10.484 -0.0438 -0.2497  0.1912
 6239W        W 9983   8.719   5.132   2.323  0.0339 -0.0511  0.0081
 6240W        W 9984   9.019   0.533  11.779  0.1313  0.1853 -0.2153
 6241W        W 9985   9.901   3.683   2.070  0.0206 -0.2997 -0.0583
 6242W        W 9986   5.593   7.965  12.180 -0.0579  0.3984 -0.1602
 6243W        W 9987   0.368   8.956  10.764 -0.0344 -0.0628  0.2092
 6244W        W 9988   7.925   1.636   3.539 -0.1171 -0.1492 -0.0448
 6245W        W 9989   7.646   7.570   8.354  0.0922 -0.2622  0.0133
 6246W        W 9990   3.797   8.681   9.735  0.1238  0.2256  0.0120
 6247W        W 9991   5.054   5.309   0.073 -0.1411  0.2659 -0.0251
 6248W        W 9992   6.431   9.399   2.921  0.0661  0.0100  0.1487
 6249W        W 9993   8.384   8.676  10.749 -0.2725  0.2677 -0.3992
 6250W        W 9994   2.933   0.477   3.338  0.0636  0.0092  0.0263
 6251W        W 9995   3.346   3.290   1.152 -0.2224  0.3545  0.0300
 6252W        W 9996   6.023   1.740   3.458 -0.1291 -0.1773  0.2247
 6253W        W 9997   2.053   3.210   3.581  0.4705 -0.0388  0.2550
 6254W        W 9998   5.663   2.300   1.399 -0.2179 -0.1483 -0.0739
 6255W        W 9999   5.607   1.580   0.387  0.2265  0.1298  0.2725
 6256W        W10000   8.479   5.356   3.711  0.0494  0.0262 -0.0013
 6257W        W10001   5.579   9.834  12.265 -0.0689 -0.0831  0.1751
 6258W        W10002   2.844   4.101  12.396  0.2140  0.4036 -0.1978
 6259W        W10003   3.970   8.699  11.706 -0.2615 -0.0363  0.0053
 6260W        W10004   7.302   6.271   4.657 -0.1517 -0.2844  0.0440
 6261W        W10005   6.094   9.009  11.708 -0.3280  0.1048  0.1341
 6262W        W10006   0.664   0.122   2.408 -0.0569  0.0355  0.1190
 6263W        W10007   2.265   3.898   5.338 -0.3223 -0.0054  0.1398
 6264W        W10008   4.492   1.371   1.175  0.0082 -0.2915 -0.1565
 6265W        W10009   3.592   5.838   0.664 -0.0066  0.2592 -0.0892
 6266W        W10010   4.834   1.145   4.361 -0.0259 -0.0894 -0.0033
 6267W        W10011   9.420   4.537   5.231  0.0323  0.0439  0.2410
 6268W        W10012   1.659   8.667  12.587 -0.1588 -0.3609 -0.1001
 6269W        W10013   2.370   7.340   8.940 -0.1146 -0.0940  0.3304
 6270W        W10014   3.285   6.374   1.010 -0.1706 -0.1301 -0.1117
 6271W        W10015   4.435   8.092   1.220 -0.0295  0.0662  0.0212
 6272W        W10016   3.674   6.264   0.099  0.0578  0.2073 -0.2243
 6273W        W10017   4.428   6.557   3.203 -0.1752 -0.0540 -0.1137
 6274W        W10018   6.097   8.215  12.232 -0.0398  0.0405  0.2844
 6275W        W10019   9.598   4.346  10.744 -0.3364 -0.1542  0.1226
 6276W        W10020   4.056   4.291  12.933  0.0579  0.1482  0.0722
 6277W        W10021   4.167   3.286   2.899 -0.1215  0.1105  0.1534
 6278W        W10022   0.225   3.841   3.068  0.0819 -0.1220  0.0306
 6279W        W10023   5.419   3.188   1.423  0.0328 -0.3140 -0.3798
 6280W        W10024   5.336   4.821   2.733  0.1804 -0.2768  0.0141
 6281W        W10025   1.547   0.854   1.475  0.0945  0.2414 -0.1478
 6282W        W10026   3.390   1.408  12.051 -0.0871  0.1121 -0.1377
 6283W        W10027   7.785   1.183  10.782  0.0308  0.2059 -0.1145
 6284W        W10028   5.624   6.659   2.623  0.0132 -0.1332  0.5064
 6285W        W10029   3.682   3.281  10.586 -0.1640 -0.2672 -0.1630
 6286W        W10030   5.609   5.529   0.905 -0.3174  0.0696  0.1102
 6287W        W10031   3.040   0.966   3.312  0.3807  0.1480 -0.0361
 6288W        W10032   3.068   7.366   9.935 -0.5904 -0.1893  0.0562
 6289W        W10033   8.832   7.486  10.625 -0.1217  0.1681 -0.1496
 6290W        W10034   4.120   3.106  10.883  0.0675  0.1930  0.0067
 6291W        W10035   7.805   5.667   3.878  0.2925 -0.0984  0.2000
 6292W        W10036   7.131   0.758  11.172  0.1518  0.0085  0.0389
 6293W        W10037   2.588   8.235   2.709 -0.0133  0.0289 -0.0742
 6294W        W10038   8.634   6.328   1.299  0.1807 -0.0392  0.0284
 6295W        W10039   2.170   2.466   2.385  0.2074  0.0324  0.0047
 6296W        W10040   2.947   4.647  11.508  0.3367 -0.2621  0.1355
 6297W        W10041   4.602   1.085  10.218  0.1837  0.1315  0.2319
 6298W        W10042   6.801   5.604  12.907  0.2088  0.3425 -0.2792
 6299W        W10043   1.503   8.135   8.844 -0.0744 -0.2335 -0.1546
 6300W        W10044   7.473   8.223  11.981  0.0445  0.0589 -0.0150
 6301W        W10045   2.561   2.704   2.175  0.0529 -0.0678 -0.2672
 6302W        W10046   7.003   0.251  12.910 -0.1482  0.2000  0.1122
 6303W        W10047   6.694   5.369   2.732 -0.1347  0.1234  0.6973
 6304W        W10048   4.931   8.017  12.902  0.2445 -0.0707 -0.2272
 6305W        W10049   1.903   3.165   1.514 -0.2185  0.2300  0.1586
 6306W        W10050   1.976   2.280   0.423  0.0946  0.2241  0.0647
 6307W        W10051   2.541   0.872  11.240  0.0974 -0.1743 -0.2526
 6308W        W10052   3.658   5.127   4.911 -0.0660 -0.4827 -0.0311
 6309W        W10053   6.148   7.613   9.491 -0.0392 -0.1126 -0.0120
 6310W        W10054   7.422   0.780   9.747 -0.0895 -0.0387 -0.0955
 6311W        W10055   3.656   8.987   2.293 -0.0245 -0.1057  0.0317
 6312W        W10056   9.353   4.395   0.411 -0.2454 -0.1214  0.0217
 6313W        W10057   5.843   3.769   0.860  0.1044 -0.1199 -0.2661
 6314W        W10058   0.620   8.539   9.082 -0.0268  0.0734 -0.1500
 6315W        W10059   8.612   9.464   1.352  0.0375 -0.4024  0.1859
 6316W        W10060   4.978   8.687   1.059  0.0733 -0.0334 -0.0057
 6317W        W10061   8.889   9.527   4.353  0.1109 -0.2147  0.3836
 6318W        W10062   1.701   5.207  11.146  0.0547  0.0425 -0.1369
 6319W        W10063   4.495   3.661   2.262  0.0393 -0.1949 -0.1795
 6320W        W10064   1.534   8.702   4.747 -0.0896 -0.3037  0.0083
 6321W        W10065   7.832   3.317   2.580 -0.1303 -0.5638 -0.4199
 6322W        W10066   8.718   5.564  12.157 -0.2781  0.2509 -0.0936
 6323W        W10067   5.095   6.589  10.365 -0.1317 -0.1589 -0.1001
 6324W        W10068   9.585   3.712   1.156  0.0804 -0.4554 -0.3021
 6325W        W10069   1.536   3.636   2.350 -0.3570 -0.2730 -0.1821
 6326W        W10070   0.192   9.069   0.849 -0.0631  0.0688  0.1626
 6327W        W10071   4.947   2.975   1.647  0.2854  0.0662 -0.0264
 6328W        W10072   7.489   5.249  10.293  0.2570 -0.1275  0.1502
 6329W        W10073   5.886   9.234   9.116  0.0728 -0.2163 -0.1165
 6330W        W10074   2.225   6.050   2.760 -0.2200  0.2576 -0.0873
 6331W        W10075   7.350   9.622   9.788  0.1895  0.2128  0.0762
 6332W        W10076   0.358   9.577   0.966  0.1323  0.1152  0.1347
 6333W        W10077   3.909   6.160  10.380  0.3624 -0.2739 -0.0158
 6334W        W10078   6.906   0.011   2.906  0.1915 -0.1013  0.2509
 6335W        W10079   6.085   9.594  12.419 -0.0937 -0.1711 -0.2666
 6336W        W10080   0.892   4.330   3.622  0.0859 -0.0058 -0.3115
 6337W        W10081   4.695   0.611  12.253 -0.1721 -0.1198 -0.2240
 6338W        W10082   9.108   3.856  10.519  0.2369 -0.1048  0.1969
 6339W        W10083   9.750   2.870   9.435 -0.0400  0.0917  0.1521
 6340W        W10084   6.762   5.444   9.379 -0.1440 -0.1641  0.4330
 6341W        W10085   1.718   4.370  12.710  0.2065 -0.0284 -0.1475
 6342W        W10086   9.347   8.015   3.549  0.3909  0.2969 -0.0312
 6343W        W10087   9.813   0.625  10.217 -0.0899 -0.1134 -0.1081
 6344W        W10088   2.561   5.003  12.734 -0.3073  0.2678  0.1151
 6345W        W10089   7.092   3.823   9.667  0.0187  0.1829  0.0529
 6346W        W10090   0.207   1.687   2.660 -0.1649  0.0790 -0.0692
 6347W        W10091   0.984   7.476  10.286 -0.0113  0.1251  0.1386
 6348W        W10092   3.729   5.024   2.483 -0.0979  0.0509  0.3030
 6349W        W10093   9.365   0.144  10.759  0.0435 -0.3140 -0.2092
 6350W        W10094   9.483   0.514  11.131 -0.0050  0.0709 -0.0491
 6351W        W10095   3.920   6.317   1.495  0.1740 -0.0666 -0.1580
 6352W        W10096   1.503   1.346  10.594 -0.0446 -0.0717  0.3273
 6353W        W10097   8.317   7.433  10.616  0.1011  0.0011  0.5004
 6354W        W10098   0.196   9.448   2.832  0.0743  0.2698  0.3426
 6355W        W10099   5.904   8.544  10.374  0.2874 -0.2682 -0.2636
 6356W        W10100   1.196   0.679   2.828 -0.0932 -0.3034  0.4313
 6357W        W10101   2.978   0.206   3.765 -0.0378  0.1839  0.2126
 6358W        W10102   7.639   1.507  10.154  0.3522 -0.0779 -0.0042
 6359W        W10103   9.080   8.309   9.837  0.0581  0.2464  0.0286
 6360W        W10104   9.536   7.061   1.913  0.0049 -0.3447  0.0098
 6361W        W10105   3.421   8.531   2.527  0.0437  0.0545  0.0297
 6362W        W10106   7.851   6.132   2.472  0.3844  0.1447  0.0890
 6363W        W10107   1.754   3.544   0.046  0.1924  0.1253  0.0159
 6364W        W10108   6.331   0.918   9.887  0.0371  0.0008 -0.1436
 6365W        W10109   0.218   5.359   0.947  0.1953  0.0080 -0.0290
 6366W        W10110   8.098   4.050   0.562 -0.4638 -0.0524 -0.1263
 6367W        W10111   4.270   3.788   9.457  0.1650 -0.0634  0.1750
 6368W        W10112   3.971   8.539  12.462 -0.2731 -0.3728 -0.2330
 6369W        W10113   6.014   2.582  10.375 -0.1594  0.1134  0.1330
 6370W        W10114   8.824   7.136   9.140 -0.2096  0.0949 -0.1396
 6371W        W10115   9.632   6.374   8.499 -0.0573 -0.1641 -0.1580
 6372W        W10116   9.741   0.039  12.287  0.1505  0.1441  0.0116
 6373W        W10117   7.324   1.545  12.850 -0.1103  0.5919 -0.0425
 6374W        W10118   7.550   6.155  11.396  0.0127 -0.1907 -0.1504
 6375W        W10119   8.062   3.379   4.902 -0.1542 -0.0426  0.1974
 6376W        W10120   7.480   2.417  10.068  0.0745  0.0530  0.3665
 6377W        W10121   2.726   2.223   4.341  0.2905  0.0321 -0.1132
 6378W        W10122   7.319   4.613  10.125 -0.0271  0.2114 -0.0366
 6379W        W10123   6.549   2.146   3.321  0.1358  0.2811  0.2071
 6380W        W10124   6.978   3.798   2.387  0.1251  0.0617  0.0048
 6381W        W10125   8.292   1.613   3.076 -0.2862  0.1322  0.0671
 6382W        W10126   1.861   4.501   0.229  0.0990 -0.2022  0.2337
 6383W        W10127   3.897   1.813  12.435  0.0290  0.4473 -0.0607
 6384W        W10128   9.292   5.041   3.828 -0.0697 -0.0511 -0.2700
 6385W        W10129   9.301   8.524   3.566 -0.1790  0.0466 -0.1923
 6386W        W10130   6.469   4.652   1.810 -0.1229  0.4391 -0.1304
 6387W        W10131   5.274   0.608  11.895  0.0171 -0.2137 -0.0341
 6388W        W10132   3.263   4.944   2.698  0.1982 -0.0944 -0.2639
 6389W        W10133   7.098   3.792   0.014 -0.1434  0.0703 -0.0080
 6390W        W10134   7.316   7.784  12.364  0.0019  0.2499 -0.1165
 6391W        W10135   6.966   0.061  11.982 -0.0481 -0.0330  0.0235
 6392W        W10136   0.666   2.501   2.543  0.1387  0.0276 -0.3559
 6393W        W10137   7.295   2.045   2.845 -0.0817  0.0531  0.0326
 6394W        W10138   2.092   1.794   2.649 -0.1059 -0.1583 -0.1219
 6395W        W10139   4.614   2.744   1.898  0.2865  0.0698 -0.3085
 6396W        W10140   2.471   0.364   2.898 -0.1197 -0.0475 -0.1448
 6397W        W10141   2.241   9.300  12.192  0.0583  0.0252  0.0502
 6398W        W10142   0.556   5.890   9.963  0.1739  0.0705 -0.2172
 6399W        W10143   4.499   4.269  10.549 -0.4230 -0.3324 -0.0052
 6400W        W10144   5.971   1.956   9.488 -0.0186  0.0935 -0.3216
 6401W        W10145   8.271   3.934  12.808 -0.1582  0.2553 -0.1450
 6402W        W10146   6.809   9.277  12.846  0.2998 -0.0264 -0.0402
 6403W        W10147   2.998   3.898   3.401  0.1161 -0.1273  0.1711
 6404W        W10148   9.690   7.249   9.012 -0.0869 -0.0336  0.2161
 6405W        W10149   1.637   0.793  10.363 -0.0365 -0.2024 -0.1151
 6406W        W10150   4.710   1.546   0.044  0.0422 -0.1099 -0.0933
 6407W        W10151   9.626   8.393  11.412 -0.2266  0.2011 -0.2746
 6408W        W10152   7.814   3.762  10.154  0.1345  0.2034  0.4684
 6409W        W10153   7.321   1.608   3.062  0.0456 -0.0304 -0.1548
 6410W        W10154   4.792   2.505   3.860 -0.3249  0.3517 -0.0483
 6411W        W10155   5.544   0.198   1.858  0.4044  0.1091 -0.0226
 6412W        W10156   9.761   4.777   4.012  0.1519 -0.0684  0.1605
 6413W        W10157   0.730   2.746  11.553 -0.1331  0.0886 -0.0135
 6414W        W10158   2.497   5.373  10.578 -0.0086  0.2214  0.1913
 6415W        W10159   7.096   8.866   9.811  0.0958 -0.0277 -0.0059
 6416W        W10160   8.921   5.419  10.610 -0.1626  0.0292  0.3701
 6417W        W10161   5.291   7.610  11.448 -0.1154  0.0399 -0.0317
 6418W        W10162   0.309   3.086  12.414  0.1647  0.1354  0.1247
 6419W        W10163   7.248   6.694   9.860  0.1138 -0.0399  0.0684
 6420W        W10164   3.162   8.911  12.278 -0.0316  0.2043  0.1302
 6421W        W10165   2.164   4.795   3.444 -0.0669 -0.2496 -0.1071
 6422W        W10166   9.192   9.117   2.862  0.1588  0.0465 -0.1894
 6423W        W10167   3.936   8.195   0.849  0.0109  0.2617 -0.0066
 6424W        W10168   0.204   5.963  11.623  0.0351 -0.0364 -0.2335
 6425W        W10169   4.591   3.392   3.579  0.1923 -0.2389 -0.5006
 6426W        W10170   1.752   2.868   2.313 -0.1670 -0.0606  0.0366
 6427W        W10171   2.800   5.210   1.164  0.0715 -0.0111  0.1986
 6428W        W10172   1.486   0.540   3.789  0.1087  0.4958  0.0069
 6429W        W10173   9.575   5.098   8.449  0.2114 -0.0868 -0.2126
 6430W        W10174   4.353   3.908   0.927  0.4317 -0.0769  0.2383
 6431W        W10175   4.858   9.587   0.878 -0.0727 -0.2004 -0.1228
 6432W        W10176   8.169   2.903   2.536 -0.2241  0.0108  0.2450
 6433W        W10177   2.165   4.634   1.838  0.0653 -0.0497  0.0897
 6434W        W10178   1.949   4.000   2.268 -0.1059 -0.1304 -0.0562
 6435W        W10179   0.281   7.390  11.743 -0.0843  0.1766  0.0204
 6436W        W10180   8.146   9.003  10.343  0.1979 -0.1142 -0.1735
 6437W        W10181   3.003   5.942  11.675  0.0283  0.1069  0.0725
 6438W        W10182   3.083   1.515  11.668 -0.0880 -0.0273 -0.1304
 6439W        W10183   3.646   5.698   2.204 -0.1249 -0.1843 -0.0849
 6440W        W10184   0.243   8.570  12.027  0.0306 -0.0212 -0.0264
 6441W        W10185   6.541   0.537   3.065  0.2769  0.2346  0.2183
 6442W        W10186   9.875   1.131  12.160  0.2928 -0.0682 -0.4174
 6443W        W10187   5.505   6.740   0.123  0.1284  0.0343 -0.3217
 6444W        W10188   2.750   2.222  12.962 -0.1662 -0.1365  0.0658
 6445W        W10189   1.930   3.871  12.059 -0.0198  0.0610  0.1837
 6446W        W10190   1.959   8.465   2.753  0.2807 -0.4802  0.1968
 6447W        W10191   5.239   7.438   2.195  0.1501  0.0040  0.2613
 6448W        W10192   3.304   4.849  11.725  0.1112  0.5132 -0.0519
 6449W        W10193   0.146   8.526  11.533 -0.0236 -0.2394  0.1013
 6450W        W10194   6.754   1.117  10.564  0.0183  0.2947  0.2147
 6451W        W10195   7.152   2.393  12.863 -0.3410 -0.0382  0.0150
 6452W        W10196   3.244   2.157   3.373  0.2852  0.0699  0.0020
 6453W        W10197   4.345   0.871  11.963  0.0909  0.0899  0.0535
 6454W        W10198   2.310   1.400   2.440 -0.3831 -0.0498  0.0013
 6455W        W10199   8.527   7.921   3.261  0.2938 -0.1842 -0.1342
 6456W        W10200   4.470   3.857   2.769 -0.1818  0.0343 -0.0898
 6457W        W10201   0.536   6.693  12.022  0.2340 -0.0183 -0.0686
 6458W        W10202   7.692   2.122   3.898  0.1058  0.0505 -0.0399
 6459W        W10203   1.799   5.965   3.551  0.2049  0.3682 -0.4972
 6460W        W10204   9.818   9.207   8.946  0.0774 -0.0178  0.0182
 6461W        W10205   6.226   1.097  12.578  0.1357 -0.0828  0.3026
 6462W        W10206   7.901   0.777   3.449 -0.0983 -0.0255 -0.1219
 6463W        W10207   4.067   2.538   9.457  0.1243 -0.0511  0.0098
 6464W        W10208   3.903   3.836  12.710  0.0767  0.0071  0.0835
 6465W        W10209   4.963   4.563  10.142  0.1599 -0.0566  0.1673
 6466W        W10210   5.769   5.003   4.376 -0.0277  0.4882  0.0514
 6467W        W10211   1.210   1.708   9.566 -0.0002  0.0104  0.3016
 6468W        W10212   2.498   4.026   3.182  0.0441 -0.0482 -0.1278
 6469W        W10213   9.751   4.298  10.217 -0.1215 -0.1885 -0.0164
 6470W        W10214   1.645   2.045   8.840 -0.1317 -0.0821 -0.0561
 6471W        W10215   1.715   5.895  12.480  0.1670  0.1170 -0.0679
 6472W        W10216   7.125   0.950   2.367  0.3399 -0.0382  0.2497
 6473W        W10217   1.350   2.293   9.194 -0.0989  0.1921 -0.0719
 6474W        W10218   9.287   8.214   1.733 -0.1297  0.1155  0.1368
 6475W        W10219   4.834   8.076  10.309  0.1888  0.0591 -0.0633
 6476W        W10220   6.602   1.376   1.008  0.1243  0.0512 -0.2726
 6477W        W10221   3.830   1.460  10.279 -0.0055 -0.0230  0.0129
 6478W        W10222   6.236   0.373  11.112  0.1472  0.3533  0.1474
 6479W        W10223   3.084   5.274   0.742 -0.1594 -0.1050 -0.1525
 6480W        W10224   6.986   1.933  12.892 -0.4709  0.0909 -0.1100
 6481W        W10225   6.212   3.063   8.741  0.5513 -0.0789 -0.2184
 6482W        W10226   3.117   8.102  10.931  0.1284 -0.1899  0.1440
 6483W        W10227   8.673   2.930   9.399  0.0707 -0.0260  0.1092
 6484W        W10228   7.664   6.986  12.407  0.0899  0.0394  0.1293
 6485W        W10229   2.890   9.433  10.388  0.1866  0.0966 -0.0370
 6486W        W10230   0.492   4.594   0.969 -0.1065  0.0638  0.0032
 6487W        W10231   6.167   6.161  11.057  0.2399  0.0655 -0.5159
 6488W        W10232   5.493   8.020   0.845  0.0703 -0.0396 -0.2631
 6489W        W10233   9.814   4.744   9.735  0.2772 -0.1475 -0.1474
 6490W        W10234   0.960   8.918   9.255 -0.1358 -0.0873 -0.2387
 6491W        W10235   1.874   8.441  11.612 -0.2270 -0.0042 -0.1822
 6492W        W10236   1.330   7.869  12.101  0.1067  0.0498  0.1547
 6493W        W10237   0.089   7.328   2.173  0.2015  0.4240  0.1041
 6494W        W10238   0.632   1.723   2.877  0.1872 -0.2587 -0.1544
 6495W        W10239   5.644   2.448   2.906 -0.0091  0.2764  0.0908
 6496W        W10240   7.665   6.716   8.510 -0.4105  0.0756 -0.0489
 6497W        W10241   0.722   8.735  10.168  0.1863  0.3510  0.0843
 6498W        W10242   9.333   3.207   3.202  0.1829 -0.1772 -0.1191
 6499W        W10243   2.105   1.895   3.798 -0.0003  0.2189 -0.0775
 6500W        W10244   0.737   8.330   1.267  0.0586  0.0407 -0.2710
 6501W        W10245   2.010   6.027  12.846 -0.0245 -0.2783  0.0176
 6502W        W10246   0.463   1.759   1.446  0.1765  0.1343  0.0367
 6503W        W10247   6.359   7.948  10.996  0.2440 -0.1080 -0.1225
 6504W        W10248   5.685   2.716   2.032  0.1319 -0.1543  0.0840
 6505W        W10249   0.857   3.797   9.800  0.0548  0.1289  0.2662
 6506W        W10250   9.506   1.563  12.213 -0.0176 -0.0808  0.1563
 6507W        W10251   9.204   3.888  12.164 -0.0579 -0.2106 -0.2446
 6508W        W10252   5.130   3.847  10.785 -0.1825  0.2313 -0.1271
 6509W        W10253   7.336   6.425   8.695  0.1468  0.1912 -0.1751
 6510W        W10254   8.450   4.327   4.343  0.3207  0.0045  0.2783
 6511W        W10255   1.943   1.637  10.175 -0.3591 -0.0833 -0.1473
 6512W        W10256   4.818   6.315  12.159  0.1868  0.0743 -0.0143
 6513W        W10257   2.842   5.821  11.221  0.0481 -0.2757  0.2621
 6514W        W10258   1.439   4.400   3.432  0.1082  0.3880 -0.0700
 6515W        W10259   4.134   7.659   0.294 -0.2580  0.1774 -0.0040
 6516W        W10260   3.959   5.211  11.139  0.0509  0.0645  0.1770
 6517W        W10261   0.446   2.389   2.089  0.1144 -0.1535  0.0023
 6518W        W10262   3.690   3.539   2.757 -0.0552 -0.0065 -0.0571
 6519W        W10263   4.575   0.157   3.117  0.1123 -0.0449 -0.3222
 6520W        W10264   6.805   8.044   1.239  0.1024 -0.2062  0.3597
 6521W        W10265   7.645   3.561   4.553  0.2196  0.2746  0.2458
 6522W        W10266   5.000   5.563   9.820 -0.0879  0.1338  0.1404
 6523W        W10267   0.250   2.563   2.884  0.0519 -0.0654  0.0170
 6524W        W10268   2.233   3.171  11.399 -0.6821  0.2366 -0.1581
 6525W        W10269   6.968   3.313   2.966  0.3226 -0.0639  0.0343
 6526W        W10270   9.344   1.866  10.290  0.0944  0.0978 -0.0600
 6527W        W10271   0.863   2.312   8.873  0.2306  0.0694  0.0289
 6528W        W10272   7.398   6.932  10.842 -0.1133 -0.0259 -0.1881
 6529W        W10273   9.290   6.138   3.564 -0.1651 -0.1475 -0.1422
 6530W        W10274   7.550   9.468   0.877 -0.0147 -0.0589  0.1695
 6531W        W10275   4.297   1.320   1.662 -0.0305 -0.3907 -0.0539
 6532W        W10276   2.169   9.354   8.822  0.2929 -0.0944  0.1170
 6533W        W10277   5.876   8.107   2.818 -0.0584  0.0239 -0.2030
 6534W        W10278   7.153   4.970   0.429  0.1644  0.1452  0.1122
 6535W        W10279   8.993   7.406  10.125 -0.2281  0.2175  0.1536
 6536W        W10280   3.457   2.493   8.917  0.2650 -0.3484  0.2376
 6537W        W10281   8.802   5.231  10.102 -0.2446 -0.0176  0.0397
 6538W        W10282   9.481   9.675  12.641 -0.2219 -0.1111 -0.3645
 6539W        W10283   0.949   8.417   9.791  0.2078  0.1978 -0.1303
 6540W        W10284   1.660   2.482  10.829  0.0921  0.1867  0.0038
 6541W        W10285   4.049   9.657   2.762 -0.0279 -0.2472  0.2655
 6542W        W10286   1.503   1.258   0.537 -0.0145 -0.4279  0.3689
 6543W        W10287   2.490   0.094  10.675 -0.1067  0.0172  0.2612
 6544W        W10288   5.884   3.620   9.473 -0.3010  0.0358  0.0022
 6545W        W10289   2.642   2.820   4.225 -0.1032 -0.1292  0.4869
 6546W        W10290   9.847   5.220   2.723 -0.2934  0.1166  0.2315
 6547W        W10291   0.651   2.229   2.972 -0.0579 -0.0862  0.1499
 6548W        W10292   6.717   2.729   0.200 -0.0788  0.0482 -0.1732
 6549W        W10293   7.446   2.737   8.565  0.0692  0.0366  0.1714
 6550W        W10294   0.946   6.771  10.981 -0.1351 -0.2082  0.2084
 6551W        W10295   5.043   6.259   1.535 -0.0156  0.2027 -0.0315
 6552W        W10296   6.750   6.087   2.162  0.1145 -0.2717 -0.1303
 6553W        W10297   2.015   5.960  11.281  0.1649 -0.2903  0.1306
 6554W        W10298   4.849   5.662  11.186 -0.4491 -0.2336 -0.3122
 6555W        W10299   4.472   7.242  11.437  0.1256  0.1646 -0.0941
 6556W        W10300   0.641   4.754   3.982 -0.0309  0.3030  0.1163
 6557W        W10301   0.634   0.128  10.023  0.0463 -0.1316  0.1472
 6558W        W10302   8.551   5.512  10.926  0.0050  0.4013 -0.0204
 6559W        W10303   8.643   5.308   8.162 -0.4233 -0.0718 -0.0939
 6560W        W10304   1.545   1.892   9.860 -0.0182  0.0875 -0.2425
 6561W        W10305   6.318   0.865   2.608 -0.0737  0.1356  0.1194
 6562W        W10306   2.397   3.920   1.980  0.0189 -0.0827 -0.3757
 6563W        W10307   9.576   1.058   9.837 -0.1532 -0.0930 -0.1659
 6564W        W10308   9.280   6.459   9.418  0.1098  0.2270 -0.1486
 6565W        W10309   3.463   7.904   0.765  0.0303  0.0975 -0.0360
 6566W        W10310   9.743   6.358   2.380 -0.3640 -0.0373 -0.3157
 6567W        W10311   2.373   9.777  12.105  0.2060  0.1016  0.3622
 6568W        W10312   9.273   9.640   0.801  0.3325  0.0212 -0.1841
 6569W        W10313   0.016   7.128   1.201  0.0806 -0.1861 -0.1578
 6570W        W10314   7.373   6.877   1.037  0.0090  0.2856 -0.1698
 6571W        W10315   8.369   8.616   2.552 -0.0712  0.0157  0.0226
 6572W        W10316   1.169   0.583   0.098  0.0361 -0.0380  0.1063
 6573W        W10317   7.891   4.909  10.735  0.1732  0.0374 -0.2257
 6574W        W10318   9.538   9.258   0.614 -0.0762 -0.0885  0.1224
 6575W        W10319   1.205   6.386   1.785 -0.2076  0.1934 -0.0677
 6576W        W10320   0.727   0.032   0.572  0.1344  0.1363 -0.0912
 6577W        W10321   8.425   0.149   3.185 -0.3782 -0.5317  0.2293
 6578W        W10322   8.891   9.478  12.944  0.1802  0.1974  0.1755
 6579W        W10323   7.938   4.069   9.133  0.1638  0.0059 -0.2109
 6580W        W10324   8.216   5.288   9.846  0.0961  0.0462 -0.3184
 6581W        W10325   6.023   0.086  10.281 -0.2478  0.0525  0.3399
 6582W        W10326   4.681   9.006   3.081 -0.2840  0.1863 -0.3615
 6583W        W10327   9.342   8.672   8.732  0.1961  0.1853 -0.1382
 6584W        W10328   9.872   1.011   5.357  0.2797 -0.0666 -0.0771
 6585W        W10329   3.963   7.172  11.528 -0.2131  0.2545 -0.0418
 6586W        W10330   6.885   9.649   2.046 -0.0722  0.0718 -0.1275
 6587W        W10331   8.797   4.187   3.466 -0.2842  0.1253 -0.0887
 6588W        W10332   5.970   3.948   1.315 -0.1024  0.0878  0.0384
 6589W        W10333   5.847   2.763   9.042 -0.2436 -0.0047  0.2095
 6590W        W10334   3.462   1.251  11.476 -0.1217  0.1287 -0.3006
 6591W        W10335   5.170   8.633  11.553 -0.3306  0.1266 -0.0361
 6592W        W10336   1.839   0.877   0.573 -0.1944 -0.1022  0.1516
 6593W        W10337   2.143   2.764   3.925  0.2398  0.2458 -0.0374
 6594W        W10338   5.187   1.024   4.071  0.2923 -0.1758 -0.3373
 6595W        W10339   3.747   7.722  12.386 -0.2327  0.0206  0.1711
 6596W        W10340   7.719   6.682  11.574  0.0397 -0.1655 -0.0709
 6597W        W10341   5.046   0.124   1.625 -0.2383  0.0860  0.1561
 6598W        W10342   9.724   9.746   2.401  0.2034  0.1908  0.0371
 6599W        W10343   5.249   7.312  11.007 -0.1011 -0.4037  0.0410
 6600W        W10344   4.873   0.741   0.717  0.4406 -0.0877 -0.0986
 6601W        W10345   2.927   9.436   8.955 -0.0587  0.1201 -0.1193
 6602W        W10346   2.517   7.754   9.235  0.0625  0.0837 -0.1988
 6603W        W10347   5.579   8.718   9.944 -0.1963  0.1716 -0.0685
 6604W        W10348   7.390   4.025  11.924 -0.0808 -0.1391 -0.0773
 6605W        W10349   4.736   2.221   0.905 -0.2665 -0.1518  0.1666
 6606W        W10350   3.994   2.108   1.916  0.2214 -0.1064  0.3043
 6607W        W10351   0.133   8.470   8.263 -0.3756  0.0679 -0.0265
 6608W        W10352   3.221   8.615  10.589  0.0310 -0.0493  0.5259
 6609W        W10353   7.223   6.863  11.365 -0.0128 -0.0220  0.1616
 6610W        W10354   4.197   5.183  12.443  0.0174 -0.1247 -0.2656
 6611W        W10355   6.298   0.803   0.237 -0.0155  0.0641  0.0703
 6612W        W10356   1.194   9.734   9.859  0.1387 -0.0295 -0.2383
 6613W        W10357   2.819   0.588  11.688  0.0090 -0.0727  0.3568
 6614W        W10358   0.741   9.567   9.738 -0.1980  0.2189 -0.2908
 6615W        W10359   4.068   8.206  11.516  0.1382  0.1591 -0.2453
 6616W        W10360   8.151   0.486  10.542  0.2039 -0.0779  0.0997
 6617W        W10361   0.715   9.366   9.089 -0.0147  0.0632  0.0945
 6618W        W10362   3.844   3.993   0.809 -0.1157  0.1021 -0.0176
 6619W        W10363   6.308   1.983   5.161  0.1892 -0.1711  0.0684
 6620W        W10364   1.643   5.408   3.172 -0.3221  0.0486  0.1536
 6621W        W10365   1.700   2.250  10.196  0.1254  0.1053  0.0138
 6622W        W10366   2.556   9.665   1.823  0.1514 -0.1009 -0.0512
 6623W        W10367   3.205   3.468  10.264  0.1307 -0.1057 -0.2399
 6624W        W10368   4.664   1.507  12.502  0.0432 -0.0786  0.0391
 6625W        W10369   8.959   3.244  12.869 -0.2349 -0.2208  0.1102
 6626W        W10370   0.951   5.381   2.618  0.0690 -0.1209 -0.2489
 6627W        W10371   8.422   0.796   9.636  0.0557 -0.1083 -0.2683
 6628W        W10372   7.259   7.927   3.475 -0.0960 -0.0012 -0.2071
 6629W        W10373   8.706   3.701   1.619  0.2038 -0.1289 -0.2058
 6630W        W10374   8.740   2.806   1.252  0.4966 -0.1811  0.0215
 6631W        W10375   0.817   3.970   8.215 -0.2261  0.1647 -0.2128
 6632W        W10376   5.600   8.241   1.857 -0.3403  0.2671  0.1667
 6633W        W10377   4.582   6.308   2.754 -0.2356 -0.0238  0.0009
 6634W        W10378   0.478   2.332   0.169  0.2020 -0.0762  0.1918
 6635W        W10379   4.671   2.462   9.516  0.3163  0.1062 -0.0715
 6636W        W10380   5.367   5.098   3.272 -0.0148  0.0953  0.1817
 6637W        W10381   4.144   8.005   3.226 -0.0370 -0.1002 -0.3080
 6638W        W10382   3.018   1.263   2.069 -0.1526 -0.0310 -0.1895
 6639W        W10383   9.024   5.983  10.626 -0.2166  0.1580 -0.0558
 6640W        W10384   0.011   1.599  11.915 -0.1010 -0.3381 -0.2006
 6641W        W10385   5.145   7.714  11.900 -0.3255  0.4335  0.1958
 6642W        W10386   7.501   0.159  11.857  0.4976  0.2015  0.2902
 6643W        W10387   1.477   7.370   8.869  0.6414 -0.1904 -0.0535
 6644W        W10388   6.109   4.609   4.307 -0.2134 -0.2186 -0.1542
 6645W        W10389   4.436   9.523  12.471 -0.0544 -0.0167  0.0687
 6646W        W10390   8.766   4.757   0.430 -0.1267 -0.0683 -0.0644
 6647W        W10391   2.572   3.049  11.839  0.2327  0.3766  0.0134
 6648W        W10392   6.620   1.558  10.908  0.1734 -0.2652 -0.2324
 6649W        W10393   0.054   8.077   2.414  0.0384 -0.2112  0.0743
 6650W        W10394   6.125   8.990   0.503  0.2408  0.0274  0.0617
 6651W        W10395   8.833   2.225   1.191  0.0873 -0.1786  0.4585
 6652W        W10396   0.099   8.567   0.547 -0.3520 -0.1172  0.1632
 6653W        W10397   9.289   0.132   3.152  0.0834 -0.0751 -0.0281
 6654W        W10398   1.747   1.783  12.662  0.1617  0.0070  0.0307
 6655W        W10399   3.572   9.720   9.578  0.1220  0.0099  0.0974
 6656W        W10400   7.253   1.501   2.263 -0.0400  0.2162  0.5469
 6657W        W10401   2.680   7.216  10.921 -0.1558  0.0968  0.0090
 6658W        W10402   2.256   6.497  11.240  0.1314  0.1427  0.2525
 6659W        W10403   8.053   2.156  10.726  0.0064  0.2439 -0.1057
 6660W        W10404   7.218   2.799   3.186 -0.1201 -0.0451  0.0073
 6661W        W10405   2.668   6.690   9.579 -0.1843 -0.1171 -0.5993
 6662W        W10406   2.246   7.596   9.634 -0.4747  0.4427  0.1064
 6663W        W10407   4.412   6.896  11.099 -0.0254 -0.0683 -0.0948
 6664W        W10408   9.003   3.171   5.079  0.0419 -0.1665  0.0340
 6665W        W10409   9.869   9.175  12.671  0.2507  0.1619  0.3432
 6666W        W10410   0.420   5.413  12.320  0.1781  0.0374  0.1157
 6667W        W10411   6.342   6.118  12.273 -0.0304 -0.0032  0.1769
 6668W        W10412   6.981   8.655  11.998  0.5270  0.0184 -0.2159
 6669W        W10413   6.944   8.582  10.787  0.0490  0.1826 -0.3815
 6670W        W10414   1.786   9.316  11.326 -0.0842 -0.3832 -0.0948
 6671W        W10415   8.184   7.543  12.667 -0.0264  0.1109  0.0152
 6672W        W10416   7.935   2.546   0.404  0.2062  0.2654  0.0763
 6673W        W10417   8.120   0.855   1.449 -0.0743 -0.0970  0.1342
 6674W        W10418   5.540   6.244  12.629 -0.1994 -0.4161 -0.6546
 6675W        W10419   0.112   2.137   1.186 -0.2043  0.0747 -0.0031
 6676W        W10420   9.097   6.176   1.321 -0.1537 -0.0661  0.0280
 6677W        W10421   2.592   9.136   0.506 -0.0361  0.1222 -0.1971
 6678W        W10422   7.601   5.478   8.407 -0.0768  0.0849 -0.0963
 6679W        W10423   6.733   6.854  11.173 -0.1115 -0.2845  0.2339
 6680W        W10424   8.832   3.700   2.645  0.1362 -0.0924 -0.2624
 6681W        W10425   3.979   3.560   4.332 -0.0348 -0.0421 -0.2015
 6682W        W10426   3.366   7.736   8.569 -0.0441 -0.1847 -0.1391
 6683W        W10427   5.271   5.561  10.327 -0.0964  0.3874  0.1240
 6684W        W10428   1.556   8.747   2.823  0.0542 -0.0631  0.2259
 6685W        W10429   0.506   0.044   9.522 -0.0316  0.2301 -0.1148
 6686W        W10430   6.182   6.381   9.878 -0.3325  0.1733 -0.0559
 6687W        W10431   7.931   3.045  12.977 -0.2118  0.0065 -0.3518
 6688W        W10432   0.060   4.516   1.989 -0.0072 -0.1608 -0.0764
 6689W        W10433   9.480   7.503  11.081 -0.1574  0.2188 -0.0639
 6690W        W10434   9.099   0.044   0.491  0.3395  0.0713  0.3902
 6691W        W10435   4.540   3.311  12.649 -0.2359  0.3201  0.1582
 6692W        W10436   2.808   6.091  10.328 -0.0884 -0.1109 -0.0699
 6693W        W10437   3.935   5.779  12.451 -0.4827 -0.1094  0.0395
 6694W        W10438   9.777   3.268  12.618 -0.0497  0.0735 -0.0589
 6695W        W10439   2.154   9.534   4.003 -0.0811 -0.0008  0.2855
 6696W        W10440   7.231   2.910   0.238  0.1270 -0.1327 -0.2339
 6697W        W10441   7.658   2.823   2.369 -0.1360 -0.1077  0.3095
 6698W        W10442   1.050   5.991   9.166 -0.3516  0.1178  0.0462
 6699W        W10443   6.342   8.772  12.583 -0.3589  0.3502 -0.3866
 6700W        W10444   0.511   5.509   9.400 -0.2215  0.3353 -0.1433
 6701W        W10445   3.792   5.767  11.227  0.3407  0.0940  0.0219
 6702W        W10446   9.582   5.899   0.441 -0.0519 -0.0326  0.0771
 6703W        W10447   7.331   0.427  12.275 -0.1820  0.0690  0.1830
 6704W        W10448   4.204   4.217   0.474 -0.2403 -0.0580 -0.0168
 6705W        W10449   2.794   9.567   9.896  0.2868 -0.1943 -0.2053
 6706W        W10450   8.540   1.606   3.745 -0.0282  0.0369 -0.2001
 6707W        W10451   0.469   9.556   4.086 -0.1226  0.0802  0.3526
 6708W        W10452   0.547   8.212   9.509 -0.1254  0.0193  0.0220
 6709W        W10453   6.171   2.268   9.039  0.0985  0.3397 -0.2214
 6710W        W10454   6.835   2.101   1.546 -0.0417  0.1029  0.2274
 6711W        W10455   5.403   3.366   2.405  0.1690  0.0506  0.2537
 6712W        W10456   0.743   4.542   9.201  0.2572  0.0176  0.2143
 6713W        W10457   3.283   7.419  10.408  0.0898  0.1308 -0.3316
 6714W        W10458   3.237   3.104   3.037  0.1151  0.4237  0.1396
 6715W        W10459   2.538   0.965   9.926 -0.0919 -0.0690 -0.3656
 6716W        W10460   5.630   3.298   4.589  0.1736 -0.1891 -0.1345
 6717W        W10461   6.627   4.430   3.045  0.1831  0.1207  0.0482
 6718W        W10462   0.447   0.905  12.237  0.1073 -0.0490  0.1029
 6719W        W10463   2.859   8.988  10.653  0.0851 -0.0735 -0.0013
 6720W        W10464   8.589   7.208   2.444  0.1284 -0.2767  0.1193
 6721W        W10465   5.078   7.687  10.583 -0.1802 -0.1466 -0.3347
 6722W        W10466   9.186   8.945   1.014 -0.1540  0.0658  0.1919
 6723W        W10467   4.790   2.919   9.953 -0.3962 -0.2437  0.0822
 6724W        W10468   2.011   8.989   3.036  0.2967 -0.1854  0.3648
 6725W        W10469   4.851   2.042   3.490  0.0131 -0.2321  0.2744
 6726W        W10470   6.825   4.627  11.812 -0.4762  0.2591  0.2442
 6727W        W10471   4.808   1.884   1.889 -0.0037  0.1524  0.1061
 6728W        W10472   3.610   5.691   9.506  0.1946 -0.2079 -0.1399
 6729W        W10473   9.146   6.778   3.638 -0.2034 -0.0425 -0.1996
 6730W        W10474   2.353   2.382   1.354 -0.2776  0.1701 -0.2016
 6731W        W10475   2.014   3.044   8.837  0.2122  0.0100 -0.2759
 6732W        W10476   3.618   3.494  12.141 -0.3506 -0.0467 -0.0836
 6733W        W10477   2.830   6.299  12.761 -0.1105  0.0947 -0.1138
 6734W        W10478   7.052   5.074  11.088 -0.3227  0.0388  0.0397
 6735W        W10479   8.569   4.542  10.839  0.2444 -0.2634 -0.2029
 6736W        W10480   1.494   9.635   9.411  0.2484 -0.2449 -0.1776
 6737W        W10481   6.381   6.253  12.974  0.0522  0.0645  0.1541
 6738W        W10482   8.002   1.782  11.029  0.2272  0.1069  0.2258
 6739W        W10483   8.400   9.669   0.037 -0.0776 -0.0871 -0.4455
 6740W        W10484   0.935   1.341   2.885  0.1068 -0.0538  0.1266
 6741W        W10485   9.272   2.976  11.759  0.2757  0.0357 -0.2306
 6742W        W10486   3.683   0.082   9.994 -0.0096  0.3863 -0.1059
 6743W        W10487   4.233   8.049  12.393  0.1087  0.0200  0.4117
 6744W        W10488   1.560   9.719   2.150 -0.0300 -0.0981  0.0824
 6745W        W10489   7.920   4.514   8.332 -0.3625  0.1342 -0.0441
 6746W        W10490   4.179   6.695  12.740  0.2245  0.0032  0.2022
 6747W        W10491   3.691   4.275  10.237 -0.1964 -0.0033  0.0261
 6748W        W10492   4.343   6.062   3.205  0.2066  0.1594  0.2402
 6749W        W10493   4.781   5.999  12.535  0.2521  0.4571 -0.4757
 6750W        W10494   0.376   4.928   9.610 -0.3478  0.0617  0.1827
 6751W        W10495   8.092   4.677   3.084 -0.0335 -0.1168 -0.1542
 6752W        W10496   3.320   6.128   9.469  0.1032  0.1012  0.1624
 6753W        W10497   8.763   8.912  11.672  0.0459 -0.0330 -0.0876
 6754W        W10498   3.172   0.807  10.706 -0.1499 -0.0250 -0.1746
 6755W        W10499   9.009   3.625   0.305  0.1875 -0.0427  0.0040
 6756W        W10500   0.841   1.427   9.176 -0.0745 -0.2621 -0.0278
 6757W        W10501   1.586   9.830   0.294 -0.3154  0.0798 -0.1697
 6758W        W10502   5.786   7.358   1.708  0.0215 -0.2334  0.1916
 6759W        W10503   6.802   0.423   0.885 -0.1430 -0.0193  0.5164
 6760W        W10504   8.762   8.180   0.822  0.3982  0.0627 -0.0795
 6761W        W10505   5.813   6.940  12.783 -0.0716 -0.2153 -0.1263
 6762W        W10506   7.379   0.071   2.920  0.1805  0.0036  0.2868
 6763W        W10507   7.509   9.571   3.132  0.2401 -0.1558  0.0310
 6764W        W10508   1.439   0.599  11.423  0.1403  0.0130  0.1277
 6765W        W10509   4.349   0.453  12.753  0.1373 -0.0017 -0.0669
 6766W        W10510   4.374   4.856  12.144  0.0187 -0.1112 -0.0049
 6767W        W10511   4.068   6.995   9.412  0.1875  0.2872 -0.0510
 6768W        W10512   0.976   0.549   8.153 -0.0931  0.0234 -0.0687
 6769W        W10513   3.729   7.146  10.696  0.3480  0.2333  0.2783
 6770W        W10514   1.563   6.165  12.037 -0.0148  0.1564  0.1784
 6771W        W10515   7.100   7.666   2.558  0.0660  0.0155  0.0658
 6772W        W10516   3.839   1.145  11.921  0.0840 -0.0622 -0.0394
 6773W        W10517   0.792   3.730   1.076 -0.2344 -0.3075 -0.1756
 6774W        W10518   3.913   0.901  11.448 -0.1409  0.1863  0.0869
 6775W        W10519   5.624   1.066  11.094  0.3431 -0.0217  0.0806
 6776W        W10520   6.593   1.882   1.129  0.0204 -0.1748 -0.2415
 6777W        W10521   1.486   4.210   9.336  0.1681  0.4969  0.0497
 6778W        W10522   6.609   8.405   1.498  0.3464  0.1108  0.0232
 6779W        W10523   9.890   7.150   0.351  0.1617 -0.1220  0.4328
 6780W        W10524   8.308   9.657   3.474  0.1150  0.2304 -0.1352
 6781W        W10525   3.549   2.766  10.666  0.2762  0.2514 -0.2595
 6782W        W10526   9.829   4.393   0.135  0.2956 -0.3775  0.4241
 6783W        W10527   5.389   2.860   2.481  0.2728 -0.0720  0.3945
 6784W        W10528   1.324   4.215   3.887  0.1847 -0.1474 -0.2570
 6785W        W10529   4.014   4.628   4.146 -0.1058 -0.0711 -0.0548
 6786W        W10530   8.313   5.095  10.989  0.0870  0.0725 -0.0664
 6787W        W10531   7.379   1.744  11.959 -0.3752 -0.0461 -0.2024
 6788W        W10532   2.862   8.535   2.192 -0.1783 -0.1020 -0.5867
 6789W        W10533   5.657   1.021   0.992 -0.0822 -0.1712  0.2492
 6790W        W10534   8.431   6.138   2.505  0.3429  0.1759  0.1505
 6791W        W10535   8.372   7.987   0.556 -0.2133  0.0460  0.2001
 6792W        W10536   2.580   5.699   0.396 -0.4030  0.1214  0.0949
 6793W        W10537   1.264   1.423   3.709  0.1092 -0.1099  0.1748
 6794W        W10538   5.415   2.321   1.819  0.0394  0.3285 -0.0522
 6795W        W10539   1.884   4.632  10.322  0.1882 -0.1565  0.0445
 6796W        W10540   5.304   9.585  11.899 -0.4234 -0.2528 -0.1704
 6797W        W10541   1.452   3.459   2.903  0.0509 -0.2800 -0.0391
 6798W        W10542   3.538   2.758   0.465 -0.1014  0.0774 -0.1289
 6799W        W10543   5.992   5.020  12.610  0.2961 -0.0974 -0.0717
 6800W        W10544   7.493   9.898  12.548  0.1552 -0.2172 -0.5332
 6801W        W10545   7.323   6.280   3.706 -0.0723 -0.0743 -0.0343
 6802W        W10546   2.920   4.874   3.331  0.1659 -0.1273  0.2313
 6803W        W10547   1.760   8.675   3.392 -0.0393  0.1506 -0.0422
 6804W        W10548   1.944   0.399   3.905 -0.1903 -0.0839 -0.1838
 6805W        W10549   2.092   0.630   2.103 -0.0807  0.1703 -0.1571
 6806W        W10550   5.881   8.761   1.778 -0.0301  0.1575  0.1717
 6807W        W10551   0.532   5.138   2.496  0.0132 -0.0455 -0.1764
 6808W        W10552   1.057   1.542  10.464 -0.1803 -0.0970  0.2213
 6809W        W10553   8.262   5.800   9.944  0.1407  0.3177 -0.1515
 6810W        W10554   9.497   0.273   2.190 -0.0331  0.0406 -0.1311
 6811W        W10555   2.860   0.359   0.986  0.1016  0.1540 -0.0567
 6812W        W10556   7.741   2.543   1.283 -0.1710 -0.0526 -0.1908
 6813W        W10557   7.903   2.248   8.587  0.1081 -0.0774 -0.1126
 6814W        W10558   9.220   4.852  12.063  0.1855 -0.1286  0.2240
 6815W        W10559   6.407   4.924  11.718  0.1042 -0.1617  0.0936
 6816W        W10560   9.029   9.856   5.160  0.1549 -0.0283 -0.0193
 6817W        W10561   3.115   4.094  11.406  0.1191  0.1760 -0.0311
 6818W        W10562   0.195   4.077   1.808  0.2401  0.1175 -0.0086
 6819W        W10563   0.708   9.890   8.847  0.0394  0.0166  0.1122
 6820W        W10564   7.861   8.166   1.276 -0.0248 -0.2621  0.1442
 6821W        W10565   4.269   1.774   1.438 -0.0776 -0.0636 -0.0543
 6822W        W10566   7.328   8.947   2.497  0.0590 -0.2207 -0.1138
 6823W        W10567   5.947   5.310   2.079 -0.0470 -0.1741  0.0649
 6824W        W10568   8.310   0.101   1.335  0.0731  0.0380 -0.0157
 6825W        W10569   1.262   8.855   1.662  0.1751  0.0869  0.0764
 6826W        W10570   5.859   8.420   1.409  0.1344 -0.2222 -0.1130
 6827W        W10571   9.657   0.585   2.892  0.1889 -0.1115 -0.1594
 6828W        W10572   2.732   8.772  12.624  0.2762  0.2404  0.0052
 6829W        W10573   9.901   5.646   1.777 -0.1906 -0.2466 -0.1876
 6830W        W10574   7.321   6.480  10.622  0.0155  0.1046  0.0635
 6831W        W10575   1.482   9.124   3.151 -0.1857  0.0928 -0.0087
 6832W        W10576   5.770   8.700   2.784 -0.0441 -0.0657 -0.0986
 6833W        W10577   4.780   8.182   0.374 -0.0672  0.2014  0.2320
 6834W        W10578   3.543   6.575  12.243  0.1819  0.0643 -0.0492
 6835W        W10579   4.779   2.094  12.742  0.0393 -0.0954  0.2452
 6836W        W10580   8.206   7.507   2.678  0.0145 -0.0832 -0.2466
 6837W        W10581   8.230   7.718  11.516  0.0584 -0.0600 -0.4973
 6838W        W10582   5.868   3.553   2.550  0.2988  0.1922 -0.0710
 6839W        W10583   4.849   4.003  10.271 -0.2688  0.0695 -0.1656
 6840W        W10584   0.586   7.824   0.016  0.3397 -0.2198 -0.1889
 6841W        W10585   2.358   0.415   1.248 -0.2217 -0.0198  0.0752
 6842W        W10586   7.525   5.238   9.320  0.2595  0.1478 -0.1212
 6843W        W10587   0.398   0.855  11.457 -0.2416 -0.1587 -0.2678
 6844W        W10588   6.101   5.591  11.417 -0.2128  0.0741  0.1013
 6845W        W10589   1.901   8.056   1.864  0.0609 -0.0982  0.1785
 6846W        W10590   7.320   8.989   1.221 -0.1815  0.1597 -0.2029
 6847W        W10591   3.999   9.147   2.766  0.1482 -0.1194 -0.1172
 6848W        W10592   9.086   0.654  10.816  0.0238  0.1216  0.0832
 6849W        W10593   6.894   2.422  11.543  0.2109 -0.0163  0.5122
 6850W        W10594   3.231   1.127  12.474  0.0351  0.0532 -0.0323
 6851W        W10595   6.238   8.343   1.874  0.0724  0.1394  0.0252
 6852W        W10596   4.306   4.134   2.384 -0.0718  0.0874  0.1095
 6853W        W10597   2.380   1.058   0.531 -0.0443  0.1784  0.0271
 6854W        W10598   8.383   8.407   1.994 -0.1192 -0.0003 -0.2120
 6855W        W10599   3.712   5.270  12.466  0.2214 -0.1107  0.0543
 6856W        W10600   6.902   7.112   2.574 -0.0900 -0.2438  0.3119
 6857W        W10601   9.752   3.402  11.653  0.0945  0.0127 -0.3059
 6858W        W10602   7.714   3.218   9.293 -0.1048  0.1321 -0.2346
 6859W        W10603   9.798   9.088   4.585  0.0912 -0.1540 -0.1186
 6860W        W10604   9.481   7.192   9.817 -0.0643 -0.4779 -0.2527
 6861W        W10605   9.228   0.764   9.685 -0.3082  0.1467  0.1528
 6862W        W10606   4.308   9.421   0.020 -0.0178  0.2452 -0.1873
 6863W        W10607   8.315   4.913   3.596 -0.0041 -0.2850  0.1482
 6864W        W10608   2.779   5.538   3.846 -0.1347  0.1519  0.0316
 6865W        W10609   7.505   8.476   1.894 -0.2276 -0.2953 -0.1786
 6866W        W10610   7.380   3.092   1.789 -0.1609 -0.1028 -0.0509
 6867W        W10611   4.767   1.468   1.614  0.0929 -0.1118  0.0609
 6868W        W10612   0.311   1.477   9.306 -0.3596 -0.0023 -0.0041
 6869W        W10613   2.420   9.905   0.930  0.0004 -0.1326 -0.0585
 6870W        W10614   1.587   3.562  10.882  0.0796  0.1304 -0.2958
 6871W        W10615   0.486   4.275   9.502  0.2167 -0.0837  0.2270
 6872W        W10616   6.903   3.644   4.818  0.2042  0.4488 -0.1370
 6873W        W10617   0.714   4.406   7.923  0.0836 -0.0991 -0.2973
 6874W        W10618   9.660   0.868   1.489  0.2553  0.0422 -0.0894
 6875W        W10619   3.001   5.084  12.482 -0.1515 -0.0156  0.0473
 6876W        W10620   6.777   3.741   0.559  0.1897  0.2263  0.1180
 6877W        W10621   0.073   6.915   9.884 -0.0152  0.0831  0.1375
 6878W        W10622   9.647   3.819   9.871 -0.3077  0.0140  0.2863
 6879W        W10623   1.112   5.419   9.149  0.0775 -0.2391  0.1332
 6880W        W10624   8.348   4.530   2.685 -0.2281  0.0802  0.2340
 6881W        W10625   0.026   0.429   3.871 -0.5203 -0.2465  0.1125
 6882W        W10626   9.589   2.060  11.991  0.1991 -0.1448  0.1783
 6883W        W10627   7.079   1.788  12.418  0.2251 -0.3955 -0.0593
 6884W        W10628   6.959   2.427   1.901 -0.2083 -0.0642  0.1027
 6885W        W10629   8.996   5.822   1.690  0.0745  0.1192 -0.0830
 6886W        W10630   7.442   4.213  12.889 -0.0327  0.2709  0.3324
 6887W        W10631   9.590   7.687   0.412 -0.1823  0.1390  0.0430
 6888W        W10632   1.643   4.502   1.977  0.0493 -0.0862 -0.0108
 6889W        W10633   1.146   6.187   1.296 -0.0798  0.0237  0.0699
 6890W        W10634   3.771   2.168   9.256 -0.2035 -0.1521 -0.2393
 6891W        W10635   0.466   1.692  10.843  0.0912 -0.0949 -0.2644
 6892W        W10636   5.645   2.286   0.874 -0.2115 -0.1035 -0.0287
 6893W        W10637   5.203   7.626   0.002  0.1658  0.2322 -0.1024
 6894W        W10638   5.319   4.132   3.242 -0.3561 -0.2429  0.0146
 6895W        W10639   6.786   0.645  12.075  0.0534  0.1304 -0.0958
 6896W        W10640   6.680   2.669   3.263 -0.1066 -0.1845 -0.0791
 6897W        W10641   7.713   2.206   4.383  0.0567 -0.0488 -0.0701
 6898W        W10642   4.486   5.263   9.905 -0.2728 -0.0913  0.1743
 6899W        W10643   5.798   6.256  10.426 -0.1392 -0.3772 -0.2505
 6900W        W10644   1.064   8.419   9.288  0.0833 -0.0596 -0.5474
 6901W        W10645   4.762   7.335   1.694  0.0458  0.1409 -0.1020
 6902W        W10646   4.899   5.058   4.078 -0.0877  0.0284 -0.1425
 6903W        W10647   0.370   4.445   1.426 -0.0046  0.0821 -0.2142
 6904W        W10648   1.268   1.530   2.094 -0.0090  0.0898  0.1458
 6905W        W10649   1.840   4.267   2.744 -0.0424 -0.0673  0.0687
 6906W        W10650   5.797   6.864   1.819 -0.1903  0.1114  0.2807
 6907W        W10651   9.428   2.692   0.428 -0.0086  0.2454 -0.2762
 6908W        W10652   7.390   5.104   4.469  0.4644 -0.2016 -0.1688
 6909W        W10653   5.194   1.900   1.588 -0.0123 -0.0678 -0.1720
 6910W        W10654   3.680   2.993  12.298 -0.0685 -0.2055  0.0692
 6911W        W10655   0.809   0.540   0.450 -0.0963 -0.1011 -0.0497
 6912W        W10656   8.777   6.393   3.455  0.2141 -0.2564  0.1090
 6913W        W10657   1.729   5.620   9.110 -0.0764 -0.1747  0.2407
 6914W        W10658   9.053   8.666  12.605  0.2600 -0.5298 -0.0283
 6915W        W10659   7.585   3.728   9.442 -0.0198 -0.1867  0.0725
 6916W        W10660   6.251   4.704  10.658 -0.2311  0.1966 -0.0446
 6917W        W10661   9.123   3.731   9.654  0.0499 -0.0706  0.2773
 6918W        W10662   0.686   2.326   9.313 -0.1201 -0.1647 -0.0322
 6919W        W10663   3.112   7.821   3.044 -0.1416 -0.1545  0.3397
 6920W        W10664   8.930   5.397   3.848  0.0226 -0.0260  0.2219
 6921W        W10665   2.387   1.922  12.872  0.0536  0.0366  0.0690
 6922W        W10666   2.465   7.484   0.261 -0.1995  0.1396 -0.3704
 6923W        W10667   4.335   6.175  12.373  0.0792 -0.1876 -0.1550
 6924W        W10668   0.625   6.505   3.775 -0.1129 -0.2456 -0.0584
 6925W        W10669   2.099   8.603  12.826  0.2266  0.1217  0.3608
 6926W        W10670   4.062   2.532  10.898  0.0587 -0.1283  0.0534
 6927W        W10671   2.449   9.685   0.089 -0.0068 -0.2338 -0.3301
 6928W        W10672   5.158   5.879   3.587  0.1305 -0.2228 -0.1661
 6929W        W10673   8.294   4.085  10.359 -0.2275  0.3166 -0.2339
 6930W        W10674   3.878   9.285   1.827  0.1058 -0.1200 -0.1343
 6931W        W10675   8.625   2.376  11.546 -0.0765  0.2422  0.0896
 6932W        W10676   2.045   3.823   3.111  0.2118  0.2434 -0.1765
 6933W        W10677   0.043   6.991  11.231 -0.2726  0.3041 -0.0701
 6934W        W10678   0.060   6.703  12.321  0.1926 -0.0383 -0.1237
 6935W        W10679   5.862   4.274   8.882  0.0080 -0.0225  0.0566
 6936W        W10680   8.790   5.836   3.726 -0.0698  0.1474 -0.0115
 6937W        W10681   9.120   3.993  12.610 -0.2661 -0.2124  0.1056
 6938W        W10682   3.000   0.659  11.179  0.4202 -0.0721  0.3089
 6939W        W10683   2.519   6.410   2.845  0.1742 -0.0546 -0.0968
 6940W        W10684   5.908   9.534  11.723  0.1771  0.0121  0.0306
 6941W        W10685   8.613   6.610   9.895  0.1363  0.2367  0.2368
 6942W        W10686   9.644   9.074   1.064 -0.3238  0.1441 -0.4341
 6943W        W10687   7.586   2.554   0.760  0.0843  0.1223 -0.2229
 6944W        W10688   3.163   7.241   2.214  0.1989 -0.1151  0.2030
 6945W        W10689   1.162   6.059   9.853  0.2014  0.3382 -0.1047
 6946W        W10690   3.670   9.341   0.002  0.0563  0.3918  0.0669
 6947W        W10691   7.533   7.852  10.600 -0.1219 -0.2106 -0.0437
 6948W        W10692   8.695   6.482  10.568  0.2315 -0.1025  0.1107
 6949W        W10693   6.083   0.841  11.666  0.0225 -0.1146  0.2413
 6950W        W10694   0.730   0.619   1.386 -0.0931  0.0338 -0.1107
 6951W        W10695   8.800   4.972  10.950  0.5568  0.1593 -0.1837
 6952W        W10696   2.629   7.598  12.154  0.2175 -0.1422  0.1135
 6953W        W10697   5.596   1.810   3.098  0.1139  0.2042  0.2677
 6954W        W10698   3.544   6.795   0.765 -0.0466  0.0315  0.2103
 6955W        W10699   9.636   8.095  12.783  0.1921  0.0038 -0.3334
 6956W        W10700   1.493   8.132  11.686  0.0529 -0.1156  0.0991
 6957W        W10701   4.076   1.292   9.386  0.0267  0.0555 -0.0007
 6958W        W10702   3.304   0.389   2.094 -0.0183  0.4164  0.1476
 6959W        W10703   1.611   9.422   2.734 -0.0554  0.1426  0.2121
 6960W        W10704   9.725   7.860  11.540 -0.2950 -0.1032 -0.3005
 6961W        W10705   2.905   4.941   9.724 -0.2513 -0.4091  0.1123
 6962W        W10706   0.700   8.003  10.509  0.2220  0.0131 -0.3189
 6963W        W10707   3.380   2.524   4.903  0.1365  0.0088  0.1721
 6964W        W10708   3.108   6.185  10.864  0.4158 -0.0987 -0.1851
 6965W        W10709   7.512   5.014   8.849  0.2375  0.1255 -0.0592
 6966W        W10710   2.342   9.709   9.233 -0.3432  0.1911 -0.0166
 6967W        W10711   5.465   7.158   2.624  0.0407 -0.2426 -0.1853
 6968W        W10712   9.749   2.382   9.529  0.3720  0.1159  0.0375
 6969W        W10713   7.750   3.624   0.638 -0.0789 -0.0802 -0.0963
 6970W        W10714   1.438   8.376   2.481  0.0479  0.0880 -0.1276
 6971W        W10715   6.919   9.439  11.186 -0.2107  0.3728 -0.1251
 6972W        W10716   9.619   0.376  12.656  0.3887 -0.0928  0.1754
 6973W        W10717   0.285   1.591   0.993  0.0634 -0.0617  0.1448
 6974W        W10718   7.775   8.096  10.225  0.0093  0.2689 -0.1378
 6975W        W10719   4.299   3.637   3.288 -0.0309 -0.3552 -0.2083
 6976W        W10720   5.415   2.354   2.296  0.1566 -0.0530  0.1017
 6977W        W10721   4.013   5.391   8.756  0.2283 -0.0238 -0.3472
 6978W        W10722   2.996   5.570  12.076  0.1517  0.0889  0.3604
 6979W        W10723   7.099   2.211  12.117 -0.0268  0.3400 -0.1502
 6980W        W10724   1.397   0.381  10.581 -0.4120 -0.3124  0.1616
 6981W        W10725   5.524   7.399   0.811 -0.0303  0.2818 -0.3305
 6982W        W10726   8.679   5.348   1.400  0.1861  0.0661 -0.0712
 6983W        W10727   6.415   5.622   3.677  0.0091  0.1224 -0.0541
 6984W        W10728   9.321   6.237  11.041  0.4582  0.0053 -0.1348
 6985W        W10729   0.683   3.357   3.424 -0.0199  0.0278  0.0346
 6986W        W10730   9.169   5.599   0.569 -0.0376 -0.2417 -0.2528
 6987W        W10731   9.244   9.771  10.353  0.0315 -0.0869 -0.2872
 6988W        W10732   9.468   3.132   2.731 -0.0222 -0.1808  0.1405
 6989W        W10733   9.153   7.908   0.583  0.0762 -0.0333 -0.1154
 6990W        W10734   8.735   0.807  12.054 -0.1034 -0.2183  0.1875
 6991W        W10735   9.326   0.427   3.699 -0.0430  0.2949 -0.0158
 6992W        W10736   8.339   2.947   4.821  0.0940 -0.0664  0.1768
 6993W        W10737   5.785   0.663   1.729  0.0090 -0.3813  0.3111
 6994W        W10738   3.390   7.550   3.351  0.2286 -0.2579 -0.0636
 6995W        W10739   7.560   0.578   4.353 -0.1565 -0.1970 -0.1285
 6996W        W10740   7.597   1.514   0.391  0.4882  0.0269 -0.4483
 6997W        W10741   0.491   1.394   0.270 -0.1455  0.0133 -0.2096
 6998W        W10742   2.682   4.073   8.915  0.0781 -0.2048  0.0704
 6999W        W10743   2.066   2.819  11.746  0.0630  0.1349 -0.0437
 7000W        W10744   2.886   7.131  12.851  0.1236 -0.3387 -0.0385
 7001W        W10745   0.190   0.633   9.015 -0.3134 -0.0237  0.1591
 7002W        W10746   4.813   4.713  12.335 -0.1876  0.3478 -0.1648
 7003W        W10747   7.529   9.268  11.167 -0.0496  0.1275 -0.1237
 7004W        W10748   8.541   3.760   1.165  0.2371  0.2760 -0.0918
 7005W        W10749   1.846   7.600   2.097 -0.2863  0.1451  0.1572
 7006W        W10750   6.275   0.423  10.004  0.2701  0.0787  0.0723
 7007W        W10751   3.523   0.277   0.253  0.1005  0.0124 -0.1205
 7008W        W10752   1.223   6.187   3.686 -0.2819 -0.0671 -0.1249
 7009W        W10753   0.159   2.069  11.823  0.0775 -0.0449  0.0433
 7010W        W10754   2.670   2.272  10.656 -0.1485  0.1435 -0.1890
 7011W        W10755   3.471   4.746  12.949 -0.2137  0.2839  0.2134
 7012W        W10756   7.584   0.161   9.890  0.0599 -0.1720 -0.1082
 7013W        W10757   3.427   0.970   9.597  0.1432 -0.3267 -0.1877
 7014W        W10758   7.414   1.775  11.314  0.0208  0.3524 -0.0602
 7015W        W10759   6.210   9.720   0.695 -0.0365  0.0563 -0.2355
 7016W        W10760   0.671   7.349   3.975 -0.0901 -0.3084  0.1461
 7017W        W10761   4.785   7.360  12.841  0.2835 -0.1139  0.0813
 7018W        W10762   0.922   1.518   9.993 -0.0520 -0.3717  0.3775
 7019W        W10763   8.511   5.045   1.854 -0.0641 -0.0961  0.0897
 7020W        W10764   0.404   4.124   1.051  0.2775  0.0761 -0.3124
 7021W        W10765   1.047   9.023  11.836  0.2071  0.2433  0.0645
 7022W        W10766   1.447   3.809  10.485  0.2101 -0.0804  0.5387
 7023W        W10767   6.812   5.202   8.587  0.2045  0.0163  0.0774
 7024W        W10768   9.693   2.971  10.245  0.2094 -0.0991 -0.0420
 7025W        W10769   6.749   8.916   2.362  0.2022 -0.0437 -0.0513
 7026W        W10770   2.397   3.891   0.538 -0.2780  0.2219  0.4748
 7027W        W10771   6.079   2.070  10.379 -0.3071  0.1829  0.4817
 7028W        W10772   9.801   7.372   0.792  0.0236  0.0415  0.1947
 7029W        W10773   1.194   4.429   0.343 -0.0894  0.1095  0.0012
 7030W        W10774   6.713   1.255   9.614  0.2730 -0.0084  0.0447
 7031W        W10775   8.108   6.532   9.473  0.2068 -0.4241 -0.0140
 7032W        W10776   0.912   3.985   3.968 -0.3798  0.1703  0.0186
 7033W        W10777   4.160   4.577   9.420  0.2093  0.0209  0.0135
 7034W        W10778   8.968   2.224  10.089  0.1644  0.0727  0.3047
 7035W        W10779   5.087   3.382   9.000 -0.2102 -0.3517 -0.2091
 7036W        W10780   2.241   5.707   8.215 -0.2727 -0.2736  0.1242
 7037W        W10781   4.650   9.154  12.212 -0.2169 -0.3920 -0.1391
 7038W        W10782   9.007   0.350  11.221  0.0492 -0.2956  0.2185
 7039W        W10783   4.482   1.542   2.441 -0.0288  0.1172  0.1988
 7040W        W10784   2.709   9.259   1.058  0.0840 -0.3021  0.0326
 7041W        W10785   0.471   5.998   3.623 -0.1394  0.0247 -0.1384
 7042W        W10786   9.559   8.791   9.138  0.0142 -0.0679 -0.0891
 7043W        W10787   1.145   2.693  10.833 -0.2223  0.1877  0.0999
 7044W        W10788   7.625   3.173   0.350  0.0240 -0.0878  0.1890
 7045W        W10789   7.071   0.786  12.587  0.2168  0.1980  0.1665
 7046W        W10790   9.131   4.340   2.207 -0.0967  0.1270 -0.1788
 7047W        W10791   8.246   5.535  11.370 -0.4106  0.0758 -0.3829
 7048W        W10792   3.092   7.764   1.502 -0.2100  0.0584  0.0186
 7049W        W10793   5.137   1.338   3.576  0.2157  0.1080 -0.0072
 7050W        W10794   7.848   7.068   1.161 -0.1043  0.2724 -0.1664
 7051W        W10795   9.031   1.771   9.768 -0.0641  0.1135 -0.0506
 7052W        W10796   5.267   7.182   1.762 -0.2583 -0.0023  0.2710
 7053W        W10797   9.285   0.487   1.391 -0.1672  0.2313  0.0635
 7054W        W10798   7.652   0.644  11.954  0.0507 -0.0933 -0.0392
 7055W        W10799   7.298   3.425   2.146  0.3791 -0.2363 -0.2748
 7056W        W10800   2.169   7.375   0.712 -0.1419 -0.1939  0.0189
 7057W        W10801   4.224   5.908  12.858  0.0189  0.0280  0.2629
 7058W        W10802   2.510   8.071   3.169  0.0348  0.0104 -0.3145
 7059W        W10803   0.474   7.453   0.919 -0.2259  0.1410  0.2299
 7060W        W10804   8.977   3.904   9.161  0.0458  0.3164  0.0617
 7061W        W10805   0.548   5.789   2.403 -0.3034 -0.0189  0.1150
 7062W        W10806   5.951   0.958   3.188 -0.0684  0.2683  0.0970
 7063W        W10807   1.229   8.489  12.944 -0.0052  0.1273 -0.3105
 7064W        W10808   0.833   5.170   9.579  0.1085  0.0083  0.0079
 7065W        W10809   3.483   8.897  11.882 -0.4949  0.0173 -0.1951
 7066W        W10810   9.897   5.641  10.698  0.3496  0.0297 -0.0641
 7067W        W10811   3.174   1.834  12.026  0.2737  0.0363 -0.1943
 7068W        W10812   6.235   1.477   1.460  0.0524  0.1042 -0.0220
 7069W        W10813   3.616   8.272  10.879 -0.2891 -0.2681 -0.0725
 7070W        W10814   4.978   2.944  11.308  0.1672  0.1040 -0.0160
 7071W        W10815   5.715   0.264  11.311  0.1320 -0.0763 -0.0141
 7072W        W10816   9.309   5.837   1.050 -0.6000 -0.1573  0.0094
 7073W        W10817   6.565   8.937   6.664  0.0166 -0.0829  0.0732
 7074W        W10818   0.303   6.452  11.592  0.0986  0.0356  0.4619
 7075W        W10819   9.300   6.268  12.280  0.2829 -0.1000 -0.0829
 7076W        W10820   6.999   4.992  12.107 -0.0864 -0.1221 -0.5031
 7077W        W10821   1.024   9.161   3.643  0.0490  0.1026  0.0638
 7078W        W10822   1.710   9.810  12.707 -0.0230  0.0588  0.1601
 7079W        W10823   7.117   2.864   2.181 -0.1336  0.0348 -0.0957
 7080W        W10824   3.375   3.148  10.944 -0.0951  0.0303 -0.1669
 7081W        W10825   7.936   2.326   1.670 -0.0710 -0.2285  0.1769
 7082W        W10826   8.709   4.413  10.361  0.0654  0.0778  0.0520
 7083W        W10827   1.146   9.243  10.550  0.0258 -0.0854 -0.3034
 7084W        W10828   5.579   5.550   1.731  0.1045 -0.1043 -0.3343
 7085W        W10829   0.334   2.323   0.733 -0.0878  0.0455 -0.2492
 7086W        W10830   7.589   5.795   8.800 -0.1322 -0.0087 -0.0974
 7087W        W10831   8.577   6.104  10.222  0.0678  0.0668  0.1196
 7088W        W10832   9.351   4.755  12.974  0.0201  0.0478  0.0756
 7089W        W10833   8.726   3.817  12.089  0.2055 -0.2592 -0.0206
 7090W        W10834   0.327   4.933   1.835  0.5883 -0.0340  0.2261
 7091W        W10835   4.221   4.748   0.675  0.0662  0.2111 -0.2142
 7092W        W10836   7.511   7.447   8.863 -0.1007  0.1027  0.0952
 7093W        W10837   6.949   2.252   0.347  0.1250 -0.1422  0.1117
 7094W        W10838   5.176   7.424   9.189 -0.1232  0.0303 -0.0700
 7095W        W10839   0.195   6.305  12.059 -0.1190 -0.0997  0.1100
 7096W        W10840   5.073   4.852   3.676 -0.0472 -0.0641 -0.0427
 7097W        W10841   1.148   0.273  10.154 -0.1876 -0.2040 -0.0035
 7098W        W10842   0.705   3.670   9.117 -0.0319 -0.1912  0.0947
 7099W        W10843   6.203   0.853  12.156 -0.0797  0.0601 -0.2509
 7100W        W10844   3.524   8.613  10.182  0.0359  0.4200 -0.1921
 7101W        W10845   4.974   7.114  11.393 -0.0203  0.0890 -0.3296
 7102W        W10846   7.659   2.133  11.109 -0.4610 -0.1747 -0.0211
 7103W        W10847   8.375   2.217   1.924  0.0641  0.0772  0.0308
 7104W        W10848   2.946   3.084  10.457 -0.3023  0.0268  0.3574
 7105W        W10849   1.414   1.023  11.832  0.1210  0.3656  0.1936
 7106W        W10850   4.255   7.440  12.215 -0.0500  0.0406 -0.1773
 7107W        W10851   9.681   2.168   8.676  0.0389  0.0684 -0.2214
 7108W        W10852   3.587   0.226  11.724  0.1170 -0.0991 -0.1476
 7109W        W10853   8.018   6.121   1.608  0.2448 -0.0572 -0.0452
 7110W        W10854   2.849   8.473   0.443  0.0196 -0.0339  0.0907
 7111W        W10855   5.925   9.743  12.894  0.0940  0.1312 -0.0732
 7112W        W10856   5.103   7.914  11.048 -0.3073  0.2560 -0.1896
 7113W        W10857   1.449   1.981   2.398  0.0657 -0.1280  0.1252
 7114W        W10858   3.029   6.549  12.344  0.1514 -0.0564 -0.2872
 7115W        W10859   5.035   4.898  10.516  0.1310 -0.1158 -0.1553
 7116W        W10860   3.705   8.337   2.994  0.0869 -0.0645  0.1329
 7117W        W10861   9.428   8.639   1.393 -0.0503  0.1541  0.1395
 7118W        W10862   3.727   9.544   0.847  0.1637 -0.1080  0.2095
 7119W        W10863   7.026   4.484   3.338  0.0342  0.0991 -0.0449
 7120W        W10864   3.688   7.021   9.724 -0.1189  0.0158 -0.0999
 7121W        W10865   2.495   7.067   0.907 -0.1452 -0.0605 -0.1047
 7122W        W10866   0.196   5.110  11.526 -0.0872  0.2725 -0.1838
 7123W        W10867   7.054   4.208  10.069 -0.0338 -0.1843  0.0482
 7124W        W10868   3.818   7.322  12.704 -0.1130 -0.1771 -0.2222
 7125W        W10869   7.846   3.803   2.706 -0.1161 -0.2607  0.0056
 7126W        W10870   4.899   3.463   8.323  0.1810  0.0494  0.1402
 7127W        W10871   2.749   6.654   3.276 -0.0286  0.3655  0.3146
 7128W        W10872   4.113   6.502  10.888  0.0116  0.0137 -0.3761
 7129W        W10873   8.899   8.685   3.816 -0.2255 -0.0723  0.1889
 7130W        W10874   5.694   1.512   4.411  0.1855  0.1893 -0.0603
 7131W        W10875   2.622   3.514   0.810 -0.0526 -0.3067 -0.2067
 7132W        W10876   6.952   7.931  12.637 -0.1593 -0.0983  0.0698
 7133W        W10877   1.825   0.260  11.834  0.3686  0.0988 -0.1807
 7134W        W10878   6.515   5.854   2.711  0.1468 -0.3478 -0.0726
 7135W        W10879   2.389   7.168  11.908  0.1735  0.1391 -0.1867
 7136W        W10880   5.804   4.484   2.449  0.2187 -0.1131  0.3430
 7137W        W10881   5.878   6.412  12.952 -0.1924  0.1529  0.1715
 7138W        W10882   7.108   5.350  12.398 -0.0274 -0.1471 -0.2049
 7139W        W10883   5.314   8.576   1.608  0.0224 -0.0613  0.0416
 7140W        W10884   2.735   1.672   1.171  0.1313  0.2744  0.0573
 7141W        W10885   4.692   4.899   0.833 -0.1973 -0.2535  0.1892
 7142W        W10886   6.586   7.583   1.304 -0.2979 -0.5727  0.3771
 7143W        W10887   5.123   5.278  11.271  0.1893 -0.2571  0.0610
 7144W        W10888   9.003   7.378  12.351  0.3730  0.3097  0.1726
 7145W        W10889   8.501   0.851   0.083 -0.3372  0.2597 -0.2251
 7146W        W10890   4.941   4.048   1.967  0.1147 -0.0322 -0.1948
 7147W        W10891   0.511   4.202   2.723  0.0954  0.1600 -0.1364
 7148W        W10892   8.726   4.909  10.470  0.1131  0.0097 -0.1164
 7149W        W10893   0.880   8.002  11.746 -0.0384  0.0320 -0.2187
 7150W        W10894   6.505   2.115  11.712  0.0766 -0.5605  0.2182
 7151W        W10895   0.687   1.924  10.338  0.0215  0.1102 -0.0842
 7152W        W10896   3.831   8.109  11.963  0.0947 -0.0344 -0.0285
 7153W        W10897   8.515   9.029   2.247  0.1867  0.2104  0.0696
 7154W        W10898   6.924   7.288  11.357  0.0245 -0.1661  0.0552
 7155W        W10899   2.062   4.543   2.333  0.0784  0.0036  0.0721
 7156W        W10900   6.635   3.385  11.505 -0.2207 -0.0197 -0.0987
 7157W        W10901   3.951   4.137   5.286  0.1553  0.1378 -0.1381
 7158W        W10902   5.766   1.537  12.856 -0.0490 -0.0015  0.1171
 7159W        W10903   5.096   7.239  12.317  0.0125  0.2012  0.1201
 7160W        W10904   2.061   5.743   9.953 -0.2075 -0.0520 -0.0130
 7161W        W10905   6.521   6.200   9.515  0.0252 -0.0685 -0.0632
 7162W        W10906   6.317   4.218   8.671  0.2550  0.1977 -0.0867
 7163W        W10907   2.947   2.848  10.932  0.0407  0.0564  0.1952
 7164W        W10908   7.314   7.333   2.912  0.2285 -0.1422  0.1057
 7165W        W10909   0.757   6.590  11.590 -0.1472  0.2852 -0.1780
 7166W        W10910   8.901   4.148   4.146 -0.1551 -0.3886  0.3714
 7167W        W10911   1.592   0.090   9.745 -0.0659  0.1359  0.1975
 7168W        W10912   2.402   6.258   0.547 -0.0269 -0.1614  0.0504
 7169W        W10913   3.984   9.791   1.934  0.4002  0.1835  0.2190
 7170W        W10914   9.770   1.353   3.647  0.0637 -0.0856 -0.2471
 7171W        W10915   8.066   7.785   3.244  0.1968 -0.1053  0.0621
 7172W        W10916   6.697   4.773  10.859 -0.0732 -0.4088 -0.0051
 7173W        W10917   7.088   6.574   2.298 -0.0108 -0.0943  0.1289
 7174W        W10918   7.604   8.578   1.382  0.1739  0.0612  0.1943
 7175W        W10919   2.915   4.414   9.717 -0.1481  0.0499 -0.0849
 7176W        W10920   8.531   5.247  12.520 -0.0026  0.1213 -0.1952
 7177W        W10921   7.459   0.831  11.561 -0.0340 -0.0208  0.2836
 7178W        W10922   8.334   8.343  12.124 -0.0280 -0.0061 -0.2753
 7179W        W10923   9.653   9.499   3.785  0.2335 -0.0507  0.3474
 7180W        W10924   1.885   6.949  10.207  0.2729  0.2798  0.0832
 7181W        W10925   4.657   0.506   9.171 -0.1958  0.4244 -0.0464
 7182W        W10926   5.922   3.732   4.440 -0.0658 -0.2209  0.3046
 7183W        W10927   2.825   1.604   1.686  0.0318  0.0028 -0.0803
 7184W        W10928   4.905   4.326   3.757  0.0605 -0.3450 -0.2247
 7185W        W10929   0.007   0.702   1.068 -0.1668  0.1446  0.2680
 7186W        W10930   9.869   4.117   1.319  0.5238 -0.0031 -0.1386
 7187W        W10931   8.874   5.443   9.181 -0.0642 -0.0828  0.2938
 7188W        W10932   8.042   2.796  12.468  0.1819  0.1419  0.1752
 7189W        W10933   9.842   0.630   1.996 -0.1353 -0.0892 -0.1214
 7190W        W10934   5.912   0.205   0.857  0.1108  0.0522 -0.0657
 7191W        W10935   8.646   7.161   4.695  0.2573  0.1267  0.1049
 7192W        W10936   2.377   5.848  11.516 -0.3833  0.0417  0.1162
 7193W        W10937   1.733   1.450  12.325 -0.0560 -0.2170  0.5449
 7194W        W10938   8.898   3.002   1.689 -0.0509  0.1655 -0.0875
 7195W        W10939   2.581   4.520   3.464  0.1938  0.2102 -0.0072
 7196W        W10940   7.298   3.095   2.617 -0.3613  0.1085 -0.0355
 7197W        W10941   6.563   4.719  12.713 -0.0116  0.0523  0.1530
 7198W        W10942   1.635   3.536  12.284  0.1366  0.3179  0.0610
 7199W        W10943   3.118   4.438   0.260  0.2099 -0.0441 -0.1369
 7200W        W10944   5.445   6.339   1.127 -0.3141 -0.0883  0.1110
 7201W        W10945   4.161   7.144   0.047  0.0778  0.0911 -0.3896
 7202W        W10946   7.489   1.086   0.072 -0.0935 -0.3038  0.2742
 7203W        W10947   1.031   8.351  10.411 -0.3110 -0.0111 -0.1583
 7204W        W10948   6.854   7.027   3.200  0.5499 -0.0411  0.2173
 7205W        W10949   5.823   5.979   1.041 -0.0151  0.1615  0.0507
 7206W        W10950   3.424   1.081  10.245 -0.1125 -0.0409 -0.2235
 7207W        W10951   5.355   3.417   3.831 -0.1327  0.0334  0.0247
 7208W        W10952   6.769   7.033  12.167 -0.0706  0.1983  0.1702
 7209W        W10953   4.701   0.470   1.591 -0.0914  0.2721 -0.0545
 7210W        W10954   3.474   8.411  11.625 -0.0494  0.2337  0.2309
 7211W        W10955   9.642   1.896   1.530 -0.1834  0.1225  0.0446
 7212W        W10956   8.273   6.510   0.484  0.1568  0.0178  0.1912
 7213W        W10957   8.307   2.923  12.049 -0.1654  0.0153  0.3129
 7214W        W10958   0.603   3.989   4.607  0.1233  0.5435  0.1087
 7215W        W10959   6.759   0.399  10.997  0.1956  0.1743  0.4940
 7216W        W10960   5.849   4.970   3.320 -0.0964 -0.2638 -0.0051
 7217W        W10961   0.263   2.940   4.778  0.0103  0.1870  0.0809
 7218W        W10962   7.976   9.878   3.176 -0.1706 -0.1425 -0.2716
 7219W        W10963   9.319   8.899   0.307 -0.1759  0.1494 -0.2369
 7220W        W10964   1.266   9.301  11.408 -0.0137 -0.0636 -0.1394
 7221W        W10965   4.822   1.601  10.218  0.1865 -0.0610  0.2736
 7222W        W10966   4.860   6.493   9.503 -0.0081 -0.1852  0.0683
 7223W        W10967   8.263   0.341   9.986 -0.0955 -0.1006 -0.0331
 7224W        W10968   2.721   1.458   9.590 -0.1994  0.6427 -0.3739
 7225W        W10969   9.620   4.357   3.818  0.1024  0.3336  0.2969
 7226W        W10970   1.132   6.467  10.415  0.1216  0.3357  0.6115
 7227W        W10971   0.230   8.799   9.763 -0.1672 -0.1995  0.0439
 7228W        W10972   5.390   9.255   5.075 -0.2038 -0.1956  0.1213
 7229W        W10973   2.960   4.552   2.334 -0.2486 -0.1393  0.1641
 7230ION    NA+10974   5.149   5.845   8.785  0.3944  0.0500 -0.1291
 7231ION    NA+10975   2.386   1.066   8.349 -0.1196  0.2258 -0.0517
 7232ION    NA+10976   5.851   0.129   9.456  0.0755 -0.0383  0.1651
 7233ION    NA+10977   6.230   9.310  10.906  0.2563 -0.1911 -0.0508
 7234ION    NA+10978   6.677   3.593   9.378 -0.0415  0.1270 -0.2197
 7235ION    NA+10979   3.185   0.068   9.949 -0.0863 -0.0927 -0.3264
 7236ION    NA+10980   8.341   6.297   9.120 -0.0410  0.0606 -0.2079
 7237ION    NA+10981   0.057   0.163  10.067  0.0041  0.0135 -0.2297
 7238ION    NA+10982   4.146   4.908   9.036 -0.1634  0.0104  0.2466
 7239ION    NA+10983   8.034   8.272   2.730 -0.0909  0.0097  0.1086
 7240ION    NA+10984   9.485   0.084   5.019 -0.1783 -0.0018  0.1550
 7241ION    NA+10985   0.919   0.086  10.774  0.3082  0.0170  0.3909
 7242ION    NA+10986   3.545   7.917   1.678 -0.0902 -0.3505 -0.0657
 7243ION    NA+10987   4.912   0.753  12.675  0.2378 -0.1018 -0.1250
 7244ION    NA+10988   2.457   7.407  12.698  0.2550 -0.0096  0.0363
 7245ION    NA+10989   6.208   4.779   3.762 -0.0369 -0.0858  0.1824
 7246ION    NA+10990   6.351   2.021   4.660  0.2209 -0.0037  0.2203
 7247ION    NA+10991   4.536   9.336   1.424  0.2602  0.0053  0.0546
 7248ION    NA+10992   7.607   0.865  12.451  0.0221  0.1616  0.1629
 7249ION    NA+10993   7.906   4.425   1.470  0.0344  0.2720 -0.1819
 7250ION    NA+10994   4.676   7.583   1.211  0.3957 -0.3086  0.1268
 7251ION    NA+10995   8.721   0.148   4.258  0.0079  0.1523  0.1063
 7252ION    NA+10996   6.885   5.142   4.546  0.2305  0.3773  0.0481
 7253ION    NA+10997   8.357   2.366   1.374 -0.1164  0.0867 -0.0419
 7254ION    NA+10998   9.905   1.345   4.983 -0.1137 -0.0042  0.1751
 7255ION    NA+10999   3.368   6.100  10.369  0.0068  0.0252  0.1766
 7256ION    NA+11000   4.481   3.308   9.734 -0.1718 -0.1183  0.1815
 7257ION    NA+11001   5.933   2.390   3.309 -0.0665  0.2666 -0.0568
 7258ION    NA+11002   2.153   8.043  10.823  0.1857 -0.0774  0.1334
 7259ION    NA+11003   5.580   1.623   8.511  0.1517  0.0679  0.2870
 7260ION    NA+11004   7.232   5.217   1.994 -0.0232  0.3568 -0.0272
 7261ION    NA+11005   5.820   7.890   1.217 -0.2717  0.0769  0.1426
 7262ION    NA+11006   0.869   6.129   0.896  0.3524  0.1467  0.0363
 7263ION    NA+11007   3.888   6.873   3.094 -0.0895 -0.1471  0.0926
 7264ION    NA+11008   5.361   9.777   0.828 -0.1332  0.0114  0.0121
 7265ION    NA+11009   7.568   7.766   0.534  0.0175 -0.2036  0.2205
 7266ION    NA+11010   2.165   6.473  12.719  0.2133 -0.2142  0.1572
 7267ION    NA+11011   3.540   7.535  10.021 -0.1879  0.2216  0.4142
 7268ION    NA+11012   7.490   1.991   3.394 -0.1359  0.2318  0.1155
 7269ION    NA+11013   1.174   8.442   4.520 -0.0385 -0.0305 -0.0383
 7270ION    NA+11014   1.570   1.866  11.888  0.0600 -0.1413 -0.1377
 7271ION    NA+11015   0.843   4.573  12.916 -0.2182  0.2203  0.0124
 7272ION    NA+11016   8.791   9.607   3.409 -0.3523  0.0340 -0.0348
 7273ION    NA+11017   8.310   6.947   1.265 -0.0897 -0.3738 -0.1707
 7274ION    NA+11018   1.002   1.644   4.798  0.1843  0.0475 -0.0545
 7275ION    NA+11019   8.467   2.335   9.946 -0.1792 -0.2093 -0.0274
 7276ION    NA+11020   5.714   6.383   9.920  0.1540  0.0481  0.0048
 7277ION    NA+11021   7.804   6.614  12.794 -0.1976 -0.0542 -0.0082
 7278ION    NA+11022   2.518   9.757   2.932 -0.0134  0.0121  0.2249
 7279ION    NA+11023   7.588   3.932   3.932  0.1195 -0.3560  0.0624
 7280ION    NA+11024   3.981   5.712  10.218 -0.2150 -0.2240 -0.0997
 7281ION    NA+11025   3.490   6.706   2.223 -0.1818  0.0921  0.2870
 7282ION    NA+11026   3.552   4.166   4.875 -0.0628 -0.1818 -0.2032
 7283ION    NA+11027   6.842   8.478   9.571 -0.1360  0.0902 -0.2112
 7284ION    NA+11028   3.278   8.244   1.949  0.1799  0.0766 -0.1361
 7285ION    NA+11029   5.081   9.155   1.334  0.2204 -0.0442  0.0944
 7286ION    NA+11030   5.766   1.253   2.649  0.6181  0.1399  0.1662
 7287ION    NA+11031   8.805   9.678  10.656 -0.0667  0.2175 -0.0895
 7288ION    NA+11032   6.720   0.217   3.388 -0.2810 -0.0157 -0.0255
 7289ION    NA+11033   3.900   5.844   2.595  0.0867  0.2956  0.3455
 7290ION    NA+11034   4.893   4.524   4.580  0.1324  0.2753  0.4205
 7291ION    NA+11035   2.818   3.605   8.813  0.1325 -0.2688 -0.2659
 7292ION    NA+11036   3.660   2.343   3.002  0.0118  0.1194 -0.0921
 7293ION    NA+11037   1.074   3.333  11.628  0.3477 -0.0927  0.1044
 7294ION    NA+11038   5.835   9.064   1.335  0.0433 -0.0378 -0.2104
 7295ION    NA+11039   8.351   7.828   4.276  0.2705  0.0343  0.0931
 7296ION    NA+11040   8.979   6.231   4.484  0.0596  0.1509  0.2459
 7297ION    NA+11041   6.058   8.700   9.881 -0.0407 -0.1056  0.0974
 7298ION    NA+11042   0.574   6.591   8.283 -0.1093 -0.0997  0.0082
 7299ION    NA+11043   0.685   4.920   4.889 -0.1463  0.0697 -0.0630
 7300ION    NA+11044   2.670   1.226  11.644  0.4697 -0.1663  0.6215
 7301ION    NA+11045   7.955   0.359   8.932 -0.1033 -0.0495 -0.0265
 7302ION    NA+11046   8.267   8.237  10.493  0.1593 -0.2924 -0.0612
 7303ION    NA+11047   9.112   8.920   8.353  0.1286  0.4525  0.1396
 7304ION    NA+11048   2.418   8.951   4.281  0.2854 -0.3117 -0.0742
 7305ION    NA+11049   0.695   3.401   4.839 -0.1503  0.3273 -0.0041
 7306ION    CL-11050   2.540   0.100   3.400 -0.0288  0.1887  0.3363
 7307ION    CL-11051   7.267   3.930   4.325 -0.1233  0.4085  0.1211
 7308ION    CL-11052   8.238   9.844   1.885 -0.2992  0.1651  0.4124
 7309ION    CL-11053   0.444   4.295   0.130 -0.1200  0.3224  0.2346
 7310ION    CL-11054   3.568   6.455   2.804 -0.0355  0.0162  0.0600
 7311ION    CL-11055   3.025   1.120   9.289 -0.1645 -0.0463  0.1744
 7312ION    CL-11056   6.091   4.069   4.105 -0.1187 -0.0947 -0.0579
 7313ION    CL-11057   8.306   4.118   1.579  0.0080 -0.0564 -0.1745
 7314ION    CL-11058   2.839   0.087  10.292  0.2306  0.0798 -0.2377
 7315ION    CL-11059   8.307   6.261  12.055  0.0108 -0.2962  0.1443
 7316ION    CL-11060   7.828   5.973  12.755  0.1761  0.1275 -0.1047
 7317ION    CL-11061   3.414   7.410   9.564 -0.0613 -0.2499  0.2547
 7318ION    CL-11062   1.867   7.541   2.631  0.0707 -0.0476  0.0769
 7319ION    CL-11063   9.533   0.237  10.277 -0.0269  0.1020 -0.0872
 7320ION    CL-11064   2.202   8.479   3.191  0.0031  0.3414  0.1264
 7321ION    CL-11065   0.415   9.888  10.599 -0.3005  0.1433  0.1809
 7322ION    CL-11066   0.014   9.480   4.261 -0.0172  0.2735  0.2237
 7323ION    CL-11067   9.810   8.991  11.412  0.2522  0.1766 -0.1981
 7324ION    CL-11068   6.840   5.147   2.307 -0.0428 -0.2257  0.1772
 7325ION    CL-11069   4.723   3.577   1.824  0.2072 -0.0440  0.0384
 7326ION    CL-11070   8.180   8.738   2.961 -0.1222 -0.0207 -0.0562
 7327ION    CL-11071   5.464   9.245   1.672  0.3062  0.0642  0.0517
 7328ION    CL-11072   1.967   7.421  12.827  0.2386 -0.0126 -0.0625
 7329ION    CL-11073   2.407   4.120  12.672  0.0006  0.3629 -0.0381
 7330ION    CL-11074   8.808   9.829  11.148 -0.0480  0.1684  0.4624
 7331ION    CL-11075   8.267   8.584  10.045 -0.0396 -0.1400 -0.0735
 7332ION    CL-11076   2.114   1.577  11.897  0.0973  0.0469 -0.2637
 7333ION    CL-11077   4.925   9.750   9.359  0.0969 -0.0914  0.2565
 7334ION    CL-11078   9.491   6.003   9.234  0.1057  0.1328 -0.1037
 7335ION    CL-11079   4.717   9.129   1.008  0.1532 -0.1668 -0.1225
 7336ION    CL-11080   7.206   6.729   2.769 -0.3258 -0.1268 -0.1209
 7337ION    CL-11081   3.845   1.382  11.130 -0.2679 -0.2240  0.1477
 7338ION    CL-11082   0.912   0.783  11.506  0.2846 -0.4641  0.2215
 7339ION    CL-11083   5.684   2.067  12.633 -0.1476  0.2262 -0.1011
 7340ION    CL-11084   6.352   3.342   9.120 -0.0138 -0.2050 -0.1526
 7341ION    CL-11085   5.784   0.743   2.654 -0.0322  0.2577  0.0004
 7342ION    CL-11086   1.637   3.235   9.179  0.1224  0.2706  0.1384
 7343ION    CL-11087   3.910   5.470   1.075  0.1904 -0.3271  0.0628
 7344ION    CL-11088   0.037   1.818   3.516 -0.3458 -0.0547 -0.1466
 7345ION    CL-11089   7.949   2.280   9.451  0.1264 -0.1917 -0.0533
 7346ION    CL-11090   7.465   4.327   1.728 -0.2344 -0.0948  0.1437
 7347ION    CL-11091   8.499   9.685   2.881  0.3001 -0.0726  0.0038
 7348ION    CL-11092   3.224   7.759   2.104 -0.1098  0.0513  0.1342
 7349ION    CL-11093   8.787   8.186   9.399 -0.0808 -0.2596 -0.1012
 7350ION    CL-11094   8.321   0.714   8.778 -0.1107  0.0769 -0.1626
 7351ION    CL-11095   4.623   5.294   2.735 -0.0496 -0.1607 -0.1886
 7352ION    CL-11096   1.203   2.712  11.360  0.0270  0.3444  0.3473
 7353ION    CL-11097   4.488   7.700   9.886  0.1320 -0.0735 -0.3183
 7354ION    CL-11098   7.220   8.208  11.041  0.1168 -0.0386  0.2474
 7355ION    CL-11099   1.013   0.309   9.149 -0.1772  0.2903 -0.2562
 7356ION    CL-11100   3.513   8.134  10.399  0.1553 -0.1098 -0.1015
 7357ION    CL-11101   4.968   3.236   9.519  0.1510 -0.0214  0.0322
 7358ION    CL-11102   4.043   1.842   3.777  0.0281 -0.0826 -0.1710
 7359ION    CL-11103   5.745   2.199   3.783  0.3792 -0.1559  0.0681
 7360ION    CL-11104   5.350   0.667  10.002 -0.1548 -0.1564  0.1429
 7361ION    CL-11105   6.231   2.541   2.959  0.0641 -0.2723 -0.1501
 7362ION    CL-11106   8.011   2.175   3.316 -0.2147 -0.1067 -0.0364
 7363ION    CL-11107   4.061   6.704   2.297 -0.2103  0.0111  0.2822
 7364ION    CL-11108   7.722   2.462  10.526 -0.0520  0.1602  0.1112
 7365ION    CL-11109   0.485   8.214   0.596 -0.3164  0.1037  0.0768
 7366ION    CL-11110   0.790   4.906   0.254  0.1844  0.0824 -0.1677
 7367ION    CL-11111   1.496   8.619   9.176  0.0688 -0.1028 -0.1811
 7368ION    CL-11112   4.113   5.835   9.679 -0.2363  0.2901  0.1401
 7369ION    CL-11113   0.532   1.128   4.207  0.0880  0.2838  0.0927
 7370ION    CL-11114   1.389   3.593  11.355 -0.2402 -0.1417 -0.6399
 7371ION    CL-11115   3.579   5.789  10.681  0.1175 -0.1041  0.0670
 7372ION    CL-11116   5.119   9.664   1.274 -0.0552 -0.0465 -0.1715
 7373ION    CL-11117   5.564   6.801  10.208  0.1008  0.2002 -0.0198
 7374ION    CL-11118   5.592   5.959   2.689  0.2613  0.1907 -0.0395
 7375ION    CL-11119   1.055   6.599   0.965  0.1627  0.1386 -0.2435
 7376ION    CL-11120   6.003   9.219  10.047  0.1989  0.0980  0.0842
 7377ION    CL-11121   8.124   5.868   8.957  0.3039 -0.1096  0.0175
 7378ION    CL-11122   7.174   3.533   9.233 -0.0112 -0.0124  0.0750
 7379ION    CL-11123   6.843   2.389   4.270 -0.0749 -0.0106 -0.0937
 7380ION    CL-11124   8.569   2.904  11.174  0.3071 -0.3416  0.1726
 7381ION    CL-11125   3.262   2.241   2.732  0.2915  0.1154  0.1655
   9.90610   9.90610  12.99065
