Protein in INSANE! Membrane UpperLeaflet>POPC=1.0 LowerLeaflet>POPC=1.0
12914
    1AU     AUC    1   5.742   5.826   5.995
    1AU     AUC    2   6.025   5.835   5.820
    1AU     AUC    3   6.005   5.805   6.170
    1AU     AUC    4   5.458   5.819   5.828
    1AU     AUC    5   5.473   5.857   6.180
    1AU     AUC    6   5.574   6.107   5.992
    1AU     AUC    7   5.930   6.102   5.984
    1AU     AUC    8   5.553   5.558   6.001
    1AU     AUC    9   5.905   5.535   5.992
    1AU     AUC   10   5.740   5.645   6.270
    1AU     AUC   11   5.739   6.011   6.258
    1AU     AUC   12   5.740   5.663   5.717
    1AU     AUC   13   5.760   5.985   5.716
    1AU     AUC   14   6.340   5.843   5.655
    1AU     AUC   15   6.348   5.792   6.015
    1AU     AUC   16   6.292   5.773   6.366
    1AU     AUC   17   5.153   5.812   5.662
    1AU     AUC   18   5.136   5.848   6.027
    1AU     AUC   19   5.187   5.888   6.366
    1AU     AUC   20   5.413   6.409   5.969
    1AU     AUC   21   5.780   6.433   5.949
    1AU     AUC   22   6.122   6.377   5.977
    1AU     AUC   23   5.356   5.282   6.001
    1AU     AUC   24   5.705   5.226   5.982
    1AU     AUC   25   6.069   5.234   5.971
    1AU     AUC   26   5.719   5.463   6.560
    1AU     AUC   27   5.737   5.827   6.592
    1AU     AUC   28   5.768   6.185   6.549
    1AU     AUC   29   5.768   5.493   5.436
    1AU     AUC   30   5.760   5.822   5.381
    1AU     AUC   31   5.742   6.140   5.423
    1AU     AUC   32   6.006   5.591   6.487
    1AU     AUC   33   6.047   5.972   6.486
    1AU     AUC   34   6.083   5.687   5.491
    1AU     AUC   35   6.075   6.011   5.529
    1AU     AUC   36   5.437   5.694   6.508
    1AU     AUC   37   5.462   6.070   6.485
    1AU     AUC   38   5.443   5.642   5.532
    1AU     AUC   39   5.419   5.956   5.490
    1AU     AUC   40   6.281   6.113   5.846
    1AU     AUC   41   6.217   6.074   6.193
    1AU     AUC   42   5.248   6.118   5.823
    1AU     AUC   43   5.275   6.173   6.179
    1AU     AUC   44   6.220   5.523   5.819
    1AU     AUC   45   6.187   5.469   6.175
    1AU     AUC   46   5.220   5.522   5.851
    1AU     AUC   47   5.273   5.569   6.211
    1AU     AUC   48   5.597   6.350   6.254
    1AU     AUC   49   5.942   6.303   6.270
    1AU     AUC   50   5.544   5.347   6.295
    1AU     AUC   51   5.865   5.295   6.265
    1AU     AUC   52   5.559   6.262   5.680
    1AU     AUC   53   5.947   6.300   5.690
    1AU     AUC   54   5.546   5.358   5.697
    1AU     AUC   55   5.941   5.374   5.694
    1AU    AUSL   56   6.262   5.702   6.731
    1AU    AUSL   57   5.995   5.304   6.641
    1AU     AUL   58   6.280   5.296   6.867
    1AU       S   59   6.378   4.951   6.588
    1AU     LIG   60   6.276   4.768   6.942
    1AU     LIG   61   6.397   4.397   7.138
    1AU     LIG   62   6.641   4.134   7.405
    1AU     LIG   63   6.857   3.962   7.780
    1AU     LIG   64   6.903   3.670   8.142
    1AU       S   65   6.486   5.697   6.854
    1AU     LIG   66   6.365   5.695   7.294
    1AU     LIG   67   6.542   5.580   7.728
    1AU     LIG   68   6.838   5.450   8.099
    1AU     LIG   69   7.225   5.506   8.405
    1AU     LIG   70   7.505   5.619   8.784
    1AU    AUSL   71   5.860   5.626   6.896
    1AU    AUSL   72   5.610   6.012   6.918
    1AU     AUL   73   5.804   5.930   7.236
    1AU       S   74   5.941   5.542   7.047
    1AU     LIG   75   5.931   5.494   7.491
    1AU     LIG   76   6.154   5.253   7.829
    1AU     LIG   77   6.413   5.079   8.193
    1AU     LIG   78   6.443   4.866   8.625
    1AU     LIG   79   6.470   4.882   9.097
    1AU       S   80   5.400   5.748   7.128
    1AU     LIG   81   5.441   5.729   7.600
    1AU     LIG   82   5.181   5.662   7.990
    1AU     LIG   83   5.029   5.705   8.432
    1AU     LIG   84   5.089   5.983   8.827
    1AU     LIG   85   5.048   6.071   9.289
    1AU    AUSL   86   5.935   5.997   6.658
    1AU    AUSL   87   6.376   6.096   6.607
    1AU     AUL   88   6.160   6.007   6.945
    1AU       S   89   5.833   6.384   7.081
    1AU     LIG   90   6.169   6.261   7.389
    1AU     LIG   91   6.383   6.398   7.799
    1AU     LIG   92   6.362   6.484   8.288
    1AU     LIG   93   6.388   6.666   8.733
    1AU     LIG   94   6.656   6.750   9.106
    1AU       S   95   6.545   6.237   6.809
    1AU     LIG   96   6.982   6.297   6.764
    1AU     LIG   97   7.276   6.478   7.096
    1AU     LIG   98   7.482   6.660   7.487
    1AU     LIG   99   7.778   6.721   7.859
    1AU     LIG  100   8.210   6.847   8.026
    1AU    AUSL  101   6.299   5.972   5.256
    1AU    AUSL  102   6.085   6.301   5.457
    1AU     AUL  103   6.169   6.354   5.114
    1AU       S  104   6.276   6.021   4.819
    1AU     LIG  105   6.636   5.866   4.606
    1AU     LIG  106   6.744   5.582   4.266
    1AU     LIG  107   6.852   5.490   3.818
    1AU     LIG  108   7.210   5.412   3.505
    1AU     LIG  109   7.642   5.471   3.292
    1AU       S  110   6.519   6.532   5.347
    1AU     LIG  111   6.667   6.679   4.919
    1AU     LIG  112   6.905   6.800   4.502
    1AU     LIG  113   7.179   6.936   4.136
    1AU     LIG  114   7.475   7.075   3.786
    1AU     LIG  115   7.766   7.396   3.570
    1AU    AUSL  116   6.070   5.640   5.098
    1AU    AUSL  117   6.423   5.596   5.419
    1AU     AUL  118   6.489   5.720   5.112
    1AU       S  119   6.596   5.268   5.198
    1AU     LIG  120   6.713   4.842   4.968
    1AU     LIG  121   6.934   4.442   4.854
    1AU     LIG  122   7.213   4.192   4.576
    1AU     LIG  123   7.532   4.272   4.223
    1AU     LIG  124   7.990   4.384   4.106
    1AU       S  125   6.162   5.862   4.804
    1AU     LIG  126   6.280   5.485   4.609
    1AU     LIG  127   6.339   5.273   4.184
    1AU     LIG  128   6.401   5.252   3.707
    1AU     LIG  129   6.552   5.138   3.259
    1AU     LIG  130   6.786   4.994   2.858
    1AU    AUSL  131   5.874   6.007   5.224
    1AU    AUSL  132   5.650   5.622   5.208
    1AU     AUL  133   5.794   5.631   4.936
    1AU       S  134   5.341   5.661   4.798
    1AU     LIG  135   5.380   5.334   4.534
    1AU     LIG  136   5.136   5.153   4.184
    1AU     LIG  137   4.953   5.141   3.749
    1AU     LIG  138   4.958   4.994   3.293
    1AU     LIG  139   4.919   4.957   2.817
    1AU       S  140   5.936   6.064   4.831
    1AU     LIG  141   6.042   5.901   4.342
    1AU     LIG  142   6.339   5.751   3.991
    1AU     LIG  143   6.470   5.733   3.537
    1AU     LIG  144   6.457   5.837   3.086
    1AU     LIG  145   6.450   6.087   2.707
    1AU    AUSL  146   5.213   5.959   6.743
    1AU    AUSL  147   5.506   6.313   6.635
    1AU     AUL  148   5.363   6.245   6.971
    1AU       S  149   5.205   5.837   7.166
    1AU     LIG  150   5.007   5.500   7.394
    1AU     LIG  151   4.770   5.416   7.798
    1AU     LIG  152   4.589   5.453   8.241
    1AU     LIG  153   4.214   5.399   8.538
    1AU     LIG  154   3.876   5.554   8.841
    1AU       S  155   5.123   6.568   6.717
    1AU     LIG  156   5.077   6.711   7.144
    1AU     LIG  157   4.924   6.932   7.541
    1AU     LIG  158   4.814   7.302   7.817
    1AU     LIG  159   4.652   7.436   8.251
    1AU     LIG  160   4.548   7.619   8.688
    1AU    AUSL  161   5.514   5.674   6.658
    1AU    AUSL  162   5.098   5.545   6.631
    1AU     AUL  163   4.993   5.779   6.762
    1AU       S  164   5.006   5.326   6.885
    1AU     LIG  165   4.561   5.208   6.717
    1AU     LIG  166   4.295   4.836   6.876
    1AU     LIG  167   4.029   4.613   7.209
    1AU     LIG  168   3.805   4.377   7.559
    1AU     LIG  169   3.460   4.329   7.891
    1AU       S  170   5.391   5.612   7.039
    1AU     LIG  171   5.481   5.292   7.357
    1AU     LIG  172   5.258   5.207   7.760
    1AU     LIG  173   5.033   5.182   8.184
    1AU     LIG  174   4.874   4.980   8.582
    1AU     LIG  175   4.899   4.904   9.047
    1AU    AUSL  176   5.241   5.733   5.270
    1AU    AUSL  177   5.421   5.355   5.439
    1AU     AUL  178   5.450   5.344   5.112
    1AU       S  179   5.132   5.644   4.951
    1AU     LIG  180   4.885   5.414   4.651
    1AU     LIG  181   4.713   5.450   4.215
    1AU     LIG  182   4.606   5.547   3.767
    1AU     LIG  183   4.305   5.628   3.403
    1AU     LIG  184   3.953   5.641   3.061
    1AU       S  185   5.026   5.221   5.247
    1AU     LIG  186   4.776   4.830   5.106
    1AU     LIG  187   4.542   4.481   4.913
    1AU     LIG  188   4.304   4.226   4.597
    1AU     LIG  189   4.228   4.073   4.147
    1AU     LIG  190   4.272   3.857   3.733
    1AU    AUSL  191   5.494   6.026   5.060
    1AU    AUSL  192   5.025   6.072   5.418
    1AU     AUL  193   5.143   6.082   5.087
    1AU       S  194   4.733   6.242   5.264
    1AU     LIG  195   4.571   6.413   4.858
    1AU     LIG  196   4.600   6.694   4.491
    1AU     LIG  197   4.376   6.847   4.103
    1AU     LIG  198   3.964   6.908   3.860
    1AU     LIG  199   3.646   7.209   3.693
    1AU       S  200   5.422   5.885   4.766
    1AU     LIG  201   5.137   5.779   4.368
    1AU     LIG  202   5.115   5.611   3.937
    1AU     LIG  203   5.042   5.600   3.484
    1AU     LIG  204   5.102   5.831   3.083
    1AU     LIG  205   4.895   5.968   2.688
    1AU    AUSL  206   6.543   6.296   6.031
    1AU    AUSL  207   6.450   6.120   5.621
    1AU     AUL  208   6.814   6.343   5.780
    1AU       S  209   6.570   6.321   5.398
    1AU     LIG  210   6.734   6.180   5.019
    1AU     LIG  211   7.066   6.369   4.738
    1AU     LIG  212   7.399   6.647   4.522
    1AU     LIG  213   7.687   6.874   4.227
    1AU     LIG  214   7.981   7.120   3.954
    1AU       S  215   6.964   6.227   6.221
    1AU     LIG  216   7.406   6.402   6.209
    1AU     LIG  217   7.864   6.469   6.053
    1AU     LIG  218   8.305   6.636   6.024
    1AU     LIG  219   8.589   6.951   6.198
    1AU     LIG  220   8.794   7.300   6.441
    1AU    AUSL  221   6.709   5.910   5.880
    1AU    AUSL  222   6.659   5.565   6.191
    1AU     AUL  223   6.962   5.637   5.932
    1AU       S  224   6.922   6.033   6.157
    1AU     LIG  225   7.372   5.961   5.960
    1AU     LIG  226   7.860   6.009   5.827
    1AU     LIG  227   8.318   6.186   5.740
    1AU     LIG  228   8.770   6.284   5.535
    1AU     LIG  229   9.124   6.375   5.239
    1AU       S  230   6.895   5.222   6.159
    1AU     LIG  231   7.267   5.022   6.338
    1AU     LIG  232   7.716   4.857   6.292
    1AU     LIG  233   8.184   4.711   6.288
    1AU     LIG  234   8.673   4.804   6.323
    1AU     LIG  235   9.150   4.748   6.460
    1AU    AUSL  236   6.445   5.927   6.233
    1AU    AUSL  237   6.203   6.332   6.283
    1AU     AUL  238   6.538   6.343   6.351
    1AU       S  239   6.519   6.545   6.761
    1AU     LIG  240   6.885   6.781   6.942
    1AU     LIG  241   7.244   7.014   7.162
    1AU     LIG  242   7.411   7.428   7.361
    1AU     LIG  243   7.586   7.891   7.389
    1AU     LIG  244   7.944   8.171   7.550
    1AU       S  245   6.804   5.958   6.398
    1AU     LIG  246   7.305   5.958   6.480
    1AU     LIG  247   7.773   6.040   6.335
    1AU     LIG  248   8.254   6.194   6.283
    1AU     LIG  249   8.599   6.509   6.487
    1AU     LIG  250   9.041   6.601   6.676
    1AU    AUSL  251   5.092   6.392   6.014
    1AU    AUSL  252   5.151   6.199   6.408
    1AU     AUL  253   4.850   6.500   6.248
    1AU       S  254   4.999   6.357   6.659
    1AU     LIG  255   4.865   6.232   7.063
    1AU     LIG  256   4.693   6.475   7.438
    1AU     LIG  257   4.441   6.716   7.776
    1AU     LIG  258   4.087   6.783   8.108
    1AU     LIG  259   3.724   6.949   8.375
    1AU       S  260   5.092   6.776   5.943
    1AU     LIG  261   4.634   6.777   5.857
    1AU     LIG  262   4.208   7.033   5.899
    1AU     LIG  263   3.788   7.311   5.922
    1AU     LIG  264   3.354   7.561   5.892
    1AU     LIG  265   2.901   7.744   5.932
    1AU    AUSL  266   5.037   6.002   5.825
    1AU    AUSL  267   5.149   6.446   5.601
    1AU     AUL  268   4.852   6.325   5.714
    1AU       S  269   4.663   5.794   5.474
    1AU     LIG  270   4.263   6.042   5.511
    1AU     LIG  271   3.842   6.193   5.305
    1AU     LIG  272   3.362   6.211   5.420
    1AU     LIG  273   2.963   6.498   5.400
    1AU     LIG  274   2.597   6.659   5.139
    1AU       S  275   4.982   6.707   5.445
    1AU     LIG  276   4.953   7.007   5.064
    1AU     LIG  277   4.923   7.414   4.789
    1AU     LIG  278   4.805   7.879   4.675
    1AU     LIG  279   4.515   8.257   4.575
    1AU     LIG  280   4.121   8.523   4.607
    1AU    AUSL  281   4.825   6.044   6.202
    1AU    AUSL  282   4.792   5.671   5.903
    1AU     AUL  283   4.628   5.983   5.916
    1AU       S  284   4.591   5.582   6.174
    1AU     LIG  285   4.285   5.585   5.792
    1AU     LIG  286   3.908   5.338   5.627
    1AU     LIG  287   3.456   5.164   5.583
    1AU     LIG  288   2.974   5.122   5.714
    1AU     LIG  289   2.528   5.056   5.558
    1AU       S  290   4.671   6.073   6.416
    1AU     LIG  291   4.193   6.153   6.454
    1AU     LIG  292   3.761   6.202   6.692
    1AU     LIG  293   3.371   6.457   6.796
    1AU     LIG  294   2.895   6.398   6.766
    1AU     LIG  295   2.453   6.543   6.614
    1AU    AUSL  296   6.418   5.241   6.029
    1AU    AUSL  297   6.279   5.488   6.372
    1AU     AUL  298   6.578   5.392   6.450
    1AU       S  299   6.601   5.094   6.018
    1AU     LIG  300   6.862   4.716   6.184
    1AU     LIG  301   7.318   4.557   6.107
    1AU     LIG  302   7.765   4.376   6.107
    1AU     LIG  303   8.177   4.179   6.208
    1AU     LIG  304   8.452   3.820   6.370
    1AU       S  305   6.488   4.947   6.461
    1AU     LIG  306   6.756   4.651   6.716
    1AU     LIG  307   6.926   4.416   7.079
    1AU     LIG  308   7.161   4.177   7.409
    1AU     LIG  309   7.460   4.157   7.775
    1AU     LIG  310   7.869   4.154   8.023
    1AU    AUSL  311   6.413   5.621   5.835
    1AU    AUSL  312   6.352   5.209   5.611
    1AU     AUL  313   6.635   5.431   5.663
    1AU       S  314   6.868   5.160   5.939
    1AU     LIG  315   7.291   4.995   5.827
    1AU     LIG  316   7.722   4.769   5.783
    1AU     LIG  317   8.172   4.556   5.801
    1AU     LIG  318   8.656   4.627   5.737
    1AU     LIG  319   9.021   4.700   5.429
    1AU       S  320   6.546   5.059   5.383
    1AU     LIG  321   6.415   4.596   5.356
    1AU     LIG  322   6.651   4.197   5.207
    1AU     LIG  323   6.885   3.894   4.913
    1AU     LIG  324   7.240   3.577   4.809
    1AU     LIG  325   7.586   3.230   4.704
    1AU    AUSL  326   4.996   5.311   6.048
    1AU    AUSL  327   5.087   5.558   5.625
    1AU     AUL  328   4.745   5.371   5.770
    1AU       S  329   4.929   5.389   5.346
    1AU     LIG  330   4.483   5.185   5.343
    1AU     LIG  331   4.220   4.862   5.062
    1AU     LIG  332   3.958   4.579   4.748
    1AU     LIG  333   3.821   4.271   4.399
    1AU     LIG  334   3.617   4.065   4.014
    1AU       S  335   4.555   5.352   6.204
    1AU     LIG  336   4.312   5.081   5.894
    1AU     LIG  337   3.863   4.876   5.861
    1AU     LIG  338   3.387   4.818   5.992
    1AU     LIG  339   3.051   4.587   6.260
    1AU     LIG  340   2.623   4.386   6.377
    1AU    AUSL  341   5.056   5.695   6.245
    1AU    AUSL  342   5.309   5.318   6.335
    1AU     AUL  343   4.973   5.287   6.395
    1AU       S  344   5.031   5.116   6.825
    1AU     LIG  345   4.859   4.806   6.544
    1AU     LIG  346   4.554   4.461   6.621
    1AU     LIG  347   4.206   4.255   6.890
    1AU     LIG  348   3.880   4.022   7.172
    1AU     LIG  349   3.549   3.656   7.246
    1AU       S  350   4.638   5.605   6.355
    1AU     LIG  351   4.121   5.687   6.263
    1AU     LIG  352   3.716   5.599   6.029
    1AU     LIG  353   3.348   5.334   6.039
    1AU     LIG  354   2.985   5.102   6.224
    1AU     LIG  355   2.651   4.900   6.453
    1AU    AUSL  356   5.790   6.526   6.399
    1AU    AUSL  357   5.358   6.558   6.305
    1AU     AUL  358   5.592   6.626   6.686
    1AU       S  359   5.224   6.746   6.421
    1AU     LIG  360   5.065   7.064   6.741
    1AU     LIG  361   4.911   7.271   7.148
    1AU     LIG  362   4.741   7.646   7.395
    1AU     LIG  363   4.439   8.027   7.439
    1AU     LIG  364   4.075   8.345   7.515
    1AU       S  365   5.806   6.957   6.451
    1AU     LIG  366   5.978   7.031   6.835
    1AU     LIG  367   6.008   7.477   7.037
    1AU     LIG  368   5.962   7.824   7.377
    1AU     LIG  369   6.008   8.087   7.797
    1AU     LIG  370   5.952   8.466   8.099
    1AU    AUSL  371   5.634   6.756   6.056
    1AU    AUSL  372   5.910   6.656   5.714
    1AU     AUL  373   5.886   7.011   5.827
    1AU       S  374   5.634   6.971   6.235
    1AU     LIG  375   5.606   7.415   6.433
    1AU     LIG  376   5.677   7.797   6.719
    1AU     LIG  377   5.512   8.242   6.843
    1AU     LIG  378   5.465   8.722   6.900
    1AU     LIG  379   5.356   9.186   6.786
    1AU       S  380   5.611   6.913   5.477
    1AU     LIG  381   5.920   7.293   5.403
    1AU     LIG  382   6.167   7.701   5.312
    1AU     LIG  383   6.500   8.059   5.269
    1AU     LIG  384   6.712   8.493   5.242
    1AU     LIG  385   6.645   8.943   5.142
    1AU    AUSL  386   6.071   6.691   6.114
    1AU    AUSL  387   6.061   6.394   6.690
    1AU     AUL  388   6.169   6.653   6.464
    1AU       S  389   6.289   6.477   6.904
    1AU     LIG  390   6.613   6.480   7.261
    1AU     LIG  391   6.962   6.703   7.469
    1AU     LIG  392   7.201   7.058   7.683
    1AU     LIG  393   7.226   7.425   7.988
    1AU     LIG  394   7.191   7.623   8.424
    1AU       S  395   5.983   7.041   6.283
    1AU     LIG  396   6.115   7.424   6.526
    1AU     LIG  397   6.350   7.803   6.708
    1AU     LIG  398   6.725   8.133   6.697
    1AU     LIG  399   6.903   8.583   6.747
    1AU     LIG  400   6.850   9.005   6.929
    1AU    AUSL  401   5.683   5.099   6.426
    1AU    AUSL  402   6.093   5.112   6.264
    1AU     AUL  403   5.915   4.985   6.650
    1AU       S  404   5.667   4.640   6.459
    1AU     LIG  405   5.530   4.581   6.839
    1AU     LIG  406   5.458   4.128   6.934
    1AU     LIG  407   5.490   3.650   6.958
    1AU     LIG  408   5.509   3.335   7.326
    1AU     LIG  409   5.505   3.239   7.812
    1AU       S  410   6.245   4.890   6.314
    1AU     LIG  411   6.300   4.455   6.519
    1AU     LIG  412   6.614   4.149   6.753
    1AU     LIG  413   6.923   3.887   7.028
    1AU     LIG  414   7.045   3.430   7.155
    1AU     LIG  415   7.363   3.084   7.336
    1AU    AUSL  416   5.366   4.957   6.138
    1AU    AUSL  417   5.475   5.271   6.743
    1AU     AUL  418   5.344   4.987   6.506
    1AU       S  419   5.469   4.585   6.300
    1AU     LIG  420   5.176   4.355   6.541
    1AU     LIG  421   5.190   3.884   6.571
    1AU     LIG  422   5.146   3.417   6.600
    1AU     LIG  423   4.928   2.987   6.623
    1AU     LIG  424   4.891   2.664   6.953
    1AU       S  425   5.266   5.146   6.944
    1AU     LIG  426   5.042   4.669   7.007
    1AU     LIG  427   4.604   4.492   7.138
    1AU     LIG  428   4.304   4.231   7.414
    1AU     LIG  429   4.137   4.077   7.836
    1AU     LIG  430   4.203   3.892   8.278
    1AU    AUSL  431   5.797   4.877   6.079
    1AU    AUSL  432   5.568   5.128   5.802
    1AU     AUL  433   5.456   4.776   5.875
    1AU       S  434   5.850   4.679   5.656
    1AU     LIG  435   5.560   4.302   5.688
    1AU     LIG  436   5.336   3.889   5.510
    1AU     LIG  437   5.133   3.442   5.437
    1AU     LIG  438   4.911   2.996   5.386
    1AU     LIG  439   4.771   2.619   5.106
    1AU       S  440   5.806   4.668   6.204
    1AU     LIG  441   5.806   4.202   6.220
    1AU     LIG  442   5.766   3.836   6.541
    1AU     LIG  443   6.026   3.453   6.731
    1AU     LIG  444   6.162   2.979   6.789
    1AU     LIG  445   6.120   2.475   6.736
    1AU    AUSL  446   5.722   6.479   5.348
    1AU    AUSL  447   6.297   6.508   5.766
    1AU     AUL  448   6.069   6.681   5.439
    1AU       S  449   5.653   6.831   5.270
    1AU     LIG  450   5.976   6.987   5.007
    1AU     LIG  451   6.011   7.444   4.878
    1AU     LIG  452   6.042   7.761   4.513
    1AU     LIG  453   6.096   8.069   4.160
    1AU     LIG  454   5.924   8.489   4.078
    1AU       S  455   6.501   6.641   5.612
    1AU     LIG  456   6.961   6.717   5.368
    1AU     LIG  457   7.163   6.861   4.945
    1AU     LIG  458   7.312   7.193   4.610
    1AU     LIG  459   7.507   7.668   4.609
    1AU     LIG  460   7.679   8.144   4.675
    1AU    AUSL  461   5.527   6.490   5.752
    1AU    AUSL  462   5.451   6.168   5.449
    1AU     AUL  463   5.375   6.466   5.318
    1AU       S  464   5.458   6.835   5.615
    1AU     LIG  465   5.437   7.364   5.551
    1AU     LIG  466   5.642   7.788   5.389
    1AU     LIG  467   5.425   8.222   5.268
    1AU     LIG  468   5.339   8.718   5.328
    1AU     LIG  469   5.360   9.229   5.306
    1AU       S  470   4.928   6.489   5.199
    1AU     LIG  471   5.072   6.582   4.796
    1AU     LIG  472   5.043   6.958   4.504
    1AU     LIG  473   4.954   7.093   4.047
    1AU     LIG  474   4.899   7.352   3.639
    1AU     LIG  475   4.604   7.682   3.470
    1AU    AUSL  476   5.755   5.092   5.413
    1AU    AUSL  477   5.163   5.128   5.704
    1AU     AUL  478   5.424   4.977   5.452
    1AU       S  479   4.978   5.102   5.472
    1AU     LIG  480   4.703   4.824   5.636
    1AU     LIG  481   4.386   4.551   5.430
    1AU     LIG  482   4.123   4.279   5.127
    1AU     LIG  483   3.807   4.030   4.861
    1AU     LIG  484   3.422   3.708   4.823
    1AU       S  485   5.814   4.704   5.498
    1AU     LIG  486   5.930   4.324   5.277
    1AU     LIG  487   5.690   3.959   5.123
    1AU     LIG  488   5.485   3.551   5.056
    1AU     LIG  489   5.481   3.215   4.722
    1AU     LIG  490   5.638   2.990   4.335
    1AU    AUSL  491   5.995   5.107   5.792
    1AU    AUSL  492   6.013   5.421   5.446
    1AU     AUL  493   6.083   5.061   5.398
    1AU       S  494   6.114   4.758   5.755
    1AU     LIG  495   6.094   4.261   5.762
    1AU     LIG  496   5.844   3.892   5.601
    1AU     LIG  497   5.942   3.513   5.314
    1AU     LIG  498   6.215   3.158   5.128
    1AU     LIG  499   6.534   2.791   5.187
    1AU       S  500   6.352   5.251   5.088
    1AU     LIG  501   6.201   4.834   4.960
    1AU     LIG  502   6.407   4.424   4.816
    1AU     LIG  503   6.682   4.154   4.506
    1AU     LIG  504   6.981   4.149   4.123
    1AU     LIG  505   7.131   3.961   3.717
    2POPC   NC3  506   2.168   7.885   8.088
    2POPC   PO4  507   2.389   8.438   8.252
    2POPC   GL1  508   2.368   8.316   7.727
    2POPC   GL2  509   2.276   7.950   7.615
    2POPC   C1A  510   2.266   8.255   7.246
    2POPC   D2A  511   2.169   8.417   6.861
    2POPC   C3A  512   2.208   8.248   6.443
    2POPC   C4A  513   2.377   8.436   6.062
    2POPC   C1B  514   1.860   7.920   7.416
    2POPC   C2B  515   1.734   7.795   7.014
    2POPC   C3B  516   1.797   7.844   6.567
    2POPC   C4B  517   1.709   8.163   6.276
    3POPC   NC3  518   1.927   2.699   8.269
    3POPC   PO4  519   1.601   3.252   7.997
    3POPC   GL1  520   1.804   2.994   7.666
    3POPC   GL2  521   2.112   2.974   7.843
    3POPC   C1A  522   1.736   2.762   7.234
    3POPC   D2A  523   1.798   2.565   6.793
    3POPC   C3A  524   1.654   2.862   6.461
    3POPC   C4A  525   1.771   3.011   6.048
    3POPC   C1B  526   2.244   2.827   7.398
    3POPC   C2B  527   2.402   2.806   6.995
    3POPC   C3B  528   2.338   2.656   6.622
    3POPC   C4B  529   2.142   2.821   6.333
    4POPC   NC3  530   8.152   9.762   8.020
    4POPC   PO4  531   8.336   9.126   8.147
    4POPC   GL1  532   8.405   9.376   7.768
    4POPC   GL2  533   8.085   9.557   7.565
    4POPC   C1A  534   8.497   9.338   7.351
    4POPC   D2A  535   8.220   9.522   7.028
    4POPC   C3A  536   8.358   9.616   6.619
    4POPC   C4A  537   8.391   9.407   6.186
    4POPC   C1B  538   7.790   9.839   7.302
    4POPC   C2B  539   7.635  10.027   6.884
    4POPC   C3B  540   7.622   9.826   6.471
    4POPC   C4B  541   7.993   9.713   6.285
    5POPC   NC3  542   1.941   0.533   7.972
    5POPC   PO4  543   1.537   0.003   8.069
    5POPC   GL1  544   1.646   0.133   7.640
    5POPC   GL2  545   1.973   0.311   7.529
    5POPC   C1A  546   1.728   0.065   7.192
    5POPC   D2A  547   1.886   0.342   6.884
    5POPC   C3A  548   1.875   0.171   6.487
    5POPC   C4A  549   1.718   0.201   6.081
    5POPC   C1B  550   1.929   0.698   7.267
    5POPC   C2B  551   1.803   0.839   6.820
    5POPC   C3B  552   1.987   0.693   6.395
    5POPC   C4B  553   1.929   0.607   5.907
    6POPC   NC3  554   7.234   9.375   8.037
    6POPC   PO4  555   7.670   9.865   8.047
    6POPC   GL1  556   7.528   9.643   7.697
    6POPC   GL2  557   7.196   9.814   7.705
    6POPC   C1A  558   7.616   9.364   7.325
    6POPC   D2A  559   7.708   9.512   6.880
    6POPC   C3A  560   7.620   9.316   6.450
    6POPC   C4A  561   7.746   9.389   5.980
    6POPC   C1B  562   7.271   9.719   7.260
    6POPC   C2B  563   7.125   9.665   6.889
    6POPC   C3B  564   7.168   9.527   6.490
    6POPC   C4B  565   7.273   9.667   6.093
    7POPC   NC3  566  10.888   0.426   8.003
    7POPC   PO4  567   0.081   0.719   8.080
    7POPC   GL1  568   0.129   0.533   7.700
    7POPC   GL2  569  11.288   0.467   7.633
    7POPC   C1A  570   0.137   0.646   7.288
    7POPC   D2A  571  11.292   0.634   7.016
    7POPC   C3A  572  11.439   0.512   6.625
    7POPC   C4A  573  11.258   0.526   6.233
    7POPC   C1B  574  10.924   0.407   7.343
    7POPC   C2B  575  10.812   0.484   6.910
    7POPC   C3B  576  10.919   0.283   6.531
    7POPC   C4B  577  10.653   0.094   6.202
    8POPC   NC3  578  10.521   7.300   8.103
    8POPC   PO4  579  10.438   7.973   8.071
    8POPC   GL1  580  10.623   7.665   7.733
    8POPC   GL2  581  10.357   7.430   7.650
    8POPC   C1A  582  10.683   7.500   7.265
    8POPC   D2A  583  10.679   7.693   6.854
    8POPC   C3A  584  10.458   7.473   6.521
    8POPC   C4A  585  10.611   7.450   6.111
    8POPC   C1B  586  10.159   7.527   7.271
    8POPC   C2B  587  10.275   7.249   6.944
    8POPC   C3B  588  10.112   7.039   6.591
    8POPC   C4B  589   9.977   7.361   6.305
    9POPC   NC3  590   1.930   8.878   8.059
    9POPC   PO4  591   1.913   8.259   7.975
    9POPC   GL1  592   1.941   8.566   7.624
    9POPC   GL2  593   2.255   8.815   7.641
    9POPC   C1A  594   1.784   8.395   7.219
    9POPC   D2A  595   1.696   8.296   6.795
    9POPC   C3A  596   1.823   8.608   6.474
    9POPC   C4A  597   1.867   8.594   6.009
    9POPC   C1B  598   2.128   8.828   7.189
    9POPC   C2B  599   2.196   8.895   6.720
    9POPC   C3B  600   2.126   8.976   6.268
    9POPC   C4B  601   1.923   9.304   5.997
   10POPC   NC3  602   9.378   1.747   8.110
   10POPC   PO4  603   8.739   1.966   8.013
   10POPC   GL1  604   8.855   1.969   7.591
   10POPC   GL2  605   8.985   2.321   7.628
   10POPC   C1A  606   8.920   1.743   7.160
   10POPC   D2A  607   9.182   1.983   6.817
   10POPC   C3A  608   9.342   1.899   6.437
   10POPC   C4A  609   9.022   1.987   6.135
   10POPC   C1B  610   8.979   2.251   7.200
   10POPC   C2B  611   8.711   2.112   6.872
   10POPC   C3B  612   8.602   1.986   6.476
   10POPC   C4B  613   8.521   2.260   6.114
   11POPC   NC3  614  11.272   5.961   8.067
   11POPC   PO4  615  10.679   6.333   8.062
   11POPC   GL1  616  10.937   6.160   7.701
   11POPC   GL2  617  10.998   5.779   7.677
   11POPC   C1A  618  11.074   6.037   7.258
   11POPC   D2A  619  11.343   5.809   6.928
   11POPC   C3A  620  11.179   5.826   6.494
   11POPC   C4A  621  11.059   6.235   6.298
   11POPC   C1B  622  11.255   5.547   7.377
   11POPC   C2B  623  11.457   5.314   7.037
   11POPC   C3B  624  11.464   5.398   6.596
   11POPC   C4B  625  11.241   5.394   6.186
   12POPC   NC3  626   0.401   0.260   8.049
   12POPC   PO4  627   0.858   0.774   7.959
   12POPC   GL1  628   0.642   0.569   7.673
   12POPC   GL2  629   0.777   0.275   7.598
   12POPC   C1A  630   0.666   0.684   7.260
   12POPC   D2A  631   0.472   0.563   6.875
   12POPC   C3A  632   0.613   0.753   6.503
   12POPC   C4A  633   0.763   0.682   6.072
   12POPC   C1B  634   0.449   0.210   7.289
   12POPC   C2B  635   0.270   0.088   6.879
   12POPC   C3B  636   0.392   0.235   6.466
   12POPC   C4B  637   0.263   0.568   6.196
   13POPC   NC3  638   2.956   2.867   8.131
   13POPC   PO4  639   2.387   2.724   8.246
   13POPC   GL1  640   2.582   2.795   7.785
   13POPC   GL2  641   2.814   2.571   7.685
   13POPC   C1A  642   2.741   2.949   7.342
   13POPC   D2A  643   2.737   3.206   6.958
   13POPC   C3A  644   2.734   2.995   6.593
   13POPC   C4A  645   2.890   2.661   6.380
   13POPC   C1B  646   2.629   2.440   7.300
   13POPC   C2B  647   2.748   2.441   6.861
   13POPC   C3B  648   2.600   2.250   6.483
   13POPC   C4B  649   2.482   2.462   6.130
   14POPC   NC3  650  11.290   8.730   8.074
   14POPC   PO4  651  10.599   8.756   8.041
   14POPC   GL1  652  10.854   8.620   7.671
   14POPC   GL2  653  11.192   8.757   7.574
   14POPC   C1A  654  10.852   8.683   7.205
   14POPC   D2A  655  11.195   8.722   6.896
   14POPC   C3A  656  11.020   8.853   6.515
   14POPC   C4A  657  10.889   8.701   6.131
   14POPC   C1B  658  11.349   9.079   7.262
   14POPC   C2B  659  11.281   9.256   6.837
   14POPC   C3B  660  11.485   9.097   6.502
   14POPC   C4B  661  11.358   8.865   6.120
   15POPC   NC3  662   8.609  11.344   8.020
   15POPC   PO4  663   9.078  10.960   8.305
   15POPC   GL1  664   8.925  11.024   7.795
   15POPC   GL2  665   9.013  11.250   7.546
   15POPC   C1A  666   8.767  10.859   7.340
   15POPC   D2A  667   8.870  11.061   6.902
   15POPC   C3A  668   8.928  10.880   6.444
   15POPC   C4A  669   8.915  10.912   5.972
   15POPC   C1B  670   8.586  11.341   7.333
   15POPC   C2B  671   8.498  11.420   6.907
   15POPC   C3B  672   8.737  11.403   6.520
   15POPC   C4B  673   9.165  11.358   6.425
   16POPC   NC3  674   6.885  11.357   7.846
   16POPC   PO4  675   6.833  10.681   8.072
   16POPC   GL1  676   6.633  10.893   7.667
   16POPC   GL2  677   6.651  11.246   7.420
   16POPC   C1A  678   6.781  10.809   7.252
   16POPC   D2A  679   6.758  11.050   6.878
   16POPC   C3A  680   6.737  10.832   6.455
   16POPC   C4A  681   6.500  11.021   6.070
   16POPC   C1B  682   6.289  11.432   7.173
   16POPC   C2B  683   6.199  11.217   6.773
   16POPC   C3B  684   6.534  11.310   6.500
   16POPC   C4B  685   6.533   0.111   6.239
   17POPC   NC3  686   0.554   8.088   8.140
   17POPC   PO4  687   0.031   7.718   7.835
   17POPC   GL1  688   0.227   8.073   7.654
   17POPC   GL2  689   0.581   8.139   7.638
   17POPC   C1A  690   0.213   8.134   7.219
   17POPC   D2A  691   0.439   8.081   6.862
   17POPC   C3A  692   0.182   8.040   6.503
   17POPC   C4A  693   0.180   8.176   6.083
   17POPC   C1B  694   0.640   8.425   7.326
   17POPC   C2B  695   0.724   8.522   6.904
   17POPC   C3B  696   0.887   8.198   6.639
   17POPC   C4B  697   0.702   7.985   6.298
   18POPC   NC3  698   4.167  11.030   8.066
   18POPC   PO4  699   4.662   0.006   8.008
   18POPC   GL1  700   4.375  11.386   7.684
   18POPC   GL2  701   4.399  11.043   7.613
   18POPC   C1A  702   4.345  11.355   7.205
   18POPC   D2A  703   4.239   0.030   6.796
   18POPC   C3A  704   4.220  11.298   6.404
   18POPC   C4A  705   4.219  11.388   5.950
   18POPC   C1B  706   4.307  10.842   7.231
   18POPC   C2B  707   4.328  10.999   6.813
   18POPC   C3B  708   4.616  10.918   6.475
   18POPC   C4B  709   4.440  10.923   6.082
   19POPC   NC3  710   5.811  11.112   7.975
   19POPC   PO4  711   6.502  11.215   8.063
   19POPC   GL1  712   6.228  11.196   7.676
   19POPC   GL2  713   6.025  11.471   7.642
   19POPC   C1A  714   6.252  10.946   7.235
   19POPC   D2A  715   5.949  10.737   6.951
   19POPC   C3A  716   5.815  10.867   6.525
   19POPC   C4A  717   6.007  11.102   6.190
   19POPC   C1B  718   5.816  11.233   7.309
   19POPC   C2B  719   5.684  11.191   6.897
   19POPC   C3B  720   5.686  11.365   6.504
   19POPC   C4B  721   5.477   0.119   6.247
   20POPC   NC3  722   6.577   0.977   8.111
   20POPC   PO4  723   6.273   1.561   7.996
   20POPC   GL1  724   6.500   1.304   7.697
   20POPC   GL2  725   6.441   0.952   7.634
   20POPC   C1A  726   6.563   1.384   7.263
   20POPC   D2A  727   6.535   1.615   6.881
   20POPC   C3A  728   6.427   1.401   6.508
   20POPC   C4A  729   6.328   1.389   6.062
   20POPC   C1B  730   6.776   0.921   7.349
   20POPC   C2B  731   6.692   1.030   6.920
   20POPC   C3B  732   6.874   0.985   6.542
   20POPC   C4B  733   6.771   1.163   6.183
   21POPC   NC3  734   0.400   6.299   8.151
   21POPC   PO4  735   0.595   6.981   8.015
   21POPC   GL1  736   0.290   6.810   7.714
   21POPC   GL2  737   0.421   6.477   7.669
   21POPC   C1A  738   0.099   6.763   7.281
   21POPC   D2A  739   0.225   6.563   6.898
   21POPC   C3A  740   0.044   6.750   6.550
   21POPC   C4A  741   0.209   6.892   6.160
   21POPC   C1B  742   0.587   6.629   7.282
   21POPC   C2B  743   0.729   6.435   6.874
   21POPC   C3B  744   0.548   6.579   6.478
   21POPC   C4B  745   0.534   6.495   6.045
   22POPC   NC3  746   2.395   6.186   8.191
   22POPC   PO4  747   2.243   6.773   8.090
   22POPC   GL1  748   1.895   6.799   7.815
   22POPC   GL2  749   1.856   6.473   7.719
   22POPC   C1A  750   1.876   6.921   7.391
   22POPC   D2A  751   1.898   6.767   6.972
   22POPC   C3A  752   2.101   6.943   6.606
   22POPC   C4A  753   2.219   6.737   6.187
   22POPC   C1B  754   2.045   6.321   7.313
   22POPC   C2B  755   1.894   6.261   6.878
   22POPC   C3B  756   1.896   6.459   6.470
   22POPC   C4B  757   1.780   6.338   6.044
   23POPC   NC3  758  11.130   7.716   8.050
   23POPC   PO4  759  10.976   8.390   8.197
   23POPC   GL1  760  10.902   8.123   7.804
   23POPC   GL2  761  11.231   8.233   7.711
   23POPC   C1A  762  11.023   7.881   7.382
   23POPC   D2A  763  11.175   7.626   6.991
   23POPC   C3A  764  11.097   7.821   6.548
   23POPC   C4A  765  11.059   7.970   6.111
   23POPC   C1B  766  11.232   8.334   7.265
   23POPC   C2B  767  11.288   8.209   6.827
   23POPC   C3B  768  11.259   8.370   6.386
   23POPC   C4B  769  11.254   8.385   5.919
   24POPC   NC3  770   0.116   4.262   8.278
   24POPC   PO4  771   0.745   4.439   8.246
   24POPC   GL1  772   0.438   4.291   7.867
   24POPC   GL2  773   0.300   4.552   7.669
   24POPC   C1A  774   0.347   4.116   7.406
   24POPC   D2A  775   0.466   4.193   6.954
   24POPC   C3A  776   0.285   4.011   6.582
   24POPC   C4A  777   0.378   4.075   6.131
   24POPC   C1B  778   0.556   4.570   7.291
   24POPC   C2B  779   0.609   4.660   6.830
   24POPC   C3B  780   0.407   4.512   6.440
   24POPC   C4B  781   0.069   4.506   6.118
   25POPC   NC3  782   1.149   1.134   8.081
   25POPC   PO4  783   1.520   1.633   8.054
   25POPC   GL1  784   1.226   1.517   7.707
   25POPC   GL2  785   1.187   1.160   7.593
   25POPC   C1A  786   1.249   1.544   7.248
   25POPC   D2A  787   1.024   1.447   6.851
   25POPC   C3A  788   1.235   1.586   6.506
   25POPC   C4A  789   1.349   1.435   6.126
   25POPC   C1B  790   1.124   0.999   7.192
   25POPC   C2B  791   1.191   0.952   6.785
   25POPC   C3B  792   1.063   1.081   6.416
   25POPC   C4B  793   1.171   0.972   6.011
   26POPC   NC3  794   1.213   9.575   8.073
   26POPC   PO4  795   1.695   9.226   7.845
   26POPC   GL1  796   1.475   9.604   7.608
   26POPC   GL2  797   1.187   9.838   7.662
   26POPC   C1A  798   1.425   9.744   7.189
   26POPC   D2A  799   1.257   9.410   6.946
   26POPC   C3A  800   1.347   9.393   6.527
   26POPC   C4A  801   1.253   9.512   6.164
   26POPC   C1B  802   0.952   9.687   7.352
   26POPC   C2B  803   0.953   9.830   6.956
   26POPC   C3B  804   1.144   9.850   6.584
   26POPC   C4B  805   0.866   9.809   6.256
   27POPC   NC3  806   5.292   2.545   8.211
   27POPC   PO4  807   5.485   1.944   8.076
   27POPC   GL1  808   5.385   1.731   7.681
   27POPC   GL2  809   5.745   1.750   7.552
   27POPC   C1A  810   5.310   1.896   7.240
   27POPC   D2A  811   5.614   2.061   6.923
   27POPC   C3A  812   5.480   2.100   6.484
   27POPC   C4A  813   5.717   2.162   6.100
   27POPC   C1B  814   5.650   1.536   7.178
   27POPC   C2B  815   5.512   1.596   6.741
   27POPC   C3B  816   5.847   1.746   6.464
   27POPC   C4B  817   6.111   1.826   6.113
   28POPC   NC3  818   7.712   0.267   7.957
   28POPC   PO4  819   7.140  11.428   8.234
   28POPC   GL1  820   7.163   0.270   7.795
   28POPC   GL2  821   7.338   0.605   7.793
   28POPC   C1A  822   7.243   0.165   7.305
   28POPC   D2A  823   6.972   0.052   6.939
   28POPC   C3A  824   7.108  11.494   6.511
   28POPC   C4A  825   7.013   0.159   6.079
   28POPC   C1B  826   7.253   0.665   7.345
   28POPC   C2B  827   7.403   0.496   6.933
   28POPC   C3B  828   7.455   0.373   6.498
   28POPC   C4B  829   7.281   0.596   6.134
   29POPC   NC3  830   8.029   8.776   8.132
   29POPC   PO4  831   8.612   8.586   8.114
   29POPC   GL1  832   8.385   8.808   7.724
   29POPC   GL2  833   8.040   9.029   7.706
   29POPC   C1A  834   8.103   8.633   7.365
   29POPC   D2A  835   7.909   8.776   6.950
   29POPC   C3A  836   8.142   8.648   6.589
   29POPC   C4A  837   8.001   8.543   6.188
   29POPC   C1B  838   8.052   9.119   7.294
   29POPC   C2B  839   8.372   8.993   7.001
   29POPC   C3B  840   8.370   9.100   6.594
   29POPC   C4B  841   8.017   9.067   6.295
   30POPC   NC3  842   6.325   9.577   8.158
   30POPC   PO4  843   6.834   9.159   8.079
   30POPC   GL1  844   6.766   9.523   7.753
   30POPC   GL2  845   6.481   9.787   7.702
   30POPC   C1A  846   6.763   9.611   7.280
   30POPC   D2A  847   6.653   9.496   6.844
   30POPC   C3A  848   6.713   9.754   6.473
   30POPC   C4A  849   6.795   9.433   6.143
   30POPC   C1B  850   6.249   9.613   7.388
   30POPC   C2B  851   6.239   9.738   6.994
   30POPC   C3B  852   6.200   9.639   6.564
   30POPC   C4B  853   6.098   9.843   6.206
   31POPC   NC3  854   2.338   5.356   8.240
   31POPC   PO4  855   3.050   5.297   8.173
   31POPC   GL1  856   2.713   5.478   7.850
   31POPC   GL2  857   2.580   5.825   7.837
   31POPC   C1A  858   2.664   5.518   7.357
   31POPC   D2A  859   2.829   5.396   6.912
   31POPC   C3A  860   2.680   5.475   6.472
   31POPC   C4A  861   2.911   5.583   6.076
   31POPC   C1B  862   2.641   6.017   7.402
   31POPC   C2B  863   2.757   5.911   6.948
   31POPC   C3B  864   2.698   5.994   6.476
   31POPC   C4B  865   2.296   6.161   6.279
   32POPC   NC3  866   8.104   2.063   8.231
   32POPC   PO4  867   7.906   1.568   7.827
   32POPC   GL1  868   8.119   1.802   7.554
   32POPC   GL2  869   8.319   2.039   7.754
   32POPC   C1A  870   8.422   1.637   7.264
   32POPC   D2A  871   8.490   1.574   6.819
   32POPC   C3A  872   8.058   1.628   6.639
   32POPC   C4A  873   7.780   1.567   6.262
   32POPC   C1B  874   8.443   2.141   7.342
   32POPC   C2B  875   8.233   2.006   6.957
   32POPC   C3B  876   8.115   2.179   6.581
   32POPC   C4B  877   8.150   1.910   6.225
   33POPC   NC3  878   4.656  10.775   7.964
   33POPC   PO4  879   4.248  10.368   8.314
   33POPC   GL1  880   4.610  10.299   7.842
   33POPC   GL2  881   4.371  10.205   7.549
   33POPC   C1A  882   4.744  10.484   7.386
   33POPC   D2A  883   4.718  10.693   6.966
   33POPC   C3A  884   4.707  10.421   6.591
   33POPC   C4A  885   4.740  10.505   6.145
   33POPC   C1B  886   4.026  10.144   7.257
   33POPC   C2B  887   3.920   9.962   6.846
   33POPC   C3B  888   3.938  10.137   6.413
   33POPC   C4B  889   4.264  10.430   6.309
   34POPC   NC3  890   7.429   8.153   8.013
   34POPC   PO4  891   6.850   8.251   7.988
   34POPC   GL1  892   7.146   8.462   7.671
   34POPC   GL2  893   7.489   8.405   7.575
   34POPC   C1A  894   7.138   8.469   7.209
   34POPC   D2A  895   7.268   8.210   6.831
   34POPC   C3A  896   7.128   8.293   6.397
   34POPC   C4A  897   6.791   8.103   6.156
   34POPC   C1B  898   7.658   8.374   7.166
   34POPC   C2B  899   7.757   8.332   6.730
   34POPC   C3B  900   7.628   8.218   6.329
   34POPC   C4B  901   7.673   8.285   5.884
   35POPC   NC3  902   0.993   6.785   7.897
   35POPC   PO4  903   0.941   6.143   8.114
   35POPC   GL1  904   0.980   6.327   7.680
   35POPC   GL2  905   1.337   6.436   7.700
   35POPC   C1A  906   1.075   6.569   7.266
   35POPC   D2A  907   0.985   6.872   6.916
   35POPC   C3A  908   1.071   6.651   6.497
   35POPC   C4A  909   1.044   6.499   6.063
   35POPC   C1B  910   1.562   6.472   7.290
   35POPC   C2B  911   1.438   6.576   6.873
   35POPC   C3B  912   1.567   6.849   6.570
   35POPC   C4B  913   1.495   6.755   6.157
   36POPC   NC3  914   3.269   5.703   8.130
   36POPC   PO4  915   3.041   6.261   8.310
   36POPC   GL1  916   3.030   6.139   7.786
   36POPC   GL2  917   3.061   5.801   7.644
   36POPC   C1A  918   3.123   6.162   7.254
   36POPC   D2A  919   3.238   5.976   6.790
   36POPC   C3A  920   3.186   6.225   6.362
   36POPC   C4A  921   3.321   6.389   5.929
   36POPC   C1B  922   3.166   5.655   7.220
   36POPC   C2B  923   3.559   5.607   6.971
   36POPC   C3B  924   3.669   5.704   6.555
   36POPC   C4B  925   3.307   5.740   6.338
   37POPC   NC3  926   8.321   0.604   8.011
   37POPC   PO4  927   8.119  11.498   8.039
   37POPC   GL1  928   8.322   0.193   7.657
   37POPC   GL2  929   8.060   0.444   7.583
   37POPC   C1A  930   8.428   0.348   7.206
   37POPC   D2A  931   8.119   0.317   6.841
   37POPC   C3A  932   8.210   0.387   6.391
   37POPC   C4A  933   8.312   0.076   6.018
   37POPC   C1B  934   7.822   0.633   7.222
   37POPC   C2B  935   7.822   0.722   6.755
   37POPC   C3B  936   7.802   0.681   6.280
   37POPC   C4B  937   7.688   0.687   5.831
   38POPC   NC3  938   1.548   2.600   7.900
   38POPC   PO4  939   0.998   2.925   8.073
   38POPC   GL1  940   1.025   2.716   7.709
   38POPC   GL2  941   1.292   2.954   7.639
   38POPC   C1A  942   1.187   2.550   7.301
   38POPC   D2A  943   1.294   2.689   6.884
   38POPC   C3A  944   1.357   2.465   6.490
   38POPC   C4A  945   1.404   2.599   6.060
   38POPC   C1B  946   1.010   3.098   7.344
   38POPC   C2B  947   0.879   2.997   6.948
   38POPC   C3B  948   1.035   3.080   6.553
   38POPC   C4B  949   0.814   2.996   6.178
   39POPC   NC3  950   0.578   2.715   8.114
   39POPC   PO4  951   0.732   2.112   7.963
   39POPC   GL1  952   0.549   2.444   7.684
   39POPC   GL2  953   0.272   2.696   7.695
   39POPC   C1A  954   0.669   2.674   7.329
   39POPC   D2A  955   0.794   2.439   6.978
   39POPC   C3A  956   0.881   2.601   6.587
   39POPC   C4A  957   0.890   2.456   6.162
   39POPC   C1B  958   0.155   2.760   7.248
   39POPC   C2B  959   0.389   2.749   6.864
   39POPC   C3B  960   0.427   2.757   6.423
   39POPC   C4B  961   0.101   2.767   6.124
   40POPC   NC3  962   5.010   1.812   8.080
   40POPC   PO4  963   4.769   2.476   8.152
   40POPC   GL1  964   4.924   2.244   7.775
   40POPC   GL2  965   4.701   2.002   7.712
   40POPC   C1A  966   4.886   2.212   7.280
   40POPC   D2A  967   5.115   2.214   6.853
   40POPC   C3A  968   5.007   2.306   6.394
   40POPC   C4A  969   5.268   2.437   6.029
   40POPC   C1B  970   4.868   1.693   7.409
   40POPC   C2B  971   4.849   1.792   6.952
   40POPC   C3B  972   5.035   1.814   6.540
   40POPC   C4B  973   4.848   1.712   6.142
   41POPC   NC3  974   8.873  10.604   8.073
   41POPC   PO4  975   8.373  10.120   8.243
   41POPC   GL1  976   8.484  10.397   7.837
   41POPC   GL2  977   8.822  10.307   7.670
   41POPC   C1A  978   8.432  10.448   7.349
   41POPC   D2A  979   8.532  10.245   6.906
   41POPC   C3A  980   8.560  10.511   6.499
   41POPC   C4A  981   8.476  10.636   6.020
   41POPC   C1B  982   8.918  10.212   7.253
   41POPC   C2B  983   9.036  10.320   6.818
   41POPC   C3B  984   8.915  10.173   6.411
   41POPC   C4B  985   8.940  10.425   6.086
   42POPC   NC3  986   7.529   2.222   8.041
   42POPC   PO4  987   7.829   1.702   8.334
   42POPC   GL1  988   7.451   1.729   7.870
   42POPC   GL2  989   7.619   1.969   7.617
   42POPC   C1A  990   7.473   1.601   7.337
   42POPC   D2A  991   7.746   1.856   6.994
   42POPC   C3A  992   7.653   1.970   6.514
   42POPC   C4A  993   7.355   1.857   6.161
   42POPC   C1B  994   7.349   2.082   7.247
   42POPC   C2B  995   7.260   1.929   6.830
   42POPC   C3B  996   7.183   2.208   6.482
   42POPC   C4B  997   6.942   2.159   6.100
   43POPC   NC3  998   7.621   1.230   7.962
   43POPC   PO4  999   6.948   1.256   8.075
   43POPC   GL1 1000   7.024   1.380   7.665
   43POPC   GL2 1001   7.250   1.108   7.636
   43POPC   C1A 1002   7.063   1.332   7.217
   43POPC   D2A 1003   7.001   1.435   6.802
   43POPC   C3A 1004   7.252   1.427   6.438
   43POPC   C4A 1005   7.151   1.440   5.977
   43POPC   C1B 1006   7.512   1.086   7.279
   43POPC   C2B 1007   7.278   0.989   6.912
   43POPC   C3B 1008   7.385   0.903   6.523
   43POPC   C4B 1009   7.468   1.076   6.129
   44POPC   NC3 1010   1.921   9.648   7.840
   44POPC   PO4 1011   2.340   9.160   8.043
   44POPC   GL1 1012   2.329   9.410   7.657
   44POPC   GL2 1013   2.060   9.265   7.477
   44POPC   C1A 1014   2.352   9.621   7.227
   44POPC   D2A 1015   2.316   9.369   6.856
   44POPC   C3A 1016   2.101   9.456   6.474
   44POPC   C4A 1017   2.126   9.748   6.143
   44POPC   C1B 1018   1.844   9.308   7.075
   44POPC   C2B 1019   1.723   9.644   6.776
   44POPC   C3B 1020   1.651   9.771   6.355
   44POPC   C4B 1021   1.699   9.943   5.953
   45POPC   NC3 1022  11.057   3.479   8.006
   45POPC   PO4 1023   0.100   3.223   7.747
   45POPC   GL1 1024  11.196   3.456   7.528
   45POPC   GL2 1025  11.059   3.839   7.663
   45POPC   C1A 1026  10.893   3.678   7.217
   45POPC   D2A 1027  10.753   3.493   6.843
   45POPC   C3A 1028  11.057   3.223   6.639
   45POPC   C4A 1029  11.044   3.173   6.189
   45POPC   C1B 1030  11.371   3.899   7.353
   45POPC   C2B 1031  11.344   3.729   6.948
   45POPC   C3B 1032  11.145   3.727   6.557
   45POPC   C4B 1033  11.423   3.519   6.266
   46POPC   NC3 1034   8.846   8.200   8.018
   46POPC   PO4 1035   8.430   7.759   7.808
   46POPC   GL1 1036   8.806   7.889   7.581
   46POPC   GL2 1037   8.777   8.231   7.503
   46POPC   C1A 1038   8.995   7.836   7.159
   46POPC   D2A 1039   9.114   7.924   6.697
   46POPC   C3A 1040   8.927   7.787   6.295
   46POPC   C4A 1041   8.659   7.763   5.898
   46POPC   C1B 1042   8.774   8.294   7.043
   46POPC   C2B 1043   9.095   8.430   6.771
   46POPC   C3B 1044   9.065   8.318   6.348
   46POPC   C4B 1045   8.945   8.170   5.954
   47POPC   NC3 1046   1.537   8.259   8.240
   47POPC   PO4 1047   0.985   7.900   8.073
   47POPC   GL1 1048   1.084   8.008   7.654
   47POPC   GL2 1049   0.970   7.727   7.512
   47POPC   C1A 1050   1.293   8.220   7.284
   47POPC   D2A 1051   1.246   8.523   6.945
   47POPC   C3A 1052   1.320   8.441   6.493
   47POPC   C4A 1053   1.084   8.336   6.116
   47POPC   C1B 1054   1.239   7.703   7.174
   47POPC   C2B 1055   1.306   7.979   6.817
   47POPC   C3B 1056   1.258   7.942   6.385
   47POPC   C4B 1057   1.476   7.733   6.117
   48POPC   NC3 1058   0.626  10.387   8.095
   48POPC   PO4 1059   0.074  10.002   8.234
   48POPC   GL1 1060   0.284  10.118   7.782
   48POPC   GL2 1061   0.362  10.484   7.675
   48POPC   C1A 1062   0.615  10.119   7.409
   48POPC   D2A 1063   0.485  10.028   6.969
   48POPC   C3A 1064   0.739  10.186   6.634
   48POPC   C4A 1065   0.720  10.376   6.244
   48POPC   C1B 1066   0.216  10.403   7.266
   48POPC   C2B 1067   0.361  10.519   6.879
   48POPC   C3B 1068   0.275  10.440   6.476
   48POPC   C4B 1069   0.204  10.754   6.202
   49POPC   NC3 1070   1.161   3.349   8.097
   49POPC   PO4 1071   0.755   3.882   7.911
   49POPC   GL1 1072   1.151   3.805   7.665
   49POPC   GL2 1073   1.321   3.485   7.637
   49POPC   C1A 1074   1.272   3.749   7.212
   49POPC   D2A 1075   1.113   3.497   6.870
   49POPC   C3A 1076   1.135   3.736   6.476
   49POPC   C4A 1077   1.036   3.529   6.130
   49POPC   C1B 1078   1.506   3.268   7.293
   49POPC   C2B 1079   1.484   3.149   6.872
   49POPC   C3B 1080   1.465   3.341   6.459
   49POPC   C4B 1081   1.295   3.102   6.109
   50POPC   NC3 1082   1.932   7.072   8.238
   50POPC   PO4 1083   1.305   7.042   8.101
   50POPC   GL1 1084   1.413   6.980   7.667
   50POPC   GL2 1085   1.274   7.326   7.662
   50POPC   C1A 1086   1.415   6.966   7.205
   50POPC   D2A 1087   1.328   7.275   6.906
   50POPC   C3A 1088   1.164   7.157   6.514
   50POPC   C4A 1089   1.398   7.248   6.166
   50POPC   C1B 1090   0.999   7.214   7.347
   50POPC   C2B 1091   0.811   7.397   7.003
   50POPC   C3B 1092   0.987   7.613   6.661
   50POPC   C4B 1093   0.971   7.532   6.221
   51POPC   NC3 1094   3.465   9.496   8.243
   51POPC   PO4 1095   3.437  10.125   8.200
   51POPC   GL1 1096   3.493   9.942   7.791
   51POPC   GL2 1097   3.658   9.629   7.754
   51POPC   C1A 1098   3.545   9.949   7.343
   51POPC   D2A 1099   3.256   9.817   7.034
   51POPC   C3A 1100   3.462   9.786   6.663
   51POPC   C4A 1101   3.465   9.990   6.302
   51POPC   C1B 1102   3.476   9.438   7.359
   51POPC   C2B 1103   3.319   9.322   6.916
   51POPC   C3B 1104   3.508   9.317   6.470
   51POPC   C4B 1105   3.799   9.279   6.098
   52POPC   NC3 1106   8.966   3.313   8.232
   52POPC   PO4 1107   9.145   3.884   8.110
   52POPC   GL1 1108   9.235   3.607   7.737
   52POPC   GL2 1109   8.990   3.327   7.725
   52POPC   C1A 1110   9.102   3.594   7.285
   52POPC   D2A 1111   8.829   3.552   6.909
   52POPC   C3A 1112   8.969   3.646   6.483
   52POPC   C4A 1113   8.865   3.825   6.077
   52POPC   C1B 1114   8.856   3.144   7.330
   52POPC   C2B 1115   9.041   3.095   6.937
   52POPC   C3B 1116   8.793   3.135   6.583
   52POPC   C4B 1117   8.663   3.351   6.188
   53POPC   NC3 1118   1.712   5.280   7.979
   53POPC   PO4 1119   2.174   5.780   8.187
   53POPC   GL1 1120   2.120   5.573   7.764
   53POPC   GL2 1121   1.762   5.674   7.655
   53POPC   C1A 1122   2.121   5.697   7.292
   53POPC   D2A 1123   1.898   5.736   6.878
   53POPC   C3A 1124   2.151   5.695   6.489
   53POPC   C4A 1125   2.005   5.478   6.102
   53POPC   C1B 1126   1.648   5.959   7.296
   53POPC   C2B 1127   1.415   6.069   6.910
   53POPC   C3B 1128   1.458   6.195   6.489
   53POPC   C4B 1129   1.727   5.894   6.278
   54POPC   NC3 1130  11.058   9.790   8.140
   54POPC   PO4 1131  11.469   9.250   8.064
   54POPC   GL1 1132  11.399   9.443   7.637
   54POPC   GL2 1133  11.069   9.606   7.671
   54POPC   C1A 1134  11.258   9.611   7.206
   54POPC   D2A 1135  11.287   9.865   6.811
   54POPC   C3A 1136  11.446   9.627   6.471
   54POPC   C4A 1137  11.474   9.630   6.042
   54POPC   C1B 1138  10.852   9.886   7.373
   54POPC   C2B 1139  10.798   9.730   6.927
   54POPC   C3B 1140  10.921   9.585   6.509
   54POPC   C4B 1141  11.107   9.298   6.239
   55POPC   NC3 1142  10.778   5.092   8.071
   55POPC   PO4 1143  10.181   5.458   8.128
   55POPC   GL1 1144  10.248   5.279   7.714
   55POPC   GL2 1145  10.449   4.974   7.680
   55POPC   C1A 1146  10.378   5.407   7.301
   55POPC   D2A 1147  10.485   5.256   6.882
   55POPC   C3A 1148  10.190   5.259   6.551
   55POPC   C4A 1149  10.198   4.912   6.264
   55POPC   C1B 1150  10.634   4.840   7.285
   55POPC   C2B 1151  10.626   4.762   6.850
   55POPC   C3B 1152  10.679   4.876   6.421
   55POPC   C4B 1153  10.579   4.685   6.012
   56POPC   NC3 1154   5.928   0.508   8.092
   56POPC   PO4 1155   5.287   0.327   8.238
   56POPC   GL1 1156   5.525   0.464   7.789
   56POPC   GL2 1157   5.625   0.743   7.694
   56POPC   C1A 1158   5.796   0.342   7.371
   56POPC   D2A 1159   5.742   0.210   6.915
   56POPC   C3A 1160   6.064   0.215   6.574
   56POPC   C4A 1161   5.986   0.119   6.138
   56POPC   C1B 1162   6.010   0.789   7.464
   56POPC   C2B 1163   6.107   0.893   7.026
   56POPC   C3B 1164   5.864   0.727   6.681
   56POPC   C4B 1165   5.787   0.561   6.283
   57POPC   NC3 1166   9.527  10.989   8.198
   57POPC   PO4 1167   9.231  10.637   7.760
   57POPC   GL1 1168   9.478  10.990   7.641
   57POPC   GL2 1169   9.501  11.362   7.689
   57POPC   C1A 1170   9.472  11.143   7.211
   57POPC   D2A 1171   9.726  11.017   6.855
   57POPC   C3A 1172   9.526  10.955   6.450
   57POPC   C4A 1173   9.773  11.004   6.066
   57POPC   C1B 1174   9.804  -0.000   7.358
   57POPC   C2B 1175   9.661   0.043   6.893
   57POPC   C3B 1176   9.683  11.436   6.437
   57POPC   C4B 1177   9.764   0.002   5.992
   58POPC   NC3 1178  10.529   8.382   8.320
   58POPC   PO4 1179   9.969   8.488   7.889
   58POPC   GL1 1180  10.010   8.259   7.569
   58POPC   GL2 1181  10.156   7.928   7.625
   58POPC   C1A 1182  10.108   8.194   7.166
   58POPC   D2A 1183  10.328   8.056   6.817
   58POPC   C3A 1184  10.280   8.291   6.473
   58POPC   C4A 1185  10.282   8.164   6.039
   58POPC   C1B 1186  10.522   7.973   7.329
   58POPC   C2B 1187  10.786   8.199   7.027
   58POPC   C3B 1188  10.789   8.252   6.586
   58POPC   C4B 1189  10.610   7.919   6.336
   59POPC   NC3 1190   4.623   1.225   8.034
   59POPC   PO4 1191   4.126   0.772   8.093
   59POPC   GL1 1192   4.012   1.034   7.748
   59POPC   GL2 1193   4.352   1.024   7.643
   59POPC   C1A 1194   3.903   0.924   7.322
   59POPC   D2A 1195   4.149   0.933   6.945
   59POPC   C3A 1196   3.993   0.933   6.559
   59POPC   C4A 1197   4.274   1.165   6.398
   59POPC   C1B 1198   4.275   1.289   7.292
   59POPC   C2B 1199   4.519   1.398   6.936
   59POPC   C3B 1200   4.580   1.532   6.538
   59POPC   C4B 1201   4.168   1.673   6.361
   60POPC   NC3 1202   1.350   4.839   8.190
   60POPC   PO4 1203   2.044   5.007   8.156
   60POPC   GL1 1204   2.030   4.927   7.712
   60POPC   GL2 1205   1.882   5.183   7.520
   60POPC   C1A 1206   1.999   4.737   7.302
   60POPC   D2A 1207   1.896   5.035   6.969
   60POPC   C3A 1208   1.867   4.817   6.580
   60POPC   C4A 1209   1.807   5.018   6.201
   60POPC   C1B 1210   2.257   5.206   7.309
   60POPC   C2B 1211   2.307   5.368   6.881
   60POPC   C3B 1212   2.237   5.191   6.454
   60POPC   C4B 1213   2.486   5.208   6.053
   61POPC   NC3 1214   9.813   5.165   8.215
   61POPC   PO4 1215   9.760   4.503   8.024
   61POPC   GL1 1216   9.940   4.845   7.742
   61POPC   GL2 1217   9.742   5.163   7.712
   61POPC   C1A 1218  10.063   4.993   7.302
   61POPC   D2A 1219  10.112   4.855   6.854
   61POPC   C3A 1220   9.775   4.958   6.515
   61POPC   C4A 1221   9.640   4.789   6.123
   61POPC   C1B 1222   9.553   5.084   7.311
   61POPC   C2B 1223   9.534   5.218   6.871
   61POPC   C3B 1224   9.333   5.232   6.458
   61POPC   C4B 1225   9.409   5.227   6.020
   62POPC   NC3 1226  11.292  11.114   8.000
   62POPC   PO4 1227  10.754   0.005   8.131
   62POPC   GL1 1228  11.069   0.013   7.773
   62POPC   GL2 1229  10.812  11.431   7.562
   62POPC   C1A 1230  11.292   0.043   7.362
   62POPC   D2A 1231  11.055   0.040   6.981
   62POPC   C3A 1232  11.322  11.481   6.630
   62POPC   C4A 1233  11.240   0.005   6.201
   62POPC   C1B 1234  11.009  11.120   7.315
   62POPC   C2B 1235  11.152  11.044   6.902
   62POPC   C3B 1236  11.269  10.983   6.471
   62POPC   C4B 1237  11.001  10.791   6.155
   63POPC   NC3 1238  10.219   3.386   8.231
   63POPC   PO4 1239  10.680   3.304   7.758
   63POPC   GL1 1240  10.292   3.286   7.573
   63POPC   GL2 1241  10.196   3.596   7.751
   63POPC   C1A 1242  10.315   3.293   7.108
   63POPC   D2A 1243  10.266   3.368   6.658
   63POPC   C3A 1244  10.619   3.493   6.349
   63POPC   C4A 1245  10.623   3.334   5.916
   63POPC   C1B 1246  10.151   3.767   7.347
   63POPC   C2B 1247  10.337   3.782   6.937
   63POPC   C3B 1248  10.193   3.883   6.544
   63POPC   C4B 1249  10.237   3.727   6.121
   64POPC   NC3 1250   6.713   0.017   8.355
   64POPC   PO4 1251   6.387   0.554   8.116
   64POPC   GL1 1252   6.280   0.430   7.699
   64POPC   GL2 1253   6.505   0.166   7.664
   64POPC   C1A 1254   6.302   0.436   7.233
   64POPC   D2A 1255   6.504   0.290   6.844
   64POPC   C3A 1256   6.426   0.611   6.533
   64POPC   C4A 1257   6.274   0.531   6.130
   64POPC   C1B 1258   6.791   0.391   7.371
   64POPC   C2B 1259   6.911   0.575   6.960
   64POPC   C3B 1260   6.930   0.473   6.517
   64POPC   C4B 1261   6.771   0.647   6.121
   65POPC   NC3 1262   4.748  10.338   8.493
   65POPC   PO4 1263   4.951  10.983   8.253
   65POPC   GL1 1264   5.162  10.682   7.858
   65POPC   GL2 1265   5.499  10.774   7.719
   65POPC   C1A 1266   5.241  10.431   7.426
   65POPC   D2A 1267   5.115  10.400   6.942
   65POPC   C3A 1268   5.127  10.121   6.567
   65POPC   C4A 1269   5.058  10.107   6.126
   65POPC   C1B 1270   5.454  10.862   7.237
   65POPC   C2B 1271   5.260  10.893   6.806
   65POPC   C3B 1272   5.146  10.671   6.408
   65POPC   C4B 1273   5.228  10.581   5.932
   66POPC   NC3 1274  11.499   5.444   8.110
   66POPC   PO4 1275   0.016   4.706   8.111
   66POPC   GL1 1276  11.193   4.844   7.854
   66POPC   GL2 1277  11.176   5.212   7.772
   66POPC   C1A 1278  11.131   4.835   7.418
   66POPC   D2A 1279  11.099   4.629   7.023
   66POPC   C3A 1280  11.149   4.874   6.667
   66POPC   C4A 1281  11.153   4.767   6.261
   66POPC   C1B 1282  10.847   5.273   7.454
   66POPC   C2B 1283  10.961   5.164   7.037
   66POPC   C3B 1284  10.936   5.354   6.624
   66POPC   C4B 1285  10.618   5.374   6.312
   67POPC   NC3 1286   7.933  10.266   8.112
   67POPC   PO4 1287   8.481   9.917   7.745
   67POPC   GL1 1288   8.090  10.133   7.625
   67POPC   GL2 1289   8.016  10.527   7.687
   67POPC   C1A 1290   7.942  10.306   7.221
   67POPC   D2A 1291   8.067  10.441   6.825
   67POPC   C3A 1292   8.181  10.148   6.520
   67POPC   C4A 1293   7.838  10.247   6.307
   67POPC   C1B 1294   7.761  10.731   7.399
   67POPC   C2B 1295   7.660  10.754   6.953
   67POPC   C3B 1296   7.920  10.902   6.645
   67POPC   C4B 1297   8.113  10.680   6.351
   68POPC   NC3 1298   4.556   2.838   8.463
   68POPC   PO4 1299   4.000   2.586   8.104
   68POPC   GL1 1300   4.197   2.645   7.696
   68POPC   GL2 1301   4.007   2.944   7.642
   68POPC   C1A 1302   4.498   2.594   7.313
   68POPC   D2A 1303   4.526   2.318   6.928
   68POPC   C3A 1304   4.583   2.553   6.540
   68POPC   C4A 1305   4.478   2.446   6.115
   68POPC   C1B 1306   3.992   2.737   7.229
   68POPC   C2B 1307   4.178   2.761   6.798
   68POPC   C3B 1308   4.158   2.793   6.329
   68POPC   C4B 1309   4.426   2.953   5.986
   69POPC   NC3 1310   1.395   6.204   8.192
   69POPC   PO4 1311   1.235   5.565   7.972
   69POPC   GL1 1312   1.251   5.887   7.672
   69POPC   GL2 1313   1.295   5.621   7.445
   69POPC   C1A 1314   1.056   6.039   7.256
   69POPC   D2A 1315   0.894   5.894   6.815
   69POPC   C3A 1316   0.941   6.132   6.411
   69POPC   C4A 1317   0.784   6.063   5.958
   69POPC   C1B 1318   1.592   5.440   7.190
   69POPC   C2B 1319   1.384   5.554   6.820
   69POPC   C3B 1320   1.254   5.711   6.430
   69POPC   C4B 1321   1.503   5.427   6.219
   70POPC   NC3 1322   3.532   0.069   8.170
   70POPC   PO4 1323   3.363  10.811   8.171
   70POPC   GL1 1324   3.666  10.945   7.838
   70POPC   GL2 1325   3.542  11.296   7.737
   70POPC   C1A 1326   3.873  11.049   7.427
   70POPC   D2A 1327   3.849  11.283   7.029
   70POPC   C3A 1328   3.773  11.111   6.608
   70POPC   C4A 1329   3.769  11.234   6.161
   70POPC   C1B 1330   3.335  11.197   7.341
   70POPC   C2B 1331   3.166  11.324   6.924
   70POPC   C3B 1332   3.317  11.347   6.472
   70POPC   C4B 1333   3.362  10.918   6.288
   71POPC   NC3 1334  11.130   4.458   8.248
   71POPC   PO4 1335  11.429   3.908   8.021
   71POPC   GL1 1336  11.377   4.289   7.792
   71POPC   GL2 1337  11.040   4.364   7.744
   71POPC   C1A 1338  11.441   4.433   7.360
   71POPC   D2A 1339  11.474   4.238   6.979
   71POPC   C3A 1340  11.391   4.354   6.569
   71POPC   C4A 1341  11.376   4.045   6.232
   71POPC   C1B 1342  10.985   4.232   7.338
   71POPC   C2B 1343  10.991   4.121   6.914
   71POPC   C3B 1344  10.898   4.423   6.575
   71POPC   C4B 1345  10.953   4.312   6.167
   72POPC   NC3 1346   9.371   4.278   8.082
   72POPC   PO4 1347  10.002   3.886   8.159
   72POPC   GL1 1348   9.822   3.954   7.737
   72POPC   GL2 1349   9.980   4.210   7.553
   72POPC   C1A 1350   9.587   3.812   7.350
   72POPC   D2A 1351   9.326   3.877   6.934
   72POPC   C3A 1352   9.433   3.886   6.490
   72POPC   C4A 1353   9.790   4.041   6.289
   72POPC   C1B 1354   9.749   4.565   7.348
   72POPC   C2B 1355   9.635   4.692   6.936
   72POPC   C3B 1356   9.623   4.467   6.539
   72POPC   C4B 1357   9.357   4.347   6.205
   73POPC   NC3 1358   2.668   8.121   8.060
   73POPC   PO4 1359   2.203   7.456   8.258
   73POPC   GL1 1360   2.098   7.468   7.811
   73POPC   GL2 1361   1.802   7.306   7.772
   73POPC   C1A 1362   2.144   7.514   7.338
   73POPC   D2A 1363   2.224   7.701   6.899
   73POPC   C3A 1364   2.202   7.505   6.480
   73POPC   C4A 1365   1.982   7.618   6.112
   73POPC   C1B 1366   1.657   7.396   7.346
   73POPC   C2B 1367   1.848   7.291   6.956
   73POPC   C3B 1368   1.725   7.336   6.543
   73POPC   C4B 1369   1.879   7.114   6.183
   74POPC   NC3 1370  10.592   1.308   8.341
   74POPC   PO4 1371  10.094   0.831   8.287
   74POPC   GL1 1372  10.247   1.045   7.887
   74POPC   GL2 1373  10.228   1.423   7.815
   74POPC   C1A 1374  10.362   1.067   7.441
   74POPC   D2A 1375  10.039   0.975   7.123
   74POPC   C3A 1376  10.055   1.053   6.667
   74POPC   C4A 1377  10.441   1.034   6.379
   74POPC   C1B 1378  10.144   1.495   7.338
   74POPC   C2B 1379  10.309   1.397   6.931
   74POPC   C3B 1380  10.245   1.505   6.489
   74POPC   C4B 1381  10.383   1.454   6.035
   75POPC   NC3 1382   0.546   4.786   8.024
   75POPC   PO4 1383   0.455   5.498   7.917
   75POPC   GL1 1384   0.514   5.140   7.655
   75POPC   GL2 1385   0.170   5.043   7.725
   75POPC   C1A 1386   0.631   5.072   7.224
   75POPC   D2A 1387   0.401   5.138   6.835
   75POPC   C3A 1388   0.597   5.046   6.467
   75POPC   C4A 1389   0.865   4.745   6.354
   75POPC   C1B 1390   0.146   4.896   7.288
   75POPC   C2B 1391   0.101   4.727   6.861
   75POPC   C3B 1392   0.107   4.932   6.431
   75POPC   C4B 1393   0.266   5.319   6.186
   76POPC   NC3 1394   1.003   7.421   8.122
   76POPC   PO4 1395   0.426   7.679   8.315
   76POPC   GL1 1396   0.568   7.674   7.844
   76POPC   GL2 1397   0.675   7.372   7.719
   76POPC   C1A 1398   0.488   7.694   7.369
   76POPC   D2A 1399   0.292   7.523   7.015
   76POPC   C3A 1400   0.490   7.629   6.640
   76POPC   C4A 1401   0.454   7.524   6.240
   76POPC   C1B 1402   0.494   7.150   7.371
   76POPC   C2B 1403   0.451   7.015   6.967
   76POPC   C3B 1404   0.389   7.130   6.581
   76POPC   C4B 1405   0.681   7.064   6.272
   77POPC   NC3 1406   2.058   4.428   7.993
   77POPC   PO4 1407   1.508   3.992   8.065
   77POPC   GL1 1408   1.640   4.201   7.677
   77POPC   GL2 1409   1.973   4.237   7.531
   77POPC   C1A 1410   1.575   4.356   7.237
   77POPC   D2A 1411   1.754   4.095   6.899
   77POPC   C3A 1412   1.619   4.150   6.464
   77POPC   C4A 1413   1.681   4.512   6.188
   77POPC   C1B 1414   2.193   4.004   7.189
   77POPC   C2B 1415   2.289   4.123   6.775
   77POPC   C3B 1416   2.105   4.358   6.428
   77POPC   C4B 1417   2.221   4.732   6.179
   78POPC   NC3 1418   7.045  10.261   8.041
   78POPC   PO4 1419   7.583  10.659   8.135
   78POPC   GL1 1420   7.423  10.533   7.731
   78POPC   GL2 1421   7.587  10.214   7.683
   78POPC   C1A 1422   7.268  10.681   7.277
   78POPC   D2A 1423   7.068  10.639   6.845
   78POPC   C3A 1424   7.393  10.510   6.541
   78POPC   C4A 1425   7.623  10.784   6.267
   78POPC   C1B 1426   7.293  10.196   7.376
   78POPC   C2B 1427   7.155  10.168   6.979
   78POPC   C3B 1428   7.179  10.040   6.562
   78POPC   C4B 1429   7.112  10.170   6.179
   79POPC   NC3 1430   2.008   1.105   8.089
   79POPC   PO4 1431   2.279   1.577   7.819
   79POPC   GL1 1432   2.035   1.314   7.569
   79POPC   GL2 1433   1.703   1.298   7.710
   79POPC   C1A 1434   2.085   1.170   7.126
   79POPC   D2A 1435   2.286   0.974   6.748
   79POPC   C3A 1436   2.106   1.195   6.382
   79POPC   C4A 1437   2.243   1.485   6.074
   79POPC   C1B 1438   1.610   1.121   7.310
   79POPC   C2B 1439   1.535   1.287   6.911
   79POPC   C3B 1440   1.579   1.168   6.496
   79POPC   C4B 1441   1.672   1.001   6.115
   80POPC   NC3 1442  10.396   9.117   8.240
   80POPC   PO4 1443  10.614   9.726   8.269
   80POPC   GL1 1444  10.558   9.717   7.791
   80POPC   GL2 1445  10.198   9.789   7.688
   80POPC   C1A 1446  10.489   9.548   7.329
   80POPC   D2A 1447  10.288   9.628   6.907
   80POPC   C3A 1448  10.365   9.573   6.454
   80POPC   C4A 1449  10.596   9.868   6.210
   80POPC   C1B 1450  10.170   9.997   7.275
   80POPC   C2B 1451   9.965  10.030   6.841
   80POPC   C3B 1452  10.147  10.085   6.393
   80POPC   C4B 1453  10.165   9.885   5.942
   81POPC   NC3 1454   1.819   3.656   8.000
   81POPC   PO4 1455   2.399   3.991   7.999
   81POPC   GL1 1456   2.167   3.778   7.646
   81POPC   GL2 1457   2.099   3.433   7.639
   81POPC   C1A 1458   1.793   3.723   7.332
   81POPC   D2A 1459   1.760   3.568   6.889
   81POPC   C3A 1460   1.982   3.788   6.549
   81POPC   C4A 1461   2.342   3.916   6.314
   81POPC   C1B 1462   2.009   3.242   7.235
   81POPC   C2B 1463   1.985   3.054   6.828
   81POPC   C3B 1464   1.977   3.287   6.452
   81POPC   C4B 1465   1.806   3.575   6.126
   82POPC   NC3 1466  10.294   2.124   7.971
   82POPC   PO4 1467   9.774   1.776   8.357
   82POPC   GL1 1468   9.774   1.718   7.793
   82POPC   GL2 1469   9.414   1.620   7.614
   82POPC   C1A 1470   9.900   1.937   7.353
   82POPC   D2A 1471  10.105   1.877   6.923
   82POPC   C3A 1472   9.855   1.848   6.500
   82POPC   C4A 1473   9.927   1.683   6.102
   82POPC   C1B 1474   9.423   1.845   7.231
   82POPC   C2B 1475   9.659   2.080   6.896
   82POPC   C3B 1476   9.617   2.343   6.494
   82POPC   C4B 1477   9.393   2.358   6.080
   83POPC   NC3 1478   0.820   5.687   8.175
   83POPC   PO4 1479   0.188   5.862   8.238
   83POPC   GL1 1480   0.221   5.963   7.777
   83POPC   GL2 1481   0.588   5.985   7.748
   83POPC   C1A 1482   0.211   5.763   7.344
   83POPC   D2A 1483   0.531   5.580   7.065
   83POPC   C3A 1484   0.455   5.595   6.613
   83POPC   C4A 1485   0.726   5.663   6.270
   83POPC   C1B 1486   0.556   6.125   7.305
   83POPC   C2B 1487   0.380   6.057   6.885
   83POPC   C3B 1488   0.439   6.069   6.421
   83POPC   C4B 1489   0.130   5.814   6.228
   84POPC   NC3 1490  10.355  10.107   8.106
   84POPC   PO4 1491  10.030  10.765   8.083
   84POPC   GL1 1492  10.179  10.445   7.724
   84POPC   GL2 1493  10.496  10.210   7.638
   84POPC   C1A 1494  10.318  10.531   7.290
   84POPC   D2A 1495  10.256  10.808   6.947
   84POPC   C3A 1496  10.254  10.632   6.556
   84POPC   C4A 1497  10.210  10.761   6.130
   84POPC   C1B 1498  10.829  10.410   7.412
   84POPC   C2B 1499  10.797  10.704   7.077
   84POPC   C3B 1500  10.814  10.704   6.630
   84POPC   C4B 1501  10.627  10.466   6.257
   85POPC   NC3 1502   4.418   0.450   7.907
   85POPC   PO4 1503   4.051  11.466   8.197
   85POPC   GL1 1504   3.935   0.172   7.739
   85POPC   GL2 1505   3.993   0.533   7.645
   85POPC   C1A 1506   4.010   0.236   7.234
   85POPC   D2A 1507   3.917   0.487   6.829
   85POPC   C3A 1508   4.041   0.310   6.400
   85POPC   C4A 1509   4.145   0.386   5.963
   85POPC   C1B 1510   4.328   0.637   7.315
   85POPC   C2B 1511   4.417   0.484   6.927
   85POPC   C3B 1512   4.406   0.650   6.527
   85POPC   C4B 1513   4.610   0.554   6.190
   86POPC   NC3 1514   1.948   1.806   8.062
   86POPC   PO4 1515   1.995   2.489   7.857
   86POPC   GL1 1516   2.077   2.232   7.578
   86POPC   GL2 1517   1.959   1.877   7.552
   86POPC   C1A 1518   2.115   2.333   7.155
   86POPC   D2A 1519   1.988   2.054   6.839
   86POPC   C3A 1520   2.072   2.218   6.432
   86POPC   C4A 1521   1.878   2.443   6.123
   86POPC   C1B 1522   1.815   1.631   7.197
   86POPC   C2B 1523   1.947   1.529   6.758
   86POPC   C3B 1524   1.803   1.621   6.343
   86POPC   C4B 1525   1.928   1.892   6.013
   87POPC   NC3 1526   9.574   3.724   8.123
   87POPC   PO4 1527   9.818   3.158   8.243
   87POPC   GL1 1528   9.756   3.335   7.801
   87POPC   GL2 1529   9.468   3.153   7.822
   87POPC   C1A 1530   9.844   3.370   7.308
   87POPC   D2A 1531   9.838   3.711   6.908
   87POPC   C3A 1532   9.807   3.543   6.476
   87POPC   C4A 1533   9.817   3.128   6.486
   87POPC   C1B 1534   9.376   3.186   7.390
   87POPC   C2B 1535   9.464   3.361   6.959
   87POPC   C3B 1536   9.325   3.285   6.541
   87POPC   C4B 1537   9.350   3.446   6.153
   88POPC   NC3 1538   8.810   9.021   8.153
   88POPC   PO4 1539   9.252   8.465   8.070
   88POPC   GL1 1540   8.950   8.663   7.732
   88POPC   GL2 1541   8.872   9.046   7.654
   88POPC   C1A 1542   8.740   8.725   7.307
   88POPC   D2A 1543   8.851   8.847   6.882
   88POPC   C3A 1544   8.678   8.670   6.512
   88POPC   C4A 1545   8.436   8.830   6.165
   88POPC   C1B 1546   8.974   9.216   7.227
   88POPC   C2B 1547   8.779   9.334   6.801
   88POPC   C3B 1548   8.834   9.164   6.341
   88POPC   C4B 1549   9.159   9.098   5.973
   89POPC   NC3 1550   2.657   1.362   8.047
   89POPC   PO4 1551   2.308   0.757   8.139
   89POPC   GL1 1552   2.435   0.991   7.708
   89POPC   GL2 1553   2.739   1.221   7.587
   89POPC   C1A 1554   2.545   0.954   7.223
   89POPC   D2A 1555   2.828   0.849   6.873
   89POPC   C3A 1556   2.705   0.916   6.450
   89POPC   C4A 1557   2.419   0.861   6.163
   89POPC   C1B 1558   3.082   1.389   7.358
   89POPC   C2B 1559   3.148   1.278   6.921
   89POPC   C3B 1560   3.069   1.254   6.500
   89POPC   C4B 1561   2.706   1.417   6.261
   90POPC   NC3 1562   9.650   8.213   8.067
   90POPC   PO4 1563   9.405   7.672   8.014
   90POPC   GL1 1564   9.274   8.082   7.708
   90POPC   GL2 1565   9.506   8.377   7.632
   90POPC   C1A 1566   9.232   8.269   7.257
   90POPC   D2A 1567   9.508   8.157   6.940
   90POPC   C3A 1568   9.513   8.223   6.551
   90POPC   C4A 1569   9.434   7.979   6.207
   90POPC   C1B 1570   9.670   7.970   7.366
   90POPC   C2B 1571   9.886   7.806   6.915
   90POPC   C3B 1572   9.926   7.927   6.435
   90POPC   C4B 1573   9.845   8.354   6.207
   91POPC   NC3 1574   6.718   1.653   8.032
   91POPC   PO4 1575   7.062   2.222   7.956
   91POPC   GL1 1576   6.995   1.894   7.628
   91POPC   GL2 1577   6.609   1.798   7.572
   91POPC   C1A 1578   6.908   1.821   7.182
   91POPC   D2A 1579   6.768   2.065   6.832
   91POPC   C3A 1580   6.863   1.816   6.498
   91POPC   C4A 1581   6.736   1.675   6.160
   91POPC   C1B 1582   6.226   1.773   7.306
   91POPC   C2B 1583   6.120   1.925   6.895
   91POPC   C3B 1584   6.350   1.979   6.526
   91POPC   C4B 1585   6.213   2.308   6.240
   92POPC   NC3 1586   6.289   3.406   8.303
   92POPC   PO4 1587   6.619   3.000   8.157
   92POPC   GL1 1588   6.476   3.236   7.763
   92POPC   GL2 1589   6.493   3.585   7.844
   92POPC   C1A 1590   6.435   3.202   7.261
   92POPC   D2A 1591   6.652   3.204   6.835
   92POPC   C3A 1592   6.425   3.246   6.421
   92POPC   C4A 1593   6.486   3.191   5.957
   92POPC   C1B 1594   6.649   3.631   7.425
   92POPC   C2B 1595   6.473   3.666   7.000
   92POPC   C3B 1596   6.664   3.666   6.590
   92POPC   C4B 1597   6.534   3.694   6.156
   93POPC   NC3 1598   8.127   1.357   8.174
   93POPC   PO4 1599   7.816   0.770   7.972
   93POPC   GL1 1600   7.952   1.068   7.613
   93POPC   GL2 1601   8.274   1.246   7.629
   93POPC   C1A 1602   7.948   1.346   7.206
   93POPC   D2A 1603   7.645   1.364   6.834
   93POPC   C3A 1604   7.854   1.144   6.488
   93POPC   C4A 1605   7.948   1.112   6.024
   93POPC   C1B 1606   8.286   0.850   7.307
   93POPC   C2B 1607   8.349   0.777   6.835
   93POPC   C3B 1608   8.308   0.915   6.386
   93POPC   C4B 1609   8.313   1.375   6.281
   94POPC   NC3 1610   6.370  10.729   8.093
   94POPC   PO4 1611   6.637  10.018   8.109
   94POPC   GL1 1612   6.569  10.338   7.785
   94POPC   GL2 1613   6.899  10.460   7.604
   94POPC   C1A 1614   6.416  10.501   7.403
   94POPC   D2A 1615   6.508  10.562   6.921
   94POPC   C3A 1616   6.278  10.662   6.535
   94POPC   C4A 1617   6.243  10.597   6.051
   94POPC   C1B 1618   6.761  10.113   7.357
   94POPC   C2B 1619   6.671  10.031   6.928
   94POPC   C3B 1620   6.745  10.289   6.569
   94POPC   C4B 1621   6.467  10.195   6.294
   95POPC   NC3 1622   6.880   2.640   8.052
   95POPC   PO4 1623   7.566   2.682   8.209
   95POPC   GL1 1624   7.345   2.710   7.779
   95POPC   GL2 1625   7.388   2.427   7.607
   95POPC   C1A 1626   7.036   2.685   7.371
   95POPC   D2A 1627   7.077   2.465   6.932
   95POPC   C3A 1628   7.069   2.711   6.513
   95POPC   C4A 1629   6.908   3.089   6.257
   95POPC   C1B 1630   7.504   2.576   7.201
   95POPC   C2B 1631   7.573   2.345   6.841
   95POPC   C3B 1632   7.606   2.503   6.444
   95POPC   C4B 1633   7.446   2.843   6.168
   96POPC   NC3 1634  11.117   2.119   8.078
   96POPC   PO4 1635  11.436   1.508   8.017
   96POPC   GL1 1636  11.283   1.797   7.714
   96POPC   GL2 1637  11.348   1.552   7.483
   96POPC   C1A 1638  11.062   1.963   7.344
   96POPC   D2A 1639  11.068   1.769   6.935
   96POPC   C3A 1640  11.149   2.018   6.557
   96POPC   C4A 1641  11.165   1.844   6.145
   96POPC   C1B 1642   0.041   1.817   7.191
   96POPC   C2B 1643   0.041   1.769   6.768
   96POPC   C3B 1644   0.143   1.910   6.401
   96POPC   C4B 1645   0.260   1.524   6.269
   97POPC   NC3 1646   5.292   0.786   8.148
   97POPC   PO4 1647   5.069   1.368   8.005
   97POPC   GL1 1648   4.939   1.187   7.647
   97POPC   GL2 1649   5.206   1.014   7.563
   97POPC   C1A 1650   4.744   1.080   7.273
   97POPC   D2A 1651   4.672   0.919   6.865
   97POPC   C3A 1652   4.926   0.863   6.507
   97POPC   C4A 1653   4.732   1.057   6.157
   97POPC   C1B 1654   5.193   1.333   7.231
   97POPC   C2B 1655   5.026   1.324   6.825
   97POPC   C3B 1656   5.067   1.337   6.404
   97POPC   C4B 1657   5.324   1.420   6.082
   98POPC   NC3 1658   0.312   3.646   7.864
   98POPC   PO4 1659   0.313   3.053   8.254
   98POPC   GL1 1660   0.591   3.092   7.768
   98POPC   GL2 1661   0.801   3.387   7.712
   98POPC   C1A 1662   0.493   3.151   7.260
   98POPC   D2A 1663   0.080   3.211   6.991
   98POPC   C3A 1664   0.052   3.084   6.543
   98POPC   C4A 1665   0.349   3.225   6.196
   98POPC   C1B 1666   0.774   3.582   7.275
   98POPC   C2B 1667   0.568   3.553   6.840
   98POPC   C3B 1668   0.608   3.661   6.377
   98POPC   C4B 1669   0.568   3.611   5.900
   99POPC   NC3 1670  10.268   6.583   7.976
   99POPC   PO4 1671  10.736   7.064   7.780
   99POPC   GL1 1672  10.426   6.888   7.586
   99POPC   GL2 1673  10.622   6.577   7.607
   99POPC   C1A 1674  10.500   6.851   7.154
   99POPC   D2A 1675  10.489   6.692   6.725
   99POPC   C3A 1676  10.585   6.984   6.424
   99POPC   C4A 1677  10.326   7.038   6.103
   99POPC   C1B 1678  10.479   6.350   7.265
   99POPC   C2B 1679  10.344   6.213   6.873
   99POPC   C3B 1680  10.395   6.262   6.427
   99POPC   C4B 1681  10.196   6.146   6.042
  100POPC   NC3 1682  10.548   5.832   8.098
  100POPC   PO4 1683   9.954   6.199   7.979
  100POPC   GL1 1684  10.322   6.123   7.710
  100POPC   GL2 1685  10.217   5.788   7.696
  100POPC   C1A 1686  10.606   5.873   7.398
  100POPC   D2A 1687  10.795   5.648   7.062
  100POPC   C3A 1688  10.713   5.874   6.693
  100POPC   C4A 1689  10.703   5.875   6.265
  100POPC   C1B 1690  10.126   5.916   7.268
  100POPC   C2B 1691  10.270   5.713   6.889
  100POPC   C3B 1692  10.235   5.760   6.439
  100POPC   C4B 1693  10.309   5.650   5.984
  101POPC   NC3 1694  11.440   2.872   8.050
  101POPC   PO4 1695  10.818   3.148   8.242
  101POPC   GL1 1696  11.004   2.942   7.774
  101POPC   GL2 1697  11.289   2.849   7.579
  101POPC   C1A 1698  10.949   3.009   7.268
  101POPC   D2A 1699  11.216   2.827   6.972
  101POPC   C3A 1700  10.995   2.654   6.679
  101POPC   C4A 1701  11.116   2.692   6.314
  101POPC   C1B 1702  11.218   2.469   7.348
  101POPC   C2B 1703  11.385   2.280   6.970
  101POPC   C3B 1704   0.027   2.421   6.568
  101POPC   C4B 1705  11.382   2.294   6.161
  102POPC   NC3 1706   3.638   2.943   8.054
  102POPC   PO4 1707   3.141   2.453   8.052
  102POPC   GL1 1708   3.319   2.703   7.724
  102POPC   GL2 1709   3.664   2.560   7.667
  102POPC   C1A 1710   3.265   2.892   7.313
  102POPC   D2A 1711   3.116   2.793   6.882
  102POPC   C3A 1712   3.301   2.948   6.483
  102POPC   C4A 1713   3.290   2.863   6.016
  102POPC   C1B 1714   3.563   2.445   7.223
  102POPC   C2B 1715   3.628   2.610   6.783
  102POPC   C3B 1716   3.679   2.600   6.327
  102POPC   C4B 1717   3.606   2.464   5.906
  103POPC   NC3 1718   9.520   7.235   8.095
  103POPC   PO4 1719  10.153   7.015   8.103
  103POPC   GL1 1720   9.930   7.121   7.723
  103POPC   GL2 1721   9.848   7.488   7.733
  103POPC   C1A 1722   9.831   7.003   7.283
  103POPC   D2A 1723   9.751   7.250   6.876
  103POPC   C3A 1724   9.602   7.056   6.454
  103POPC   C4A 1725   9.761   6.959   6.025
  103POPC   C1B 1726   9.613   7.465   7.348
  103POPC   C2B 1727   9.426   7.634   6.980
  103POPC   C3B 1728   9.528   7.603   6.546
  103POPC   C4B 1729   9.272   7.401   6.253
  104POPC   NC3 1730   5.442  10.349   8.364
  104POPC   PO4 1731   5.896   9.765   8.175
  104POPC   GL1 1732   5.717  10.011   7.839
  104POPC   GL2 1733   5.833   9.716   7.662
  104POPC   C1A 1734   5.532  10.007   7.392
  104POPC   D2A 1735   5.776   9.925   6.994
  104POPC   C3A 1736   5.659   9.919   6.554
  104POPC   C4A 1737   5.517   9.810   6.107
  104POPC   C1B 1738   5.684   9.515   7.278
  104POPC   C2B 1739   5.792   9.449   6.839
  104POPC   C3B 1740   5.720   9.429   6.398
  104POPC   C4B 1741   6.043   9.323   6.106
  105POPC   NC3 1742   2.000  11.369   8.150
  105POPC   PO4 1743   1.741  10.785   8.060
  105POPC   GL1 1744   1.768  11.110   7.722
  105POPC   GL2 1745   2.080  11.310   7.662
  105POPC   C1A 1746   1.871  11.074   7.282
  105POPC   D2A 1747   1.701  11.121   6.902
  105POPC   C3A 1748   1.968  11.078   6.551
  105POPC   C4A 1749   1.951  10.901   6.154
  105POPC   C1B 1750   2.289  11.443   7.300
  105POPC   C2B 1751   2.135  11.398   6.896
  105POPC   C3B 1752   2.350  11.440   6.492
  105POPC   C4B 1753   2.108  11.379   6.135
  106POPC   NC3 1754   4.243  10.035   8.000
  106POPC   PO4 1755   4.743   9.536   8.063
  106POPC   GL1 1756   4.537   9.730   7.714
  106POPC   GL2 1757   4.193   9.585   7.694
  106POPC   C1A 1758   4.466   9.773   7.267
  106POPC   D2A 1759   4.302   9.595   6.870
  106POPC   C3A 1760   4.369   9.888   6.525
  106POPC   C4A 1761   4.631   9.880   6.184
  106POPC   C1B 1762   3.952   9.636   7.298
  106POPC   C2B 1763   3.809   9.457   6.887
  106POPC   C3B 1764   3.925   9.617   6.459
  106POPC   C4B 1765   4.224   9.595   6.099
  107POPC   NC3 1766   2.676   9.521   8.051
  107POPC   PO4 1767   2.286   9.998   7.870
  107POPC   GL1 1768   2.659   9.809   7.625
  107POPC   GL2 1769   3.027   9.690   7.699
  107POPC   C1A 1770   2.803   9.909   7.238
  107POPC   D2A 1771   2.757   9.961   6.813
  107POPC   C3A 1772   2.416   9.838   6.658
  107POPC   C4A 1773   2.571   9.649   6.339
  107POPC   C1B 1774   2.966   9.427   7.321
  107POPC   C2B 1775   2.825   9.467   6.903
  107POPC   C3B 1776   3.029   9.550   6.520
  107POPC   C4B 1777   2.914   9.341   6.109
  108POPC   NC3 1778   6.896   8.699   8.054
  108POPC   PO4 1779   7.613   8.571   8.059
  108POPC   GL1 1780   7.531   8.890   7.734
  108POPC   GL2 1781   7.182   8.980   7.706
  108POPC   C1A 1782   7.507   8.862   7.275
  108POPC   D2A 1783   7.403   8.706   6.851
  108POPC   C3A 1784   7.633   8.776   6.491
  108POPC   C4A 1785   7.412   8.651   6.149
  108POPC   C1B 1786   7.124   9.224   7.324
  108POPC   C2B 1787   7.311   9.197   6.895
  108POPC   C3B 1788   7.178   9.015   6.476
  108POPC   C4B 1789   7.311   9.147   6.047
  109POPC   NC3 1790  10.506   2.889   7.894
  109POPC   PO4 1791  10.738   2.232   7.856
  109POPC   GL1 1792  10.486   2.465   7.577
  109POPC   GL2 1793  10.121   2.397   7.452
  109POPC   C1A 1794  10.723   2.543   7.225
  109POPC   D2A 1795  10.873   2.241   6.940
  109POPC   C3A 1796  10.690   2.249   6.522
  109POPC   C4A 1797  10.457   2.566   6.358
  109POPC   C1B 1798  10.253   2.781   7.224
  109POPC   C2B 1799  10.578   2.894   6.895
  109POPC   C3B 1800  10.622   3.013   6.487
  109POPC   C4B 1801  10.268   3.116   6.223
  110POPC   NC3 1802   9.654   8.788   8.056
  110POPC   PO4 1803   9.280   9.286   7.857
  110POPC   GL1 1804   9.387   8.901   7.634
  110POPC   GL2 1805   9.737   8.830   7.553
  110POPC   C1A 1806   9.280   8.785   7.211
  110POPC   D2A 1807   9.331   9.028   6.825
  110POPC   C3A 1808   9.197   8.827   6.453
  110POPC   C4A 1809   9.410   8.649   6.109
  110POPC   C1B 1810   9.734   8.527   7.219
  110POPC   C2B 1811   9.892   8.474   6.805
  110POPC   C3B 1812   9.699   8.715   6.532
  110POPC   C4B 1813   9.902   8.850   6.178
  111POPC   NC3 1814   3.105  10.422   8.132
  111POPC   PO4 1815   2.561  10.748   8.073
  111POPC   GL1 1816   2.837  10.652   7.749
  111POPC   GL2 1817   2.745  10.301   7.769
  111POPC   C1A 1818   3.021  10.722   7.356
  111POPC   D2A 1819   2.764  10.778   6.981
  111POPC   C3A 1820   2.975  10.736   6.604
  111POPC   C4A 1821   2.800  10.630   6.228
  111POPC   C1B 1822   2.608  10.396   7.351
  111POPC   C2B 1823   2.388  10.410   6.977
  111POPC   C3B 1824   2.555  10.386   6.607
  111POPC   C4B 1825   2.574  10.141   6.258
  112POPC   NC3 1826   7.825  11.118   8.008
  112POPC   PO4 1827   8.457  10.889   7.980
  112POPC   GL1 1828   8.236  11.146   7.660
  112POPC   GL2 1829   7.927  11.368   7.595
  112POPC   C1A 1830   8.179  10.993   7.251
  112POPC   D2A 1831   8.419  10.780   6.953
  112POPC   C3A 1832   8.435  10.995   6.613
  112POPC   C4A 1833   8.479  11.094   6.214
  112POPC   C1B 1834   8.060   0.002   7.248
  112POPC   C2B 1835   8.022  11.318   6.881
  112POPC   C3B 1836   8.143  11.388   6.481
  112POPC   C4B 1837   7.978  11.150   6.144
  113POPC   NC3 1838   2.414   2.331   7.996
  113POPC   PO4 1839   2.489   1.730   8.281
  113POPC   GL1 1840   2.629   1.906   7.817
  113POPC   GL2 1841   2.884   2.078   7.830
  113POPC   C1A 1842   2.436   1.965   7.356
  113POPC   D2A 1843   2.494   2.009   6.919
  113POPC   C3A 1844   2.348   1.785   6.522
  113POPC   C4A 1845   2.423   1.949   6.104
  113POPC   C1B 1846   2.931   1.946   7.387
  113POPC   C2B 1847   3.032   2.001   6.945
  113POPC   C3B 1848   3.099   2.193   6.552
  113POPC   C4B 1849   2.919   1.954   6.210
  114POPC   NC3 1850   4.406   9.215   8.052
  114POPC   PO4 1851   3.793   9.224   8.062
  114POPC   GL1 1852   3.863   9.172   7.623
  114POPC   GL2 1853   4.096   8.929   7.691
  114POPC   C1A 1854   4.106   9.167   7.216
  114POPC   D2A 1855   4.084   8.994   6.791
  114POPC   C3A 1856   4.213   9.181   6.389
  114POPC   C4A 1857   4.278   9.126   5.917
  114POPC   C1B 1858   4.366   8.748   7.372
  114POPC   C2B 1859   4.548   8.767   6.961
  114POPC   C3B 1860   4.560   8.832   6.509
  114POPC   C4B 1861   4.278   8.691   6.169
  115POPC   NC3 1862  11.009   1.386   7.850
  115POPC   PO4 1863  10.523   1.722   8.134
  115POPC   GL1 1864  10.653   1.739   7.695
  115POPC   GL2 1865  10.370   1.874   7.558
  115POPC   C1A 1866  10.670   1.613   7.234
  115POPC   D2A 1867  10.582   1.825   6.805
  115POPC   C3A 1868  10.739   1.713   6.419
  115POPC   C4A 1869  10.680   1.857   5.979
  115POPC   C1B 1870  10.474   2.092   7.228
  115POPC   C2B 1871  10.350   2.365   6.915
  115POPC   C3B 1872  10.124   2.264   6.570
  115POPC   C4B 1873  10.307   1.974   6.291
  116POPC   NC3 1874  10.937   6.752   8.044
  116POPC   PO4 1875  11.471   6.367   8.017
  116POPC   GL1 1876  11.415   6.402   7.645
  116POPC   GL2 1877  11.273   6.741   7.665
  116POPC   C1A 1878   0.032   6.252   7.260
  116POPC   D2A 1879  11.275   6.323   6.892
  116POPC   C3A 1880  11.489   6.219   6.579
  116POPC   C4A 1881   0.065   6.366   6.209
  116POPC   C1B 1882  11.055   6.562   7.331
  116POPC   C2B 1883  10.945   6.700   6.949
  116POPC   C3B 1884  11.028   6.754   6.531
  116POPC   C4B 1885  11.212   6.711   6.136
  117POPC   NC3 1886   2.143  10.436   7.954
  117POPC   PO4 1887   1.560   9.938   8.014
  117POPC   GL1 1888   1.546  10.197   7.628
  117POPC   GL2 1889   1.695  10.522   7.633
  117POPC   C1A 1890   1.680  10.189   7.193
  117POPC   D2A 1891   2.018  10.058   6.907
  117POPC   C3A 1892   2.031  10.114   6.455
  117POPC   C4A 1893   1.813  10.386   6.159
  117POPC   C1B 1894   1.997  10.574   7.307
  117POPC   C2B 1895   1.842  10.597   6.898
  117POPC   C3B 1896   2.061  10.588   6.564
  117POPC   C4B 1897   2.291  10.542   6.193
  118POPC   NC3 1898   2.790   0.507   8.093
  118POPC   PO4 1899   2.248   0.191   7.960
  118POPC   GL1 1900   2.436   0.465   7.709
  118POPC   GL2 1901   2.728   0.276   7.636
  118POPC   C1A 1902   2.403   0.476   7.275
  118POPC   D2A 1903   2.437   0.287   6.898
  118POPC   C3A 1904   2.456   0.481   6.533
  118POPC   C4A 1905   2.297   0.362   6.153
  118POPC   C1B 1906   2.826   0.160   7.214
  118POPC   C2B 1907   2.935   0.265   6.785
  118POPC   C3B 1908   2.862   0.188   6.366
  118POPC   C4B 1909   3.098   0.153   5.990
  119POPC   NC3 1910   2.935  11.018   8.104
  119POPC   PO4 1911   3.069   0.110   8.080
  119POPC   GL1 1912   2.966  11.327   7.704
  119POPC   GL2 1913   2.594  11.223   7.748
  119POPC   C1A 1914   2.811  11.174   7.298
  119POPC   D2A 1915   2.623  11.285   6.915
  119POPC   C3A 1916   2.827  11.223   6.549
  119POPC   C4A 1917   2.946  11.168   6.147
  119POPC   C1B 1918   2.379  10.929   7.424
  119POPC   C2B 1919   2.257  10.907   6.977
  119POPC   C3B 1920   2.455  10.894   6.577
  119POPC   C4B 1921   2.469  11.022   6.165
  120POPC   NC3 1922   1.523  10.386   8.118
  120POPC   PO4 1923   0.941  10.715   8.124
  120POPC   GL1 1924   1.203  10.628   7.787
  120POPC   GL2 1925   1.033  10.329   7.729
  120POPC   C1A 1926   1.119  10.706   7.351
  120POPC   D2A 1927   0.872  10.565   6.975
  120POPC   C3A 1928   1.107  10.607   6.565
  120POPC   C4A 1929   1.550  10.706   6.439
  120POPC   C1B 1930   1.123  10.190   7.309
  120POPC   C2B 1931   1.263  10.243   6.916
  120POPC   C3B 1932   1.558  10.211   6.630
  120POPC   C4B 1933   1.345  10.198   6.257
  121POPC   NC3 1934   9.815   1.196   8.159
  121POPC   PO4 1935   9.163   1.360   7.977
  121POPC   GL1 1936   9.443   1.104   7.707
  121POPC   GL2 1937   9.789   1.215   7.641
  121POPC   C1A 1938   9.569   0.853   7.342
  121POPC   D2A 1939   9.578   0.994   6.908
  121POPC   C3A 1940   9.313   1.054   6.577
  121POPC   C4A 1941   9.531   0.931   6.219
  121POPC   C1B 1942   9.665   1.373   7.254
  121POPC   C2B 1943   9.784   1.483   6.860
  121POPC   C3B 1944   9.698   1.367   6.446
  121POPC   C4B 1945   9.987   1.171   6.157
  122POPC   NC3 1946   9.900   0.368   8.145
  122POPC   PO4 1947   9.480   0.877   8.163
  122POPC   GL1 1948   9.779   0.745   7.836
  122POPC   GL2 1949   9.576   0.467   7.752
  122POPC   C1A 1950   9.990   0.542   7.460
  122POPC   D2A 1951  10.044   0.329   7.053
  122POPC   C3A 1952   9.820   0.536   6.710
  122POPC   C4A 1953   9.997   0.686   6.327
  122POPC   C1B 1954   9.439   0.334   7.361
  122POPC   C2B 1955   9.355   0.506   6.977
  122POPC   C3B 1956   9.332   0.328   6.574
  122POPC   C4B 1957   9.593   0.413   6.233
  123POPC   NC3 1958   5.057  11.423   8.351
  123POPC   PO4 1959   5.558  11.488   7.875
  123POPC   GL1 1960   5.309  11.239   7.588
  123POPC   GL2 1961   4.972  11.140   7.756
  123POPC   C1A 1962   5.262  11.353   7.148
  123POPC   D2A 1963   5.237   0.031   6.738
  123POPC   C3A 1964   5.158  11.245   6.422
  123POPC   C4A 1965   5.442  11.037   6.163
  123POPC   C1B 1966   4.810  11.214   7.363
  123POPC   C2B 1967   4.810  11.190   6.928
  123POPC   C3B 1968   4.699  11.406   6.600
  123POPC   C4B 1969   4.676  11.362   6.187
  124POPC   NC3 1970   0.366   9.177   8.287
  124POPC   PO4 1971   0.512   8.566   8.110
  124POPC   GL1 1972   0.498   8.786   7.704
  124POPC   GL2 1973   0.164   8.946   7.677
  124POPC   C1A 1974   0.549   8.912   7.259
  124POPC   D2A 1975   0.339   9.045   6.886
  124POPC   C3A 1976   0.624   8.911   6.567
  124POPC   C4A 1977   0.678   8.538   6.343
  124POPC   C1B 1978   0.137   8.637   7.325
  124POPC   C2B 1979   0.190   8.539   6.869
  124POPC   C3B 1980   0.198   8.637   6.416
  124POPC   C4B 1981   0.342   9.028   6.152
  125POPC   NC3 1982   4.186   0.389   8.364
  125POPC   PO4 1983   3.591   0.529   8.244
  125POPC   GL1 1984   3.491   0.511   7.774
  125POPC   GL2 1985   3.263   0.254   7.621
  125POPC   C1A 1986   3.591   0.503   7.301
  125POPC   D2A 1987   3.522   0.190   6.953
  125POPC   C3A 1988   3.531   0.332   6.499
  125POPC   C4A 1989   3.622   0.224   6.057
  125POPC   C1B 1990   3.091   0.572   7.303
  125POPC   C2B 1991   3.283   0.638   6.865
  125POPC   C3B 1992   3.126   0.631   6.408
  125POPC   C4B 1993   3.301   0.634   5.974
  126POPC   NC3 1994   0.895   8.836   8.065
  126POPC   PO4 1995   1.438   8.650   8.479
  126POPC   GL1 1996   1.440   8.742   7.929
  126POPC   GL2 1997   1.234   9.035   7.749
  126POPC   C1A 1998   1.536   8.793   7.404
  126POPC   D2A 1999   1.678   8.805   6.938
  126POPC   C3A 2000   1.736   9.098   6.606
  126POPC   C4A 2001   1.555   9.030   6.195
  126POPC   C1B 2002   1.027   8.803   7.390
  126POPC   C2B 2003   0.967   8.975   6.977
  126POPC   C3B 2004   1.192   8.932   6.628
  126POPC   C4B 2005   1.094   8.823   6.253
  127POPC   NC3 2006   9.670  10.518   7.909
  127POPC   PO4 2007   9.181  10.228   8.176
  127POPC   GL1 2008   9.379  10.160   7.678
  127POPC   GL2 2009   9.762  10.206   7.523
  127POPC   C1A 2010   9.419  10.189   7.176
  127POPC   D2A 2011   9.437   9.981   6.786
  127POPC   C3A 2012   9.412  10.263   6.426
  127POPC   C4A 2013   9.387  10.195   5.979
  127POPC   C1B 2014   9.808  10.533   7.206
  127POPC   C2B 2015   9.755  10.510   6.759
  127POPC   C3B 2016   9.805  10.546   6.325
  127POPC   C4B 2017   9.885  10.307   5.998
  128POPC   NC3 2018   3.440   8.973   7.909
  128POPC   PO4 2019   2.965   8.480   7.893
  128POPC   GL1 2020   3.252   8.679   7.534
  128POPC   GL2 2021   3.644   8.681   7.546
  128POPC   C1A 2022   3.131   8.791   7.099
  128POPC   D2A 2023   3.184   8.480   6.759
  128POPC   C3A 2024   3.243   8.678   6.406
  128POPC   C4A 2025   3.070   9.050   6.509
  128POPC   C1B 2026   3.620   8.971   7.198
  128POPC   C2B 2027   3.550   8.898   6.768
  128POPC   C3B 2028   3.767   8.861   6.390
  128POPC   C4B 2029   3.794   8.765   5.971
  129POPC   NC3 2030  10.530   0.701   8.340
  129POPC   PO4 2031  10.305   0.222   7.986
  129POPC   GL1 2032  10.494   0.321   7.627
  129POPC   GL2 2033  10.562   0.657   7.668
  129POPC   C1A 2034  10.506   0.116   7.201
  129POPC   D2A 2035  10.484   0.115   6.750
  129POPC   C3A 2036  10.130   0.168   6.494
  129POPC   C4A 2037  10.193   0.285   6.056
  129POPC   C1B 2038  10.435   0.624   7.219
  129POPC   C2B 2039  10.330   0.645   6.790
  129POPC   C3B 2040  10.475   0.529   6.428
  129POPC   C4B 2041  10.770   0.628   6.188
  130POPC   NC3 2042   2.505   7.149   8.073
  130POPC   PO4 2043   2.574   7.698   7.923
  130POPC   GL1 2044   2.556   7.369   7.593
  130POPC   GL2 2045   2.314   7.064   7.602
  130POPC   C1A 2046   2.627   7.524   7.173
  130POPC   D2A 2047   2.642   7.976   7.026
  130POPC   C3A 2048   2.627   7.966   6.585
  130POPC   C4A 2049   2.709   7.558   6.386
  130POPC   C1B 2050   2.303   7.082   7.129
  130POPC   C2B 2051   2.517   7.213   6.755
  130POPC   C3B 2052   2.592   7.037   6.340
  130POPC   C4B 2053   2.613   6.898   5.869
  131POPC   NC3 2054   1.111   1.868   8.075
  131POPC   PO4 2055   1.681   2.282   8.225
  131POPC   GL1 2056   1.572   2.099   7.807
  131POPC   GL2 2057   1.232   2.222   7.715
  131POPC   C1A 2058   1.599   2.184   7.338
  131POPC   D2A 2059   1.369   2.184   6.945
  131POPC   C3A 2060   1.551   1.998   6.586
  131POPC   C4A 2061   1.486   2.084   6.170
  131POPC   C1B 2062   1.043   2.023   7.345
  131POPC   C2B 2063   0.909   1.947   6.915
  131POPC   C3B 2064   1.031   2.070   6.488
  131POPC   C4B 2065   1.048   1.855   6.081
  132POPC   NC3 2066   5.191   9.683   8.098
  132POPC   PO4 2067   5.034  10.270   8.129
  132POPC   GL1 2068   5.014  10.023   7.712
  132POPC   GL2 2069   5.040   9.654   7.611
  132POPC   C1A 2070   4.981  10.012   7.260
  132POPC   D2A 2071   5.275   9.852   6.971
  132POPC   C3A 2072   5.055   9.617   6.683
  132POPC   C4A 2073   5.095   9.602   6.281
  132POPC   C1B 2074   5.002   9.452   7.179
  132POPC   C2B 2075   4.845   9.166   6.818
  132POPC   C3B 2076   5.018   9.083   6.392
  132POPC   C4B 2077   5.154   9.212   5.940
  133POPC   NC3 2078   5.801   1.605   8.045
  133POPC   PO4 2079   5.747   0.931   8.147
  133POPC   GL1 2080   5.960   1.156   7.817
  133POPC   GL2 2081   5.644   1.263   7.673
  133POPC   C1A 2082   6.068   1.288   7.379
  133POPC   D2A 2083   6.068   1.419   6.926
  133POPC   C3A 2084   5.914   1.237   6.554
  133POPC   C4A 2085   6.107   0.979   6.261
  133POPC   C1B 2086   5.623   1.033   7.273
  133POPC   C2B 2087   5.525   1.107   6.877
  133POPC   C3B 2088   5.452   1.016   6.476
  133POPC   C4B 2089   5.626   1.006   6.078
  134POPC   NC3 2090   9.496   9.576   8.148
  134POPC   PO4 2091   9.891  10.084   7.991
  134POPC   GL1 2092   9.680   9.741   7.705
  134POPC   GL2 2093   9.750   9.377   7.697
  134POPC   C1A 2094   9.728   9.730   7.265
  134POPC   D2A 2095   9.812   9.490   6.932
  134POPC   C3A 2096   9.726   9.634   6.542
  134POPC   C4A 2097   9.726   9.879   6.201
  134POPC   C1B 2098   9.578   9.213   7.284
  134POPC   C2B 2099   9.821   8.973   6.976
  134POPC   C3B 2100   9.935   9.161   6.575
  134POPC   C4B 2101   9.550   9.194   6.312
  135POPC   NC3 2102   8.761   1.533   7.824
  135POPC   PO4 2103   8.491   1.021   8.114
  135POPC   GL1 2104   8.648   0.907   7.684
  135POPC   GL2 2105   8.927   1.083   7.640
  135POPC   C1A 2106   8.654   1.176   7.242
  135POPC   D2A 2107   8.872   1.164   6.856
  135POPC   C3A 2108   8.792   1.109   6.416
  135POPC   C4A 2109   8.736   1.313   6.017
  135POPC   C1B 2110   9.182   1.208   7.272
  135POPC   C2B 2111   9.270   1.471   6.904
  135POPC   C3B 2112   8.963   1.587   6.585
  135POPC   C4B 2113   9.171   1.443   6.255
  136POPC   NC3 2114   9.016   0.902   8.115
  136POPC   PO4 2115   8.684   0.322   7.985
  136POPC   GL1 2116   9.030   0.513   7.795
  136POPC   GL2 2117   9.141   0.198   7.769
  136POPC   C1A 2118   9.088   0.695   7.400
  136POPC   D2A 2119   8.798   0.698   7.083
  136POPC   C3A 2120   8.977   0.695   6.680
  136POPC   C4A 2121   9.102   0.671   6.261
  136POPC   C1B 2122   8.925   0.220   7.368
  136POPC   C2B 2123   8.922   0.210   6.942
  136POPC   C3B 2124   8.618   0.362   6.676
  136POPC   C4B 2125   8.698   0.349   6.227
  137POPC   NC3 2126   3.605   1.048   8.098
  137POPC   PO4 2127   2.893   0.954   8.003
  137POPC   GL1 2128   3.241   0.976   7.678
  137POPC   GL2 2129   3.513   1.250   7.634
  137POPC   C1A 2130   3.390   0.975   7.245
  137POPC   D2A 2131   3.635   1.074   6.907
  137POPC   C3A 2132   3.493   0.953   6.526
  137POPC   C4A 2133   3.465   1.157   6.173
  137POPC   C1B 2134   3.769   1.412   7.292
  137POPC   C2B 2135   4.005   1.427   6.866
  137POPC   C3B 2136   3.777   1.395   6.493
  137POPC   C4B 2137   3.689   1.667   6.155
  138POPC   NC3 2138   3.753  10.462   8.260
  138POPC   PO4 2139   4.234  10.616   7.848
  138POPC   GL1 2140   3.835  10.409   7.688
  138POPC   GL2 2141   3.464  10.457   7.775
  138POPC   C1A 2142   3.587  10.463   7.284
  138POPC   D2A 2143   3.504  10.250   6.886
  138POPC   C3A 2144   3.570  10.494   6.522
  138POPC   C4A 2145   3.861  10.734   6.251
  138POPC   C1B 2146   3.148  10.240   7.459
  138POPC   C2B 2147   3.020  10.333   7.001
  138POPC   C3B 2148   3.073  10.242   6.518
  138POPC   C4B 2149   3.275  10.426   6.124
  139POPC   NC3 2150  11.264  10.248   8.500
  139POPC   PO4 2151  10.843  10.183   8.048
  139POPC   GL1 2152  11.197  10.105   7.730
  139POPC   GL2 2153  11.349  10.420   7.690
  139POPC   C1A 2154  11.269  10.144   7.254
  139POPC   D2A 2155  10.936  10.233   6.929
  139POPC   C3A 2156  10.941  10.101   6.490
  139POPC   C4A 2157  10.971  10.188   6.016
  139POPC   C1B 2158  11.275  10.670   7.304
  139POPC   C2B 2159  11.327  10.570   6.872
  139POPC   C3B 2160  11.272  10.472   6.452
  139POPC   C4B 2161  11.407  10.100   6.252
  140POPC   NC3 2162   3.370   2.060   8.106
  140POPC   PO4 2163   3.439   1.498   8.071
  140POPC   GL1 2164   3.312   1.765   7.683
  140POPC   GL2 2165   3.326   2.172   7.611
  140POPC   C1A 2166   3.392   1.784   7.239
  140POPC   D2A 2167   3.517   1.603   6.872
  140POPC   C3A 2168   3.300   1.703   6.492
  140POPC   C4A 2169   3.167   1.539   6.071
  140POPC   C1B 2170   3.733   2.032   7.514
  140POPC   C2B 2171   3.890   1.865   7.109
  140POPC   C3B 2172   3.801   1.935   6.621
  140POPC   C4B 2173   3.516   2.116   6.271
  141POPC   NC3 2174   2.811   3.778   7.993
  141POPC   PO4 2175   3.233   3.226   8.065
  141POPC   GL1 2176   2.975   3.174   7.717
  141POPC   GL2 2177   2.622   3.321   7.699
  141POPC   C1A 2178   3.039   3.378   7.332
  141POPC   D2A 2179   3.260   3.287   6.944
  141POPC   C3A 2180   3.044   3.406   6.568
  141POPC   C4A 2181   2.992   3.250   6.158
  141POPC   C1B 2182   2.461   3.497   7.287
  141POPC   C2B 2183   2.298   3.468   6.837
  141POPC   C3B 2184   2.508   3.436   6.411
  141POPC   C4B 2185   2.823   3.765   6.252
  142POPC   NC3 2186   8.795   9.996   8.076
  142POPC   PO4 2187   9.116   9.418   8.346
  142POPC   GL1 2188   9.128   9.737   7.849
  142POPC   GL2 2189   8.862   9.577   7.641
  142POPC   C1A 2190   9.237   9.766   7.381
  142POPC   D2A 2191   9.305   9.523   6.997
  142POPC   C3A 2192   9.220   9.470   6.576
  142POPC   C4A 2193   9.257   9.796   6.329
  142POPC   C1B 2194   8.778   9.717   7.180
  142POPC   C2B 2195   8.919   9.823   6.783
  142POPC   C3B 2196   8.779   9.685   6.370
  142POPC   C4B 2197   8.477   9.915   6.119
  143POPC   NC3 2198   7.204  10.943   8.206
  143POPC   PO4 2199   7.471  11.384   7.831
  143POPC   GL1 2200   7.467  11.061   7.620
  143POPC   GL2 2201   7.135  10.949   7.682
  143POPC   C1A 2202   7.639  11.192   7.215
  143POPC   D2A 2203   7.567   0.024   6.915
  143POPC   C3A 2204   7.628  11.341   6.526
  143POPC   C4A 2205   7.467  11.297   6.140
  143POPC   C1B 2206   7.128  11.171   7.261
  143POPC   C2B 2207   7.278  11.109   6.867
  143POPC   C3B 2208   7.219  11.000   6.485
  143POPC   C4B 2209   6.979  11.159   6.141
  144POPC   NC3 2210   8.640   2.415   8.022
  144POPC   PO4 2211   9.107   2.886   8.149
  144POPC   GL1 2212   9.094   2.819   7.725
  144POPC   GL2 2213   8.758   2.829   7.721
  144POPC   C1A 2214   9.146   2.731   7.290
  144POPC   D2A 2215   8.876   2.634   6.891
  144POPC   C3A 2216   9.024   2.661   6.464
  144POPC   C4A 2217   9.035   3.020   6.174
  144POPC   C1B 2218   8.639   2.620   7.348
  144POPC   C2B 2219   8.399   2.486   6.977
  144POPC   C3B 2220   8.517   2.508   6.561
  144POPC   C4B 2221   8.579   2.776   6.209
  145POPC   NC3 2222  11.336   1.026   8.357
  145POPC   PO4 2223  10.748   1.006   8.014
  145POPC   GL1 2224  11.030   0.899   7.693
  145POPC   GL2 2225  11.391   1.040   7.727
  145POPC   C1A 2226  10.854   0.907   7.281
  145POPC   D2A 2227  10.692   1.001   6.885
  145POPC   C3A 2228  11.002   0.847   6.597
  145POPC   C4A 2229  11.098   1.009   6.212
  145POPC   C1B 2230  11.324   1.081   7.279
  145POPC   C2B 2231  11.209   1.258   6.865
  145POPC   C3B 2232  11.267   1.445   6.441
  145POPC   C4B 2233  11.392   1.387   5.974
  146POPC   NC3 2234   5.098   0.115   7.872
  146POPC   PO4 2235   4.777   0.709   8.046
  146POPC   GL1 2236   4.765   0.705   7.626
  146POPC   GL2 2237   5.056   0.548   7.647
  146POPC   C1A 2238   4.839   0.577   7.209
  146POPC   D2A 2239   4.842   0.199   7.028
  146POPC   C3A 2240   4.852   0.379   6.638
  146POPC   C4A 2241   4.992   0.231   6.268
  146POPC   C1B 2242   5.296   0.377   7.312
  146POPC   C2B 2243   5.429   0.613   6.992
  146POPC   C3B 2244   5.373   0.507   6.592
  146POPC   C4B 2245   5.293   0.623   6.204
  147POPC   NC3 2246   5.220   7.671   8.529
  147POPC   PO4 2247   5.289   7.792   8.078
  147POPC   GL1 2248   5.174   7.840   7.609
  147POPC   GL2 2249   4.948   8.127   7.506
  147POPC   C1A 2250   5.212   7.900   7.133
  147POPC   D2A 2251   5.024   8.112   6.761
  147POPC   C3A 2252   5.246   8.112   6.367
  147POPC   C4A 2253   4.994   8.044   5.995
  147POPC   C1B 2254   5.064   8.436   7.157
  147POPC   C2B 2255   4.993   8.639   6.740
  147POPC   C3B 2256   4.928   8.516   6.322
  147POPC   C4B 2257   5.144   8.558   5.927
  148POPC   NC3 2258   0.777  11.141   8.173
  148POPC   PO4 2259   0.169  11.350   8.079
  148POPC   GL1 2260   0.214  11.459   7.666
  148POPC   GL2 2261   0.541  11.322   7.702
  148POPC   C1A 2262   0.213  11.236   7.253
  148POPC   D2A 2263   0.145  10.995   6.856
  148POPC   C3A 2264   0.250  11.219   6.494
  148POPC   C4A 2265   0.234  11.422   6.088
  148POPC   C1B 2266   0.599  10.934   7.417
  148POPC   C2B 2267   0.633  11.012   6.964
  148POPC   C3B 2268   0.625  10.828   6.547
  148POPC   C4B 2269   0.596  11.059   6.168
  149POPC   NC3 2270   0.853   5.542   7.681
  149POPC   PO4 2271   0.971   4.971   7.986
  149POPC   GL1 2272   1.063   5.096   7.599
  149POPC   GL2 2273   1.374   5.155   7.644
  149POPC   C1A 2274   1.143   5.192   7.173
  149POPC   D2A 2275   0.973   5.012   6.845
  149POPC   C3A 2276   0.923   5.371   6.662
  149POPC   C4A 2277   1.033   5.260   6.279
  149POPC   C1B 2278   1.517   4.889   7.337
  149POPC   C2B 2279   1.445   4.802   6.941
  149POPC   C3B 2280   1.410   5.056   6.584
  149POPC   C4B 2281   1.336   4.882   6.193
  150POPC   NC3 2282   1.081   4.215   8.022
  150POPC   PO4 2283   1.661   4.662   7.918
  150POPC   GL1 2284   1.258   4.623   7.698
  150POPC   GL2 2285   1.163   4.305   7.539
  150POPC   C1A 2286   1.045   4.703   7.277
  150POPC   D2A 2287   1.058   4.436   6.929
  150POPC   C3A 2288   1.272   4.516   6.552
  150POPC   C4A 2289   1.172   4.398   6.128
  150POPC   C1B 2290   0.870   4.101   7.285
  150POPC   C2B 2291   0.891   3.957   6.863
  150POPC   C3B 2292   0.811   4.167   6.460
  150POPC   C4B 2293   0.872   3.988   6.041
  151POPC   NC3 2294   0.424   0.986   7.902
  151POPC   PO4 2295   0.810   1.499   8.102
  151POPC   GL1 2296   0.694   1.407   7.708
  151POPC   GL2 2297   0.330   1.444   7.645
  151POPC   C1A 2298   0.779   1.344   7.295
  151POPC   D2A 2299   0.689   1.062   6.920
  151POPC   C3A 2300   0.594   1.252   6.544
  151POPC   C4A 2301   0.792   1.415   6.147
  151POPC   C1B 2302   0.318   1.151   7.272
  151POPC   C2B 2303   0.161   0.981   6.869
  151POPC   C3B 2304   0.090   1.012   6.427
  151POPC   C4B 2305   0.405   1.070   6.106
  152POPC   NC3 2306   0.399   1.795   8.052
  152POPC   PO4 2307  11.492   2.397   8.089
  152POPC   GL1 2308   0.049   2.242   7.653
  152POPC   GL2 2309   0.260   1.974   7.621
  152POPC   C1A 2310   0.315   2.291   7.251
  152POPC   D2A 2311   0.404   2.088   6.890
  152POPC   C3A 2312   0.531   2.249   6.534
  152POPC   C4A 2313   0.376   2.329   6.159
  152POPC   C1B 2314   0.551   1.809   7.324
  152POPC   C2B 2315   0.513   1.588   6.927
  152POPC   C3B 2316   0.642   1.750   6.519
  152POPC   C4B 2317   0.559   1.878   6.081
  153POPC   NC3 2318   9.481   6.291   8.036
  153POPC   PO4 2319   9.247   6.880   8.170
  153POPC   GL1 2320   9.465   6.748   7.760
  153POPC   GL2 2321   9.798   6.621   7.737
  153POPC   C1A 2322   9.486   6.568   7.301
  153POPC   D2A 2323   9.574   6.753   6.867
  153POPC   C3A 2324   9.500   6.551   6.438
  153POPC   C4A 2325   9.179   6.270   6.293
  153POPC   C1B 2326   9.984   6.453   7.376
  153POPC   C2B 2327  10.058   6.631   7.010
  153POPC   C3B 2328   9.963   6.481   6.644
  153POPC   C4B 2329  10.047   6.629   6.278
  154POPC   NC3 2330   2.625   8.774   8.051
  154POPC   PO4 2331   3.091   9.287   8.053
  154POPC   GL1 2332   2.769   9.159   7.705
  154POPC   GL2 2333   2.778   8.843   7.575
  154POPC   C1A 2334   2.542   9.143   7.265
  154POPC   D2A 2335   2.688   8.973   6.857
  154POPC   C3A 2336   2.565   9.172   6.460
  154POPC   C4A 2337   2.415   9.331   5.992
  154POPC   C1B 2338   2.612   8.619   7.234
  154POPC   C2B 2339   2.669   8.457   6.812
  154POPC   C3B 2340   2.718   8.651   6.416
  154POPC   C4B 2341   2.621   8.889   6.056
  155POPC   NC3 2342   0.236   7.353   8.050
  155POPC   PO4 2343  11.046   7.252   8.207
  155POPC   GL1 2344  11.276   7.244   7.803
  155POPC   GL2 2345  11.074   7.424   7.601
  155POPC   C1A 2346  11.498   7.259   7.365
  155POPC   D2A 2347  11.443   7.145   6.896
  155POPC   C3A 2348   0.001   7.499   6.584
  155POPC   C4A 2349  11.483   7.700   6.162
  155POPC   C1B 2350  11.032   7.130   7.225
  155POPC   C2B 2351  10.812   7.189   6.842
  155POPC   C3B 2352  10.978   7.323   6.453
  155POPC   C4B 2353  11.323   7.207   6.214
  156POPC   NC3 2354  10.171   4.299   8.017
  156POPC   PO4 2355  10.737   4.629   8.069
  156POPC   GL1 2356  10.525   4.449   7.662
  156POPC   GL2 2357  10.499   4.059   7.701
  156POPC   C1A 2358  10.251   4.520   7.269
  156POPC   D2A 2359  10.005   4.280   6.963
  156POPC   C3A 2360  10.139   4.421   6.556
  156POPC   C4A 2361  10.030   4.457   6.149
  156POPC   C1B 2362  10.519   4.102   7.271
  156POPC   C2B 2363  10.513   4.244   6.862
  156POPC   C3B 2364  10.677   3.983   6.513
  156POPC   C4B 2365  10.463   4.198   6.202
  157POPC   NC3 2366  10.343  11.254   8.078
  157POPC   PO4 2367   9.731  11.409   8.152
  157POPC   GL1 2368   9.953  11.173   7.774
  157POPC   GL2 2369  10.235  11.370   7.597
  157POPC   C1A 2370   9.970  11.018   7.334
  157POPC   D2A 2371  10.132  11.305   6.983
  157POPC   C3A 2372  10.128  11.143   6.541
  157POPC   C4A 2373  10.202  11.283   6.117
  157POPC   C1B 2374  10.481  11.092   7.333
  157POPC   C2B 2375  10.656  11.176   6.937
  157POPC   C3B 2376  10.837  11.260   6.554
  157POPC   C4B 2377  10.600  11.045   6.289
  158POPC   NC3 2378   1.361  11.063   8.046
  158POPC   PO4 2379   0.843   0.072   8.058
  158POPC   GL1 2380   1.141  11.419   7.742
  158POPC   GL2 2381   1.001  11.096   7.686
  158POPC   C1A 2382   1.363  11.225   7.356
  158POPC   D2A 2383   1.142  11.062   6.981
  158POPC   C3A 2384   1.311  11.117   6.599
  158POPC   C4A 2385   1.590  11.247   6.274
  158POPC   C1B 2386   0.858  11.359   7.311
  158POPC   C2B 2387   0.792   0.024   6.909
  158POPC   C3B 2388   0.840  11.298   6.536
  158POPC   C4B 2389   1.085  11.085   6.163
  159POPC   NC3 2390   0.217   9.631   7.994
  159POPC   PO4 2391   0.788   9.311   8.123
  159POPC   GL1 2392   0.519   9.310   7.760
  159POPC   GL2 2393   0.549   9.673   7.637
  159POPC   C1A 2394   0.316   9.329   7.348
  159POPC   D2A 2395   0.663   9.413   7.039
  159POPC   C3A 2396   0.850   9.372   6.630
  159POPC   C4A 2397   0.826   9.240   6.216
  159POPC   C1B 2398   0.201   9.817   7.345
  159POPC   C2B 2399   0.196   9.589   6.929
  159POPC   C3B 2400   0.452   9.678   6.574
  159POPC   C4B 2401   0.391   9.982   6.261
  160POPC   NC3 2402   9.820   5.744   8.015
  160POPC   PO4 2403   9.163   5.966   7.973
  160POPC   GL1 2404   9.514   5.936   7.647
  160POPC   GL2 2405   9.742   5.649   7.543
  160POPC   C1A 2406   9.641   6.050   7.229
  160POPC   D2A 2407   9.496   6.238   6.854
  160POPC   C3A 2408   9.588   6.023   6.479
  160POPC   C4A 2409   9.339   5.725   6.225
  160POPC   C1B 2410   9.880   5.472   7.194
  160POPC   C2B 2411   9.774   5.676   6.844
  160POPC   C3B 2412   9.753   5.519   6.454
  160POPC   C4B 2413   9.839   5.764   6.116
  161POPC   NC3 2414   6.187  10.114   8.125
  161POPC   PO4 2415   5.899  10.682   8.142
  161POPC   GL1 2416   6.043  10.453   7.796
  161POPC   GL2 2417   6.016  10.744   7.624
  161POPC   C1A 2418   6.105  10.106   7.474
  161POPC   D2A 2419   6.129  10.265   7.074
  161POPC   C3A 2420   6.164  10.141   6.692
  161POPC   C4A 2421   5.967  10.309   6.369
  161POPC   C1B 2422   5.764  10.476   7.389
  161POPC   C2B 2423   5.598  10.382   7.038
  161POPC   C3B 2424   5.550  10.448   6.643
  161POPC   C4B 2425   5.484  10.298   6.256
  162POPC   NC3 2426   4.344   2.280   8.035
  162POPC   PO4 2427   4.543   1.680   8.085
  162POPC   GL1 2428   4.415   1.587   7.672
  162POPC   GL2 2429   4.195   1.888   7.684
  162POPC   C1A 2430   4.408   1.802   7.235
  162POPC   D2A 2431   4.300   1.879   6.809
  162POPC   C3A 2432   4.557   2.035   6.463
  162POPC   C4A 2433   4.420   1.941   6.041
  162POPC   C1B 2434   4.165   2.232   7.364
  162POPC   C2B 2435   4.015   2.311   6.950
  162POPC   C3B 2436   4.127   2.317   6.531
  162POPC   C4B 2437   4.005   2.205   6.142
  163POPC   NC3 2438   8.922   5.588   8.049
  163POPC   PO4 2439   9.484   5.447   8.092
  163POPC   GL1 2440   9.290   5.455   7.671
  163POPC   GL2 2441   9.047   5.710   7.555
  163POPC   C1A 2442   9.372   5.574   7.200
  163POPC   D2A 2443   9.281   5.683   6.744
  163POPC   C3A 2444   8.926   5.550   6.448
  163POPC   C4A 2445   8.944   5.461   5.981
  163POPC   C1B 2446   9.127   6.026   7.207
  163POPC   C2B 2447   8.993   6.097   6.763
  163POPC   C3B 2448   8.754   6.033   6.385
  163POPC   C4B 2449   8.721   6.335   6.034
  164POPC   NC3 2450   7.816   2.974   7.938
  164POPC   PO4 2451   8.185   2.492   8.089
  164POPC   GL1 2452   7.933   2.367   7.701
  164POPC   GL2 2453   7.840   2.660   7.559
  164POPC   C1A 2454   7.951   2.336   7.203
  164POPC   D2A 2455   7.956   2.681   6.831
  164POPC   C3A 2456   8.079   2.661   6.371
  164POPC   C4A 2457   8.003   2.357   6.072
  164POPC   C1B 2458   8.173   2.826   7.289
  164POPC   C2B 2459   8.411   2.980   6.892
  164POPC   C3B 2460   8.288   3.121   6.449
  164POPC   C4B 2461   8.276   3.102   5.953
  165POPC   NC3 2462   1.166   0.395   7.982
  165POPC   PO4 2463   1.598   0.890   8.018
  165POPC   GL1 2464   1.519   0.675   7.598
  165POPC   GL2 2465   1.152   0.632   7.535
  165POPC   C1A 2466   1.444   0.611   7.118
  165POPC   D2A 2467   1.015   0.498   6.917
  165POPC   C3A 2468   1.079   0.565   6.477
  165POPC   C4A 2469   1.500   0.591   6.384
  165POPC   C1B 2470   1.219   0.219   7.322
  165POPC   C2B 2471   1.322   0.054   6.892
  165POPC   C3B 2472   1.264   0.103   6.440
  165POPC   C4B 2473   0.867   0.178   6.203
  166POPC   NC3 2474   9.561   2.776   8.165
  166POPC   PO4 2475  10.129   2.601   7.919
  166POPC   GL1 2476   9.878   2.855   7.647
  166POPC   GL2 2477   9.580   2.649   7.665
  166POPC   C1A 2478   9.706   2.839   7.216
  166POPC   D2A 2479   9.864   2.547   6.952
  166POPC   C3A 2480  10.114   2.769   6.681
  166POPC   C4A 2481   9.972   2.685   6.273
  166POPC   C1B 2482   9.505   2.355   7.321
  166POPC   C2B 2483   9.352   2.470   6.918
  166POPC   C3B 2484   9.458   2.817   6.710
  166POPC   C4B 2485   9.479   2.820   6.269
  167POPC   NC3 2486  10.416   8.383   7.836
  167POPC   PO4 2487  10.037   8.860   8.301
  167POPC   GL1 2488  10.161   8.939   7.809
  167POPC   GL2 2489  10.257   9.277   7.757
  167POPC   C1A 2490  10.199   8.752   7.332
  167POPC   D2A 2491  10.392   8.577   6.938
  167POPC   C3A 2492  10.289   8.791   6.546
  167POPC   C4A 2493  10.376   8.657   6.125
  167POPC   C1B 2494  10.082   9.253   7.332
  167POPC   C2B 2495  10.307   9.119   6.962
  167POPC   C3B 2496  10.633   9.177   6.659
  167POPC   C4B 2497  10.618   9.129   6.207
  168POPC   NC3 2498   1.622   1.181   3.930
  168POPC   PO4 2499   0.981   0.959   3.942
  168POPC   GL1 2500   1.226   1.135   4.237
  168POPC   GL2 2501   1.034   1.392   4.384
  168POPC   C1A 2502   1.444   1.129   4.628
  168POPC   D2A 2503   1.332   1.209   5.074
  168POPC   C3A 2504   1.637   1.396   5.362
  168POPC   C4A 2505   1.659   0.983   5.605
  168POPC   C1B 2506   0.919   1.012   4.639
  168POPC   C2B 2507   0.882   0.899   5.089
  168POPC   C3B 2508   1.143   0.885   5.470
  168POPC   C4B 2509   1.223   1.318   5.640
  169POPC   NC3 2510  10.862   3.430   3.828
  169POPC   PO4 2511  10.190   3.444   3.819
  169POPC   GL1 2512  10.205   3.682   4.216
  169POPC   GL2 2513  10.581   3.712   4.234
  169POPC   C1A 2514  10.096   3.513   4.639
  169POPC   D2A 2515  10.210   3.221   5.004
  169POPC   C3A 2516   9.967   3.216   5.392
  169POPC   C4A 2517  10.132   3.340   5.779
  169POPC   C1B 2518  10.580   3.571   4.695
  169POPC   C2B 2519  10.395   3.702   5.118
  169POPC   C3B 2520  10.416   3.721   5.594
  169POPC   C4B 2521  10.711   3.833   5.951
  170POPC   NC3 2522   9.707   5.705   3.704
  170POPC   PO4 2523   9.317   5.340   3.928
  170POPC   GL1 2524   9.635   5.452   4.193
  170POPC   GL2 2525   9.648   5.804   4.241
  170POPC   C1A 2526   9.674   5.449   4.622
  170POPC   D2A 2527   9.451   5.437   4.987
  170POPC   C3A 2528   9.647   5.625   5.335
  170POPC   C4A 2529   9.522   5.636   5.749
  170POPC   C1B 2530   9.823   5.940   4.693
  170POPC   C2B 2531   9.858   6.060   5.147
  170POPC   C3B 2532   9.579   6.204   5.492
  170POPC   C4B 2533   9.514   6.111   5.936
  171POPC   NC3 2534   3.602  10.297   3.904
  171POPC   PO4 2535   3.927  10.839   4.045
  171POPC   GL1 2536   3.784  10.634   4.381
  171POPC   GL2 2537   3.473  10.514   4.331
  171POPC   C1A 2538   3.899  10.692   4.795
  171POPC   D2A 2539   3.928  10.826   5.184
  171POPC   C3A 2540   3.864  10.511   5.528
  171POPC   C4A 2541   3.772  10.325   5.949
  171POPC   C1B 2542   3.497  10.361   4.748
  171POPC   C2B 2543   3.488  10.544   5.159
  171POPC   C3B 2544   3.359  10.392   5.573
  171POPC   C4B 2545   3.366  10.037   5.804
  172POPC   NC3 2546  10.505   2.118   4.056
  172POPC   PO4 2547   9.868   1.959   4.078
  172POPC   GL1 2548  10.090   2.186   4.380
  172POPC   GL2 2549  10.279   1.892   4.463
  172POPC   C1A 2550  10.319   2.274   4.784
  172POPC   D2A 2551  10.395   2.029   5.155
  172POPC   C3A 2552  10.313   2.322   5.496
  172POPC   C4A 2553  10.442   2.316   5.927
  172POPC   C1B 2554  10.565   1.631   4.717
  172POPC   C2B 2555  10.557   1.456   5.122
  172POPC   C3B 2556  10.526   1.600   5.543
  172POPC   C4B 2557  10.223   1.882   5.743
  173POPC   NC3 2558  10.156  11.192   3.916
  173POPC   PO4 2559  10.736  10.668   3.851
  173POPC   GL1 2560  10.492  10.923   4.225
  173POPC   GL2 2561  10.412  11.286   4.349
  173POPC   C1A 2562  10.375  10.944   4.704
  173POPC   D2A 2563  10.134  10.851   5.072
  173POPC   C3A 2564  10.393  10.755   5.417
  173POPC   C4A 2565  10.547  10.925   5.791
  173POPC   C1B 2566  10.222  11.467   4.728
  173POPC   C2B 2567  10.034  11.375   5.139
  173POPC   C3B 2568  10.147   0.125   5.494
  173POPC   C4B 2569  10.479  11.454   5.726
  174POPC   NC3 2570   6.426  11.342   3.858
  174POPC   PO4 2571   7.086  11.439   4.030
  174POPC   GL1 2572   6.752  11.266   4.250
  174POPC   GL2 2573   6.804  10.914   4.326
  174POPC   C1A 2574   6.492  11.319   4.597
  174POPC   D2A 2575   6.614  11.302   5.044
  174POPC   C3A 2576   6.360  11.497   5.365
  174POPC   C4A 2577   6.223  11.379   5.777
  174POPC   C1B 2578   6.609  10.847   4.742
  174POPC   C2B 2579   6.304  10.868   5.106
  174POPC   C3B 2580   6.472  10.956   5.511
  174POPC   C4B 2581   6.858  10.874   5.727
  175POPC   NC3 2582   3.120   9.988   4.087
  175POPC   PO4 2583   3.729   9.861   3.975
  175POPC   GL1 2584   3.569   9.955   4.359
  175POPC   GL2 2585   3.499   9.591   4.339
  175POPC   C1A 2586   3.679   9.891   4.794
  175POPC   D2A 2587   3.516  10.004   5.215
  175POPC   C3A 2588   3.817   9.971   5.554
  175POPC   C4A 2589   3.791   9.803   5.978
  175POPC   C1B 2590   3.380   9.493   4.742
  175POPC   C2B 2591   3.344   9.487   5.179
  175POPC   C3B 2592   3.476   9.586   5.581
  175POPC   C4B 2593   3.364   9.546   6.017
  176POPC   NC3 2594  10.546   7.905   3.846
  176POPC   PO4 2595  10.704   8.546   3.917
  176POPC   GL1 2596  10.461   8.406   4.284
  176POPC   GL2 2597  10.458   8.047   4.347
  176POPC   C1A 2598  10.444   8.314   4.762
  176POPC   D2A 2599  10.675   8.075   5.093
  176POPC   C3A 2600  10.501   8.346   5.379
  176POPC   C4A 2601  10.224   8.488   5.659
  176POPC   C1B 2602  10.347   7.811   4.754
  176POPC   C2B 2603  10.183   7.968   5.140
  176POPC   C3B 2604  10.234   7.946   5.575
  176POPC   C4B 2605  10.181   7.680   5.969
  177POPC   NC3 2606   9.571   2.251   4.273
  177POPC   PO4 2607   9.591   2.913   3.963
  177POPC   GL1 2608   9.555   2.764   4.317
  177POPC   GL2 2609   9.896   2.657   4.302
  177POPC   C1A 2610   9.433   2.786   4.728
  177POPC   D2A 2611   9.348   3.026   5.067
  177POPC   C3A 2612   9.500   2.922   5.422
  177POPC   C4A 2613   9.296   2.927   5.780
  177POPC   C1B 2614   9.888   2.547   4.732
  177POPC   C2B 2615   9.874   2.807   5.063
  177POPC   C3B 2616   9.958   2.693   5.455
  177POPC   C4B 2617   9.731   2.654   5.830
  178POPC   NC3 2618  10.808   0.435   3.759
  178POPC   PO4 2619  11.293   0.257   4.166
  178POPC   GL1 2620  11.278   0.581   4.459
  178POPC   GL2 2621   0.121   0.652   4.337
  178POPC   C1A 2622  11.016   0.534   4.857
  178POPC   D2A 2623  10.938   0.156   5.123
  178POPC   C3A 2624  11.056   0.235   5.567
  178POPC   C4A 2625  11.058   0.664   5.744
  178POPC   C1B 2626   0.165   0.395   4.722
  178POPC   C2B 2627  11.456   0.421   5.089
  178POPC   C3B 2628   0.024   0.481   5.486
  178POPC   C4B 2629  11.490   0.304   5.853
  179POPC   NC3 2630   6.650   9.541   3.839
  179POPC   PO4 2631   6.145   9.934   3.784
  179POPC   GL1 2632   6.399   9.893   4.181
  179POPC   GL2 2633   6.706   9.693   4.322
  179POPC   C1A 2634   6.379   9.992   4.630
  179POPC   D2A 2635   6.413   9.769   5.016
  179POPC   C3A 2636   6.256   9.823   5.435
  179POPC   C4A 2637   6.383   9.593   5.826
  179POPC   C1B 2638   6.874   9.835   4.738
  179POPC   C2B 2639   6.846  10.020   5.142
  179POPC   C3B 2640   6.752   9.826   5.532
  179POPC   C4B 2641   6.753   9.906   5.965
  180POPC   NC3 2642   9.321   8.985   3.830
  180POPC   PO4 2643   9.988   9.049   3.790
  180POPC   GL1 2644   9.696   9.183   4.150
  180POPC   GL2 2645   9.527   8.873   4.290
  180POPC   C1A 2646   9.580   9.295   4.595
  180POPC   D2A 2647   9.778   9.178   4.997
  180POPC   C3A 2648   9.606   9.216   5.407
  180POPC   C4A 2649   9.673   9.116   5.823
  180POPC   C1B 2650   9.460   8.821   4.737
  180POPC   C2B 2651   9.301   8.854   5.149
  180POPC   C3B 2652   9.369   8.776   5.591
  180POPC   C4B 2653   9.755   8.607   5.745
  181POPC   NC3 2654  11.207   8.405   4.060
  181POPC   PO4 2655  10.978   7.864   3.716
  181POPC   GL1 2656  10.949   7.954   4.168
  181POPC   GL2 2657  11.268   7.894   4.216
  181POPC   C1A 2658  10.927   8.112   4.630
  181POPC   D2A 2659  11.190   8.160   5.050
  181POPC   C3A 2660  10.995   8.318   5.462
  181POPC   C4A 2661  10.728   8.332   5.843
  181POPC   C1B 2662  11.335   7.776   4.646
  181POPC   C2B 2663  11.111   7.627   5.012
  181POPC   C3B 2664  11.030   7.812   5.428
  181POPC   C4B 2665  11.404   7.932   5.691
  182POPC   NC3 2666   5.761  11.002   3.940
  182POPC   PO4 2667   6.436  10.922   3.627
  182POPC   GL1 2668   6.308  10.972   4.160
  182POPC   GL2 2669   6.079  11.289   4.238
  182POPC   C1A 2670   6.126  10.965   4.616
  182POPC   D2A 2671   6.083  11.315   4.934
  182POPC   C3A 2672   5.936  11.208   5.360
  182POPC   C4A 2673   6.006  10.923   5.704
  182POPC   C1B 2674   5.715  11.270   4.568
  182POPC   C2B 2675   5.547  11.294   5.018
  182POPC   C3B 2676   5.467  11.441   5.448
  182POPC   C4B 2677   5.680  11.340   5.835
  183POPC   NC3 2678   1.124   8.093   3.740
  183POPC   PO4 2679   1.729   8.366   3.934
  183POPC   GL1 2680   1.404   8.299   4.242
  183POPC   GL2 2681   1.093   8.157   4.268
  183POPC   C1A 2682   1.462   8.119   4.651
  183POPC   D2A 2683   1.286   8.187   5.067
  183POPC   C3A 2684   1.353   7.946   5.436
  183POPC   C4A 2685   1.492   8.153   5.811
  183POPC   C1B 2686   0.958   8.035   4.702
  183POPC   C2B 2687   0.781   8.188   5.119
  183POPC   C3B 2688   0.912   8.159   5.535
  183POPC   C4B 2689   1.018   7.909   5.886
  184POPC   NC3 2690  11.049  10.985   4.057
  184POPC   PO4 2691  10.642   0.055   3.993
  184POPC   GL1 2692  10.922  11.387   4.349
  184POPC   GL2 2693  11.293  11.293   4.376
  184POPC   C1A 2694  10.783  11.290   4.755
  184POPC   D2A 2695  10.547  11.276   5.150
  184POPC   C3A 2696  10.875  11.261   5.463
  184POPC   C4A 2697  10.916  11.256   5.918
  184POPC   C1B 2698  11.317  11.488   4.796
  184POPC   C2B 2699  11.389  11.443   5.249
  184POPC   C3B 2700  11.377  11.335   5.665
  184POPC   C4B 2701  11.386  11.052   5.971
  185POPC   NC3 2702   2.048  11.048   3.934
  185POPC   PO4 2703   2.479  10.567   3.942
  185POPC   GL1 2704   2.240  10.728   4.301
  185POPC   GL2 2705   2.128  11.068   4.423
  185POPC   C1A 2706   2.382  10.764   4.730
  185POPC   D2A 2707   2.281  11.094   4.997
  185POPC   C3A 2708   2.085  10.996   5.345
  185POPC   C4A 2709   2.207  11.073   5.738
  185POPC   C1B 2710   1.857  11.208   4.722
  185POPC   C2B 2711   1.622  11.034   5.047
  185POPC   C3B 2712   1.592  11.031   5.464
  185POPC   C4B 2713   1.746  11.298   5.773
  186POPC   NC3 2714   3.603   2.872   3.838
  186POPC   PO4 2715   3.000   3.152   4.009
  186POPC   GL1 2716   3.340   2.951   4.296
  186POPC   GL2 2717   3.368   2.577   4.244
  186POPC   C1A 2718   3.380   2.786   4.752
  186POPC   D2A 2719   3.237   2.822   5.209
  186POPC   C3A 2720   3.572   2.831   5.555
  186POPC   C4A 2721   3.784   2.980   5.974
  186POPC   C1B 2722   3.112   2.378   4.614
  186POPC   C2B 2723   3.233   2.302   5.066
  186POPC   C3B 2724   3.222   2.423   5.556
  186POPC   C4B 2725   3.136   2.382   6.049
  187POPC   NC3 2726   9.702   1.538   4.192
  187POPC   PO4 2727   9.287   2.149   3.939
  187POPC   GL1 2728   9.145   1.988   4.378
  187POPC   GL2 2729   9.471   1.832   4.537
  187POPC   C1A 2730   9.061   1.813   4.828
  187POPC   D2A 2731   9.460   1.832   5.097
  187POPC   C3A 2732   9.556   1.732   5.535
  187POPC   C4A 2733   9.496   1.883   5.949
  187POPC   C1B 2734   9.864   1.970   4.798
  187POPC   C2B 2735   9.915   2.231   5.173
  187POPC   C3B 2736   9.813   2.186   5.626
  187POPC   C4B 2737   9.909   2.209   6.074
  188POPC   NC3 2738   2.685   7.296   3.858
  188POPC   PO4 2739   3.057   6.901   3.827
  188POPC   GL1 2740   2.896   7.131   4.301
  188POPC   GL2 2741   2.587   7.356   4.359
  188POPC   C1A 2742   2.892   7.302   4.783
  188POPC   D2A 2743   2.826   7.113   5.223
  188POPC   C3A 2744   2.917   7.309   5.647
  188POPC   C4A 2745   2.988   7.244   6.089
  188POPC   C1B 2746   2.480   7.036   4.671
  188POPC   C2B 2747   2.297   7.097   5.096
  188POPC   C3B 2748   2.425   7.244   5.517
  188POPC   C4B 2749   2.446   7.375   5.979
  189POPC   NC3 2750   8.472  11.291   4.118
  189POPC   PO4 2751   8.319  10.674   3.762
  189POPC   GL1 2752   8.370  10.785   4.206
  189POPC   GL2 2753   8.087  10.898   4.239
  189POPC   C1A 2754   8.340  10.957   4.662
  189POPC   D2A 2755   8.144  11.244   4.955
  189POPC   C3A 2756   8.087  11.121   5.370
  189POPC   C4A 2757   8.337  11.066   5.733
  189POPC   C1B 2758   7.882  11.204   4.510
  189POPC   C2B 2759   7.638  11.296   4.875
  189POPC   C3B 2760   7.579  11.293   5.311
  189POPC   C4B 2761   7.752  11.295   5.716
  190POPC   NC3 2762   5.759   0.247   3.587
  190POPC   PO4 2763   5.267   0.523   3.889
  190POPC   GL1 2764   5.014   0.547   4.290
  190POPC   GL2 2765   4.881   0.223   4.426
  190POPC   C1A 2766   5.144   0.518   4.744
  190POPC   D2A 2767   5.238   0.245   5.063
  190POPC   C3A 2768   5.278   0.438   5.430
  190POPC   C4A 2769   5.076   0.445   5.799
  190POPC   C1B 2770   4.663   0.295   4.736
  190POPC   C2B 2771   4.703   0.499   5.054
  190POPC   C3B 2772   4.727   0.520   5.430
  190POPC   C4B 2773   4.699   0.775   5.748
  191POPC   NC3 2774   4.771   1.770   3.904
  191POPC   PO4 2775   4.780   2.445   3.946
  191POPC   GL1 2776   4.895   2.200   4.313
  191POPC   GL2 2777   5.079   1.884   4.296
  191POPC   C1A 2778   4.715   2.188   4.748
  191POPC   D2A 2779   4.512   2.164   5.158
  191POPC   C3A 2780   4.818   2.256   5.479
  191POPC   C4A 2781   4.847   2.167   5.908
  191POPC   C1B 2782   4.866   1.711   4.671
  191POPC   C2B 2783   4.888   1.825   5.136
  191POPC   C3B 2784   5.078   1.815   5.599
  191POPC   C4B 2785   5.279   1.924   6.024
  192POPC   NC3 2786   4.126   0.225   3.798
  192POPC   PO4 2787   4.659   0.018   3.983
  192POPC   GL1 2788   4.375   0.265   4.315
  192POPC   GL2 2789   4.197   0.581   4.306
  192POPC   C1A 2790   4.157   0.175   4.736
  192POPC   D2A 2791   4.399   0.044   5.109
  192POPC   C3A 2792   4.343   0.178   5.517
  192POPC   C4A 2793   4.634   0.209   5.832
  192POPC   C1B 2794   4.297   0.668   4.752
  192POPC   C2B 2795   4.190   0.536   5.161
  192POPC   C3B 2796   4.229   0.701   5.563
  192POPC   C4B 2797   4.263   0.882   5.982
  193POPC   NC3 2798   1.426   2.165   3.951
  193POPC   PO4 2799   1.701   1.646   3.930
  193POPC   GL1 2800   1.509   1.611   4.324
  193POPC   GL2 2801   1.252   1.890   4.347
  193POPC   C1A 2802   1.339   1.606   4.751
  193POPC   D2A 2803   1.069   1.667   5.112
  193POPC   C3A 2804   1.266   1.925   5.397
  193POPC   C4A 2805   1.431   1.773   5.759
  193POPC   C1B 2806   0.900   1.884   4.667
  193POPC   C2B 2807   0.778   2.110   5.060
  193POPC   C3B 2808   0.957   2.357   5.366
  193POPC   C4B 2809   1.160   2.247   5.775
  194POPC   NC3 2810   5.894   0.530   4.104
  194POPC   PO4 2811   5.656  11.459   3.931
  194POPC   GL1 2812   5.511   0.204   4.326
  194POPC   GL2 2813   5.506   0.578   4.406
  194POPC   C1A 2814   5.660   0.249   4.780
  194POPC   D2A 2815   5.964   0.273   5.139
  194POPC   C3A 2816   5.897   0.232   5.569
  194POPC   C4A 2817   5.583   0.376   5.837
  194POPC   C1B 2818   5.866   0.720   4.694
  194POPC   C2B 2819   6.144   0.727   4.995
  194POPC   C3B 2820   6.084   0.897   5.405
  194POPC   C4B 2821   5.951   0.725   5.802
  195POPC   NC3 2822   4.174   9.798   3.870
  195POPC   PO4 2823   4.577   9.306   4.108
  195POPC   GL1 2824   4.087   9.442   4.207
  195POPC   GL2 2825   4.062   9.780   4.369
  195POPC   C1A 2826   3.885   9.415   4.648
  195POPC   D2A 2827   4.003   9.600   5.062
  195POPC   C3A 2828   4.243   9.351   5.367
  195POPC   C4A 2829   3.970   9.445   5.662
  195POPC   C1B 2830   4.380   9.691   4.715
  195POPC   C2B 2831   4.490   9.745   5.176
  195POPC   C3B 2832   4.505   9.762   5.635
  195POPC   C4B 2833   4.693  10.165   5.774
  196POPC   NC3 2834   3.012   1.761   4.004
  196POPC   PO4 2835   2.457   1.486   3.689
  196POPC   GL1 2836   2.425   1.733   4.184
  196POPC   GL2 2837   2.436   2.088   4.194
  196POPC   C1A 2838   2.296   1.760   4.630
  196POPC   D2A 2839   2.590   1.618   4.956
  196POPC   C3A 2840   2.543   1.762   5.395
  196POPC   C4A 2841   2.735   1.669   5.803
  196POPC   C1B 2842   2.727   2.013   4.546
  196POPC   C2B 2843   2.629   2.125   4.962
  196POPC   C3B 2844   2.837   2.159   5.345
  196POPC   C4B 2845   2.743   2.192   5.769
  197POPC   NC3 2846   7.598  11.455   3.929
  197POPC   PO4 2847   7.235   0.548   3.723
  197POPC   GL1 2848   7.380   0.511   4.215
  197POPC   GL2 2849   7.662   0.318   4.255
  197POPC   C1A 2850   7.207   0.618   4.655
  197POPC   D2A 2851   7.384   0.862   5.006
  197POPC   C3A 2852   7.270   0.739   5.417
  197POPC   C4A 2853   7.016   0.494   5.685
  197POPC   C1B 2854   7.401   0.143   4.588
  197POPC   C2B 2855   7.471   0.275   5.001
  197POPC   C3B 2856   7.364   0.231   5.413
  197POPC   C4B 2857   7.453   0.231   5.832
  198POPC   NC3 2858   1.099   7.548   3.681
  198POPC   PO4 2859   1.508   7.020   3.927
  198POPC   GL1 2860   1.333   7.294   4.261
  198POPC   GL2 2861   1.126   7.141   4.499
  198POPC   C1A 2862   1.404   7.589   4.602
  198POPC   D2A 2863   1.245   7.657   5.020
  198POPC   C3A 2864   1.450   7.375   5.335
  198POPC   C4A 2865   1.483   7.051   5.694
  198POPC   C1B 2866   0.873   7.520   4.641
  198POPC   C2B 2867   0.706   7.680   5.041
  198POPC   C3B 2868   0.905   7.667   5.441
  198POPC   C4B 2869   1.204   7.471   5.752
  199POPC   NC3 2870   0.821   3.714   3.971
  199POPC   PO4 2871   0.546   3.060   3.902
  199POPC   GL1 2872   0.556   3.340   4.255
  199POPC   GL2 2873   0.635   3.680   4.443
  199POPC   C1A 2874   0.441   3.261   4.670
  199POPC   D2A 2875   0.629   3.531   4.955
  199POPC   C3A 2876   0.628   3.363   5.353
  199POPC   C4A 2877   0.433   3.168   5.690
  199POPC   C1B 2878   0.225   3.724   4.659
  199POPC   C2B 2879   0.118   3.515   5.055
  199POPC   C3B 2880   0.215   3.596   5.502
  199POPC   C4B 2881   0.081   3.776   5.848
  200POPC   NC3 2882  10.459   5.789   3.994
  200POPC   PO4 2883  10.000   5.282   3.879
  200POPC   GL1 2884  10.150   5.509   4.280
  200POPC   GL2 2885  10.537   5.532   4.413
  200POPC   C1A 2886  10.168   5.391   4.708
  200POPC   D2A 2887  10.112   5.626   5.063
  200POPC   C3A 2888  10.146   5.519   5.494
  200POPC   C4A 2889   9.963   5.912   5.653
  200POPC   C1B 2890  10.430   5.858   4.718
  200POPC   C2B 2891  10.383   6.036   5.151
  200POPC   C3B 2892  10.469   5.921   5.566
  200POPC   C4B 2893  10.700   6.153   5.856
  201POPC   NC3 2894   8.948   5.605   3.794
  201POPC   PO4 2895   8.470   5.839   4.105
  201POPC   GL1 2896   8.799   5.562   4.312
  201POPC   GL2 2897   9.154   5.584   4.328
  201POPC   C1A 2898   8.926   5.605   4.784
  201POPC   D2A 2899   8.822   5.927   5.122
  201POPC   C3A 2900   8.669   5.780   5.556
  201POPC   C4A 2901   8.533   5.799   5.999
  201POPC   C1B 2902   9.305   5.903   4.609
  201POPC   C2B 2903   9.362   5.958   5.052
  201POPC   C3B 2904   9.180   5.893   5.476
  201POPC   C4B 2905   9.026   5.961   5.894
  202POPC   NC3 2906   6.043   1.504   3.936
  202POPC   PO4 2907   5.711   0.949   4.062
  202POPC   GL1 2908   5.523   1.090   4.419
  202POPC   GL2 2909   5.544   1.422   4.340
  202POPC   C1A 2910   5.451   0.960   4.840
  202POPC   D2A 2911   5.642   0.707   5.177
  202POPC   C3A 2912   5.574   0.956   5.547
  202POPC   C4A 2913   5.374   1.380   5.566
  202POPC   C1B 2914   5.973   1.271   4.553
  202POPC   C2B 2915   5.932   1.188   4.974
  202POPC   C3B 2916   5.850   1.375   5.356
  202POPC   C4B 2917   5.946   1.247   5.775
  203POPC   NC3 2918   7.036   1.406   3.995
  203POPC   PO4 2919   6.948   2.114   3.913
  203POPC   GL1 2920   7.295   1.950   4.212
  203POPC   GL2 2921   7.559   2.177   4.323
  203POPC   C1A 2922   7.471   1.803   4.636
  203POPC   D2A 2923   7.297   1.685   5.034
  203POPC   C3A 2924   7.317   1.731   5.470
  203POPC   C4A 2925   6.987   1.835   5.715
  203POPC   C1B 2926   7.651   2.279   4.772
  203POPC   C2B 2927   7.493   2.156   5.189
  203POPC   C3B 2928   7.290   2.240   5.596
  203POPC   C4B 2929   7.433   2.348   6.002
  204POPC   NC3 2930   8.014   1.483   3.800
  204POPC   PO4 2931   7.954   0.815   3.861
  204POPC   GL1 2932   8.281   0.999   4.110
  204POPC   GL2 2933   8.027   1.211   4.230
  204POPC   C1A 2934   8.461   1.118   4.528
  204POPC   D2A 2935   8.463   0.959   4.980
  204POPC   C3A 2936   8.476   1.179   5.353
  204POPC   C4A 2937   8.368   1.108   5.762
  204POPC   C1B 2938   7.985   1.184   4.660
  204POPC   C2B 2939   8.096   1.373   5.052
  204POPC   C3B 2940   8.020   1.364   5.493
  204POPC   C4B 2941   8.124   1.572   5.850
  205POPC   NC3 2942   8.686   9.210   3.906
  205POPC   PO4 2943   9.022   8.624   3.856
  205POPC   GL1 2944   9.004   8.894   4.240
  205POPC   GL2 2945   8.686   8.974   4.389
  205POPC   C1A 2946   9.077   9.156   4.649
  205POPC   D2A 2947   8.835   9.045   5.011
  205POPC   C3A 2948   8.961   9.083   5.456
  205POPC   C4A 2949   8.662   8.989   5.746
  205POPC   C1B 2950   8.947   8.663   4.686
  205POPC   C2B 2951   8.892   8.536   5.132
  205POPC   C3B 2952   8.911   8.552   5.598
  205POPC   C4B 2953   8.902   8.670   6.040
  206POPC   NC3 2954   4.913  11.205   3.749
  206POPC   PO4 2955   4.216  11.275   3.735
  206POPC   GL1 2956   4.233  11.297   4.221
  206POPC   GL2 2957   4.152  11.007   4.444
  206POPC   C1A 2958   4.492  11.315   4.616
  206POPC   D2A 2959   4.342  11.059   4.957
  206POPC   C3A 2960   4.615  11.096   5.301
  206POPC   C4A 2961   4.636  11.204   5.702
  206POPC   C1B 2962   3.857  11.208   4.713
  206POPC   C2B 2963   3.899  11.382   5.128
  206POPC   C3B 2964   4.129  11.213   5.467
  206POPC   C4B 2965   4.022  10.943   5.798
  207POPC   NC3 2966   0.528  10.823   3.931
  207POPC   PO4 2967   0.728   0.020   4.005
  207POPC   GL1 2968   0.615  11.204   4.259
  207POPC   GL2 2969   0.285  11.167   4.237
  207POPC   C1A 2970   0.701  11.020   4.665
  207POPC   D2A 2971   0.903  11.285   4.994
  207POPC   C3A 2972   0.735  11.184   5.401
  207POPC   C4A 2973   0.793  11.351   5.801
  207POPC   C1B 2974   0.211  11.164   4.648
  207POPC   C2B 2975   0.340  10.967   5.014
  207POPC   C3B 2976   0.241  11.085   5.379
  207POPC   C4B 2977   0.339  11.069   5.745
  208POPC   NC3 2978   8.724  10.499   3.907
  208POPC   PO4 2979   9.316  10.558   3.755
  208POPC   GL1 2980   9.130  10.591   4.253
  208POPC   GL2 2981   8.928  10.363   4.365
  208POPC   C1A 2982   8.771  10.687   4.677
  208POPC   D2A 2983   8.514  10.741   5.085
  208POPC   C3A 2984   8.715  10.767   5.508
  208POPC   C4A 2985   9.107  10.532   5.612
  208POPC   C1B 2986   9.218  10.461   4.729
  208POPC   C2B 2987   8.994  10.474   5.105
  208POPC   C3B 2988   8.654  10.303   5.316
  208POPC   C4B 2989   8.603  10.257   5.739
  209POPC   NC3 2990   5.097   0.112   4.007
  209POPC   PO4 2991   5.327  11.005   3.764
  209POPC   GL1 2992   5.271  11.176   4.209
  209POPC   GL2 2993   4.898  11.210   4.321
  209POPC   C1A 2994   5.215  11.409   4.647
  209POPC   D2A 2995   4.882  11.390   4.981
  209POPC   C3A 2996   4.938   0.027   5.437
  209POPC   C4A 2997   5.135  11.437   5.871
  209POPC   C1B 2998   4.843  10.932   4.724
  209POPC   C2B 2999   5.025  10.833   5.163
  209POPC   C3B 3000   5.166  11.000   5.593
  209POPC   C4B 3001   4.954  10.980   6.036
  210POPC   NC3 3002   0.515  10.081   3.763
  210POPC   PO4 3003  11.402   9.893   3.962
  210POPC   GL1 3004   0.232  10.141   4.218
  210POPC   GL2 3005   0.211  10.443   4.068
  210POPC   C1A 3006   0.261  10.077   4.688
  210POPC   D2A 3007   0.081  10.062   5.123
  210POPC   C3A 3008   0.360  10.198   5.472
  210POPC   C4A 3009   0.314  10.346   5.914
  210POPC   C1B 3010   0.352  10.573   4.527
  210POPC   C2B 3011   0.442  10.465   4.990
  210POPC   C3B 3012   0.561  10.670   5.392
  210POPC   C4B 3013   0.665  10.699   5.824
  211POPC   NC3 3014   2.136   1.789   3.802
  211POPC   PO4 3015   2.209   2.438   3.870
  211POPC   GL1 3016   1.949   2.284   4.199
  211POPC   GL2 3017   1.937   1.939   4.270
  211POPC   C1A 3018   2.139   2.266   4.623
  211POPC   D2A 3019   1.989   2.238   5.042
  211POPC   C3A 3020   2.295   2.224   5.352
  211POPC   C4A 3021   2.199   2.250   5.761
  211POPC   C1B 3022   1.706   1.977   4.651
  211POPC   C2B 3023   1.653   1.839   5.070
  211POPC   C3B 3024   1.836   1.915   5.459
  211POPC   C4B 3025   1.673   2.201   5.714
  212POPC   NC3 3026  11.000   8.807   3.690
  212POPC   PO4 3027   0.052   8.575   3.798
  212POPC   GL1 3028  11.421   8.834   4.181
  212POPC   GL2 3029  11.111   8.981   4.149
  212POPC   C1A 3030  11.280   8.830   4.639
  212POPC   D2A 3031  11.309   8.727   5.095
  212POPC   C3A 3032  11.477   8.431   5.412
  212POPC   C4A 3033  11.229   8.779   5.629
  212POPC   C1B 3034  10.927   9.184   4.488
  212POPC   C2B 3035  10.906   9.098   4.930
  212POPC   C3B 3036  11.074   9.187   5.336
  212POPC   C4B 3037  10.955   9.186   5.776
  213POPC   NC3 3038   7.141  10.943   3.905
  213POPC   PO4 3039   7.847  11.052   3.831
  213POPC   GL1 3040   7.585  10.890   4.172
  213POPC   GL2 3041   7.400  11.157   4.303
  213POPC   C1A 3042   7.557  10.831   4.639
  213POPC   D2A 3043   7.446  10.859   5.073
  213POPC   C3A 3044   7.659  10.804   5.437
  213POPC   C4A 3045   7.464  10.888   5.809
  213POPC   C1B 3046   7.122  11.178   4.639
  213POPC   C2B 3047   7.134  11.357   5.006
  213POPC   C3B 3048   7.077  11.136   5.352
  213POPC   C4B 3049   7.215  11.311   5.705
  214POPC   NC3 3050   4.035   1.406   4.072
  214POPC   PO4 3051   3.393   1.525   3.832
  214POPC   GL1 3052   3.309   1.418   4.262
  214POPC   GL2 3053   3.540   1.149   4.216
  214POPC   C1A 3054   3.543   1.416   4.679
  214POPC   D2A 3055   3.926   1.515   4.944
  214POPC   C3A 3056   3.733   1.535   5.334
  214POPC   C4A 3057   3.524   1.525   5.703
  214POPC   C1B 3058   3.284   0.961   4.540
  214POPC   C2B 3059   3.363   0.869   4.960
  214POPC   C3B 3060   3.335   0.839   5.390
  214POPC   C4B 3061   3.519   1.016   5.710
  215POPC   NC3 3062   9.717   6.643   4.026
  215POPC   PO4 3063  10.084   6.083   3.874
  215POPC   GL1 3064   9.891   6.249   4.285
  215POPC   GL2 3065   9.503   6.325   4.368
  215POPC   C1A 3066   9.857   6.484   4.689
  215POPC   D2A 3067   9.641   6.517   5.093
  215POPC   C3A 3068   9.870   6.731   5.465
  215POPC   C4A 3069   9.836   6.483   5.838
  215POPC   C1B 3070   9.397   6.728   4.669
  215POPC   C2B 3071   9.390   6.939   5.111
  215POPC   C3B 3072   9.372   6.708   5.525
  215POPC   C4B 3073   9.357   6.594   5.945
  216POPC   NC3 3074   4.451   8.865   4.099
  216POPC   PO4 3075   3.925   9.002   3.921
  216POPC   GL1 3076   4.005   8.968   4.382
  216POPC   GL2 3077   4.319   9.139   4.523
  216POPC   C1A 3078   3.961   8.956   4.849
  216POPC   D2A 3079   3.793   9.156   5.212
  216POPC   C3A 3080   4.005   8.927   5.544
  216POPC   C4A 3081   4.143   8.511   5.689
  216POPC   C1B 3082   4.504   8.892   4.807
  216POPC   C2B 3083   4.392   8.857   5.223
  216POPC   C3B 3084   4.557   8.804   5.624
  216POPC   C4B 3085   4.741   8.884   6.012
  217POPC   NC3 3086   1.154   4.359   3.878
  217POPC   PO4 3087   1.693   4.774   4.101
  217POPC   GL1 3088   1.337   4.453   4.324
  217POPC   GL2 3089   1.143   4.047   4.277
  217POPC   C1A 3090   1.125   4.342   4.681
  217POPC   D2A 3091   1.313   4.506   4.976
  217POPC   C3A 3092   1.288   4.496   5.371
  217POPC   C4A 3093   1.427   4.621   5.759
  217POPC   C1B 3094   1.060   3.839   4.711
  217POPC   C2B 3095   1.153   4.011   5.158
  217POPC   C3B 3096   1.163   4.099   5.643
  217POPC   C4B 3097   1.388   3.955   6.039
  218POPC   NC3 3098   1.691   3.721   3.818
  218POPC   PO4 3099   2.143   3.890   4.220
  218POPC   GL1 3100   1.913   3.614   4.394
  218POPC   GL2 3101   2.122   3.322   4.323
  218POPC   C1A 3102   1.890   3.724   4.803
  218POPC   D2A 3103   1.816   3.915   5.176
  218POPC   C3A 3104   1.945   3.695   5.549
  218POPC   C4A 3105   2.226   3.754   5.861
  218POPC   C1B 3106   1.926   3.208   4.735
  218POPC   C2B 3107   2.109   3.194   5.148
  218POPC   C3B 3108   1.995   3.185   5.595
  218POPC   C4B 3109   2.188   3.268   5.987
  219POPC   NC3 3110  10.585   1.151   3.815
  219POPC   PO4 3111   9.936   1.255   3.898
  219POPC   GL1 3112  10.216   1.094   4.259
  219POPC   GL2 3113  10.616   1.099   4.315
  219POPC   C1A 3114  10.310   1.153   4.717
  219POPC   D2A 3115  10.072   1.268   5.081
  219POPC   C3A 3116  10.034   1.644   5.300
  219POPC   C4A 3117   9.993   1.409   5.676
  219POPC   C1B 3118  10.814   1.012   4.713
  219POPC   C2B 3119  10.650   0.950   5.111
  219POPC   C3B 3120  10.438   1.082   5.492
  219POPC   C4B 3121  10.641   1.011   5.893
  220POPC   NC3 3122   8.687   3.577   3.887
  220POPC   PO4 3123   9.255   3.312   3.703
  220POPC   GL1 3124   9.164   3.326   4.184
  220POPC   GL2 3125   8.848   3.404   4.332
  220POPC   C1A 3126   9.246   3.508   4.645
  220POPC   D2A 3127   9.231   3.813   5.027
  220POPC   C3A 3128   9.119   3.578   5.399
  220POPC   C4A 3129   8.995   3.408   5.794
  220POPC   C1B 3130   8.554   3.339   4.680
  220POPC   C2B 3131   8.457   3.228   5.131
  220POPC   C3B 3132   8.533   3.373   5.548
  220POPC   C4B 3133   8.384   3.643   5.886
  221POPC   NC3 3134   0.880   0.512   3.885
  221POPC   PO4 3135   1.438   0.154   3.837
  221POPC   GL1 3136   1.169   0.275   4.223
  221POPC   GL2 3137   1.142   0.626   4.331
  221POPC   C1A 3138   1.036   0.238   4.654
  221POPC   D2A 3139   1.003   0.398   5.053
  221POPC   C3A 3140   0.834   0.177   5.370
  221POPC   C4A 3141   0.993   0.350   5.734
  221POPC   C1B 3142   1.366   0.630   4.743
  221POPC   C2B 3143   1.618   0.536   5.127
  221POPC   C3B 3144   1.610   0.329   5.548
  221POPC   C4B 3145   1.422   0.562   5.881
  222POPC   NC3 3146   1.561   8.769   4.119
  222POPC   PO4 3147   0.906   8.814   3.887
  222POPC   GL1 3148   1.050   8.681   4.265
  222POPC   GL2 3149   1.115   9.009   4.362
  222POPC   C1A 3150   1.224   8.572   4.678
  222POPC   D2A 3151   1.026   8.649   5.078
  222POPC   C3A 3152   1.238   8.534   5.457
  222POPC   C4A 3153   1.379   8.655   5.867
  222POPC   C1B 3154   1.363   9.068   4.734
  222POPC   C2B 3155   1.343   9.045   5.182
  222POPC   C3B 3156   1.014   8.998   5.476
  222POPC   C4B 3157   1.169   9.125   5.848
  223POPC   NC3 3158   9.960   0.623   3.881
  223POPC   PO4 3159   9.750  11.451   3.870
  223POPC   GL1 3160   9.735   0.265   4.197
  223POPC   GL2 3161   9.401   0.319   4.213
  223POPC   C1A 3162   9.680   0.326   4.652
  223POPC   D2A 3163   9.918   0.341   4.998
  223POPC   C3A 3164   9.716   0.398   5.358
  223POPC   C4A 3165   9.822   0.444   5.764
  223POPC   C1B 3166   9.252   0.557   4.557
  223POPC   C2B 3167   9.296   0.460   5.010
  223POPC   C3B 3168   9.323   0.706   5.409
  223POPC   C4B 3169   9.365   0.631   5.817
  224POPC   NC3 3170   8.088   2.939   4.015
  224POPC   PO4 3171   7.884   2.339   3.643
  224POPC   GL1 3172   8.143   2.440   4.053
  224POPC   GL2 3173   7.961   2.472   4.334
  224POPC   C1A 3174   8.447   2.541   4.444
  224POPC   D2A 3175   8.514   2.816   4.830
  224POPC   C3A 3176   8.528   2.736   5.317
  224POPC   C4A 3177   8.380   2.586   5.749
  224POPC   C1B 3178   7.974   2.723   4.691
  224POPC   C2B 3179   8.003   2.963   5.052
  224POPC   C3B 3180   8.068   2.901   5.486
  224POPC   C4B 3181   7.870   2.787   5.872
  225POPC   NC3 3182   7.498   0.881   3.902
  225POPC   PO4 3183   7.586   1.604   3.927
  225POPC   GL1 3184   7.532   1.367   4.334
  225POPC   GL2 3185   7.448   1.005   4.407
  225POPC   C1A 3186   7.522   1.311   4.794
  225POPC   D2A 3187   7.586   1.321   5.228
  225POPC   C3A 3188   7.562   1.129   5.610
  225POPC   C4A 3189   7.616   1.478   5.811
  225POPC   C1B 3190   7.048   1.144   4.688
  225POPC   C2B 3191   6.899   1.363   5.074
  225POPC   C3B 3192   7.096   1.251   5.456
  225POPC   C4B 3193   7.074   0.972   5.826
  226POPC   NC3 3194  10.292   4.901   3.828
  226POPC   PO4 3195  10.793   5.386   3.966
  226POPC   GL1 3196  10.560   5.063   4.236
  226POPC   GL2 3197  10.146   5.007   4.297
  226POPC   C1A 3198  10.618   5.105   4.694
  226POPC   D2A 3199  10.445   5.241   5.098
  226POPC   C3A 3200  10.640   5.274   5.497
  226POPC   C4A 3201  10.416   5.166   5.875
  226POPC   C1B 3202  10.316   4.706   4.564
  226POPC   C2B 3203  10.328   4.749   5.018
  226POPC   C3B 3204  10.235   4.930   5.440
  226POPC   C4B 3205  10.020   4.776   5.770
  227POPC   NC3 3206   2.145   4.279   3.978
  227POPC   PO4 3207   1.534   4.148   3.760
  227POPC   GL1 3208   1.645   4.044   4.238
  227POPC   GL2 3209   1.829   4.296   4.367
  227POPC   C1A 3210   1.574   4.123   4.756
  227POPC   D2A 3211   1.758   4.401   5.170
  227POPC   C3A 3212   1.670   4.177   5.598
  227POPC   C4A 3213   1.879   4.082   6.010
  227POPC   C1B 3214   2.070   4.234   4.754
  227POPC   C2B 3215   2.242   4.196   5.144
  227POPC   C3B 3216   2.186   4.154   5.555
  227POPC   C4B 3217   2.343   4.279   5.959
  228POPC   NC3 3218  11.049   4.255   3.926
  228POPC   PO4 3219  11.468   4.745   3.942
  228POPC   GL1 3220  11.493   4.536   4.305
  228POPC   GL2 3221  11.126   4.547   4.353
  228POPC   C1A 3222   0.185   4.447   4.711
  228POPC   D2A 3223   0.204   4.382   5.162
  228POPC   C3A 3224  11.311   4.377   5.396
  228POPC   C4A 3225  11.145   4.589   5.776
  228POPC   C1B 3226  11.274   4.142   4.564
  228POPC   C2B 3227  11.424   3.986   4.976
  228POPC   C3B 3228  11.287   3.847   5.385
  228POPC   C4B 3229  11.151   4.052   5.766
  229POPC   NC3 3230   3.465   5.739   3.991
  229POPC   PO4 3231   3.931   5.587   4.249
  229POPC   GL1 3232   3.626   5.788   4.536
  229POPC   GL2 3233   3.375   6.016   4.419
  229POPC   C1A 3234   3.524   5.910   4.992
  229POPC   D2A 3235   3.606   5.746   5.442
  229POPC   C3A 3236   3.754   6.037   5.772
  229POPC   C4A 3237   3.677   6.091   6.203
  229POPC   C1B 3238   3.144   5.697   4.692
  229POPC   C2B 3239   3.125   5.624   5.156
  229POPC   C3B 3240   3.150   5.587   5.601
  229POPC   C4B 3241   3.273   5.893   5.864
  230POPC   NC3 3242   9.107   2.911   3.856
  230POPC   PO4 3243   8.507   3.143   3.987
  230POPC   GL1 3244   8.791   2.888   4.261
  230POPC   GL2 3245   8.893   2.516   4.143
  230POPC   C1A 3246   8.989   3.032   4.646
  230POPC   D2A 3247   8.946   3.303   5.000
  230POPC   C3A 3248   8.942   3.088   5.385
  230POPC   C4A 3249   8.741   2.955   5.756
  230POPC   C1B 3250   8.967   2.516   4.602
  230POPC   C2B 3251   8.972   2.679   5.038
  230POPC   C3B 3252   9.043   2.596   5.485
  230POPC   C4B 3253   8.932   2.512   5.929
  231POPC   NC3 3254   9.991   3.141   4.100
  231POPC   PO4 3255  10.234   2.470   3.954
  231POPC   GL1 3256  10.417   2.589   4.324
  231POPC   GL2 3257  10.772   2.577   4.272
  231POPC   C1A 3258  10.307   2.824   4.691
  231POPC   D2A 3259  10.387   2.720   5.127
  231POPC   C3A 3260  10.410   2.984   5.498
  231POPC   C4A 3261  10.243   2.784   5.855
  231POPC   C1B 3262  10.741   2.556   4.739
  231POPC   C2B 3263  10.780   2.402   5.156
  231POPC   C3B 3264  10.730   2.593   5.593
  231POPC   C4B 3265  10.723   2.801   6.007
  232POPC   NC3 3266   1.706   7.460   3.984
  232POPC   PO4 3267   2.335   7.583   3.943
  232POPC   GL1 3268   2.103   7.500   4.287
  232POPC   GL2 3269   2.015   7.158   4.235
  232POPC   C1A 3270   2.081   7.344   4.690
  232POPC   D2A 3271   1.786   7.383   4.961
  232POPC   C3A 3272   2.021   7.538   5.288
  232POPC   C4A 3273   2.222   7.697   5.657
  232POPC   C1B 3274   1.664   7.064   4.559
  232POPC   C2B 3275   1.629   6.870   4.965
  232POPC   C3B 3276   1.836   7.022   5.333
  232POPC   C4B 3277   1.967   7.250   5.712
  233POPC   NC3 3278   0.438   8.787   3.957
  233POPC   PO4 3279   0.090   8.329   4.308
  233POPC   GL1 3280   0.301   8.728   4.494
  233POPC   GL2 3281   0.603   8.925   4.405
  233POPC   C1A 3282   0.243   9.082   4.774
  233POPC   D2A 3283   0.050   9.178   5.166
  233POPC   C3A 3284   0.205   8.875   5.436
  233POPC   C4A 3285   0.219   8.644   5.832
  233POPC   C1B 3286   0.787   9.052   4.800
  233POPC   C2B 3287   0.580   9.155   5.206
  233POPC   C3B 3288   0.553   9.166   5.668
  233POPC   C4B 3289   0.735   8.830   5.906
  234POPC   NC3 3290   3.493   9.107   3.938
  234POPC   PO4 3291   2.985   8.695   4.072
  234POPC   GL1 3292   3.374   8.763   4.342
  234POPC   GL2 3293   3.486   9.080   4.461
  234POPC   C1A 3294   3.542   8.656   4.779
  234POPC   D2A 3295   3.720   8.644   5.220
  234POPC   C3A 3296   3.449   8.584   5.608
  234POPC   C4A 3297   3.438   8.376   6.031
  234POPC   C1B 3298   3.221   9.044   4.856
  234POPC   C2B 3299   3.311   8.968   5.278
  234POPC   C3B 3300   3.539   9.090   5.665
  234POPC   C4B 3301   3.355   9.039   6.067
  235POPC   NC3 3302   2.626   2.661   3.802
  235POPC   PO4 3303   3.162   2.185   3.811
  235POPC   GL1 3304   2.864   2.378   4.168
  235POPC   GL2 3305   2.879   2.746   4.280
  235POPC   C1A 3306   2.602   2.502   4.592
  235POPC   D2A 3307   2.819   2.591   5.006
  235POPC   C3A 3308   2.650   2.611   5.419
  235POPC   C4A 3309   2.844   2.705   5.807
  235POPC   C1B 3310   2.898   2.989   4.715
  235POPC   C2B 3311   2.628   3.066   5.149
  235POPC   C3B 3312   2.524   3.052   5.622
  235POPC   C4B 3313   2.569   2.984   6.113
  236POPC   NC3 3314   1.860   0.311   3.883
  236POPC   PO4 3315   1.632  11.135   4.091
  236POPC   GL1 3316   1.624   0.064   4.321
  236POPC   GL2 3317   1.653   0.470   4.312
  236POPC   C1A 3318   1.741   0.220   4.740
  236POPC   D2A 3319   2.106   0.105   4.960
  236POPC   C3A 3320   1.991  11.498   5.351
  236POPC   C4A 3321   2.167   0.142   5.712
  236POPC   C1B 3322   2.092   0.519   4.526
  236POPC   C2B 3323   2.175   0.622   4.968
  236POPC   C3B 3324   2.070   0.532   5.388
  236POPC   C4B 3325   2.388   0.625   5.695
  237POPC   NC3 3326   1.878   2.746   3.937
  237POPC   PO4 3327   2.375   3.050   3.757
  237POPC   GL1 3328   2.396   2.904   4.212
  237POPC   GL2 3329   2.110   2.737   4.384
  237POPC   C1A 3330   2.393   2.987   4.692
  237POPC   D2A 3331   2.313   2.650   4.995
  237POPC   C3A 3332   2.151   2.732   5.387
  237POPC   C4A 3333   2.199   2.755   5.839
  237POPC   C1B 3334   1.846   2.680   4.765
  237POPC   C2B 3335   1.502   2.464   4.984
  237POPC   C3B 3336   1.420   2.536   5.417
  237POPC   C4B 3337   1.743   2.675   5.680
  238POPC   NC3 3338   0.258   0.165   4.097
  238POPC   PO4 3339   0.434   0.769   3.864
  238POPC   GL1 3340   0.632   0.700   4.289
  238POPC   GL2 3341   0.656   0.372   4.340
  238POPC   C1A 3342   0.630   0.602   4.761
  238POPC   D2A 3343   0.475   0.461   5.140
  238POPC   C3A 3344   0.653   0.641   5.470
  238POPC   C4A 3345   0.392   0.749   5.725
  238POPC   C1B 3346   0.565   0.055   4.677
  238POPC   C2B 3347   0.382  11.471   5.070
  238POPC   C3B 3348   0.341   0.064   5.515
  238POPC   C4B 3349   0.507   0.278   5.852
  239POPC   NC3 3350   1.918   9.544   3.888
  239POPC   PO4 3351   2.504   9.645   4.158
  239POPC   GL1 3352   2.090   9.737   4.357
  239POPC   GL2 3353   1.738   9.863   4.236
  239POPC   C1A 3354   2.050   9.611   4.788
  239POPC   D2A 3355   2.298   9.539   5.103
  239POPC   C3A 3356   2.272   9.914   5.347
  239POPC   C4A 3357   2.041   9.694   5.657
  239POPC   C1B 3358   1.606   9.576   4.574
  239POPC   C2B 3359   1.510   9.494   4.979
  239POPC   C3B 3360   1.667   9.474   5.371
  239POPC   C4B 3361   1.528   9.516   5.759
  240POPC   NC3 3362   0.418   1.934   4.175
  240POPC   PO4 3363  11.499   2.364   3.830
  240POPC   GL1 3364   0.214   2.382   4.331
  240POPC   GL2 3365   0.548   2.256   4.528
  240POPC   C1A 3366   0.182   2.399   4.822
  240POPC   D2A 3367   0.341   2.360   5.243
  240POPC   C3A 3368   0.275   1.969   5.468
  240POPC   C4A 3369   0.088   1.879   5.876
  240POPC   C1B 3370   0.369   1.910   4.840
  240POPC   C2B 3371   0.539   1.636   5.190
  240POPC   C3B 3372   0.770   1.828   5.562
  240POPC   C4B 3373   0.640   2.239   5.732
  241POPC   NC3 3374   9.152   7.462   3.930
  241POPC   PO4 3375   8.667   7.810   4.068
  241POPC   GL1 3376   8.879   7.544   4.366
  241POPC   GL2 3377   9.025   7.198   4.416
  241POPC   C1A 3378   8.922   7.612   4.771
  241POPC   D2A 3379   8.802   7.539   5.189
  241POPC   C3A 3380   9.063   7.380   5.503
  241POPC   C4A 3381   8.876   7.303   5.931
  241POPC   C1B 3382   8.965   7.110   4.898
  241POPC   C2B 3383   8.929   6.904   5.347
  241POPC   C3B 3384   8.905   6.787   5.813
  241POPC   C4B 3385   9.094   6.895   6.257
  242POPC   NC3 3386   2.894  10.837   3.891
  242POPC   PO4 3387   2.397  11.378   3.907
  242POPC   GL1 3388   2.582  11.115   4.203
  242POPC   GL2 3389   2.916  11.165   4.271
  242POPC   C1A 3390   2.581  11.282   4.634
  242POPC   D2A 3391   2.772  11.399   5.032
  242POPC   C3A 3392   2.515  11.318   5.393
  242POPC   C4A 3393   2.719  11.112   5.696
  242POPC   C1B 3394   2.902  10.886   4.592
  242POPC   C2B 3395   2.982  10.907   5.019
  242POPC   C3B 3396   3.142  10.858   5.427
  242POPC   C4B 3397   3.054  10.766   5.824
  243POPC   NC3 3398   6.459   2.059   3.922
  243POPC   PO4 3399   6.483   1.356   3.833
  243POPC   GL1 3400   6.473   1.597   4.204
  243POPC   GL2 3401   6.780   1.783   4.281
  243POPC   C1A 3402   6.332   1.678   4.620
  243POPC   D2A 3403   6.266   1.589   5.054
  243POPC   C3A 3404   6.580   1.755   5.353
  243POPC   C4A 3405   6.489   1.876   5.778
  243POPC   C1B 3406   6.967   1.911   4.696
  243POPC   C2B 3407   6.978   2.050   5.164
  243POPC   C3B 3408   6.762   2.244   5.503
  243POPC   C4B 3409   6.554   2.396   5.867
  244POPC   NC3 3410   9.485   1.389   3.762
  244POPC   PO4 3411   9.504   0.721   3.890
  244POPC   GL1 3412   9.673   0.975   4.240
  244POPC   GL2 3413   9.375   1.114   4.411
  244POPC   C1A 3414   9.792   1.077   4.682
  244POPC   D2A 3415   9.653   0.817   4.995
  244POPC   C3A 3416   9.802   0.927   5.374
  244POPC   C4A 3417   9.760   0.942   5.773
  244POPC   C1B 3418   9.393   1.387   4.789
  244POPC   C2B 3419   9.560   1.331   5.166
  244POPC   C3B 3420   9.425   1.239   5.542
  244POPC   C4B 3421   9.551   1.374   5.942
  245POPC   NC3 3422   8.056   8.703   3.679
  245POPC   PO4 3423   8.237   9.229   3.723
  245POPC   GL1 3424   8.159   8.981   4.157
  245POPC   GL2 3425   7.882   9.097   4.314
  245POPC   C1A 3426   8.236   9.020   4.667
  245POPC   D2A 3427   7.972   9.019   5.016
  245POPC   C3A 3428   8.255   8.996   5.390
  245POPC   C4A 3429   8.184   9.134   5.819
  245POPC   C1B 3430   7.870   8.678   4.601
  245POPC   C2B 3431   7.749   8.543   5.033
  245POPC   C3B 3432   7.905   8.444   5.447
  245POPC   C4B 3433   8.222   8.619   5.734
  246POPC   NC3 3434   7.559   8.135   4.028
  246POPC   PO4 3435   7.123   7.682   3.875
  246POPC   GL1 3436   7.175   7.928   4.320
  246POPC   GL2 3437   7.196   8.319   4.338
  246POPC   C1A 3438   7.195   8.055   4.799
  246POPC   D2A 3439   7.499   8.114   5.173
  246POPC   C3A 3440   7.372   7.973   5.598
  246POPC   C4A 3441   7.298   7.909   6.067
  246POPC   C1B 3442   7.340   8.549   4.715
  246POPC   C2B 3443   7.213   8.534   5.126
  246POPC   C3B 3444   7.392   8.514   5.525
  246POPC   C4B 3445   7.140   8.347   5.861
  247POPC   NC3 3446   4.312   2.341   3.945
  247POPC   PO4 3447   4.140   1.713   3.711
  247POPC   GL1 3448   4.146   1.901   4.142
  247POPC   GL2 3449   4.451   1.932   4.360
  247POPC   C1A 3450   3.966   1.896   4.562
  247POPC   D2A 3451   4.041   2.166   4.929
  247POPC   C3A 3452   4.053   1.937   5.320
  247POPC   C4A 3453   4.095   1.648   5.692
  247POPC   C1B 3454   4.385   1.779   4.826
  247POPC   C2B 3455   4.418   1.579   5.236
  247POPC   C3B 3456   4.565   1.803   5.574
  247POPC   C4B 3457   4.338   2.213   5.645
  248POPC   NC3 3458  10.857   0.382   4.253
  248POPC   PO4 3459  10.430   0.696   3.805
  248POPC   GL1 3460  10.421   0.625   4.245
  248POPC   GL2 3461  10.252   0.317   4.305
  248POPC   C1A 3462  10.508   0.565   4.728
  248POPC   D2A 3463  10.436   0.312   5.080
  248POPC   C3A 3464  10.677   0.516   5.377
  248POPC   C4A 3465  10.590   0.442   5.773
  248POPC   C1B 3466  10.046   0.661   4.582
  248POPC   C2B 3467  10.164   0.774   5.034
  248POPC   C3B 3468  10.193   0.628   5.456
  248POPC   C4B 3469  10.215   0.772   5.886
  249POPC   NC3 3470   9.147   0.449   3.783
  249POPC   PO4 3471   8.759  11.388   3.756
  249POPC   GL1 3472   9.043  11.460   4.152
  249POPC   GL2 3473   8.882   0.242   4.322
  249POPC   C1A 3474   9.196   0.019   4.660
  249POPC   D2A 3475   9.016   0.028   5.141
  249POPC   C3A 3476   9.225   0.204   5.532
  249POPC   C4A 3477   9.180   0.220   6.019
  249POPC   C1B 3478   8.820   0.347   4.787
  249POPC   C2B 3479   8.844   0.580   5.210
  249POPC   C3B 3480   8.866   0.557   5.680
  249POPC   C4B 3481   8.683   0.804   6.010
  250POPC   NC3 3482   7.840   2.000   3.954
  250POPC   PO4 3483   8.442   1.671   3.833
  250POPC   GL1 3484   8.215   1.695   4.242
  250POPC   GL2 3485   8.189   2.019   4.341
  250POPC   C1A 3486   7.985   1.718   4.679
  250POPC   D2A 3487   8.088   1.901   5.114
  250POPC   C3A 3488   7.821   1.832   5.459
  250POPC   C4A 3489   7.756   1.963   5.875
  250POPC   C1B 3490   8.162   2.231   4.735
  250POPC   C2B 3491   8.089   2.456   5.125
  250POPC   C3B 3492   7.972   2.337   5.540
  250POPC   C4B 3493   8.251   2.049   5.720
  251POPC   NC3 3494   2.956   8.498   3.670
  251POPC   PO4 3495   2.309   8.502   3.920
  251POPC   GL1 3496   2.390   8.338   4.377
  251POPC   GL2 3497   2.328   7.953   4.406
  251POPC   C1A 3498   2.520   8.323   4.867
  251POPC   D2A 3499   2.836   8.179   5.236
  251POPC   C3A 3500   3.043   8.210   5.683
  251POPC   C4A 3501   2.858   8.232   6.127
  251POPC   C1B 3502   2.328   7.809   4.856
  251POPC   C2B 3503   2.349   8.015   5.270
  251POPC   C3B 3504   2.548   8.072   5.705
  251POPC   C4B 3505   2.430   7.896   6.116
  252POPC   NC3 3506   6.535   3.617   4.039
  252POPC   PO4 3507   6.927   3.451   4.233
  252POPC   GL1 3508   6.630   3.612   4.549
  252POPC   GL2 3509   6.339   3.402   4.491
  252POPC   C1A 3510   6.415   3.635   4.979
  252POPC   D2A 3511   6.263   3.908   5.328
  252POPC   C3A 3512   6.566   3.897   5.664
  252POPC   C4A 3513   6.851   3.525   5.788
  252POPC   C1B 3514   6.622   3.167   4.793
  252POPC   C2B 3515   6.733   3.268   5.221
  252POPC   C3B 3516   6.435   3.434   5.496
  252POPC   C4B 3517   6.169   3.586   5.816
  253POPC   NC3 3518   8.180   9.661   3.938
  253POPC   PO4 3519   7.609   9.956   4.001
  253POPC   GL1 3520   7.928   9.883   4.332
  253POPC   GL2 3521   8.282   9.838   4.419
  253POPC   C1A 3522   7.989  10.071   4.762
  253POPC   D2A 3523   7.920   9.821   5.122
  253POPC   C3A 3524   7.691   9.838   5.493
  253POPC   C4A 3525   7.684   9.914   5.934
  253POPC   C1B 3526   8.109   9.556   4.732
  253POPC   C2B 3527   8.252   9.427   5.103
  253POPC   C3B 3528   7.995   9.431   5.462
  253POPC   C4B 3529   8.131   9.683   5.801
  254POPC   NC3 3530   9.462   9.832   3.801
  254POPC   PO4 3531   9.107   9.342   4.038
  254POPC   GL1 3532   9.293   9.656   4.288
  254POPC   GL2 3533   9.679   9.715   4.327
  254POPC   C1A 3534   9.225   9.664   4.713
  254POPC   D2A 3535   9.243   9.383   5.079
  254POPC   C3A 3536   9.215   9.537   5.515
  254POPC   C4A 3537   9.415   9.547   5.925
  254POPC   C1B 3538   9.885   9.672   4.782
  254POPC   C2B 3539   9.885   9.644   5.254
  254POPC   C3B 3540  10.005   9.477   5.653
  254POPC   C4B 3541   9.974   9.433   6.121
  255POPC   NC3 3542   5.240   0.975   4.008
  255POPC   PO4 3543   5.128   1.570   3.658
  255POPC   GL1 3544   5.013   1.397   4.153
  255POPC   GL2 3545   4.787   1.080   4.239
  255POPC   C1A 3546   5.087   1.265   4.604
  255POPC   D2A 3547   5.198   1.402   5.015
  255POPC   C3A 3548   4.885   1.367   5.340
  255POPC   C4A 3549   4.898   1.376   5.779
  255POPC   C1B 3550   4.764   0.851   4.634
  255POPC   C2B 3551   4.978   0.927   5.027
  255POPC   C3B 3552   5.079   0.913   5.445
  255POPC   C4B 3553   5.164   0.968   5.876
  256POPC   NC3 3554   0.195   8.020   3.981
  256POPC   PO4 3555   0.866   7.784   3.993
  256POPC   GL1 3556   0.596   8.009   4.311
  256POPC   GL2 3557   0.610   8.374   4.261
  256POPC   C1A 3558   0.450   8.055   4.754
  256POPC   D2A 3559   0.188   7.915   5.105
  256POPC   C3A 3560   0.383   8.073   5.486
  256POPC   C4A 3561   0.501   7.840   5.845
  256POPC   C1B 3562   0.721   8.498   4.670
  256POPC   C2B 3563   0.507   8.652   5.039
  256POPC   C3B 3564   0.629   8.583   5.473
  256POPC   C4B 3565   0.619   8.335   5.887
  257POPC   NC3 3566  10.196   7.331   4.228
  257POPC   PO4 3567   9.614   7.526   3.916
  257POPC   GL1 3568   9.722   7.505   4.350
  257POPC   GL2 3569   9.400   7.543   4.375
  257POPC   C1A 3570   9.915   7.445   4.807
  257POPC   D2A 3571  10.101   7.466   5.235
  257POPC   C3A 3572   9.824   7.641   5.525
  257POPC   C4A 3573   9.660   7.518   5.940
  257POPC   C1B 3574   9.388   7.398   4.774
  257POPC   C2B 3575   9.496   7.439   5.187
  257POPC   C3B 3576   9.586   7.183   5.533
  257POPC   C4B 3577   9.321   7.101   5.849
  258POPC   NC3 3578   8.315  11.129   3.666
  258POPC   PO4 3579   8.819  10.965   4.094
  258POPC   GL1 3580   8.804  11.148   4.465
  258POPC   GL2 3581   9.124  11.050   4.488
  258POPC   C1A 3582   8.624  11.374   4.811
  258POPC   D2A 3583   8.597  11.223   5.245
  258POPC   C3A 3584   8.653   0.014   5.585
  258POPC   C4A 3585   8.804  11.404   5.994
  258POPC   C1B 3586   9.003  11.059   4.916
  258POPC   C2B 3587   9.133  10.952   5.265
  258POPC   C3B 3588   9.082  11.209   5.590
  258POPC   C4B 3589   9.326  11.239   5.965
  259POPC   NC3 3590   1.686   6.607   3.792
  259POPC   PO4 3591   2.185   6.247   3.735
  259POPC   GL1 3592   1.921   6.340   4.148
  259POPC   GL2 3593   1.889   6.673   4.252
  259POPC   C1A 3594   1.819   6.304   4.635
  259POPC   D2A 3595   1.722   6.174   5.085
  259POPC   C3A 3596   1.923   6.303   5.507
  259POPC   C4A 3597   2.285   6.383   5.822
  259POPC   C1B 3598   2.054   6.764   4.673
  259POPC   C2B 3599   2.086   6.605   5.095
  259POPC   C3B 3600   2.227   6.760   5.501
  259POPC   C4B 3601   1.894   6.757   5.799
  260POPC   NC3 3602  11.173   5.630   3.875
  260POPC   PO4 3603  10.750   6.189   3.986
  260POPC   GL1 3604  10.916   5.851   4.272
  260POPC   GL2 3605  11.277   5.793   4.345
  260POPC   C1A 3606  10.928   5.714   4.719
  260POPC   D2A 3607  10.724   5.657   5.121
  260POPC   C3A 3608  10.923   5.735   5.503
  260POPC   C4A 3609  10.800   5.569   5.882
  260POPC   C1B 3610  11.464   5.931   4.732
  260POPC   C2B 3611  11.343   5.983   5.148
  260POPC   C3B 3612  11.424   5.836   5.561
  260POPC   C4B 3613  11.198   5.862   5.962
  261POPC   NC3 3614   5.033   9.285   4.017
  261POPC   PO4 3615   5.237  10.002   3.827
  261POPC   GL1 3616   5.125   9.745   4.194
  261POPC   GL2 3617   5.245   9.489   4.436
  261POPC   C1A 3618   4.961   9.878   4.606
  261POPC   D2A 3619   4.991   9.714   5.024
  261POPC   C3A 3620   4.949   9.925   5.407
  261POPC   C4A 3621   5.003   9.717   5.798
  261POPC   C1B 3622   4.867   9.338   4.706
  261POPC   C2B 3623   4.719   9.275   5.159
  261POPC   C3B 3624   4.712   9.293   5.638
  261POPC   C4B 3625   4.681   9.378   6.102
  262POPC   NC3 3626  10.867   6.643   3.951
  262POPC   PO4 3627  11.350   6.989   3.989
  262POPC   GL1 3628  11.199   6.778   4.330
  262POPC   GL2 3629  11.207   6.418   4.272
  262POPC   C1A 3630  11.304   6.716   4.726
  262POPC   D2A 3631  11.212   6.494   5.056
  262POPC   C3A 3632  11.188   6.738   5.416
  262POPC   C4A 3633  11.319   7.010   5.745
  262POPC   C1B 3634  11.044   6.218   4.626
  262POPC   C2B 3635  10.858   6.137   5.016
  262POPC   C3B 3636  10.991   6.227   5.438
  262POPC   C4B 3637  11.201   6.336   5.797
  263POPC   NC3 3638  11.125   7.427   3.869
  263POPC   PO4 3639  10.547   6.964   3.776
  263POPC   GL1 3640  10.859   7.122   4.171
  263POPC   GL2 3641  11.074   7.423   4.353
  263POPC   C1A 3642  10.942   7.076   4.683
  263POPC   D2A 3643  10.815   7.019   5.126
  263POPC   C3A 3644  10.886   7.170   5.530
  263POPC   C4A 3645  10.862   7.046   5.983
  263POPC   C1B 3646  11.411   7.248   4.638
  263POPC   C2B 3647  11.332   7.138   5.084
  263POPC   C3B 3648  11.342   7.419   5.456
  263POPC   C4B 3649  11.096   7.511   5.859
  264POPC   NC3 3650   5.325  10.639   4.040
  264POPC   PO4 3651   5.971  10.618   4.073
  264POPC   GL1 3652   5.826  10.496   4.407
  264POPC   GL2 3653   6.011  10.183   4.352
  264POPC   C1A 3654   5.709  10.686   4.813
  264POPC   D2A 3655   5.546  10.806   5.243
  264POPC   C3A 3656   5.657  10.572   5.621
  264POPC   C4A 3657   5.747  10.662   6.054
  264POPC   C1B 3658   5.834  10.167   4.774
  264POPC   C2B 3659   5.754  10.314   5.164
  264POPC   C3B 3660   5.822  10.097   5.502
  264POPC   C4B 3661   5.827  10.175   5.910
  265POPC   NC3 3662   0.130   3.443   3.983
  265POPC   PO4 3663  11.116   3.811   3.879
  265POPC   GL1 3664  11.205   3.527   4.221
  265POPC   GL2 3665  10.946   3.363   4.345
  265POPC   C1A 3666  11.411   3.327   4.594
  265POPC   D2A 3667  11.218   3.195   4.983
  265POPC   C3A 3668  11.349   3.265   5.416
  265POPC   C4A 3669  11.452   3.177   5.859
  265POPC   C1B 3670  11.071   3.678   4.689
  265POPC   C2B 3671  10.923   3.619   5.088
  265POPC   C3B 3672  10.880   3.539   5.498
  265POPC   C4B 3673  11.117   3.551   5.854
  266POPC   NC3 3674   1.192  11.318   4.006
  266POPC   PO4 3675   1.007  10.698   3.808
  266POPC   GL1 3676   1.062  10.881   4.297
  266POPC   GL2 3677   1.078  11.256   4.468
  266POPC   C1A 3678   1.198  10.874   4.783
  266POPC   D2A 3679   1.033  10.815   5.212
  266POPC   C3A 3680   1.126  10.928   5.650
  266POPC   C4A 3681   1.495  10.874   5.937
  266POPC   C1B 3682   1.372  11.369   4.734
  266POPC   C2B 3683   1.405   0.048   5.125
  266POPC   C3B 3684   1.248  11.417   5.511
  266POPC   C4B 3685   1.285  11.487   5.935
  267POPC   NC3 3686   1.477   4.994   3.771
  267POPC   PO4 3687   0.921   5.353   3.757
  267POPC   GL1 3688   1.055   5.353   4.206
  267POPC   GL2 3689   1.289   5.088   4.234
  267POPC   C1A 3690   1.280   5.394   4.637
  267POPC   D2A 3691   1.123   5.381   5.070
  267POPC   C3A 3692   1.333   5.445   5.452
  267POPC   C4A 3693   1.481   5.162   5.787
  267POPC   C1B 3694   1.201   4.870   4.625
  267POPC   C2B 3695   0.987   4.888   5.023
  267POPC   C3B 3696   1.117   4.966   5.441
  267POPC   C4B 3697   0.975   4.862   5.854
  268POPC   NC3 3698   1.136   6.744   4.073
  268POPC   PO4 3699   1.473   6.191   3.852
  268POPC   GL1 3700   1.409   6.265   4.302
  268POPC   GL2 3701   1.430   6.600   4.462
  268POPC   C1A 3702   1.166   6.223   4.723
  268POPC   D2A 3703   1.250   6.390   5.153
  268POPC   C3A 3704   1.035   6.338   5.550
  268POPC   C4A 3705   1.420   6.526   5.716
  268POPC   C1B 3706   1.139   6.735   4.787
  268POPC   C2B 3707   1.156   6.937   5.181
  268POPC   C3B 3708   1.020   6.837   5.572
  268POPC   C4B 3709   1.040   6.989   5.952
  269POPC   NC3 3710   0.557   5.264   4.053
  269POPC   PO4 3711   0.737   4.547   3.912
  269POPC   GL1 3712   0.477   4.770   4.232
  269POPC   GL2 3713   0.791   4.908   4.335
  269POPC   C1A 3714   0.391   4.955   4.680
  269POPC   D2A 3715   0.492   4.792   5.132
  269POPC   C3A 3716   0.494   4.957   5.561
  269POPC   C4A 3717   0.440   4.859   6.021
  269POPC   C1B 3718   0.806   5.232   4.672
  269POPC   C2B 3719   0.622   5.283   5.094
  269POPC   C3B 3720   0.796   5.363   5.496
  269POPC   C4B 3721   0.705   5.272   5.916
  270POPC   NC3 3722   6.510   0.888   3.748
  270POPC   PO4 3723   7.051   0.937   4.081
  270POPC   GL1 3724   6.641   0.804   4.276
  270POPC   GL2 3725   6.327   1.040   4.220
  270POPC   C1A 3726   6.636   0.691   4.730
  270POPC   D2A 3727   6.878   0.845   5.089
  270POPC   C3A 3728   6.693   0.885   5.492
  270POPC   C4A 3729   6.426   0.936   5.844
  270POPC   C1B 3730   6.495   1.184   4.639
  270POPC   C2B 3731   6.442   1.118   5.090
  270POPC   C3B 3732   6.367   1.314   5.486
  270POPC   C4B 3733   6.704   1.393   5.730
  271POPC   NC3 3734  10.259   7.345   3.676
  271POPC   PO4 3735  10.576   7.590   4.180
  271POPC   GL1 3736  10.584   7.374   4.530
  271POPC   GL2 3737  10.486   7.006   4.477
  271POPC   C1A 3738  10.463   7.323   4.901
  271POPC   D2A 3739  10.640   7.533   5.208
  271POPC   C3A 3740  10.508   7.516   5.598
  271POPC   C4A 3741  10.670   7.844   5.815
  271POPC   C1B 3742  10.233   6.869   4.788
  271POPC   C2B 3743  10.304   6.945   5.208
  271POPC   C3B 3744  10.398   7.017   5.587
  271POPC   C4B 3745  10.062   7.247   5.735
  272POPC   NC3 3746   9.557   7.998   3.958
  272POPC   PO4 3747  10.105   7.790   3.652
  272POPC   GL1 3748  10.034   7.854   4.126
  272POPC   GL2 3749   9.966   8.229   4.206
  272POPC   C1A 3750   9.867   7.919   4.594
  272POPC   D2A 3751   9.691   7.887   5.027
  272POPC   C3A 3752   9.779   8.147   5.421
  272POPC   C4A 3753   9.813   8.012   5.860
  272POPC   C1B 3754   9.600   8.363   4.516
  272POPC   C2B 3755   9.335   8.358   4.911
  272POPC   C3B 3756   9.301   8.319   5.347
  272POPC   C4B 3757   9.387   8.260   5.770
  273POPC   NC3 3758   0.951   9.293   3.902
  273POPC   PO4 3759   1.612   9.211   4.027
  273POPC   GL1 3760   1.278   9.473   4.228
  273POPC   GL2 3761   1.218   9.802   4.244
  273POPC   C1A 3762   1.083   9.509   4.651
  273POPC   D2A 3763   0.922   9.503   5.059
  273POPC   C3A 3764   1.138   9.499   5.428
  273POPC   C4A 3765   0.884   9.544   5.794
  273POPC   C1B 3766   1.298   9.980   4.629
  273POPC   C2B 3767   1.229   9.909   5.046
  273POPC   C3B 3768   1.348   9.979   5.455
  273POPC   C4B 3769   1.199   9.931   5.857
  274POPC   NC3 3770   0.557   6.084   3.780
  274POPC   PO4 3771   0.684   6.776   3.965
  274POPC   GL1 3772   0.431   6.448   4.155
  274POPC   GL2 3773   0.657   6.202   4.292
  274POPC   C1A 3774   0.182   6.388   4.558
  274POPC   D2A 3775   0.239   6.587   4.989
  274POPC   C3A 3776   0.077   6.386   5.390
  274POPC   C4A 3777   0.115   6.610   5.757
  274POPC   C1B 3778   0.693   6.479   4.655
  274POPC   C2B 3779   0.745   6.429   5.102
  274POPC   C3B 3780   0.565   6.537   5.504
  274POPC   C4B 3781   0.532   6.914   5.764
  275POPC   NC3 3782   4.825  10.216   3.716
  275POPC   PO4 3783   4.894  10.817   4.015
  275POPC   GL1 3784   4.797  10.465   4.220
  275POPC   GL2 3785   5.077  10.244   4.236
  275POPC   C1A 3786   4.854  10.392   4.663
  275POPC   D2A 3787   4.717  10.162   4.990
  275POPC   C3A 3788   4.734  10.404   5.334
  275POPC   C4A 3789   4.785  10.680   5.664
  275POPC   C1B 3790   5.357  10.291   4.598
  275POPC   C2B 3791   5.256  10.390   5.007
  275POPC   C3B 3792   5.224  10.403   5.430
  275POPC   C4B 3793   5.352  10.131   5.725
  276POPC   NC3 3794   4.595   2.873   3.960
  276POPC   PO4 3795   3.997   3.066   3.975
  276POPC   GL1 3796   4.206   2.723   4.286
  276POPC   GL2 3797   4.103   2.369   4.402
  276POPC   C1A 3798   4.395   2.598   4.730
  276POPC   D2A 3799   4.232   2.592   5.168
  276POPC   C3A 3800   4.500   2.682   5.537
  276POPC   C4A 3801   4.849   2.677   5.827
  276POPC   C1B 3802   3.879   2.625   4.702
  276POPC   C2B 3803   3.692   2.517   5.106
  276POPC   C3B 3804   3.880   2.405   5.484
  276POPC   C4B 3805   4.084   2.606   5.831
  277POPC   NC3 3806   8.710   4.636   3.862
  277POPC   PO4 3807   8.772   4.024   3.858
  277POPC   GL1 3808   8.981   3.898   4.254
  277POPC   GL2 3809   9.105   4.193   4.432
  277POPC   C1A 3810   8.844   3.824   4.703
  277POPC   D2A 3811   8.688   3.710   5.140
  277POPC   C3A 3812   8.745   3.854   5.582
  277POPC   C4A 3813   8.528   4.143   5.841
  277POPC   C1B 3814   9.015   4.326   4.865
  277POPC   C2B 3815   8.960   4.201   5.297
  277POPC   C3B 3816   9.055   4.281   5.745
  277POPC   C4B 3817   8.858   4.358   6.159
  278POPC   NC3 3818   1.063   2.977   4.050
  278POPC   PO4 3819   1.248   3.618   3.868
  278POPC   GL1 3820   1.371   3.588   4.282
  278POPC   GL2 3821   1.067   3.410   4.356
  278POPC   C1A 3822   1.449   3.495   4.721
  278POPC   D2A 3823   1.637   3.444   5.141
  278POPC   C3A 3824   1.457   3.699   5.450
  278POPC   C4A 3825   1.423   3.516   5.816
  278POPC   C1B 3826   0.996   3.229   4.769
  278POPC   C2B 3827   1.106   3.476   5.146
  278POPC   C3B 3828   0.979   3.630   5.572
  278POPC   C4B 3829   0.941   3.235   5.745
  279POPC   NC3 3830   3.140   1.126   3.725
  279POPC   PO4 3831   2.769   1.386   4.149
  279POPC   GL1 3832   2.803   1.106   4.442
  279POPC   GL2 3833   2.508   0.886   4.371
  279POPC   C1A 3834   2.918   1.196   4.893
  279POPC   D2A 3835   3.243   1.321   5.208
  279POPC   C3A 3836   3.074   1.258   5.639
  279POPC   C4A 3837   2.994   1.033   6.037
  279POPC   C1B 3838   2.343   1.237   4.609
  279POPC   C2B 3839   2.345   1.179   5.000
  279POPC   C3B 3840   2.624   1.264   5.359
  279POPC   C4B 3841   2.582   1.180   5.790
  280POPC   NC3 3842   3.793  11.271   3.951
  280POPC   PO4 3843   3.097  11.340   3.800
  280POPC   GL1 3844   3.345  11.399   4.196
  280POPC   GL2 3845   3.456  11.053   4.294
  280POPC   C1A 3846   3.215  11.358   4.674
  280POPC   D2A 3847   3.296   0.032   5.117
  280POPC   C3A 3848   3.129  11.362   5.503
  280POPC   C4A 3849   3.354  11.242   5.876
  280POPC   C1B 3850   3.416  10.873   4.699
  280POPC   C2B 3851   3.482  11.063   5.079
  280POPC   C3B 3852   3.613  11.050   5.494
  280POPC   C4B 3853   3.554  10.776   5.842
  281POPC   NC3 3854   5.112   8.151   3.870
  281POPC   PO4 3855   4.800   8.596   3.967
  281POPC   GL1 3856   4.950   8.382   4.324
  281POPC   GL2 3857   5.278   8.222   4.358
  281POPC   C1A 3858   4.984   8.368   4.778
  281POPC   D2A 3859   4.939   8.104   5.139
  281POPC   C3A 3860   4.920   8.310   5.545
  281POPC   C4A 3861   4.625   8.388   5.913
  281POPC   C1B 3862   5.308   7.951   4.760
  281POPC   C2B 3863   5.217   7.678   5.127
  281POPC   C3B 3864   5.166   7.841   5.549
  281POPC   C4B 3865   5.440   8.142   5.780
  282POPC   NC3 3866   6.932   0.412   4.032
  282POPC   PO4 3867   6.256   0.382   3.839
  282POPC   GL1 3868   6.449   0.243   4.283
  282POPC   GL2 3869   6.117   0.236   4.494
  282POPC   C1A 3870   6.838   0.193   4.631
  282POPC   D2A 3871   6.978   0.348   5.042
  282POPC   C3A 3872   6.861   0.106   5.398
  282POPC   C4A 3873   6.722  11.353   5.740
  282POPC   C1B 3874   6.385   0.250   4.856
  282POPC   C2B 3875   6.517   0.473   5.200
  282POPC   C3B 3876   6.344   0.496   5.553
  282POPC   C4B 3877   6.560   0.312   5.789
  283POPC   NC3 3878   7.890  10.517   3.882
  283POPC   PO4 3879   8.460  10.055   3.887
  283POPC   GL1 3880   8.436  10.285   4.261
  283POPC   GL2 3881   8.120  10.345   4.296
  283POPC   C1A 3882   8.448  10.285   4.719
  283POPC   D2A 3883   8.428   9.930   5.040
  283POPC   C3A 3884   8.213  10.058   5.454
  283POPC   C4A 3885   8.116  10.213   5.884
  283POPC   C1B 3886   7.997  10.577   4.628
  283POPC   C2B 3887   7.991  10.740   5.033
  283POPC   C3B 3888   8.148  10.600   5.462
  283POPC   C4B 3889   7.957  10.708   5.865
  284POPC   NC3 3890   2.499   5.922   3.808
  284POPC   PO4 3891   3.187   5.925   3.673
  284POPC   GL1 3892   2.966   5.892   4.131
  284POPC   GL2 3893   2.630   5.813   4.300
  284POPC   C1A 3894   2.901   6.126   4.586
  284POPC   D2A 3895   2.739   6.148   5.054
  284POPC   C3A 3896   2.876   6.002   5.488
  284POPC   C4A 3897   2.780   6.082   5.938
  284POPC   C1B 3898   2.587   5.745   4.763
  284POPC   C2B 3899   2.625   5.653   5.216
  284POPC   C3B 3900   2.637   5.557   5.660
  284POPC   C4B 3901   2.441   5.718   6.055
  285POPC   NC3 3902   1.851   5.920   3.820
  285POPC   PO4 3903   2.323   5.544   4.001
  285POPC   GL1 3904   2.030   5.584   4.300
  285POPC   GL2 3905   1.942   5.886   4.348
  285POPC   C1A 3906   1.784   5.408   4.615
  285POPC   D2A 3907   1.639   5.477   5.032
  285POPC   C3A 3908   1.787   5.746   5.372
  285POPC   C4A 3909   1.630   5.671   5.800
  285POPC   C1B 3910   2.042   5.838   4.782
  285POPC   C2B 3911   2.234   6.024   5.137
  285POPC   C3B 3912   2.334   5.951   5.550
  285POPC   C4B 3913   2.039   5.939   5.869
  286POPC   NC3 3914   7.189   9.875   4.186
  286POPC   PO4 3915   7.340  10.516   3.895
  286POPC   GL1 3916   7.186  10.560   4.338
  286POPC   GL2 3917   7.186  10.230   4.545
  286POPC   C1A 3918   7.094  10.660   4.790
  286POPC   D2A 3919   7.220  10.387   5.180
  286POPC   C3A 3920   7.176  10.508   5.626
  286POPC   C4A 3921   7.124  10.671   6.113
  286POPC   C1B 3922   7.549  10.344   4.770
  286POPC   C2B 3923   7.751  10.308   5.174
  286POPC   C3B 3924   7.699  10.328   5.601
  286POPC   C4B 3925   7.516  10.391   5.970
  287POPC   NC3 3926   2.032   5.148   4.047
  287POPC   PO4 3927   2.378   4.666   3.852
  287POPC   GL1 3928   2.161   4.674   4.328
  287POPC   GL2 3929   2.132   4.979   4.511
  287POPC   C1A 3930   1.777   4.673   4.717
  287POPC   D2A 3931   1.530   4.960   5.030
  287POPC   C3A 3932   1.719   4.868   5.434
  287POPC   C4A 3933   1.955   4.577   5.748
  287POPC   C1B 3934   2.268   5.344   4.743
  287POPC   C2B 3935   2.158   5.499   5.150
  287POPC   C3B 3936   2.141   5.462   5.604
  287POPC   C4B 3937   2.063   5.072   5.784
  288POPC   NC3 3938   0.296   4.424   3.880
  288POPC   PO4 3939   0.386   3.840   4.025
  288POPC   GL1 3940   0.405   4.144   4.349
  288POPC   GL2 3941   0.707   4.304   4.343
  288POPC   C1A 3942   0.574   4.075   4.787
  288POPC   D2A 3943   0.423   3.923   5.181
  288POPC   C3A 3944   0.472   4.102   5.590
  288POPC   C4A 3945   0.270   4.504   5.663
  288POPC   C1B 3946   0.691   4.563   4.707
  288POPC   C2B 3947   0.811   4.399   5.114
  288POPC   C3B 3948   0.792   4.519   5.529
  288POPC   C4B 3949   0.690   4.441   5.964
  289POPC   NC3 3950   1.965   8.625   3.641
  289POPC   PO4 3951   2.202   9.212   3.727
  289POPC   GL1 3952   2.117   9.112   4.178
  289POPC   GL2 3953   2.046   8.746   4.292
  289POPC   C1A 3954   2.176   9.128   4.654
  289POPC   D2A 3955   1.920   9.147   5.056
  289POPC   C3A 3956   2.122   9.208   5.475
  289POPC   C4A 3957   2.206   8.889   5.765
  289POPC   C1B 3958   1.805   8.761   4.705
  289POPC   C2B 3959   1.608   8.588   5.062
  289POPC   C3B 3960   1.735   8.628   5.487
  289POPC   C4B 3961   1.665   9.024   5.665
  290POPC   NC3 3962   0.653   1.129   3.688
  290POPC   PO4 3963   0.193   1.536   3.968
  290POPC   GL1 3964   0.331   1.437   4.350
  290POPC   GL2 3965   0.570   1.194   4.220
  290POPC   C1A 3966   0.129   1.448   4.771
  290POPC   D2A 3967  11.451   1.682   5.123
  290POPC   C3A 3968   0.052   1.500   5.502
  290POPC   C4A 3969   0.412   1.486   5.776
  290POPC   C1B 3970   0.361   1.005   4.609
  290POPC   C2B 3971   0.272   0.928   5.049
  290POPC   C3B 3972   0.471   1.139   5.393
  290POPC   C4B 3973   0.762   1.103   5.737
  291POPC   NC3 3974   8.344   0.597   3.756
  291POPC   PO4 3975   8.076   0.072   3.983
  291POPC   GL1 3976   8.160   0.487   4.228
  291POPC   GL2 3977   7.915   0.724   4.403
  291POPC   C1A 3978   8.383   0.600   4.616
  291POPC   D2A 3979   8.379   0.413   5.060
  291POPC   C3A 3980   8.382   0.652   5.485
  291POPC   C4A 3981   8.204   0.634   5.936
  291POPC   C1B 3982   7.922   0.325   4.723
  291POPC   C2B 3983   7.935   0.156   5.200
  291POPC   C3B 3984   7.952   0.257   5.676
  291POPC   C4B 3985   7.827   0.169   6.149
  292POPC   NC3 3986   8.905   1.938   3.746
  292POPC   PO4 3987   9.236   1.526   4.142
  292POPC   GL1 3988   8.757   1.665   4.299
  292POPC   GL2 3989   8.662   2.016   4.175
  292POPC   C1A 3990   8.498   1.627   4.712
  292POPC   D2A 3991   8.602   1.826   5.133
  292POPC   C3A 3992   8.583   1.641   5.563
  292POPC   C4A 3993   8.585   1.775   5.996
  292POPC   C1B 3994   8.660   2.100   4.619
  292POPC   C2B 3995   8.585   2.323   5.016
  292POPC   C3B 3996   8.680   2.231   5.473
  292POPC   C4B 3997   9.106   2.085   5.636
  293POPC   NC3 3998   9.707  10.377   3.918
  293POPC   PO4 3999   9.186  10.109   4.045
  293POPC   GL1 4000   9.439  10.169   4.362
  293POPC   GL2 4001   9.652  10.440   4.412
  293POPC   C1A 4002   9.544  10.069   4.766
  293POPC   D2A 4003   9.451   9.861   5.126
  293POPC   C3A 4004   9.318  10.042   5.490
  293POPC   C4A 4005   9.695   9.905   5.691
  293POPC   C1B 4006   9.780  10.530   4.826
  293POPC   C2B 4007   9.503  10.455   5.175
  293POPC   C3B 4008   9.626  10.430   5.575
  293POPC   C4B 4009   9.961  10.682   5.682
  294POPC   NC3 4010   2.571   1.062   3.881
  294POPC   PO4 4011   1.946   0.770   3.913
  294POPC   GL1 4012   1.991   1.034   4.274
  294POPC   GL2 4013   2.001   1.409   4.269
  294POPC   C1A 4014   1.921   0.969   4.695
  294POPC   D2A 4015   1.843   1.014   5.109
  294POPC   C3A 4016   2.159   1.023   5.433
  294POPC   C4A 4017   2.104   1.061   5.847
  294POPC   C1B 4018   1.872   1.481   4.724
  294POPC   C2B 4019   2.100   1.603   5.124
  294POPC   C3B 4020   2.128   1.512   5.572
  294POPC   C4B 4021   1.779   1.431   5.857
  295POPC   NC3 4022   3.557   1.954   3.712
  295POPC   PO4 4023   3.873   2.487   3.946
  295POPC   GL1 4024   3.685   2.170   4.204
  295POPC   GL2 4025   3.358   2.048   4.247
  295POPC   C1A 4026   3.588   2.215   4.664
  295POPC   D2A 4027   3.588   1.905   4.983
  295POPC   C3A 4028   3.536   2.032   5.388
  295POPC   C4A 4029   3.747   1.997   5.768
  295POPC   C1B 4030   3.223   1.841   4.620
  295POPC   C2B 4031   3.064   1.803   5.029
  295POPC   C3B 4032   3.108   1.745   5.461
  295POPC   C4B 4033   3.241   1.962   5.810
  296POPC   NC3 4034   1.157   5.763   3.878
  296POPC   PO4 4035   1.712   5.413   3.831
  296POPC   GL1 4036   1.500   5.662   4.242
  296POPC   GL2 4037   1.144   5.831   4.368
  296POPC   C1A 4038   1.529   5.858   4.693
  296POPC   D2A 4039   1.295   5.868   5.116
  296POPC   C3A 4040   1.436   6.050   5.530
  296POPC   C4A 4041   1.321   6.068   5.989
  296POPC   C1B 4042   0.929   5.746   4.748
  296POPC   C2B 4043   0.763   5.780   5.144
  296POPC   C3B 4044   0.962   5.831   5.542
  296POPC   C4B 4045   1.113   5.603   5.907
  297POPC   NC3 4046   0.218   9.650   4.198
  297POPC   PO4 4047   0.831   9.758   3.889
  297POPC   GL1 4048   0.704   9.800   4.282
  297POPC   GL2 4049   0.684   9.437   4.346
  297POPC   C1A 4050   0.793   9.971   4.675
  297POPC   D2A 4051   0.609   9.972   5.060
  297POPC   C3A 4052   0.825   9.919   5.428
  297POPC   C4A 4053   0.707  10.044   5.839
  297POPC   C1B 4054   0.501   9.534   4.778
  297POPC   C2B 4055   0.311   9.603   5.212
  297POPC   C3B 4056   0.367   9.690   5.653
  297POPC   C4B 4057   0.454   9.524   6.062
  298POPC   NC3 4058   0.125   2.813   3.875
  298POPC   PO4 4059   0.633   2.306   4.003
  298POPC   GL1 4060   0.638   2.693   4.256
  298POPC   GL2 4061   0.314   2.887   4.327
  298POPC   C1A 4062   0.601   2.735   4.705
  298POPC   D2A 4063   0.618   2.972   5.056
  298POPC   C3A 4064   0.620   2.747   5.438
  298POPC   C4A 4065   0.535   2.712   5.874
  298POPC   C1B 4066   0.069   2.864   4.686
  298POPC   C2B 4067   0.123   2.914   5.135
  298POPC   C3B 4068   0.127   2.791   5.552
  298POPC   C4B 4069   0.123   2.385   5.722
  299POPC   NC3 4070   7.337   2.350   3.857
  299POPC   PO4 4071   7.664   2.787   4.099
  299POPC   GL1 4072   7.443   2.663   4.447
  299POPC   GL2 4073   7.144   2.464   4.330
  299POPC   C1A 4074   7.490   2.757   4.895
  299POPC   D2A 4075   7.642   2.637   5.294
  299POPC   C3A 4076   7.406   2.744   5.649
  299POPC   C4A 4077   7.169   3.109   5.804
  299POPC   C1B 4078   7.143   2.389   4.787
  299POPC   C2B 4079   7.117   2.555   5.214
  299POPC   C3B 4080   6.898   2.733   5.565
  299POPC   C4B 4081   6.999   2.650   5.991
  300POPC   NC3 4082   1.332  10.353   3.870
  300POPC   PO4 4083   0.609  10.489   3.581
  300POPC   GL1 4084   0.716  10.404   4.132
  300POPC   GL2 4085   1.002  10.257   4.241
  300POPC   C1A 4086   0.842  10.506   4.643
  300POPC   D2A 4087   0.964  10.332   5.088
  300POPC   C3A 4088   1.001  10.404   5.571
  300POPC   C4A 4089   1.105  10.582   6.029
  300POPC   C1B 4090   1.349  10.465   4.511
  300POPC   C2B 4091   1.473  10.391   4.944
  300POPC   C3B 4092   1.477  10.526   5.369
  300POPC   C4B 4093   1.476  10.371   5.780
  301POPC   NC3 4094   8.857   1.401   3.879
  301POPC   PO4 4095   8.782   0.735   3.733
  301POPC   GL1 4096   8.752   0.756   4.223
  301POPC   GL2 4097   8.890   1.086   4.263
  301POPC   C1A 4098   8.864   0.834   4.703
  301POPC   D2A 4099   9.147   0.991   5.036
  301POPC   C3A 4100   8.954   1.056   5.481
  301POPC   C4A 4101   9.135   1.055   5.912
  301POPC   C1B 4102   8.910   1.327   4.651
  301POPC   C2B 4103   8.833   1.384   5.053
  301POPC   C3B 4104   9.072   1.580   5.349
  301POPC   C4B 4105   9.094   1.589   5.781
  302POPC   NC3 4106   0.067   1.039   3.999
  302POPC   PO4 4107  10.943   0.874   3.949
  302POPC   GL1 4108  11.165   1.072   4.329
  302POPC   GL2 4109  11.307   1.426   4.349
  302POPC   C1A 4110  11.334   1.001   4.758
  302POPC   D2A 4111  11.203   0.871   5.188
  302POPC   C3A 4112  11.482   0.988   5.501
  302POPC   C4A 4113  11.470   0.884   5.922
  302POPC   C1B 4114  11.090   1.485   4.778
  302POPC   C2B 4115  11.057   1.358   5.227
  302POPC   C3B 4116  11.038   1.192   5.648
  302POPC   C4B 4117  10.893   1.416   6.038
  303POPC   NC3 4118   2.104   8.049   3.936
  303POPC   PO4 4119   1.488   7.808   3.799
  303POPC   GL1 4120   1.722   7.900   4.232
  303POPC   GL2 4121   1.891   8.229   4.379
  303POPC   C1A 4122   1.872   7.802   4.640
  303POPC   D2A 4123   1.711   7.894   5.037
  303POPC   C3A 4124   1.857   8.023   5.414
  303POPC   C4A 4125   1.712   7.687   5.684
  303POPC   C1B 4126   1.988   8.285   4.811
  303POPC   C2B 4127   2.137   8.556   5.154
  303POPC   C3B 4128   2.187   8.409   5.581
  303POPC   C4B 4129   2.021   8.104   5.889
  304POPC   NC3 4130   0.584   5.504   3.483
  304POPC   PO4 4131   0.728   5.756   4.053
  304POPC   GL1 4132   0.598   5.637   4.385
  304POPC   GL2 4133   0.288   5.820   4.321
  304POPC   C1A 4134   0.349   5.483   4.711
  304POPC   D2A 4135   0.210   5.621   5.102
  304POPC   C3A 4136   0.274   5.435   5.495
  304POPC   C4A 4137   0.442   5.672   5.840
  304POPC   C1B 4138   0.479   5.993   4.711
  304POPC   C2B 4139   0.353   6.102   5.067
  304POPC   C3B 4140   0.440   6.016   5.465
  304POPC   C4B 4141   0.248   6.128   5.825
  305POPC   NC3 4142  10.382   6.430   3.835
  305POPC   PO4 4143  10.067   6.907   4.120
  305POPC   GL1 4144  10.305   6.551   4.330
  305POPC   GL2 4145  10.676   6.528   4.391
  305POPC   C1A 4146  10.344   6.355   4.740
  305POPC   D2A 4147  10.146   6.478   5.114
  305POPC   C3A 4148  10.234   6.364   5.522
  305POPC   C4A 4149  10.316   6.600   5.856
  305POPC   C1B 4150  10.765   6.619   4.816
  305POPC   C2B 4151  10.647   6.554   5.255
  305POPC   C3B 4152  10.780   6.641   5.688
  305POPC   C4B 4153  10.712   6.575   6.156
  306POPC   NC3 4154   9.276  10.974   3.966
  306POPC   PO4 4155   9.974  10.748   4.025
  306POPC   GL1 4156   9.635  10.938   4.340
  306POPC   GL2 4157   9.526  11.292   4.293
  306POPC   C1A 4158   9.470  10.909   4.807
  306POPC   D2A 4159   9.665  10.982   5.212
  306POPC   C3A 4160   9.499  10.910   5.625
  306POPC   C4A 4161   9.384  10.693   6.022
  306POPC   C1B 4162   9.710  11.334   4.703
  306POPC   C2B 4163   9.525  11.485   5.091
  306POPC   C3B 4164   9.649  11.401   5.512
  306POPC   C4B 4165  10.031  11.166   5.642
  307POPC   NC3 4166   7.401   9.120   3.958
  307POPC   PO4 4167   7.684   8.547   3.896
  307POPC   GL1 4168   7.498   8.760   4.290
  307POPC   GL2 4169   7.156   8.879   4.357
  307POPC   C1A 4170   7.539   9.051   4.686
  307POPC   D2A 4171   7.465   8.956   5.127
  307POPC   C3A 4172   7.745   8.931   5.462
  307POPC   C4A 4173   7.758   8.872   5.880
  307POPC   C1B 4174   7.044   8.990   4.801
  307POPC   C2B 4175   7.060   9.223   5.224
  307POPC   C3B 4176   7.128   8.943   5.572
  307POPC   C4B 4177   6.943   8.807   5.981
  308POPC   NC3 4178   9.644   4.984   3.945
  308POPC   PO4 4179   9.128   4.558   4.053
  308POPC   GL1 4180   9.397   4.639   4.414
  308POPC   GL2 4181   9.589   4.965   4.439
  308POPC   C1A 4182   9.449   4.710   4.865
  308POPC   D2A 4183   9.457   4.951   5.243
  308POPC   C3A 4184   9.490   4.719   5.635
  308POPC   C4A 4185   9.146   4.759   5.949
  308POPC   C1B 4186   9.889   4.972   4.769
  308POPC   C2B 4187   9.901   5.181   5.156
  308POPC   C3B 4188   9.762   5.185   5.603
  308POPC   C4B 4189   9.924   5.266   6.027
  309POPC   NC3 4190  11.199   9.455   3.871
  309POPC   PO4 4191   0.237   9.213   4.069
  309POPC   GL1 4192  11.431   9.301   4.416
  309POPC   GL2 4193  11.217   9.609   4.361
  309POPC   C1A 4194  11.468   9.551   4.803
  309POPC   D2A 4195  11.241   9.665   5.148
  309POPC   C3A 4196  11.375   9.554   5.540
  309POPC   C4A 4197   0.018   9.202   5.772
  309POPC   C1B 4198  10.930   9.627   4.714
  309POPC   C2B 4199  10.730   9.553   5.092
  309POPC   C3B 4200  10.858   9.608   5.498
  309POPC   C4B 4201  10.993   9.689   5.919
  310POPC   NC3 4202   9.715   3.319   3.675
  310POPC   PO4 4203   9.753   3.895   3.999
  310POPC   GL1 4204   9.635   3.669   4.350
  310POPC   GL2 4205   9.626   3.293   4.391
  310POPC   C1A 4206   9.684   3.758   4.779
  310POPC   D2A 4207   9.852   3.990   5.120
  310POPC   C3A 4208   9.898   3.767   5.519
  310POPC   C4A 4209   9.778   3.677   5.948
  310POPC   C1B 4210   9.713   3.246   4.821
  310POPC   C2B 4211   9.580   3.474   5.200
  310POPC   C3B 4212   9.519   3.383   5.642
  310POPC   C4B 4213   9.727   3.147   5.981
  311POPC   NC3 4214   3.139   0.274   3.644
  311POPC   PO4 4215   3.686   0.226   3.923
  311POPC   GL1 4216   3.458   0.401   4.315
  311POPC   GL2 4217   3.684   0.677   4.405
  311POPC   C1A 4218   3.298   0.407   4.766
  311POPC   D2A 4219   3.034   0.466   5.168
  311POPC   C3A 4220   3.261   0.352   5.544
  311POPC   C4A 4221   3.638   0.060   5.566
  311POPC   C1B 4222   3.790   0.539   4.816
  311POPC   C2B 4223   3.654   0.458   5.226
  311POPC   C3B 4224   3.741   0.565   5.673
  311POPC   C4B 4225   3.784   0.736   6.123
  312POPC   NC3 4226   4.399  10.897   3.969
  312POPC   PO4 4227   4.354  10.211   3.745
  312POPC   GL1 4228   4.070  10.252   4.124
  312POPC   GL2 4229   4.268  10.497   4.248
  312POPC   C1A 4230   4.023  10.229   4.610
  312POPC   D2A 4231   3.942  10.251   5.083
  312POPC   C3A 4232   4.267  10.178   5.437
  312POPC   C4A 4233   4.214  10.063   5.924
  312POPC   C1B 4234   4.406  10.623   4.635
  312POPC   C2B 4235   4.351  10.554   5.045
  312POPC   C3B 4236   4.331  10.711   5.449
  312POPC   C4B 4237   4.310  10.528   5.817
  313POPC   NC3 4238   0.028   1.908   3.732
  313POPC   PO4 4239  10.862   2.010   3.802
  313POPC   GL1 4240  11.013   2.116   4.241
  313POPC   GL2 4241  11.364   2.022   4.215
  313POPC   C1A 4242  10.878   2.062   4.715
  313POPC   D2A 4243  10.895   1.850   5.141
  313POPC   C3A 4244  10.757   2.068   5.528
  313POPC   C4A 4245  10.964   2.252   5.888
  313POPC   C1B 4246  11.383   1.944   4.661
  313POPC   C2B 4247  11.301   2.164   5.061
  313POPC   C3B 4248  11.270   2.050   5.488
  313POPC   C4B 4249  11.087   1.698   5.657
  314POPC   NC3 4250  11.090   5.014   3.986
  314POPC   PO4 4251   0.114   5.468   3.872
  314POPC   GL1 4252  11.457   5.229   4.266
  314POPC   GL2 4253  11.087   5.315   4.392
  314POPC   C1A 4254  11.394   4.941   4.648
  314POPC   D2A 4255   0.088   5.100   5.075
  314POPC   C3A 4256  11.483   4.900   5.474
  314POPC   C4A 4257  11.462   4.986   5.921
  314POPC   C1B 4258  11.342   5.433   4.757
  314POPC   C2B 4259  11.236   5.470   5.204
  314POPC   C3B 4260  11.205   5.334   5.647
  314POPC   C4B 4261  10.923   5.073   5.932
  315POPC   NC3 4262  11.114  10.428   4.026
  315POPC   PO4 4263   0.030  10.891   3.900
  315POPC   GL1 4264  11.426  10.779   4.344
  315POPC   GL2 4265  11.372  10.414   4.461
  315POPC   C1A 4266  11.411  10.780   4.807
  315POPC   D2A 4267  11.300  10.921   5.225
  315POPC   C3A 4268   0.030  10.667   5.570
  315POPC   C4A 4269  11.346  10.508   5.934
  315POPC   C1B 4270  11.216  10.052   4.697
  315POPC   C2B 4271  10.910  10.036   5.050
  315POPC   C3B 4272  11.077  10.057   5.484
  315POPC   C4B 4273  11.443  10.034   5.735
  316POPC   NC3 4274   6.312  10.351   3.921
  316POPC   PO4 4275   6.834   9.966   3.901
  316POPC   GL1 4276   6.739  10.255   4.290
  316POPC   GL2 4277   6.457  10.512   4.365
  316POPC   C1A 4278   6.721  10.333   4.762
  316POPC   D2A 4279   6.723  10.564   5.161
  316POPC   C3A 4280   6.702  10.334   5.527
  316POPC   C4A 4281   6.722  10.433   5.943
  316POPC   C1B 4282   6.229  10.482   4.742
  316POPC   C2B 4283   6.272  10.283   5.122
  316POPC   C3B 4284   6.199  10.445   5.532
  316POPC   C4B 4285   6.313  10.132   5.825
  317POPC   NC3 4286   5.693   9.830   3.819
  317POPC   PO4 4287   5.492   9.256   4.036
  317POPC   GL1 4288   5.725   9.590   4.269
  317POPC   GL2 4289   5.579   9.917   4.330
  317POPC   C1A 4290   5.960   9.693   4.642
  317POPC   D2A 4291   5.888   9.774   5.093
  317POPC   C3A 4292   5.883   9.403   5.367
  317POPC   C4A 4293   5.654   9.219   5.751
  317POPC   C1B 4294   5.457   9.819   4.771
  317POPC   C2B 4295   5.415   9.932   5.210
  317POPC   C3B 4296   5.494   9.681   5.568
  317POPC   C4B 4297   5.884   9.681   5.784
  318POPC   NC3 4298   2.632   3.407   3.918
  318POPC   PO4 4299   2.522   4.015   3.846
  318POPC   GL1 4300   2.587   3.711   4.323
  318POPC   GL2 4301   2.671   3.323   4.396
  318POPC   C1A 4302   2.365   3.523   4.735
  318POPC   D2A 4303   2.264   3.685   5.134
  318POPC   C3A 4304   2.443   3.509   5.466
  318POPC   C4A 4305   2.631   3.472   5.887
  318POPC   C1B 4306   2.883   3.523   4.735
  318POPC   C2B 4307   3.056   3.339   5.104
  318POPC   C3B 4308   2.978   3.300   5.548
  318POPC   C4B 4309   3.095   3.660   5.829
  319POPC   NC3 4310  11.023   2.443   3.815
  319POPC   PO4 4311  11.231   3.101   3.865
  319POPC   GL1 4312  11.297   2.967   4.245
  319POPC   GL2 4313  11.284   2.624   4.215
  319POPC   C1A 4314  11.042   2.931   4.581
  319POPC   D2A 4315  10.726   3.077   4.871
  319POPC   C3A 4316  10.866   2.954   5.264
  319POPC   C4A 4317  10.966   3.073   5.667
  319POPC   C1B 4318  11.227   2.445   4.592
  319POPC   C2B 4319  11.198   2.656   4.986
  319POPC   C3B 4320  11.206   2.555   5.408
  319POPC   C4B 4321  11.211   2.679   5.825
  320POPC   NC3 4322   9.367   4.160   3.995
  320POPC   PO4 4323   9.951   4.568   3.873
  320POPC   GL1 4324   9.887   4.542   4.321
  320POPC   GL2 4325   9.739   4.220   4.383
  320POPC   C1A 4326   9.932   4.462   4.795
  320POPC   D2A 4327   9.862   4.642   5.200
  320POPC   C3A 4328   9.822   4.345   5.493
  320POPC   C4A 4329   9.680   4.259   5.843
  320POPC   C1B 4330   9.495   4.217   4.748
  320POPC   C2B 4331   9.438   4.298   5.178
  320POPC   C3B 4332   9.419   3.981   5.500
  320POPC   C4B 4333   9.334   3.901   5.940
  321POPC   NC3 4334   7.256  10.082   3.730
  321POPC   PO4 4335   7.086   9.454   3.981
  321POPC   GL1 4336   7.178   9.392   4.384
  321POPC   GL2 4337   7.527   9.475   4.337
  321POPC   C1A 4338   7.240   9.460   4.820
  321POPC   D2A 4339   7.602   9.432   5.116
  321POPC   C3A 4340   7.466   9.349   5.547
  321POPC   C4A 4341   7.041   9.433   5.704
  321POPC   C1B 4342   7.621   9.740   4.686
  321POPC   C2B 4343   7.403   9.917   5.006
  321POPC   C3B 4344   7.221   9.744   5.334
  321POPC   C4B 4345   7.213   9.999   5.702
  322POPC   NC3 4346  10.353  10.456   3.993
  322POPC   PO4 4347  10.911  10.666   4.363
  322POPC   GL1 4348  10.519  10.475   4.502
  322POPC   GL2 4349  10.163  10.554   4.457
  322POPC   C1A 4350  10.374  10.411   4.929
  322POPC   D2A 4351  10.527  10.253   5.314
  322POPC   C3A 4352  10.805  10.475   5.608
  322POPC   C4A 4353  11.047  10.829   5.656
  322POPC   C1B 4354  10.050  10.144   4.639
  322POPC   C2B 4355   9.922  10.133   5.111
  322POPC   C3B 4356  10.079  10.189   5.526
  322POPC   C4B 4357  10.357  10.390   5.825
  323POPC   NC3 4358   2.399  10.129   4.110
  323POPC   PO4 4359   1.764  10.179   3.827
  323POPC   GL1 4360   1.792  10.467   4.198
  323POPC   GL2 4361   2.024  10.275   4.404
  323POPC   C1A 4362   1.837  10.666   4.653
  323POPC   D2A 4363   2.004  10.401   5.008
  323POPC   C3A 4364   2.156  10.503   5.416
  323POPC   C4A 4365   1.906  10.649   5.721
  323POPC   C1B 4366   1.796  10.052   4.699
  323POPC   C2B 4367   1.757   9.932   5.121
  323POPC   C3B 4368   1.832  10.137   5.503
  323POPC   C4B 4369   2.163  10.190   5.833
  324POPC   NC3 4370   2.643   9.333   3.838
  324POPC   PO4 4371   2.752  10.022   3.836
  324POPC   GL1 4372   2.769   9.966   4.418
  324POPC   GL2 4373   2.986   9.658   4.451
  324POPC   C1A 4374   2.682   9.762   4.848
  324POPC   D2A 4375   2.806   9.442   5.195
  324POPC   C3A 4376   2.548   9.541   5.548
  324POPC   C4A 4377   2.530   9.842   5.851
  324POPC   C1B 4378   3.157   9.939   4.798
  324POPC   C2B 4379   3.020   9.905   5.243
  324POPC   C3B 4380   2.990   9.748   5.670
  324POPC   C4B 4381   2.990   9.866   6.129
  325POPC   NC3 4382  10.274   8.683   3.832
  325POPC   PO4 4383  10.769   9.197   3.813
  325POPC   GL1 4384  10.582   8.945   4.203
  325POPC   GL2 4385  10.206   8.883   4.288
  325POPC   C1A 4386  10.704   8.737   4.592
  325POPC   D2A 4387  10.849   8.548   4.970
  325POPC   C3A 4388  10.797   8.774   5.331
  325POPC   C4A 4389  10.621   8.812   5.704
  325POPC   C1B 4390  10.265   8.990   4.711
  325POPC   C2B 4391  10.326   8.828   5.128
  325POPC   C3B 4392  10.073   8.959   5.478
  325POPC   C4B 4393  10.218   9.068   5.869
  326POPC   NC3 4394  10.133   4.114   3.880
  326POPC   PO4 4395  10.671   4.541   3.889
  326POPC   GL1 4396  10.590   4.222   4.187
  326POPC   GL2 4397  10.273   4.205   4.346
  326POPC   C1A 4398  10.709   4.065   4.605
  326POPC   D2A 4399  10.936   4.126   4.990
  326POPC   C3A 4400  10.762   4.037   5.383
  326POPC   C4A 4401  10.697   4.286   5.734
  326POPC   C1B 4402  10.188   4.012   4.714
  326POPC   C2B 4403  10.335   4.223   5.070
  326POPC   C3B 4404  10.309   4.416   5.454
  326POPC   C4B 4405  10.182   4.129   5.790
  327POPC   NC3 4406   2.559   8.825   4.159
  327POPC   PO4 4407   3.066   9.136   3.769
  327POPC   GL1 4408   2.972   9.157   4.294
  327POPC   GL2 4409   2.902   8.840   4.533
  327POPC   C1A 4410   2.704   9.247   4.727
  327POPC   D2A 4411   2.463   9.033   5.113
  327POPC   C3A 4412   2.652   9.062   5.549
  327POPC   C4A 4413   3.059   9.241   5.638
  327POPC   C1B 4414   2.994   8.585   4.882
  327POPC   C2B 4415   2.851   8.687   5.274
  327POPC   C3B 4416   2.692   8.570   5.662
  327POPC   C4B 4417   3.040   8.672   5.929
  328POPC   NC3 4418   0.690   2.657   3.721
  328POPC   PO4 4419   1.396   2.631   3.935
  328POPC   GL1 4420   1.126   2.446   4.248
  328POPC   GL2 4421   1.465   2.366   4.426
  328POPC   C1A 4422   1.025   2.392   4.687
  328POPC   D2A 4423   1.043   2.715   4.977
  328POPC   C3A 4424   1.079   2.940   5.327
  328POPC   C4A 4425   1.040   2.745   5.744
  328POPC   C1B 4426   1.369   2.781   4.583
  328POPC   C2B 4427   1.457   3.017   4.912
  328POPC   C3B 4428   1.665   2.950   5.256
  328POPC   C4B 4429   1.455   3.065   5.629
  329POPC   NC3 4430   5.363   2.234   4.004
  329POPC   PO4 4431   5.998   1.966   3.952
  329POPC   GL1 4432   5.912   1.780   4.343
  329POPC   GL2 4433   5.593   1.937   4.371
  329POPC   C1A 4434   5.814   1.683   4.785
  329POPC   D2A 4435   5.890   1.936   5.125
  329POPC   C3A 4436   6.065   1.811   5.505
  329POPC   C4A 4437   6.083   2.183   5.749
  329POPC   C1B 4438   5.339   1.877   4.755
  329POPC   C2B 4439   5.402   1.833   5.201
  329POPC   C3B 4440   5.577   1.973   5.587
  329POPC   C4B 4441   5.704   1.680   5.871
  330POPC   NC3 4442  10.286   9.311   4.021
  330POPC   PO4 4443  10.082   9.915   3.770
  330POPC   GL1 4444  10.265   9.777   4.239
  330POPC   GL2 4445  10.651   9.671   4.238
  330POPC   C1A 4446  10.392   9.497   4.654
  330POPC   D2A 4447  10.258   9.347   5.087
  330POPC   C3A 4448  10.503   9.251   5.459
  330POPC   C4A 4449  10.505   9.490   5.864
  330POPC   C1B 4450  10.566   9.976   4.614
  330POPC   C2B 4451  10.340   9.877   4.997
  330POPC   C3B 4452  10.367   9.766   5.423
  330POPC   C4B 4453  10.615   9.979   5.722
  331POPC   NC3 4454   2.508  10.289   3.576
  331POPC   PO4 4455   3.138  10.418   3.920
  331POPC   GL1 4456   2.972  10.440   4.326
  331POPC   GL2 4457   2.656  10.466   4.396
  331POPC   C1A 4458   2.967  10.413   4.787
  331POPC   D2A 4459   2.992  10.415   5.221
  331POPC   C3A 4460   2.695  10.215   5.504
  331POPC   C4A 4461   2.871  10.268   5.864
  331POPC   C1B 4462   2.452  10.237   4.729
  331POPC   C2B 4463   2.512  10.406   5.076
  331POPC   C3B 4464   2.592  10.758   5.337
  331POPC   C4B 4465   2.527  10.651   5.768
  332POPC   NC3 4466   8.794   8.216   3.913
  332POPC   PO4 4467   9.246   7.838   3.670
  332POPC   GL1 4468   9.137   7.949   4.192
  332POPC   GL2 4469   9.111   8.311   4.318
  332POPC   C1A 4470   9.317   7.934   4.643
  332POPC   D2A 4471   9.194   7.873   5.098
  332POPC   C3A 4472   9.026   7.914   5.513
  332POPC   C4A 4473   9.195   7.719   5.857
  332POPC   C1B 4474   8.871   8.151   4.715
  332POPC   C2B 4475   8.700   8.059   5.151
  332POPC   C3B 4476   8.553   8.187   5.601
  332POPC   C4B 4477   8.482   8.325   6.068
  333POPC   NC3 4478   2.741   4.401   3.949
  333POPC   PO4 4479   3.203   4.537   4.360
  333POPC   GL1 4480   2.702   4.574   4.419
  333POPC   GL2 4481   2.482   4.251   4.375
  333POPC   C1A 4482   2.489   4.527   4.808
  333POPC   D2A 4483   2.717   4.347   5.175
  333POPC   C3A 4484   2.578   4.503   5.572
  333POPC   C4A 4485   2.677   4.734   5.951
  333POPC   C1B 4486   2.562   4.000   4.772
  333POPC   C2B 4487   2.744   3.826   5.177
  333POPC   C3B 4488   2.665   3.948   5.628
  333POPC   C4B 4489   2.852   4.209   5.949
  334POPC   NC3 4490   8.905   9.772   3.924
  334POPC   PO4 4491   8.419   9.400   4.215
  334POPC   GL1 4492   8.772   9.515   4.389
  334POPC   GL2 4493   8.796   9.870   4.394
  334POPC   C1A 4494   8.725   9.554   4.815
  334POPC   D2A 4495   8.753   9.485   5.222
  334POPC   C3A 4496   8.518   9.444   5.563
  334POPC   C4A 4497   8.807   9.457   5.902
  334POPC   C1B 4498   8.899  10.056   4.764
  334POPC   C2B 4499   8.958   9.933   5.139
  334POPC   C3B 4500   8.821   9.860   5.545
  334POPC   C4B 4501   8.968   9.931   5.938
  335POPC   NC3 4502   0.300   7.028   3.984
  335POPC   PO4 4503   0.052   7.599   3.845
  335POPC   GL1 4504   0.147   7.541   4.261
  335POPC   GL2 4505   0.490   7.492   4.248
  335POPC   C1A 4506   0.309   7.576   4.701
  335POPC   D2A 4507   0.313   7.337   5.061
  335POPC   C3A 4508   0.345   7.540   5.460
  335POPC   C4A 4509   0.192   7.342   5.850
  335POPC   C1B 4510   0.553   7.125   4.573
  335POPC   C2B 4511   0.667   6.947   4.985
  335POPC   C3B 4512   0.724   7.196   5.372
  335POPC   C4B 4513   0.710   7.375   5.813
  336POPC   NC3 4514   4.423   1.482   3.446
  336POPC   PO4 4515   4.486   1.477   4.092
  336POPC   GL1 4516   4.454   1.412   4.484
  336POPC   GL2 4517   4.294   1.099   4.468
  336POPC   C1A 4518   4.625   1.282   4.875
  336POPC   D2A 4519   4.503   0.982   5.210
  336POPC   C3A 4520   4.465   1.201   5.605
  336POPC   C4A 4521   4.435   1.431   5.993
  336POPC   C1B 4522   3.914   1.032   4.741
  336POPC   C2B 4523   3.832   0.959   5.197
  336POPC   C3B 4524   3.975   1.150   5.580
  336POPC   C4B 4525   3.936   1.259   6.011
  337POPC   NC3 4526   2.795   0.098   4.023
  337POPC   PO4 4527   2.931   0.701   3.752
  337POPC   GL1 4528   2.958   0.610   4.264
  337POPC   GL2 4529   2.928   0.266   4.468
  337POPC   C1A 4530   2.870   0.706   4.740
  337POPC   D2A 4531   2.644   0.797   5.160
  337POPC   C3A 4532   2.867   0.758   5.588
  337POPC   C4A 4533   2.787   0.557   6.015
  337POPC   C1B 4534   2.562   0.301   4.774
  337POPC   C2B 4535   2.510   0.311   5.236
  337POPC   C3B 4536   2.733   0.229   5.614
  337POPC   C4B 4537   2.591  11.500   5.981
  338W        W 4538   4.570   7.142   1.913
  339W        W 4539   5.150   6.013  12.000
  340W        W 4540   7.842   4.661  10.366
  341W        W 4541  10.029   0.239  10.601
  342W        W 4542   0.152   4.707   3.456
  343W        W 4543   7.476   3.855  10.484
  344W        W 4544  10.860   8.802  11.751
  345W        W 4545   8.571   3.206   8.913
  346W        W 4546   1.427   0.910   0.908
  347W        W 4547   1.257   6.505  10.835
  348W        W 4548   4.364   9.017   2.215
  349W        W 4549   7.637   6.549   2.727
  350W        W 4550  11.356   1.007   2.130
  351W        W 4551  10.019   2.851   3.675
  352W        W 4552   0.398  11.497   3.274
  353W        W 4553   2.242  10.432  10.442
  354W        W 4554  10.716   5.804  11.465
  355W        W 4555   3.824   7.637   0.888
  356W        W 4556  11.497   8.168  11.810
  357W        W 4557  11.103   7.990   2.199
  358W        W 4558   5.990   3.646   7.948
  359W        W 4559   5.976   4.089   3.949
  360W        W 4560   2.539   3.023   0.103
  361W        W 4561   9.176   5.290   2.905
  362W        W 4562   2.425  10.312   0.440
  363W        W 4563   2.542  10.833   3.529
  364W        W 4564   4.632   0.368   0.471
  365W        W 4565   6.210   0.366   2.765
  366W        W 4566   2.377   5.769   0.961
  367W        W 4567   9.320  11.139  10.296
  368W        W 4568   7.262   6.150  10.503
  369W        W 4569   5.807   6.831  11.541
  370W        W 4570  11.285  10.562  11.307
  371W        W 4571   2.200  10.924   3.171
  372W        W 4572   7.957   8.419   1.830
  373W        W 4573   7.016   4.742   1.437
  374W        W 4574   0.888   1.402  10.452
  375W        W 4575   5.650   0.499   0.021
  376W        W 4576  10.452   2.784   3.164
  377W        W 4577   2.598   8.863   3.662
  378W        W 4578   3.274   8.577   0.826
  379W        W 4579   5.246   2.428  10.765
  380W        W 4580   2.710   2.570   9.883
  381W        W 4581   2.679   4.670   3.358
  382W        W 4582   3.849   8.918   2.937
  383W        W 4583   6.077   0.492   9.325
  384W        W 4584   6.759   6.481   1.981
  385W        W 4585   5.847   4.142   8.159
  386W        W 4586   0.610   2.468  11.832
  387W        W 4587   1.742   5.373  10.381
  388W        W 4588   0.581   2.804   0.695
  389W        W 4589   3.240   1.514   0.031
  390W        W 4590   6.598   1.002   0.879
  391W        W 4591   6.073   7.407  10.281
  392W        W 4592   4.417   8.906   0.731
  393W        W 4593   2.654   4.130   9.788
  394W        W 4594   3.697   4.746  11.660
  395W        W 4595  10.776   6.741  11.087
  396W        W 4596   0.898  10.492   2.769
  397W        W 4597   9.570   0.310   1.963
  398W        W 4598   8.920   2.465  10.961
  399W        W 4599   9.179   8.959   3.023
  400W        W 4600   9.141  10.825   9.944
  401W        W 4601   8.989  11.302   1.679
  402W        W 4602   9.044   9.546   9.909
  403W        W 4603   5.227   9.247   1.305
  404W        W 4604   9.361  10.415  11.441
  405W        W 4605   7.672   5.236   0.738
  406W        W 4606   1.498   2.802   1.471
  407W        W 4607   3.873   4.644   2.739
  408W        W 4608   5.686  10.341  11.323
  409W        W 4609  10.478   3.269   9.041
  410W        W 4610   9.840  10.571  11.429
  411W        W 4611   4.252   1.765  10.591
  412W        W 4612   3.195   8.196   9.577
  413W        W 4613  10.508   4.640   1.466
  414W        W 4614   1.117   8.380   8.850
  415W        W 4615  11.362   4.365   0.557
  416W        W 4616  10.438   7.408   1.672
  417W        W 4617   6.568   7.585  11.454
  418W        W 4618   5.529   6.168   0.308
  419W        W 4619   4.209   2.818   0.452
  420W        W 4620   4.714   6.226   0.153
  421W        W 4621   8.051   9.983  10.873
  422W        W 4622   9.463  11.301   1.904
  423W        W 4623   4.308   0.158   9.741
  424W        W 4624   7.092   4.298   0.086
  425W        W 4625   9.129   7.271   3.453
  426W        W 4626   9.463   4.236  11.528
  427W        W 4627   5.422   3.566   9.125
  428W        W 4628  10.611   8.868   0.383
  429W        W 4629   5.658  11.239   2.216
  430W        W 4630   5.676   4.488   2.955
  431W        W 4631   5.110  11.484  10.603
  432W        W 4632   5.765   3.256  10.296
  433W        W 4633  10.937   8.057  11.113
  434W        W 4634   1.839   3.183   3.134
  435W        W 4635  11.225   0.393  10.803
  436W        W 4636   5.995  10.065  11.712
  437W        W 4637   3.605   5.178   8.114
  438W        W 4638   4.742   8.839   8.143
  439W        W 4639   2.252  10.251   9.888
  440W        W 4640   1.760   9.814   0.029
  441W        W 4641   6.973   2.669   1.623
  442W        W 4642  10.035   2.372  10.851
  443W        W 4643   0.348   0.410   9.018
  444W        W 4644   6.462   0.169  11.027
  445W        W 4645   6.485   3.820   9.846
  446W        W 4646   0.989   6.283   3.917
  447W        W 4647   9.289   9.391   8.920
  448W        W 4648   5.240   7.351   1.699
  449W        W 4649  10.230   7.660   0.843
  450W        W 4650   9.130   5.040  11.942
  451W        W 4651   4.983  10.541  10.635
  452W        W 4652   1.349   3.409  10.635
  453W        W 4653   2.693   4.033  11.958
  454W        W 4654   4.465   0.355   8.831
  455W        W 4655   4.747   3.150   2.767
  456W        W 4656   4.053   4.276  11.418
  457W        W 4657   2.623  10.309   0.919
  458W        W 4658  10.798   1.792  10.939
  459W        W 4659   7.023   9.664   3.511
  460W        W 4660  10.899   0.920   0.254
  461W        W 4661   9.837   1.246   9.796
  462W        W 4662   8.451   9.143   8.977
  463W        W 4663   2.467   5.366   1.665
  464W        W 4664   7.740   3.847   4.046
  465W        W 4665   1.081   6.600   8.387
  466W        W 4666   7.397   7.512  10.736
  467W        W 4667   2.167   6.500   3.234
  468W        W 4668   8.785   9.466   1.807
  469W        W 4669   9.513   0.588   9.807
  470W        W 4670   8.130   4.637  10.781
  471W        W 4671   2.114   2.306   0.240
  472W        W 4672  11.167   4.958  11.130
  473W        W 4673   8.375   5.590   0.332
  474W        W 4674   1.355   3.387  11.629
  475W        W 4675   2.347   3.741  10.013
  476W        W 4676   6.225   1.044   9.905
  477W        W 4677   6.570   6.905   2.214
  478W        W 4678  11.046  11.309   2.188
  479W        W 4679   3.507   6.196   1.742
  480W        W 4680   4.672   2.215  11.292
  481W        W 4681   9.502   0.319  11.376
  482W        W 4682   9.441   9.129  10.272
  483W        W 4683  10.434   8.683  11.447
  484W        W 4684   6.019   6.916   0.839
  485W        W 4685   2.490   8.194   9.096
  486W        W 4686   2.897  10.490   3.325
  487W        W 4687   5.750   3.651  11.372
  488W        W 4688   9.646   7.209   9.498
  489W        W 4689  10.566   7.023  11.900
  490W        W 4690   3.310   6.951  11.455
  491W        W 4691  11.302  11.134   0.068
  492W        W 4692   2.738   4.542   0.068
  493W        W 4693   6.563   4.073   9.383
  494W        W 4694   3.989   8.293   3.484
  495W        W 4695   1.239   9.939  10.753
  496W        W 4696   7.632  11.063   1.671
  497W        W 4697  10.007   3.753  11.622
  498W        W 4698  11.117   5.469  10.869
  499W        W 4699   7.216   3.996   2.466
  500W        W 4700   1.857   6.125  11.344
  501W        W 4701   9.751   9.027   0.893
  502W        W 4702   8.449   1.629  10.847
  503W        W 4703   9.607  11.227   2.770
  504W        W 4704   1.369   1.748   0.690
  505W        W 4705   4.335   9.105   1.195
  506W        W 4706   0.338   4.740  11.699
  507W        W 4707   0.584   4.223   0.715
  508W        W 4708  10.495  10.227   0.678
  509W        W 4709   0.805   0.336  11.818
  510W        W 4710   8.467   5.454   3.756
  511W        W 4711   0.857  10.776   9.868
  512W        W 4712   4.684   0.873   2.164
  513W        W 4713   3.598   8.565  11.732
  514W        W 4714   3.418   8.031   3.078
  515W        W 4715   4.268   3.324   2.828
  516W        W 4716   1.177   7.820   1.075
  517W        W 4717   8.760   1.520   2.998
  518W        W 4718   5.274   8.690   8.625
  519W        W 4719   8.089   1.173   9.305
  520W        W 4720   0.932  11.266   0.947
  521W        W 4721   6.822   5.603   2.387
  522W        W 4722   4.362   1.345   9.480
  523W        W 4723   2.170   6.588   1.305
  524W        W 4724   0.903   7.973   9.091
  525W        W 4725   3.528   0.465   2.336
  526W        W 4726   1.987   3.732   8.484
  527W        W 4727   7.157   1.401  11.438
  528W        W 4728   3.670   6.561   3.110
  529W        W 4729   0.825   6.602  10.018
  530W        W 4730   1.591   5.327   0.828
  531W        W 4731   1.610   2.700  11.671
  532W        W 4732   6.409   8.870  10.259
  533W        W 4733   3.076  10.975   3.419
  534W        W 4734  10.627   0.327   1.753
  535W        W 4735  10.020   8.626   9.707
  536W        W 4736   5.249   3.564  11.335
  537W        W 4737  10.576   3.095  11.571
  538W        W 4738   1.727   0.498   2.613
  539W        W 4739   5.519   3.504   4.274
  540W        W 4740   2.468   8.509  10.752
  541W        W 4741   1.771   7.941   3.005
  542W        W 4742   7.987   3.461   2.111
  543W        W 4743   9.670   9.632   0.082
  544W        W 4744   8.008  11.302   2.900
  545W        W 4745  10.006   7.429   0.460
  546W        W 4746   5.553   8.567  10.687
  547W        W 4747   2.127   0.961   9.387
  548W        W 4748   7.248   1.252   2.267
  549W        W 4749   7.153  10.391  10.871
  550W        W 4750   0.702   6.461   2.768
  551W        W 4751   2.307   1.733   2.433
  552W        W 4752   5.702   4.210   0.117
  553W        W 4753   2.036   5.231  11.733
  554W        W 4754   0.491   5.150   2.801
  555W        W 4755   4.143   8.528  10.509
  556W        W 4756   3.371   9.404   1.907
  557W        W 4757   5.250   8.256   2.962
  558W        W 4758  10.038   3.517   0.062
  559W        W 4759   0.700   3.619   2.831
  560W        W 4760   9.610   1.432  10.591
  561W        W 4761   4.332   6.567   1.735
  562W        W 4762  11.149   9.511   9.537
  563W        W 4763   9.276   9.450   3.106
  564W        W 4764   4.057  11.028   3.160
  565W        W 4765   7.031  11.051   1.536
  566W        W 4766   2.183   9.804  10.776
  567W        W 4767   4.155   2.642   2.336
  568W        W 4768   6.215   4.127   8.645
  569W        W 4769   3.187  11.471   2.196
  570W        W 4770   6.113   7.190   3.963
  571W        W 4771  10.483   6.495   2.849
  572W        W 4772   3.440   9.020   3.334
  573W        W 4773   6.729  11.067   0.545
  574W        W 4774   6.133   3.017   8.626
  575W        W 4775   5.575   5.555  10.007
  576W        W 4776   1.345   4.236   2.921
  577W        W 4777   7.623   0.501  11.572
  578W        W 4778   6.917   6.522   0.693
  579W        W 4779   2.311   4.821  10.955
  580W        W 4780   0.500   1.307   9.882
  581W        W 4781   5.935   0.597   9.842
  582W        W 4782   7.597   2.473   1.211
  583W        W 4783   3.803   2.322  11.767
  584W        W 4784   8.240   1.306   1.745
  585W        W 4785   0.793   9.078   2.968
  586W        W 4786   9.953  11.399   9.865
  587W        W 4787   4.887   1.841   3.324
  588W        W 4788   3.641   1.632   9.039
  589W        W 4789   7.375   7.133  11.489
  590W        W 4790   3.210   4.225   2.777
  591W        W 4791   5.621   7.547  10.452
  592W        W 4792  10.464   4.713   1.956
  593W        W 4793   5.149   5.595   0.306
  594W        W 4794   9.435   7.696   9.420
  595W        W 4795   4.956   1.414  11.550
  596W        W 4796   4.943   3.096   8.667
  597W        W 4797   0.332   9.059   9.247
  598W        W 4798   3.784   5.154   2.656
  599W        W 4799  10.339   4.747   2.431
  600W        W 4800   4.350   1.708  11.510
  601W        W 4801   2.236   3.608   1.770
  602W        W 4802  10.893   8.459  11.400
  603W        W 4803   3.736  11.332  10.869
  604W        W 4804   5.722   0.117   1.858
  605W        W 4805   1.638   1.885   1.768
  606W        W 4806   6.214   3.408   0.026
  607W        W 4807   5.059   8.108  11.279
  608W        W 4808   2.856   7.391   0.667
  609W        W 4809   3.527   2.867  11.262
  610W        W 4810   4.246   9.583   8.953
  611W        W 4811   5.651   6.599   1.126
  612W        W 4812  10.713   9.452  11.114
  613W        W 4813   3.701   7.530   3.079
  614W        W 4814   1.305   8.654  11.923
  615W        W 4815   0.198   3.016   9.284
  616W        W 4816   2.712   3.607   1.544
  617W        W 4817   3.213   2.946   2.281
  618W        W 4818   1.915   8.541   9.909
  619W        W 4819   4.654   2.908  11.827
  620W        W 4820   1.767   9.456   2.573
  621W        W 4821   4.081  10.273  11.827
  622W        W 4822   3.634   6.268  11.892
  623W        W 4823   1.255   9.046   0.719
  624W        W 4824   5.162   1.029   9.962
  625W        W 4825   9.055   8.075   2.945
  626W        W 4826   2.779   8.352   1.506
  627W        W 4827   0.867   3.025  11.034
  628W        W 4828   9.158   0.964   8.632
  629W        W 4829   4.292   8.039  11.976
  630W        W 4830   6.140   8.658   3.649
  631W        W 4831   7.786   2.062  11.869
  632W        W 4832   1.252   9.897   3.072
  633W        W 4833   3.271   0.371   1.883
  634W        W 4834   4.193   5.931   8.285
  635W        W 4835   3.155   6.173   0.715
  636W        W 4836   7.585   6.877   9.955
  637W        W 4837  11.213   5.649   2.751
  638W        W 4838   1.420   9.510  10.495
  639W        W 4839   7.424  11.171  11.866
  640W        W 4840   2.031   2.297  10.467
  641W        W 4841   9.294   9.916  11.380
  642W        W 4842   2.350  11.039   9.123
  643W        W 4843   8.354   6.131   3.129
  644W        W 4844   3.511   3.371   4.013
  645W        W 4845   6.523   1.829   0.442
  646W        W 4846   5.294   7.612   0.812
  647W        W 4847  10.838   6.386   3.516
  648W        W 4848   9.428   0.850   9.070
  649W        W 4849   3.598   4.983  10.788
  650W        W 4850   6.040   9.934  11.207
  651W        W 4851   1.700   4.101   9.425
  652W        W 4852   1.647   7.106   0.990
  653W        W 4853   8.146   3.391   2.612
  654W        W 4854   7.357   0.931  11.408
  655W        W 4855   7.044   1.853   1.635
  656W        W 4856   5.227   2.660  11.788
  657W        W 4857   7.929   8.984   0.843
  658W        W 4858  10.072   4.328   9.378
  659W        W 4859   9.875   3.920   3.033
  660W        W 4860   7.433   5.981   9.865
  661W        W 4861   8.522   1.398  11.460
  662W        W 4862   1.448   8.178   1.320
  663W        W 4863   8.016  10.786   0.558
  664W        W 4864   5.222   0.639   0.940
  665W        W 4865   8.232   6.101   0.376
  666W        W 4866   9.095   8.068  10.741
  667W        W 4867   5.469   6.531   9.167
  668W        W 4868   6.145   9.886   8.606
  669W        W 4869   9.937   5.628   9.027
  670W        W 4870  11.218   3.805   2.678
  671W        W 4871   7.531   4.713   1.647
  672W        W 4872   8.527   8.967  11.979
  673W        W 4873   2.684   6.151   1.976
  674W        W 4874   1.244   6.564  10.318
  675W        W 4875   4.754   9.424   1.187
  676W        W 4876   5.193   9.403   9.988
  677W        W 4877   5.204   8.560   2.064
  678W        W 4878  11.398   2.949   8.874
  679W        W 4879   0.800   9.087   0.500
  680W        W 4880   5.979   2.087   2.782
  681W        W 4881   4.079   2.886  11.091
  682W        W 4882   7.059   0.115   9.246
  683W        W 4883   1.739   7.938   0.392
  684W        W 4884  10.874   6.366   9.300
  685W        W 4885   1.288   6.488   9.783
  686W        W 4886   9.008  10.853   2.031
  687W        W 4887   8.047   7.151   0.681
  688W        W 4888   1.208  10.889   9.506
  689W        W 4889   1.401   6.959  10.992
  690W        W 4890   8.595   9.809   9.805
  691W        W 4891   8.842   4.063  11.753
  692W        W 4892   6.254   2.200   3.218
  693W        W 4893   6.024   9.485   0.804
  694W        W 4894   1.115   0.292  10.880
  695W        W 4895   4.740   5.655   0.627
  696W        W 4896   4.207   7.545  10.510
  697W        W 4897   8.999   8.671   8.484
  698W        W 4898   2.960   5.269   1.620
  699W        W 4899   6.329   3.304   1.338
  700W        W 4900   6.525   8.369  11.015
  701W        W 4901   4.038   7.229   2.791
  702W        W 4902  10.762   4.167  10.060
  703W        W 4903   2.673   1.210  10.827
  704W        W 4904   9.198   5.900  10.783
  705W        W 4905   7.001   0.612  11.203
  706W        W 4906   7.138   6.196   2.267
  707W        W 4907   3.088   3.114   9.527
  708W        W 4908   4.946   5.223  11.482
  709W        W 4909   4.125   0.274   1.539
  710W        W 4910   0.872   1.275   1.510
  711W        W 4911   4.636   2.819   3.455
  712W        W 4912  10.395   6.466   9.021
  713W        W 4913   2.606   6.123   2.842
  714W        W 4914   9.974   8.878  11.577
  715W        W 4915   8.259   0.297  10.498
  716W        W 4916   8.831   0.253   1.838
  717W        W 4917   6.587   8.159   1.970
  718W        W 4918   4.148   6.062   0.838
  719W        W 4919   6.292   1.447  11.622
  720W        W 4920   8.014   6.463   0.015
  721W        W 4921   2.651   3.280   0.554
  722W        W 4922   1.254   0.777   9.954
  723W        W 4923   4.692   5.683  11.511
  724W        W 4924   3.002   3.745   2.804
  725W        W 4925  11.075   1.612   2.831
  726W        W 4926   6.916   7.508  11.854
  727W        W 4927   3.730  10.890   8.983
  728W        W 4928   4.950  10.704   3.525
  729W        W 4929   4.399   0.714  11.661
  730W        W 4930  10.457   6.898  10.709
  731W        W 4931   6.633   1.570   0.863
  732W        W 4932   0.218   3.498   9.909
  733W        W 4933   5.003  10.367  11.953
  734W        W 4934   0.817   7.148   0.502
  735W        W 4935   6.103   2.695   1.212
  736W        W 4936   8.903   1.459   1.729
  737W        W 4937   1.071  10.065   3.544
  738W        W 4938  10.929   1.306  10.660
  739W        W 4939   1.643  11.442  10.120
  740W        W 4940   1.143   7.307   1.038
  741W        W 4941   2.119   6.208   0.921
  742W        W 4942   4.517   3.211   2.231
  743W        W 4943  10.024  10.809  10.903
  744W        W 4944  10.357   8.840  10.940
  745W        W 4945   8.098  10.171  10.411
  746W        W 4946   9.994   7.198   1.881
  747W        W 4947   5.488   8.437   9.036
  748W        W 4948   3.811  10.436   1.418
  749W        W 4949   4.804   0.998  11.792
  750W        W 4950   1.279  10.671   1.945
  751W        W 4951   1.783   2.427   2.789
  752W        W 4952   6.687   5.214   1.400
  753W        W 4953   9.992   8.486   9.228
  754W        W 4954   3.382   4.668   2.603
  755W        W 4955   4.581   3.721   1.995
  756W        W 4956   4.299   2.438  10.976
  757W        W 4957   8.583   1.948   9.369
  758W        W 4958  11.296   4.252   9.392
  759W        W 4959   9.444   5.548  10.017
  760W        W 4960   8.382   8.080  10.012
  761W        W 4961   6.937   4.187   0.582
  762W        W 4962   1.254   5.338   1.267
  763W        W 4963   3.447   3.206  10.388
  764W        W 4964   4.711   0.354   9.375
  765W        W 4965   9.737   6.714   8.234
  766W        W 4966   8.194   0.434   9.979
  767W        W 4967   6.321   6.126  11.470
  768W        W 4968   5.181   4.833  11.735
  769W        W 4969   2.241   3.834   8.938
  770W        W 4970   0.007  11.222   0.971
  771W        W 4971   9.934   6.160   8.906
  772W        W 4972   1.131   9.537   9.012
  773W        W 4973   6.292   5.279   1.765
  774W        W 4974   7.924   9.798  11.798
  775W        W 4975   4.554   2.291  10.020
  776W        W 4976   0.448   0.299   1.923
  777W        W 4977   7.503   1.031   3.008
  778W        W 4978   7.474   1.471  10.485
  779W        W 4979   0.066   7.312   0.352
  780W        W 4980  10.703   2.954   9.418
  781W        W 4981   8.488   2.385  11.239
  782W        W 4982   5.751   3.672   2.291
  783W        W 4983   7.229   8.448  11.943
  784W        W 4984   7.797   4.235   1.585
  785W        W 4985   0.152   6.140   9.870
  786W        W 4986   4.789   4.125   9.610
  787W        W 4987   7.670   9.546   9.777
  788W        W 4988   5.571   0.289  11.551
  789W        W 4989   5.497   9.839   8.492
  790W        W 4990  11.249   2.229  10.615
  791W        W 4991   7.794   7.919   0.603
  792W        W 4992  11.055   7.010  11.948
  793W        W 4993   7.963   4.291   2.823
  794W        W 4994   6.755   8.069   0.250
  795W        W 4995  11.270   0.273   9.911
  796W        W 4996   7.583  10.597   2.663
  797W        W 4997   4.537   0.842  10.341
  798W        W 4998   7.443   5.209  11.764
  799W        W 4999   7.217   0.877   9.801
  800W        W 5000   6.661  11.343   9.113
  801W        W 5001   7.946   6.162   8.730
  802W        W 5002   4.610   3.085   0.297
  803W        W 5003   3.056   9.024  11.517
  804W        W 5004   7.549   1.705  11.082
  805W        W 5005   8.839   7.991   2.016
  806W        W 5006  11.305  10.791   0.747
  807W        W 5007   0.789   7.512  11.763
  808W        W 5008   4.717   7.492  11.327
  809W        W 5009   1.029   7.966   9.597
  810W        W 5010   9.844   6.545  11.773
  811W        W 5011   0.091  11.449  11.763
  812W        W 5012  10.534   0.335   9.272
  813W        W 5013   5.367   6.627   2.099
  814W        W 5014   2.903  10.121   1.807
  815W        W 5015   5.321   6.753  11.612
  816W        W 5016  10.222   5.683   9.448
  817W        W 5017  11.070   4.478  10.366
  818W        W 5018   6.450   3.767   8.953
  819W        W 5019   4.198   6.531   2.229
  820W        W 5020   4.036   6.714  10.025
  821W        W 5021   8.868   9.926  11.138
  822W        W 5022   8.955   1.091  11.440
  823W        W 5023   9.711   8.157   1.754
  824W        W 5024   3.787   9.557   2.230
  825W        W 5025   0.266   7.512   1.926
  826W        W 5026   4.693   9.891   8.818
  827W        W 5027   7.086   9.361  11.696
  828W        W 5028   5.422  10.344  10.322
  829W        W 5029   5.486   3.784   8.651
  830W        W 5030  10.455  11.352   9.852
  831W        W 5031  11.480   8.474  10.821
  832W        W 5032   1.351  10.823   3.027
  833W        W 5033   8.887   1.440  10.680
  834W        W 5034   7.247   0.095   9.716
  835W        W 5035  10.328   5.654   0.402
  836W        W 5036   8.637   3.725   8.176
  837W        W 5037  10.330   7.287  10.356
  838W        W 5038  10.337   2.913   9.761
  839W        W 5039   0.452   2.206  10.781
  840W        W 5040  10.934   0.071   0.799
  841W        W 5041   7.873   5.728   0.328
  842W        W 5042  10.877   0.713   9.895
  843W        W 5043   4.065   5.535  11.787
  844W        W 5044   3.736   8.933  10.088
  845W        W 5045   9.548  10.560  11.888
  846W        W 5046   4.686   0.481   0.973
  847W        W 5047   1.009   2.675   2.151
  848W        W 5048   1.968   0.441  11.048
  849W        W 5049  10.908   6.174  11.797
  850W        W 5050   9.357   5.670   0.670
  851W        W 5051   5.920   3.641   8.955
  852W        W 5052   1.649   9.309   2.099
  853W        W 5053   0.036   7.145   3.528
  854W        W 5054   7.996   7.209   2.555
  855W        W 5055   0.864   3.283  11.466
  856W        W 5056   6.568   0.288   1.963
  857W        W 5057   8.083   0.475   3.328
  858W        W 5058  10.697   9.780  11.516
  859W        W 5059   7.710   2.227   2.169
  860W        W 5060   5.114   7.006  10.452
  861W        W 5061   9.645   2.065   1.804
  862W        W 5062   6.637  11.267  10.763
  863W        W 5063   4.427   9.760   0.896
  864W        W 5064   5.936   6.626  10.411
  865W        W 5065   1.232   7.603   9.234
  866W        W 5066   1.888  10.612   9.852
  867W        W 5067  10.755   8.365   0.361
  868W        W 5068   8.865   9.967   1.049
  869W        W 5069   0.709   5.962   2.834
  870W        W 5070  10.800   9.587  10.026
  871W        W 5071   9.992  10.076   1.687
  872W        W 5072   2.641   2.110   3.720
  873W        W 5073   5.559  11.496   3.116
  874W        W 5074  11.011  11.167   8.995
  875W        W 5075   7.986   1.854   1.940
  876W        W 5076   2.973   0.663   9.549
  877W        W 5077  10.888   9.130   9.763
  878W        W 5078   4.648   1.937   2.500
  879W        W 5079   5.447   7.161  11.914
  880W        W 5080   8.569   3.221  11.292
  881W        W 5081   9.977  10.003   9.229
  882W        W 5082   0.342   6.095   9.402
  883W        W 5083   4.119   1.607  11.949
  884W        W 5084   8.487   1.723   8.917
  885W        W 5085  10.503   9.799   0.411
  886W        W 5086   4.206   7.228  10.902
  887W        W 5087   5.517   9.909   2.420
  888W        W 5088   4.981   6.910  11.946
  889W        W 5089   5.043   4.525   1.231
  890W        W 5090   4.437  11.305   2.929
  891W        W 5091   7.101   7.477   2.653
  892W        W 5092  11.183  10.311   2.381
  893W        W 5093   0.524   9.988   1.867
  894W        W 5094   0.816   0.680   9.112
  895W        W 5095   5.652   0.887  11.676
  896W        W 5096   7.852  10.396   0.276
  897W        W 5097   6.626   7.168   1.761
  898W        W 5098   9.416   7.336   1.859
  899W        W 5099   6.444   3.203   9.555
  900W        W 5100   6.210   6.994   3.055
  901W        W 5101   6.183   3.554  10.293
  902W        W 5102   3.396   9.349   0.290
  903W        W 5103   3.870   1.657  10.920
  904W        W 5104   2.010   0.460   9.522
  905W        W 5105   1.919   1.565   2.731
  906W        W 5106   5.164   6.945   9.250
  907W        W 5107  10.622   5.036  10.368
  908W        W 5108   8.947   9.312   9.317
  909W        W 5109   1.352   3.153   9.789
  910W        W 5110   3.820   3.731   2.186
  911W        W 5111   5.887   7.470   9.318
  912W        W 5112   6.747   7.832   3.240
  913W        W 5113   6.413  10.028   2.954
  914W        W 5114   0.901   3.637   9.317
  915W        W 5115   5.685  10.359  10.792
  916W        W 5116   3.529   0.803  10.472
  917W        W 5117   7.099   6.921   9.778
  918W        W 5118   9.732  11.430  10.335
  919W        W 5119   4.955   8.369   0.261
  920W        W 5120   7.049   0.499   2.685
  921W        W 5121   0.308   7.344  10.341
  922W        W 5122   3.532  10.418   2.561
  923W        W 5123   6.974   7.420   9.816
  924W        W 5124   9.055   6.447   8.395
  925W        W 5125   3.951   9.825  11.566
  926W        W 5126  10.424   7.657  11.527
  927W        W 5127   9.898   6.673  10.764
  928W        W 5128   2.832   1.326   3.337
  929W        W 5129   2.970   9.864   9.482
  930W        W 5130   7.641   6.684   0.322
  931W        W 5131   9.367  10.590   0.361
  932W        W 5132   0.237   4.610   0.825
  933W        W 5133  11.069   2.674  10.789
  934W        W 5134   1.863  10.422   2.627
  935W        W 5135   2.449   0.701   1.633
  936W        W 5136   9.815   4.157  11.913
  937W        W 5137  10.027   3.692  11.130
  938W        W 5138   1.442   7.660   3.322
  939W        W 5139   5.039   3.644  10.063
  940W        W 5140   8.660  10.519   0.896
  941W        W 5141   1.939   8.409   1.573
  942W        W 5142   9.337   2.894   1.565
  943W        W 5143   9.258   5.752   8.441
  944W        W 5144   6.781   7.572   0.778
  945W        W 5145   3.135   7.466   0.215
  946W        W 5146   4.777   9.410   3.363
  947W        W 5147   4.483   1.204  11.457
  948W        W 5148   7.614   3.341   2.454
  949W        W 5149   3.141  10.375  11.783
  950W        W 5150   6.687   8.980   9.835
  951W        W 5151   0.314   2.610   9.992
  952W        W 5152   2.320   7.193   9.038
  953W        W 5153   6.250   3.765  11.440
  954W        W 5154   0.710   7.309   2.636
  955W        W 5155   3.638   9.414   0.746
  956W        W 5156   0.513   1.700   9.075
  957W        W 5157  11.455   0.026   8.875
  958W        W 5158   6.755   9.795   0.376
  959W        W 5159   5.882   7.300  11.692
  960W        W 5160   4.952   7.984  10.664
  961W        W 5161   3.276   2.142   9.205
  962W        W 5162   3.721   1.974  11.311
  963W        W 5163   7.242   3.111  10.144
  964W        W 5164   7.725   9.551   0.244
  965W        W 5165   9.934   5.033   9.245
  966W        W 5166   4.447  10.999   0.915
  967W        W 5167   9.774   2.393  11.295
  968W        W 5168  10.750   9.342   9.072
  969W        W 5169   5.297   5.109   0.341
  970W        W 5170   9.140   5.937  10.249
  971W        W 5171   6.083   9.431   2.985
  972W        W 5172  11.285   6.526  11.884
  973W        W 5173   1.011   0.276   9.583
  974W        W 5174   1.016   0.506  10.418
  975W        W 5175   7.341   7.947  10.447
  976W        W 5176   0.208   0.794   2.862
  977W        W 5177   6.075   7.574  11.277
  978W        W 5178   4.547   4.545   1.343
  979W        W 5179  10.378  10.812   1.961
  980W        W 5180   3.060   0.826   1.224
  981W        W 5181   8.623   4.709   1.740
  982W        W 5182   4.706   7.585  10.319
  983W        W 5183   8.609   4.833  11.980
  984W        W 5184   3.211   7.390  11.711
  985W        W 5185   7.283   2.324   1.858
  986W        W 5186   8.443   2.723   3.551
  987W        W 5187   5.678  10.824   9.452
  988W        W 5188  11.375   8.656  11.634
  989W        W 5189   9.014   4.549   8.353
  990W        W 5190   9.332   0.359   1.074
  991W        W 5191   7.059   5.512  11.992
  992W        W 5192   3.896   2.167   2.909
  993W        W 5193   8.121   6.551   1.367
  994W        W 5194   3.899   6.656   8.977
  995W        W 5195   5.270  11.480   9.702
  996W        W 5196   6.917   8.609   1.312
  997W        W 5197  10.924  10.089  11.883
  998W        W 5198   1.873   5.024  10.744
  999W        W 5199   4.296   8.161   1.379
 1000W        W 5200   0.947   5.024   2.599
 1001W        W 5201  10.387   8.954  11.885
 1002W        W 5202   2.685   1.191  10.319
 1003W        W 5203   8.884   2.798   1.810
 1004W        W 5204   7.918   9.053   2.646
 1005W        W 5205   7.138   3.084  10.668
 1006W        W 5206  11.022   5.673  11.849
 1007W        W 5207   2.705   3.109   9.875
 1008W        W 5208   3.938   0.756   1.608
 1009W        W 5209   7.215   9.024  11.265
 1010W        W 5210   7.597   3.624  10.947
 1011W        W 5211   2.687   4.120   1.532
 1012W        W 5212   1.334   3.934   3.367
 1013W        W 5213  10.858  10.635   1.726
 1014W        W 5214   0.804   6.069   2.345
 1015W        W 5215  10.101   8.155   8.845
 1016W        W 5216   3.751  10.469   1.929
 1017W        W 5217  10.780   2.321   9.276
 1018W        W 5218   0.548   0.475   9.503
 1019W        W 5219   6.096   0.112   3.218
 1020W        W 5220   5.260   7.260   2.796
 1021W        W 5221   9.492  10.674   3.277
 1022W        W 5222   0.066   5.879   3.586
 1023W        W 5223   6.003   9.900   3.252
 1024W        W 5224   5.180   6.548   9.602
 1025W        W 5225   6.736  10.962  10.318
 1026W        W 5226   7.876   2.214  10.235
 1027W        W 5227   0.163  10.880   1.720
 1028W        W 5228   9.108   5.085   8.130
 1029W        W 5229   5.642   3.723   0.263
 1030W        W 5230   0.847   2.854   3.137
 1031W        W 5231   1.283   2.552  10.409
 1032W        W 5232   9.082   2.094   9.458
 1033W        W 5233   6.877   8.108  10.700
 1034W        W 5234   2.927   8.066   0.003
 1035W        W 5235   4.049   0.184   2.316
 1036W        W 5236   9.439   3.725   8.965
 1037W        W 5237  10.795   6.586   0.094
 1038W        W 5238   8.227   4.886   0.542
 1039W        W 5239   0.907  11.155   8.989
 1040W        W 5240  10.969   9.625   8.672
 1041W        W 5241   8.876   7.629   3.172
 1042W        W 5242   0.967   2.047   8.650
 1043W        W 5243   5.917   1.282   1.212
 1044W        W 5244   5.758   5.779   2.485
 1045W        W 5245   7.457   8.560   9.643
 1046W        W 5246  11.248   0.729   2.552
 1047W        W 5247   9.011   9.008  10.724
 1048W        W 5248   5.564   4.541  11.201
 1049W        W 5249   2.865   0.432   0.753
 1050W        W 5250   4.201  10.083   8.753
 1051W        W 5251   3.182   6.732  10.775
 1052W        W 5252   0.470  11.481   8.737
 1053W        W 5253   7.111   0.788   1.828
 1054W        W 5254   5.306  11.479   3.553
 1055W        W 5255   1.582   7.214  10.216
 1056W        W 5256   4.755   8.610   8.607
 1057W        W 5257   3.514   0.291   3.226
 1058W        W 5258   3.192   5.724   1.539
 1059W        W 5259   7.286   6.074   1.424
 1060W        W 5260   6.129   2.164   1.268
 1061W        W 5261   3.664   8.490   3.137
 1062W        W 5262   7.590   9.727   2.331
 1063W        W 5263   4.827   9.616  10.274
 1064W        W 5264   5.492   7.564   1.252
 1065W        W 5265   7.418   4.949   9.469
 1066W        W 5266  11.360   0.771  10.000
 1067W        W 5267   3.189   9.469   3.238
 1068W        W 5268   5.726   7.486   1.672
 1069W        W 5269   2.784   4.576  11.185
 1070W        W 5270   9.813   1.874  11.383
 1071W        W 5271   0.187   1.310   8.913
 1072W        W 5272   9.528   3.140  11.058
 1073W        W 5273   1.434   3.926  10.435
 1074W        W 5274   4.311   4.164   0.636
 1075W        W 5275   5.760  10.336   2.281
 1076W        W 5276   9.144   3.185   2.588
 1077W        W 5277   5.810  11.091   1.750
 1078W        W 5278   1.175   2.686   3.476
 1079W        W 5279  10.945  11.442  10.879
 1080W        W 5280   7.663  11.304   2.124
 1081W        W 5281   7.075   1.005   2.678
 1082W        W 5282   2.531   4.371  11.593
 1083W        W 5283   0.999   4.588  10.919
 1084W        W 5284   2.040   1.497   8.486
 1085W        W 5285   7.306   2.215  11.884
 1086W        W 5286   0.785   3.757   1.315
 1087W        W 5287   9.738   9.528   2.012
 1088W        W 5288   7.770   3.885  11.378
 1089W        W 5289   6.452   7.421   3.168
 1090W        W 5290   8.638   5.125   0.413
 1091W        W 5291   4.708   8.998   3.656
 1092W        W 5292   4.266   6.518   9.534
 1093W        W 5293   4.171   4.159   1.211
 1094W        W 5294   8.091   5.152   3.941
 1095W        W 5295   7.083   3.951   9.516
 1096W        W 5296   2.855   1.273   9.283
 1097W        W 5297   5.516   3.227   3.062
 1098W        W 5298   6.938   0.977   9.352
 1099W        W 5299   7.956   9.448   2.972
 1100W        W 5300   4.532   6.524   9.964
 1101W        W 5301   5.140   2.386   1.343
 1102W        W 5302   4.537   6.560  11.459
 1103W        W 5303   7.676   7.479   0.877
 1104W        W 5304   5.454  10.372   0.273
 1105W        W 5305  10.925   2.279  11.983
 1106W        W 5306   5.106   2.038  10.441
 1107W        W 5307   4.664   5.590  11.004
 1108W        W 5308   2.902   0.858   2.619
 1109W        W 5309   1.185   0.431   0.208
 1110W        W 5310  10.469   0.798   1.901
 1111W        W 5311   6.047   7.884  10.497
 1112W        W 5312   5.128   4.454   3.406
 1113W        W 5313   0.527   6.189   8.898
 1114W        W 5314   3.817   4.075   0.847
 1115W        W 5315   4.851   2.754   9.017
 1116W        W 5316   3.279   9.135  10.568
 1117W        W 5317   6.672   9.024  11.694
 1118W        W 5318   5.823   3.254  11.682
 1119W        W 5319   5.067   4.655   2.149
 1120W        W 5320   5.344   6.105   9.994
 1121W        W 5321   4.613   5.113  10.695
 1122W        W 5322   5.244   0.308   1.833
 1123W        W 5323   2.628  11.020   1.595
 1124W        W 5324   1.799   7.782  10.916
 1125W        W 5325   3.637   0.730   0.207
 1126W        W 5326   9.357   0.367  11.887
 1127W        W 5327   4.961   0.223   8.863
 1128W        W 5328   8.166   8.923  11.237
 1129W        W 5329   7.463   0.163  11.937
 1130W        W 5330  10.331  10.368   3.161
 1131W        W 5331   0.613   8.790   1.320
 1132W        W 5332   7.474   9.403   3.312
 1133W        W 5333   0.484   8.180   2.123
 1134W        W 5334  10.447   6.933   1.868
 1135W        W 5335   6.433   0.050  11.908
 1136W        W 5336   5.742   7.561   2.178
 1137W        W 5337   7.000   6.511  11.800
 1138W        W 5338   9.883   8.097   1.287
 1139W        W 5339   6.059   9.701   9.082
 1140W        W 5340   7.212  10.917   3.289
 1141W        W 5341   5.248  11.280   0.464
 1142W        W 5342   4.605  11.400  10.598
 1143W        W 5343  10.457   0.989   8.783
 1144W        W 5344   6.185   2.966   1.717
 1145W        W 5345  11.241   2.712   1.411
 1146W        W 5346   0.902   7.054  11.994
 1147W        W 5347   9.443  10.749   2.772
 1148W        W 5348  10.878   1.130  10.178
 1149W        W 5349   3.439   0.815   1.684
 1150W        W 5350   8.841   2.470   0.929
 1151W        W 5351   8.473  10.248   1.309
 1152W        W 5352   0.975   7.103   9.264
 1153W        W 5353   7.389   1.142   0.734
 1154W        W 5354   6.635   7.577   0.283
 1155W        W 5355   5.075   9.855  11.817
 1156W        W 5356  11.050   3.217   1.340
 1157W        W 5357   1.416   1.462  10.641
 1158W        W 5358   5.038   1.679   2.303
 1159W        W 5359   0.113   6.478   0.523
 1160W        W 5360   0.392   6.616  11.521
 1161W        W 5361   4.820   3.305  11.462
 1162W        W 5362   4.798  11.322  11.574
 1163W        W 5363   7.958   4.425   2.052
 1164W        W 5364   5.237   0.890   2.474
 1165W        W 5365   9.830   0.873   1.056
 1166W        W 5366   8.773   3.587   8.642
 1167W        W 5367   4.103   2.377   9.806
 1168W        W 5368   2.470   1.893   0.962
 1169W        W 5369   0.327  10.902   3.501
 1170W        W 5370   0.114   8.204  10.415
 1171W        W 5371   2.267   9.661   8.938
 1172W        W 5372   5.044   5.679   1.362
 1173W        W 5373   9.314   4.221   9.068
 1174W        W 5374  11.273   5.228   0.539
 1175W        W 5375   1.745   1.038   8.806
 1176W        W 5376   3.564   7.233   1.022
 1177W        W 5377   3.631   4.933   9.461
 1178W        W 5378   7.380  10.890   1.216
 1179W        W 5379   3.131   1.179  11.073
 1180W        W 5380   9.886   8.998  11.079
 1181W        W 5381   3.441   7.457   9.832
 1182W        W 5382  11.228   1.872  11.890
 1183W        W 5383  11.465   1.263   9.813
 1184W        W 5384   7.867   4.612   1.256
 1185W        W 5385   7.877  10.679  10.486
 1186W        W 5386  10.007   5.240   2.932
 1187W        W 5387   7.486   4.115  10.928
 1188W        W 5388   0.076   0.858  11.726
 1189W        W 5389   5.836   1.329  11.856
 1190W        W 5390   2.771   4.071  10.978
 1191W        W 5391   6.779   8.199  11.595
 1192W        W 5392   9.210   1.152  10.436
 1193W        W 5393   4.806   0.164   9.860
 1194W        W 5394   8.003   5.227   1.431
 1195W        W 5395   5.040  10.885   1.784
 1196W        W 5396   8.318  10.977   0.929
 1197W        W 5397  10.279   8.965   0.995
 1198W        W 5398  11.355   5.116   3.567
 1199W        W 5399   1.739   5.215   9.005
 1200W        W 5400   2.556   8.028   0.944
 1201W        W 5401   6.153   6.709   3.820
 1202W        W 5402   7.026   5.643   1.456
 1203W        W 5403   8.730   4.074   2.290
 1204W        W 5404   0.013   1.846   9.090
 1205W        W 5405   9.059   2.380   2.977
 1206W        W 5406   1.434   1.751   0.186
 1207W        W 5407   1.762   2.379   1.797
 1208W        W 5408   0.820   9.801   9.875
 1209W        W 5409   6.891   9.936  10.921
 1210W        W 5410   4.527   4.783   8.258
 1211W        W 5411   7.920   8.928  10.396
 1212W        W 5412   4.662   3.818   0.855
 1213W        W 5413   8.967   9.875  10.612
 1214W        W 5414   1.977   7.565  11.352
 1215W        W 5415   6.018   3.588   4.111
 1216W        W 5416   0.009   0.406  10.390
 1217W        W 5417   7.995  10.787  11.540
 1218W        W 5418   5.833   3.099   1.385
 1219W        W 5419   2.293   4.108  10.586
 1220W        W 5420   0.706   8.722   9.031
 1221W        W 5421   6.221   4.546   9.396
 1222W        W 5422  11.391   9.810   1.630
 1223W        W 5423   1.855  10.089  11.585
 1224W        W 5424   0.923   1.923   9.378
 1225W        W 5425   8.445   9.531   2.780
 1226W        W 5426   5.482   0.837   9.603
 1227W        W 5427   5.429   3.367   1.101
 1228W        W 5428   9.234   2.049   0.392
 1229W        W 5429   5.621   8.981   2.000
 1230W        W 5430  10.019   9.902   2.710
 1231W        W 5431   6.641   4.186   3.148
 1232W        W 5432   9.933   9.854   1.211
 1233W        W 5433   9.209   0.635  10.409
 1234W        W 5434   3.786   8.033  10.009
 1235W        W 5435   8.713   2.188   0.257
 1236W        W 5436   9.092   9.484   1.375
 1237W        W 5437   1.824   2.633  10.121
 1238W        W 5438   8.904   7.188   9.981
 1239W        W 5439   5.602   9.548   8.905
 1240W        W 5440   3.111   2.365  10.130
 1241W        W 5441   1.254   4.730   0.138
 1242W        W 5442  11.426   1.884   1.986
 1243W        W 5443   9.435   5.163   9.066
 1244W        W 5444  11.237  11.261   0.542
 1245W        W 5445   2.593  10.756   9.566
 1246W        W 5446   8.558   9.540   0.795
 1247W        W 5447   3.871   0.431   9.692
 1248W        W 5448   5.944   4.752  11.885
 1249W        W 5449   0.773   0.090   0.260
 1250W        W 5450   7.211   2.291   9.349
 1251W        W 5451   2.584   2.330   0.422
 1252W        W 5452   3.189   1.752   2.489
 1253W        W 5453  10.852   7.987  11.605
 1254W        W 5454   8.493   1.750   1.868
 1255W        W 5455   9.365   7.618   3.086
 1256W        W 5456   8.522   5.750  11.836
 1257W        W 5457   5.635   2.129  10.900
 1258W        W 5458   2.126   6.538   8.527
 1259W        W 5459  10.874   4.121   9.111
 1260W        W 5460   4.826  10.277   9.136
 1261W        W 5461   3.351   6.100  10.202
 1262W        W 5462  11.247   2.313   2.942
 1263W        W 5463   1.171   1.797  10.313
 1264W        W 5464   8.889   9.946   2.042
 1265W        W 5465   3.214   1.594   9.598
 1266W        W 5466   0.744  10.691   8.800
 1267W        W 5467  10.529   1.365  11.029
 1268W        W 5468  11.358   8.829  11.155
 1269W        W 5469   8.764   3.197   3.535
 1270W        W 5470   2.215  11.362   1.408
 1271W        W 5471   3.462  11.170   2.544
 1272W        W 5472   5.894   4.154  11.444
 1273W        W 5473   2.339   8.992   1.011
 1274W        W 5474   0.933   0.370   2.636
 1275W        W 5475   7.656  11.091   2.574
 1276W        W 5476   3.787   8.157   8.714
 1277W        W 5477   6.090   6.503   0.299
 1278W        W 5478  11.352   7.421  11.917
 1279W        W 5479   1.540   4.379   9.009
 1280W        W 5480   5.473  11.504   2.612
 1281W        W 5481  11.426   7.583   1.099
 1282W        W 5482   6.124   4.845   0.844
 1283W        W 5483   4.671   3.582  10.982
 1284W        W 5484   8.519   2.479   1.362
 1285W        W 5485   1.957  10.884  10.953
 1286W        W 5486   7.708   4.373   3.268
 1287W        W 5487   6.682   8.367   9.000
 1288W        W 5488   7.721   2.244   2.685
 1289W        W 5489   1.586   7.042  11.534
 1290W        W 5490   7.090   1.882  11.287
 1291W        W 5491   5.573   6.606   2.607
 1292W        W 5492   9.023   3.327   1.135
 1293W        W 5493   9.390   7.452   0.416
 1294W        W 5494   8.007   2.938  11.872
 1295W        W 5495   0.497   7.101  11.716
 1296W        W 5496  10.834  10.985   2.632
 1297W        W 5497   5.412   2.371   3.531
 1298W        W 5498   1.108   2.456  11.694
 1299W        W 5499   9.935   9.452   2.479
 1300W        W 5500   0.988   8.368   8.325
 1301W        W 5501   9.175   4.221   2.113
 1302W        W 5502   6.209  10.402   1.994
 1303W        W 5503   5.684   4.118   3.532
 1304W        W 5504   3.773   9.821   8.894
 1305W        W 5505  11.019  11.017  10.463
 1306W        W 5506   3.835   9.799  10.604
 1307W        W 5507   2.533   7.533   1.139
 1308W        W 5508  10.893  10.021   0.894
 1309W        W 5509   0.960   3.657   1.828
 1310W        W 5510   2.141   0.855   9.885
 1311W        W 5511   7.003   1.274   1.016
 1312W        W 5512   6.690   4.331  11.761
 1313W        W 5513  10.925   8.534   1.869
 1314W        W 5514   1.040   0.824  10.872
 1315W        W 5515   3.600  11.237  10.381
 1316W        W 5516   9.328   1.048   2.581
 1317W        W 5517   9.510   2.427   0.104
 1318W        W 5518   1.769  10.820   0.145
 1319W        W 5519  10.029   6.101  11.978
 1320W        W 5520   6.560   4.777   1.122
 1321W        W 5521   2.779   7.381   8.896
 1322W        W 5522   8.957  11.445   3.249
 1323W        W 5523  11.033  10.094   3.652
 1324W        W 5524   1.101   5.634   3.378
 1325W        W 5525   2.397   7.972   1.447
 1326W        W 5526   0.438   3.142   2.792
 1327W        W 5527   6.426   6.683   0.634
 1328W        W 5528   3.185   9.994   3.345
 1329W        W 5529   3.612   0.375   1.443
 1330W        W 5530   2.558   1.100   9.679
 1331W        W 5531   3.317   7.150   0.566
 1332W        W 5532  11.045   1.657   9.333
 1333W        W 5533   2.623   3.505  11.792
 1334W        W 5534   5.725   5.264   1.196
 1335W        W 5535   6.162   2.896  11.805
 1336W        W 5536   6.016   1.315  10.304
 1337W        W 5537   4.629   7.956  11.550
 1338W        W 5538  11.291   9.332   9.087
 1339W        W 5539  11.313   9.779   0.716
 1340W        W 5540   7.472   6.839   9.426
 1341W        W 5541   3.319  10.606   9.124
 1342W        W 5542   2.275   6.939   2.287
 1343W        W 5543   8.716   4.691  10.615
 1344W        W 5544   8.972   3.281   3.068
 1345W        W 5545   7.480   7.050   2.686
 1346W        W 5546   9.091   6.482   0.948
 1347W        W 5547   5.330   0.038   9.178
 1348W        W 5548   0.916   9.788  11.816
 1349W        W 5549  10.720  11.149   1.818
 1350W        W 5550   5.800  10.494   2.813
 1351W        W 5551   3.925   1.609   2.068
 1352W        W 5552   3.221   4.654  11.863
 1353W        W 5553   7.027   9.507   3.028
 1354W        W 5554   4.052   1.290  10.614
 1355W        W 5555   3.593  10.722  10.340
 1356W        W 5556   5.393   4.039  11.422
 1357W        W 5557   6.961   9.028   1.056
 1358W        W 5558   8.910   1.431  10.140
 1359W        W 5559   1.935   3.872  10.289
 1360W        W 5560   0.237   5.004   9.462
 1361W        W 5561   3.347   7.646  11.291
 1362W        W 5562   6.493   2.585   1.824
 1363W        W 5563   4.158  11.287   9.391
 1364W        W 5564   1.325   4.463   3.399
 1365W        W 5565   4.109   8.189   2.241
 1366W        W 5566   5.626   1.206  10.899
 1367W        W 5567   1.828   7.108   9.782
 1368W        W 5568   1.807   3.607  11.718
 1369W        W 5569   3.144   8.688   1.331
 1370W        W 5570   8.164   7.638   0.813
 1371W        W 5571   4.576   1.858   9.415
 1372W        W 5572   7.719   1.475   2.203
 1373W        W 5573   7.650   1.406   9.245
 1374W        W 5574   9.339   0.382   8.215
 1375W        W 5575   3.394   2.538   3.518
 1376W        W 5576   2.961   9.623   1.709
 1377W        W 5577   1.294   0.288  10.044
 1378W        W 5578   3.979   4.048  10.563
 1379W        W 5579   2.186   5.321   1.136
 1380W        W 5580   5.093   3.616   3.938
 1381W        W 5581   3.739   8.806  11.107
 1382W        W 5582   7.116   8.920   9.542
 1383W        W 5583   9.055  10.334   9.280
 1384W        W 5584   6.615   1.401   3.352
 1385W        W 5585   2.191   9.992   3.152
 1386W        W 5586   4.155   6.216  10.773
 1387W        W 5587   4.150   9.349   0.768
 1388W        W 5588   4.481  11.456   2.437
 1389W        W 5589   1.432   1.136  11.042
 1390W        W 5590   2.691  11.126  11.746
 1391W        W 5591   8.484   1.002   1.086
 1392W        W 5592   5.081   3.269  10.969
 1393W        W 5593   9.302   0.761   2.996
 1394W        W 5594   3.240   2.675   2.740
 1395W        W 5595  11.224   2.179   3.443
 1396W        W 5596   8.558   9.603   3.614
 1397W        W 5597   5.999   7.299   8.613
 1398W        W 5598   3.085   2.362   0.470
 1399W        W 5599   3.616  10.612  11.749
 1400W        W 5600   2.349   4.132   0.875
 1401W        W 5601   8.440   0.741  10.714
 1402W        W 5602  10.302  10.472   9.748
 1403W        W 5603   2.754   7.855   0.461
 1404W        W 5604   8.489   8.820   8.561
 1405W        W 5605   8.181   5.984   8.282
 1406W        W 5606   5.743  10.311   1.747
 1407W        W 5607   6.610   8.089   0.718
 1408W        W 5608   5.657   2.339   8.670
 1409W        W 5609   3.486   1.928   2.127
 1410W        W 5610   3.315   5.719  10.552
 1411W        W 5611  11.313   2.715   3.473
 1412W        W 5612   6.023   2.815   3.660
 1413W        W 5613   6.189  10.544   1.512
 1414W        W 5614   9.686   1.450  11.105
 1415W        W 5615  10.447   0.703   0.466
 1416W        W 5616   2.591   5.637   2.570
 1417W        W 5617   6.092   8.868   2.796
 1418W        W 5618   5.588   8.644   9.917
 1419W        W 5619  10.992   9.901   0.358
 1420W        W 5620   6.538   4.373   8.967
 1421W        W 5621   8.679   8.100   0.063
 1422W        W 5622   7.436   4.325  10.313
 1423W        W 5623   4.647   5.632  10.493
 1424W        W 5624   8.822   4.810   0.807
 1425W        W 5625   4.762   9.697   3.830
 1426W        W 5626   2.395   7.063   1.431
 1427W        W 5627   9.949   2.835  11.099
 1428W        W 5628   1.366   1.653   9.329
 1429W        W 5629   9.700   9.189   0.413
 1430W        W 5630  10.420   1.659   0.223
 1431W        W 5631   4.175   4.698   9.366
 1432W        W 5632   2.225   6.390   9.392
 1433W        W 5633   9.559   6.521   9.077
 1434W        W 5634   7.721   9.405  10.277
 1435W        W 5635   2.437   8.206   1.912
 1436W        W 5636   8.110   8.610   8.901
 1437W        W 5637   9.737   2.091   0.741
 1438W        W 5638   8.977   7.508  11.501
 1439W        W 5639   8.475   4.748   2.679
 1440W        W 5640   8.600   6.475   9.674
 1441W        W 5641   1.675  10.987   1.877
 1442W        W 5642   8.145   6.416   9.462
 1443W        W 5643  11.349   6.007   3.121
 1444W        W 5644   8.030   0.273  11.328
 1445W        W 5645   7.569   7.174   0.484
 1446W        W 5646   0.328   5.858   2.249
 1447W        W 5647   5.217  10.812  10.244
 1448W        W 5648   7.342   7.837   2.318
 1449W        W 5649   6.040   2.023   8.859
 1450W        W 5650   6.329   6.068  10.125
 1451W        W 5651   8.691   4.075   3.345
 1452W        W 5652   5.599   9.304  11.309
 1453W        W 5653   7.265   9.748   0.041
 1454W        W 5654   8.664   3.720   0.422
 1455W        W 5655   8.886  11.189  11.891
 1456W        W 5656   4.970  11.155   0.899
 1457W        W 5657   4.881   3.270   9.175
 1458W        W 5658   1.919   4.749   8.921
 1459W        W 5659   5.441   6.611  10.358
 1460W        W 5660   1.254   1.238   0.049
 1461W        W 5661   6.226   8.009   0.246
 1462W        W 5662   9.773   8.623   0.576
 1463W        W 5663  10.763   2.786   1.207
 1464W        W 5664   0.296  10.359  11.314
 1465W        W 5665   6.015   0.875   0.046
 1466W        W 5666   1.352   9.076  11.659
 1467W        W 5667   2.295   1.455  10.608
 1468W        W 5668   2.082   9.361   9.345
 1469W        W 5669   5.242   9.226   3.264
 1470W        W 5670   6.503   9.482   2.314
 1471W        W 5671   5.992   5.511  10.357
 1472W        W 5672   8.458   3.059   3.099
 1473W        W 5673   3.912   0.420  10.937
 1474W        W 5674   7.258   5.075   9.960
 1475W        W 5675   7.592   5.890  11.210
 1476W        W 5676   2.958   1.274   0.421
 1477W        W 5677   8.424   9.757   1.269
 1478W        W 5678  10.696   5.269  11.770
 1479W        W 5679   3.207   4.514   3.383
 1480W        W 5680   0.573   0.802  11.746
 1481W        W 5681   8.585   6.932  10.273
 1482W        W 5682   0.695   8.150  10.042
 1483W        W 5683   0.352   0.751  11.282
 1484W        W 5684   5.945   9.018   1.001
 1485W        W 5685   4.747   0.472   1.850
 1486W        W 5686   2.852   0.443   8.954
 1487W        W 5687   7.801   3.081   2.869
 1488W        W 5688   9.110   3.329   9.445
 1489W        W 5689   2.798   4.200   3.475
 1490W        W 5690   1.737   2.698  10.629
 1491W        W 5691  10.882   9.818   9.162
 1492W        W 5692   0.285   7.634  10.832
 1493W        W 5693   9.148   6.224   2.284
 1494W        W 5694   7.481   5.746  11.719
 1495W        W 5695   5.941   5.175  11.373
 1496W        W 5696   1.466   6.180   1.675
 1497W        W 5697   1.897   6.142   1.399
 1498W        W 5698  10.939   4.069   0.596
 1499W        W 5699   9.467   5.952   9.725
 1500W        W 5700   2.570   5.260  11.814
 1501W        W 5701   7.914   1.357   3.155
 1502W        W 5702   2.385   0.974  11.991
 1503W        W 5703   6.125   1.266  10.805
 1504W        W 5704   5.250   1.553  10.598
 1505W        W 5705   0.056   0.350   9.489
 1506W        W 5706   0.396   8.439   0.974
 1507W        W 5707   2.071   4.033  11.404
 1508W        W 5708   2.871   0.324   9.926
 1509W        W 5709   0.241   5.613   2.692
 1510W        W 5710   6.463   2.074  11.871
 1511W        W 5711   4.254   2.554  11.877
 1512W        W 5712   3.553   2.083  10.003
 1513W        W 5713   1.022   2.068   0.082
 1514W        W 5714   6.566   8.142   9.498
 1515W        W 5715   0.151  10.526   2.369
 1516W        W 5716   1.323   3.998   1.960
 1517W        W 5717   4.322  10.992   8.964
 1518W        W 5718  10.942   6.722   9.738
 1519W        W 5719   1.410  10.443   3.372
 1520W        W 5720   2.508   5.786  10.005
 1521W        W 5721   4.885   2.361   3.421
 1522W        W 5722   3.296   5.010  10.051
 1523W        W 5723   2.109   4.575  11.413
 1524W        W 5724  11.336   3.307  10.582
 1525W        W 5725   1.676   7.474   1.717
 1526W        W 5726   6.577   0.777   8.912
 1527W        W 5727   7.829   9.866  11.301
 1528W        W 5728  10.665   4.292  11.770
 1529W        W 5729   6.821   0.998  11.515
 1530W        W 5730   3.172   9.770   0.471
 1531W        W 5731   3.739   2.781   1.161
 1532W        W 5732   7.358   5.611  10.815
 1533W        W 5733   7.154   4.869  11.171
 1534W        W 5734   8.532   8.707   3.964
 1535W        W 5735   7.996   5.731  10.038
 1536W        W 5736  10.543   5.989   2.750
 1537W        W 5737   6.457   4.724  10.182
 1538W        W 5738   2.507   0.537   8.576
 1539W        W 5739   3.302   2.724  10.445
 1540W        W 5740   5.678   1.799   8.538
 1541W        W 5741   5.825   6.121   1.361
 1542W        W 5742   1.865   7.461   9.017
 1543W        W 5743   9.975   9.848  11.721
 1544W        W 5744   1.487   3.286   2.719
 1545W        W 5745   7.739   0.068   0.361
 1546W        W 5746   8.486  11.436   2.116
 1547W        W 5747   5.188   3.962   3.575
 1548W        W 5748   3.783   8.505   0.704
 1549W        W 5749   7.964   1.428   2.662
 1550W        W 5750   3.803   0.742   0.853
 1551W        W 5751   8.026   8.448   2.343
 1552W        W 5752  10.486   2.294   2.983
 1553W        W 5753   2.211   8.097   9.923
 1554W        W 5754  10.986   7.187  10.989
 1555W        W 5755   4.563   3.530   8.642
 1556W        W 5756   5.048   3.570   8.788
 1557W        W 5757   3.854   1.262   1.677
 1558W        W 5758  11.067   0.391   2.908
 1559W        W 5759  10.560   5.206   2.247
 1560W        W 5760   7.199   5.269  10.443
 1561W        W 5761   4.799   3.567   2.453
 1562W        W 5762   8.926   1.986   8.967
 1563W        W 5763   8.619   3.333   0.789
 1564W        W 5764   5.693   2.723   0.010
 1565W        W 5765   4.602  10.793   9.377
 1566W        W 5766   0.830   4.706  10.452
 1567W        W 5767   2.851   1.368   2.812
 1568W        W 5768   5.255   5.085   1.959
 1569W        W 5769   3.288   7.477   8.977
 1570W        W 5770   5.546   2.686   1.439
 1571W        W 5771   4.247   0.765   9.074
 1572W        W 5772   5.553   4.962  10.874
 1573W        W 5773  10.349   4.756  10.721
 1574W        W 5774  10.928   9.861   2.209
 1575W        W 5775   7.946   6.558   2.295
 1576W        W 5776   0.360   5.664   1.046
 1577W        W 5777   8.608   0.743   9.876
 1578W        W 5778  10.504   2.392  11.048
 1579W        W 5779   8.003   7.899   1.789
 1580W        W 5780   5.543   3.863   1.101
 1581W        W 5781   9.108   8.397   0.035
 1582W        W 5782   9.697   5.108  10.007
 1583W        W 5783   9.929   9.108   9.553
 1584W        W 5784  11.285   7.218   0.775
 1585W        W 5785   4.677  10.704  11.017
 1586W        W 5786   9.516  10.093   0.350
 1587W        W 5787   0.720   0.637   0.220
 1588W        W 5788   2.775   6.636   1.778
 1589W        W 5789   3.179   0.431  10.523
 1590W        W 5790   4.820   5.135   0.522
 1591W        W 5791   0.812   4.523   9.898
 1592W        W 5792   1.524   1.866   1.155
 1593W        W 5793   3.980   2.636   9.086
 1594W        W 5794   4.417   6.618   9.061
 1595W        W 5795   9.483   0.087   9.917
 1596W        W 5796  10.572   8.550   0.828
 1597W        W 5797  10.797   2.697   0.709
 1598W        W 5798   0.595  11.054   3.126
 1599W        W 5799   9.005  11.349   2.207
 1600W        W 5800  10.413   3.821  10.843
 1601W        W 5801   1.725   7.262  10.707
 1602W        W 5802   0.902  11.366   2.472
 1603W        W 5803   4.010   1.072   1.204
 1604W        W 5804   0.093   4.610   9.184
 1605W        W 5805  11.370  10.835   1.285
 1606W        W 5806   1.261   8.634  11.407
 1607W        W 5807   1.849   3.385   8.861
 1608W        W 5808   4.344   2.272  10.499
 1609W        W 5809   0.624   3.291   3.219
 1610W        W 5810   3.020   9.455   2.717
 1611W        W 5811   7.606   7.196  11.969
 1612W        W 5812   1.642   0.172  10.741
 1613W        W 5813   7.407   9.838  11.559
 1614W        W 5814  11.402   4.543  11.483
 1615W        W 5815  11.050   2.024   8.957
 1616W        W 5816   8.630   6.430  10.219
 1617W        W 5817   0.261  11.001  11.952
 1618W        W 5818   2.445   6.906   4.110
 1619W        W 5819   4.624   7.054  11.600
 1620W        W 5820   9.851   1.223   1.688
 1621W        W 5821   5.201   1.354   2.789
 1622W        W 5822   1.708   4.891   1.865
 1623W        W 5823   3.818  10.011   2.693
 1624W        W 5824   8.853   2.821   2.323
 1625W        W 5825   4.476   8.214   9.040
 1626W        W 5826   6.730   3.592   9.431
 1627W        W 5827   9.821   6.971   9.088
 1628W        W 5828   4.427   2.767   9.278
 1629W        W 5829   8.625   8.886   2.446
 1630W        W 5830   2.211   0.983  10.361
 1631W        W 5831   2.523   4.502   0.553
 1632W        W 5832   6.061   7.944   9.526
 1633W        W 5833   1.545   1.314   2.252
 1634W        W 5834   4.335   1.472   1.752
 1635W        W 5835   1.493   8.653   1.498
 1636W        W 5836   2.891   2.354  11.607
 1637W        W 5837   8.366   1.383   3.407
 1638W        W 5838   5.004   7.230   9.638
 1639W        W 5839   2.555   3.555   2.574
 1640W        W 5840  10.312   7.940   0.419
 1641W        W 5841   3.838   5.972   0.460
 1642W        W 5842   3.806   0.919  10.893
 1643W        W 5843   5.427   3.297   1.609
 1644W        W 5844   7.275   3.815  11.348
 1645W        W 5845   3.531   0.878   3.376
 1646W        W 5846   2.193   1.769  11.027
 1647W        W 5847   2.239   5.221   0.201
 1648W        W 5848   0.024   4.222  10.258
 1649W        W 5849   2.820   5.123   2.630
 1650W        W 5850   7.930   5.049   9.519
 1651W        W 5851   2.881   9.870   0.890
 1652W        W 5852   4.034   9.846   0.074
 1653W        W 5853   9.089   3.949  11.261
 1654W        W 5854  10.759  10.770   9.162
 1655W        W 5855  11.412   0.004   3.512
 1656W        W 5856   0.537   7.475   0.218
 1657W        W 5857   4.709   2.099  10.795
 1658W        W 5858   8.097   3.180   1.169
 1659W        W 5859   9.157   6.249   2.807
 1660W        W 5860   1.644   8.334   8.826
 1661W        W 5861  10.905   5.749   9.993
 1662W        W 5862   5.525   0.256   0.470
 1663W        W 5863   2.200   8.176   2.753
 1664W        W 5864   0.335  11.323   3.749
 1665W        W 5865   1.063   2.231   2.375
 1666W        W 5866   8.020   7.546   2.150
 1667W        W 5867   9.084   1.992   2.643
 1668W        W 5868   2.322   5.575  11.437
 1669W        W 5869   6.317   8.313  10.347
 1670W        W 5870   8.093   8.000  11.580
 1671W        W 5871   0.219   4.208   3.380
 1672W        W 5872  11.472   5.194   2.778
 1673W        W 5873   2.924  10.208   0.442
 1674W        W 5874   6.103   3.013   2.371
 1675W        W 5875   2.022   4.811   2.767
 1676W        W 5876   9.042  11.147  11.307
 1677W        W 5877   4.764   9.940   2.971
 1678W        W 5878   8.357   7.616  10.737
 1679W        W 5879   4.743   9.417   9.743
 1680W        W 5880   8.094   0.663  11.661
 1681W        W 5881   1.670   9.559   9.628
 1682W        W 5882   7.568   2.013   3.423
 1683W        W 5883   8.932   1.438   8.819
 1684W        W 5884   1.981   7.624   9.915
 1685W        W 5885   0.017  10.937  10.651
 1686W        W 5886   0.210   0.291  11.028
 1687W        W 5887   4.334  10.470   9.059
 1688W        W 5888   6.614   4.397   8.451
 1689W        W 5889   8.611  11.393  11.438
 1690W        W 5890   4.704   2.062   8.469
 1691W        W 5891   9.427   4.130   3.135
 1692W        W 5892   9.010   8.781   9.378
 1693W        W 5893   2.098   7.223   1.877
 1694W        W 5894   9.565   2.623  10.854
 1695W        W 5895   3.268   2.913   1.342
 1696W        W 5896   7.071   1.811   9.461
 1697W        W 5897   3.555   3.847  11.809
 1698W        W 5898  11.112   4.981  10.487
 1699W        W 5899   8.933   9.130   3.448
 1700W        W 5900  11.237   9.358   2.435
 1701W        W 5901   4.312   2.444   3.210
 1702W        W 5902   0.305   7.534   0.749
 1703W        W 5903   3.057   6.163   9.356
 1704W        W 5904   1.320   0.319  11.726
 1705W        W 5905  10.462   9.386   1.268
 1706W        W 5906   9.002   3.766  10.795
 1707W        W 5907   6.000   2.312  10.100
 1708W        W 5908  11.277   3.303  10.077
 1709W        W 5909   8.813   7.107   2.571
 1710W        W 5910   8.364   9.875  11.307
 1711W        W 5911   2.765  11.388   0.702
 1712W        W 5912   7.518   2.710   2.674
 1713W        W 5913  10.448   9.542   8.715
 1714W        W 5914   4.629   8.568   3.288
 1715W        W 5915   0.433   1.927   3.360
 1716W        W 5916   2.357   2.841   1.332
 1717W        W 5917   6.067   9.343  11.062
 1718W        W 5918   7.323   7.817   1.451
 1719W        W 5919   6.146   0.497   8.807
 1720W        W 5920   6.539  10.943   8.805
 1721W        W 5921   7.943   0.485   8.815
 1722W        W 5922   7.122   7.255   9.355
 1723W        W 5923   5.952   7.564   0.242
 1724W        W 5924   1.709   7.417   2.990
 1725W        W 5925  10.459   3.132   2.371
 1726W        W 5926   1.438   9.767   3.801
 1727W        W 5927  10.676   6.972   1.392
 1728W        W 5928   8.362   6.868   9.334
 1729W        W 5929   7.059  10.011   9.084
 1730W        W 5930   4.418   8.098   3.212
 1731W        W 5931   4.582   7.094  10.525
 1732W        W 5932   2.885   9.454  10.891
 1733W        W 5933   3.099   9.957  11.054
 1734W        W 5934   8.151   6.650  10.409
 1735W        W 5935  11.292   1.413   1.807
 1736W        W 5936   4.212   7.617   3.123
 1737W        W 5937   2.152   7.155   0.985
 1738W        W 5938   0.335   1.311   9.411
 1739W        W 5939  11.047  11.259   1.258
 1740W        W 5940   4.479   5.292   0.946
 1741W        W 5941   5.241   7.832   1.628
 1742W        W 5942   9.705   5.496   9.473
 1743W        W 5943   9.131   4.892   8.715
 1744W        W 5944  11.320   5.464  10.390
 1745W        W 5945  10.750   0.563   2.530
 1746W        W 5946   8.246   1.483   2.226
 1747W        W 5947   9.632   7.141  11.811
 1748W        W 5948   1.771   0.570  11.507
 1749W        W 5949   8.518   0.455   2.245
 1750W        W 5950  10.961   7.216   3.132
 1751W        W 5951  10.896   9.124   2.726
 1752W        W 5952   1.727   2.677  11.151
 1753W        W 5953   2.584   7.235   2.772
 1754W        W 5954   6.503   0.168   0.965
 1755W        W 5955   8.634   1.011   1.573
 1756W        W 5956   7.088   8.910  10.768
 1757W        W 5957   9.002   7.437   9.080
 1758W        W 5958   4.880   3.239   3.659
 1759W        W 5959   0.367   8.606  11.849
 1760W        W 5960   5.629   2.745   2.364
 1761W        W 5961  11.426   5.965   0.556
 1762W        W 5962   1.442   2.722   2.508
 1763W        W 5963   1.501   7.167   8.548
 1764W        W 5964   7.194   3.344  11.114
 1765W        W 5965  10.835   7.467  11.806
 1766W        W 5966   6.680   0.546   0.671
 1767W        W 5967   4.355   2.060  11.929
 1768W        W 5968  10.083   6.848  10.320
 1769W        W 5969   1.770  11.284  11.926
 1770W        W 5970   2.217   5.657   0.488
 1771W        W 5971   3.103  11.430  10.126
 1772W        W 5972   3.197   6.458   1.150
 1773W        W 5973  10.901   3.842   3.116
 1774W        W 5974   3.676   9.813   0.417
 1775W        W 5975   3.345   3.788   2.035
 1776W        W 5976   3.399  11.170  11.537
 1777W        W 5977   3.349   4.265   1.788
 1778W        W 5978   3.606   4.809   0.167
 1779W        W 5979   2.964   4.242   0.438
 1780W        W 5980   2.455  11.421   1.882
 1781W        W 5981   8.382   3.129   2.196
 1782W        W 5982   6.279  10.934   1.833
 1783W        W 5983   3.298  11.010   2.001
 1784W        W 5984   0.869   3.204   9.974
 1785W        W 5985   7.988  10.483  10.027
 1786W        W 5986   7.408   8.998  10.376
 1787W        W 5987   8.160   5.167   2.720
 1788W        W 5988   5.699  10.322   9.402
 1789W        W 5989   6.637   7.312   9.176
 1790W        W 5990   2.084   5.617   2.433
 1791W        W 5991   5.426   5.115  11.346
 1792W        W 5992   6.267   0.855   1.409
 1793W        W 5993   7.866   4.548   0.708
 1794W        W 5994   4.133   5.146  10.035
 1795W        W 5995   6.180   3.301  11.239
 1796W        W 5996  10.413   0.296   2.241
 1797W        W 5997   4.292  10.567   0.552
 1798W        W 5998   2.830   5.047   9.876
 1799W        W 5999   7.648   7.594   2.746
 1800W        W 6000   0.502   1.492  10.816
 1801W        W 6001   2.472   9.836   9.363
 1802W        W 6002   9.069   0.387   9.958
 1803W        W 6003   8.952  10.506  10.309
 1804W        W 6004   9.402   1.498   9.590
 1805W        W 6005  11.280   0.975   8.877
 1806W        W 6006   8.583   3.321   9.422
 1807W        W 6007   0.293   5.752  11.347
 1808W        W 6008   4.333   8.325  10.071
 1809W        W 6009   1.534   7.796  11.477
 1810W        W 6010   6.876   3.312   0.481
 1811W        W 6011   8.063   0.683   1.005
 1812W        W 6012   9.936  10.990   9.459
 1813W        W 6013   2.839   3.927   1.992
 1814W        W 6014   5.463   5.291   0.771
 1815W        W 6015   9.511   7.050   4.268
 1816W        W 6016   8.112  10.575   9.174
 1817W        W 6017   5.602   5.723  11.968
 1818W        W 6018  10.010   9.999   0.215
 1819W        W 6019   3.708  11.351   2.157
 1820W        W 6020   3.772   1.227  11.959
 1821W        W 6021   6.290   4.319   1.742
 1822W        W 6022   1.923   2.636   2.271
 1823W        W 6023   3.731   0.207   0.797
 1824W        W 6024  11.472   2.142   0.312
 1825W        W 6025   0.815   9.582   0.308
 1826W        W 6026   9.328   5.506  10.497
 1827W        W 6027   4.285   9.543   1.449
 1828W        W 6028   7.894   4.943  11.878
 1829W        W 6029   7.759   8.650   1.302
 1830W        W 6030   0.395   5.206   2.308
 1831W        W 6031   5.033   0.992   9.434
 1832W        W 6032   2.097   7.476   1.406
 1833W        W 6033   5.064   8.503   3.516
 1834W        W 6034   0.580   8.373  10.504
 1835W        W 6035   6.113   4.051  10.136
 1836W        W 6036   9.997   4.623  11.077
 1837W        W 6037   5.989   3.291   0.941
 1838W        W 6038   7.610  10.474   0.721
 1839W        W 6039   5.299   6.957   0.370
 1840W        W 6040   6.023   2.387  11.759
 1841W        W 6041   4.671   4.793  11.578
 1842W        W 6042   1.563   0.827  11.911
 1843W        W 6043   3.611   5.094  11.288
 1844W        W 6044   5.422   5.736   9.166
 1845W        W 6045  10.253   0.419  11.021
 1846W        W 6046   6.263   6.587   3.343
 1847W        W 6047   6.495   5.568  11.033
 1848W        W 6048   7.979   0.569   2.423
 1849W        W 6049   8.684   2.442   9.392
 1850W        W 6050  11.292   7.026  10.261
 1851W        W 6051   9.537   3.281   1.306
 1852W        W 6052   9.106   6.017   4.066
 1853W        W 6053  11.425  10.375   1.522
 1854W        W 6054   7.164   6.864   0.413
 1855W        W 6055   1.944   5.537  10.813
 1856W        W 6056   8.675   3.239  10.776
 1857W        W 6057   9.081   3.701   2.480
 1858W        W 6058   4.110   0.350  11.473
 1859W        W 6059   3.361   2.381   1.329
 1860W        W 6060   0.373   4.160   2.031
 1861W        W 6061   5.197   6.715   1.636
 1862W        W 6062   6.764   6.724   1.530
 1863W        W 6063  10.089   8.163   0.806
 1864W        W 6064   3.103   1.236   8.823
 1865W        W 6065   4.517   9.491   8.512
 1866W        W 6066   6.149   2.190   0.262
 1867W        W 6067  10.746   0.425  10.939
 1868W        W 6068   8.589   9.979   8.840
 1869W        W 6069   1.178   5.266   9.037
 1870W        W 6070   3.724   9.311   8.971
 1871W        W 6071   5.017  11.277   0.022
 1872W        W 6072  10.325   3.095   0.031
 1873W        W 6073   6.882   2.237  11.628
 1874W        W 6074   2.284   1.265  11.175
 1875W        W 6075   7.131   2.702  11.744
 1876W        W 6076   4.157   3.329   0.378
 1877W        W 6077   4.486   3.520   1.241
 1878W        W 6078   5.324   2.092   3.119
 1879W        W 6079   3.516   2.858   9.467
 1880W        W 6080   9.642   6.236   1.884
 1881W        W 6081   3.107   8.782   8.687
 1882W        W 6082   2.647   9.557  11.428
 1883W        W 6083  10.290  10.047  10.484
 1884W        W 6084   0.300   6.720  11.011
 1885W        W 6085   2.354   9.873   0.877
 1886W        W 6086  10.093   9.516   0.371
 1887W        W 6087   0.359   2.317   0.629
 1888W        W 6088   1.934   0.152   0.404
 1889W        W 6089   9.470   9.404   2.649
 1890W        W 6090  11.408   6.619   9.959
 1891W        W 6091   3.096   8.389   2.313
 1892W        W 6092   3.084   8.525  11.814
 1893W        W 6093   5.630   1.668   0.227
 1894W        W 6094   3.167   4.917   4.006
 1895W        W 6095   4.732   6.121  10.264
 1896W        W 6096   1.633   6.781  10.574
 1897W        W 6097   2.248   6.227   1.743
 1898W        W 6098   1.193   3.682   2.955
 1899W        W 6099   4.313   3.160  11.488
 1900W        W 6100   7.442   6.126   8.637
 1901W        W 6101   9.920  10.928  10.390
 1902W        W 6102   5.903   7.087   3.438
 1903W        W 6103   2.318   8.686   1.780
 1904W        W 6104   1.727   6.269   2.465
 1905W        W 6105   1.320   0.952   1.517
 1906W        W 6106   6.977   4.253  11.331
 1907W        W 6107   6.090   1.285   2.667
 1908W        W 6108   8.621   5.344   1.469
 1909W        W 6109   5.807   3.828  10.525
 1910W        W 6110   3.189   0.719  11.465
 1911W        W 6111   4.706   3.711   3.491
 1912W        W 6112   5.898   4.571   3.425
 1913W        W 6113   0.456   1.446   1.232
 1914W        W 6114   9.527  10.058  11.814
 1915W        W 6115   2.792   8.101  10.799
 1916W        W 6116   2.247   3.510  11.437
 1917W        W 6117   3.629   5.246  11.829
 1918W        W 6118   2.487   4.739  10.098
 1919W        W 6119   7.969   9.575   3.471
 1920W        W 6120   1.110   2.218  10.025
 1921W        W 6121   1.618   9.418   9.131
 1922W        W 6122   7.192   4.206   3.259
 1923W        W 6123   2.265   1.468   9.460
 1924W        W 6124   7.336  11.349   3.035
 1925W        W 6125   3.252   5.255   9.615
 1926W        W 6126   2.505   7.687   9.870
 1927W        W 6127   1.395   8.319   2.764
 1928W        W 6128   2.026   5.624   9.978
 1929W        W 6129   2.374   2.327   1.229
 1930W        W 6130   2.182   6.662   9.920
 1931W        W 6131   0.753   9.957  10.529
 1932W        W 6132   4.680   7.971   2.373
 1933W        W 6133   2.099   6.164  10.029
 1934W        W 6134  10.731   5.877   9.426
 1935W        W 6135   0.348   8.426   3.424
 1936W        W 6136   1.438   2.310   1.390
 1937W        W 6137   3.121   5.028   3.364
 1938W        W 6138   0.715   8.592   2.716
 1939W        W 6139   1.395   4.871   1.436
 1940W        W 6140   9.078   8.471   8.968
 1941W        W 6141   3.191   4.004   3.239
 1942W        W 6142   5.615   8.078   3.949
 1943W        W 6143  10.044   4.577   8.939
 1944W        W 6144   8.155   9.756   9.555
 1945W        W 6145  10.755  11.395   9.426
 1946W        W 6146   0.318   6.599   1.619
 1947W        W 6147   7.385   2.184   9.867
 1948W        W 6148   9.540   9.112   8.467
 1949W        W 6149   8.113   5.232   9.971
 1950W        W 6150   3.956   9.537   2.785
 1951W        W 6151   0.380   6.569   0.966
 1952W        W 6152  10.945   8.953   3.200
 1953W        W 6153   0.430   2.819   8.864
 1954W        W 6154   3.303  11.429   0.418
 1955W        W 6155   0.780   5.894  11.276
 1956W        W 6156   6.456   8.459   0.414
 1957W        W 6157   6.480   1.723   2.538
 1958W        W 6158   6.598   2.736  11.099
 1959W        W 6159   2.832   8.404  10.393
 1960W        W 6160   6.039   5.527   2.142
 1961W        W 6161   0.936   2.200  10.531
 1962W        W 6162   4.698  10.492   2.782
 1963W        W 6163   4.672   9.339   0.689
 1964W        W 6164   8.901  10.401   9.773
 1965W        W 6165   2.016   2.150   2.444
 1966W        W 6166   8.643  10.751  10.779
 1967W        W 6167   1.261   0.475   1.348
 1968W        W 6168   5.716   0.884   3.266
 1969W        W 6169   8.377  10.323   2.124
 1970W        W 6170   4.380   1.340   0.361
 1971W        W 6171   0.405   1.262   2.983
 1972W        W 6172   1.182   5.847   8.503
 1973W        W 6173   4.178   3.687   0.733
 1974W        W 6174   7.454   5.083   8.947
 1975W        W 6175   4.764   4.413  11.911
 1976W        W 6176   2.682   3.513  10.867
 1977W        W 6177   3.143   9.525  11.332
 1978W        W 6178   5.614   8.479   1.266
 1979W        W 6179  10.583   0.027  11.776
 1980W        W 6180   9.011   4.421   3.124
 1981W        W 6181  11.111   4.570   9.033
 1982W        W 6182  11.120   0.548   0.888
 1983W        W 6183   1.509   0.635  10.936
 1984W        W 6184   2.779   5.384  10.272
 1985W        W 6185   3.116   5.112   1.155
 1986W        W 6186   8.240   5.245   1.873
 1987W        W 6187   9.825   0.948   3.481
 1988W        W 6188   1.883   7.979   9.108
 1989W        W 6189   2.218   4.337  11.994
 1990W        W 6190   2.823   2.269   0.906
 1991W        W 6191   4.364   9.526  10.080
 1992W        W 6192   8.521   9.880   2.378
 1993W        W 6193   0.079  10.433   1.003
 1994W        W 6194   5.141   7.656  11.085
 1995W        W 6195   1.873   1.377  10.880
 1996W        W 6196   4.129   3.146   1.393
 1997W        W 6197   7.270   9.264   0.171
 1998W        W 6198   6.744   1.393   9.587
 1999W        W 6199  10.199   1.802  11.737
 2000W        W 6200  10.500  10.930   9.567
 2001W        W 6201   1.875   1.370  10.350
 2002W        W 6202   4.754   6.712   0.395
 2003W        W 6203   0.239   6.975   0.699
 2004W        W 6204  11.279   4.575   2.398
 2005W        W 6205  10.060   8.131   2.144
 2006W        W 6206   3.352   5.127   2.376
 2007W        W 6207  10.091   8.748   1.501
 2008W        W 6208   5.675  10.986   2.951
 2009W        W 6209  11.015  11.430   2.715
 2010W        W 6210  10.909  10.319   1.330
 2011W        W 6211   5.021  10.959  11.292
 2012W        W 6212   8.171   8.949   1.305
 2013W        W 6213   8.704   8.143   9.138
 2014W        W 6214   6.051   8.226   1.227
 2015W        W 6215   8.854   3.781   0.918
 2016W        W 6216   2.296   3.805  11.005
 2017W        W 6217   9.795   2.563   1.814
 2018W        W 6218   1.156   4.773   3.030
 2019W        W 6219   4.249   4.591   0.912
 2020W        W 6220   7.111  10.953   0.199
 2021W        W 6221   8.991  11.367   9.993
 2022W        W 6222  11.314   2.367   9.946
 2023W        W 6223   7.241   4.113   1.546
 2024W        W 6224   1.219   6.946   9.990
 2025W        W 6225   3.217   8.933   2.843
 2026W        W 6226   2.449   0.171   0.987
 2027W        W 6227   3.701   5.774   1.998
 2028W        W 6228  10.004   3.619   9.073
 2029W        W 6229   6.091   0.864   1.915
 2030W        W 6230  10.013   3.674  10.020
 2031W        W 6231   8.451  10.041   0.779
 2032W        W 6232   4.813   2.078   0.158
 2033W        W 6233   6.686   8.646   9.429
 2034W        W 6234   1.711   8.837   0.300
 2035W        W 6235   4.408   5.906   2.476
 2036W        W 6236  10.854   1.199   9.094
 2037W        W 6237  11.034   7.389   0.316
 2038W        W 6238  11.103   5.547   9.540
 2039W        W 6239   9.088   7.936  11.234
 2040W        W 6240   5.806   4.868   9.578
 2041W        W 6241   5.745   3.838   9.392
 2042W        W 6242   0.258   5.548   0.553
 2043W        W 6243   9.593   8.865   9.871
 2044W        W 6244   1.824   6.260   0.511
 2045W        W 6245   3.865   7.523  10.114
 2046W        W 6246   7.182   1.709   9.947
 2047W        W 6247   0.152   5.128   0.059
 2048W        W 6248   3.484   0.779   9.546
 2049W        W 6249   3.638   3.280   1.339
 2050W        W 6250  10.484  10.551   8.742
 2051W        W 6251   6.914   4.927  10.723
 2052W        W 6252   9.117   8.587   1.355
 2053W        W 6253   9.617   3.243   8.966
 2054W        W 6254   1.429   5.244  10.954
 2055W        W 6255   4.654   3.679   2.943
 2056W        W 6256   0.586   5.999  11.743
 2057W        W 6257   2.337   4.314  11.052
 2058W        W 6258   1.849   4.631   2.311
 2059W        W 6259   6.490   8.853   8.945
 2060W        W 6260   8.182   3.308  10.941
 2061W        W 6261   9.214   5.549  11.746
 2062W        W 6262   8.297   4.407   1.474
 2063W        W 6263   3.272   4.676  11.338
 2064W        W 6264   9.549   5.028  10.497
 2065W        W 6265   8.511   0.574   0.763
 2066W        W 6266   8.324   8.017   0.468
 2067W        W 6267   5.444   3.283   2.114
 2068W        W 6268   8.164  10.455   0.931
 2069W        W 6269   6.842   0.757  10.742
 2070W        W 6270   8.292   3.768   3.499
 2071W        W 6271   7.575  10.218   2.162
 2072W        W 6272   9.121   5.202   0.981
 2073W        W 6273   8.810  10.037   3.489
 2074W        W 6274   0.082   8.036   8.633
 2075W        W 6275   3.740   7.658   8.834
 2076W        W 6276   9.886   5.164   8.751
 2077W        W 6277   3.528  11.370   3.532
 2078W        W 6278   8.014   3.109  11.382
 2079W        W 6279  10.098   0.429   1.835
 2080W        W 6280   1.038   4.113   1.016
 2081W        W 6281   7.762  11.163  10.521
 2082W        W 6282   9.981   3.709  10.565
 2083W        W 6283   6.625   3.176   8.667
 2084W        W 6284   7.583   8.115   2.754
 2085W        W 6285   4.474   1.371  10.330
 2086W        W 6286   8.349   2.394   0.881
 2087W        W 6287   3.259  10.590   2.973
 2088W        W 6288   4.050   8.643  11.490
 2089W        W 6289  11.197   6.965   1.321
 2090W        W 6290  10.857   2.075   2.707
 2091W        W 6291   5.828   6.603   3.070
 2092W        W 6292   6.174   9.455   4.043
 2093W        W 6293   6.311  10.533   2.978
 2094W        W 6294   2.510   9.539   2.952
 2095W        W 6295   8.901   4.071   8.514
 2096W        W 6296   3.298   8.947  11.987
 2097W        W 6297   4.784   4.790  10.313
 2098W        W 6298   0.296   6.249   3.314
 2099W        W 6299   1.613   2.940   3.529
 2100W        W 6300   9.582   8.028  11.773
 2101W        W 6301   2.191   9.682   2.150
 2102W        W 6302   8.624   8.033  10.971
 2103W        W 6303   2.718   8.181   9.953
 2104W        W 6304   2.905   9.469   1.209
 2105W        W 6305   6.118   1.671   1.527
 2106W        W 6306   6.593   1.900   3.458
 2107W        W 6307  10.356   2.684   2.635
 2108W        W 6308   3.146   3.417   1.262
 2109W        W 6309   7.993   2.589  11.295
 2110W        W 6310   5.984   6.214  11.084
 2111W        W 6311   2.752   3.318   2.973
 2112W        W 6312   0.473  10.477   9.652
 2113W        W 6313  11.358   9.534   1.174
 2114W        W 6314   6.328   7.115  11.513
 2115W        W 6315   0.330   2.619   0.231
 2116W        W 6316   9.426   6.062   1.005
 2117W        W 6317   2.606   8.490   0.018
 2118W        W 6318   4.666   8.107   1.007
 2119W        W 6319   6.846   3.489   0.003
 2120W        W 6320   2.008   5.594   8.747
 2121W        W 6321  10.904   0.297  11.412
 2122W        W 6322   9.093   7.588  10.648
 2123W        W 6323   5.310   0.842   0.401
 2124W        W 6324   7.341  10.504   0.274
 2125W        W 6325  10.700   1.836  11.828
 2126W        W 6326   5.666   6.723   0.066
 2127W        W 6327   9.821   4.101   8.879
 2128W        W 6328   7.683   6.429   9.704
 2129W        W 6329   9.394   2.942   0.372
 2130W        W 6330   7.938   7.225  10.057
 2131W        W 6331   1.777   8.093   2.514
 2132W        W 6332   5.570   3.528  10.895
 2133W        W 6333   9.797   1.703   1.044
 2134W        W 6334   1.380   6.228   0.235
 2135W        W 6335   5.288   8.662   9.469
 2136W        W 6336   3.404   0.506   8.778
 2137W        W 6337   3.390   9.492   1.390
 2138W        W 6338   8.017   2.630   2.847
 2139W        W 6339   2.334   1.565   1.946
 2140W        W 6340   9.860   9.393  11.503
 2141W        W 6341   5.002   3.778   8.316
 2142W        W 6342   0.270   1.333   0.405
 2143W        W 6343   2.569   4.237   9.271
 2144W        W 6344   3.688   5.270   9.861
 2145W        W 6345   5.935   5.807  10.774
 2146W        W 6346   5.632   6.227   2.266
 2147W        W 6347   2.146   0.755   2.342
 2148W        W 6348   8.925   6.718   2.210
 2149W        W 6349   3.699   5.583  11.383
 2150W        W 6350   5.771   1.660  10.672
 2151W        W 6351   0.796   7.917   0.237
 2152W        W 6352  11.300   1.925   2.487
 2153W        W 6353   7.000   5.060   1.036
 2154W        W 6354  11.191   2.418  11.538
 2155W        W 6355   7.045   7.987   2.810
 2156W        W 6356   9.482   6.428   1.372
 2157W        W 6357   1.196   3.630   9.953
 2158W        W 6358   7.700   5.634   2.069
 2159W        W 6359   3.405   9.056   1.057
 2160W        W 6360   2.924   3.883   1.142
 2161W        W 6361   9.496   9.964   0.866
 2162W        W 6362   5.254   8.740   3.115
 2163W        W 6363   8.804   8.219   0.547
 2164W        W 6364   6.943   9.390   2.004
 2165W        W 6365   5.649   1.516   0.741
 2166W        W 6366   7.454   8.052   9.548
 2167W        W 6367   2.074  10.593   3.608
 2168W        W 6368   8.366   1.184   2.927
 2169W        W 6369   9.224   5.582   9.344
 2170W        W 6370  10.485   9.331   0.688
 2171W        W 6371   8.594   5.939   3.593
 2172W        W 6372   2.264   6.331  10.865
 2173W        W 6373   7.973   4.766   3.045
 2174W        W 6374   5.317   2.409   0.335
 2175W        W 6375   9.544   6.504   3.078
 2176W        W 6376  11.283   3.974   0.221
 2177W        W 6377  10.805   3.643   1.485
 2178W        W 6378   6.551   7.369  10.535
 2179W        W 6379   9.521  10.766  11.072
 2180W        W 6380   5.659   0.480   9.004
 2181W        W 6381   1.870   5.870  10.389
 2182W        W 6382   6.938   9.719   9.996
 2183W        W 6383   3.707   1.941   1.157
 2184W        W 6384   6.408   4.240  11.351
 2185W        W 6385   2.465  10.718   2.204
 2186W        W 6386   1.896   8.964   9.047
 2187W        W 6387   5.345   4.166   1.457
 2188W        W 6388   6.148   5.434   3.117
 2189W        W 6389  10.818  10.039  10.468
 2190W        W 6390   4.537   0.851   9.484
 2191W        W 6391   5.764   2.381   3.155
 2192W        W 6392   1.681   6.685  10.074
 2193W        W 6393   4.633   5.709   9.970
 2194W        W 6394   3.062   8.014   2.698
 2195W        W 6395   1.383  10.203   1.748
 2196W        W 6396   0.842   3.162   1.928
 2197W        W 6397   7.822   8.580   2.789
 2198W        W 6398   8.982   3.144  11.614
 2199W        W 6399  10.490   4.192   0.401
 2200W        W 6400   9.078   7.954  11.756
 2201W        W 6401  10.025   1.556   2.925
 2202W        W 6402   0.690   8.837   9.548
 2203W        W 6403   9.307   9.937   1.329
 2204W        W 6404   6.249   2.365   9.172
 2205W        W 6405   8.860   5.548   0.632
 2206W        W 6406  10.530   1.511   8.805
 2207W        W 6407   3.689  10.020   3.501
 2208W        W 6408   3.736   8.547   1.731
 2209W        W 6409   8.717   0.996  10.314
 2210W        W 6410   5.226   7.651   2.117
 2211W        W 6411   7.192  10.048  10.493
 2212W        W 6412  10.325   6.193   9.477
 2213W        W 6413   2.826   1.499   9.924
 2214W        W 6414  10.353   6.040   1.690
 2215W        W 6415  10.078   2.472   3.313
 2216W        W 6416   5.590   2.191  10.389
 2217W        W 6417   0.838   2.686  10.162
 2218W        W 6418   5.686   8.956   1.473
 2219W        W 6419   9.095   6.272   0.378
 2220W        W 6420  11.025   8.349  11.920
 2221W        W 6421  10.869   1.620  10.047
 2222W        W 6422  11.023   8.111   8.771
 2223W        W 6423   3.648   1.657  11.715
 2224W        W 6424  10.041  10.294  11.046
 2225W        W 6425  10.860   4.761   1.137
 2226W        W 6426   9.971   0.886   2.054
 2227W        W 6427   7.448   4.810   3.278
 2228W        W 6428   1.611   7.566   1.206
 2229W        W 6429   7.164   2.850   9.341
 2230W        W 6430  10.528  11.312   1.388
 2231W        W 6431   1.269   9.088   0.200
 2232W        W 6432   1.300   2.923  10.786
 2233W        W 6433   5.638   9.697  11.950
 2234W        W 6434   2.387  10.044   1.803
 2235W        W 6435   5.649  11.033  11.845
 2236W        W 6436   8.884   1.959  10.855
 2237W        W 6437   3.836   6.252   9.980
 2238W        W 6438   7.465   1.516   3.312
 2239W        W 6439   7.261   1.413   1.781
 2240W        W 6440  10.069   3.213   8.719
 2241W        W 6441   3.228   8.142  11.105
 2242W        W 6442   6.587   0.779   1.803
 2243W        W 6443   7.614   1.385   0.329
 2244W        W 6444   6.391   3.184   0.495
 2245W        W 6445   6.134   5.551   1.229
 2246W        W 6446   3.334   0.710  10.968
 2247W        W 6447   4.172   2.415   1.884
 2248W        W 6448   9.863   3.093   0.931
 2249W        W 6449   4.064   9.947   3.178
 2250W        W 6450   3.447   6.074  11.441
 2251W        W 6451   4.939   4.098   4.063
 2252W        W 6452   0.597   6.524   0.451
 2253W        W 6453  10.016   7.664   8.653
 2254W        W 6454   4.776   8.956   2.536
 2255W        W 6455   8.154   9.161  10.785
 2256W        W 6456   3.706   2.385   9.471
 2257W        W 6457   3.954   3.801   9.269
 2258W        W 6458   5.261   2.132   2.296
 2259W        W 6459   9.945   4.749   9.692
 2260W        W 6460   9.379   0.002   9.013
 2261W        W 6461   4.771  10.733   8.889
 2262W        W 6462   3.711   1.250  10.263
 2263W        W 6463   5.943   3.672   9.836
 2264W        W 6464   9.722   4.179   3.565
 2265W        W 6465   0.406   8.155  10.925
 2266W        W 6466   0.164   4.170  10.756
 2267W        W 6467   0.117   8.817   1.407
 2268W        W 6468   3.804   8.088   1.250
 2269W        W 6469   8.186  11.253   0.326
 2270W        W 6470   5.721  11.336   9.469
 2271W        W 6471   2.705  10.027   3.151
 2272W        W 6472  10.302   5.488  11.482
 2273W        W 6473   6.036   1.030   3.685
 2274W        W 6474   1.518   0.554  10.427
 2275W        W 6475   8.238  10.344   8.700
 2276W        W 6476   1.882   6.030   3.315
 2277W        W 6477   5.622   7.943   0.459
 2278W        W 6478   0.647   6.987  11.255
 2279W        W 6479   5.852   5.297   2.671
 2280W        W 6480   6.680   4.141  10.911
 2281W        W 6481   2.173   2.796  10.916
 2282W        W 6482   9.286  10.867   0.786
 2283W        W 6483   8.975   7.051   1.820
 2284W        W 6484   6.486   0.635  11.254
 2285W        W 6485   5.200   0.932  10.910
 2286W        W 6486   3.196   0.831   2.135
 2287W        W 6487   8.089   5.957  11.051
 2288W        W 6488   3.642   2.608   9.926
 2289W        W 6489   5.552   0.439   2.314
 2290W        W 6490   6.071   1.919  11.508
 2291W        W 6491   0.988   1.740   1.059
 2292W        W 6492  10.721   6.281  11.283
 2293W        W 6493   0.775   7.516   9.501
 2294W        W 6494   0.244   8.496   2.937
 2295W        W 6495   3.864   9.405   1.196
 2296W        W 6496   2.264   2.331  10.019
 2297W        W 6497   4.889   4.318   1.688
 2298W        W 6498   6.015   4.562   0.377
 2299W        W 6499  10.220   6.997   0.265
 2300W        W 6500   3.160   4.237   9.635
 2301W        W 6501   0.826   7.635   0.718
 2302W        W 6502   1.092   7.496   0.221
 2303W        W 6503   0.218   4.787   2.559
 2304W        W 6504   6.977   6.596  10.412
 2305W        W 6505   8.399   1.907   1.012
 2306W        W 6506   2.343   0.210   3.029
 2307W        W 6507   9.785   5.765   0.257
 2308W        W 6508  10.001  11.432   0.652
 2309W        W 6509   5.083   0.213  11.735
 2310W        W 6510   1.462   3.007  10.287
 2311W        W 6511   7.565  11.259   3.464
 2312W        W 6512   3.135   9.960   1.362
 2313W        W 6513  10.412  11.030   2.941
 2314W        W 6514   4.015   5.046   1.030
 2315W        W 6515   9.430  11.032   2.328
 2316W        W 6516   2.808   6.763  11.365
 2317W        W 6517   4.397   0.717   1.364
 2318W        W 6518   9.998   5.684  10.834
 2319W        W 6519   0.825   6.582   2.289
 2320W        W 6520   5.659   8.519   2.316
 2321W        W 6521   4.160   9.401  11.868
 2322W        W 6522   2.845   1.845  10.814
 2323W        W 6523   1.924   2.584   1.351
 2324W        W 6524   2.845   2.611   1.313
 2325W        W 6525   2.808   2.832  10.307
 2326W        W 6526  11.372   5.648   9.101
 2327W        W 6527  10.335  10.977   0.955
 2328W        W 6528   1.818   4.611   9.416
 2329W        W 6529  10.850   1.376   0.508
 2330W        W 6530   4.440   7.129   3.108
 2331W        W 6531   4.173   0.290   9.263
 2332W        W 6532   9.055   4.919   3.254
 2333W        W 6533  10.511   8.952   2.422
 2334W        W 6534   8.483   0.714   2.700
 2335W        W 6535   8.182   5.645   2.206
 2336W        W 6536  10.659   0.814   2.965
 2337W        W 6537  10.394   6.131   1.159
 2338W        W 6538   0.988   7.941  10.432
 2339W        W 6539   8.608   6.486  11.169
 2340W        W 6540   0.540   1.013  10.886
 2341W        W 6541   6.006   2.371   9.604
 2342W        W 6542   6.468   8.596  11.499
 2343W        W 6543   3.154  10.755   2.442
 2344W        W 6544  10.837   6.556  10.211
 2345W        W 6545   6.078   7.849   2.736
 2346W        W 6546   0.872   4.051  10.082
 2347W        W 6547   9.425   5.268   8.559
 2348W        W 6548   7.728  11.280   1.230
 2349W        W 6549   6.348  10.748   0.322
 2350W        W 6550   7.859   5.052   3.489
 2351W        W 6551   2.940   7.280  11.282
 2352W        W 6552   9.138   1.821   9.890
 2353W        W 6553   3.652  10.421  10.854
 2354W        W 6554   0.417  10.281   2.750
 2355W        W 6555   0.091   3.716  10.373
 2356W        W 6556   4.690  10.905  10.356
 2357W        W 6557   1.819   1.811  10.599
 2358W        W 6558   1.973   1.838   0.922
 2359W        W 6559   9.240   7.019   0.097
 2360W        W 6560   3.227   9.107  10.044
 2361W        W 6561   5.207   8.838   1.629
 2362W        W 6562   3.163  10.327   9.533
 2363W        W 6563   1.216   6.315   1.241
 2364W        W 6564  11.218   3.441   3.470
 2365W        W 6565   3.387   3.887   0.380
 2366W        W 6566   0.020   2.457   9.025
 2367W        W 6567   0.216   9.768  10.395
 2368W        W 6568   2.134   1.325   8.978
 2369W        W 6569   7.757  10.493   8.796
 2370W        W 6570   7.854   4.039   0.634
 2371W        W 6571  11.186   6.165  10.065
 2372W        W 6572   5.270   1.265   2.144
 2373W        W 6573   9.731   7.595   0.054
 2374W        W 6574   2.680   5.497   0.271
 2375W        W 6575   7.337   3.266   2.869
 2376W        W 6576   5.213   9.079   2.280
 2377W        W 6577   2.816   5.372   4.092
 2378W        W 6578   7.172   8.629   3.914
 2379W        W 6579   3.857   4.190   1.667
 2380W        W 6580  10.341   8.553   2.157
 2381W        W 6581   0.366   9.286   0.305
 2382W        W 6582  11.409   2.221   1.383
 2383W        W 6583   7.588   4.324   0.278
 2384W        W 6584   2.276   1.302   1.509
 2385W        W 6585   3.666   6.734   1.149
 2386W        W 6586   1.139  10.974   8.542
 2387W        W 6587   9.494   2.971   9.407
 2388W        W 6588   1.401  10.443   0.030
 2389W        W 6589   4.279   3.626   2.409
 2390W        W 6590   0.457   5.041  10.601
 2391W        W 6591   3.226   7.368  10.395
 2392W        W 6592   4.116   5.597   9.758
 2393W        W 6593  10.399   5.900   9.878
 2394W        W 6594   2.610   5.066   1.274
 2395W        W 6595   0.839   6.659   9.004
 2396W        W 6596   4.433   3.651  11.430
 2397W        W 6597   2.365   6.615   2.721
 2398W        W 6598   1.624   7.450   0.276
 2399W        W 6599   2.348   9.387   0.259
 2400W        W 6600   0.851   3.511   2.328
 2401W        W 6601   8.166   6.070   2.500
 2402W        W 6602   7.617  10.089   2.700
 2403W        W 6603   6.450   5.237   2.280
 2404W        W 6604   7.146   4.860   1.960
 2405W        W 6605   1.558   7.024   2.735
 2406W        W 6606   4.190   1.784   2.681
 2407W        W 6607   3.652  10.778  11.245
 2408W        W 6608   1.557   2.280   2.258
 2409W        W 6609   6.460   0.675  10.194
 2410W        W 6610   4.659   9.905   1.320
 2411W        W 6611   5.439   9.214   8.555
 2412W        W 6612   0.879   6.667   9.519
 2413W        W 6613   9.518  10.152   3.384
 2414W        W 6614   1.360   4.393  11.735
 2415W        W 6615   1.050   5.914  11.973
 2416W        W 6616   0.543   1.380   2.495
 2417W        W 6617   8.517   9.608   9.211
 2418W        W 6618   7.181   4.536   2.360
 2419W        W 6619   0.966   1.186   9.999
 2420W        W 6620   5.157   2.939   1.219
 2421W        W 6621   0.417   7.911   1.133
 2422W        W 6622   9.469   9.678  10.361
 2423W        W 6623   9.073  11.359   2.736
 2424W        W 6624  10.642   8.090   1.973
 2425W        W 6625   9.411   7.639   2.278
 2426W        W 6626   9.567   8.344   8.982
 2427W        W 6627  10.806  10.156   2.674
 2428W        W 6628   3.380   0.504   1.020
 2429W        W 6629   7.226   8.044  11.448
 2430W        W 6630   7.550   2.750   3.583
 2431W        W 6631   8.374  10.671  10.352
 2432W        W 6632   9.532   2.429   1.369
 2433W        W 6633   5.496  10.529   3.273
 2434W        W 6634  11.375   2.868   9.843
 2435W        W 6635   5.207   2.884   1.826
 2436W        W 6636   7.073   9.041   3.232
 2437W        W 6637  11.407   3.307  11.087
 2438W        W 6638   4.641   2.736   2.495
 2439W        W 6639   6.431   0.867   9.396
 2440W        W 6640   0.793  10.234   1.383
 2441W        W 6641   8.649   4.868   8.561
 2442W        W 6642   2.325   1.172   3.295
 2443W        W 6643  10.278   3.383   0.980
 2444W        W 6644   2.618   8.850   0.433
 2445W        W 6645   5.515   8.954  10.341
 2446W        W 6646   6.571   4.273   1.270
 2447W        W 6647  10.910   6.263   3.018
 2448W        W 6648   8.421   3.782  11.929
 2449W        W 6649   8.886   0.369   0.225
 2450W        W 6650   4.618   3.019   1.188
 2451W        W 6651   9.291   2.218   0.941
 2452W        W 6652   1.954   9.521   1.738
 2453W        W 6653   1.033   9.068   9.220
 2454W        W 6654   4.797   8.068  10.169
 2455W        W 6655   2.368   5.025  11.404
 2456W        W 6656   1.007   2.760   1.639
 2457W        W 6657   4.312   6.075   9.790
 2458W        W 6658   0.561   2.663   1.919
 2459W        W 6659   9.499   3.986   2.650
 2460W        W 6660   3.876   3.785  11.417
 2461W        W 6661   2.219   7.963   2.298
 2462W        W 6662   0.265   4.917  11.189
 2463W        W 6663   8.401   6.977  11.510
 2464W        W 6664   3.439   3.916   9.317
 2465W        W 6665   0.973   3.708  11.735
 2466W        W 6666   8.139   8.179  11.041
 2467W        W 6667   6.540   9.923  11.329
 2468W        W 6668   1.093   1.831   2.741
 2469W        W 6669  10.139  10.940   9.932
 2470W        W 6670   2.714   4.147   8.800
 2471W        W 6671   0.629   8.050   8.655
 2472W        W 6672   4.957   3.360   1.424
 2473W        W 6673   9.789   3.629   8.583
 2474W        W 6674   5.989   8.496  11.360
 2475W        W 6675   5.190   9.315  10.492
 2476W        W 6676  11.080   5.927  10.506
 2477W        W 6677  10.879  10.242  11.375
 2478W        W 6678   4.346   4.310   1.730
 2479W        W 6679   1.319   1.415   1.285
 2480W        W 6680   6.494   3.438   2.714
 2481W        W 6681   7.458  10.087   1.672
 2482W        W 6682  10.005   7.447   9.138
 2483W        W 6683   4.130   3.422   1.925
 2484W        W 6684   6.905   2.052   0.165
 2485W        W 6685   6.262   2.686   0.258
 2486W        W 6686  11.360   6.104  10.889
 2487W        W 6687   2.605   3.886  11.438
 2488W        W 6688   1.719   1.268   9.288
 2489W        W 6689   8.906   2.835   1.294
 2490W        W 6690   6.585   1.813   1.357
 2491W        W 6691   2.912   6.628   2.672
 2492W        W 6692   8.461   4.531  11.574
 2493W        W 6693   0.302   4.610   0.328
 2494W        W 6694   1.853  11.193   9.084
 2495W        W 6695   0.489   4.325  11.956
 2496W        W 6696  10.702   2.259  11.516
 2497W        W 6697   8.355   7.265  11.957
 2498W        W 6698   2.721   1.756   9.482
 2499W        W 6699   6.245   3.027  10.326
 2500W        W 6700  10.017   8.092   3.231
 2501W        W 6701   2.846   2.259  11.109
 2502W        W 6702   9.201  11.426   9.517
 2503W        W 6703   2.697   3.779   3.211
 2504W        W 6704   6.660   8.637   2.127
 2505W        W 6705   1.889   1.613   1.397
 2506W        W 6706   7.134  11.145  10.918
 2507W        W 6707   4.197   3.045  11.975
 2508W        W 6708   1.664  10.738   1.410
 2509W        W 6709   4.785   8.848  10.989
 2510W        W 6710   3.206   5.116  11.584
 2511W        W 6711   5.689  10.480   0.708
 2512W        W 6712   6.488   3.847  11.878
 2513W        W 6713   3.544   4.975   3.650
 2514W        W 6714   2.279  10.752   2.690
 2515W        W 6715   4.756   2.415  11.761
 2516W        W 6716   3.093   8.430   0.340
 2517W        W 6717   0.780   6.581   1.321
 2518W        W 6718  10.038  11.324   1.202
 2519W        W 6719   7.591   2.853  10.521
 2520W        W 6720   7.957  10.276   1.833
 2521W        W 6721   5.437   1.417   1.197
 2522W        W 6722   1.012   6.887   2.650
 2523W        W 6723   3.132   2.728  10.956
 2524W        W 6724   3.067   4.257  10.588
 2525W        W 6725   5.567   1.880   3.637
 2526W        W 6726  10.027   6.651   2.703
 2527W        W 6727   6.650   9.929   1.303
 2528W        W 6728   8.223   7.642  10.226
 2529W        W 6729   4.300  10.148  11.321
 2530W        W 6730   3.529   0.966   1.218
 2531W        W 6731  10.781   1.422   1.933
 2532W        W 6732   3.298   5.749   9.543
 2533W        W 6733   0.974   3.668   0.263
 2534W        W 6734   2.953   1.769   1.027
 2535W        W 6735  10.036   2.821  10.597
 2536W        W 6736   7.103   9.042   2.730
 2537W        W 6737   8.497   6.256  11.931
 2538W        W 6738   2.443   0.240   0.464
 2539W        W 6739  11.253   3.608   1.781
 2540W        W 6740  10.266   9.412   9.784
 2541W        W 6741   7.487   6.676  11.827
 2542W        W 6742   5.484   7.211   8.523
 2543W        W 6743   3.615   4.461  10.724
 2544W        W 6744   0.925   3.275   1.442
 2545W        W 6745   6.275   3.282   3.736
 2546W        W 6746   1.420   1.391  10.130
 2547W        W 6747  10.209   7.100  11.263
 2548W        W 6748   6.701   9.151   9.337
 2549W        W 6749   3.133  10.471  10.854
 2550W        W 6750   2.624   1.885   3.248
 2551W        W 6751   3.683   2.629  10.781
 2552W        W 6752   9.483   4.632   9.998
 2553W        W 6753   8.130   0.871   1.474
 2554W        W 6754   2.400   6.580  10.378
 2555W        W 6755   5.838   6.099   9.150
 2556W        W 6756   0.892   6.036   1.504
 2557W        W 6757   6.967   5.259  11.545
 2558W        W 6758  10.003   2.242   9.909
 2559W        W 6759   3.344   6.975   2.384
 2560W        W 6760   4.616   0.241   1.407
 2561W        W 6761  11.075   0.542   1.937
 2562W        W 6762  10.460   9.959   1.931
 2563W        W 6763   6.446   5.252  11.465
 2564W        W 6764   5.934  11.462  11.772
 2565W        W 6765   9.545   0.131  10.785
 2566W        W 6766   1.279   8.401   1.894
 2567W        W 6767   6.422   4.902   9.705
 2568W        W 6768   5.020   9.043   0.266
 2569W        W 6769  11.218   3.988   1.419
 2570W        W 6770  10.037   6.296   3.094
 2571W        W 6771   1.108   7.120  11.392
 2572W        W 6772   8.682  10.040   0.236
 2573W        W 6773   7.568   2.981   1.190
 2574W        W 6774   2.638   4.612   9.629
 2575W        W 6775   8.291  11.015   9.634
 2576W        W 6776   0.394   6.674   8.667
 2577W        W 6777   7.510   1.209  10.928
 2578W        W 6778   5.334  10.629  11.609
 2579W        W 6779  10.929   0.977   1.726
 2580W        W 6780  10.562   3.508  11.231
 2581W        W 6781   6.896   3.707   0.782
 2582W        W 6782   8.148   2.984   8.707
 2583W        W 6783   1.918   8.818   1.260
 2584W        W 6784   1.719   0.669   1.237
 2585W        W 6785   2.510   9.397   2.453
 2586W        W 6786  10.846   2.743   8.969
 2587W        W 6787   1.220   5.729  11.482
 2588W        W 6788   4.987   5.299   1.005
 2589W        W 6789  10.778   6.236   9.781
 2590W        W 6790  10.751   5.126  10.851
 2591W        W 6791   0.618   9.482  11.472
 2592W        W 6792   7.655   6.127   2.400
 2593W        W 6793   1.414   7.119   1.448
 2594W        W 6794   5.633   2.201  11.435
 2595W        W 6795   5.772  11.141   9.933
 2596W        W 6796   0.322   0.932   2.358
 2597W        W 6797   6.057   5.694  11.250
 2598W        W 6798   0.763   1.487   3.325
 2599W        W 6799   6.734   1.744   2.988
 2600W        W 6800   8.665   6.105   2.740
 2601W        W 6801   4.083   5.149   9.538
 2602W        W 6802   0.007   2.395  11.050
 2603W        W 6803  11.453   4.580  10.977
 2604W        W 6804   1.397   3.247   1.219
 2605W        W 6805   9.416  10.618   9.550
 2606W        W 6806   1.932   4.419   0.920
 2607W        W 6807   8.526   0.226   3.453
 2608W        W 6808   4.928   7.652   9.351
 2609W        W 6809   5.280   2.795   9.817
 2610W        W 6810   8.581   2.339  11.751
 2611W        W 6811   5.799   8.823   8.619
 2612W        W 6812   6.951   2.636   2.141
 2613W        W 6813   4.771   9.414   2.805
 2614W        W 6814   8.949   6.361   3.707
 2615W        W 6815   2.776   8.986  11.953
 2616W        W 6816  10.530   7.472   0.387
 2617W        W 6817   3.066   6.507   9.932
 2618W        W 6818  10.762   4.785   3.112
 2619W        W 6819   0.357  10.133  11.783
 2620W        W 6820   7.538   4.200   8.754
 2621W        W 6821   1.385   3.637   1.547
 2622W        W 6822  10.954   4.397   0.199
 2623W        W 6823   1.195  10.547   1.412
 2624W        W 6824   6.555   6.149   9.678
 2625W        W 6825   3.610   1.198   8.719
 2626W        W 6826   3.335   1.005  11.853
 2627W        W 6827  10.411   6.684   0.995
 2628W        W 6828   2.105   3.223   0.408
 2629W        W 6829   9.012   4.779   2.754
 2630W        W 6830   2.473   9.424   9.659
 2631W        W 6831   1.703   8.355   0.095
 2632W        W 6832   1.215   7.358   9.690
 2633W        W 6833   0.320   5.761   3.153
 2634W        W 6834  10.926   4.830   2.121
 2635W        W 6835   3.505  10.708   0.685
 2636W        W 6836   6.638   6.224   8.760
 2637W        W 6837   1.512   2.232  11.953
 2638W        W 6838   3.880   2.335   1.431
 2639W        W 6839   8.432   5.570  11.313
 2640W        W 6840   7.904   3.598  11.831
 2641W        W 6841   7.990  11.487  10.192
 2642W        W 6842   0.248   0.903   3.379
 2643W        W 6843   6.730   3.093   0.921
 2644W        W 6844   9.835  10.375   3.020
 2645W        W 6845  11.011   0.363   9.473
 2646W        W 6846   2.079   6.857   3.627
 2647W        W 6847   6.445   9.075   0.897
 2648W        W 6848   5.603   5.577  11.472
 2649W        W 6849   8.146   1.770   1.469
 2650W        W 6850   4.690   4.592   9.424
 2651W        W 6851   7.601   9.394  11.775
 2652W        W 6852   8.757   6.838   3.577
 2653W        W 6853   5.693   0.450   0.906
 2654W        W 6854  10.480   5.079   2.782
 2655W        W 6855   0.517   2.110   0.177
 2656W        W 6856   1.455   6.158  10.528
 2657W        W 6857   0.381   0.802   1.863
 2658W        W 6858   5.461   2.887   0.454
 2659W        W 6859   6.179   1.339   0.232
 2660W        W 6860   7.092   3.530  10.408
 2661W        W 6861   6.050   6.143   3.187
 2662W        W 6862   5.011   2.794   0.229
 2663W        W 6863  10.886   0.461  11.909
 2664W        W 6864  10.379   5.183   0.154
 2665W        W 6865   6.365   6.051   0.360
 2666W        W 6866  11.120   3.947  10.393
 2667W        W 6867   5.596   8.059   2.616
 2668W        W 6868   5.945   8.071   2.244
 2669W        W 6869   4.044   5.988  11.999
 2670W        W 6870   1.836   6.909  11.971
 2671W        W 6871  11.158   6.377   0.370
 2672W        W 6872   6.800   2.192   1.915
 2673W        W 6873   1.062   0.797  11.855
 2674W        W 6874   8.207   7.174  10.502
 2675W        W 6875   1.734   2.242  10.858
 2676W        W 6876   6.213   9.948   2.260
 2677W        W 6877   9.092   0.898   9.983
 2678W        W 6878   6.891   9.109  10.320
 2679W        W 6879   6.807   0.754   2.264
 2680W        W 6880   9.967   4.207  11.393
 2681W        W 6881   9.935   6.695   1.733
 2682W        W 6882   8.536  10.906  11.255
 2683W        W 6883   7.231   4.667   4.132
 2684W        W 6884  10.889   2.136  10.161
 2685W        W 6885   9.298   4.153  10.140
 2686W        W 6886   3.813   6.628   1.647
 2687W        W 6887   5.619   1.793  11.738
 2688W        W 6888   4.348   6.973   9.736
 2689W        W 6889   2.979  11.396   1.711
 2690W        W 6890   8.483   8.896  10.425
 2691W        W 6891   3.883  11.074  11.670
 2692W        W 6892   6.531   7.876  11.860
 2693W        W 6893   4.200   2.210  11.475
 2694W        W 6894   8.079   3.809  10.913
 2695W        W 6895   5.713   2.910   1.876
 2696W        W 6896   6.434   7.796   1.079
 2697W        W 6897   8.705   5.134  11.126
 2698W        W 6898   0.700   5.567   2.500
 2699W        W 6899   3.645   0.525  11.350
 2700W        W 6900   4.976  11.037  10.772
 2701W        W 6901   2.883   8.982   0.960
 2702W        W 6902   8.041   2.697  10.291
 2703W        W 6903   7.120   0.773   0.932
 2704W        W 6904   4.753   7.164   2.690
 2705W        W 6905   6.713   3.684   2.230
 2706W        W 6906  10.088   1.497  10.760
 2707W        W 6907   4.496   9.852   3.425
 2708W        W 6908   8.877   5.624   2.641
 2709W        W 6909   8.226   4.238   3.246
 2710W        W 6910   1.764   6.538  11.021
 2711W        W 6911   0.780   1.816   2.351
 2712W        W 6912   1.308   7.540  10.515
 2713W        W 6913   8.819   7.092  11.800
 2714W        W 6914   0.019   3.758   2.230
 2715W        W 6915   4.710   6.648   1.427
 2716W        W 6916   7.496   4.084   2.879
 2717W        W 6917   7.785  10.685  11.092
 2718W        W 6918   7.931   7.693   1.271
 2719W        W 6919   0.781   6.445  10.524
 2720W        W 6920   7.536   4.656   9.947
 2721W        W 6921   6.571   0.889   3.230
 2722W        W 6922   6.099   5.598   0.273
 2723W        W 6923   9.072   6.696   3.179
 2724W        W 6924   5.455   8.889   1.009
 2725W        W 6925   5.521  10.926  11.226
 2726W        W 6926   6.543  10.943   1.411
 2727W        W 6927   9.043   9.951   9.609
 2728W        W 6928   2.877   6.030   3.283
 2729W        W 6929   3.224   5.544  10.063
 2730W        W 6930   8.437   5.950   9.612
 2731W        W 6931   2.154   5.615   3.498
 2732W        W 6932   5.057   3.790   1.175
 2733W        W 6933   5.563   9.317   9.368
 2734W        W 6934   7.568  10.006   0.396
 2735W        W 6935  10.591   4.516   8.940
 2736W        W 6936   2.638   9.083   1.870
 2737W        W 6937   2.793   7.691  11.688
 2738W        W 6938  11.275  11.450  10.313
 2739W        W 6939   7.572  10.572   1.708
 2740W        W 6940   0.457   9.154   2.246
 2741W        W 6941   4.760  10.214  11.008
 2742W        W 6942   1.880   0.064  11.499
 2743W        W 6943   9.026   6.712  10.962
 2744W        W 6944   3.804   2.724   0.118
 2745W        W 6945   7.873   9.785   1.724
 2746W        W 6946  10.246   5.017  11.664
 2747W        W 6947  10.983   2.962   3.173
 2748W        W 6948   7.106   8.715  10.039
 2749W        W 6949  10.334   7.692   2.087
 2750W        W 6950   6.961   1.271  10.041
 2751W        W 6951   9.117   0.377   2.228
 2752W        W 6952   4.596  11.395   3.400
 2753W        W 6953   8.892   3.555  10.349
 2754W        W 6954  11.496   8.018   1.383
 2755W        W 6955   7.494   7.286   3.140
 2756W        W 6956   5.253  10.785   0.627
 2757W        W 6957  10.682   7.132  11.420
 2758W        W 6958   1.742   9.839   0.538
 2759W        W 6959   2.212   1.868  10.274
 2760W        W 6960   8.457   7.660   1.859
 2761W        W 6961   8.414   4.193  10.761
 2762W        W 6962   2.118   9.846   1.395
 2763W        W 6963   5.060   7.776   0.409
 2764W        W 6964   3.163  11.413  10.627
 2765W        W 6965   5.287   6.928   9.956
 2766W        W 6966   8.651   5.860   1.375
 2767W        W 6967   1.801   8.612  11.335
 2768W        W 6968   1.877   9.389   1.234
 2769W        W 6969   7.543   9.183   9.442
 2770W        W 6970   2.373   6.955   3.140
 2771W        W 6971   1.921   9.014   3.306
 2772W        W 6972   0.900   9.024   2.480
 2773W        W 6973   2.622  11.361  10.891
 2774W        W 6974   6.214  10.427  11.361
 2775W        W 6975   1.250  11.469   1.319
 2776W        W 6976   8.007   7.602   8.845
 2777W        W 6977   6.533   6.698  11.714
 2778W        W 6978   4.232   3.916   8.811
 2779W        W 6979   2.683  10.160  11.985
 2780W        W 6980   6.808   6.541   2.492
 2781W        W 6981   1.109   7.110   1.860
 2782W        W 6982   0.721   8.338   9.394
 2783W        W 6983   7.507   2.554   0.701
 2784W        W 6984   3.537  10.017   9.703
 2785W        W 6985   9.760   1.479   3.358
 2786W        W 6986   9.045   6.169   1.360
 2787W        W 6987   7.654   4.273   2.424
 2788W        W 6988   5.628   5.672   0.479
 2789W        W 6989   2.654   5.070   8.895
 2790W        W 6990  10.111  11.264   2.588
 2791W        W 6991   4.763   0.661   9.917
 2792W        W 6992   1.298   4.402  10.200
 2793W        W 6993   1.324   1.793   9.811
 2794W        W 6994   3.925   8.058   3.023
 2795W        W 6995   3.961   6.459   2.688
 2796W        W 6996  11.302   8.575   9.502
 2797W        W 6997   2.186   7.728   1.854
 2798W        W 6998   5.677   4.293  10.254
 2799W        W 6999   5.243  10.714   8.692
 2800W        W 7000  11.279   2.839  11.235
 2801W        W 7001  10.920   8.458   9.153
 2802W        W 7002   2.512   5.528   8.711
 2803W        W 7003   0.179   9.132  10.850
 2804W        W 7004   8.928   5.658   8.922
 2805W        W 7005   2.712   9.557   3.400
 2806W        W 7006   5.787   8.879  11.009
 2807W        W 7007   0.391   8.941   0.816
 2808W        W 7008   8.558   9.787  10.305
 2809W        W 7009   4.538   3.979  11.797
 2810W        W 7010   6.835   2.286  11.120
 2811W        W 7011   0.343   4.027   9.889
 2812W        W 7012   4.193   0.422   0.030
 2813W        W 7013   4.911   2.804  11.416
 2814W        W 7014   1.777   0.945  10.648
 2815W        W 7015   6.020   5.107   9.995
 2816W        W 7016   9.551   9.876   2.419
 2817W        W 7017   0.002   0.372   1.640
 2818W        W 7018   8.900   1.766   2.186
 2819W        W 7019  11.066   0.048   1.704
 2820W        W 7020   2.851   8.529  11.090
 2821W        W 7021   6.528   3.639  10.883
 2822W        W 7022  10.319   9.173  11.332
 2823W        W 7023   3.880   1.340   3.453
 2824W        W 7024   5.214   4.123  11.905
 2825W        W 7025   1.862   1.991   3.040
 2826W        W 7026   3.291   8.605  11.340
 2827W        W 7027   6.670   6.632   3.664
 2828W        W 7028   2.687   0.009   2.396
 2829W        W 7029   1.103   5.418   0.761
 2830W        W 7030   9.984   1.176  10.320
 2831W        W 7031   2.877   5.895  10.360
 2832W        W 7032   4.856   9.532   0.219
 2833W        W 7033   6.234   5.838   9.402
 2834W        W 7034   5.544   1.919   9.546
 2835W        W 7035   0.456   0.956   1.359
 2836W        W 7036   9.092   5.047   4.272
 2837W        W 7037   6.753   2.593   4.017
 2838W        W 7038   3.307   0.540   2.820
 2839W        W 7039   0.237   2.158   2.811
 2840W        W 7040   6.444  11.174   0.965
 2841W        W 7041   4.513   8.613   0.230
 2842W        W 7042   8.125  10.035   9.113
 2843W        W 7043   0.800  11.136   3.614
 2844W        W 7044  10.039  10.346  11.830
 2845W        W 7045   2.652   8.156   2.951
 2846W        W 7046   9.945   6.240   1.464
 2847W        W 7047   3.389   9.255   2.397
 2848W        W 7048   8.319   0.781   8.989
 2849W        W 7049   0.035   0.677   1.188
 2850W        W 7050   5.223  10.127  10.796
 2851W        W 7051   8.916   9.510   0.405
 2852W        W 7052   9.339   2.265  10.093
 2853W        W 7053   5.636   7.053   9.024
 2854W        W 7054   6.559   9.544   2.830
 2855W        W 7055   8.465   9.032   1.748
 2856W        W 7056   4.586   9.742  10.991
 2857W        W 7057   4.383   9.568  11.443
 2858W        W 7058   4.169  10.056   0.533
 2859W        W 7059   7.942  10.059   0.727
 2860W        W 7060   4.318   1.435  11.033
 2861W        W 7061   8.974   0.653   9.510
 2862W        W 7062   7.575  10.386   1.233
 2863W        W 7063   0.447   9.923   9.497
 2864W        W 7064  10.820   0.229   1.281
 2865W        W 7065   2.765   7.369  10.178
 2866W        W 7066   9.907   6.519   0.280
 2867W        W 7067  10.363   1.295   9.239
 2868W        W 7068   8.377   5.038  11.500
 2869W        W 7069   7.412   0.947   9.160
 2870W        W 7070   8.754   7.552  11.047
 2871W        W 7071   0.743   2.310   9.657
 2872W        W 7072   2.160   9.174   2.814
 2873W        W 7073   8.482   3.223   8.389
 2874W        W 7074   0.293   1.732  10.060
 2875W        W 7075   8.336   4.125   0.490
 2876W        W 7076   6.275   5.742   0.774
 2877W        W 7077   6.090   0.993   9.007
 2878W        W 7078   6.062   7.448   9.788
 2879W        W 7079   2.330   0.245  11.346
 2880W        W 7080   4.335   6.813   2.688
 2881W        W 7081   2.096   7.847   1.048
 2882W        W 7082   8.038   9.255   9.565
 2883W        W 7083   7.628   6.707  11.334
 2884W        W 7084  10.852  11.426   0.225
 2885W        W 7085   2.205   7.452   3.053
 2886W        W 7086   2.401   5.280   2.174
 2887W        W 7087   3.301   4.710   8.958
 2888W        W 7088   2.162   2.890   9.324
 2889W        W 7089  10.527  10.064   3.515
 2890W        W 7090   8.864   0.625   8.972
 2891W        W 7091   3.427  10.872   3.816
 2892W        W 7092   0.126   1.445   2.212
 2893W        W 7093   6.810   7.959  11.172
 2894W        W 7094   2.694  10.687  10.416
 2895W        W 7095   4.593   4.024   2.554
 2896W        W 7096   8.159   3.656   0.344
 2897W        W 7097   2.372   7.572   0.673
 2898W        W 7098   6.464   9.394  10.389
 2899W        W 7099   4.099   6.420  11.241
 2900W        W 7100  10.945   5.364  11.340
 2901W        W 7101   0.894   6.708  11.605
 2902W        W 7102   0.268   0.418   9.950
 2903W        W 7103   7.042  11.320   3.545
 2904W        W 7104   5.938   8.014  10.997
 2905W        W 7105   7.407   9.608   1.862
 2906W        W 7106   5.653  11.340   1.342
 2907W        W 7107   7.945   3.678  10.433
 2908W        W 7108   2.250   1.123   2.774
 2909W        W 7109   0.078   4.176   2.546
 2910W        W 7110   4.077   3.419   8.850
 2911W        W 7111   9.408   6.569   3.575
 2912W        W 7112   5.323  11.303   1.757
 2913W        W 7113   9.027   2.295   1.370
 2914W        W 7114   8.952   9.029   1.553
 2915W        W 7115   9.925   0.453   2.333
 2916W        W 7116   0.347   9.259   1.211
 2917W        W 7117   0.680   9.523   1.987
 2918W        W 7118   5.040   9.600   8.578
 2919W        W 7119   0.340   8.017   3.133
 2920W        W 7120   8.049   9.502   2.458
 2921W        W 7121  11.482  11.386   2.492
 2922W        W 7122   7.120   2.954   4.104
 2923W        W 7123   4.826  10.840   9.867
 2924W        W 7124   6.439   2.355  10.814
 2925W        W 7125   5.202   6.920   3.596
 2926W        W 7126   4.078  11.061  11.176
 2927W        W 7127   2.797  11.103   2.085
 2928W        W 7128  10.610   0.474   0.893
 2929W        W 7129   5.222   2.625   0.824
 2930W        W 7130   0.214   6.979   1.250
 2931W        W 7131   0.591   1.753   2.882
 2932W        W 7132   0.898   7.674   9.998
 2933W        W 7133   1.561   2.143  10.295
 2934W        W 7134   0.143   9.551   2.075
 2935W        W 7135   2.880   2.126   0.061
 2936W        W 7136   8.426   6.763  11.985
 2937W        W 7137  10.614   8.578  10.494
 2938W        W 7138   1.879   9.323  11.820
 2939W        W 7139   6.305  10.470  11.881
 2940W        W 7140   0.341   3.379   2.358
 2941W        W 7141   7.277   2.409  11.352
 2942W        W 7142   3.274   5.733   2.864
 2943W        W 7143   3.613   4.330   3.073
 2944W        W 7144  11.081   0.893  10.948
 2945W        W 7145   3.266   5.206   2.878
 2946W        W 7146   0.838   9.499  10.304
 2947W        W 7147  10.384   0.432   0.027
 2948W        W 7148   5.073  10.149   2.556
 2949W        W 7149   9.548   5.032   2.662
 2950W        W 7150   9.496   6.948   8.664
 2951W        W 7151   2.659   1.963   1.857
 2952W        W 7152   3.867   1.447   9.464
 2953W        W 7153  10.892   5.678   0.740
 2954W        W 7154   3.960  11.296   9.985
 2955W        W 7155   2.671  10.265  10.727
 2956W        W 7156   0.261   5.176   3.250
 2957W        W 7157   7.567   3.350  10.502
 2958W        W 7158   9.864   9.627   9.543
 2959W        W 7159   5.146   9.315   8.993
 2960W        W 7160   5.524   6.325  11.821
 2961W        W 7161   1.227   3.236   0.185
 2962W        W 7162   5.987   1.740   2.410
 2963W        W 7163   0.899  10.346   1.869
 2964W        W 7164   3.815   1.270   2.436
 2965W        W 7165   9.359   2.766   1.032
 2966W        W 7166   7.412   5.011   3.767
 2967W        W 7167   5.057   6.083   0.505
 2968W        W 7168   4.934  10.083   1.696
 2969W        W 7169   9.369   8.136   1.370
 2970W        W 7170   7.943   9.061   9.100
 2971W        W 7171   3.848   5.514   0.242
 2972W        W 7172   1.714   3.150  10.949
 2973W        W 7173   8.948   8.832   0.268
 2974W        W 7174   2.907  10.286   9.098
 2975W        W 7175   9.079   1.494   2.594
 2976W        W 7176   5.126   7.323   8.892
 2977W        W 7177  10.785   3.275   0.908
 2978W        W 7178   2.735   1.862   2.681
 2979W        W 7179   5.850   3.299   9.377
 2980W        W 7180  10.021   9.466   0.866
 2981W        W 7181   8.954   2.943   0.769
 2982W        W 7182   0.177   4.042  11.665
 2983W        W 7183   5.203   1.441  11.090
 2984W        W 7184   2.172   4.269   9.590
 2985W        W 7185   6.794   2.121   2.418
 2986W        W 7186   0.513   0.419  10.388
 2987W        W 7187  10.158   7.092   9.498
 2988W        W 7188   3.550   6.704   9.831
 2989W        W 7189   6.138   6.525   9.947
 2990W        W 7190   2.731   6.704   8.251
 2991W        W 7191   0.343   0.077   1.152
 2992W        W 7192   2.073   4.286   9.080
 2993W        W 7193  11.409   3.895   0.753
 2994W        W 7194   3.706   0.850   9.081
 2995W        W 7195   6.529   4.593  10.705
 2996W        W 7196   8.637  10.474   9.013
 2997W        W 7197   0.093   0.412   3.203
 2998W        W 7198   8.861   4.870  11.524
 2999W        W 7199   9.803  11.337  11.724
 3000W        W 7200   0.457   3.324   8.903
 3001W        W 7201   2.224   0.004   0.005
 3002W        W 7202  10.928   0.436   0.427
 3003W        W 7203   4.876   1.467   9.575
 3004W        W 7204   0.911   1.351   2.854
 3005W        W 7205   4.325   2.303   2.658
 3006W        W 7206   7.264   2.811   3.113
 3007W        W 7207   3.527   9.310   2.884
 3008W        W 7208   4.354   3.695  10.583
 3009W        W 7209  10.776   0.799  10.557
 3010W        W 7210   9.887   7.679   2.976
 3011W        W 7211   1.215   5.761   1.823
 3012W        W 7212   0.773   8.505  11.234
 3013W        W 7213   2.979   5.997   9.863
 3014W        W 7214   1.313   3.164   1.748
 3015W        W 7215   7.397   2.103   0.936
 3016W        W 7216   1.406   8.585   0.963
 3017W        W 7217   4.103   9.195  10.433
 3018W        W 7218   0.704   8.364   3.769
 3019W        W 7219   3.749   4.935  10.292
 3020W        W 7220   9.592   5.132  11.717
 3021W        W 7221   9.999   8.107   2.687
 3022W        W 7222   2.277   1.962   9.252
 3023W        W 7223   5.676   9.022   2.523
 3024W        W 7224   5.131   3.814  10.913
 3025W        W 7225   6.712   2.661   8.560
 3026W        W 7226   4.261   1.121  11.912
 3027W        W 7227   6.542   1.680   8.758
 3028W        W 7228   3.215   5.294  11.038
 3029W        W 7229   2.626   0.605   1.177
 3030W        W 7230   3.846   5.837   1.516
 3031W        W 7231   3.631   4.346   1.231
 3032W        W 7232   5.091   5.709  10.206
 3033W        W 7233   0.694   7.992  11.350
 3034W        W 7234   8.676   7.441  10.372
 3035W        W 7235   4.619   7.959  11.046
 3036W        W 7236  11.189  11.031   1.744
 3037W        W 7237  10.060   5.182   2.440
 3038W        W 7238   6.269   3.269   9.064
 3039W        W 7239   1.389   5.729  10.209
 3040W        W 7240   2.664   1.696  10.363
 3041W        W 7241  10.133   9.591   1.644
 3042W        W 7242   2.653   0.183  11.822
 3043W        W 7243   0.150   2.594   1.008
 3044W        W 7244   3.136   7.540   1.662
 3045W        W 7245   3.587   9.764   3.086
 3046W        W 7246   0.969  10.795  11.985
 3047W        W 7247   6.281   7.670   0.620
 3048W        W 7248   5.992   1.328   8.452
 3049W        W 7249   9.878   5.139  11.301
 3050W        W 7250   9.190   7.939   9.027
 3051W        W 7251   7.966   4.709   2.525
 3052W        W 7252   6.765   8.819  11.142
 3053W        W 7253   7.719   3.639   2.825
 3054W        W 7254   3.155  10.891  11.900
 3055W        W 7255   7.740   7.591  10.370
 3056W        W 7256  10.970  11.470   3.226
 3057W        W 7257   7.048   0.580   9.053
 3058W        W 7258   0.507  10.853  11.556
 3059W        W 7259   9.926   7.618   9.617
 3060W        W 7260   0.902   0.457   0.660
 3061W        W 7261   2.323   7.202   9.924
 3062W        W 7262   1.197   1.187   9.174
 3063W        W 7263   4.424   2.669  11.410
 3064W        W 7264   3.698  11.393   9.083
 3065W        W 7265  10.408   8.174  11.469
 3066W        W 7266  10.937   2.739   0.215
 3067W        W 7267   9.936   4.856   3.450
 3068W        W 7268   8.880   7.251   0.327
 3069W        W 7269   2.772   1.812  11.643
 3070W        W 7270   7.457  10.388   9.793
 3071W        W 7271   9.463   8.866   8.940
 3072W        W 7272   7.462   6.774   3.224
 3073W        W 7273   5.496  10.737   1.956
 3074W        W 7274   1.463   5.272  11.489
 3075W        W 7275   0.028  10.092   2.036
 3076W        W 7276   5.530   0.623  10.152
 3077W        W 7277   5.815   7.556   0.787
 3078W        W 7278   5.241   3.743   2.267
 3079W        W 7279  10.533   1.399   2.911
 3080W        W 7280   8.182   5.046  10.458
 3081W        W 7281   6.658  10.471   1.242
 3082W        W 7282   6.755   3.767  11.328
 3083W        W 7283   6.050  11.022   1.278
 3084W        W 7284   9.863   4.684  11.572
 3085W        W 7285  11.267   9.302   3.383
 3086W        W 7286   0.525   5.907  10.839
 3087W        W 7287   7.465   8.507  11.477
 3088W        W 7288   5.196   5.728   9.676
 3089W        W 7289   8.031  11.474   3.413
 3090W        W 7290   2.662  10.205  10.234
 3091W        W 7291   8.329   0.783  11.215
 3092W        W 7292   9.426   7.376   1.051
 3093W        W 7293   8.958   1.598   9.320
 3094W        W 7294   5.595   4.464   1.093
 3095W        W 7295   2.910   4.626   8.621
 3096W        W 7296   5.310  10.986   9.769
 3097W        W 7297   1.854   6.602   2.821
 3098W        W 7298   4.142  11.460   8.841
 3099W        W 7299   6.562   9.861   8.922
 3100W        W 7300   5.817   6.041  11.543
 3101W        W 7301   0.854   2.659  10.699
 3102W        W 7302   4.611   5.437   1.420
 3103W        W 7303   4.283   7.827  10.077
 3104W        W 7304   2.850   7.493   2.074
 3105W        W 7305   1.438   8.175  10.528
 3106W        W 7306   7.505   2.759   1.649
 3107W        W 7307  11.383   1.255   0.046
 3108W        W 7308   8.048   0.828   1.981
 3109W        W 7309   6.126   0.448  11.779
 3110W        W 7310   5.260  10.522   1.062
 3111W        W 7311   8.119   2.444  11.936
 3112W        W 7312   7.038   4.085   1.083
 3113W        W 7313   3.249   8.653   9.358
 3114W        W 7314   3.587   5.765  11.860
 3115W        W 7315   5.800  10.774   0.276
 3116W        W 7316   4.039   0.779  10.438
 3117W        W 7317  11.375   5.199   9.760
 3118W        W 7318   6.440   4.782  11.702
 3119W        W 7319   1.181   8.590   9.334
 3120W        W 7320   3.262   7.940   0.372
 3121W        W 7321   3.289   8.196   1.273
 3122W        W 7322   1.804  11.219  10.566
 3123W        W 7323   4.572   0.001   0.903
 3124W        W 7324   8.490  11.316   2.626
 3125W        W 7325   6.165   1.299   0.744
 3126W        W 7326   0.880   7.240   4.062
 3127W        W 7327   0.376   3.810   0.992
 3128W        W 7328   3.732   3.202  11.882
 3129W        W 7329   1.628  10.311   9.013
 3130W        W 7330   3.579  11.301   3.030
 3131W        W 7331  11.054   8.730   0.587
 3132W        W 7332   5.704   2.294   9.199
 3133W        W 7333   2.763   5.004   3.729
 3134W        W 7334   6.723  10.498   9.023
 3135W        W 7335   5.743   2.822  10.008
 3136W        W 7336   3.991   4.670   9.834
 3137W        W 7337   4.507   9.126   0.256
 3138W        W 7338   7.767   8.321   9.233
 3139W        W 7339   0.260   0.846  10.286
 3140W        W 7340  11.472   1.256   1.301
 3141W        W 7341  11.160  10.779   3.573
 3142W        W 7342   1.291  11.346  10.503
 3143W        W 7343   6.839   7.853   2.340
 3144W        W 7344   6.506   4.507   2.612
 3145W        W 7345   1.027   4.513   1.314
 3146W        W 7346   4.245  10.336   1.952
 3147W        W 7347   0.643  10.057   0.192
 3148W        W 7348   1.398   9.540  11.016
 3149W        W 7349   8.972   1.078   9.185
 3150W        W 7350   2.921   0.270   0.260
 3151W        W 7351  11.392   8.748   3.336
 3152W        W 7352  11.152   4.632   3.442
 3153W        W 7353  11.217   4.337   9.881
 3154W        W 7354   1.910   1.871   0.047
 3155W        W 7355   6.967   9.795   0.906
 3156W        W 7356   5.285   8.955  10.994
 3157W        W 7357   1.888   3.888   0.876
 3158W        W 7358  10.499   8.431  11.916
 3159W        W 7359   4.397   9.978   9.238
 3160W        W 7360   2.566   1.204   2.390
 3161W        W 7361   8.410   5.559   8.989
 3162W        W 7362   1.575  10.406   1.001
 3163W        W 7363   3.738   1.772  10.423
 3164W        W 7364   5.616   1.672   1.610
 3165W        W 7365   8.182   1.030   2.446
 3166W        W 7366  10.555   9.340   0.173
 3167W        W 7367   6.248   5.070  10.478
 3168W        W 7368   3.593  10.982   9.461
 3169W        W 7369   8.491   2.671   9.990
 3170W        W 7370   2.300   8.670   9.118
 3171W        W 7371  10.848   9.636   3.537
 3172W        W 7372   9.340   4.274   9.633
 3173W        W 7373   5.741   7.992   9.095
 3174W        W 7374   3.159   6.942   1.054
 3175W        W 7375   9.991   4.562  10.174
 3176W        W 7376   2.826   2.800   0.486
 3177W        W 7377   5.581   2.836   3.387
 3178W        W 7378   6.963   0.783  10.246
 3179W        W 7379  11.457  10.994   2.183
 3180W        W 7380   2.124   6.114  11.767
 3181W        W 7381  11.336   7.610   1.633
 3182W        W 7382   1.685   0.693   9.173
 3183W        W 7383  10.594   8.865   1.389
 3184W        W 7384   3.255   8.891   1.976
 3185W        W 7385   6.096   8.305   1.767
 3186W        W 7386   0.373  11.070   1.298
 3187W        W 7387   5.994  10.905  11.433
 3188W        W 7388   9.868   2.228  11.778
 3189W        W 7389   8.931   0.871  10.753
 3190W        W 7390   8.607   3.776   2.673
 3191W        W 7391   1.223   6.558   3.533
 3192W        W 7392   8.880   1.234   9.674
 3193W        W 7393   3.820   7.785  11.420
 3194W        W 7394   8.313   9.537   2.010
 3195W        W 7395   9.311   7.850   1.841
 3196W        W 7396   0.953   9.880   9.377
 3197W        W 7397   8.774   4.552   1.262
 3198W        W 7398   1.097  11.316  11.936
 3199W        W 7399   1.204   0.990   2.651
 3200W        W 7400   5.755   3.270   8.373
 3201W        W 7401   9.937   6.178   9.841
 3202W        W 7402   5.668   0.938   2.196
 3203W        W 7403   2.694   7.184  11.728
 3204W        W 7404   5.754  11.278   0.421
 3205W        W 7405   2.646   2.847   9.449
 3206W        W 7406   3.826   2.607   3.211
 3207W        W 7407  10.956   8.941   9.288
 3208W        W 7408   2.251  11.266   2.782
 3209W        W 7409   9.056   4.690   9.682
 3210W        W 7410   8.130   9.385   1.563
 3211W        W 7411   7.539   8.987   2.992
 3212W        W 7412   1.996   7.638   2.624
 3213W        W 7413   8.716  11.349   0.378
 3214W        W 7414   0.789   1.591  11.348
 3215W        W 7415   8.444   0.568   1.745
 3216W        W 7416   7.494   7.975   1.004
 3217W        W 7417   4.006   2.819   9.571
 3218W        W 7418   0.830   8.807   0.060
 3219W        W 7419  10.767   4.875  11.440
 3220W        W 7420  11.286   8.181   0.368
 3221W        W 7421   2.735   1.528  11.218
 3222W        W 7422   6.593   0.767   2.722
 3223W        W 7423   4.306   0.975   3.348
 3224W        W 7424  10.817  10.804  10.886
 3225W        W 7425   7.259   1.342   9.580
 3226W        W 7426  10.921   2.552   9.703
 3227W        W 7427   9.430   6.625   0.331
 3228W        W 7428   1.877   2.915   2.704
 3229W        W 7429   3.478   4.397   0.459
 3230W        W 7430   9.567   6.551   0.820
 3231W        W 7431  10.240   1.274   3.343
 3232W        W 7432   7.516   9.430  11.288
 3233W        W 7433   9.901   9.471  10.514
 3234W        W 7434   3.910  10.047   9.343
 3235W        W 7435   3.444   7.961   1.732
 3236W        W 7436  10.605   1.834   9.189
 3237W        W 7437  10.795   0.842   3.452
 3238W        W 7438   3.600   8.960   0.560
 3239W        W 7439   6.984   4.313   2.782
 3240W        W 7440   3.136   3.218   0.453
 3241W        W 7441   6.493   9.218   8.488
 3242W        W 7442   6.109   5.228  11.886
 3243W        W 7443   4.334   8.618   2.554
 3244W        W 7444   6.278  11.290   0.375
 3245W        W 7445   3.663   6.501   2.149
 3246W        W 7446   2.816   4.331   0.931
 3247W        W 7447   1.266  10.060   1.261
 3248W        W 7448  11.289  10.292   9.938
 3249W        W 7449   8.079  10.310  11.277
 3250W        W 7450   0.935   5.623   9.950
 3251W        W 7451   8.410   7.076   9.816
 3252W        W 7452   0.778   7.780  10.876
 3253W        W 7453   3.953   3.205   0.890
 3254W        W 7454   6.399   5.761  10.559
 3255W        W 7455  10.417   9.787   0.928
 3256W        W 7456   0.789   9.965   0.676
 3257W        W 7457   0.397  11.014   9.950
 3258W        W 7458   4.639   4.395  10.014
 3259W        W 7459   0.855   1.262  11.729
 3260W        W 7460  11.483   0.169   0.703
 3261W        W 7461  10.913   1.271   3.214
 3262W        W 7462   1.879  10.426   3.140
 3263W        W 7463   6.300   6.034   1.204
 3264W        W 7464   0.309  11.450  10.238
 3265W        W 7465  10.266   0.520   2.743
 3266W        W 7466   5.362  10.094   0.764
 3267W        W 7467   5.944  11.402   2.781
 3268W        W 7468   2.783   9.389   9.261
 3269W        W 7469   8.373   9.305   3.237
 3270W        W 7470   9.917   2.832   0.462
 3271W        W 7471   9.396   0.031   1.455
 3272W        W 7472   4.968   0.005   2.576
 3273W        W 7473   9.690   0.033   0.167
 3274W        W 7474   8.400   8.623   2.057
 3275W        W 7475   3.355   8.434   2.748
 3276W        W 7476   0.377   6.096   0.750
 3277W        W 7477   4.201   6.528   8.574
 3278W        W 7478   5.056   2.371   9.990
 3279W        W 7479   1.190   8.771   2.855
 3280W        W 7480   2.628   8.579   3.244
 3281W        W 7481   0.375  11.040   8.457
 3282W        W 7482   7.508   1.428   1.187
 3283W        W 7483   1.376   2.232   3.304
 3284W        W 7484   9.961   7.191   9.946
 3285W        W 7485   1.293   0.602   2.359
 3286W        W 7486   2.681   3.463   1.030
 3287W        W 7487  11.300   6.875   0.364
 3288W        W 7488   7.473   8.191   0.307
 3289W        W 7489   6.980  10.175   0.062
 3290W        W 7490   0.484   0.464   1.452
 3291W        W 7491   5.506   3.248   0.091
 3292W        W 7492   8.643   5.933  10.086
 3293W        W 7493   2.212   4.124   1.758
 3294W        W 7494   0.397   2.964  11.849
 3295W        W 7495   7.660   0.076   1.666
 3296W        W 7496   1.928   5.127   2.311
 3297W        W 7497   7.486   2.687   2.164
 3298W        W 7498   1.402   6.919   9.507
 3299W        W 7499   8.518   0.258   2.946
 3300W        W 7500   1.559   9.447   0.836
 3301W        W 7501  11.334   1.617   0.425
 3302W        W 7502   6.601   7.108   9.658
 3303W        W 7503   9.052   8.896  11.232
 3304W        W 7504   3.745   4.654   0.822
 3305W        W 7505   1.803   0.466  10.013
 3306W        W 7506   8.380   8.893   9.421
 3307W        W 7507   1.042   7.937  11.747
 3308W        W 7508   0.432   5.550  10.477
 3309W        W 7509   2.956   9.494   9.827
 3310W        W 7510  10.842   0.670   8.954
 3311W        W 7511   3.242   8.203  10.089
 3312W        W 7512   7.469   0.532   0.269
 3313W        W 7513  11.320   6.452  10.460
 3314W        W 7514   3.185   1.242   1.550
 3315W        W 7515   3.187   7.687  10.801
 3316W        W 7516   6.728   9.049   2.400
 3317W        W 7517   8.002   0.516   0.277
 3318W        W 7518   1.885   3.080   1.267
 3319W        W 7519   4.977  10.368   0.472
 3320W        W 7520  10.310   3.683   8.662
 3321W        W 7521   3.897   2.341   0.896
 3322W        W 7522   7.536   5.627   1.572
 3323W        W 7523   1.354   8.899   1.945
 3324W        W 7524   6.218  10.147   1.192
 3325W        W 7525  10.585   6.090   0.677
 3326W        W 7526   3.976   2.203   3.524
 3327W        W 7527   9.761   3.070   1.861
 3328W        W 7528   0.189   4.527   2.984
 3329W        W 7529   0.550   3.888  10.574
 3330W        W 7530   6.050  10.593   1.032
 3331W        W 7531  10.474  11.205   0.499
 3332W        W 7532  10.358  10.457   9.231
 3333W        W 7533   4.361   5.993  11.178
 3334W        W 7534   9.354   1.005   9.554
 3335W        W 7535   3.067   1.447  10.563
 3336W        W 7536   4.735   6.783   9.490
 3337W        W 7537   4.611   1.126   2.943
 3338W        W 7538  10.726   3.628   2.666
 3339W        W 7539   0.617   9.032  10.529
 3340W        W 7540   8.530   1.435   8.477
 3341W        W 7541   0.974   0.490   3.136
 3342W        W 7542   0.476   2.300   8.794
 3343W        W 7543   6.176  11.474   9.862
 3344W        W 7544   4.080   1.606   1.312
 3345W        W 7545   9.937   6.661  11.281
 3346W        W 7546   4.055   5.047   0.049
 3347W        W 7547   8.048  10.539   1.418
 3348W        W 7548   7.268   5.483   1.039
 3349W        W 7549  11.379   6.009   2.422
 3350W        W 7550   9.474   8.393   2.748
 3351W        W 7551   0.578   7.492  11.264
 3352W        W 7552   7.460   6.049   1.907
 3353W        W 7553   3.091   9.641   3.727
 3354W        W 7554   6.777   4.215   2.277
 3355W        W 7555   3.442   6.546   2.636
 3356W        W 7556   4.985   7.530   1.269
 3357W        W 7557   0.866   8.416  11.726
 3358W        W 7558   7.411   9.906  10.035
 3359W        W 7559   0.934   5.679  10.464
 3360W        W 7560   7.999   8.949   3.218
 3361W        W 7561   5.703   3.126  11.177
 3362W        W 7562  11.452   2.800   2.952
 3363W        W 7563   5.214  10.535  11.097
 3364W        W 7564   2.240   8.545   0.778
 3365W        W 7565   0.380   1.760  11.603
 3366W        W 7566   2.892   7.172  10.783
 3367W        W 7567   8.355   5.656   2.744
 3368W        W 7568   0.950   8.026   1.483
 3369W        W 7569   6.724   9.148   4.181
 3370W        W 7570   1.098  11.250   0.467
 3371W        W 7571   6.586   3.055   0.044
 3372W        W 7572   9.176   6.430   1.804
 3373W        W 7573   2.843   2.961   1.931
 3374W        W 7574   6.507   4.364   9.814
 3375W        W 7575   3.202   3.485   3.187
 3376W        W 7576   4.752   0.769  11.302
 3377W        W 7577   9.368   4.079  10.640
 3378W        W 7578   7.786   3.368   8.742
 3379W        W 7579   3.779   6.462   9.446
 3380W        W 7580  10.319   9.497  11.746
 3381W        W 7581   3.826   4.128   2.634
 3382W        W 7582   4.535   7.303   9.407
 3383W        W 7583   6.929   0.496   9.585
 3384W        W 7584   1.053   6.239   8.813
 3385W        W 7585   1.283   2.442  10.915
 3386W        W 7586   4.899   6.557  10.606
 3387W        W 7587   9.362   2.321  11.622
 3388W        W 7588  10.945   6.724   2.676
 3389W        W 7589   4.269   5.305   1.856
 3390W        W 7590   5.035   2.381   1.856
 3391W        W 7591   5.468   4.960   2.785
 3392W        W 7592   9.781   9.932  11.268
 3393W        W 7593   4.396   7.013   0.630
 3394W        W 7594   8.257   6.965   3.352
 3395W        W 7595  10.852  11.038  11.837
 3396W        W 7596  10.493   6.102   3.257
 3397W        W 7597   5.250   2.218   8.957
 3398W        W 7598   7.020   1.025   8.801
 3399W        W 7599   7.060   2.868  11.252
 3400W        W 7600   6.793   7.041  10.182
 3401W        W 7601   5.231   5.733   0.847
 3402W        W 7602  10.026   7.169  10.796
 3403W        W 7603   9.011   6.188   9.792
 3404W        W 7604   4.185   1.954   1.682
 3405W        W 7605   2.949   8.639   9.917
 3406W        W 7606   0.388   9.643   8.506
 3407W        W 7607   9.908   8.667   8.752
 3408W        W 7608   6.490   9.639   9.394
 3409W        W 7609   3.122   1.667   1.877
 3410W        W 7610   8.452   2.549   8.539
 3411W        W 7611   5.243   1.425   9.210
 3412W        W 7612   4.161   3.143   9.926
 3413W        W 7613   9.521  10.271  10.968
 3414W        W 7614   3.015   3.149  10.656
 3415W        W 7615   3.574   8.579   0.236
 3416W        W 7616   1.354   2.644   9.897
 3417W        W 7617   1.790   7.662  10.402
 3418W        W 7618   4.106   6.741  10.845
 3419W        W 7619   7.841   6.923   1.545
 3420W        W 7620   1.939   2.855   1.793
 3421W        W 7621   8.420   6.302   0.823
 3422W        W 7622   6.693  11.264   2.359
 3423W        W 7623   2.763   2.580   9.037
 3424W        W 7624   2.331   6.897   9.491
 3425W        W 7625   4.316   0.370  10.610
 3426W        W 7626   3.113  10.830   9.553
 3427W        W 7627   7.102   5.015   0.096
 3428W        W 7628  10.815   9.016   0.948
 3429W        W 7629   9.592   1.483   2.633
 3430W        W 7630   4.314   9.935   2.744
 3431W        W 7631   0.702   0.853   2.710
 3432W        W 7632   6.770  10.652   3.189
 3433W        W 7633  10.937  10.904   0.330
 3434W        W 7634  10.931   8.060   2.708
 3435W        W 7635   5.835   6.673  10.923
 3436W        W 7636   8.966   4.405  11.388
 3437W        W 7637   2.189   8.369   9.494
 3438W        W 7638   4.128   3.052   3.246
 3439W        W 7639   2.479   2.239   2.271
 3440W        W 7640   4.170   3.619  10.125
 3441W        W 7641   6.544  10.511  10.179
 3442W        W 7642   3.514   8.769   2.411
 3443W        W 7643   6.626   5.197  11.979
 3444W        W 7644   9.896   2.685   9.593
 3445W        W 7645  10.826   8.947  11.234
 3446W        W 7646   1.331   5.213   0.354
 3447W        W 7647   7.197   6.970   0.920
 3448W        W 7648   2.313   1.057   1.955
 3449W        W 7649   8.657   7.790   0.885
 3450W        W 7650   6.996   3.919  11.763
 3451W        W 7651   7.105   8.566   3.418
 3452W        W 7652   9.804   4.562   1.020
 3453W        W 7653   8.638  11.229   1.273
 3454W        W 7654   1.681   0.837   9.652
 3455W        W 7655   8.096   0.966   3.408
 3456W        W 7656   8.192  10.480  10.813
 3457W        W 7657  10.865   5.751   3.109
 3458W        W 7658   2.290   5.121   3.610
 3459W        W 7659   5.279   7.881  10.279
 3460W        W 7660   1.764   2.700   9.595
 3461W        W 7661   0.099   1.754  10.557
 3462W        W 7662   9.403   2.733   3.026
 3463W        W 7663   3.408   1.239   9.278
 3464W        W 7664   7.107   3.932   1.987
 3465W        W 7665   8.774   5.163   8.970
 3466W        W 7666   0.283   8.285   0.241
 3467W        W 7667   7.702   8.044  11.264
 3468W        W 7668   5.132   6.852   2.511
 3469W        W 7669   2.413   9.466  10.165
 3470W        W 7670   6.704   6.913  10.704
 3471W        W 7671   5.073   4.221   2.408
 3472W        W 7672   0.048   9.640  10.921
 3473W        W 7673   5.924   7.507   3.121
 3474W        W 7674  11.391   8.812   9.054
 3475W        W 7675   7.736   8.541  11.949
 3476W        W 7676   5.197   9.327   1.834
 3477W        W 7677   1.606   9.512   3.056
 3478W        W 7678   3.036   5.257   0.649
 3479W        W 7679   5.960   6.059   0.062
 3480W        W 7680  10.837   4.537   9.467
 3481W        W 7681   9.011   6.705   1.409
 3482W        W 7682   0.816  10.801   1.186
 3483W        W 7683   5.980   0.808  10.331
 3484W        W 7684  11.469   1.291  10.800
 3485W        W 7685   9.577   5.407  10.942
 3486W        W 7686   4.302   9.465   9.469
 3487W        W 7687  10.297   2.783   8.937
 3488W        W 7688   4.045   5.549   2.358
 3489W        W 7689  10.821   8.187  10.147
 3490W        W 7690   4.795   0.737   3.223
 3491W        W 7691   1.374   6.107  11.145
 3492W        W 7692   6.057   6.459  11.785
 3493W        W 7693   9.773   4.100  10.311
 3494W        W 7694   8.328   1.438   0.854
 3495W        W 7695   5.736   5.761   0.982
 3496W        W 7696   3.590   8.309   2.170
 3497W        W 7697   8.545   4.679   3.196
 3498W        W 7698   1.249   8.624   0.446
 3499W        W 7699   8.880  10.471   0.450
 3500W        W 7700   0.810   4.738   2.182
 3501W        W 7701   0.535  10.595  10.908
 3502W        W 7702  10.041   1.704   9.592
 3503W        W 7703   4.302   3.723   9.641
 3504W        W 7704   2.407   3.002   3.237
 3505W        W 7705   3.318   9.578   8.808
 3506W        W 7706   2.386   5.331  10.976
 3507W        W 7707   9.367   7.019   0.679
 3508W        W 7708   7.505   4.590   2.806
 3509W        W 7709  11.080  11.390   8.528
 3510W        W 7710   1.606   8.622   3.190
 3511W        W 7711  10.850   8.371   1.296
 3512W        W 7712   6.792   5.229   1.901
 3513W        W 7713  11.313   5.757   1.900
 3514W        W 7714   8.303  11.189  10.494
 3515W        W 7715   2.787   5.039  10.877
 3516W        W 7716   2.260   6.635  11.284
 3517W        W 7717   1.593   8.533   2.318
 3518W        W 7718   3.036  10.559   0.782
 3519W        W 7719   3.256   5.598   9.033
 3520W        W 7720   1.029  10.722  11.005
 3521W        W 7721   1.820   6.591  11.550
 3522W        W 7722   8.123   8.445   3.196
 3523W        W 7723   4.596   9.042   9.385
 3524W        W 7724  11.355   3.313   9.555
 3525W        W 7725   3.191   4.164  11.993
 3526W        W 7726   9.048   2.288   2.229
 3527W        W 7727   1.287   0.731  11.386
 3528W        W 7728   3.140   4.754   9.532
 3529W        W 7729   5.257   1.400   0.425
 3530W        W 7730   9.328   4.683   2.323
 3531W        W 7731   0.520   0.376   2.936
 3532W        W 7732   0.766   6.414  11.140
 3533W        W 7733   3.745   2.610   2.683
 3534W        W 7734   1.081  10.397   0.890
 3535W        W 7735   6.138   7.688   8.923
 3536W        W 7736   0.729   3.326  11.978
 3537W        W 7737   1.741   9.828   8.845
 3538W        W 7738   4.311   1.856   0.389
 3539W        W 7739   3.337   4.616  10.351
 3540W        W 7740  10.433  10.887   0.089
 3541W        W 7741   6.571   9.288  11.189
 3542W        W 7742   8.156   2.149  11.530
 3543W        W 7743   0.945   3.758  11.237
 3544W        W 7744   4.625   1.499  11.936
 3545W        W 7745   5.231  10.620   9.232
 3546W        W 7746   8.857  10.413   2.277
 3547W        W 7747  11.142   5.189   0.004
 3548W        W 7748   8.067  10.373   2.947
 3549W        W 7749   9.373   5.532   2.466
 3550W        W 7750   1.629   1.857  11.610
 3551W        W 7751   6.415   9.361   8.966
 3552W        W 7752   5.980  10.427  10.355
 3553W        W 7753   7.889   8.935   1.735
 3554W        W 7754  10.963   7.426   1.343
 3555W        W 7755   1.913   8.952   2.421
 3556W        W 7756   4.951   8.305  11.744
 3557W        W 7757  10.189  11.401   0.107
 3558W        W 7758   6.694  11.282   1.845
 3559W        W 7759   4.774   9.904   9.553
 3560W        W 7760   8.579  10.340  11.102
 3561W        W 7761   5.423   7.300   3.295
 3562W        W 7762   6.297   3.833   1.381
 3563W        W 7763   2.715   3.054  11.070
 3564W        W 7764  11.366   5.570   0.902
 3565W        W 7765   7.937   3.220   9.588
 3566W        W 7766   5.277  11.023   3.266
 3567W        W 7767   1.349   0.104   2.374
 3568W        W 7768   1.257   9.116   3.226
 3569W        W 7769   7.105   7.402   2.119
 3570W        W 7770   4.092   6.474  11.769
 3571W        W 7771  10.977   1.872   1.711
 3572W        W 7772   9.276  11.452   3.677
 3573W        W 7773   6.175   2.486   8.648
 3574W        W 7774   6.675   9.927   2.513
 3575W        W 7775   3.600   3.582   8.965
 3576W        W 7776   3.105  10.047   9.993
 3577W        W 7777   8.034   0.252   0.746
 3578W        W 7778  10.002  10.336   8.846
 3579W        W 7779   8.702   2.398   2.581
 3580W        W 7780   0.407   2.274   1.329
 3581W        W 7781   3.655   0.377   9.241
 3582W        W 7782  11.423  11.033   8.700
 3583W        W 7783  11.028   2.319   2.296
 3584W        W 7784   1.833   6.041  10.857
 3585W        W 7785   3.442   8.606   9.828
 3586W        W 7786   2.588   7.097   1.913
 3587W        W 7787   9.948   4.840   0.625
 3588W        W 7788   7.715   8.838   2.221
 3589W        W 7789  11.320  10.564   1.965
 3590W        W 7790   0.891   5.417   1.621
 3591W        W 7791   6.980   1.890   0.664
 3592W        W 7792   1.983   2.293  11.759
 3593W        W 7793   6.536   5.689   1.495
 3594W        W 7794   9.124   3.451  11.212
 3595W        W 7795   3.498   7.462   2.614
 3596W        W 7796   3.591   7.076  10.183
 3597W        W 7797   7.273   6.221  11.011
 3598W        W 7798   4.012   9.347   8.535
 3599W        W 7799   6.128   2.827   0.734
 3600W        W 7800   9.538   9.052  11.750
 3601W        W 7801   2.399   9.159   8.983
 3602W        W 7802   9.194   5.794   3.035
 3603W        W 7803   4.990   6.656  11.228
 3604W        W 7804   4.258   4.726  11.243
 3605W        W 7805   5.349   8.856  11.917
 3606W        W 7806   3.236   7.904   2.214
 3607W        W 7807   8.449   1.804   0.510
 3608W        W 7808  11.395   7.830   3.027
 3609W        W 7809   0.984   8.266  10.827
 3610W        W 7810   1.131   4.268  11.286
 3611W        W 7811   6.093   5.288   9.482
 3612W        W 7812   6.682  10.213   0.815
 3613W        W 7813   6.810   0.305  10.064
 3614W        W 7814   5.629   4.063   9.823
 3615W        W 7815   4.609   1.626   2.948
 3616W        W 7816   8.090   8.115   0.978
 3617W        W 7817   1.896  10.314   0.227
 3618W        W 7818   1.324   2.709   9.319
 3619W        W 7819   6.491   2.612   2.342
 3620W        W 7820   4.118   7.552   9.643
 3621W        W 7821   2.304   5.561  10.436
 3622W        W 7822   9.554   8.264  10.727
 3623W        W 7823   1.878   7.003   9.267
 3624W        W 7824   9.972   0.863   0.558
 3625W        W 7825   6.172   8.529   2.227
 3626W        W 7826  11.308   1.103   0.535
 3627W        W 7827   7.489   7.674   0.228
 3628W        W 7828  11.067   6.171   0.860
 3629W        W 7829   2.153   8.994   0.524
 3630W        W 7830   8.384   6.883   2.318
 3631W        W 7831   3.255   4.708   2.096
 3632W        W 7832  10.949   1.393   1.441
 3633W        W 7833   4.674   1.907   0.905
 3634W        W 7834   5.647   0.629   1.791
 3635W        W 7835   3.178   7.581   3.019
 3636W        W 7836   1.065   7.633  11.328
 3637W        W 7837  10.019   9.956   3.232
 3638W        W 7838   5.767   2.207   2.338
 3639W        W 7839   9.043  10.822   1.535
 3640W        W 7840   6.546   8.187   2.909
 3641W        W 7841   1.826  10.412  10.735
 3642W        W 7842   9.944   8.747   0.086
 3643W        W 7843   1.735   4.250   9.924
 3644W        W 7844   4.241   8.479   0.933
 3645W        W 7845   9.844   5.659  11.319
 3646W        W 7846   0.177   1.715   0.058
 3647W        W 7847   3.672  10.471   9.480
 3648W        W 7848   8.522  10.867   0.428
 3649W        W 7849   5.016   3.881   9.206
 3650W        W 7850   8.039   0.050   2.423
 3651W        W 7851   5.453   7.445   0.364
 3652W        W 7852  10.481   0.863  10.959
 3653W        W 7853   8.219   1.902   0.068
 3654W        W 7854   0.679   0.060  11.054
 3655W        W 7855   8.082  10.312   3.452
 3656W        W 7856   8.553   6.608   3.129
 3657W        W 7857  10.973   8.571  10.898
 3658W        W 7858   1.354   0.242   2.883
 3659W        W 7859   5.046   5.243  10.436
 3660W        W 7860   8.538   4.633  11.092
 3661W        W 7861   2.312   5.227   2.687
 3662W        W 7862   9.370   2.309   9.084
 3663W        W 7863   4.046   1.235   9.041
 3664W        W 7864   2.622   6.559   2.265
 3665W        W 7865   7.298   7.960  10.957
 3666W        W 7866   5.099   3.870   2.755
 3667W        W 7867   4.446   9.904   1.781
 3668W        W 7868   8.376  11.443   9.260
 3669W        W 7869   8.449   0.303   8.918
 3670W        W 7870   0.904   2.300   1.446
 3671W        W 7871   2.888  10.534   9.925
 3672W        W 7872   5.110   3.255   0.457
 3673W        W 7873   9.644   3.488   9.420
 3674W        W 7874  10.062   7.183   2.818
 3675W        W 7875  10.603   2.670  11.845
 3676W        W 7876   5.057   3.054   3.192
 3677W        W 7877   6.334   6.587  10.851
 3678W        W 7878   0.380  10.825   0.865
 3679W        W 7879  11.393   3.073   0.074
 3680W        W 7880   1.260   0.355   9.108
 3681W        W 7881  11.218   2.349   1.830
 3682W        W 7882   3.761   5.241   2.062
 3683W        W 7883   2.374   3.107   1.777
 3684W        W 7884   4.305   9.246  10.952
 3685W        W 7885   6.021   5.312  10.870
 3686W        W 7886   5.702   1.384   3.525
 3687W        W 7887   3.294   8.666  10.837
 3688W        W 7888   8.725   5.147   1.947
 3689W        W 7889   6.284   3.989  10.612
 3690W        W 7890   2.280  10.322   1.294
 3691W        W 7891   4.890   4.081   3.156
 3692W        W 7892   8.151  10.746   0.066
 3693W        W 7893   7.293   2.128  10.904
 3694W        W 7894   2.838  11.033   9.942
 3695W        W 7895   6.511   5.679   1.993
 3696W        W 7896   7.080   7.554  11.330
 3697W        W 7897   4.352   6.007   1.529
 3698W        W 7898   9.712   0.103   3.381
 3699W        W 7899   4.194   9.044   1.710
 3700W        W 7900   9.502   4.520   2.795
 3701W        W 7901   3.388   2.266  11.009
 3702W        W 7902   6.131   5.628   9.882
 3703W        W 7903   2.373   7.967  11.517
 3704W        W 7904   2.268   5.673  11.968
 3705W        W 7905   0.357   6.587   9.181
 3706W        W 7906   9.983   1.030  11.019
 3707W        W 7907   0.426  11.310   1.766
 3708W        W 7908  11.379   2.676  10.351
 3709W        W 7909   7.956   6.653   3.722
 3710W        W 7910   2.672   6.656  10.818
 3711W        W 7911   3.151   5.938   2.001
 3712W        W 7912   5.746   6.679   1.633
 3713W        W 7913  11.402   9.079   2.910
 3714W        W 7914   1.116   2.960  11.770
 3715W        W 7915  11.041   7.976   9.342
 3716W        W 7916   5.694   9.418   1.722
 3717W        W 7917   3.836   2.458  11.233
 3718W        W 7918   9.576   5.215   0.733
 3719W        W 7919   8.523   7.431   1.383
 3720W        W 7920   9.521   3.273  11.562
 3721W        W 7921   2.301   3.584  10.520
 3722W        W 7922   9.712   9.595   3.424
 3723W        W 7923   8.587  11.303  10.918
 3724W        W 7924   7.108   2.655  10.319
 3725W        W 7925   3.133   6.223   2.887
 3726W        W 7926   1.131   0.893   0.424
 3727W        W 7927   8.542   5.659   1.845
 3728W        W 7928  10.069   6.139   2.604
 3729W        W 7929   4.163   7.739  10.985
 3730W        W 7930  10.440  11.493   0.930
 3731W        W 7931   0.126   2.633   8.514
 3732W        W 7932   6.125   2.782  11.307
 3733W        W 7933   4.251   0.051   0.443
 3734W        W 7934   6.337   6.945   1.317
 3735W        W 7935   6.073   4.809   1.775
 3736W        W 7936   7.769   5.578   1.119
 3737W        W 7937   7.297   9.387   0.989
 3738W        W 7938   5.174   9.198   0.734
 3739W        W 7939   1.876  10.013   1.862
 3740W        W 7940   5.288   4.639  10.278
 3741W        W 7941   4.301   3.802   0.229
 3742W        W 7942   3.093   2.572   9.457
 3743W        W 7943   6.905   4.708   9.859
 3744W        W 7944   5.038   9.679   0.716
 3745W        W 7945   5.245   0.889   2.995
 3746W        W 7946   9.387   3.561   2.917
 3747W        W 7947   0.283   6.332  10.667
 3748W        W 7948   0.802  11.277   1.434
 3749W        W 7949   3.260   4.238  11.054
 3750W        W 7950   4.051   0.304  10.169
 3751W        W 7951   0.463   5.767   1.554
 3752W        W 7952  10.834   3.226   0.019
 3753W        W 7953   8.147   8.181   2.760
 3754W        W 7954   6.224   8.305  11.831
 3755W        W 7955   9.091   6.497   9.379
 3756W        W 7956   2.180   3.894   2.689
 3757W        W 7957   3.545  10.833   1.194
 3758W        W 7958   9.630   1.901   9.818
 3759W        W 7959   8.298   4.318   2.438
 3760W        W 7960   9.486  10.776   1.853
 3761W        W 7961   9.536   8.541  11.787
 3762W        W 7962   3.306   1.942   0.293
 3763W        W 7963   3.918   9.119   2.477
 3764W        W 7964   9.263   1.402   3.069
 3765W        W 7965   6.116   0.315  10.248
 3766W        W 7966   7.621   4.611  10.963
 3767W        W 7967  10.845  11.059   0.823
 3768W        W 7968   6.061   8.116   0.722
 3769W        W 7969   6.675   4.662  11.219
 3770W        W 7970   2.211   4.254  10.095
 3771W        W 7971   8.515   3.625   9.973
 3772W        W 7972   0.728   9.761   1.174
 3773W        W 7973   3.022   0.418   2.395
 3774W        W 7974   8.431   3.613  10.542
 3775W        W 7975   2.900   5.124   2.121
 3776W        W 7976   6.087   4.112   9.128
 3777W        W 7977   9.261   5.384   3.416
 3778W        W 7978   2.572   5.638   3.086
 3779W        W 7979   6.955  10.710   8.594
 3780W        W 7980   4.181   5.645  10.254
 3781W        W 7981   6.673   3.128   2.331
 3782W        W 7982   0.805  11.241   9.495
 3783W        W 7983   0.334   7.613   8.806
 3784W        W 7984   7.997   1.883   2.443
 3785W        W 7985   9.786   7.893   0.474
 3786W        W 7986   9.835   6.016   9.375
 3787W        W 7987   3.352   3.322  11.564
 3788W        W 7988   5.689   0.901   2.713
 3789W        W 7989  10.963   9.970   3.131
 3790W        W 7990   2.150   8.253   8.709
 3791W        W 7991   8.589  10.087   9.369
 3792W        W 7992   1.823   5.970   9.099
 3793W        W 7993  11.268   7.484   2.121
 3794W        W 7994  10.070   5.346   1.502
 3795W        W 7995   7.945   8.179   9.704
 3796W        W 7996   8.010   1.928   8.925
 3797W        W 7997   9.821   0.914   2.542
 3798W        W 7998   5.698   9.900   0.432
 3799W        W 7999  10.792   2.730  11.283
 3800W        W 8000   9.784   1.533  11.796
 3801W        W 8001   8.995   2.978  11.095
 3802W        W 8002   3.417   5.673   0.571
 3803W        W 8003   0.692   1.195   9.069
 3804W        W 8004   2.559   2.232  10.439
 3805W        W 8005   1.843   3.596   1.306
 3806W        W 8006   3.635   7.861   9.566
 3807W        W 8007   7.894   7.399  10.826
 3808W        W 8008   5.224   3.495  10.528
 3809W        W 8009   4.716  10.037  10.533
 3810W        W 8010   7.961   3.810   9.072
 3811W        W 8011   3.634   8.578   1.203
 3812W        W 8012   6.657   7.377   2.345
 3813W        W 8013   7.589   7.550  11.224
 3814W        W 8014   3.140  10.459  10.351
 3815W        W 8015   0.631   2.786   1.238
 3816W        W 8016   9.799   2.367  10.391
 3817W        W 8017   8.485   9.375  11.138
 3818W        W 8018   8.502  10.566   9.508
 3819W        W 8019   4.464  11.328  10.111
 3820W        W 8020  11.209   9.150  11.534
 3821W        W 8021   1.605   9.358   3.533
 3822W        W 8022   8.104   5.451   8.220
 3823W        W 8023   2.018   8.881   9.544
 3824W        W 8024   8.752   5.318   3.364
 3825W        W 8025   8.432   8.195   1.784
 3826W        W 8026  10.949   1.235   9.661
 3827W        W 8027   9.100   8.105   2.441
 3828W        W 8028   3.931   9.980   1.778
 3829W        W 8029   8.188   5.497   9.477
 3830W        W 8030  10.691   2.299   1.890
 3831W        W 8031   7.385   4.468   1.227
 3832W        W 8032   9.463   6.968  10.828
 3833W        W 8033   0.470   6.859   2.558
 3834W        W 8034  10.374   6.553   0.478
 3835W        W 8035   1.779   4.107  11.833
 3836W        W 8036   4.664   4.097  10.896
 3837W        W 8037   0.524   4.961   3.667
 3838W        W 8038   1.776  10.231   1.418
 3839W        W 8039   7.222  11.426   0.339
 3840W        W 8040   6.296   6.994  10.063
 3841W        W 8041   9.983   9.765   8.774
 3842W        W 8042   2.467  10.541   1.720
 3843W        W 8043   8.919   2.969   0.177
 3844W        W 8044   9.422   0.400   9.341
 3845W        W 8045  10.281   1.292   1.993
 3846W        W 8046   0.799   3.484  10.833
 3847W        W 8047   6.949   1.508   2.593
 3848W        W 8048   8.431  10.515  11.568
 3849W        W 8049  11.000  10.329  10.864
 3850W        W 8050   9.497   1.922  11.950
 3851W        W 8051   3.533   3.323   2.351
 3852W        W 8052  10.018   0.369   0.369
 3853W        W 8053   3.807   8.988  11.971
 3854W        W 8054   8.982  10.365   1.351
 3855W        W 8055   3.764   0.236   0.285
 3856W        W 8056   2.307   1.414  10.034
 3857W        W 8057   9.420   3.628  10.324
 3858W        W 8058   6.974   9.497   9.556
 3859W        W 8059   8.599   5.111   4.120
 3860W        W 8060  10.131   0.806   1.477
 3861W        W 8061   1.427   1.441   2.723
 3862W        W 8062   0.792   9.365   1.509
 3863W        W 8063   7.290  10.939   0.694
 3864W        W 8064   6.449   2.278   2.743
 3865W        W 8065   9.586   1.823   3.020
 3866W        W 8066   4.975   3.380   1.933
 3867W        W 8067   2.466   1.367  11.646
 3868W        W 8068   7.189   3.475   2.208
 3869W        W 8069   8.497  10.952   9.167
 3870W        W 8070  10.418  10.954  10.593
 3871W        W 8071   9.816   3.571   1.826
 3872W        W 8072  11.409   6.687   8.919
 3873W        W 8073   0.186   9.528   3.677
 3874W        W 8074   3.564   5.410   1.357
 3875W        W 8075   6.012   1.865   9.341
 3876W        W 8076   4.703   4.312   0.925
 3877W        W 8077   6.044   1.746   0.514
 3878W        W 8078   3.131   3.459   9.151
 3879W        W 8079   6.096   7.463  10.777
 3880W        W 8080   4.488   8.895  10.575
 3881W        W 8081  10.961   9.392   0.507
 3882W        W 8082   5.120   4.679   0.699
 3883W        W 8083   4.466   8.717   9.008
 3884W        W 8084   5.773   1.838   3.162
 3885W        W 8085  10.328  10.140  11.446
 3886W        W 8086   5.741   4.376   9.418
 3887W        W 8087   9.508   7.381   9.006
 3888W        W 8088   4.768   0.694  10.772
 3889W        W 8089   4.299   4.249   9.574
 3890W        W 8090   7.235   1.824   2.951
 3891W        W 8091   1.329  10.445  11.510
 3892W        W 8092   4.460   1.255   1.292
 3893W        W 8093   4.794   3.628   9.588
 3894W        W 8094   3.363   7.159   3.267
 3895W        W 8095   9.048  10.736  11.726
 3896W        W 8096  11.250   5.788  11.344
 3897W        W 8097   4.794  10.643   0.857
 3898W        W 8098  11.317   0.162   0.196
 3899W        W 8099   4.190   9.884   9.746
 3900W        W 8100   3.573   8.001   2.597
 3901W        W 8101   3.141   9.907  11.992
 3902W        W 8102   2.694   9.077   9.940
 3903W        W 8103   9.444   9.290  10.744
 3904W        W 8104   5.526   4.690   0.174
 3905W        W 8105   8.451   0.499  11.973
 3906W        W 8106  10.873  11.263  11.367
 3907W        W 8107   8.858   5.860  11.458
 3908W        W 8108   9.549   3.626  10.851
 3909W        W 8109   6.315   5.099   2.757
 3910W        W 8110   5.223  10.137   9.442
 3911W        W 8111   0.468   3.307   0.876
 3912W        W 8112  11.411   1.331   3.115
 3913W        W 8113   8.358   1.251  10.551
 3914W        W 8114   4.911  10.856  11.775
 3915W        W 8115   1.762   0.184   9.148
 3916W        W 8116   4.625   8.423  10.728
 3917W        W 8117   5.592  11.271  10.798
 3918W        W 8118   8.541   1.751   2.558
 3919W        W 8119   6.366   7.295   0.950
 3920W        W 8120   0.258   8.979   8.747
 3921W        W 8121  10.511   2.254   2.369
 3922W        W 8122   4.248   9.473   1.980
 3923W        W 8123  10.382   8.517   2.671
 3924W        W 8124  11.322   3.824   9.949
 3925W        W 8125   7.149   0.332  11.586
 3926W        W 8126   2.260   5.753   1.962
 3927W        W 8127   0.460   3.651   1.936
 3928W        W 8128   8.049   2.215   1.253
 3929W        W 8129   7.241   7.828   9.954
 3930W        W 8130   2.731   7.926   2.301
 3931W        W 8131   7.412   5.239   2.248
 3932W        W 8132   8.414   6.425   3.584
 3933W        W 8133   7.644   5.081   2.695
 3934W        W 8134   9.666  10.252   2.046
 3935W        W 8135   6.080   7.786   1.837
 3936W        W 8136  10.454  11.486  10.766
 3937W        W 8137   5.662   1.719  11.192
 3938W        W 8138   7.211   5.196   1.582
 3939W        W 8139   8.570   1.839  11.734
 3940W        W 8140   3.289   2.698   1.818
 3941W        W 8141   0.508   4.337  10.328
 3942W        W 8142   1.232  11.032   1.585
 3943W        W 8143   3.892   4.103   0.353
 3944W        W 8144   9.475   4.790   8.334
 3945W        W 8145   9.036   4.753  11.038
 3946W        W 8146   7.675   1.021   2.491
 3947W        W 8147   4.490  10.835   8.457
 3948W        W 8148   7.193   8.410   0.896
 3949W        W 8149   7.597   8.449   3.228
 3950W        W 8150   5.394   7.768   3.063
 3951W        W 8151   6.282  11.338  11.411
 3952W        W 8152   3.795   2.788   1.658
 3953W        W 8153   7.524   3.104  11.844
 3954W        W 8154   3.258   1.840   1.407
 3955W        W 8155   7.940   3.163   1.640
 3956W        W 8156   1.968   9.456  10.411
 3957W        W 8157   1.021   5.573  10.966
 3958W        W 8158   9.324   2.866   2.080
 3959W        W 8159   2.685   7.603   3.173
 3960W        W 8160   8.455   4.295   0.010
 3961W        W 8161   7.132   7.351   1.621
 3962W        W 8162   7.149   4.558   3.635
 3963W        W 8163   6.661   3.088   1.808
 3964W        W 8164   4.179   3.847   2.868
 3965W        W 8165   4.261   8.848  10.097
 3966W        W 8166   7.871   4.451  11.720
 3967W        W 8167   2.184   7.430  10.863
 3968W        W 8168   9.519   4.609  11.934
 3969W        W 8169   2.091   6.151   2.828
 3970W        W 8170   1.357   8.703  10.605
 3971W        W 8171   8.322   5.082   9.168
 3972W        W 8172   4.814  10.409   1.322
 3973W        W 8173   6.064   3.205   9.877
 3974W        W 8174   9.049   5.587   1.619
 3975W        W 8175   8.462   7.135   1.870
 3976W        W 8176   9.057   4.696   0.347
 3977W        W 8177   5.856   2.644  10.469
 3978W        W 8178   2.076   5.660   2.962
 3979W        W 8179   1.777   8.803  11.800
 3980W        W 8180  11.440   9.021   0.453
 3981W        W 8181   0.727   7.719   2.932
 3982W        W 8182   5.144   9.962   9.927
 3983W        W 8183   8.630   9.298  10.123
 3984W        W 8184   4.787   0.735   9.012
 3985W        W 8185   7.706   2.184   9.250
 3986W        W 8186   4.840   0.815   0.625
 3987W        W 8187   7.647  11.193  11.063
 3988W        W 8188   2.363   3.830   2.199
 3989W        W 8189   8.096   7.204   1.188
 3990W        W 8190   6.739   4.965   0.593
 3991W        W 8191   6.645  10.897   2.739
 3992W        W 8192   1.287   3.755   2.460
 3993W        W 8193   0.723   5.731   0.663
 3994W        W 8194   4.698   1.735   8.933
 3995W        W 8195   8.968   9.546   2.712
 3996W        W 8196   2.031   0.495  10.527
 3997W        W 8197   6.575   1.266   9.087
 3998W        W 8198   6.134   6.939  11.981
 3999W        W 8199   8.921   7.746   0.430
 4000W        W 8200   5.278   8.040   0.043
 4001W        W 8201   2.191   0.887   1.205
 4002W        W 8202   9.484   4.604   3.331
 4003W        W 8203  10.411   0.548   9.716
 4004W        W 8204   7.445   9.240   2.392
 4005W        W 8205  11.270   1.740   1.253
 4006W        W 8206   7.619   8.467  10.993
 4007W        W 8207   1.942  10.791   2.279
 4008W        W 8208   4.358   9.505   3.084
 4009W        W 8209   4.232   2.797   2.820
 4010W        W 8210   9.624   5.992   2.353
 4011W        W 8211   7.972   3.750   9.934
 4012W        W 8212   3.293   5.446   1.973
 4013W        W 8213   4.650   4.335   2.139
 4014W        W 8214   5.908   4.041   3.062
 4015W        W 8215   7.182  10.940   2.771
 4016W        W 8216   9.312   4.617   1.354
 4017W        W 8217   2.647   7.607  10.711
 4018W        W 8218  10.724   2.199  10.634
 4019W        W 8219   1.320   2.275   0.439
 4020W        W 8220   6.089   6.410   0.917
 4021W        W 8221   3.368   1.397   3.314
 4022W        W 8222   6.618   7.031   4.000
 4023W        W 8223   5.696   8.208  10.346
 4024W        W 8224   1.290   5.173   3.332
 4025W        W 8225   2.888   9.277   8.763
 4026W        W 8226   8.242   5.645   3.324
 4027W        W 8227   0.351   2.860   3.373
 4028W        W 8228   2.940   0.730   1.700
 4029W        W 8229   5.710  10.911   8.564
 4030W        W 8230   5.933   1.294  11.300
 4031W        W 8231   6.444   6.153   1.727
 4032W        W 8232   1.268   0.803   8.851
 4033W        W 8233   9.525   4.148   0.854
 4034W        W 8234   3.870   6.884   2.423
 4035W        W 8235   4.311   8.516   9.468
 4036W        W 8236   4.607   8.042   0.499
 4037W        W 8237   3.005   5.108   0.047
 4038W        W 8238   9.378   1.374   9.083
 4039W        W 8239   6.891  10.592   0.510
 4040W        W 8240   5.684   1.157   1.702
 4041W        W 8241  11.322   6.635   1.791
 4042W        W 8242   3.981  10.473   3.452
 4043W        W 8243   3.726   0.264  11.783
 4044W        W 8244   4.037   8.504   0.006
 4045W        W 8245   2.487   0.565   9.649
 4046W        W 8246   2.753  11.385   9.032
 4047W        W 8247   1.787   3.616  11.205
 4048W        W 8248   3.659   6.378   8.606
 4049W        W 8249   1.192   1.874   1.532
 4050W        W 8250  11.306   7.494  10.055
 4051W        W 8251   6.743   7.842   8.295
 4052W        W 8252   0.419  11.253  10.724
 4053W        W 8253   8.768   7.588  11.960
 4054W        W 8254   5.521   3.033  10.683
 4055W        W 8255   6.649   1.874  10.868
 4056W        W 8256  11.275   5.140   9.249
 4057W        W 8257   8.096   9.320  11.953
 4058W        W 8258   7.442   0.532   9.493
 4059W        W 8259   3.246   4.633   0.930
 4060W        W 8260   7.676   9.982   9.521
 4061W        W 8261   4.014   8.464   9.057
 4062W        W 8262   1.768  11.172   0.498
 4063W        W 8263   9.446  11.067   8.719
 4064W        W 8264   0.547   6.202   1.872
 4065W        W 8265   5.013   3.825   1.696
 4066W        W 8266   5.531   5.201  11.858
 4067W        W 8267   2.134   8.404  11.749
 4068W        W 8268   2.364   3.407   8.639
 4069W        W 8269  10.782   5.523  10.467
 4070W        W 8270   3.992   0.937   9.517
 4071W        W 8271   7.614   3.757   1.659
 4072W        W 8272   4.730   9.119  10.183
 4073W        W 8273  10.807   3.900   0.066
 4074W        W 8274   7.946  11.184  11.878
 4075W        W 8275   5.631   0.226  10.496
 4076W        W 8276   3.074   5.122   9.177
 4077W        W 8277   6.767  10.629   0.015
 4078W        W 8278   2.217   9.767  11.793
 4079W        W 8279   4.029   3.152   2.378
 4080W        W 8280   3.229   6.335   3.987
 4081W        W 8281   7.569   0.082   2.661
 4082W        W 8282   3.096  10.007  10.554
 4083W        W 8283   2.928  10.638   1.915
 4084W        W 8284   6.863   1.989   8.436
 4085W        W 8285   8.464   7.495  11.507
 4086W        W 8286   9.543   4.586   8.798
 4087W        W 8287   6.311   8.052  11.382
 4088W        W 8288   1.035   6.277   1.921
 4089W        W 8289  11.009   1.819  11.420
 4090W        W 8290   2.652   7.487   9.388
 4091W        W 8291   8.311   7.765  11.968
 4092W        W 8292   9.532   4.900   0.339
 4093W        W 8293   0.045   2.883  10.799
 4094W        W 8294   6.734  10.286  10.581
 4095W        W 8295   3.768   3.878   8.576
 4096W        W 8296   5.760   8.850   9.461
 4097W        W 8297   3.530   5.363   3.299
 4098W        W 8298   6.634   6.810  11.202
 4099W        W 8299   0.557   9.485   0.765
 4100W        W 8300   3.733   1.684   3.075
 4101W        W 8301   0.554   3.832  11.999
 4102W        W 8302   9.766   1.936  10.860
 4103W        W 8303   5.681   2.169   0.082
 4104W        W 8304   6.405   6.562   2.839
 4105W        W 8305   2.319   4.811  11.869
 4106W        W 8306   0.783   8.480   1.752
 4107W        W 8307  11.081  10.575  11.807
 4108W        W 8308   5.008   4.727   9.846
 4109W        W 8309   2.983   0.776   8.557
 4110W        W 8310   4.484   4.840   9.820
 4111W        W 8311   0.547   7.432   3.734
 4112W        W 8312  10.876   9.529   0.977
 4113W        W 8313   9.824   9.500  11.008
 4114W        W 8314   4.001   0.037   3.261
 4115W        W 8315   9.620   5.950  10.474
 4116W        W 8316   1.954   0.801   1.689
 4117W        W 8317  11.233   2.761   2.425
 4118W        W 8318   3.172   6.695   3.119
 4119W        W 8319   9.940   7.668  10.117
 4120W        W 8320   6.988  11.228   8.695
 4121W        W 8321   2.189   1.368   0.997
 4122W        W 8322   5.279   0.970   1.383
 4123W        W 8323   0.397  10.569   1.383
 4124W        W 8324   8.458   6.177   8.664
 4125W        W 8325  10.830  10.295   9.039
 4126W        W 8326   1.724   8.518   9.308
 4127W        W 8327  10.844   7.881   0.462
 4128W        W 8328   0.058   6.209   1.965
 4129W        W 8329  11.432   7.630   9.580
 4130W        W 8330  10.007   8.491  11.228
 4131W        W 8331  11.351   4.105  11.242
 4132W        W 8332  11.455  10.081   2.913
 4133W        W 8333   6.037   3.761  10.981
 4134W        W 8334   9.813   4.102  10.905
 4135W        W 8335  10.979   6.826  10.618
 4136W        W 8336   2.438  10.507   9.157
 4137W        W 8337   4.333   4.312   0.144
 4138W        W 8338   2.778   0.746  10.993
 4139W        W 8339   6.564   1.266   2.860
 4140W        W 8340   9.420   4.061   8.553
 4141W        W 8341   6.746   2.737   3.168
 4142W        W 8342   6.576  11.051   9.830
 4143W        W 8343   8.806  11.024   0.823
 4144W        W 8344   0.162   2.656  11.522
 4145W        W 8345   6.809   0.832   0.257
 4146W        W 8346   0.322   4.366  11.274
 4147W        W 8347   1.073   4.943   1.810
 4148W        W 8348   6.711  10.344  11.598
 4149W        W 8349   4.024   4.608   0.397
 4150W        W 8350   0.962   3.345   8.874
 4151W        W 8351   0.865  10.829   0.676
 4152W        W 8352   8.197   6.652   1.853
 4153W        W 8353   1.745   9.878   1.047
 4154W        W 8354   7.728   9.599   0.791
 4155W        W 8355  10.096   1.760   0.629
 4156W        W 8356   7.590   4.000   1.162
 4157W        W 8357   9.521   6.214   0.034
 4158W        W 8358   2.828  10.838   9.113
 4159W        W 8359   1.653   4.321  11.308
 4160W        W 8360   7.030   3.230   3.294
 4161W        W 8361   3.644   6.092   2.857
 4162W        W 8362   9.436  11.196   3.244
 4163W        W 8363  10.693   7.128   9.494
 4164W        W 8364   8.149  10.979  10.917
 4165W        W 8365   5.669   7.716   3.520
 4166W        W 8366   2.903   6.455   3.602
 4167W        W 8367  10.514   6.151   0.171
 4168W        W 8368   2.664   3.442   2.029
 4169W        W 8369   6.578   1.860  11.397
 4170W        W 8370  11.280   8.933  10.604
 4171W        W 8371   8.771   6.975   9.043
 4172W        W 8372  10.699  10.352   2.179
 4173W        W 8373  10.010   8.991   3.236
 4174W        W 8374   2.787   6.130  10.845
 4175W        W 8375   9.842   1.082  11.588
 4176W        W 8376   9.622  10.594   8.527
 4177W        W 8377   9.150  10.369   0.874
 4178W        W 8378  10.422   2.164   1.450
 4179W        W 8379   3.508   1.506  11.227
 4180W        W 8380   5.621   1.361   2.492
 4181W        W 8381   4.024   0.676   2.464
 4182W        W 8382  10.814   4.205   8.595
 4183W        W 8383   7.646  10.705  11.907
 4184W        W 8384   7.720   9.026   0.106
 4185W        W 8385  10.760  10.116   8.563
 4186W        W 8386   6.056   4.290  10.965
 4187W        W 8387   8.981   2.780   3.339
 4188W        W 8388   9.895   8.557   2.449
 4189W        W 8389   3.137   3.725  10.868
 4190W        W 8390   2.387   4.646   8.306
 4191W        W 8391   1.909   7.056  11.139
 4192W        W 8392   2.057   1.279   2.324
 4193W        W 8393   2.767   0.469  11.407
 4194W        W 8394   9.943  11.074   1.833
 4195W        W 8395   1.804  10.256  10.215
 4196W        W 8396   9.617   8.577   1.451
 4197W        W 8397  10.734  10.293   9.991
 4198W        W 8398   9.501   6.981   3.271
 4199W        W 8399   5.554   5.268  10.458
 4200W        W 8400   5.711   7.696   8.390
 4201W        W 8401  11.409   6.758  11.413
 4202W        W 8402   9.731   8.297   0.186
 4203W        W 8403   3.771  11.487  11.349
 4204W        W 8404  10.306   8.164  10.573
 4205W        W 8405  10.804   0.944   0.773
 4206W        W 8406   0.807   7.432  10.458
 4207W        W 8407   8.159   6.550   8.440
 4208W        W 8408  10.869   5.180   0.848
 4209W        W 8409   7.599   2.577  10.972
 4210W        W 8410   4.651   7.506  10.821
 4211W        W 8411  10.360   6.435  10.498
 4212W        W 8412   6.065   0.371  10.762
 4213W        W 8413   3.971  11.273   2.681
 4214W        W 8414   2.841   4.579   2.485
 4215W        W 8415   5.016  11.194   8.814
 4216W        W 8416   1.703  11.247   1.440
 4217W        W 8417   2.900   6.081   2.432
 4218W        W 8418   9.885   1.652   2.032
 4219W        W 8419   4.711   1.248   9.121
 4220W        W 8420   4.229   2.762   0.959
 4221W        W 8421   6.612   0.290   2.475
 4222W        W 8422   7.460   0.731   8.694
 4223W        W 8423   7.923   8.200   3.590
 4224W        W 8424   9.456   0.047   2.411
 4225W        W 8425   6.750   5.671   1.009
 4226W        W 8426   9.627   3.423   0.390
 4227W        W 8427  10.854   2.638   2.774
 4228W        W 8428   2.696   9.783   2.139
 4229W        W 8429   8.018   9.396  11.410
 4230W        W 8430   8.345   9.887   3.248
 4231W        W 8431  10.008   3.085   9.263
 4232W        W 8432   4.901   0.017   2.074
 4233W        W 8433   0.012   8.072   0.861
 4234W        W 8434   8.831   6.909   0.967
 4235W        W 8435   3.699   4.479   3.565
 4236W        W 8436  10.311   2.223   9.012
 4237W        W 8437   2.854   7.784  11.183
 4238W        W 8438   3.690   8.438  10.281
 4239W        W 8439   9.118   4.164   1.213
 4240W        W 8440   1.723   5.716   1.648
 4241W        W 8441   8.261   8.397   9.341
 4242W        W 8442  10.898   1.840   0.295
 4243W        W 8443   9.519   7.889   9.891
 4244W        W 8444   7.799   6.105   1.523
 4245W        W 8445   9.712   7.198   1.445
 4246W        W 8446   1.218   4.945   0.952
 4247W        W 8447  10.818   4.979   9.053
 4248W        W 8448   5.052   7.030   2.034
 4249W        W 8449   4.048  10.918   1.316
 4250W        W 8450   4.331   9.624  10.580
 4251W        W 8451  11.146   4.232  10.802
 4252W        W 8452   9.140   0.813   0.313
 4253W        W 8453   0.959   3.123  10.465
 4254W        W 8454   6.836   6.210  11.372
 4255W        W 8455   4.287   1.111   2.564
 4256W        W 8456   8.079   1.167  11.643
 4257W        W 8457   8.365   6.097  11.463
 4258W        W 8458   0.948  10.431   0.370
 4259W        W 8459   0.363   4.675   8.484
 4260W        W 8460   3.897   8.857   8.731
 4261W        W 8461   5.375   9.835   1.685
 4262W        W 8462   0.825   8.164   0.961
 4263W        W 8463   3.463   1.301   2.014
 4264W        W 8464   9.119   1.358   0.465
 4265W        W 8465   8.438   4.307   1.956
 4266W        W 8466  10.262   9.538   9.208
 4267W        W 8467   0.989   8.491   9.799
 4268W        W 8468   7.255   2.324   2.889
 4269W        W 8469   9.465   4.405   0.419
 4270W        W 8470  10.416   6.671  11.478
 4271W        W 8471   2.924   9.022   3.281
 4272W        W 8472   5.956   4.759   2.629
 4273W        W 8473   5.341   3.117   9.356
 4274W        W 8474   0.788   0.141   9.133
 4275W        W 8475   7.232   1.929  10.398
 4276W        W 8476   1.438   7.157   9.052
 4277W        W 8477   4.207   7.431  11.411
 4278W        W 8478  10.971   5.710   2.288
 4279W        W 8479   9.173   9.793   0.088
 4280W        W 8480   7.998   4.068   0.070
 4281W        W 8481  11.050   8.048   1.660
 4282W        W 8482  10.990   5.223   2.993
 4283W        W 8483   1.354   6.602  11.866
 4284W        W 8484   7.945   4.328   9.065
 4285W        W 8485   0.252   8.514   2.440
 4286W        W 8486   0.310   1.833  11.101
 4287W        W 8487   8.882   0.950   0.749
 4288W        W 8488   6.286   2.141   2.254
 4289W        W 8489  10.184   1.028   2.881
 4290W        W 8490   0.033   3.813   9.497
 4291W        W 8491   7.966   7.799   3.911
 4292W        W 8492   9.534   9.108   2.224
 4293W        W 8493  11.251   6.987   2.191
 4294W        W 8494   7.117  10.358   1.947
 4295W        W 8495   7.108  10.133   0.550
 4296W        W 8496   0.934   7.984   1.986
 4297W        W 8497   4.247   8.465   8.603
 4298W        W 8498  10.066   8.999   2.696
 4299W        W 8499   2.423   9.117   3.257
 4300W        W 8500   0.556   0.460   3.465
 4301W        W 8501   8.255   3.225   3.558
 4302W        W 8502   4.071   7.159   1.023
 4303W        W 8503   4.723   6.050   3.534
 4304W        W 8504  10.818   8.509   2.956
 4305W        W 8505   8.174   9.519  10.006
 4306W        W 8506   3.136   6.508   2.162
 4307W        W 8507   0.283   6.507   0.020
 4308W        W 8508   1.679   1.412   0.933
 4309W        W 8509   2.770   8.495   0.998
 4310W        W 8510   7.680   5.135  10.246
 4311W        W 8511   8.143   7.699   2.635
 4312W        W 8512   4.637   0.291  11.486
 4313W        W 8513   6.552   6.223  11.913
 4314W        W 8514   7.054   1.192  10.538
 4315W        W 8515  10.950   1.130   2.707
 4316W        W 8516   0.625   4.669   9.437
 4317W        W 8517   9.486  10.940  11.541
 4318W        W 8518   9.366   9.861   1.854
 4319W        W 8519   9.040   3.631   9.873
 4320W        W 8520   9.970   4.765   2.795
 4321W        W 8521   3.854   5.967   9.513
 4322W        W 8522   8.953   8.993   8.892
 4323W        W 8523   6.801   2.227   3.090
 4324W        W 8524   7.707   6.197   0.470
 4325W        W 8525   4.560   3.438  11.925
 4326W        W 8526   6.472   3.189   3.210
 4327W        W 8527   4.493   2.065   3.563
 4328W        W 8528   7.544   1.901   1.400
 4329W        W 8529   9.836   3.580   2.654
 4330W        W 8530  11.141   9.456   1.931
 4331W        W 8531   9.139   8.564   9.875
 4332W        W 8532   4.489  10.276   0.186
 4333W        W 8533   2.778   4.240   7.750
 4334W        W 8534   2.713  10.622  11.664
 4335W        W 8535  10.463   5.943  10.720
 4336W        W 8536   6.042   3.707   3.606
 4337W        W 8537   6.225   3.662   9.405
 4338W        W 8538   1.185   7.041  10.508
 4339W        W 8539   6.165   0.914  11.561
 4340W        W 8540   7.192  10.515  11.731
 4341W        W 8541   4.703   2.482   1.098
 4342W        W 8542   3.162  11.286  11.108
 4343W        W 8543  10.205   4.199   8.534
 4344W        W 8544   8.421  10.023  11.799
 4345W        W 8545   9.168   3.139  10.233
 4346W        W 8546   6.524   9.843   3.444
 4347W        W 8547   6.284  10.302   3.417
 4348W        W 8548   1.274   5.325   2.844
 4349W        W 8549   9.354   4.740  11.467
 4350W        W 8550   1.752   2.559   0.483
 4351W        W 8551   8.916   4.275  10.883
 4352W        W 8552   2.770   0.305   1.966
 4353W        W 8553   0.660   8.675   2.206
 4354W        W 8554   4.449   0.829   0.286
 4355W        W 8555  10.375   7.924  10.138
 4356W        W 8556   6.975  11.301  10.017
 4357W        W 8557   6.694   0.159  11.470
 4358W        W 8558  10.016   8.388  11.728
 4359W        W 8559   4.062   8.837   0.389
 4360W        W 8560  10.908   6.553   1.185
 4361W        W 8561   8.872   0.522   8.437
 4362W        W 8562   5.037   3.235   9.760
 4363W        W 8563   1.151  10.534   9.113
 4364W        W 8564   3.874  10.350   0.895
 4365W        W 8565   2.986   3.163  11.892
 4366W        W 8566   5.930   6.621   8.950
 4367W        W 8567   8.733   6.849   8.170
 4368W        W 8568   9.839   1.320   9.291
 4369W        W 8569  11.363  10.363   3.349
 4370W        W 8570   2.398   1.998  11.952
 4371W        W 8571   6.124  10.015   9.482
 4372W        W 8572  10.270   2.625   1.284
 4373W        W 8573   5.226   2.583   3.114
 4374W        W 8574   7.592   3.403  11.433
 4375W        W 8575   4.066   7.044  10.419
 4376W        W 8576   4.527   6.646  11.948
 4377W        W 8577   3.824   2.229   2.376
 4378W        W 8578   3.178   1.023   3.015
 4379W        W 8579   6.161   9.035  11.545
 4380W        W 8580   0.757   0.963   3.208
 4381W        W 8581   8.300   6.049   9.124
 4382W        W 8582   2.802  10.483   2.754
 4383W        W 8583   8.121   3.309   9.124
 4384W        W 8584  11.306   9.583   2.932
 4385W        W 8585  11.360   8.467   1.135
 4386W        W 8586   4.415   0.072   1.929
 4387W        W 8587   8.063   7.411   3.056
 4388W        W 8588  11.443   3.220   2.644
 4389W        W 8589   4.804   2.586  10.969
 4390W        W 8590  10.353   7.640   3.221
 4391W        W 8591   9.412   2.693  10.384
 4392W        W 8592  10.965   7.119   1.779
 4393W        W 8593   9.338   8.816   1.815
 4394W        W 8594   0.891   4.124   3.179
 4395W        W 8595   6.060   2.272  11.139
 4396W        W 8596   7.837  10.820   1.040
 4397W        W 8597   7.211  11.354  11.396
 4398W        W 8598   3.096   4.072  10.111
 4399W        W 8599   7.531   7.085  10.992
 4400W        W 8600   9.863   0.029   1.634
 4401W        W 8601  11.416   5.034  11.601
 4402W        W 8602   9.559   6.172   3.872
 4403W        W 8603   3.701   6.779  11.918
 4404W        W 8604  10.928  10.815   2.182
 4405W        W 8605   9.950   6.697   9.831
 4406W        W 8606   4.718   9.468   1.717
 4407W        W 8607   0.574   6.027  10.326
 4408W        W 8608   4.581   2.527   0.262
 4409W        W 8609   4.911   0.301   3.499
 4410W        W 8610   7.740   4.549   9.503
 4411W        W 8611   3.131   1.293   1.037
 4412W        W 8612   8.449   2.226   8.951
 4413W        W 8613   0.806   2.848   0.158
 4414W        W 8614   4.337   9.069   2.792
 4415W        W 8615   7.992   2.848   3.312
 4416W        W 8616   0.345   3.125   1.929
 4417W        W 8617   3.465   6.741   3.558
 4418W        W 8618   0.134   2.568   9.520
 4419W        W 8619   8.889   2.501   8.913
 4420W        W 8620   9.220   8.336   1.836
 4421W        W 8621   9.838   9.941  10.714
 4422W        W 8622  10.341   9.003  10.439
 4423W        W 8623   6.412   7.969   3.687
 4424W        W 8624   5.599   3.347   0.616
 4425W        W 8625   9.956   4.411   3.169
 4426W        W 8626  11.021   3.599   2.243
 4427W        W 8627  10.882   1.997   9.678
 4428W        W 8628   3.469   7.684   1.284
 4429W        W 8629   3.253   1.965  11.744
 4430W        W 8630   8.998   6.120  11.879
 4431W        W 8631   0.687   1.207   2.008
 4432W        W 8632   3.821   9.494   1.693
 4433W        W 8633   5.698   1.337   2.996
 4434W        W 8634  10.727   2.722   2.250
 4435W        W 8635   8.721   9.118   2.895
 4436W        W 8636   1.174   1.557   8.470
 4437W        W 8637  10.292  10.965   9.079
 4438W        W 8638   6.566  11.488   3.385
 4439W        W 8639   1.439   4.838   9.170
 4440W        W 8640   4.576  11.369   8.558
 4441W        W 8641   9.800   3.614   0.850
 4442W        W 8642   2.780   2.464   1.866
 4443W        W 8643   6.824   6.270   9.249
 4444W        W 8644   2.346   8.416  11.257
 4445W        W 8645   3.191   0.059   0.905
 4446W        W 8646   3.061   3.739  11.734
 4447W        W 8647   7.592   0.296   2.204
 4448W        W 8648   0.229   2.839   2.436
 4449W        W 8649   5.136   8.188   2.446
 4450W        W 8650  11.328   0.503   9.066
 4451W        W 8651   1.317   1.811   2.194
 4452W        W 8652   1.207   3.209   9.311
 4453W        W 8653   9.984   4.337   0.405
 4454W        W 8654   9.448   1.574   1.775
 4455W        W 8655   2.625   8.338   0.515
 4456W        W 8656   9.803  10.570   9.932
 4457W        W 8657   1.296   3.306   0.713
 4458W        W 8658   1.638   1.425   3.480
 4459W        W 8659   1.962   9.866   9.318
 4460W        W 8660   2.359   5.830  10.899
 4461W        W 8661   1.070   5.013   9.561
 4462W        W 8662   7.567   3.157   9.178
 4463W        W 8663   0.072   5.949  10.372
 4464W        W 8664   9.243   4.583  10.590
 4465W        W 8665   3.099   0.613   3.281
 4466W        W 8666   9.255   1.189  10.989
 4467W        W 8667  10.406   6.769   2.392
 4468W        W 8668   9.009   1.195   1.291
 4469W        W 8669   4.754   1.714  11.192
 4470W        W 8670   9.404   6.357  10.103
 4471W        W 8671   1.765   3.676   3.272
 4472W        W 8672   9.497   4.994   9.549
 4473W        W 8673  10.911   4.388  11.310
 4474W        W 8674   6.131   9.214   1.502
 4475W        W 8675   4.442   7.805   9.339
 4476W        W 8676   7.008   8.878   9.038
 4477W        W 8677   8.207   0.850  10.266
 4478W        W 8678   8.630   6.657   8.647
 4479W        W 8679   2.941   9.344   2.172
 4480W        W 8680   6.042   6.829   2.606
 4481W        W 8681   3.419   6.217   9.701
 4482W        W 8682   6.758   9.351   0.108
 4483W        W 8683   7.058   3.233  11.609
 4484W        W 8684   1.514   6.095  11.735
 4485W        W 8685   1.232   8.294   3.271
 4486W        W 8686   8.915   6.613   0.017
 4487W        W 8687   3.180   6.098   8.800
 4488W        W 8688   8.040   2.825  10.806
 4489W        W 8689  11.370  10.836   9.175
 4490W        W 8690   1.300   2.241   9.533
 4491W        W 8691   2.580   6.842   3.607
 4492W        W 8692   2.276   3.353   9.138
 4493W        W 8693   0.939   1.640   1.898
 4494W        W 8694   4.059   5.089  11.534
 4495W        W 8695   3.764   0.810  10.005
 4496W        W 8696  10.951   3.963   9.637
 4497W        W 8697   5.692   0.146   9.981
 4498W        W 8698   8.640   1.770   9.854
 4499W        W 8699   7.471   1.850   1.926
 4500W        W 8700  10.788   4.310   3.269
 4501W        W 8701   0.958   2.837   8.969
 4502W        W 8702   4.786   8.044   1.492
 4503W        W 8703   9.075   1.227   2.154
 4504W        W 8704   9.958   5.077  10.796
 4505W        W 8705   5.900   4.115   1.326
 4506W        W 8706   2.161   8.460   0.282
 4507W        W 8707   8.830   3.078   9.805
 4508W        W 8708  10.845   1.851   2.227
 4509W        W 8709   4.278   4.693  10.268
 4510W        W 8710   5.532   5.465  10.939
 4511W        W 8711   1.762   4.219   3.254
 4512W        W 8712   0.454   2.667  11.036
 4513W        W 8713   4.357   0.878   0.845
 4514W        W 8714   4.502  10.565  11.795
 4515W        W 8715  10.471   0.041  11.273
 4516W        W 8716   4.861   6.170   1.512
 4517W        W 8717   8.900   0.683   1.202
 4518W        W 8718  10.804   0.801  11.361
 4519W        W 8719   8.104   2.457   2.369
 4520W        W 8720   7.662  10.932   3.051
 4521W        W 8721   5.639   7.567  10.952
 4522W        W 8722   8.407   2.824   2.597
 4523W        W 8723   4.331   0.708   2.902
 4524W        W 8724   8.539   9.330   9.635
 4525W        W 8725   3.108   1.919  10.352
 4526W        W 8726   8.870   2.922   9.231
 4527W        W 8727   3.378   6.073   0.274
 4528W        W 8728   1.931   9.347   8.711
 4529W        W 8729   3.562   9.040  11.533
 4530W        W 8730   6.105   4.547   8.373
 4531W        W 8731   9.401   5.753   1.969
 4532W        W 8732   4.731  11.329   0.446
 4533W        W 8733   6.306   1.660  10.535
 4534W        W 8734   3.583   1.031  11.380
 4535W        W 8735   0.001   3.158  11.579
 4536W        W 8736   3.948   4.378   8.608
 4537W        W 8737   6.513   2.350   9.839
 4538W        W 8738   5.227   9.133   2.780
 4539W        W 8739   1.877   0.936  11.170
 4540W        W 8740   3.931   0.540   3.428
 4541W        W 8741   6.978   3.637   9.911
 4542W        W 8742   2.129   2.035   1.923
 4543W        W 8743   3.499   4.558   9.863
 4544W        W 8744   6.526   7.295  11.041
 4545W        W 8745   7.148   6.408   9.632
 4546W        W 8746   2.192   3.309  10.973
 4547W        W 8747   7.246   4.881   8.300
 4548W        W 8748   8.569   4.120  11.258
 4549W        W 8749  10.749   9.527  10.580
 4550W        W 8750   4.136   7.085  11.816
 4551W        W 8751   6.871   2.242  10.583
 4552W        W 8752  10.521   1.767  11.359
 4553W        W 8753   3.909   9.347   0.314
 4554W        W 8754   6.520   7.456  10.042
 4555W        W 8755   7.145   0.339   0.634
 4556W        W 8756   4.579   4.161   9.121
 4557W        W 8757   6.949   3.518   1.745
 4558W        W 8758   9.675   4.005   9.352
 4559W        W 8759   9.056  11.000   3.534
 4560W        W 8760   3.603   3.811   3.024
 4561W        W 8761   7.826   3.535   0.701
 4562W        W 8762   4.188   9.917   2.250
 4563W        W 8763   7.213   0.452  10.570
 4564W        W 8764   9.439   6.848   1.677
 4565W        W 8765   2.897   6.523   9.046
 4566W        W 8766   0.051   0.671   0.637
 4567W        W 8767   2.711  10.281   2.269
 4568W        W 8768   3.163   8.564   3.209
 4569W        W 8769   8.607   8.643   9.046
 4570W        W 8770  11.358   7.526  11.101
 4571W        W 8771   4.187   3.366  10.965
 4572W        W 8772   7.146   2.263   1.350
 4573W        W 8773   5.261   3.133   4.012
 4574W        W 8774   6.614   8.814   3.364
 4575W        W 8775   8.868   1.967   0.767
 4576W        W 8776  10.083   7.942  11.951
 4577W        W 8777  11.316   6.822   3.158
 4578W        W 8778   3.290   9.497   9.347
 4579W        W 8779   0.063   7.002   9.309
 4580W        W 8780   4.647  11.257  11.095
 4581W        W 8781  10.012   9.905   2.194
 4582W        W 8782  10.888   3.122  10.418
 4583W        W 8783  10.309  10.309   2.651
 4584W        W 8784   2.395   9.469   1.196
 4585W        W 8785   2.297   7.302   3.519
 4586W        W 8786  10.804   6.751   3.162
 4587W        W 8787  11.248   7.551   3.404
 4588W        W 8788   6.570   4.249  10.297
 4589W        W 8789   9.534   9.470   1.027
 4590W        W 8790   2.149   7.382   9.478
 4591W        W 8791   8.958   1.680   8.375
 4592W        W 8792   0.340   3.130   0.351
 4593W        W 8793   9.048  10.006   2.522
 4594W        W 8794   0.500   3.492   3.656
 4595W        W 8795   8.864   2.928   8.610
 4596W        W 8796  11.366   7.466  10.568
 4597W        W 8797  10.315   2.860   0.824
 4598W        W 8798   5.050   4.796  11.214
 4599W        W 8799   2.839   5.531   9.706
 4600W        W 8800   1.479   2.751   1.995
 4601W        W 8801   6.410   3.542   1.791
 4602W        W 8802   5.183   1.681   8.761
 4603W        W 8803   3.425   3.822   2.531
 4604W        W 8804   9.631  10.450   0.777
 4605W        W 8805   5.637   6.261  10.701
 4606W        W 8806   8.705   8.466  10.160
 4607W        W 8807   1.758   2.231   9.273
 4608W        W 8808  10.510   3.783   9.817
 4609W        W 8809   3.810   4.705   8.992
 4610W        W 8810   5.381   7.401   9.317
 4611W        W 8811   5.535   2.435   1.942
 4612W        W 8812   5.565   0.713  11.212
 4613W        W 8813   6.691   8.494  11.973
 4614W        W 8814   1.853   6.661   0.840
 4615W        W 8815   2.824   9.285  10.394
 4616W        W 8816  10.456   1.153   0.250
 4617W        W 8817   6.992   7.804   9.463
 4618W        W 8818   1.380  10.374  10.995
 4619W        W 8819   3.458   0.939   2.562
 4620W        W 8820  10.798   5.453   0.282
 4621W        W 8821   8.161   3.153   0.675
 4622W        W 8822   3.124   1.408  11.548
 4623W        W 8823   8.295   3.153   9.934
 4624W        W 8824   1.830  10.562  11.735
 4625W        W 8825  10.855   7.527   0.824
 4626W        W 8826   0.037  10.476  10.859
 4627W        W 8827  11.008   2.244  11.088
 4628W        W 8828  11.158   4.148  11.733
 4629W        W 8829   1.480   2.296  11.379
 4630W        W 8830   8.888   0.183  11.757
 4631W        W 8831  10.803   5.748   1.797
 4632W        W 8832   9.226   0.131  10.384
 4633W        W 8833   5.106   7.703   2.612
 4634W        W 8834   9.029   6.743  10.444
 4635W        W 8835   3.545   9.086   9.621
 4636W        W 8836   4.232   6.150  10.283
 4637W        W 8837   2.319   2.581   2.654
 4638W        W 8838   6.626   9.338   3.340
 4639W        W 8839   6.089   8.828   9.856
 4640W        W 8840   8.191   4.081  11.588
 4641W        W 8841   1.318  10.871   0.986
 4642W        W 8842   3.183   2.950   9.062
 4643W        W 8843   6.984   0.138  10.990
 4644W        W 8844   3.788   1.955   0.130
 4645W        W 8845   5.739   2.635  10.971
 4646W        W 8846   3.603   4.922   8.574
 4647W        W 8847  10.324   3.372   9.534
 4648W        W 8848  10.495   7.388   1.165
 4649W        W 8849   2.693   9.654  11.937
 4650W        W 8850  10.454   3.336  10.027
 4651W        W 8851   9.852   2.581   0.964
 4652W        W 8852   6.456   6.599  10.357
 4653W        W 8853  10.772  10.562  10.426
 4654W        W 8854   3.604  10.126  11.968
 4655W        W 8855   4.758   4.068   0.337
 4656W        W 8856  11.246   7.670   2.589
 4657W        W 8857   7.268   9.624   0.535
 4658W        W 8858  10.717   3.411   3.325
 4659W        W 8859  10.297   9.345  10.826
 4660W        W 8860   1.849   6.053   2.014
 4661W        W 8861   8.982   3.760   1.962
 4662W        W 8862  10.248  10.870   1.451
 4663W        W 8863   0.353   6.375   2.362
 4664W        W 8864   5.208   0.685  11.881
 4665W        W 8865   5.757   5.259   1.771
 4666W        W 8866   3.467   1.197   0.356
 4667W        W 8867   9.535   7.771  10.944
 4668W        W 8868   9.995   6.553   9.337
 4669W        W 8869   9.941   0.627  11.407
 4670W        W 8870   2.243   8.890   0.034
 4671W        W 8871  10.011   5.249   0.993
 4672W        W 8872  10.104   6.102   0.492
 4673W        W 8873   9.513   9.877   8.993
 4674W        W 8874   7.730   0.263   9.829
 4675W        W 8875   7.988   0.836   2.909
 4676W        W 8876   4.334   5.364   2.731
 4677W        W 8877   1.329   4.782  10.580
 4678W        W 8878   2.748   4.294   2.970
 4679W        W 8879   1.125   4.883  10.091
 4680W        W 8880   4.787   1.355   1.970
 4681W        W 8881  11.026   9.060   0.140
 4682W        W 8882   9.699   7.153  11.272
 4683W        W 8883   2.636   6.385   8.630
 4684W        W 8884   6.223   7.712   8.360
 4685W        W 8885  10.483   6.668   9.496
 4686W        W 8886   4.834   8.803  11.844
 4687W        W 8887   5.152   2.672   4.205
 4688W        W 8888   5.658   2.738   9.481
 4689W        W 8889   5.948   9.977   2.719
 4690W        W 8890   9.614   6.911   2.788
 4691W        W 8891   5.024   3.236  11.950
 4692W        W 8892   8.879   0.347  10.762
 4693W        W 8893  11.369   8.375   9.977
 4694W        W 8894   1.028   9.283  10.732
 4695W        W 8895   2.621   7.449   0.192
 4696W        W 8896   4.045   3.310   9.392
 4697W        W 8897   5.630   7.548   8.874
 4698W        W 8898   2.526   3.054  11.571
 4699W        W 8899   6.632  11.108   0.046
 4700W        W 8900   8.134   9.611  10.510
 4701W        W 8901  10.209   7.991   1.673
 4702W        W 8902   0.757   0.963   9.541
 4703W        W 8903   7.615   4.866   0.354
 4704W        W 8904   6.485   1.055  11.935
 4705W        W 8905   4.606   3.062  11.066
 4706W        W 8906  10.518   4.159   9.482
 4707W        W 8907   1.442  10.863  11.251
 4708W        W 8908   5.223   0.941   3.501
 4709W        W 8909   9.103  10.294   0.009
 4710W        W 8910   9.998   3.835   2.238
 4711W        W 8911   0.278   6.636   2.991
 4712W        W 8912   3.530   3.380   9.444
 4713W        W 8913   3.712   3.358   3.262
 4714W        W 8914   8.359   4.612   8.911
 4715W        W 8915   3.754   4.110  11.046
 4716W        W 8916   6.864   3.110   2.831
 4717W        W 8917   1.005   1.623   8.963
 4718W        W 8918   8.461   6.384   2.210
 4719W        W 8919   5.265   4.229   9.514
 4720W        W 8920   3.322  10.105   8.711
 4721W        W 8921   5.669   6.614   0.585
 4722W        W 8922   0.258   8.617   1.916
 4723W        W 8923   8.198   8.389   8.429
 4724W        W 8924   1.420   4.315  10.813
 4725W        W 8925   3.565   1.218   9.781
 4726W        W 8926   5.219   8.957   3.680
 4727W        W 8927  10.892   4.420   1.803
 4728W        W 8928  10.475   5.003   9.884
 4729W        W 8929  11.288   7.756  11.549
 4730W        W 8930   0.801   0.749   2.209
 4731W        W 8931   5.558   4.480  10.699
 4732W        W 8932   8.191  11.483   1.152
 4733W        W 8933  11.265   0.902  10.473
 4734W        W 8934   7.019   1.118  11.048
 4735W        W 8935   0.798   0.183  10.045
 4736W        W 8936   1.960  11.360   3.185
 4737W        W 8937   9.014   1.717   1.283
 4738W        W 8938   4.730   2.343   9.538
 4739W        W 8939   9.868   2.929   3.196
 4740W        W 8940   3.808   3.638   0.199
 4741W        W 8941   7.666   0.273   1.156
 4742W        W 8942   8.210   9.009   9.981
 4743W        W 8943  10.024   9.243   8.648
 4744W        W 8944   7.392  10.865   9.559
 4745W        W 8945  11.458   1.176   2.629
 4746W        W 8946  10.952   5.929   0.300
 4747W        W 8947   5.575   2.171   1.500
 4748W        W 8948   4.602   3.272   3.228
 4749W        W 8949   8.569   5.234   0.949
 4750W        W 8950   8.309   7.058   8.832
 4751W        W 8951   3.295  10.486   0.246
 4752W        W 8952  10.366   6.546   1.483
 4753W        W 8953   7.929   2.939   2.393
 4754W        W 8954   3.176   3.867   8.834
 4755W        W 8955   5.538   5.785  10.468
 4756W        W 8956   3.232   8.099   8.656
 4757W        W 8957   9.020   0.165  11.239
 4758W        W 8958   4.200   6.740   1.272
 4759W        W 8959   0.810   0.042  10.553
 4760W        W 8960  10.819   4.710   2.608
 4761W        W 8961  11.053   6.846   9.257
 4762W        W 8962  11.460   3.973   9.002
 4763W        W 8963  10.901   5.374   1.453
 4764W        W 8964  11.405   6.522   9.452
 4765W        W 8965   9.987   1.364   0.262
 4766W        W 8966   4.120   7.003   9.286
 4767W        W 8967   1.804   3.333   1.744
 4768W        W 8968  10.111  10.551   0.750
 4769W        W 8969   8.372   2.217   9.752
 4770W        W 8970   6.736   4.556   9.408
 4771W        W 8971  10.571   2.779   1.703
 4772W        W 8972   4.969   7.027   3.145
 4773W        W 8973   0.235   2.147   9.780
 4774W        W 8974   7.824   7.979   2.312
 4775W        W 8975   3.958   6.011  11.512
 4776W        W 8976  11.345   4.630   1.863
 4777W        W 8977   4.584   7.560   0.339
 4778W        W 8978   5.495   4.566   2.456
 4779W        W 8979  10.435   7.558   9.384
 4780W        W 8980   7.485   4.327  11.393
 4781W        W 8981   8.311   8.749   2.822
 4782W        W 8982   3.641   3.228   1.866
 4783W        W 8983   2.033   6.998  10.294
 4784W        W 8984  10.283   1.776   1.136
 4785W        W 8985  11.350   8.560   8.593
 4786W        W 8986  10.155   2.185   1.913
 4787W        W 8987   7.118   9.944   2.758
 4788W        W 8988   0.271   6.235  11.166
 4789W        W 8989   1.196   1.007   2.019
 4790W        W 8990  10.467   9.871   2.979
 4791W        W 8991   8.717  11.499  10.438
 4792W        W 8992   9.346   2.200  11.113
 4793W        W 8993   8.527   3.478   1.275
 4794W        W 8994   9.134   5.186  10.824
 4795W        W 8995   4.779   7.918   0.027
 4796W        W 8996  11.449  11.428  10.790
 4797W        W 8997   0.602   9.704   3.426
 4798W        W 8998   0.453   0.002   9.729
 4799W        W 8999   1.944   7.924  11.816
 4800W        W 9000  10.409   8.557   8.930
 4801W        W 9001   3.815   2.871  10.338
 4802W        W 9002   4.881   4.977   1.412
 4803W        W 9003   1.140   2.811   0.588
 4804W        W 9004   7.389   3.782   0.738
 4805W        W 9005   8.532   6.778  10.755
 4806W        W 9006   2.131   4.743   0.352
 4807W        W 9007   4.745   1.598  10.705
 4808W        W 9008   1.539   2.855   0.922
 4809W        W 9009   9.037  10.969   0.342
 4810W        W 9010   0.692   7.110   2.166
 4811W        W 9011   1.245   2.803  11.299
 4812W        W 9012  11.028  10.150   1.805
 4813W        W 9013   4.809   1.250   2.482
 4814W        W 9014   9.597   9.814   2.962
 4815W        W 9015  10.805   4.568   0.664
 4816W        W 9016   5.956   6.098   9.742
 4817W        W 9017   9.952   5.302   0.411
 4818W        W 9018   9.189   4.706   9.182
 4819W        W 9019   9.099   7.659  10.134
 4820W        W 9020   0.243   2.255   1.823
 4821W        W 9021   9.961  11.059  11.337
 4822W        W 9022   9.512  10.118   9.456
 4823W        W 9023   9.429   6.620  11.258
 4824W        W 9024   1.115   9.553   3.463
 4825W        W 9025   9.815   8.610   1.948
 4826W        W 9026   8.050   4.561   0.204
 4827W        W 9027   9.955   1.883   0.162
 4828W        W 9028   6.570   7.507   8.694
 4829W        W 9029   7.125   4.550   8.684
 4830W        W 9030   0.496   7.926   9.615
 4831W        W 9031   3.453   6.044   1.251
 4832W        W 9032   1.587   6.166  10.037
 4833W        W 9033   1.688   0.840   2.123
 4834W        W 9034   6.002   1.332   2.114
 4835W        W 9035   1.104   8.533   2.380
 4836W        W 9036   1.858   4.044  10.899
 4837W        W 9037   6.688   2.388   3.556
 4838W        W 9038   6.531   8.550   1.644
 4839W        W 9039   0.904   3.649   0.804
 4840W        W 9040   6.851  11.195   3.089
 4841W        W 9041   1.183   5.530   9.471
 4842W        W 9042   6.827   1.216   1.974
 4843W        W 9043  10.435   9.972  11.926
 4844W        W 9044   6.699   4.689   0.151
 4845W        W 9045   1.626   7.965   0.881
 4846W        W 9046   0.281   3.497  10.794
 4847W        W 9047  10.027   7.567  11.118
 4848W        W 9048   7.110  10.182  11.324
 4849W        W 9049   7.977   5.228   0.305
 4850W        W 9050   5.609   1.358   8.811
 4851W        W 9051   8.943   6.152   8.829
 4852W        W 9052   2.261   4.179   8.519
 4853W        W 9053   5.134   5.643  11.238
 4854W        W 9054   4.731   8.578  10.248
 4855W        W 9055   7.759   1.819   2.962
 4856W        W 9056   0.174   9.471   9.493
 4857W        W 9057   7.681   1.337  11.395
 4858W        W 9058   6.305   4.016   2.233
 4859W        W 9059   0.613   2.214  10.134
 4860W        W 9060   7.598   6.191  11.953
 4861W        W 9061   0.776   5.223  10.257
 4862W        W 9062   7.989   2.476   8.849
 4863W        W 9063   7.408   4.291   0.753
 4864W        W 9064   8.372   3.280  11.770
 4865W        W 9065   8.572   4.564   9.799
 4866W        W 9066   0.383   0.297  11.514
 4867W        W 9067   3.049   3.507   2.347
 4868W        W 9068   8.996   0.433   0.713
 4869W        W 9069   0.331   8.342  11.423
 4870W        W 9070   3.045   5.534   3.267
 4871W        W 9071   1.993   1.018  11.678
 4872W        W 9072  10.508   8.368  11.007
 4873W        W 9073   5.687  10.071   8.908
 4874W        W 9074   2.591   5.992   9.518
 4875W        W 9075   4.123   0.523   0.536
 4876W        W 9076   4.317   8.121   2.705
 4877W        W 9077   8.747   7.099   3.136
 4878W        W 9078   8.045   1.905  11.020
 4879W        W 9079   3.971   8.676   2.193
 4880W        W 9080   2.693  10.894   3.057
 4881W        W 9081   9.660   4.257   2.253
 4882W        W 9082   5.585   1.820   9.045
 4883W        W 9083   3.767   4.625  11.165
 4884W        W 9084   0.410   5.248  11.564
 4885W        W 9085   5.634   4.802   0.674
 4886W        W 9086   7.907   8.749   9.522
 4887W        W 9087   0.760   3.023   8.520
 4888W        W 9088   2.886   7.056   1.483
 4889W        W 9089   5.774  10.884  10.392
 4890W        W 9090   1.275  11.386   9.317
 4891W        W 9091   2.514   2.487   3.186
 4892W        W 9092   0.586   2.639   9.303
 4893W        W 9093   9.770   9.087   1.750
 4894W        W 9094   1.372   6.045   2.205
 4895W        W 9095   9.355   2.835  11.823
 4896W        W 9096   6.130  11.030   9.592
 4897W        W 9097   1.817   3.589  10.695
 4898W        W 9098   1.724   9.916  10.581
 4899W        W 9099   4.392  10.487  10.067
 4900W        W 9100   7.706   0.852  11.940
 4901W        W 9101   5.115   8.498   1.093
 4902W        W 9102   3.190   2.179   1.780
 4903W        W 9103   0.657   9.150  11.073
 4904W        W 9104   9.509   2.350   9.601
 4905W        W 9105   9.942   2.158   1.263
 4906W        W 9106   9.303  11.408  11.667
 4907W        W 9107   7.919   5.507  10.513
 4908W        W 9108  10.605   3.104   0.465
 4909W        W 9109   5.658   8.480   0.743
 4910W        W 9110   5.118   6.332   2.419
 4911W        W 9111   7.466   1.319   8.769
 4912W        W 9112   6.546   1.155  10.338
 4913W        W 9113   7.589   6.517   1.315
 4914W        W 9114   0.580  10.360   0.934
 4915W        W 9115   3.995   7.608   1.360
 4916W        W 9116   5.779   9.954  10.338
 4917W        W 9117   8.493   2.657  10.526
 4918W        W 9118   9.335   7.944   0.219
 4919W        W 9119   3.065   9.134   1.567
 4920W        W 9120   1.827   4.573   3.643
 4921W        W 9121   1.687   0.176   1.178
 4922W        W 9122   7.485   0.912  10.453
 4923W        W 9123   7.376   7.326  10.135
 4924W        W 9124   1.838   1.193   3.084
 4925W        W 9125   9.493   7.626  11.458
 4926W        W 9126   6.583   3.956   2.686
 4927W        W 9127   1.110   5.149  11.863
 4928W        W 9128  11.467   7.241   8.869
 4929W        W 9129   2.075   5.946   9.579
 4930W        W 9130   9.388   9.781  10.889
 4931W        W 9131   1.774   4.898   1.027
 4932W        W 9132   2.714  11.000   2.567
 4933W        W 9133   0.486   1.760   9.581
 4934W        W 9134  10.369   2.229  11.945
 4935W        W 9135   7.020   9.571  11.243
 4936W        W 9136  11.288   6.708   0.850
 4937W        W 9137   6.949   6.085  10.047
 4938W        W 9138   4.649   4.534   3.129
 4939W        W 9139   3.296   3.199   3.586
 4940W        W 9140   5.138   8.889   9.969
 4941W        W 9141   3.885  10.874  10.723
 4942W        W 9142   4.338   0.946  10.842
 4943W        W 9143   4.731   2.803   0.703
 4944W        W 9144   9.827   7.683   1.891
 4945W        W 9145   2.775  11.464  11.375
 4946W        W 9146   7.226  11.386   1.859
 4947W        W 9147  10.867   2.619  10.287
 4948W        W 9148   9.882   6.378  10.304
 4949W        W 9149   2.740   3.100   2.420
 4950W        W 9150   6.434   8.753   8.258
 4951W        W 9151  10.971   9.570  11.958
 4952W        W 9152   0.828   2.428   0.428
 4953W        W 9153   5.471   4.107   9.057
 4954W        W 9154   2.897  10.933  10.814
 4955W        W 9155   8.608   6.414   1.280
 4956W        W 9156   5.167   9.552   2.516
 4957W        W 9157   5.870   6.689   2.148
 4958W        W 9158   9.976   1.971   3.423
 4959W        W 9159   0.813   6.237   0.942
 4960W        W 9160   0.731  10.826   1.709
 4961W        W 9161   5.738   9.194  11.820
 4962W        W 9162   2.661   2.271   9.481
 4963W        W 9163   0.255   1.435   3.470
 4964W        W 9164   9.952   4.270   2.671
 4965W        W 9165   3.818   8.110  11.793
 4966W        W 9166   2.994   5.644   8.580
 4967W        W 9167   9.997   6.178  10.768
 4968W        W 9168   5.524   0.964   9.123
 4969W        W 9169  11.390   2.649   0.526
 4970W        W 9170   9.799  10.932   0.928
 4971W        W 9171   9.960  10.801   2.756
 4972W        W 9172   2.735   7.982   9.491
 4973W        W 9173  10.766   7.638   2.375
 4974W        W 9174   4.768   7.590   1.747
 4975W        W 9175  10.760   4.945   3.600
 4976W        W 9176  10.293   1.928  10.945
 4977W        W 9177   1.621   6.172   0.977
 4978W        W 9178  10.377   6.991   9.055
 4979W        W 9179   8.114   9.944   0.253
 4980W        W 9180   6.925   4.415   1.828
 4981W        W 9181   4.625   4.727   3.605
 4982W        W 9182   6.556   5.440   0.462
 4983W        W 9183   7.918   9.967   9.985
 4984W        W 9184   5.026   4.590   3.903
 4985W        W 9185   2.230   3.280   2.252
 4986W        W 9186   5.681   9.054   3.049
 4987W        W 9187   5.542   4.092   2.593
 4988W        W 9188   2.538   2.679   0.885
 4989W        W 9189  10.256   7.259   2.336
 4990W        W 9190   5.659   3.175   8.883
 4991W        W 9191   8.433  11.005  11.744
 4992W        W 9192   1.036   4.090   0.512
 4993W        W 9193   3.392   6.599  10.318
 4994W        W 9194  10.309   6.572  11.968
 4995W        W 9195   4.159   9.103   9.107
 4996W        W 9196   9.925   5.677   9.912
 4997W        W 9197   3.487   8.511   8.927
 4998W        W 9198   4.365  10.993  10.753
 4999W        W 9199   9.985   1.642  10.096
 5000W        W 9200  10.036   1.292   8.800
 5001W        W 9201  10.058   0.856   0.035
 5002W        W 9202   6.073   5.779   1.690
 5003W        W 9203   1.268   9.448  10.008
 5004W        W 9204   2.492   7.738   2.710
 5005W        W 9205   9.926   0.775   8.869
 5006W        W 9206   3.982   1.350  11.473
 5007W        W 9207   2.088   1.627   3.320
 5008W        W 9208   8.651   3.093  10.290
 5009W        W 9209  10.503  10.822   3.409
 5010W        W 9210   2.222   9.317  11.270
 5011W        W 9211   8.451   2.643   2.048
 5012W        W 9212   7.497  11.339   8.817
 5013W        W 9213   8.135   0.880   8.465
 5014W        W 9214   0.241   6.124   2.790
 5015W        W 9215   8.661   9.987   2.861
 5016W        W 9216   4.559   5.314   9.659
 5017W        W 9217   5.964   6.262   2.678
 5018W        W 9218   3.732  10.809   2.818
 5019W        W 9219   1.597   5.604   3.171
 5020W        W 9220   4.716   4.529   2.610
 5021W        W 9221   8.111   4.618   3.543
 5022W        W 9222   6.846   9.361   0.661
 5023W        W 9223   0.083   5.657  10.828
 5024W        W 9224   0.625   1.464   0.746
 5025W        W 9225   2.352   0.673   0.763
 5026W        W 9226   8.366   2.154   3.712
 5027W        W 9227   4.913   6.099   0.999
 5028W        W 9228  10.224  11.415   9.399
 5029W        W 9229   7.105   2.633   9.796
 5030W        W 9230  10.888   7.567   9.650
 5031W        W 9231   5.545   6.432  11.278
 5032W        W 9232   0.971   2.346   9.113
 5033W        W 9233   5.485   0.003   0.020
 5034W        W 9234   1.623   3.482  10.205
 5035W        W 9235   4.725   2.813   2.008
 5036W        W 9236   4.964   8.085   1.973
 5037W        W 9237   8.538   5.493   9.851
 5038W        W 9238   0.705   4.150  11.000
 5039W        W 9239  11.286   2.199   9.428
 5040W        W 9240   9.616   8.374   9.907
 5041W        W 9241   5.792   9.864   1.990
 5042W        W 9242   6.969   4.565   0.921
 5043W        W 9243   4.792   1.649   0.429
 5044W        W 9244   2.290  11.253  11.434
 5045W        W 9245   1.283   0.511   1.867
 5046W        W 9246   4.084   2.329   0.311
 5047W        W 9247   7.233   4.455   9.549
 5048W        W 9248   9.883  10.483   9.399
 5049W        W 9249   1.927   6.386  10.462
 5050W        W 9250   7.009   8.298   9.723
 5051W        W 9251   0.766   8.406   0.413
 5052W        W 9252   9.385   3.922   1.678
 5053W        W 9253   9.864   2.614   2.812
 5054W        W 9254   6.755  10.742   1.860
 5055W        W 9255   5.477   8.101   2.035
 5056W        W 9256   9.410   0.940  11.871
 5057W        W 9257   5.493  11.065   9.032
 5058W        W 9258   6.228   2.744   9.887
 5059W        W 9259   2.294   7.086   0.065
 5060W        W 9260  11.279  11.426   9.349
 5061W        W 9261   5.662   0.701  10.712
 5062W        W 9262  10.888   8.356   9.668
 5063W        W 9263  10.285   5.962  11.195
 5064W        W 9264   6.978   3.168   1.375
 5065W        W 9265   2.738   8.497   9.462
 5066W        W 9266  10.851   7.623   1.862
 5067W        W 9267   9.404   4.388  11.052
 5068W        W 9268   7.475  11.339   9.334
 5069W        W 9269  10.817   3.922   1.904
 5070W        W 9270   2.588   6.301   9.988
 5071W        W 9271  10.586   7.871   0.007
 5072W        W 9272   0.469  11.337   0.706
 5073W        W 9273  11.433   5.015   2.173
 5074W        W 9274   4.609  11.408   9.102
 5075W        W 9275   8.927   5.346   8.521
 5076W        W 9276   8.881   2.834   2.836
 5077W        W 9277   0.482   3.605  11.538
 5078W        W 9278   8.445   2.953   1.546
 5079W        W 9279   8.060   3.933   1.926
 5080W        W 9280   0.503   5.385  11.016
 5081W        W 9281   2.455   2.519  11.883
 5082W        W 9282   2.779   3.111   1.439
 5083W        W 9283   6.156  10.557   9.398
 5084W        W 9284   4.671  10.894   1.372
 5085W        W 9285   1.043   9.505   0.768
 5086W        W 9286   4.656   6.835   2.300
 5087W        W 9287   5.182   9.824   9.041
 5088W        W 9288   0.281   9.924   0.907
 5089W        W 9289   5.813   7.084   0.384
 5090W        W 9290   7.885   6.934   2.977
 5091W        W 9291   3.846  10.789   9.876
 5092W        W 9292   2.612   6.220  11.872
 5093W        W 9293   1.381   2.020   8.970
 5094W        W 9294   0.827   1.874  10.917
 5095W        W 9295   4.090   0.872  11.299
 5096W        W 9296   2.019  11.109  10.078
 5097W        W 9297   1.405   7.871   8.806
 5098W        W 9298   2.166   4.959   1.498
 5099W        W 9299   2.642   9.762  10.532
 5100W        W 9300  10.539  11.259   2.300
 5101W        W 9301   6.162   0.605   3.392
 5102W        W 9302   3.856   7.346   2.237
 5103W        W 9303   3.862   8.435   2.647
 5104W        W 9304  10.032   3.312   1.432
 5105W        W 9305   3.478   2.226  10.501
 5106W        W 9306   0.353   9.597   1.590
 5107W        W 9307   8.875   4.128   9.867
 5108W        W 9308   0.201   3.650   2.764
 5109W        W 9309   0.505   3.064  10.683
 5110W        W 9310   4.202  10.824   1.817
 5111W        W 9311   4.157  10.906  10.286
 5112W        W 9312   5.357   9.453   0.331
 5113W        W 9313   0.323  10.584   3.128
 5114W        W 9314  10.575   0.878  11.843
 5115W        W 9315   2.870   8.573   2.786
 5116W        W 9316   9.526   2.720   3.514
 5117W        W 9317   5.753   7.783  10.028
 5118W        W 9318   8.547   1.473   1.333
 5119W        W 9319   8.121   9.417   1.052
 5120W        W 9320   9.372   2.723  11.315
 5121W        W 9321   6.742   7.890   9.909
 5122W        W 9322   5.780   4.815  10.361
 5123W        W 9323   7.659  10.295  10.794
 5124W        W 9324   5.106   5.716  10.734
 5125W        W 9325   9.158   3.744   0.213
 5126W        W 9326   2.186   0.796   8.906
 5127W        W 9327   0.286   7.541   3.301
 5128W        W 9328   6.862   8.594   2.968
 5129W        W 9329   0.651  10.355   2.313
 5130W        W 9330   2.937   0.260  10.961
 5131W        W 9331   2.990   4.567   9.988
 5132W        W 9332   6.484   4.032   0.795
 5133W        W 9333   3.806   4.666   8.181
 5134W        W 9334   4.814   2.728   1.535
 5135W        W 9335   8.157   1.813   9.990
 5136W        W 9336   3.360   2.375   0.017
 5137W        W 9337   8.504   1.885  11.251
 5138W        W 9338   3.756  10.351   8.962
 5139W        W 9339   9.614   0.620   0.234
 5140W        W 9340   8.591   5.006  10.137
 5141W        W 9341   6.657  10.371  11.089
 5142W        W 9342   9.551   2.365   2.213
 5143W        W 9343  10.706   1.309  11.527
 5144W        W 9344   1.419   3.885  11.481
 5145W        W 9345   8.053   2.769   0.367
 5146W        W 9346   0.429   5.711   9.955
 5147W        W 9347   4.166   7.464   9.065
 5148W        W 9348  10.362   4.559  11.450
 5149W        W 9349   4.694   3.557   0.430
 5150W        W 9350   6.785   3.142   9.172
 5151W        W 9351   7.689   5.771   8.320
 5152W        W 9352   4.606   6.377   2.504
 5153W        W 9353   5.568   8.970   0.417
 5154W        W 9354   2.754   3.398  10.298
 5155W        W 9355   2.862   2.320   2.819
 5156W        W 9356   5.480   2.385   2.712
 5157W        W 9357   6.723   2.804   0.465
 5158W        W 9358   3.167   0.819   9.113
 5159W        W 9359   8.984  10.016  10.122
 5160W        W 9360  11.383   5.584   0.215
 5161W        W 9361   4.523   3.203   9.541
 5162W        W 9362   8.055   1.834   3.438
 5163W        W 9363   8.481   6.969   0.461
 5164W        W 9364  10.468   8.070   2.945
 5165W        W 9365   7.619   0.744   3.401
 5166W        W 9366   4.093  11.387  10.497
 5167W        W 9367   1.916   5.216  11.228
 5168W        W 9368   4.554   5.461   2.259
 5169W        W 9369   5.583   3.681   3.805
 5170W        W 9370   7.377   4.793  10.528
 5171W        W 9371  11.338   6.418   2.807
 5172W        W 9372   1.711   2.318   0.948
 5173W        W 9373   5.076   9.781   2.088
 5174W        W 9374  11.494  11.501   1.997
 5175W        W 9375   9.174   9.542   2.243
 5176W        W 9376   0.774   7.180   9.941
 5177W        W 9377   6.955   1.252  11.946
 5178W        W 9378   0.772   7.501   1.806
 5179W        W 9379   0.854   9.144   1.052
 5180W        W 9380   5.162   5.577  11.756
 5181W        W 9381  10.116   5.030  10.295
 5182W        W 9382  10.119   1.962  10.472
 5183W        W 9383   4.993   1.508  10.122
 5184W        W 9384   8.840   6.914   9.536
 5185W        W 9385   0.811   2.036  11.615
 5186W        W 9386   0.794   5.501   3.002
 5187W        W 9387   6.282   5.011   0.352
 5188W        W 9388   1.250   5.273  10.453
 5189W        W 9389   5.336   6.714  10.849
 5190W        W 9390   1.614   5.071  11.965
 5191W        W 9391   0.269  11.434   0.240
 5192W        W 9392   0.486   4.583  10.832
 5193W        W 9393  11.322   8.894   1.878
 5194W        W 9394   8.726  11.253   9.574
 5195W        W 9395  10.509   7.363  10.942
 5196W        W 9396   9.105   9.060   2.521
 5197W        W 9397  11.256   4.796   0.815
 5198W        W 9398   3.282   2.639   0.866
 5199W        W 9399   8.539   0.939   9.419
 5200W        W 9400   7.065   8.354   1.961
 5201W        W 9401   5.037  11.455   3.097
 5202W        W 9402   3.066   3.643   4.147
 5203W        W 9403   1.217   8.138   0.639
 5204W        W 9404   1.348   9.554   0.385
 5205W        W 9405   0.739   0.923  10.431
 5206W        W 9406  10.347   2.568   9.395
 5207W        W 9407  10.549   1.583   9.637
 5208W        W 9408  10.244   8.466   0.399
 5209W        W 9409   2.351  10.240   2.673
 5210W        W 9410   9.977   8.063  10.950
 5211W        W 9411   2.283  11.256   0.476
 5212W        W 9412   7.650   2.466   3.167
 5213W        W 9413  10.151   0.311  10.101
 5214W        W 9414   8.462  11.277   3.167
 5215W        W 9415   9.446   6.682   2.157
 5216W        W 9416   4.122   8.077   9.642
 5217W        W 9417   9.814   0.811   9.429
 5218W        W 9418   7.191  10.447   3.418
 5219W        W 9419   0.678   6.935  10.377
 5220W        W 9420  11.305   1.811  10.969
 5221W        W 9421   2.162   2.945   8.798
 5222W        W 9422   7.735   7.729   9.871
 5223W        W 9423   8.601   6.003  11.013
 5224W        W 9424   7.492   7.066   1.882
 5225W        W 9425   1.814  10.971   2.804
 5226W        W 9426   1.805  10.486  11.243
 5227W        W 9427   2.967   7.856  10.375
 5228W        W 9428   1.862   3.670   2.281
 5229W        W 9429   9.446   8.787   0.217
 5230W        W 9430   0.406   6.059   0.243
 5231W        W 9431   0.502   3.873   2.423
 5232W        W 9432   4.730   2.668   2.988
 5233W        W 9433   0.723   0.688   9.974
 5234W        W 9434  10.403   7.468   9.878
 5235W        W 9435   3.218   0.144   9.149
 5236W        W 9436   3.810   0.625   2.933
 5237W        W 9437   1.190   5.634   2.424
 5238W        W 9438   7.581   1.047   1.939
 5239W        W 9439   7.480   8.368   2.300
 5240W        W 9440   8.603   6.454   0.384
 5241W        W 9441  10.220   2.267   0.838
 5242W        W 9442   6.641   9.856   2.011
 5243W        W 9443   3.691  11.462   9.583
 5244W        W 9444   4.654   4.622  10.911
 5245W        W 9445   4.805   8.983   3.065
 5246W        W 9446   2.661   1.141   1.230
 5247W        W 9447   4.770   6.999  10.041
 5248W        W 9448   1.375   9.517  11.892
 5249W        W 9449   2.378   3.798   9.471
 5250W        W 9450   4.656   4.750   1.815
 5251W        W 9451   2.899   9.994  11.529
 5252W        W 9452   9.240   7.356  11.082
 5253W        W 9453   8.797   8.687   0.751
 5254W        W 9454   8.078   1.433   8.728
 5255W        W 9455   9.626   9.564   1.513
 5256W        W 9456   0.713   4.698  11.320
 5257W        W 9457   8.098   8.849  11.752
 5258W        W 9458   1.814   7.413  11.813
 5259W        W 9459   4.722   8.505   0.711
 5260W        W 9460   6.334   7.456   1.470
 5261W        W 9461   3.723   8.861  10.589
 5262W        W 9462  10.356   5.038  11.159
 5263W        W 9463   1.407   5.174   2.334
 5264W        W 9464   1.898   0.467   0.806
 5265W        W 9465   2.817   7.041   2.366
 5266W        W 9466   7.906   5.215  11.435
 5267W        W 9467   1.775   5.272   2.772
 5268W        W 9468   6.367   1.257   1.736
 5269W        W 9469   1.633   3.044   0.446
 5270W        W 9470  11.071   0.926   1.234
 5271W        W 9471   1.466   0.021   0.253
 5272W        W 9472   4.093   3.527  11.792
 5273W        W 9473   5.177   0.814   1.925
 5274W        W 9474  10.111   8.990   9.088
 5275W        W 9475   2.005  10.392   9.400
 5276W        W 9476   2.744   4.602   1.362
 5277W        W 9477   4.543   5.134  11.203
 5278W        W 9478   9.004   5.685   9.781
 5279W        W 9479   4.639   4.017   1.361
 5280W        W 9480   7.813   9.524  10.897
 5281W        W 9481   4.167   1.378   3.009
 5282W        W 9482   9.392   8.622   2.294
 5283W        W 9483   1.432   5.560  11.928
 5284W        W 9484   3.738   1.124   2.977
 5285W        W 9485   9.971   2.747  10.094
 5286W        W 9486   1.165   7.353   2.887
 5287W        W 9487   5.930   5.593   9.061
 5288W        W 9488   6.530   2.865   3.620
 5289W        W 9489   9.688   1.126   2.997
 5290W        W 9490   4.087  11.352   0.878
 5291W        W 9491   0.894  11.038  10.648
 5292W        W 9492   8.317   6.791   0.941
 5293W        W 9493   7.122   7.022  11.937
 5294W        W 9494   9.959  10.871  11.877
 5295W        W 9495   3.727   6.923  11.157
 5296W        W 9496   2.199   8.042   0.573
 5297W        W 9497   9.637   4.215   1.346
 5298W        W 9498  10.629   0.702   1.382
 5299W        W 9499   7.571   7.359   2.300
 5300W        W 9500   1.988   5.324   1.842
 5301W        W 9501  10.567  10.484  11.764
 5302W        W 9502   1.613   7.000   1.910
 5303W        W 9503   8.311   4.023  10.281
 5304W        W 9504   5.656   3.216   2.559
 5305W        W 9505   6.092   0.315   2.234
 5306W        W 9506   9.563   7.680   1.440
 5307W        W 9507   9.911   3.187   9.783
 5308W        W 9508   9.615   4.903   1.718
 5309W        W 9509   8.214   3.661   9.506
 5310W        W 9510   6.680   3.974   1.708
 5311W        W 9511   9.993   8.534  10.722
 5312W        W 9512   8.472  10.265  10.032
 5313W        W 9513   0.310  11.461   9.247
 5314W        W 9514   3.693   3.617  10.960
 5315W        W 9515  11.456  10.731   9.689
 5316W        W 9516   0.175   7.189  11.331
 5317W        W 9517   8.944   9.363  11.420
 5318W        W 9518   2.615   0.832   9.221
 5319W        W 9519   0.542   3.440  10.316
 5320W        W 9520  10.227   2.717   2.099
 5321W        W 9521   5.644   8.528   1.781
 5322W        W 9522   3.960   8.018   1.744
 5323W        W 9523   8.270   3.869   4.004
 5324W        W 9524   1.218   4.044   9.235
 5325W        W 9525   2.261   1.888   9.762
 5326W        W 9526   9.873  10.773   2.239
 5327W        W 9527   5.000   9.855   3.409
 5328W        W 9528   1.964   2.162  11.286
 5329W        W 9529   7.981  10.387   2.431
 5330W        W 9530   1.949   3.207   8.374
 5331W        W 9531   0.396  10.018  10.930
 5332W        W 9532   8.567   3.564   3.138
 5333W        W 9533   9.909   7.689   2.399
 5334W        W 9534   6.557  10.896   9.328
 5335W        W 9535   2.792   5.290  11.341
 5336W        W 9536   4.967   2.510   8.615
 5337W        W 9537   6.729   8.633   0.818
 5338W        W 9538   1.886   6.923   8.768
 5339W        W 9539   3.680   0.181   2.717
 5340W        W 9540   5.006   8.301   8.933
 5341W        W 9541   7.010   9.373   8.533
 5342W        W 9542   1.246   7.568   2.067
 5343W        W 9543   7.996   5.916   0.791
 5344W        W 9544   5.618  10.948   0.963
 5345W        W 9545   0.669   8.780  10.083
 5346W        W 9546   3.998   6.210   1.860
 5347W        W 9547  10.735   7.456   3.526
 5348W        W 9548   1.625   6.665   8.343
 5349W        W 9549   0.307  11.005   9.462
 5350W        W 9550   5.251   4.673   1.661
 5351W        W 9551   2.791   4.824  11.632
 5352W        W 9552   3.136   3.364   1.794
 5353W        W 9553   0.143   7.906   9.999
 5354W        W 9554   6.310   6.478   2.326
 5355W        W 9555   2.185  10.985   1.846
 5356W        W 9556   0.471   0.425   2.426
 5357W        W 9557   9.717   7.043   0.303
 5358W        W 9558   0.888   7.077   1.410
 5359W        W 9559   5.199   1.393   1.668
 5360W        W 9560   1.740   4.805  10.289
 5361W        W 9561   5.794   5.160   0.302
 5362W        W 9562   1.771   8.065   9.621
 5363W        W 9563   1.191   1.899  11.277
 5364W        W 9564  10.967   9.967   9.669
 5365W        W 9565   3.907   9.322   3.266
 5366W        W 9566   6.892   2.612   2.673
 5367W        W 9567   6.372   2.527  10.340
 5368W        W 9568   2.219   1.467   0.077
 5369W        W 9569   1.165   1.304   3.635
 5370W        W 9570   7.750   0.376   3.715
 5371W        W 9571   2.297   5.773   9.141
 5372W        W 9572   8.938   7.469   2.165
 5373W        W 9573  11.253   5.137   1.201
 5374W        W 9574   1.391  10.335   2.841
 5375W        W 9575   2.799   3.250   3.471
 5376W        W 9576  10.479   8.946   2.973
 5377W        W 9577   8.621   7.363   9.451
 5378W        W 9578   1.896   4.540  10.902
 5379W        W 9579  10.083   1.299   1.215
 5380W        W 9580   7.573   1.787   9.586
 5381W        W 9581   3.151   5.612   0.099
 5382W        W 9582   4.046   5.156  11.023
 5383W        W 9583   2.696   3.111   8.990
 5384W        W 9584   0.187   1.803   1.509
 5385W        W 9585   9.791   1.300   0.761
 5386W        W 9586   8.948   0.762   1.899
 5387W        W 9587   7.565   5.071   1.244
 5388W        W 9588   6.725  10.389   2.719
 5389W        W 9589   0.845  10.287  10.089
 5390W        W 9590   0.087   9.373   0.757
 5391W        W 9591   7.660   1.020   9.595
 5392W        W 9592   7.699   6.520   1.835
 5393W        W 9593   8.090   6.689   9.914
 5394W        W 9594   3.746   9.077   1.998
 5395W        W 9595   1.718   8.901  10.892
 5396W        W 9596   7.018   5.995  11.828
 5397W        W 9597   6.144   0.810   2.428
 5398W        W 9598   8.070  10.818   2.726
 5399W        W 9599   0.239   5.474   1.897
 5400W        W 9600   8.095   3.734   1.430
 5401W        W 9601  10.872   1.385   0.003
 5402W        W 9602   8.980   8.577   2.722
 5403W        W 9603   8.457   1.462   9.489
 5404W        W 9604   0.283   7.576  11.711
 5405W        W 9605   7.113   6.684  11.328
 5406W        W 9606   2.321   7.939  10.990
 5407W        W 9607   0.355   1.281  11.841
 5408W        W 9608   3.950   6.283   1.283
 5409W        W 9609   6.661   7.504   3.674
 5410W        W 9610  11.324   8.456   2.180
 5411W        W 9611   9.120  11.417   0.723
 5412W        W 9612   0.166   5.158   0.925
 5413W        W 9613   9.902   0.356  11.836
 5414W        W 9614   5.072   0.243   0.243
 5415W        W 9615   6.238   3.488   2.262
 5416W        W 9616  10.843  10.446   3.333
 5417W        W 9617  11.195   5.262   8.761
 5418W        W 9618   5.721   8.607   3.333
 5419W        W 9619   8.980   3.666   3.449
 5420W        W 9620  11.191   1.503   8.843
 5421W        W 9621   2.736  11.264   0.222
 5422W        W 9622   5.706   2.396   1.025
 5423W        W 9623   5.092   7.737  11.646
 5424W        W 9624   1.189   8.223   0.137
 5425W        W 9625  10.622   7.844   1.417
 5426W        W 9626   7.657   3.063   0.703
 5427W        W 9627  11.418   3.783   3.147
 5428W        W 9628   4.365   5.007   1.423
 5429W        W 9629   0.192   9.233  10.333
 5430W        W 9630   8.743   7.969  10.381
 5431W        W 9631   1.709  10.832   9.414
 5432W        W 9632   9.363   6.640  11.787
 5433W        W 9633   9.142   7.325   9.568
 5434W        W 9634  11.490  11.320   9.795
 5435W        W 9635  10.760   0.229   9.913
 5436W        W 9636   1.980  10.698   8.979
 5437W        W 9637   7.755   6.290   8.250
 5438W        W 9638   0.195   5.530   9.511
 5439W        W 9639  10.858   7.139   8.884
 5440W        W 9640   6.445   2.793   8.982
 5441W        W 9641  10.118   0.744  10.579
 5442W        W 9642   6.790   6.108   1.311
 5443W        W 9643   9.508   3.303   2.270
 5444W        W 9644   5.266   5.810   2.347
 5445W        W 9645   7.313   0.455  10.068
 5446W        W 9646   8.907   0.808   2.409
 5447W        W 9647   3.670   3.598   0.714
 5448W        W 9648   0.204   3.062  10.246
 5449W        W 9649   0.431   8.687  10.889
 5450W        W 9650   7.591   6.352   3.493
 5451W        W 9651   1.293   7.851  10.914
 5452W        W 9652   3.987   1.016   0.453
 5453W        W 9653   9.488   2.792   9.899
 5454W        W 9654   7.286   1.007   0.267
 5455W        W 9655   6.795   0.602   8.466
 5456W        W 9656   5.511   3.762   1.820
 5457W        W 9657   9.527   1.364   1.309
 5458W        W 9658   0.491   7.072   8.999
 5459W        W 9659   0.210   8.715  10.384
 5460W        W 9660   0.297   3.862  11.149
 5461W        W 9661   1.427  10.889  11.781
 5462W        W 9662  10.758   9.369   2.260
 5463W        W 9663   2.102   8.426   3.194
 5464W        W 9664   1.641  10.381   2.162
 5465W        W 9665   4.636   8.122   9.684
 5466W        W 9666   9.465   6.894   9.872
 5467W        W 9667   3.699   5.445  10.343
 5468W        W 9668  11.383   6.051   0.046
 5469W        W 9669   3.350   7.210  10.965
 5470W        W 9670  10.841   8.599   8.660
 5471W        W 9671  10.734   6.989   0.400
 5472W        W 9672   3.321   9.125  11.073
 5473W        W 9673   1.646   9.632  11.464
 5474W        W 9674   5.890   1.521   9.805
 5475W        W 9675   4.896  10.399  10.167
 5476W        W 9676   1.298   5.732   0.385
 5477W        W 9677   2.137   1.756  11.577
 5478W        W 9678   9.822   0.633   3.019
 5479W        W 9679   7.690   9.044   9.912
 5480W        W 9680   7.145   7.118  10.544
 5481W        W 9681  11.437   9.832   8.724
 5482W        W 9682   1.359  10.439   9.976
 5483W        W 9683   5.521  10.791   2.471
 5484W        W 9684   4.981   8.001   3.348
 5485W        W 9685   3.250   0.190  11.463
 5486W        W 9686   2.271   7.499  10.343
 5487W        W 9687   1.479   4.234   2.396
 5488W        W 9688  10.482   2.450   9.930
 5489W        W 9689   4.954   6.409  11.719
 5490W        W 9690   7.079   1.757   1.145
 5491W        W 9691   0.416   0.346   0.511
 5492W        W 9692   8.363   7.193  11.022
 5493W        W 9693   2.349   3.094   2.738
 5494W        W 9694  10.575   6.011   2.192
 5495W        W 9695   4.293  11.380  11.519
 5496W        W 9696   2.408  10.183  11.525
 5497W        W 9697   0.955  11.457   8.558
 5498W        W 9698   9.426   0.783   2.137
 5499W        W 9699   7.702   6.613   8.678
 5500W        W 9700   6.651   8.610   3.835
 5501W        W 9701   2.375   0.388   9.157
 5502W        W 9702   8.481   5.043   9.637
 5503W        W 9703   3.735   0.864   2.089
 5504W        W 9704   1.711   0.352   1.643
 5505W        W 9705   4.273   2.265   9.289
 5506W        W 9706   0.369   8.040   9.119
 5507W        W 9707   9.994  10.035   0.722
 5508W        W 9708   0.423   3.386   1.475
 5509W        W 9709   4.225   0.020  10.997
 5510W        W 9710  11.126   1.436   2.325
 5511W        W 9711   5.095   7.025   1.035
 5512W        W 9712  11.478   5.583   1.423
 5513W        W 9713   1.379   7.056   0.112
 5514W        W 9714   1.405   3.735   1.026
 5515W        W 9715   3.293   7.630   0.787
 5516W        W 9716   6.133   1.708   3.491
 5517W        W 9717   8.481   8.406   3.551
 5518W        W 9718  10.002  10.376   3.530
 5519W        W 9719   9.529   7.742  10.419
 5520W        W 9720   8.049  10.987  10.088
 5521W        W 9721  10.862   8.694  10.048
 5522W        W 9722   2.479   4.332   2.154
 5523W        W 9723   8.679   8.523  11.755
 5524W        W 9724   2.395   6.071  10.440
 5525W        W 9725   2.850   8.918  10.757
 5526W        W 9726   7.124   5.750  11.352
 5527W        W 9727   2.879   9.345   0.299
 5528W        W 9728   5.108   9.078  11.476
 5529W        W 9729   3.438   0.215  10.983
 5530W        W 9730   4.628   4.559   0.494
 5531W        W 9731   0.634   0.523  10.854
 5532W        W 9732   8.411   7.884   3.108
 5533W        W 9733  10.396   5.609   0.906
 5534W        W 9734   1.844   5.692  11.650
 5535W        W 9735   2.033   4.684   9.878
 5536W        W 9736  11.051   5.304   1.953
 5537W        W 9737   4.850  10.460  11.448
 5538W        W 9738   4.396   4.083   3.257
 5539W        W 9739   7.264   2.264   8.795
 5540W        W 9740   3.691   1.827   1.665
 5541W        W 9741   8.400   4.155   9.270
 5542W        W 9742   7.858   3.258   0.245
 5543W        W 9743   4.364   3.249   3.672
 5544W        W 9744   9.001   5.012   1.453
 5545W        W 9745   4.246   7.018   8.775
 5546W        W 9746   7.773   0.927   0.447
 5547W        W 9747   6.119   4.563   1.312
 5548W        W 9748  10.358   6.426   9.987
 5549W        W 9749   5.864   9.407   0.324
 5550W        W 9750   4.176   1.371   0.828
 5551W        W 9751  11.205   9.852  10.184
 5552W        W 9752   7.226   9.539  10.371
 5553W        W 9753   6.032   4.259   2.611
 5554W        W 9754   4.960   2.343   2.663
 5555W        W 9755  10.350   9.489  10.280
 5556W        W 9756   2.600   9.897  11.066
 5557W        W 9757   1.418   1.735   3.136
 5558W        W 9758   5.555   5.370   2.249
 5559W        W 9759   4.868   7.103   1.502
 5560W        W 9760   0.375   1.301  11.307
 5561W        W 9761   5.577   4.630   9.018
 5562W        W 9762   5.917   6.517   9.455
 5563W        W 9763   0.241   6.807   2.090
 5564W        W 9764   9.916  10.489   1.236
 5565W        W 9765   2.302   3.353   1.342
 5566W        W 9766   4.935   9.095   8.547
 5567W        W 9767   8.535   3.869   1.727
 5568W        W 9768   1.516   4.793   2.671
 5569W        W 9769   6.244  11.467   1.385
 5570W        W 9770   1.866   6.954   3.168
 5571W        W 9771   3.162   3.601   0.780
 5572W        W 9772   7.704   9.205   1.283
 5573W        W 9773   7.881   8.071  10.213
 5574W        W 9774   9.578  11.402   0.989
 5575W        W 9775   6.751   6.564   9.944
 5576W        W 9776   3.068   5.557   2.432
 5577W        W 9777   7.317   8.568   2.748
 5578W        W 9778   3.398  10.928  10.808
 5579W        W 9779   8.038   1.313   1.259
 5580W        W 9780   5.928   3.071   0.314
 5581W        W 9781  11.275   1.060   3.556
 5582W        W 9782  10.313   3.704   1.706
 5583W        W 9783   4.612   3.360  10.035
 5584W        W 9784   8.512   7.665   9.056
 5585W        W 9785   7.742   5.242   8.541
 5586W        W 9786   1.731   3.136   2.252
 5587W        W 9787   3.144   7.032   9.892
 5588W        W 9788   2.288   2.479   1.719
 5589W        W 9789   9.497   7.397   9.955
 5590W        W 9790   7.487   0.241  11.151
 5591W        W 9791   6.634   2.339   1.377
 5592W        W 9792   8.640   7.639   9.892
 5593W        W 9793  10.974   3.587   0.457
 5594W        W 9794   3.594   2.344   0.467
 5595W        W 9795   8.132   6.606  11.286
 5596W        W 9796   6.954   0.339   1.122
 5597W        W 9797   0.917   5.727   8.992
 5598W        W 9798  10.290   5.656   2.434
 5599W        W 9799   4.191   6.917  11.339
 5600W        W 9800   0.100   0.759  10.826
 5601W        W 9801   1.451  11.363   0.847
 5602W        W 9802  10.009   0.311   9.126
 5603W        W 9803   2.258   1.941   8.723
 5604W        W 9804   1.381   1.431   1.783
 5605W        W 9805   9.120   9.966   3.084
 5606W        W 9806   8.627   1.158  11.023
 5607W        W 9807   9.290   2.659   2.547
 5608W        W 9808   9.192  11.466   0.204
 5609W        W 9809   7.511   8.764   9.158
 5610W        W 9810   2.783   1.573   1.495
 5611W        W 9811  10.662  10.595   2.880
 5612W        W 9812  10.486   8.180   3.437
 5613W        W 9813   8.382   7.920   1.360
 5614W        W 9814   2.153   0.645   2.850
 5615W        W 9815   6.440   1.159  11.204
 5616W        W 9816   7.201   6.477   1.718
 5617W        W 9817   5.427   5.274   9.550
 5618W        W 9818   0.128   1.628   2.728
 5619W        W 9819   3.179   2.815   9.923
 5620W        W 9820   3.025   4.739   2.955
 5621W        W 9821   2.046   5.155   0.666
 5622W        W 9822   6.030   9.427   9.560
 5623W        W 9823   9.039   5.130   2.391
 5624W        W 9824   8.464   0.428   1.240
 5625W        W 9825  10.339   6.467  11.007
 5626W        W 9826   7.087   8.425  11.078
 5627W        W 9827   4.041   4.753  10.707
 5628W        W 9828   2.345   7.714   8.962
 5629W        W 9829   6.559   3.078   4.137
 5630W        W 9830  11.223  11.045  11.063
 5631W        W 9831   0.000   3.449   9.075
 5632W        W 9832   2.985   8.370   9.021
 5633W        W 9833   6.236   9.325  11.984
 5634W        W 9834   2.254   2.817   9.829
 5635W        W 9835   9.898   6.155  11.462
 5636W        W 9836   8.688   6.589   1.778
 5637W        W 9837  10.431  10.469  10.789
 5638W        W 9838  10.041   4.088   0.893
 5639W        W 9839   7.071   0.754   3.149
 5640W        W 9840  10.408   4.498   2.871
 5641W        W 9841   8.754   2.304   1.817
 5642W        W 9842   9.209   3.827   9.421
 5643W        W 9843   5.485   5.034   9.996
 5644W        W 9844   6.945  10.774   2.349
 5645W        W 9845   3.502   7.740  11.945
 5646W        W 9846   0.231   2.714   1.527
 5647W        W 9847   1.812   8.199   2.000
 5648W        W 9848   9.136   9.076   9.776
 5649W        W 9849   1.195   4.810  11.477
 5650W        W 9850  11.388   9.836   9.239
 5651W        W 9851   8.595   9.343  10.628
 5652W        W 9852   7.970   2.329  10.727
 5653W        W 9853   0.502   8.035  11.828
 5654W        W 9854   4.473   2.814  10.651
 5655W        W 9855   8.924   1.566  11.187
 5656W        W 9856   3.489   3.798   1.176
 5657W        W 9857   6.436   3.523   0.873
 5658W        W 9858   6.570   2.850   1.361
 5659W        W 9859  10.445   3.292  10.619
 5660W        W 9860   3.707   8.286  11.292
 5661W        W 9861   4.128   6.579   0.773
 5662W        W 9862   4.740   0.317  10.344
 5663W        W 9863   9.970   0.115  11.332
 5664W        W 9864  10.987  11.262   9.934
 5665W        W 9865   0.774   5.052   3.230
 5666W        W 9866  10.075   1.365   2.454
 5667W        W 9867   8.882   4.177   0.265
 5668W        W 9868   0.771  10.171   3.153
 5669W        W 9869  10.873   9.652   2.683
 5670W        W 9870   3.434   3.146   0.879
 5671W        W 9871  11.026   6.994   3.585
 5672W        W 9872   1.283   2.322   2.821
 5673W        W 9873   2.188  10.831   1.362
 5674W        W 9874   7.176  10.337   2.446
 5675W        W 9875   3.413  11.060   9.932
 5676W        W 9876   2.217   3.330   9.644
 5677W        W 9877   3.489   3.980  10.624
 5678W        W 9878   1.887   5.536   9.360
 5679W        W 9879   8.674   5.192   2.866
 5680W        W 9880   5.548   7.361   9.796
 5681W        W 9881   4.308   7.507   0.762
 5682W        W 9882   0.952   2.683   2.667
 5683W        W 9883   0.196   6.830  10.508
 5684W        W 9884   5.450   4.112   4.024
 5685W        W 9885   8.197   8.076   8.962
 5686W        W 9886   8.892   5.464  10.227
 5687W        W 9887   7.475   2.367  10.499
 5688W        W 9888   7.712  11.234   9.782
 5689W        W 9889   0.199   5.238   8.990
 5690W        W 9890   1.897   6.998   1.461
 5691W        W 9891   0.930   5.279   2.148
 5692W        W 9892   7.639   0.573   1.779
 5693W        W 9893  11.413   5.688   9.935
 5694W        W 9894   2.627  11.247   9.517
 5695W        W 9895  10.856   7.174  10.001
 5696W        W 9896   3.754   4.765   2.254
 5697W        W 9897   4.687   9.943   0.487
 5698W        W 9898   7.874   1.546  11.925
 5699W        W 9899   0.754   0.422   8.671
 5700W        W 9900  11.324   0.031  11.293
 5701W        W 9901   0.465   8.010   0.622
 5702W        W 9902  10.236  11.340  10.314
 5703W        W 9903   1.439   4.246   0.227
 5704W        W 9904   4.928   1.308   3.265
 5705W        W 9905   7.671   8.982  10.896
 5706W        W 9906   6.867   8.877   8.545
 5707W        W 9907   3.675   5.490  10.860
 5708W        W 9908   4.933   4.337  10.505
 5709W        W 9909   0.389   8.779   0.330
 5710W        W 9910   6.950   4.583  10.346
 5711W        W 9911   8.225   9.600   8.791
 5712W        W 9912   5.023   2.901  10.622
 5713W        W 9913   9.754   4.559  10.632
 5714W        W 9914  11.152   8.469  10.424
 5715W        W 9915   4.459   7.996   1.882
 5716W        W 9916   6.414   1.317   1.232
 5717W        W 9917   1.440   9.078   1.190
 5718W        W 9918   9.918   6.475   3.577
 5719W        W 9919   1.314   7.130   2.318
 5720W        W 9920   8.068   4.157   1.086
 5721W        W 9921   4.789   5.241   1.859
 5722W        W 9922   0.390   3.480   9.424
 5723W        W 9923   6.987   1.719   2.128
 5724W        W 9924   4.410  10.288   0.960
 5725W        W 9925  10.034   8.097   9.813
 5726W        W 9926  10.295   3.974  11.984
 5727W        W 9927   8.394   6.165   1.709
 5728W        W 9928  11.292   3.405   0.858
 5729W        W 9929   4.461   6.316   1.145
 5730W        W 9930   0.032   8.550   0.644
 5731W        W 9931   8.824   1.157   3.391
 5732W        W 9932   3.878   7.108   1.493
 5733W        W 9933   9.030   4.324   0.733
 5734W        W 9934   7.752   1.477   1.662
 5735W        W 9935  11.359  10.124  11.628
 5736W        W 9936   4.175   5.061   2.325
 5737W        W 9937   8.925   7.579   1.670
 5738W        W 9938   3.165   7.708   9.412
 5739W        W 9939   2.289   4.797   0.967
 5740W        W 9940   1.409  11.435   8.817
 5741W        W 9941   1.430  11.320  11.532
 5742W        W 9942   7.144   2.935   8.823
 5743W        W 9943  11.182   9.279  10.998
 5744W        W 9944   0.430   3.763   3.243
 5745W        W 9945   1.023   8.474  10.320
 5746W        W 9946   8.821   5.991   8.355
 5747W        W 9947   6.350   0.812  10.686
 5748W        W 9948   5.521   3.715   8.144
 5749W        W 9949   9.529   8.640   3.196
 5750W        W 9950   5.904   3.385   1.873
 5751W        W 9951   2.270   8.436  10.293
 5752W        W 9952   5.720   9.074   3.581
 5753W        W 9953   3.611   1.889   9.506
 5754W        W 9954   1.351   4.692   2.182
 5755W        W 9955   6.058   8.350   2.690
 5756W        W 9956  10.379   6.598   3.365
 5757W        W 9957   0.299  10.565   9.157
 5758W        W 9958   9.565   5.546   1.129
 5759W        W 9959   8.529   0.986   2.075
 5760W        W 9960   2.896   7.876   1.312
 5761W        W 9961   0.089  10.579  11.735
 5762W        W 9962   5.187   0.964  11.439
 5763W        W 9963   9.057   7.601   2.663
 5764W        W 9964   2.270   0.856  10.849
 5765W        W 9965   6.305  10.516  10.745
 5766W        W 9966   3.502   3.717   3.564
 5767W        W 9967  10.573   9.995  10.987
 5768W        W 9968   6.162   1.750  11.027
 5769W        W 9969   8.103   7.676  11.190
 5770W        W 9970   2.225   8.876  11.020
 5771W        W 9971   8.927   6.037   0.790
 5772W        W 9972  10.186   4.255  10.586
 5773W        W 9973   3.282   9.077   9.071
 5774W        W 9974  10.507   9.021   8.740
 5775W        W 9975  10.048   9.014   2.183
 5776W        W 9976  10.327   5.368  10.626
 5777W        W 9977   1.671   3.840   2.788
 5778W        W 9978  11.271  10.276   0.619
 5779W        W 9979   1.944  11.445   1.852
 5780W        W 9980   4.516  10.918  11.438
 5781W        W 9981   2.759   2.060   9.031
 5782W        W 9982   6.179   9.046   2.313
 5783W        W 9983   8.970   0.404   2.730
 5784W        W 9984   9.550   6.445   9.599
 5785W        W 9985   1.375   3.825  10.952
 5786W        W 9986   7.425   7.606  11.711
 5787W        W 9987   0.986   3.674  10.405
 5788W        W 9988   4.894   7.207   0.566
 5789W        W 9989  10.386  10.779   2.465
 5790W        W 9990   3.314   3.749   9.773
 5791W        W 9991   1.756  11.336   3.633
 5792W        W 9992   7.191   7.487   1.075
 5793W        W 9993   3.130  10.800  11.297
 5794W        W 9994   0.306  10.063   1.393
 5795W        W 9995   8.622   1.986   1.450
 5796W        W 9996   5.165   1.938  10.944
 5797W        W 9997   4.706   6.059  10.775
 5798W        W 9998  10.062   7.593   1.357
 5799W        W 9999   2.183   9.765   2.655
 5800W        W10000  10.357   4.968   8.842
 5801W        W10001   4.681  10.547   1.807
 5802W        W10002   6.992   0.375   0.129
 5803W        W10003   0.600  11.350  11.776
 5804W        W10004   9.210   5.219  11.331
 5805W        W10005   8.028   5.668   8.682
 5806W        W10006   8.562  11.036   1.773
 5807W        W10007   2.520   4.779   2.875
 5808W        W10008   3.719   3.077   9.047
 5809W        W10009   3.572   9.509   3.605
 5810W        W10010   2.598   9.359   0.734
 5811W        W10011   2.669   4.302  10.273
 5812W        W10012   3.693   4.254   2.161
 5813W        W10013   8.469   9.582   0.163
 5814W        W10014   7.721   6.431   9.165
 5815W        W10015   1.916   0.985   0.744
 5816W        W10016   8.981  10.879   2.535
 5817W        W10017   2.833   5.560  10.765
 5818W        W10018  10.887  10.533   0.867
 5819W        W10019   5.651  10.136   9.873
 5820W        W10020   5.669   9.512   3.298
 5821W        W10021   6.487   1.212   2.347
 5822W        W10022   6.094   1.513   8.962
 5823W        W10023   0.865   4.862   8.514
 5824W        W10024   8.697   4.740   9.280
 5825W        W10025   6.230   1.683   2.982
 5826W        W10026   6.665   0.580  11.764
 5827W        W10027   4.685   1.304   0.793
 5828W        W10028   9.449   8.766  10.835
 5829W        W10029   2.665   9.081  11.200
 5830W        W10030   3.668   2.339   1.890
 5831W        W10031   0.013   8.946   2.345
 5832W        W10032   1.841   8.748   1.939
 5833W        W10033   8.947   8.448  11.034
 5834W        W10034   8.047   4.794   1.718
 5835W        W10035   7.093   6.501   1.179
 5836W        W10036   5.968   8.480   0.328
 5837W        W10037   9.899   1.863   2.495
 5838W        W10038   8.646   6.462   9.135
 5839W        W10039   6.224   3.640   3.141
 5840W        W10040   2.655   8.853   1.407
 5841W        W10041   3.653   9.940   1.349
 5842W        W10042   0.875   4.604  11.800
 5843W        W10043  11.414   3.653  11.466
 5844W        W10044  10.479   5.709  11.919
 5845W        W10045   7.497   4.077   9.815
 5846W        W10046   7.895   7.926   3.133
 5847W        W10047   1.457   9.892   9.284
 5848W        W10048  10.507   0.043   2.841
 5849W        W10049   2.245  10.660   0.873
 5850W        W10050   2.890   3.444  11.349
 5851W        W10051  11.426   1.067  11.283
 5852W        W10052   8.292   3.733   0.858
 5853W        W10053   5.216   9.775   1.191
 5854W        W10054   0.314   7.476   9.291
 5855W        W10055  10.410   4.216   1.786
 5856W        W10056   8.917   0.127   8.773
 5857W        W10057   0.365   8.357   1.476
 5858W        W10058  10.773   1.826   1.236
 5859W        W10059   1.172  10.318   2.354
 5860W        W10060  10.080   3.256  11.448
 5861W        W10061   6.416   7.833  10.895
 5862W        W10062   6.047   4.327   0.851
 5863W        W10063   6.643   1.289   0.434
 5864W        W10064   7.994   4.260  11.115
 5865W        W10065   8.736   5.804  10.569
 5866W        W10066   7.414   8.288  10.075
 5867W        W10067   8.929   8.076   9.893
 5868W        W10068   6.747  11.422   1.346
 5869W        W10069   1.625   6.174   9.523
 5870W        W10070   1.698   0.949  10.146
 5871W        W10071   1.745   2.431   3.579
 5872W        W10072   6.839   1.392   1.493
 5873W        W10073   5.226   2.154  11.846
 5874W        W10074  11.363   0.399  11.723
 5875W        W10075   2.156   9.164   2.030
 5876W        W10076   8.907   8.520   2.201
 5877W        W10077   3.884   7.044   3.259
 5878W        W10078  10.802   5.867   3.603
 5879W        W10079   2.496   7.066  10.498
 5880W        W10080  10.478   5.643   1.407
 5881W        W10081   3.192   5.623  11.528
 5882W        W10082   7.934   7.019   9.577
 5883W        W10083   6.665   0.353   3.023
 5884W        W10084   9.382   3.222   8.507
 5885W        W10085   4.715   7.036   9.021
 5886W        W10086   5.083   7.154  10.974
 5887W        W10087   8.329   4.818   2.169
 5888W        W10088  11.318   4.793   0.287
 5889W        W10089   2.355   8.671   2.806
 5890W        W10090   6.467   8.021   8.678
 5891W        W10091  11.053   2.849   1.875
 5892W        W10092   6.529   8.474   9.906
 5893W        W10093   5.559   3.272   9.801
 5894W        W10094  10.545   5.543  11.043
 5895W        W10095  10.290   0.288   1.350
 5896W        W10096   3.422  10.196   0.644
 5897W        W10097   4.917   1.154  10.515
 5898W        W10098   2.662  10.967  11.259
 5899W        W10099   7.530  10.175  11.920
 5900W        W10100   2.122   6.657   0.357
 5901W        W10101  10.381   1.063   9.695
 5902W        W10102   7.334   8.343   1.400
 5903W        W10103   2.561   8.840  10.350
 5904W        W10104   2.693   5.824   1.590
 5905W        W10105   7.485   9.565   2.808
 5906W        W10106   8.648   3.273   2.641
 5907W        W10107   6.460  11.400   2.820
 5908W        W10108   5.297   4.766   9.422
 5909W        W10109   1.678   9.753  10.102
 5910W        W10110   0.270   7.601   2.746
 5911W        W10111   2.860  10.398   1.387
 5912W        W10112  10.399   3.819   1.213
 5913W        W10113   6.214   8.178   9.090
 5914W        W10114   9.513   0.233   0.593
 5915W        W10115   6.048   7.098   1.706
 5916W        W10116   4.481  10.498  10.582
 5917W        W10117   0.384  11.032   8.968
 5918W        W10118  11.075   1.863   0.794
 5919W        W10119   3.379   9.788   0.950
 5920W        W10120   5.427   1.057  10.433
 5921W        W10121   6.568   9.517   1.635
 5922W        W10122   6.187   1.838   8.412
 5923W        W10123   0.325   8.463   8.795
 5924W        W10124   1.664   3.142  11.945
 5925W        W10125   9.022   8.539   3.286
 5926W        W10126   4.651   8.754   9.786
 5927W        W10127   9.295   2.833   8.931
 5928W        W10128   7.261  11.466   1.322
 5929W        W10129   6.304   8.815   0.021
 5930W        W10130   9.439   6.180   8.695
 5931W        W10131  10.009   4.571   1.784
 5932W        W10132   1.729   1.936   3.525
 5933W        W10133   1.008   2.247   3.666
 5934W        W10134  11.272   9.469  10.521
 5935W        W10135   2.599   1.097   8.781
 5936W        W10136  10.885   4.721   9.958
 5937W        W10137   2.129   6.810  10.759
 5938W        W10138   7.137   7.953  11.955
 5939W        W10139   1.443  10.881  10.742
 5940W        W10140   9.260   7.492  11.918
 5941W        W10141   4.261   8.473   1.824
 5942W        W10142  10.013   5.782   1.222
 5943W        W10143   4.488  10.643   2.291
 5944W        W10144  10.074   2.656  11.967
 5945W        W10145   2.781   8.603   1.977
 5946W        W10146  10.514   4.549  10.292
 5947W        W10147   7.404   9.872  10.988
 5948W        W10148   4.165  11.111   2.238
 5949W        W10149   8.240   8.582   0.819
 5950W        W10150   8.970   6.773   0.500
 5951W        W10151   6.708   1.865   9.804
 5952W        W10152   1.607   0.671   0.422
 5953W        W10153   9.164   6.731   2.664
 5954W        W10154   8.996   7.392   0.803
 5955W        W10155   7.113   5.566   9.967
 5956W        W10156   2.629   9.917   1.355
 5957W        W10157  11.320   0.673   0.156
 5958W        W10158   7.126   2.532   0.257
 5959W        W10159   5.304   5.243   1.484
 5960W        W10160   5.218   0.222  10.179
 5961W        W10161  11.011   8.893   2.285
 5962W        W10162   0.684   9.252   8.868
 5963W        W10163   7.456   1.850   2.453
 5964W        W10164  10.979   5.978   8.966
 5965W        W10165   2.724  11.386   2.898
 5966W        W10166   0.694   4.111  11.537
 5967W        W10167   8.885   5.583  11.023
 5968W        W10168  11.182   7.213  11.483
 5969W        W10169   5.787   6.991  10.072
 5970W        W10170   9.206   2.332   3.482
 5971W        W10171   1.774  11.284   2.305
 5972W        W10172   6.935   2.225  10.086
 5973W        W10173  10.466   7.506   8.881
 5974W        W10174   0.909   0.224   1.644
 5975W        W10175   8.606   8.979  11.481
 5976W        W10176   1.430   9.785   2.030
 5977W        W10177   4.280   4.334   2.815
 5978W        W10178  10.067   5.075   1.942
 5979W        W10179  10.396  11.073  11.604
 5980W        W10180  10.616   3.162   2.873
 5981W        W10181  10.969   7.672  10.798
 5982W        W10182   7.027   7.129  11.048
 5983W        W10183   9.359   9.525  11.688
 5984W        W10184  10.598   8.005   0.899
 5985W        W10185   5.055   5.235  10.955
 5986W        W10186   1.575   1.936   2.629
 5987W        W10187   1.464   4.497   1.092
 5988W        W10188   9.246   7.064  11.511
 5989W        W10189   0.207   9.437   2.610
 5990W        W10190   1.069   6.682   0.319
 5991W        W10191  11.425   1.501  11.568
 5992W        W10192   6.245   8.980   9.391
 5993W        W10193   3.732  10.830   2.284
 5994W        W10194   6.164   5.710  11.749
 5995W        W10195   5.534   1.843   2.672
 5996W        W10196   2.510   8.967   9.475
 5997W        W10197  10.027  10.960   0.426
 5998W        W10198   9.928   8.531   3.494
 5999W        W10199   6.944   7.073   3.607
 6000W        W10200   4.215  10.021  10.285
 6001W        W10201   3.313  10.337  11.309
 6002W        W10202   3.016   6.228   1.585
 6003W        W10203   2.834   0.378   2.926
 6004W        W10204   6.148  11.003  11.925
 6005W        W10205   7.989   6.105   2.011
 6006W        W10206   4.554   4.327  11.367
 6007W        W10207   5.042   0.176   0.753
 6008W        W10208   4.066   9.693  11.064
 6009W        W10209   9.969   8.546   2.965
 6010W        W10210   5.118   3.587   3.202
 6011W        W10211  10.429   1.923  10.049
 6012W        W10212   2.665   5.492   3.597
 6013W        W10213   7.671   9.858  10.509
 6014W        W10214   8.267   5.578   1.203
 6015W        W10215   3.879   0.765  11.754
 6016W        W10216   1.026   7.019   3.634
 6017W        W10217   2.268   7.934   3.208
 6018W        W10218   0.517   7.920   3.602
 6019W        W10219   7.930   1.426   9.742
 6020W        W10220   1.354   2.529   8.796
 6021W        W10221   8.259   8.063  10.553
 6022W        W10222  10.852   0.971   2.229
 6023W        W10223   0.503   1.902   1.001
 6024W        W10224   9.368   9.615   9.418
 6025W        W10225   7.932   5.181   2.268
 6026W        W10226   8.798   4.601   2.272
 6027W        W10227   5.134   3.706   0.205
 6028W        W10228   9.286   7.132   2.359
 6029W        W10229   8.351   0.452   9.431
 6030W        W10230   7.914  11.250   0.755
 6031W        W10231   1.012   7.319  10.923
 6032W        W10232   9.142   5.157   9.895
 6033W        W10233   6.529  10.263   0.317
 6034W        W10234   6.989   3.594   2.677
 6035W        W10235   6.198  11.433   1.882
 6036W        W10236   6.144   9.478   3.525
 6037W        W10237   1.477   8.859   3.627
 6038W        W10238   5.521   9.567   0.789
 6039W        W10239  11.013   3.223   9.116
 6040W        W10240   0.713   6.499   3.511
 6041W        W10241  11.494   5.356  11.228
 6042W        W10242   2.730   4.051   2.504
 6043W        W10243   9.773   3.085   0.022
 6044W        W10244   7.098   4.454  10.846
 6045W        W10245   3.802   6.968   0.623
 6046W        W10246   7.391   6.655   2.240
 6047W        W10247  11.040  10.985   9.524
 6048W        W10248   6.986   8.652  11.556
 6049W        W10249   4.629   7.216   1.034
 6050W        W10250   1.736   0.320   2.142
 6051W        W10251   5.505   4.549   9.839
 6052W        W10252  10.406   3.048  11.087
 6053W        W10253  10.187   7.048   1.405
 6054W        W10254   2.435   8.628   9.859
 6055W        W10255   8.429   0.298  10.997
 6056W        W10256  10.933   5.394   3.471
 6057W        W10257  10.600   1.397   2.411
 6058W        W10258   9.592   8.241   0.895
 6059W        W10259   3.653   9.488  11.310
 6060W        W10260   6.581   0.337  10.559
 6061W        W10261   3.661   5.776   9.944
 6062W        W10262   6.978   1.751  11.764
 6063W        W10263   9.851   8.146  10.317
 6064W        W10264  10.366   3.986   2.573
 6065W        W10265   8.243   2.178   2.761
 6066W        W10266  10.217   2.179  11.402
 6067W        W10267   2.408  10.470   3.120
 6068W        W10268   3.807   9.801  10.086
 6069W        W10269   8.644   0.949   8.610
 6070W        W10270   2.598   4.879   1.787
 6071W        W10271   6.051   3.232   2.867
 6072W        W10272   2.686   3.391   9.433
 6073W        W10273  10.020   7.677  10.616
 6074W        W10274   6.908   5.877  10.907
 6075W        W10275   5.948  10.810   2.200
 6076W        W10276   4.488   7.677   1.255
 6077W        W10277   9.632  11.071   1.424
 6078W        W10278   5.979   5.043   2.220
 6079W        W10279   9.931   2.197   9.358
 6080W        W10280   4.550   4.462   4.060
 6081W        W10281   9.081   8.235   0.970
 6082W        W10282   6.059   8.475  10.782
 6083W        W10283  10.191  10.370   2.144
 6084W        W10284   6.269   8.493   8.661
 6085W        W10285   7.692   3.490   1.185
 6086W        W10286   1.834   1.729   2.216
 6087W        W10287   3.134  11.339   9.592
 6088W        W10288   8.960   0.687  11.790
 6089W        W10289   0.781   9.270   9.846
 6090W        W10290   9.349   4.744   0.814
 6091W        W10291   2.207   5.742   1.453
 6092W        W10292   0.771   4.307   9.092
 6093W        W10293   8.916   3.917   9.008
 6094W        W10294   0.290   9.782   0.425
 6095W        W10295   1.933   7.786   8.601
 6096W        W10296   4.851   8.937   1.014
 6097W        W10297  10.875   5.055   9.556
 6098W        W10298   7.371   9.644   9.285
 6099W        W10299   4.341   9.465   2.480
 6100W        W10300  11.084   4.307   1.022
 6101W        W10301   0.884   4.128   2.169
 6102W        W10302   5.801   6.159  10.222
 6103W        W10303   3.458   9.533   9.837
 6104W        W10304   9.934   1.712   1.533
 6105W        W10305   9.498   5.369   0.153
 6106W        W10306   2.848   5.731   0.705
 6107W        W10307   6.986   4.741  11.657
 6108W        W10308   8.771   8.583   1.721
 6109W        W10309   3.901   9.827   0.898
 6110W        W10310   9.563   3.755  11.356
 6111W        W10311   3.674   0.246  10.526
 6112W        W10312   4.619   6.993  11.068
 6113W        W10313   7.833   0.862  11.245
 6114W        W10314   8.481  11.284  10.036
 6115W        W10315   2.768  10.645   0.178
 6116W        W10316   8.970   2.827  10.607
 6117W        W10317   4.453  10.875   3.461
 6118W        W10318  10.333  10.634  11.308
 6119W        W10319   3.737   8.101   0.298
 6120W        W10320   2.833   8.198  11.490
 6121W        W10321   4.712   3.302  10.546
 6122W        W10322   1.166   8.967   9.748
 6123W        W10323  10.125   1.455  11.342
 6124W        W10324   6.245   1.373   9.474
 6125W        W10325   0.484   7.842  10.408
 6126W        W10326   3.112   8.927   0.475
 6127W        W10327   3.345   0.431   0.519
 6128W        W10328   5.198   8.161   9.413
 6129W        W10329  11.210   2.794   9.346
 6130W        W10330   9.347  10.526   2.322
 6131W        W10331   9.017  10.483   3.336
 6132W        W10332   0.343   8.849  11.373
 6133W        W10333   2.172   2.397   9.528
 6134W        W10334   8.030   0.373   1.480
 6135W        W10335   9.697  11.455   9.430
 6136W        W10336   1.700   4.818  11.538
 6137W        W10337   1.954  10.535   1.788
 6138W        W10338   8.138   8.906   0.356
 6139W        W10339   6.303   6.684   1.848
 6140W        W10340   4.204   4.627  11.761
 6141W        W10341   7.102   8.939   0.576
 6142W        W10342   4.172   2.724   3.626
 6143W        W10343   2.984   3.703   3.637
 6144W        W10344   3.732   8.845   9.231
 6145W        W10345   6.437   0.467   0.207
 6146W        W10346   6.180  11.271   2.351
 6147W        W10347   5.154   6.575   0.681
 6148W        W10348   5.204  11.084   2.762
 6149W        W10349   2.733   0.196  10.437
 6150W        W10350   7.709  10.754   2.174
 6151W        W10351   8.148  11.039   1.414
 6152W        W10352   5.456   8.019  10.764
 6153W        W10353  10.291   1.297   0.693
 6154W        W10354   5.505   8.556   3.800
 6155W        W10355   9.526   2.516   0.596
 6156W        W10356   5.160   4.468   2.872
 6157W        W10357   0.942   3.151   3.588
 6158W        W10358   2.376  11.148   0.974
 6159W        W10359   3.642   6.906  10.660
 6160W        W10360   6.604   5.622  10.103
 6161W        W10361   6.438   2.392  11.455
 6162W        W10362   1.979   8.443  10.893
 6163W        W10363   1.190   9.449   9.513
 6164W        W10364   6.306   7.184   0.432
 6165W        W10365   8.840   1.680   0.184
 6166W        W10366   9.780   2.833   2.343
 6167W        W10367   4.029   4.626   1.390
 6168W        W10368   5.464  10.104   2.891
 6169W        W10369   6.190  10.227   9.006
 6170W        W10370   7.043  10.908   9.093
 6171W        W10371   5.725   2.816   2.888
 6172W        W10372   1.162   1.674  11.753
 6173W        W10373  11.493   9.100  11.951
 6174W        W10374   7.873   5.467  11.887
 6175W        W10375   5.551   7.085  11.171
 6176W        W10376   4.298   2.050   8.794
 6177W        W10377   6.170   6.480   1.415
 6178W        W10378   3.244  10.047   2.799
 6179W        W10379   0.723   1.150   0.197
 6180W        W10380   0.277  10.065   9.022
 6181W        W10381   7.140   9.997   9.595
 6182W        W10382  10.927   6.231   2.503
 6183W        W10383   6.674  10.341   2.211
 6184W        W10384  10.845   3.427   9.622
 6185W        W10385   7.942   1.316  10.255
 6186W        W10386   9.822   4.240   9.809
 6187W        W10387   7.320   0.719   2.291
 6188W        W10388   0.921   8.064   2.531
 6189W        W10389  10.382   9.910   9.977
 6190W        W10390   3.731   6.480   0.358
 6191W        W10391   5.380   5.501   2.742
 6192W        W10392   1.848   4.105   1.347
 6193W        W10393   9.107  10.735   8.945
 6194W        W10394  10.116   1.727   9.094
 6195W        W10395  10.278   0.749   3.311
 6196W        W10396   1.339   6.596  11.346
 6197W        W10397   6.521   1.756   9.278
 6198W        W10398   9.316   0.464   8.744
 6199W        W10399   6.604  10.527   9.679
 6200W        W10400   1.795   8.542  10.422
 6201W        W10401   6.566   4.199   0.243
 6202W        W10402   0.645   4.537   3.389
 6203W        W10403   9.315   4.146  11.991
 6204W        W10404   6.693   9.447   1.149
 6205W        W10405   9.943  10.578   1.746
 6206W        W10406   2.108   7.594   0.246
 6207W        W10407   8.877   1.020   2.891
 6208W        W10408   8.529  10.381   3.163
 6209W        W10409   6.971  11.445  11.872
 6210W        W10410   3.402   9.908   1.804
 6211W        W10411   6.201   8.590   0.847
 6212W        W10412  11.205   7.915  10.364
 6213W        W10413  11.223   0.855   3.069
 6214W        W10414   7.735   0.756  10.028
 6215W        W10415   8.136   5.423   0.742
 6216W        W10416   9.069   5.687   1.123
 6217W        W10417   6.150   7.533   3.583
 6218W        W10418   8.835   1.454   0.883
 6219W        W10419   5.970  11.352  10.374
 6220W        W10420   5.958   8.087   8.629
 6221W        W10421   8.462   7.408   2.337
 6222W        W10422   4.580   0.061  11.996
 6223W        W10423  10.007   3.310   2.265
 6224W        W10424   8.712   8.408   9.577
 6225W        W10425  11.357   3.209   2.142
 6226W        W10426   0.695   1.655   0.021
 6227W        W10427   4.888   2.294   0.617
 6228W        W10428   9.414   8.379   3.633
 6229W        W10429  10.283   2.679  11.451
 6230W        W10430  10.581   8.075   9.109
 6231W        W10431   8.544   8.820   3.281
 6232W        W10432   0.933  10.297  11.846
 6233W        W10433   8.207   5.969  10.479
 6234W        W10434   2.327   9.782   3.671
 6235W        W10435   3.625   7.249   0.071
 6236W        W10436   4.744   9.929  11.445
 6237W        W10437   0.369  10.297  10.496
 6238W        W10438   9.288   0.565  10.946
 6239W        W10439   5.042   1.839   2.800
 6240W        W10440   2.005  10.224   0.747
 6241W        W10441   1.007   6.063  10.787
 6242W        W10442   4.896   7.535   3.066
 6243W        W10443   5.373   0.463   3.298
 6244W        W10444   7.935   0.492  10.878
 6245W        W10445   4.553   3.213   1.688
 6246W        W10446   2.260   6.734   1.798
 6247W        W10447   9.336   1.438   0.018
 6248W        W10448   3.786   0.339   1.915
 6249W        W10449   7.487   3.560  10.009
 6250W        W10450   4.520   7.520  11.820
 6251W        W10451   4.599   3.889  10.036
 6252W        W10452   5.748   5.679   9.541
 6253W        W10453   8.876  10.280  11.532
 6254W        W10454   5.470   1.368  11.511
 6255W        W10455   5.190   0.479   9.751
 6256W        W10456  11.468   6.891   2.654
 6257W        W10457   1.916   8.108  11.308
 6258W        W10458   5.980   5.334   0.743
 6259W        W10459  10.851   7.293  10.493
 6260W        W10460   5.689   8.048   1.557
 6261W        W10461   0.939  10.983   2.784
 6262W        W10462   0.805   6.387  11.995
 6263W        W10463   1.367  11.230   2.708
 6264W        W10464   7.280   6.908   1.432
 6265W        W10465   4.759   9.318  11.205
 6266W        W10466   8.920   9.017   2.049
 6267W        W10467   8.582   4.562   0.429
 6268W        W10468   8.895   4.237   1.678
 6269W        W10469   7.857   3.534   3.646
 6270W        W10470   5.630   8.013   0.990
 6271W        W10471   0.867   9.683  11.029
 6272W        W10472   9.901  11.463   2.167
 6273W        W10473   1.842   0.363   3.135
 6274W        W10474   9.064   6.232  11.150
 6275W        W10475   9.869  10.446  10.595
 6276W        W10476   7.838   5.616   2.585
 6277W        W10477  11.340   6.509   2.310
 6278W        W10478   0.146   2.196  10.304
 6279W        W10479   3.539   4.259  11.496
 6280W        W10480  10.501   0.389  10.459
 6281W        W10481   9.672   0.725   1.677
 6282W        W10482   3.978   3.646   1.198
 6283W        W10483   2.615   6.192   0.755
 6284W        W10484  11.085   4.707  11.824
 6285W        W10485   1.641   4.819   0.507
 6286W        W10486   4.164  10.557  11.006
 6287W        W10487   1.634   1.835   8.515
 6288W        W10488   3.680   8.354   9.424
 6289W        W10489   1.440  10.738   2.507
 6290W        W10490   4.266  10.370   9.574
 6291W        W10491   7.291   3.688   3.155
 6292W        W10492   1.202   4.559   0.632
 6293W        W10493   7.592  10.350  11.437
 6294W        W10494   8.998   9.818   9.117
 6295W        W10495   3.308   2.110   0.868
 6296W        W10496   4.232   2.004   2.200
 6297W        W10497   3.378   1.800  10.796
 6298W        W10498   1.353   8.053   2.270
 6299W        W10499   3.099   4.269   9.131
 6300W        W10500   7.143   3.048   1.921
 6301W        W10501   2.693   9.061   2.811
 6302W        W10502   7.668   3.653   9.506
 6303W        W10503  10.951  10.951   3.130
 6304W        W10504   7.723   0.388  10.406
 6305W        W10505   2.334   4.374   2.643
 6306W        W10506   8.411   2.859   9.516
 6307W        W10507   3.400   4.449   8.498
 6308W        W10508   9.151   6.813   3.958
 6309W        W10509   6.700   2.832  10.061
 6310W        W10510   7.855   1.001   8.892
 6311W        W10511   3.871   6.488  10.449
 6312W        W10512   5.691   1.867   1.112
 6313W        W10513   9.565   1.848   9.259
 6314W        W10514   8.945  11.218   9.099
 6315W        W10515   1.471   0.730   3.009
 6316W        W10516   2.670   8.686  11.546
 6317W        W10517   6.866  10.119   3.188
 6318W        W10518   6.928   1.933   8.995
 6319W        W10519   3.648   9.381  10.330
 6320W        W10520   9.481   0.544   3.410
 6321W        W10521   5.045   4.629   8.187
 6322W        W10522   9.994   2.337   0.366
 6323W        W10523   2.147   4.619   1.885
 6324W        W10524   6.767   8.384   8.480
 6325W        W10525  10.653   6.084  10.275
 6326W        W10526   7.489   1.254  10.027
 6327W        W10527   4.110   1.899   9.618
 6328W        W10528   5.940   9.170   9.033
 6329W        W10529   1.384   3.587   9.008
 6330W        W10530   9.578   6.130  11.051
 6331W        W10531   1.069   4.519   2.573
 6332W        W10532   1.740   3.927   8.901
 6333W        W10533   1.925   2.102   1.387
 6334W        W10534   3.740   3.137  10.802
 6335W        W10535   5.643   1.002   0.849
 6336W        W10536   9.436   0.837  11.353
 6337W        W10537   5.481   7.045   1.375
 6338W        W10538   3.643   9.542  11.877
 6339W        W10539  10.424   7.110   3.245
 6340W        W10540   0.161   2.378   3.278
 6341W        W10541  10.387   4.050   3.102
 6342W        W10542   9.422   3.173   3.259
 6343W        W10543   0.927   4.046   2.671
 6344W        W10544   8.191   3.850   2.930
 6345W        W10545   7.911   7.994   0.126
 6346W        W10546   0.750   4.690   0.909
 6347W        W10547   8.162   2.386   9.338
 6348W        W10548   5.622   4.754   2.010
 6349W        W10549   3.917   8.934   0.961
 6350W        W10550   8.894   6.022   1.852
 6351W        W10551   6.705   0.903   9.813
 6352W        W10552   8.806   3.454  11.990
 6353W        W10553   6.554   2.595   0.916
 6354W        W10554   6.931   6.015   1.812
 6355W        W10555   9.522   8.625   9.427
 6356W        W10556   1.325  10.800   0.412
 6357W        W10557   3.721   8.387  10.792
 6358W        W10558   0.819   1.749   9.956
 6359W        W10559   1.812   9.351   0.333
 6360W        W10560   2.356   5.230  10.002
 6361W        W10561   9.315   1.698   0.864
 6362W        W10562   9.848   0.181   2.767
 6363W        W10563   9.435  11.035   9.252
 6364W        W10564   1.993   2.679   3.192
 6365W        W10565   9.311   1.088   1.715
 6366W        W10566  10.409   5.948   9.031
 6367W        W10567   3.084   1.114   9.697
 6368W        W10568   8.458   7.509   0.413
 6369W        W10569   5.491   9.992   3.377
 6370W        W10570   9.106   1.915   3.180
 6371W        W10571   9.429   3.304   9.845
 6372W        W10572   9.327   5.732  11.271
 6373W        W10573   0.524   6.980   3.499
 6374W        W10574  10.251   3.220   3.362
 6375W        W10575   3.646   3.134   9.894
 6376W        W10576   1.390   8.118   9.257
 6377W        W10577   0.414   9.803   2.899
 6378W        W10578   1.412   0.378   3.392
 6379W        W10579   6.603   7.043   2.720
 6380W        W10580   7.354   3.572  11.879
 6381W        W10581   7.644  11.052   0.318
 6382W        W10582   4.826   8.924   2.001
 6383W        W10583   4.221   4.366   3.662
 6384W        W10584   5.465   8.471   0.246
 6385W        W10585   1.759   2.216   9.807
 6386W        W10586   8.613   5.904   2.285
 6387W        W10587   1.200   9.929  10.250
 6388W        W10588   3.038   7.415   1.164
 6389W        W10589   9.820   2.853   1.391
 6390W        W10590   6.094   0.402   1.192
 6391W        W10591   4.346  11.324   1.341
 6392W        W10592   5.964   6.269   1.855
 6393W        W10593   0.815  10.497  11.396
 6394W        W10594   7.092   2.736   1.118
 6395W        W10595   5.337   4.174   8.303
 6396W        W10596   1.398  10.962   9.017
 6397W        W10597   4.617   9.197   8.908
 6398W        W10598   1.160   9.991   0.231
 6399W        W10599   4.928   3.359   0.914
 6400W        W10600  11.172   1.615   3.503
 6401W        W10601   4.905   2.830   9.496
 6402W        W10602  10.136   7.976   9.322
 6403W        W10603   5.212  10.101  11.345
 6404W        W10604   2.751   3.860  10.497
 6405W        W10605   7.181   3.012   2.437
 6406W        W10606   2.845   6.034   0.290
 6407W        W10607   9.452   5.671   8.902
 6408W        W10608   8.450   4.100   8.765
 6409W        W10609  11.010   2.291   0.492
 6410W        W10610   5.236   2.404   9.447
 6411W        W10611   2.159   9.034  10.028
 6412W        W10612   4.032  10.412   2.418
 6413W        W10613   0.428   6.960   0.217
 6414W        W10614   9.578   5.035   1.217
 6415W        W10615   3.325  10.407   1.641
 6416W        W10616   3.387   6.658   0.693
 6417W        W10617   3.282   1.594   0.659
 6418W        W10618   4.619   8.422  11.248
 6419W        W10619   7.955   2.833   9.239
 6420W        W10620  10.387   1.808   3.191
 6421W        W10621   3.673   1.274   0.820
 6422W        W10622   1.662   9.101   9.873
 6423W        W10623   4.592   5.238  10.183
 6424W        W10624   5.142   0.433  11.271
 6425W        W10625   8.145  10.756   1.882
 6426W        W10626   2.402   9.315  10.743
 6427W        W10627  10.435   3.983  11.415
 6428W        W10628   6.144   2.840   9.394
 6429W        W10629   1.348   7.582   0.666
 6430W        W10630   4.030   2.895   8.619
 6431W        W10631  10.114   3.820   0.466
 6432W        W10632  11.326   1.387  10.293
 6433W        W10633   8.014   6.997   0.203
 6434W        W10634   1.124   9.479  11.441
 6435W        W10635  11.387   9.838   2.467
 6436W        W10636   9.581  11.116  10.722
 6437W        W10637   4.186   8.143  11.427
 6438W        W10638   9.407   6.888   1.164
 6439W        W10639   4.729   5.746   1.798
 6440W        W10640   3.142  10.965  10.357
 6441W        W10641   7.172   2.917   0.631
 6442W        W10642   6.670   0.032   9.634
 6443W        W10643   7.141  10.481   0.945
 6444W        W10644   9.608   1.254   2.170
 6445W        W10645   3.825  11.258   0.439
 6446W        W10646   6.742   7.999   4.068
 6447W        W10647   1.261   9.377   1.738
 6448W        W10648   4.188   6.640   3.143
 6449W        W10649   9.532   8.724  11.328
 6450W        W10650   1.199   5.922   0.840
 6451W        W10651   0.044   0.521   2.157
 6452W        W10652   2.903   7.972   1.822
 6453W        W10653   4.748   4.444   8.594
 6454W        W10654  10.450   3.746  10.343
 6455W        W10655   6.070   4.579   8.895
 6456W        W10656   3.380  11.491   8.675
 6457W        W10657   0.927   5.086  10.812
 6458W        W10658   0.209  10.551  10.091
 6459W        W10659   9.147  10.835  10.717
 6460W        W10660   7.592   6.075   1.037
 6461W        W10661   9.529   9.116   3.391
 6462W        W10662   7.696   2.147  11.304
 6463W        W10663   0.461   9.112  11.803
 6464W        W10664  10.360   5.460  10.133
 6465W        W10665   8.879   3.302   2.151
 6466W        W10666   0.367   8.958   2.713
 6467W        W10667   9.170   3.297  10.718
 6468W        W10668   4.804   8.497   9.366
 6469W        W10669  11.239   4.757   2.902
 6470W        W10670   7.210  11.238   2.350
 6471W        W10671   6.105   4.045   0.398
 6472W        W10672   1.864   3.720   9.802
 6473W        W10673  11.258   8.642   2.680
 6474W        W10674   1.537   8.272  11.638
 6475W        W10675   8.021  11.475   8.874
 6476W        W10676   0.698   5.281   8.785
 6477W        W10677   3.791   9.297  10.849
 6478W        W10678   2.777   6.986   9.251
 6479W        W10679   8.061   5.959  11.915
 6480W        W10680   3.899   2.364  10.292
 6481W        W10681   8.411   1.303  10.000
 6482W        W10682   0.462  10.917   2.149
 6483W        W10683   0.872   2.350  11.179
 6484W        W10684   9.636   6.104   3.369
 6485W        W10685   2.653   5.154   3.193
 6486W        W10686   1.750   8.951   0.804
 6487W        W10687   7.001  10.712  11.257
 6488W        W10688  11.067   7.213   2.624
 6489W        W10689   9.843   5.463  10.390
 6490W        W10690   1.290   3.246   3.217
 6491W        W10691   7.544   2.836   0.263
 6492W        W10692   4.388   0.507  11.090
 6493W        W10693   0.858   9.990   2.679
 6494W        W10694  10.333   0.887   0.994
 6495W        W10695   5.579   6.912   9.531
 6496W        W10696   0.218   6.610   3.690
 6497W        W10697   6.424   8.120   2.434
 6498W        W10698   5.621   3.659   2.811
 6499W        W10699   5.275   3.130  10.203
 6500W        W10700   1.351   5.830   1.317
 6501W        W10701   8.403   7.931   9.507
 6502W        W10702   5.729   0.863   8.654
 6503W        W10703   7.445   0.012  10.700
 6504W        W10704   9.019   2.029  11.869
 6505W        W10705   8.841   9.917   1.550
 6506W        W10706   4.185   8.237  10.931
 6507W        W10707  10.037   8.635  10.217
 6508W        W10708   6.414   0.459   9.730
 6509W        W10709   5.154  11.109   2.244
 6510W        W10710   2.861   6.982   0.346
 6511W        W10711   1.825   1.762   9.519
 6512W        W10712   7.887   0.181   9.328
 6513W        W10713   9.313   1.716  10.893
 6514W        W10714   4.019  11.307   1.754
 6515W        W10715   0.478   0.583   0.957
 6516W        W10716  11.390   9.512   0.270
 6517W        W10717   2.204  10.985  11.880
 6518W        W10718  10.440   0.829  10.166
 6519W        W10719   8.788   9.482   8.774
 6520W        W10720   0.032   8.125   9.528
 6521W        W10721   9.583   1.652   0.431
 6522W        W10722   5.239   4.275   0.386
 6523W        W10723   0.653   4.998   0.047
 6524W        W10724   3.485   7.812  10.357
 6525W        W10725  10.095   6.982  11.741
 6526W        W10726   4.077  11.414  11.991
 6527W        W10727   4.182   0.353   1.030
 6528W        W10728   1.750   8.101  10.131
 6529W        W10729   7.528   8.884   3.510
 6530W        W10730  10.461   9.858   2.437
 6531W        W10731   6.107   7.159   2.207
 6532W        W10732  10.339   4.691   0.948
 6533W        W10733  10.479   5.138   1.199
 6534W        W10734   7.849   9.931   3.132
 6535W        W10735  11.476   7.124   1.736
 6536W        W10736   6.144  10.339   9.878
 6537W        W10737   7.623   0.250   3.204
 6538W        W10738   2.883   6.636   0.752
 6539W        W10739   2.765  10.404  11.210
 6540W        W10740   4.197   3.583   3.298
 6541W        W10741  10.467   8.460   1.680
 6542W        W10742   0.201   0.857   9.215
 6543W        W10743   5.566   8.812  11.450
 6544W        W10744   5.981   8.308   9.926
 6545W        W10745   7.358   2.101   0.422
 6546W        W10746   3.135   1.809   3.007
 6547W        W10747   1.420   5.304   1.784
 6548W        W10748   5.976   8.637   9.059
 6549W        W10749   0.322   1.820   0.532
 6550W        W10750   0.317   4.684   2.070
 6551W        W10751   1.692   9.924   3.376
 6552W        W10752   1.334   6.606   2.167
 6553W        W10753   0.549   4.393   2.463
 6554W        W10754   5.761   0.793   1.314
 6555W        W10755   1.569   6.174   2.935
 6556W        W10756   0.434   8.080   2.641
 6557W        W10757   9.018   7.218   1.325
 6558W        W10758   1.735  10.897   3.347
 6559W        W10759   9.798   5.622   8.510
 6560W        W10760   0.623   7.679   2.289
 6561W        W10761   6.238   7.911   3.216
 6562W        W10762   4.394   5.382   0.258
 6563W        W10763   4.919   5.206   0.011
 6564W        W10764   6.578   0.364   9.228
 6565W        W10765   0.871   6.827  10.845
 6566W        W10766   6.512   9.098   1.922
 6567W        W10767   2.708   2.035   9.975
 6568W        W10768   5.026   8.406   9.842
 6569W        W10769   9.290   3.294   0.022
 6570W        W10770   8.391   7.913   3.626
 6571W        W10771   1.240   6.801   1.108
 6572W        W10772   8.917   2.134  11.382
 6573W        W10773   8.553   4.028   1.242
 6574W        W10774  10.134   5.917  10.327
 6575W        W10775   1.739   1.008   2.625
 6576W        W10776   4.210   4.342  10.919
 6577W        W10777   6.000  11.449   0.906
 6578W        W10778   1.048   6.223  11.557
 6579W        W10779   8.947   6.638  11.501
 6580W        W10780   5.475   6.196   0.820
 6581W        W10781   0.833   0.496  11.324
 6582W        W10782   2.595   0.212   1.496
 6583W        W10783   6.886   2.538   9.037
 6584W        W10784   7.822   9.359   2.023
 6585W        W10785   9.511   7.901   2.701
 6586W        W10786   5.591   5.672   1.485
 6587W        W10787   4.179   8.304   0.455
 6588W        W10788   7.706   6.920   1.005
 6589W        W10789   1.255   1.797   3.629
 6590W        W10790   6.162   6.211  10.579
 6591W        W10791   9.465   1.921   1.351
 6592W        W10792   2.300   3.137   0.888
 6593W        W10793   2.224   9.120   1.525
 6594W        W10794   7.113   3.808   0.291
 6595W        W10795   4.047   4.276   9.121
 6596W        W10796   2.812   0.676  11.863
 6597W        W10797   4.141  10.403   2.929
 6598W        W10798   9.531   4.885  11.002
 6599W        W10799   8.983   9.469  10.932
 6600W        W10800  11.442   2.142   8.599
 6601W        W10801   8.028  11.482  10.857
 6602W        W10802   8.636   1.800  10.385
 6603W        W10803   4.768   8.497   1.744
 6604W        W10804   8.629   0.215   9.791
 6605W        W10805   4.096   5.123   9.029
 6606W        W10806   3.213   7.213   9.422
 6607W        W10807   3.712   7.276  11.569
 6608W        W10808   5.541   7.120   0.825
 6609W        W10809   4.931   1.405   1.246
 6610W        W10810   9.561   7.056   3.756
 6611W        W10811   0.983   0.116   3.538
 6612W        W10812   3.795   9.555   9.422
 6613W        W10813  11.325   0.193   1.185
 6614W        W10814   0.930   8.778  10.837
 6615W        W10815   1.470  10.394   9.485
 6616W        W10816   6.227  10.394   2.508
 6617W        W10817   9.452  11.049   0.033
 6618W        W10818   0.385   2.166   9.285
 6619W        W10819   7.374   3.357   0.396
 6620W        W10820   2.425   4.591   8.804
 6621W        W10821   9.922   7.244   0.975
 6622W        W10822   0.471   3.831   9.056
 6623W        W10823   9.542   3.810   9.830
 6624W        W10824   8.611   1.300   0.441
 6625W        W10825   0.300   9.051   9.834
 6626W        W10826   8.002  10.322  11.790
 6627W        W10827   6.246   7.888  10.002
 6628W        W10828   2.792   0.943   0.778
 6629W        W10829   2.879   4.449   1.870
 6630W        W10830   6.097  10.059  10.732
 6631W        W10831  10.449   1.692   1.651
 6632W        W10832   0.431  11.383   2.766
 6633W        W10833   2.130   6.448   2.204
 6634W        W10834   5.398   4.077   3.109
 6635W        W10835   3.115   0.811   0.269
 6636W        W10836   7.625  10.733   3.516
 6637W        W10837   4.554   7.110   0.134
 6638W        W10838  10.829   6.604   1.695
 6639W        W10839   2.458  10.751   8.700
 6640W        W10840   7.024   6.912   1.933
 6641W        W10841   0.302   1.932   2.361
 6642W        W10842   2.666   7.055   0.996
 6643W        W10843   1.557   6.199   8.712
 6644W        W10844   6.064   9.275  10.099
 6645W        W10845   6.109   0.826   0.921
 6646W        W10846   6.163  10.230   0.680
 6647W        W10847   3.654   7.888  10.907
 6648W        W10848   7.433   4.657  11.916
 6649W        W10849   9.783   0.544  10.943
 6650W        W10850   7.135   7.899   0.570
 6651W        W10851   1.432   3.060   8.873
 6652W        W10852  10.817   9.039   1.839
 6653W        W10853   8.582   8.890  10.950
 6654W        W10854   9.058   8.884  11.763
 6655W        W10855   1.778   6.773   2.343
 6656W        W10856   7.460  10.882  11.443
 6657W        W10857   1.783   3.852   1.800
 6658W        W10858   1.499   5.640   8.849
 6659W        W10859   5.448   8.174   3.453
 6660W        W10860   9.420   9.598   0.523
 6661W        W10861   0.838   1.952   0.598
 6662W        W10862   4.871   3.936  11.324
 6663W        W10863  10.162   4.320   2.209
 6664W        W10864   8.530   0.934  11.693
 6665W        W10865   2.191   4.607  10.487
 6666W        W10866   1.097   9.023  10.272
 6667W        W10867   7.964   2.719   0.910
 6668W        W10868   2.235   0.000  10.425
 6669W        W10869   7.071   1.431   9.114
 6670W        W10870   1.033   8.489   1.297
 6671W        W10871   7.445   0.708  10.940
 6672W        W10872   6.499   8.618   2.613
 6673W        W10873  10.245   4.128  10.087
 6674W        W10874   1.491   1.473   8.858
 6675W        W10875   2.256  10.680  11.412
 6676W        W10876   0.977   0.020  11.456
 6677W        W10877   1.250   8.127  10.030
 6678W        W10878   2.074   3.969   3.580
 6679W        W10879   1.651   6.581   1.309
 6680W        W10880   1.380   6.697   8.803
 6681W        W10881   9.267   2.439   1.797
 6682W        W10882   8.373   4.094   9.786
 6683W        W10883   5.031   5.275   9.910
 6684W        W10884   0.255   4.080   0.354
 6685W        W10885   4.151   1.873   0.867
 6686W        W10886   7.035   4.262   9.103
 6687W        W10887   2.373   6.653   0.832
 6688W        W10888   7.014   4.084  10.483
 6689W        W10889   8.889   2.645  11.471
 6690W        W10890   8.986   2.685  10.110
 6691W        W10891  10.500   3.552   0.257
 6692W        W10892   4.030   4.024  11.854
 6693W        W10893   9.857   5.565   2.152
 6694W        W10894   7.935   7.160  11.299
 6695W        W10895   8.246   8.261   3.993
 6696W        W10896   8.706   5.519   9.382
 6697W        W10897   7.559   9.183   0.569
 6698W        W10898   8.016   6.515   3.232
 6699W        W10899   5.443   8.129   8.627
 6700W        W10900   0.078   4.221   1.130
 6701W        W10901   1.208   2.191   0.927
 6702W        W10902   9.966   9.228   1.313
 6703W        W10903   1.403   8.993   2.433
 6704W        W10904   3.703   1.888   0.644
 6705W        W10905   5.099   8.602  11.358
 6706W        W10906  10.869  10.399   0.303
 6707W        W10907   6.166   7.107   9.071
 6708W        W10908   0.925   6.137   0.438
 6709W        W10909   6.204   8.490   3.164
 6710W        W10910  11.270   0.805   9.505
 6711W        W10911   0.928   0.819   1.134
 6712W        W10912   7.512   8.090   1.860
 6713W        W10913   7.601  10.022   9.004
 6714W        W10914   5.229   8.808   4.174
 6715W        W10915  11.146   0.465   3.403
 6716W        W10916   6.054   3.552   0.495
 6717W        W10917   5.260  10.457   1.579
 6718W        W10918   8.510  11.297   8.775
 6719W        W10919   6.695   3.234  11.146
 6720W        W10920  10.886   3.768  11.565
 6721W        W10921   9.807  10.127  10.217
 6722W        W10922   0.409   5.698   9.065
 6723W        W10923   8.592   9.289   1.310
 6724W        W10924   7.576   2.580   9.550
 6725W        W10925   0.749   4.127   1.668
 6726W        W10926   8.697   3.649  11.512
 6727W        W10927   3.974   7.707   2.655
 6728W        W10928   5.765  11.362  11.301
 6729W        W10929   7.090   7.371   0.358
 6730W        W10930   7.422   1.817   9.053
 6731W        W10931   8.826   0.204   9.290
 6732W        W10932   7.390   9.241   8.950
 6733W        W10933   4.256  10.848   2.700
 6734W        W10934  11.168   2.412   0.968
 6735W        W10935   2.988   2.252   3.317
 6736W        W10936  10.962   9.287   1.414
 6737W        W10937   1.407   3.778  11.992
 6738W        W10938   1.585   1.258   8.381
 6739W        W10939   2.790   0.212   9.427
 6740W        W10940   8.431   2.726   9.031
 6741W        W10941   7.019  10.768   9.908
 6742W        W10942   2.408   2.765   2.159
 6743W        W10943   9.111   1.949   1.752
 6744W        W10944   1.591   5.710   9.736
 6745W        W10945   2.026   8.076  10.562
 6746W        W10946   1.054   6.118  10.178
 6747W        W10947  11.205   4.108   3.468
 6748W        W10948   7.495   5.688  10.294
 6749W        W10949   7.873   6.108   2.922
 6750W        W10950   7.635   4.714   8.618
 6751W        W10951   9.436   9.061   1.341
 6752W        W10952   4.076   4.573   3.213
 6753W        W10953   3.178   6.690   9.464
 6754W        W10954   7.819   1.860   0.386
 6755W        W10955   9.305   3.719   0.695
 6756W        W10956  10.549   1.677  10.505
 6757W        W10957   4.149   4.777   1.887
 6758W        W10958   8.107  11.072   2.295
 6759W        W10959   4.648   2.134   3.004
 6760W        W10960   1.789  10.674   0.625
 6761W        W10961   2.008   2.771   0.018
 6762W        W10962  10.654   9.529   1.750
 6763W        W10963  10.850   5.485   9.098
 6764W        W10964   9.840   5.627   2.661
 6765W        W10965   2.820   4.659   8.040
 6766W        W10966  10.090   5.249   9.698
 6767W        W10967   4.339   7.314  10.084
 6768W        W10968   4.228   3.816   1.619
 6769W        W10969   7.950   2.700   1.931
 6770W        W10970   6.167   4.542   2.201
 6771W        W10971   2.888   4.876  10.385
 6772W        W10972   0.679   6.149   9.812
 6773W        W10973   5.211   8.184   0.677
 6774W        W10974   5.187   9.623   9.517
 6775W        W10975   3.789   4.142   9.661
 6776W        W10976  11.041   9.791  10.888
 6777W        W10977   7.091   6.762   2.867
 6778W        W10978   3.352   7.423   2.131
 6779W        W10979   3.751   5.737   0.975
 6780W        W10980   8.726   5.943   0.301
 6781W        W10981   0.283  10.315   0.502
 6782W        W10982   0.127   6.180  11.640
 6783W        W10983   1.667   7.558   9.503
 6784W        W10984   5.109   8.431  10.877
 6785W        W10985   7.517   5.726   0.678
 6786W        W10986  10.816   8.131  10.642
 6787W        W10987   5.645   2.904   0.942
 6788W        W10988  10.663   4.348   2.265
 6789W        W10989  11.052   1.383  11.151
 6790W        W10990   3.709   7.415  10.594
 6791W        W10991   1.321   1.955  10.765
 6792W        W10992   6.753  11.190  11.263
 6793W        W10993   4.122   1.223   9.941
 6794W        W10994   5.810   2.529   0.476
 6795W        W10995   0.048   0.332   2.700
 6796W        W10996   4.322  10.489   1.440
 6797W        W10997   6.974   7.579  10.319
 6798W        W10998   5.775   5.756   2.983
 6799W        W10999   6.801   1.650  10.362
 6800W        W11000   8.815  11.010  10.362
 6801W        W11001   8.443   9.045   0.891
 6802W        W11002  10.950   3.166   2.492
 6803W        W11003   1.840   3.149  11.452
 6804W        W11004   6.221  11.483   9.350
 6805W        W11005   0.876   5.450   0.244
 6806W        W11006   9.956   7.950  11.444
 6807W        W11007   9.648   5.617   3.147
 6808W        W11008   5.571   7.661  11.918
 6809W        W11009   5.207   9.661   3.007
 6810W        W11010   5.250   0.625   8.694
 6811W        W11011   4.104   8.968   9.599
 6812W        W11012   5.191   9.936   0.296
 6813W        W11013  10.791   6.153   1.481
 6814W        W11014   9.635   3.936   0.367
 6815W        W11015   9.897   5.792   1.709
 6816W        W11016   9.110   4.693   1.854
 6817W        W11017   5.376   3.285   3.545
 6818W        W11018   4.117   5.484   1.273
 6819W        W11019   1.770   2.706   9.057
 6820W        W11020   7.852   1.297   0.791
 6821W        W11021  11.149   0.270   2.364
 6822W        W11022   0.367  10.462   1.892
 6823W        W11023   2.101   8.939  10.536
 6824W        W11024   9.958   9.146  10.098
 6825W        W11025   0.797   8.212   3.027
 6826W        W11026   2.366   4.804   2.356
 6827W        W11027   6.958   5.347  11.029
 6828W        W11028   5.791   8.130   3.082
 6829W        W11029   1.837   4.332   2.755
 6830W        W11030   9.838   8.982  10.570
 6831W        W11031  10.902   2.320   1.409
 6832W        W11032   8.837   0.655  11.205
 6833W        W11033   2.227   6.207   8.897
 6834W        W11034   0.683   0.944   0.661
 6835W        W11035  10.038   3.244  10.297
 6836W        W11036   8.016   2.697   1.422
 6837W        W11037   0.140   9.320  11.334
 6838W        W11038   5.148   9.173   8.093
 6839W        W11039   6.203   2.822  10.796
 6840W        W11040   8.391   2.235  10.252
 6841W        W11041   8.443  11.483  11.932
 6842W        W11042   6.669  10.263   1.699
 6843W        W11043   6.481   7.621   9.557
 6844W        W11044   8.476   2.878   1.014
 6845W        W11045   7.449   1.427   2.719
 6846W        W11046   9.650   5.794  11.768
 6847W        W11047   3.168   3.840   1.575
 6848W        W11048   4.533   9.813  11.914
 6849W        W11049   2.281   4.401   1.323
 6850W        W11050   8.874   7.146  10.737
 6851W        W11051   5.377   1.433   9.715
 6852W        W11052   4.260   0.712   9.915
 6853W        W11053   6.135   0.841   2.942
 6854W        W11054   1.856   8.562   2.755
 6855W        W11055   7.048   1.325   3.076
 6856W        W11056   8.462   2.124   2.217
 6857W        W11057   7.258   6.700  10.829
 6858W        W11058  11.336  10.334   9.012
 6859W        W11059   4.388   2.327   0.716
 6860W        W11060   8.848   6.014   9.321
 6861W        W11061   1.433   3.640   9.509
 6862W        W11062  11.259   5.730   8.539
 6863W        W11063   7.453  10.005   0.904
 6864W        W11064  11.479   1.727   9.593
 6865W        W11065   1.649   5.592   2.151
 6866W        W11066   0.737   9.181   3.461
 6867W        W11067  11.345   1.261   9.299
 6868W        W11068  10.867   7.585  11.288
 6869W        W11069   0.703   5.721   9.497
 6870W        W11070   4.465   6.109  11.708
 6871W        W11071   9.318   1.181   0.886
 6872W        W11072   1.480   8.392  10.995
 6873W        W11073   1.299   1.193   3.155
 6874W        W11074   9.939  11.042   8.522
 6875W        W11075   0.796   7.489   8.975
 6876W        W11076   8.999   3.893   2.973
 6877W        W11077  10.464   3.549  11.750
 6878W        W11078   7.151   4.646   0.446
 6879W        W11079  10.856   6.643   2.186
 6880W        W11080   1.311  11.028   3.584
 6881W        W11081   8.402   4.915   1.349
 6882W        W11082   8.711   3.806   9.505
 6883W        W11083   1.857   1.783   9.005
 6884W        W11084   8.069  10.955   8.834
 6885W        W11085   7.863   9.571   9.182
 6886W        W11086   5.924   6.069   0.595
 6887W        W11087   9.372  10.167  10.478
 6888W        W11088   0.821   7.351   3.282
 6889W        W11089   2.818   8.862   9.098
 6890W        W11090   9.542   8.202  11.261
 6891W        W11091   1.196   7.559   1.532
 6892W        W11092   1.268   3.342  11.134
 6893W        W11093   6.146   8.706   1.349
 6894W        W11094   1.432  11.355   3.210
 6895W        W11095   8.695   0.489  10.302
 6896W        W11096  10.500   2.139   0.428
 6897W        W11097   9.461   5.912   1.489
 6898W        W11098  10.912   6.682  11.580
 6899W        W11099   1.722   3.172   9.366
 6900W        W11100   5.906  10.829  10.901
 6901W        W11101   2.164  10.293   2.200
 6902W        W11102   2.285   2.726  10.357
 6903W        W11103   8.508   9.798  10.819
 6904W        W11104   6.400   1.520  10.013
 6905W        W11105  11.426   0.884   1.645
 6906W        W11106   0.417   2.253  11.367
 6907W        W11107   8.141   1.272  11.135
 6908W        W11108   9.631   6.040   2.867
 6909W        W11109   7.037   2.800   3.614
 6910W        W11110   9.628   1.890  10.347
 6911W        W11111   1.888   7.080   0.505
 6912W        W11112   5.111   2.777   3.653
 6913W        W11113   4.864   6.147   9.764
 6914W        W11114   8.023   3.878   2.448
 6915W        W11115   4.646   1.148   9.902
 6916W        W11116   8.396   2.797  11.533
 6917W        W11117   2.767   5.778  11.229
 6918W        W11118   8.433   0.056   1.603
 6919W        W11119   3.818  11.418   1.295
 6920W        W11120  11.384  10.607   0.228
 6921W        W11121   5.818   0.689   0.474
 6922W        W11122   1.774   4.321  10.443
 6923W        W11123   5.102   4.786  10.715
 6924W        W11124  10.590   1.741   0.734
 6925W        W11125   3.574  11.219   0.869
 6926W        W11126   0.098   4.668  10.505
 6927W        W11127   6.221   9.639   1.253
 6928W        W11128  11.423   7.765   9.074
 6929W        W11129   4.543   6.493  10.965
 6930W        W11130   5.280  10.261   2.068
 6931W        W11131   1.478   7.599   2.552
 6932W        W11132   5.970   7.737   1.271
 6933W        W11133   7.337   5.875   0.231
 6934W        W11134   0.191   7.265   2.366
 6935W        W11135   6.064   7.073  11.096
 6936W        W11136   9.567   0.959  10.141
 6937W        W11137   9.919   9.667  10.052
 6938W        W11138   0.947   3.876   8.834
 6939W        W11139   0.744  10.767   9.321
 6940W        W11140   8.646   7.916   2.645
 6941W        W11141  11.179   9.655  11.361
 6942W        W11142   3.361   3.794  11.321
 6943W        W11143  10.423   2.640   0.344
 6944W        W11144   5.719   7.078   2.930
 6945W        W11145   7.257   2.309   2.390
 6946W        W11146   2.495   5.015   7.894
 6947W        W11147  10.017   2.349   2.407
 6948W        W11148   9.598   5.145   2.181
 6949W        W11149   5.233  10.994   1.321
 6950W        W11150   4.402   2.537   8.823
 6951W        W11151  11.484   4.410  11.997
 6952W        W11152   9.024   3.349   0.481
 6953W        W11153   7.548  10.820  10.084
 6954W        W11154   8.894   4.282   9.376
 6955W        W11155  10.292   3.199   1.865
 6956W        W11156   7.427   6.514   0.774
 6957W        W11157  11.036   5.797   1.222
 6958W        W11158   3.235   5.219  10.519
 6959W        W11159  10.712   5.514   2.675
 6960W        W11160  11.443   9.351   8.573
 6961W        W11161   5.199   4.197   0.893
 6962W        W11162   8.989   7.035   8.587
 6963W        W11163   7.439   4.794   0.846
 6964W        W11164   3.144   1.866  11.258
 6965W        W11165  11.044   5.181   2.478
 6966W        W11166   3.655   4.671   1.750
 6967W        W11167   0.741   2.368   0.947
 6968W        W11168   2.711   6.616   1.258
 6969W        W11169   2.265   3.522   3.105
 6970W        W11170   5.710   1.069   9.973
 6971W        W11171   9.570   8.141   2.248
 6972W        W11172   8.077   1.662  11.479
 6973W        W11173  10.421   8.413   9.955
 6974W        W11174   0.355   7.461   9.826
 6975W        W11175   7.230   8.466  10.553
 6976W        W11176  11.459   9.271   1.582
 6977W        W11177  10.490  11.432   8.947
 6978W        W11178   5.137   1.660  11.978
 6979W        W11179  10.855   2.482   3.297
 6980W        W11180   7.873  10.747   9.617
 6981W        W11181   7.429   5.328  11.259
 6982W        W11182   1.713   9.987  11.081
 6983W        W11183  10.484   3.617   2.189
 6984W        W11184  11.237   6.042   9.544
 6985W        W11185   4.199   4.070   2.162
 6986W        W11186   8.249   5.182   8.667
 6987W        W11187   3.254   5.817  11.045
 6988W        W11188   6.030  10.998   9.091
 6989W        W11189   7.347   6.249  11.512
 6990W        W11190   3.234   5.617   1.032
 6991W        W11191   0.691   1.833   1.486
 6992W        W11192   7.458   4.578   9.088
 6993W        W11193   1.153   0.810   3.486
 6994W        W11194   6.928   8.354   2.466
 6995W        W11195   5.622   9.140   9.858
 6996W        W11196   3.019   2.869  11.452
 6997W        W11197   8.656   8.317   8.646
 6998W        W11198   6.025   3.305  10.738
 6999W        W11199  11.480   9.848   9.761
 7000W        W11200   8.475   3.683   9.068
 7001W        W11201   2.332   0.765  11.353
 7002W        W11202   0.293  11.331  11.310
 7003W        W11203   5.351   2.640  10.312
 7004W        W11204   7.983   8.416   0.397
 7005W        W11205   8.849   8.072   3.419
 7006W        W11206   0.002   5.129  10.774
 7007W        W11207   0.522   7.044   9.518
 7008W        W11208   0.849   6.194   9.305
 7009W        W11209   9.346   2.221  10.617
 7010W        W11210   8.639  10.552   0.017
 7011W        W11211   4.177   5.681  10.787
 7012W        W11212   4.856   1.160   0.261
 7013W        W11213  10.981   8.351   3.496
 7014W        W11214   1.523   8.997   9.394
 7015W        W11215   6.110   4.449  10.464
 7016W        W11216  10.417  10.005   8.951
 7017W        W11217  10.434   9.950   1.407
 7018W        W11218   0.395   3.160  11.220
 7019W        W11219   7.640   0.923   1.144
 7020W        W11220   3.398   2.172   2.719
 7021W        W11221   0.604   1.822  10.447
 7022W        W11222   4.723   4.222   3.623
 7023W        W11223   3.092  11.435  11.884
 7024W        W11224   1.179   6.296   2.607
 7025W        W11225   4.710   6.702   8.634
 7026W        W11226   2.584   8.384   2.424
 7027W        W11227   2.356   5.514   9.573
 7028W        W11228   1.348   4.136   1.454
 7029W        W11229  11.450   4.820   8.736
 7030W        W11230   2.414   3.575   0.233
 7031W        W11231   7.062   3.776  10.878
 7032W        W11232   2.610   7.525   1.631
 7033W        W11233   4.604   2.265   1.626
 7034W        W11234   3.685   9.017   1.490
 7035W        W11235   3.941   8.531   9.830
 7036W        W11236  11.454   6.512   1.279
 7037W        W11237   6.991   0.292   1.666
 7038W        W11238   7.230   3.661   1.306
 7039W        W11239  11.062   1.775  10.503
 7040W        W11240   9.680   0.463  10.296
 7041W        W11241   5.457   4.822   3.292
 7042W        W11242   5.720   0.421   2.884
 7043W        W11243   4.126   7.786   0.386
 7044W        W11244   8.006   0.314   2.860
 7045W        W11245   9.363   8.699   0.928
 7046W        W11246   6.016   9.517   2.463
 7047W        W11247   9.244   7.197  10.363
 7048W        W11248   4.526  10.370   3.282
 7049W        W11249   3.090   1.267   2.367
 7050W        W11250  10.928   9.805   1.404
 7051W        W11251   8.457   7.445   3.398
 7052W        W11252  10.706   2.221   0.925
 7053W        W11253   8.118   1.429   0.369
 7054W        W11254   8.538  10.815   2.268
 7055W        W11255   0.242   9.407   3.165
 7056W        W11256   8.858   3.271   1.627
 7057W        W11257   5.973   2.471   1.637
 7058W        W11258   4.289   1.940  11.059
 7059W        W11259   6.722   6.617   0.219
 7060W        W11260   1.423   0.671   3.896
 7061W        W11261   2.534   5.303   0.755
 7062W        W11262   3.905   4.028   3.380
 7063W        W11263   3.793   3.574  10.460
 7064W        W11264   5.256  10.481   9.812
 7065W        W11265   0.701  10.000  11.406
 7066W        W11266   8.989  10.662  11.196
 7067W        W11267   7.943   7.501  11.697
 7068W        W11268   8.223   8.355  11.921
 7069W        W11269  10.872   1.936   3.195
 7070W        W11270  11.461   7.075  10.877
 7071W        W11271   4.298   8.916  11.858
 7072W        W11272   4.979  11.264  10.121
 7073W        W11273   5.218   0.447  10.751
 7074W        W11274   3.704   5.475   9.390
 7075W        W11275   6.877   8.157   1.528
 7076W        W11276   2.972   8.081   3.330
 7077W        W11277   1.799   9.941   2.362
 7078W        W11278   2.925   6.009   1.141
 7079W        W11279   1.875   1.327   1.842
 7080W        W11280   6.055   9.062  10.603
 7081W        W11281   6.072   1.771  11.991
 7082W        W11282   7.594   3.809   2.170
 7083W        W11283   7.567   2.638  10.057
 7084W        W11284   1.985   4.159   2.250
 7085W        W11285  11.021   3.298  11.430
 7086W        W11286  10.744  11.437  10.348
 7087W        W11287   2.607   6.516   0.338
 7088W        W11288  10.529   7.704  10.563
 7089W        W11289   2.279   3.620   0.727
 7090W        W11290   5.947   3.744   8.457
 7091W        W11291   5.273   2.130   0.915
 7092W        W11292   6.927   9.494   9.036
 7093W        W11293  10.586   3.711   9.276
 7094W        W11294   3.414   6.094   2.397
 7095W        W11295   7.234   6.389   0.254
 7096W        W11296   2.897   6.407  10.409
 7097W        W11297   2.681   6.532   3.146
 7098W        W11298   6.748   3.648   3.129
 7099W        W11299   5.140   4.177  10.026
 7100W        W11300   9.605   0.913  10.655
 7101W        W11301   9.025  10.337  10.816
 7102W        W11302   0.985   4.140  11.999
 7103W        W11303   8.024   6.080   3.505
 7104W        W11304   9.279   6.965   9.211
 7105W        W11305   9.477   0.527   2.585
 7106W        W11306   4.979   8.834   9.033
 7107W        W11307   3.304   0.911   0.738
 7108W        W11308   6.699   6.163  10.493
 7109W        W11309   5.721   9.424   1.223
 7110W        W11310   3.802  10.278  11.379
 7111W        W11311   2.531   0.483   2.543
 7112W        W11312   9.529  11.324  11.198
 7113W        W11313   9.579   5.082   3.167
 7114W        W11314   7.588   7.329   1.373
 7115W        W11315   6.594   9.012   1.414
 7116W        W11316   1.332   9.823   2.551
 7117W        W11317  11.382   9.063   9.546
 7118W        W11318   6.575   1.586   0.012
 7119W        W11319   0.406   9.902   2.376
 7120W        W11320   3.329   8.097  11.611
 7121W        W11321   2.753   5.534   9.188
 7122W        W11322  10.121   3.292   0.509
 7123W        W11323   3.550   4.838   3.122
 7124W        W11324   7.873   2.212   0.765
 7125W        W11325   2.235  11.488   8.861
 7126W        W11326   1.144   4.509   9.458
 7127W        W11327   1.863   1.302   9.791
 7128W        W11328   8.213   6.207   9.994
 7129W        W11329   4.108   8.668   1.378
 7130W        W11330   1.508   4.729   9.801
 7131W        W11331   6.110   4.110   9.637
 7132W        W11332   7.202   5.155   0.580
 7133W        W11333   9.912   7.296   3.310
 7134W        W11334   3.045   8.101   0.813
 7135W        W11335   8.483   8.489  11.270
 7136W        W11336   3.670   6.268   0.844
 7137W        W11337   8.366   6.986   2.824
 7138W        W11338  10.820   8.430   2.374
 7139W        W11339   0.483   7.901   1.667
 7140W        W11340  10.267   1.309  11.816
 7141W        W11341   5.288   2.821  11.096
 7142W        W11342  11.437   3.137   1.644
 7143W        W11343   7.618   7.391   9.158
 7144W        W11344   7.575  10.891   9.072
 7145W        W11345   4.665   1.861   1.952
 7146W        W11346   2.374  10.741  10.027
 7147W        W11347   2.881   6.232  11.432
 7148W        W11348  11.334   3.759  10.851
 7149W        W11349   8.504   2.557   3.027
 7150W        W11350   8.632   8.740   1.256
 7151W        W11351   5.644   8.580   2.829
 7152W        W11352   1.776   0.341  11.966
 7153W        W11353   2.370   7.449   2.287
 7154W        W11354   2.200   8.870  11.522
 7155W        W11355   5.674   7.059  10.614
 7156W        W11356   0.983   1.349  10.944
 7157W        W11357   0.364   8.911   3.229
 7158W        W11358   1.295   9.942   9.759
 7159W        W11359   2.186   9.882   0.303
 7160W        W11360  10.552   7.978   9.659
 7161W        W11361   2.644   2.645  10.763
 7162W        W11362   6.117   6.185   8.708
 7163W        W11363   0.042   2.355   2.322
 7164W        W11364  11.352   4.645   1.333
 7165W        W11365   9.892  11.304   8.986
 7166W        W11366   6.202   9.836   0.324
 7167W        W11367   6.078   6.993   9.580
 7168W        W11368   4.664   4.941   2.300
 7169W        W11369   7.951  11.159   9.297
 7170W        W11370   8.964   1.542  11.694
 7171W        W11371   5.234  10.577   2.826
 7172W        W11372   3.863   5.087   0.526
 7173W        W11373   3.088  11.476   3.241
 7174W        W11374   6.952   8.865   1.776
 7175W        W11375  10.437   2.896  10.254
 7176W        W11376   4.452   7.985  10.549
 7177W        W11377  11.033  10.675   8.736
 7178W        W11378   9.481   3.792   2.160
 7179W        W11379   0.096   3.285   3.154
 7180W        W11380   0.428   6.197   1.305
 7181W        W11381   4.321  10.933   9.796
 7182W        W11382   2.856   1.175  11.929
 7183W        W11383   7.349   9.934   3.215
 7184W        W11384   5.253   7.845   9.019
 7185W        W11385   6.721   8.584  10.565
 7186W        W11386   9.039  10.927   3.040
 7187W        W11387   2.072   9.511   3.304
 7188W        W11388  10.050   4.856   1.364
 7189W        W11389  10.466   8.058   2.442
 7190W        W11390   6.061   4.649  11.368
 7191W        W11391   6.546  10.004   9.833
 7192W        W11392   4.699   6.713   0.917
 7193W        W11393   3.065   1.773   3.506
 7194W        W11394   1.662   1.788  11.098
 7195W        W11395   3.659  10.300   3.071
 7196W        W11396   1.297   7.419  11.753
 7197W        W11397   3.929   6.068   2.354
 7198W        W11398   8.486   2.774   0.028
 7199W        W11399   9.041   9.416  10.406
 7200W        W11400   8.505   8.553   0.308
 7201W        W11401   0.275   8.555   9.304
 7202W        W11402   0.822   3.232   0.496
 7203W        W11403   9.095   2.649   9.604
 7204W        W11404   9.373   0.207   2.999
 7205W        W11405   6.500   9.462   9.872
 7206W        W11406   9.319   1.036   3.437
 7207W        W11407   7.015   8.461   0.415
 7208W        W11408   5.617   9.500   2.767
 7209W        W11409  11.443   8.051   3.523
 7210W        W11410   1.451   5.693  10.712
 7211W        W11411   6.975   0.006   2.715
 7212W        W11412   0.446  10.830   2.673
 7213W        W11413   8.724   2.306   3.393
 7214W        W11414  11.393   7.973  10.847
 7215W        W11415   9.152  11.175   1.184
 7216W        W11416   5.246   3.325   8.333
 7217W        W11417  10.393   4.515   9.802
 7218W        W11418   4.647   6.713   3.404
 7219W        W11419   8.508   7.280   0.885
 7220W        W11420   5.685   4.836   1.457
 7221W        W11421   2.815   2.105   1.398
 7222W        W11422   9.551   9.366   9.841
 7223W        W11423   3.278   0.451  11.929
 7224W        W11424   9.398   3.229   0.807
 7225W        W11425   7.787   3.121  10.088
 7226W        W11426   6.973   7.978   1.063
 7227W        W11427   9.458   0.726   0.723
 7228W        W11428   5.701  10.587   8.966
 7229W        W11429  10.736   4.159   1.395
 7230W        W11430   9.928   6.222   0.950
 7231W        W11431   5.329   4.918   1.096
 7232W        W11432   1.347   1.218  11.547
 7233W        W11433   9.821  10.343   2.512
 7234W        W11434   3.671   6.537  11.467
 7235W        W11435  10.155   4.288   1.345
 7236W        W11436   3.179   0.052   2.724
 7237W        W11437   0.678   9.441   9.361
 7238W        W11438   2.119  11.446  10.945
 7239W        W11439  10.418   1.375  10.094
 7240W        W11440   5.209   8.391  10.333
 7241W        W11441   6.176  10.845  10.070
 7242W        W11442   7.618  10.437   9.308
 7243W        W11443   0.416   9.085   1.734
 7244W        W11444  10.397   1.841   2.674
 7245W        W11445   8.558   2.014   8.493
 7246W        W11446   4.737   0.532  11.985
 7247W        W11447  10.288   9.477   2.122
 7248W        W11448   4.818   0.926   1.134
 7249W        W11449   8.467   3.224   0.288
 7250W        W11450   8.328   7.988   2.241
 7251W        W11451   0.831   8.664   3.293
 7252W        W11452   3.564   8.617   3.855
 7253W        W11453   5.916   4.966   3.089
 7254W        W11454   2.328   2.108   2.865
 7255W        W11455   5.274  10.828   0.124
 7256W        W11456  10.418   6.937   9.932
 7257W        W11457   3.221   6.525  11.722
 7258W        W11458   3.599   6.996   1.938
 7259W        W11459   6.460   5.250   0.932
 7260W        W11460   4.651   7.602   9.800
 7261W        W11461   2.022   2.732   0.886
 7262W        W11462   1.695   9.112   1.625
 7263W        W11463   5.135   4.322  10.989
 7264W        W11464   6.406   7.070   3.537
 7265W        W11465   0.488   7.174  10.807
 7266W        W11466   5.674   2.062   0.611
 7267W        W11467   5.486   8.942   9.028
 7268W        W11468   8.631   0.809   0.317
 7269W        W11469   0.844   6.751   0.820
 7270W        W11470   1.299   7.032   0.629
 7271W        W11471   9.676   8.140   9.454
 7272W        W11472   0.122   3.076   1.171
 7273W        W11473   2.761   1.637   2.228
 7274W        W11474   8.507   5.627   8.495
 7275W        W11475   8.579   8.447  10.674
 7276W        W11476   0.618   7.190   0.983
 7277W        W11477   2.116   9.735   9.809
 7278W        W11478   7.770   6.361  11.001
 7279W        W11479   5.123   0.025   1.264
 7280W        W11480   2.371   6.051   2.379
 7281W        W11481  10.013   9.468   3.004
 7282W        W11482   5.580   7.062   1.924
 7283W        W11483   3.616   6.919   9.335
 7284W        W11484   7.108   0.252   3.277
 7285W        W11485   4.747   2.234   9.037
 7286W        W11486   2.309   3.856   1.297
 7287W        W11487  10.964   3.777   1.021
 7288W        W11488   0.419   5.064   0.504
 7289W        W11489   4.096  10.657  11.503
 7290W        W11490   0.832   1.006  11.308
 7291W        W11491   6.371   2.540   8.181
 7292W        W11492   3.669   7.500   1.747
 7293W        W11493   0.925   5.219  11.330
 7294W        W11494   3.126  10.951   0.420
 7295W        W11495   4.342   4.973   0.576
 7296W        W11496   1.534  10.964   9.906
 7297W        W11497   3.917   2.815  11.595
 7298W        W11498   5.327   4.013  10.492
 7299W        W11499   6.658   4.734   2.155
 7300W        W11500   6.578   7.689   2.752
 7301W        W11501   9.009   6.673   9.943
 7302W        W11502   8.128  11.253  11.353
 7303W        W11503   7.581   3.220   3.320
 7304W        W11504   9.335   1.765   8.741
 7305W        W11505   3.055   0.936  10.609
 7306W        W11506   1.747   5.254   1.391
 7307W        W11507   8.772   5.352  11.616
 7308W        W11508   6.206   1.939   9.794
 7309W        W11509   2.895   7.867   9.007
 7310W        W11510   9.542   2.223   2.699
 7311W        W11511   8.554   6.374   8.171
 7312W        W11512   7.899   4.834   9.049
 7313W        W11513   4.736   8.481   2.271
 7314W        W11514   9.505   3.711   3.420
 7315W        W11515   0.378  10.076  10.000
 7316W        W11516   4.769   1.191   3.736
 7317W        W11517   6.425   2.886   2.763
 7318W        W11518   1.976   3.424   2.697
 7319W        W11519   1.428   7.937   1.770
 7320W        W11520   3.123   6.516   0.257
 7321W        W11521   4.250   0.574   1.975
 7322W        W11522   7.011   2.398   0.745
 7323W        W11523   1.735   8.418   0.602
 7324W        W11524   0.029   2.060   0.908
 7325W        W11525   5.566   2.719   3.892
 7326W        W11526   6.533   3.370  11.619
 7327W        W11527   5.597   4.616   8.262
 7328W        W11528   7.445   8.857   0.942
 7329W        W11529   0.442   9.634  11.935
 7330W        W11530   5.739   1.408   9.326
 7331W        W11531   5.556   2.359   9.856
 7332W        W11532   0.806   5.537  11.717
 7333W        W11533   3.610  10.870   0.200
 7334W        W11534   5.284   9.819  10.400
 7335W        W11535   8.858   9.347  11.920
 7336W        W11536  10.817   3.678   8.819
 7337W        W11537   4.269   7.705   2.257
 7338W        W11538   9.579   6.444   2.572
 7339W        W11539   4.470   8.451  11.732
 7340W        W11540   4.125   5.543   0.683
 7341W        W11541  11.348   8.978   0.985
 7342W        W11542   3.039   9.755   8.389
 7343W        W11543   4.209   1.875   3.190
 7344W        W11544  11.463   1.855   3.146
 7345W        W11545   0.488   3.632   0.472
 7346W        W11546   8.951   3.742   1.445
 7347W        W11547   0.884  10.511  10.544
 7348W        W11548   7.675   1.920  10.636
 7349W        W11549   3.104  11.034   0.934
 7350W        W11550   0.657   4.079   3.646
 7351W        W11551   1.714  11.334   9.585
 7352W        W11552   1.081   1.267   0.851
 7353W        W11553   4.422   4.638   8.935
 7354W        W11554   3.659   3.188   0.393
 7355W        W11555   8.171   7.523   9.716
 7356W        W11556   2.224  10.259  11.038
 7357W        W11557   1.922   3.762   0.259
 7358W        W11558  10.863   3.596  10.661
 7359W        W11559   3.585  10.881   3.313
 7360W        W11560   9.421   1.838   2.249
 7361W        W11561   3.285   0.629  10.029
 7362W        W11562   0.000  11.344   1.497
 7363W        W11563   2.284   2.746   0.450
 7364W        W11564  11.345   8.884  10.054
 7365W        W11565   4.744   5.958   4.057
 7366W        W11566   6.384  10.900  11.077
 7367W        W11567   6.645   5.727  11.520
 7368W        W11568   7.870   2.200   9.737
 7369W        W11569  11.103   3.694   9.255
 7370W        W11570  10.833   4.959   0.356
 7371W        W11571   2.394   9.279  11.756
 7372W        W11572   1.714   5.245   8.493
 7373W        W11573   0.857   9.581   3.016
 7374W        W11574   1.860   7.919   1.499
 7375W        W11575   1.821   5.699   1.129
 7376W        W11576   1.861   7.529   0.733
 7377W        W11577   3.839   3.552   2.668
 7378W        W11578   6.148   9.488   1.950
 7379W        W11579   7.647   4.555   3.754
 7380W        W11580   1.262   6.662   1.637
 7381W        W11581   9.860  10.490   0.299
 7382W        W11582   1.823   4.597   1.446
 7383W        W11583   1.635   5.666  11.190
 7384W        W11584   9.358  10.334   9.975
 7385W        W11585   2.762   5.524   1.188
 7386W        W11586   5.666   7.546   2.680
 7387W        W11587   0.978   4.199  10.564
 7388W        W11588   9.520   4.411   1.795
 7389W        W11589   2.653  10.260   9.565
 7390W        W11590   5.330   4.236   1.971
 7391W        W11591   0.448   1.726   1.933
 7392W        W11592   3.701   1.764   2.564
 7393W        W11593   0.861   0.759   1.672
 7394W        W11594   2.339   7.021   8.547
 7395W        W11595   8.351   5.272  11.943
 7396W        W11596  10.386   2.091   9.565
 7397W        W11597   1.193   5.834   2.911
 7398W        W11598   6.043   2.578   2.107
 7399W        W11599   3.557   5.172   9.005
 7400W        W11600   8.029   5.692   3.841
 7401W        W11601   2.379   6.048   3.302
 7402W        W11602  11.026   8.269   0.796
 7403W        W11603   4.405   0.376   3.315
 7404W        W11604   9.227   0.481   1.591
 7405W        W11605   5.600   4.043  10.962
 7406W        W11606   9.599   7.393   2.677
 7407W        W11607   0.037  10.266   9.480
 7408W        W11608   5.961  10.282   0.203
 7409W        W11609   2.745   9.901   2.643
 7410W        W11610   1.826   7.267   2.314
 7411W        W11611   1.432   8.646  10.065
 7412W        W11612   9.011   5.124   9.413
 7413W        W11613   4.062  10.787   9.369
 7414W        W11614   6.408   7.984   1.531
 7415W        W11615  10.376   4.697   0.384
 7416W        W11616   7.333   5.723   2.426
 7417W        W11617   3.277   8.210  10.601
 7418W        W11618   2.660   0.846   3.081
 7419W        W11619  10.699   9.415   3.110
 7420W        W11620   6.648   3.753  10.334
 7421W        W11621   3.237   6.947   8.981
 7422W        W11622   8.436   0.198   8.416
 7423W        W11623   3.753   2.777   0.661
 7424W        W11624   2.568  11.326   3.384
 7425W        W11625  11.145   7.947   9.847
 7426W        W11626   5.013   3.104   2.337
 7427W        W11627   6.750   9.798  10.449
 7428W        W11628   3.537   4.451   9.352
 7429W        W11629  11.098   8.806   1.424
 7430W        W11630   3.108  10.867   1.480
 7431W        W11631   6.988  11.162   9.521
 7432W        W11632   6.384   9.389   0.466
 7433W        W11633   8.370   9.973   1.748
 7434W        W11634   4.958   3.702  11.744
 7435W        W11635   7.664   1.765  10.108
 7436W        W11636   3.679  10.926   1.682
 7437W        W11637   0.322   4.305   8.833
 7438W        W11638   4.714   5.714   0.030
 7439W        W11639  10.753   0.818   9.422
 7440W        W11640   1.190  11.336   9.831
 7441W        W11641   2.449   8.885   2.344
 7442W        W11642  10.549   4.219   0.927
 7443W        W11643   0.167   2.199  11.828
 7444W        W11644   2.937   2.663   0.011
 7445W        W11645  10.730   5.257   8.557
 7446W        W11646   7.601   8.093  11.764
 7447W        W11647   0.559   5.087   1.841
 7448W        W11648   2.237   3.845  11.844
 7449W        W11649  10.316   0.984  11.417
 7450W        W11650  11.376  10.084  11.129
 7451W        W11651  10.462  11.359   3.350
 7452W        W11652   7.086   1.852   3.453
 7453W        W11653   2.968   2.116   2.240
 7454W        W11654   8.137   9.940   2.709
 7455W        W11655   3.197   9.604  10.273
 7456W        W11656  10.653   0.377   3.249
 7457W        W11657   3.283   4.117   0.842
 7458W        W11658   4.100   6.971   1.952
 7459W        W11659  11.024  10.724   9.975
 7460W        W11660   5.122   7.221  11.505
 7461W        W11661   8.117  10.826   3.269
 7462W        W11662   2.207   5.067   8.640
 7463W        W11663  10.858   0.362   8.528
 7464W        W11664   5.580   7.234   3.797
 7465W        W11665  10.379   5.477   8.844
 7466W        W11666   2.935   2.770   3.360
 7467W        W11667  10.736   9.273  11.619
 7468W        W11668  10.363   5.588   3.058
 7469W        W11669   8.104  10.263   9.586
 7470W        W11670   1.774  10.095   9.737
 7471W        W11671   5.511   4.549   3.755
 7472W        W11672   4.691   9.302  11.770
 7473W        W11673   7.609   4.774   2.169
 7474W        W11674   7.140   8.412   9.250
 7475W        W11675   1.027   4.830   3.613
 7476W        W11676   1.702   8.169   3.463
 7477W        W11677   4.003   7.600  11.893
 7478W        W11678   9.165   3.665  11.684
 7479W        W11679   5.621   0.340   9.504
 7480W        W11680   8.617   8.011  11.519
 7481W        W11681  11.324  10.036   1.161
 7482W        W11682  11.403   8.292   9.060
 7483W        W11683   3.373  10.352   1.126
 7484W        W11684   1.882   8.339   1.081
 7485W        W11685   1.256   9.059  11.137
 7486W        W11686   2.653   9.784   0.439
 7487W        W11687   5.044   5.318   2.363
 7488W        W11688   7.743   2.371   0.272
 7489W        W11689  10.317   9.126   1.745
 7490W        W11690   8.937  10.446   2.820
 7491W        W11691   1.086   4.409   8.692
 7492W        W11692   2.964   8.887   2.395
 7493W        W11693   1.712   1.419  11.892
 7494W        W11694   3.494   2.556   9.017
 7495W        W11695   7.172   8.792   2.256
 7496W        W11696   6.801   7.655   1.411
 7497W        W11697   2.671   0.346   3.425
 7498W        W11698   1.207   9.537   1.242
 7499W        W11699   7.819   8.576  10.010
 7500W        W11700   6.165   7.341   2.688
 7501W        W11701   2.632   0.705   0.345
 7502W        W11702   3.110   1.673   9.103
 7503W        W11703   8.042   4.722  11.296
 7504W        W11704   4.623   8.548   1.261
 7505W        W11705   5.070   6.081   1.973
 7506W        W11706   4.705   4.839   0.948
 7507W        W11707   1.222   0.748   9.438
 7508W        W11708   7.514   2.625   9.054
 7509W        W11709   6.559   9.036  10.727
 7510W        W11710   1.808   6.624   9.586
 7511W        W11711  10.480   0.198   0.470
 7512W        W11712   8.207   8.494  10.314
 7513W        W11713   4.492   5.260  11.739
 7514W        W11714   0.930   3.099   0.974
 7515W        W11715   9.982   6.810   0.699
 7516W        W11716   2.404   8.000   0.070
 7517W        W11717   0.733   5.722   1.986
 7518W        W11718   8.678   2.046   2.947
 7519W        W11719   5.049   4.392  11.499
 7520W        W11720   9.295   8.386   0.509
 7521W        W11721   8.873   2.292  10.438
 7522W        W11722   3.937   2.388   8.615
 7523W        W11723  10.956   5.241  10.044
 7524W        W11724   6.779   5.123  10.146
 7525W        W11725   9.044   2.535   0.464
 7526W        W11726   8.863   4.448   8.869
 7527W        W11727   3.222   8.412   1.781
 7528W        W11728   3.569   4.870   1.260
 7529W        W11729  10.549   3.740   0.724
 7530W        W11730   6.571   3.332  10.031
 7531W        W11731   0.960   4.796   9.051
 7532W        W11732   5.447   8.384  11.701
 7533W        W11733   1.906   3.652   9.301
 7534W        W11734   3.895   2.152  10.792
 7535W        W11735  10.435   1.174  10.559
 7536W        W11736   3.545   5.250   4.114
 7537W        W11737   6.159   2.751   3.171
 7538W        W11738   4.059   9.155  11.399
 7539W        W11739   6.030   4.785  10.855
 7540W        W11740   8.230   8.436   1.376
 7541W        W11741   9.316   1.821  11.454
 7542W        W11742   1.671   6.499   3.308
 7543W        W11743   8.149   7.338   9.248
 7544W        W11744   8.267   1.706   2.986
 7545W        W11745   8.563  10.847   2.856
 7546W        W11746   2.284   4.147   3.139
 7547W        W11747  11.460   9.606  11.777
 7548W        W11748   0.446   2.634   2.876
 7549W        W11749   6.177   5.058   1.327
 7550W        W11750   6.589   9.041   2.907
 7551W        W11751   7.687  11.450  11.523
 7552W        W11752   6.316   0.888   0.457
 7553W        W11753   0.859   8.943  11.513
 7554W        W11754   2.144   9.804  11.286
 7555W        W11755   5.004   7.413   0.048
 7556W        W11756  10.747  10.840   1.278
 7557W        W11757   3.970   7.958   9.174
 7558W        W11758   5.066   4.073   8.731
 7559W        W11759   9.089   3.317   8.936
 7560W        W11760   4.353   9.593   0.365
 7561W        W11761   2.377   6.691   8.990
 7562W        W11762   6.140   6.006   2.245
 7563W        W11763   6.209   4.500   3.031
 7564W        W11764   0.859   5.662   1.162
 7565W        W11765   0.370   9.555   9.957
 7566W        W11766   8.572   5.212   8.178
 7567W        W11767   3.350   2.441   2.281
 7568W        W11768  10.390   0.467   8.791
 7569W        W11769   8.564   3.674  11.026
 7570W        W11770  11.356   8.258  11.295
 7571W        W11771  10.159   0.263   3.183
 7572W        W11772   6.194   6.609  11.326
 7573W        W11773  10.804   3.299   1.875
 7574W        W11774   5.135   7.406  10.100
 7575W        W11775   0.479  10.826  10.428
 7576W        W11776   5.214   8.666   2.578
 7577W        W11777   9.997  11.332  10.902
 7578W        W11778   7.080   9.339   1.492
 7579W        W11779   9.176   8.243   9.446
 7580W        W11780   5.226   1.922   0.419
 7581W        W11781   4.229   4.549   2.353
 7582W        W11782   8.973   8.920  10.231
 7583W        W11783   0.676   2.394   3.285
 7584W        W11784   7.584   6.413   4.014
 7585W        W11785   9.012   6.476   7.888
 7586W        W11786   7.978   6.849  10.860
 7587W        W11787   2.802  11.333   1.221
 7588W        W11788   9.643   4.558   9.313
 7589W        W11789   6.902   7.596  10.830
 7590W        W11790   5.636   9.820  10.859
 7591W        W11791   0.387   6.563   9.683
 7592W        W11792   2.137   0.386   1.345
 7593W        W11793   3.014   2.330  10.640
 7594W        W11794  10.819  10.764  11.397
 7595W        W11795   1.224   7.873   2.914
 7596W        W11796   0.420   7.128   3.013
 7597W        W11797   5.041   8.837  10.544
 7598W        W11798   7.454   1.656   0.726
 7599W        W11799   5.604   0.246  11.012
 7600W        W11800   7.905   7.800   9.350
 7601W        W11801   6.440   9.681  10.868
 7602W        W11802   5.245   2.877   2.718
 7603W        W11803   5.191   6.161  10.467
 7604W        W11804   5.221   2.099   8.469
 7605W        W11805   1.461   0.234  11.242
 7606W        W11806   2.712   1.626   0.125
 7607W        W11807   0.879   6.828   3.143
 7608W        W11808   8.239   3.615   8.629
 7609W        W11809   0.879   9.060   1.958
 7610W        W11810   6.100  11.331  10.899
 7611W        W11811   5.630   9.456  10.284
 7612W        W11812   3.564   0.150  10.043
 7613W        W11813  11.160  10.503   2.893
 7614W        W11814   6.611   8.942   0.421
 7615W        W11815   0.332   4.207   9.369
 7616W        W11816   1.504   7.418  11.151
 7617W        W11817   8.508   2.818  11.005
 7618W        W11818   2.877   9.792   8.962
 7619W        W11819   4.817   2.467  10.443
 7620W        W11820   3.518   1.298  10.733
 7621W        W11821   4.787   7.658   0.817
 7622W        W11822   1.573   5.173   9.506
 7623W        W11823   3.479   5.444   8.540
 7624W        W11824  10.325   5.576   1.926
 7625W        W11825   2.736   5.733  11.750
 7626W        W11826   9.210   5.191   1.892
 7627W        W11827   2.700   3.649   8.976
 7628W        W11828   5.933  10.356   8.543
 7629W        W11829   6.638  10.130   9.357
 7630W        W11830   2.235   2.438   9.021
 7631W        W11831   6.363   8.208   8.212
 7632W        W11832   6.977   0.015  10.475
 7633W        W11833   8.635  10.803   9.936
 7634W        W11834   6.024   4.545   9.931
 7635W        W11835   5.653   2.712  11.492
 7636W        W11836   4.048  10.663   8.665
 7637W        W11837   5.767   3.209   3.867
 7638W        W11838   5.063   0.701  10.339
 7639W        W11839   2.657   4.547  10.704
 7640W        W11840  11.088  11.483  11.768
 7641W        W11841   7.446   1.271  11.842
 7642W        W11842   5.557   5.936  11.096
 7643W        W11843   1.815   6.404   0.026
 7644W        W11844   5.455  11.274  10.297
 7645W        W11845   2.927   8.414   8.388
 7646W        W11846   4.225   5.533  11.308
 7647W        W11847   4.767   7.466   2.264
 7648W        W11848   6.056   2.123  10.602
 7649W        W11849   9.281   8.165  10.259
 7650W        W11850   2.813   1.218   1.911
 7651W        W11851   8.892   1.155   0.014
 7652W        W11852   4.734   9.318  10.691
 7653W        W11853   0.896  11.269   1.950
 7654W        W11854   1.127   2.657   1.137
 7655W        W11855   8.205   6.074   1.226
 7656W        W11856   9.941   0.353   9.629
 7657W        W11857   0.290   6.966   9.995
 7658W        W11858   2.594   8.567   8.725
 7659W        W11859   2.691   5.032   8.396
 7660W        W11860   2.746   4.230   8.298
 7661W        W11861  11.391   4.802  10.071
 7662W        W11862   4.275   2.702  10.208
 7663W        W11863   5.045   4.420   9.099
 7664W        W11864   5.638   9.823   9.350
 7665W        W11865   5.838   3.602   1.414
 7666W        W11866   9.504  10.404   9.030
 7667W        W11867   6.248   5.627   2.613
 7668W        W11868  10.428   5.234   9.293
 7669W        W11869   9.301   7.447   8.532
 7670W        W11870  11.287   8.315   3.088
 7671W        W11871  11.498   6.029   1.085
 7672W        W11872  11.285   4.739   9.568
 7673W        W11873  11.314   1.868  10.061
 7674W        W11874   2.980   6.912  10.353
 7675W        W11875   6.840   7.126  11.530
 7676W        W11876   6.439   6.633   9.544
 7677W        W11877   5.164   2.358  11.313
 7678W        W11878   7.747   5.069  10.763
 7679W        W11879   6.738   3.635   1.276
 7680W        W11880   2.650   1.446   0.782
 7681W        W11881   2.846   2.597   2.381
 7682W        W11882   7.175  10.453   2.928
 7683W        W11883   9.773   9.398   9.091
 7684W        W11884  10.606   4.777  11.931
 7685W        W11885   7.619  10.387   3.152
 7686W        W11886   0.893   1.444   9.519
 7687W        W11887   3.630   3.969  10.131
 7688W        W11888  10.527   5.155   1.714
 7689W        W11889   0.722   9.512   2.523
 7690W        W11890   1.828   5.157   9.943
 7691W        W11891   3.825   3.279  11.347
 7692W        W11892   9.953  10.092   9.736
 7693W        W11893  10.311  11.439   1.854
 7694W        W11894   7.122   2.603  10.832
 7695W        W11895   4.755   9.547   9.221
 7696W        W11896   5.151   9.584  11.390
 7697W        W11897  10.014   2.115   2.921
 7698W        W11898   7.981   5.723  11.479
 7699W        W11899   9.948   4.911   0.062
 7700W        W11900   1.203  10.842  10.279
 7701W        W11901   7.600   0.564   0.757
 7702W        W11902   6.803   7.162   1.225
 7703W        W11903  10.285   0.778   9.237
 7704W        W11904   0.049   6.958  11.865
 7705W        W11905   6.495   4.525   0.643
 7706W        W11906   8.159  11.498   9.710
 7707W        W11907   0.695   3.005   2.375
 7708W        W11908   5.155   7.991   1.148
 7709W        W11909  10.358   0.911   2.403
 7710W        W11910   0.222   9.821  11.390
 7711W        W11911   8.463   9.490  11.642
 7712W        W11912   2.219   0.662   3.367
 7713W        W11913   2.294  10.480  11.937
 7714W        W11914   0.082   1.549   0.880
 7715W        W11915   2.338   8.470   1.274
 7716W        W11916   3.779   3.083   2.832
 7717W        W11917   4.328   9.368   3.645
 7718W        W11918   2.288  11.186   2.297
 7719W        W11919   3.649   7.592   0.423
 7720W        W11920   2.636   4.967   0.365
 7721W        W11921   1.376  10.006  11.759
 7722W        W11922   7.914   1.484  10.747
 7723W        W11923  10.481   1.181   1.538
 7724W        W11924   0.714   3.129   9.306
 7725W        W11925   7.107   1.626  10.823
 7726W        W11926   6.251   7.659   2.293
 7727W        W11927   6.574   6.538   1.101
 7728W        W11928   1.765   2.038   0.506
 7729W        W11929   9.398   1.327  11.508
 7730W        W11930   3.699   3.698   1.657
 7731W        W11931   7.444   4.315   1.966
 7732W        W11932   1.902   1.537   0.480
 7733W        W11933   1.146   9.415   2.241
 7734W        W11934   9.944   6.640   8.721
 7735W        W11935   5.972  10.732   3.311
 7736W        W11936   0.254   9.515   8.992
 7737W        W11937   7.860   5.503  11.015
 7738W        W11938   8.201   9.066   2.206
 7739W        W11939   0.981   3.200   2.774
 7740W        W11940   3.016   4.220  11.509
 7741W        W11941  10.196   4.483  11.935
 7742W        W11942   7.573  10.324  10.287
 7743W        W11943   1.649   9.033   2.872
 7744W        W11944  10.821   6.574   0.679
 7745W        W11945   6.706   0.073   0.429
 7746W        W11946  11.295   6.114   1.543
 7747W        W11947   9.596   3.691  11.917
 7748W        W11948   2.003  11.465   0.865
 7749W        W11949   3.745   7.819   2.158
 7750W        W11950   1.732   5.788   0.644
 7751W        W11951   8.860   8.123   1.483
 7752W        W11952   4.934   6.521   9.086
 7753W        W11953   0.029   2.729   1.983
 7754W        W11954  10.439  11.078  11.088
 7755W        W11955   6.704   2.213   9.389
 7756W        W11956   4.408   1.524   2.278
 7757W        W11957   3.573   4.207   8.916
 7758W        W11958   4.785   0.223  10.955
 7759W        W11959   2.847   7.107   3.266
 7760W        W11960   5.717  10.637   9.941
 7761W        W11961  10.929   4.776   8.588
 7762W        W11962   9.238   9.101   0.618
 7763W        W11963  10.578   2.764  10.712
 7764W        W11964   6.176   1.736   1.008
 7765W        W11965   6.488  10.685   0.809
 7766W        W11966   3.171   4.224   2.271
 7767W        W11967   5.235   6.811   8.765
 7768W        W11968   0.406   5.581   0.042
 7769W        W11969  11.466   6.177   9.061
 7770W        W11970  10.896   5.908  10.991
 7771W        W11971   4.244  10.094  10.797
 7772W        W11972   8.986   9.057   1.053
 7773W        W11973   5.050  11.105   9.326
 7774W        W11974   8.527   5.311   2.380
 7775W        W11975   3.168   3.312   9.985
 7776W        W11976   8.189   0.969   0.105
 7777W        W11977   1.376  10.377  10.484
 7778W        W11978   1.913   4.272   0.424
 7779W        W11979   6.543   3.697   0.381
 7780W        W11980   6.445  10.804   2.288
 7781W        W11981   0.689   9.780   8.943
 7782W        W11982   6.183   4.293  11.881
 7783W        W11983   9.558  11.076   9.802
 7784W        W11984   2.414   5.067  10.509
 7785W        W11985   8.215   5.109  10.992
 7786W        W11986   9.407   3.750   1.189
 7787W        W11987   7.035   7.010   2.430
 7788W        W11988   1.757   7.730   2.145
 7789W        W11989  11.349   9.392   9.986
 7790W        W11990   2.483   3.108  10.613
 7791W        W11991   8.875   9.801  11.674
 7792W        W11992   5.177   1.893   1.836
 7793W        W11993   4.807  11.320   1.616
 7794W        W11994   2.920   3.660   0.241
 7795W        W11995   5.369   2.714   9.028
 7796W        W11996   7.982   0.207  11.868
 7797W        W11997   6.409   9.088   3.752
 7798W        W11998   8.370   3.402   1.764
 7799W        W11999   5.994   0.194   0.225
 7800W        W12000   6.505  10.838  11.577
 7801W        W12001  10.468   2.218   3.528
 7802W        W12002   0.780   6.709   1.812
 7803W        W12003   8.429   1.407  11.963
 7804W        W12004   1.788   1.755  10.033
 7805W        W12005   3.257   8.684  10.329
 7806W        W12006   6.603   6.134   0.800
 7807W        W12007   9.499   8.113   3.198
 7808W        W12008   1.438   3.521   2.054
 7809W        W12009   6.271   8.841  11.086
 7810W        W12010   8.874   6.208   3.230
 7811W        W12011   8.792   9.586   3.180
 7812W        W12012   5.706   5.127   9.143
 7813W        W12013   9.330   3.393   1.786
 7814W        W12014   7.636   5.415   9.810
 7815W        W12015   3.128   2.095   9.689
 7816W        W12016   0.948   1.957   3.222
 7817W        W12017   8.961   0.477   3.266
 7818W        W12018  10.402   6.444   1.990
 7819W        W12019   7.919   4.261  10.045
 7820W        W12020   6.678   2.539  11.990
 7821W        W12021   4.507   5.794   1.072
 7822W        W12022  10.841   7.021   0.921
 7823W        W12023   4.450   3.241   0.774
 7824W        W12024  10.659   9.556   9.533
 7825W        W12025  11.370   5.508   3.227
 7826W        W12026   6.660   2.730   9.497
 7827W        W12027   5.485  10.170  11.803
 7828W        W12028   2.789   4.844   0.845
 7829W        W12029   2.462   9.543   1.712
 7830W        W12030   5.136   6.524   1.177
 7831W        W12031   1.804   3.363   0.834
 7832W        W12032  10.472   9.072   9.433
 7833W        W12033   4.313   8.644   3.673
 7834W        W12034   0.846   0.251   1.130
 7835W        W12035   5.956   8.179   3.570
 7836W        W12036   7.646   6.549  10.534
 7837W        W12037   4.442   4.216  10.452
 7838W        W12038   8.954  10.819   9.444
 7839W        W12039   7.863   6.933   9.076
 7840W        W12040   8.521   6.918   1.402
 7841W        W12041   2.690  10.792   1.135
 7842W        W12042   9.992  11.284   3.097
 7843W        W12043   3.094   7.028   1.938
 7844W        W12044   3.780   5.964  11.029
 7845W        W12045   4.817   6.143  11.301
 7846W        W12046   9.536   8.622  10.343
 7847W        W12047   3.393  10.001   9.205
 7848W        W12048   2.240   7.867   9.456
 7849W        W12049   3.350   3.465   0.070
 7850W        W12050   1.475   7.836  11.982
 7851W        W12051   4.489   2.742   9.769
 7852W        W12052   8.587   9.143   0.436
 7853W        W12053   9.102  11.349  10.809
 7854W        W12054   7.184   2.369   3.385
 7855W        W12055   2.562   2.628  11.285
 7856W        W12056   0.343   4.814   1.265
 7857W        W12057   4.690   0.287   2.900
 7858W        W12058   5.754   4.391   1.701
 7859W        W12059   6.643   6.082   2.256
 7860W        W12060   5.881   2.724   8.979
 7861W        W12061   8.289   5.145   3.211
 7862W        W12062   6.946   5.091   2.387
 7863W        W12063   9.124   8.413  11.508
 7864W        W12064   2.246   5.270   9.104
 7865W        W12065   1.279   4.102   9.753
 7866W        W12066   0.911   0.255   2.144
 7867W        W12067   7.463  11.473  10.181
 7868W        W12068   0.743   2.158   1.951
 7869W        W12069   7.168   0.768  11.846
 7870W        W12070   8.349   4.536  10.292
 7871W        W12071  11.108   4.109   2.292
 7872W        W12072   9.905   3.791   1.340
 7873W        W12073   3.128   9.369   0.756
 7874W        W12074   3.810   1.639   9.933
 7875W        W12075  10.847   4.633  10.827
 7876W        W12076   8.256   6.361  10.813
 7877W        W12077  10.101   3.836   9.536
 7878W        W12078  10.693   4.157  10.577
 7879W        W12079   5.135   7.502  10.603
 7880W        W12080  11.354  10.932   2.685
 7881W        W12081   0.425   5.292   1.392
 7882W        W12082  10.122   3.778   3.452
 7883W        W12083   6.352   3.951   8.186
 7884W        W12084   3.187   5.380   3.736
 7885W        W12085   8.521   0.748   3.221
 7886W        W12086   1.808   6.502   9.075
 7887W        W12087   2.314   1.853   0.452
 7888W        W12088  10.861   3.917  11.077
 7889W        W12089   5.221   1.842  11.433
 7890W        W12090   5.461   8.168   9.894
 7891W        W12091   5.885   2.012   1.891
 7892W        W12092   2.309   7.538  11.787
 7893W        W12093   3.089   0.298   1.390
 7894W        W12094   7.650   3.117  10.967
 7895W        W12095   2.441  10.695  10.892
 7896W        W12096   4.191   3.209  10.454
 7897W        W12097   8.589   4.259   2.860
 7898W        W12098   1.378   0.395   0.832
 7899W        W12099   0.295   0.399   0.008
 7900W        W12100   7.057   0.243   2.210
 7901W        W12101   9.109   6.624   8.869
 7902W        W12102   4.181   7.492   1.822
 7903W        W12103   8.595   1.818   3.375
 7904W        W12104   1.518   0.328   9.581
 7905W        W12105   1.449   2.894   8.352
 7906W        W12106   7.343   6.452  10.098
 7907W        W12107  10.578   7.113   2.751
 7908W        W12108  11.379   9.814   3.394
 7909W        W12109   6.445   9.772   0.808
 7910W        W12110   1.944   7.715   3.541
 7911W        W12111   2.845   1.891   0.543
 7912W        W12112   7.024   4.836   9.111
 7913W        W12113   3.294   6.218  10.704
 7914W        W12114   9.612   3.111   2.759
 7915W        W12115   6.457   6.082  10.979
 7916W        W12116  10.354  10.387   0.224
 7917W        W12117   3.125   6.049  11.842
 7918W        W12118   5.362   1.912  10.018
 7919W        W12119   7.716   5.955  10.697
 7920W        W12120   7.494   5.385   0.245
 7921W        W12121   9.406  10.248   2.780
 7922W        W12122   1.003   9.832   1.662
 7923W        W12123   4.607   1.775   1.418
 7924W        W12124   6.146   2.270   0.766
 7925W        W12125   1.815   2.266   8.748
 7926W        W12126   2.178   7.081  11.566
 7927W        W12127   9.442   9.121   9.378
 7928W        W12128   4.654   1.881  10.294
 7929W        W12129   1.359   7.050   3.249
 7930W        W12130   9.988   3.277  10.848
 7931W        W12131   8.961   5.059   3.747
 7932W        W12132   6.475   9.964  11.897
 7933W        W12133   5.221   8.328   1.573
 7934W        W12134   6.590   2.325   0.465
 7935W        W12135  11.284  10.533  10.405
 7936W        W12136   4.776   0.967   1.636
 7937W        W12137   7.710   8.969  11.427
 7938W        W12138   5.526   7.555  11.433
 7939W        W12139   7.623   3.132   2.014
 7940W        W12140   7.947   6.877  11.717
 7941W        W12141   4.777   9.372   2.220
 7942W        W12142   2.268   6.135   0.270
 7943W        W12143   3.927   0.438   8.810
 7944W        W12144   5.940   0.968   9.489
 7945W        W12145   7.514   4.099   9.270
 7946W        W12146   9.499   1.901   3.552
 7947W        W12147   4.639  11.074   2.050
 7948W        W12148   5.712   1.173   0.351
 7949W        W12149   5.417  10.795  10.722
 7950W        W12150   6.989   4.192   9.968
 7951W        W12151   7.671   7.069  10.483
 7952W        W12152   3.682   6.458  10.932
 7953W        W12153  10.032   8.338   8.374
 7954W        W12154  11.003   0.412  10.328
 7955W        W12155  10.814   4.186   2.738
 7956W        W12156   1.339   6.635   2.954
 7957W        W12157   2.302   4.707   9.271
 7958W        W12158   2.393   1.576   2.924
 7959W        W12159   2.972   7.529   2.554
 7960W        W12160   5.483  11.449   0.883
 7961W        W12161   9.572   5.407   1.621
 7962W        W12162   1.006   7.065   8.726
 7963W        W12163   7.088   3.036   0.115
 7964W        W12164   1.787   5.418   0.298
 7965W        W12165   6.818   3.277   3.749
 7966W        W12166   6.677   5.350  10.588
 7967W        W12167   3.580   1.463   1.288
 7968W        W12168   4.182   7.986   0.881
 7969W        W12169   4.348   4.848   2.782
 7970W        W12170   2.220   0.386   1.956
 7971W        W12171   8.341  10.391   0.429
 7972W        W12172   5.224   9.366  11.862
 7973W        W12173   7.644   2.577  11.795
 7974W        W12174   2.765   2.821   2.864
 7975W        W12175   4.832   2.877  10.125
 7976W        W12176   0.768   7.582   1.273
 7977W        W12177   8.622  10.831   3.373
 7978W        W12178   0.795   4.110   9.566
 7979W        W12179   6.118   0.408   1.700
 7980W        W12180  10.536  10.717   0.562
 7981W        W12181   5.004  10.627   2.343
 7982W        W12182   5.608   9.642   9.815
 7983W        W12183   8.048   7.384   1.666
 7984W        W12184   3.029   9.056   9.556
 7985W        W12185  10.300   3.572   2.960
 7986W        W12186   5.126   1.653   0.846
 7987W        W12187   5.126   1.115   8.822
 7988W        W12188  10.007  10.808   3.267
 7989W        W12189   8.509   0.391  11.492
 7990W        W12190   8.543   7.458   2.841
 7991W        W12191   4.499   0.455   2.410
 7992W        W12192   7.471   3.049   9.698
 7993W        W12193   7.251  10.876   1.964
 7994W        W12194   0.002   5.536  11.722
 7995W        W12195   5.034  10.311   3.205
 7996W        W12196   8.676   9.380   2.329
 7997W        W12197   9.554   1.112   0.355
 7998W        W12198   6.562   9.513  11.643
 7999W        W12199   1.801   5.898   0.133
 8000W        W12200   5.627   3.667   3.307
 8001W        W12201   8.645   1.253   2.492
 8002W        W12202   9.006   4.531  11.875
 8003W        W12203  11.042   9.058   8.737
 8004W        W12204   2.472   7.051  11.069
 8005W        W12205   0.937   9.906   2.181
 8006W        W12206   9.685  10.973   3.655
 8007W        W12207   8.815   7.080  11.247
 8008W        W12208   6.557   2.205   8.800
 8009W        W12209   3.242   6.488  11.200
 8010W        W12210   0.698   3.653   9.804
 8011W        W12211   8.106   6.216   3.987
 8012W        W12212  10.463   8.523   9.443
 8013W        W12213  10.781   9.039  10.737
 8014W        W12214   6.556   4.775   1.647
 8015W        W12215   7.956   4.131   3.672
 8016W        W12216   7.544   2.870  11.396
 8017W        W12217   3.341   2.781   0.333
 8018W        W12218   2.701   6.524   9.534
 8019W        W12219   7.205   6.636   3.703
 8020W        W12220   1.466   2.787   3.032
 8021W        W12221   1.374   6.050   3.388
 8022W        W12222   0.673   5.219   0.936
 8023W        W12223   8.345   5.577  10.817
 8024W        W12224   8.683  10.497   1.768
 8025W        W12225   2.615   8.048   8.593
 8026W        W12226   6.921   9.861  11.671
 8027W        W12227   9.141   1.803  10.407
 8028W        W12228   2.714   6.019   8.993
 8029W        W12229   2.262   6.615  11.840
 8030W        W12230   5.274   6.037  11.505
 8031W        W12231   5.830   2.710   8.338
 8032W        W12232   0.298   7.473   1.417
 8033W        W12233  10.816   7.668  10.143
 8034W        W12234   3.418   5.237   0.322
 8035W        W12235   9.296   9.320   1.810
 8036W        W12236   6.999   9.824   1.671
 8037W        W12237   5.931   8.661  10.312
 8038W        W12238   5.837  11.494   8.996
 8039W        W12239  10.917   7.938   3.216
 8040W        W12240   3.234  10.302   2.158
 8041W        W12241   6.495  11.412  10.261
 8042W        W12242   5.295   9.529   3.656
 8043W        W12243   4.474   1.635   9.883
 8044W        W12244   2.435   2.168  11.461
 8045W        W12245   6.082   8.830   1.835
 8046W        W12246   0.296  10.101   3.303
 8047W        W12247   3.415  10.504   9.925
 8048W        W12248   9.072  10.217   8.772
 8049W        W12249   6.986  10.977  11.687
 8050W        W12250   8.700   5.743   3.114
 8051W        W12251  10.319   2.423  10.408
 8052W        W12252   5.021   6.516  10.099
 8053W        W12253   6.928   9.050   3.712
 8054W        W12254   9.905   4.070   1.787
 8055W        W12255   9.346   6.073   9.218
 8056W        W12256   0.351   1.330  10.372
 8057W        W12257  11.261   4.243   2.975
 8058W        W12258   7.231  11.081  10.405
 8059W        W12259  10.348   1.782   2.169
 8060W        W12260   8.657   5.212  10.626
 8061W        W12261   7.571   4.827  11.453
 8062W        W12262   3.116   4.764   0.420
 8063W        W12263   3.439   8.015   9.111
 8064W        W12264   7.801   3.871   3.263
 8065W        W12265   2.470   7.490  11.309
 8066W        W12266   4.205   3.864  11.035
 8067W        W12267   0.434   0.854   8.755
 8068W        W12268   7.906   0.688   9.303
 8069W        W12269   9.799   2.825  11.579
 8070W        W12270  11.399   8.626   0.141
 8071W        W12271   3.421   9.897  11.546
 8072W        W12272   1.768   4.592   0.013
 8073W        W12273   0.904  11.475   3.006
 8074W        W12274   5.212   5.584   1.868
 8075W        W12275   6.711   0.464   3.543
 8076W        W12276   2.410   7.078   0.550
 8077W        W12277   9.553  11.189   0.514
 8078W        W12278   2.787   6.897   8.729
 8079W        W12279  10.379   5.077   3.285
 8080W        W12280   1.455   3.723   0.492
 8081W        W12281  10.395   5.141   0.661
 8082W        W12282  11.372   8.435   1.648
 8083W        W12283   4.143   4.125  10.040
 8084W        W12284   4.810   0.743   2.690
 8085W        W12285   9.618   2.300   3.204
 8086W        W12286   7.574   7.580   1.840
 8087W        W12287   6.591   2.081   0.927
 8088W        W12288  10.143   8.992   0.499
 8089W        W12289   6.553   0.412   1.431
 8090W        W12290   3.292   6.660   1.633
 8091W        W12291   3.557   8.067   0.798
 8092W        W12292   3.205   3.198   2.747
 8093W        W12293   0.764   2.224   2.807
 8094W        W12294   5.953   3.823  11.860
 8095W        W12295   0.426   3.045   9.744
 8096W        W12296  10.445  10.015   9.476
 8097W        W12297   9.058   5.001  10.364
 8098W        W12298   5.568   9.446   2.216
 8099W        W12299   3.116   5.127   8.679
 8100W        W12300   3.615   9.943  11.057
 8101W        W12301   4.301   2.663   1.455
 8102W        W12302   8.462  10.398   2.621
 8103W        W12303   2.191   2.276   0.746
 8104W        W12304   4.751   0.341   8.394
 8105W        W12305   9.809   7.014   2.334
 8106W        W12306   0.442   4.808  10.123
 8107W        W12307   3.783   5.954  10.486
 8108W        W12308  11.062   2.878  11.716
 8109W        W12309   2.798   0.808  10.023
 8110W        W12310   0.513   9.506  10.713
 8111W        W12311   6.949  11.397   0.862
 8112W        W12312   6.863   6.070   0.342
 8113W        W12313   0.818  11.192  10.171
 8114W        W12314   7.357   8.926  11.771
 8115W        W12315  10.560   8.685   3.411
 8116W        W12316   3.827   2.118   9.058
 8117W        W12317   4.157   1.958  10.128
 8118W        W12318   6.311   6.310   9.174
 8119W        W12319   5.169   1.145   0.849
 8120W        W12320   0.676   5.232   9.291
 8121W        W12321   8.058   5.693   1.673
 8122W        W12322   9.071   8.532  10.540
 8123W        W12323  10.943   9.153  10.269
 8124W        W12324   6.335  10.051  10.295
 8125W        W12325   8.187   6.555   8.950
 8126W        W12326   2.075   7.086   2.723
 8127W        W12327   7.101  10.557   1.486
 8128W        W12328   6.080   9.784   9.945
 8129W        W12329  10.978   4.898   1.614
 8130W        W12330   0.388   2.613  10.489
 8131W        W12331   9.991   0.775   9.933
 8132W        W12332   1.855  11.011  11.486
 8133W        W12333   0.215   4.523   9.755
 8134W        W12334   2.467   6.167   1.287
 8135W        W12335   7.502   9.703   1.337
 8136W        W12336  11.113   7.848   0.032
 8137W        W12337   4.380   8.970   8.524
 8138W        W12338   8.150   3.186  10.445
 8139W        W12339   1.223   9.968  11.281
 8140W        W12340   3.961  10.864   0.808
 8141W        W12341   6.274  10.979  10.553
 8142W        W12342   5.096   9.642  10.881
 8143W        W12343   5.140   2.625   2.281
 8144W        W12344   3.668   4.349  11.977
 8145W        W12345   2.689  11.196  10.412
 8146W        W12346   7.521   4.057  11.830
 8147W        W12347   9.060   9.535   0.880
 8148W        W12348   7.969   8.477  11.428
 8149W        W12349   2.242  10.957  10.507
 8150W        W12350   2.818   3.653   9.859
 8151W        W12351   7.448  10.783  10.739
 8152W        W12352   1.260   1.004  10.441
 8153W        W12353   6.019   3.816   0.927
 8154W        W12354   5.719   4.270   8.646
 8155W        W12355   2.931   3.025   0.942
 8156W        W12356  10.459   7.863  11.045
 8157W        W12357   1.463  10.306   0.510
 8158W        W12358   6.092   8.961   0.492
 8159W        W12359   2.679   0.765   2.148
 8160W        W12360   1.047   1.382   2.349
 8161W        W12361   5.544   1.488  10.201
 8162W        W12362   2.544  11.446   9.993
 8163W        W12363   7.259  10.466   8.944
 8164W        W12364  10.405   8.930   9.927
 8165W        W12365   1.630   9.058  10.374
 8166W        W12366   9.581   6.136   0.530
 8167W        W12367   3.589   6.995   2.841
 8168W        W12368   7.897   5.349   9.059
 8169W        W12369   8.503   1.242   9.008
 8170W        W12370  11.279   6.597  10.953
 8171W        W12371   3.701   2.802   2.171
 8172W        W12372  11.372   2.568  11.999
 8173W        W12373   3.559  10.173  10.339
 8174W        W12374  10.781   7.597   2.878
 8175W        W12375  10.245   9.675  11.252
 8176W        W12376   3.707   7.427   9.321
 8177W        W12377  11.428  10.978  10.155
 8178W        W12378   3.214   6.964  11.988
 8179W        W12379   5.550   4.466  11.699
 8180W        W12380   4.798  10.942   3.082
 8181W        W12381   4.595   6.286   0.652
 8182W        W12382   5.914   7.241   1.216
 8183W        W12383   5.670   6.663   3.594
 8184W        W12384   2.078   0.073   9.867
 8185W        W12385   3.892   5.103   1.578
 8186W        W12386   6.642   8.313   3.395
 8187W        W12387   8.912   7.791   9.460
 8188W        W12388   3.388   1.412   2.780
 8189W        W12389  10.614   5.463   9.698
 8190W        W12390   1.268   6.441   0.725
 8191W        W12391   8.123   6.598   0.494
 8192W        W12392   6.743  10.397   3.644
 8193W        W12393   3.428   8.254   3.534
 8194W        W12394   6.204   7.005  10.591
 8195W        W12395   0.182  10.862  11.162
 8196W        W12396   7.498   0.321   9.029
 8197W        W12397  11.198   2.913   0.945
 8198W        W12398   8.068   0.292   1.978
 8199W        W12399   0.356   8.467   9.805
 8200W        W12400   1.484   1.247   0.499
 8201W        W12401   7.708   8.423   0.829
 8202W        W12402   8.251   2.252   1.748
 8203W        W12403  11.109   1.355   0.942
 8204W        W12404   6.893  10.917   1.040
 8205W        W12405   0.044   0.473   3.729
 8206W        W12406   1.876   9.408  10.910
 8207W        W12407   9.944   6.514   2.219
 8208W        W12408   8.005   2.717   9.777
 8209W        W12409   2.197   9.926  10.282
 8210W        W12410   6.643   1.365  10.791
 8211W        W12411   8.678   6.601   2.641
 8212W        W12412   2.111   5.174   3.148
 8213W        W12413   8.110   8.642  10.810
 8214W        W12414   7.482   8.607   1.823
 8215W        W12415   5.170   6.236  10.962
 8216W        W12416   6.117  10.903   2.697
 8217W        W12417   5.336   6.070   1.282
 8218W        W12418   9.998   5.432  11.903
 8219W        W12419   7.119  10.579  10.385
 8220W        W12420   3.136  11.071   2.908
 8221W        W12421   4.472   3.601   9.162
 8222W        W12422   2.128  10.172   8.935
 8223W        W12423   7.234   3.319   0.927
 8224W        W12424   7.392   9.106   1.890
 8225W        W12425   2.148  11.007   9.598
 8226W        W12426   7.555   0.583   2.755
 8227W        W12427   8.940   4.547  10.164
 8228W        W12428   3.370   9.594  10.777
 8229W        W12429   7.170   5.584   1.954
 8230W        W12430   0.462   4.112   2.888
 8231W        W12431  10.319   7.629   2.690
 8232W        W12432   0.673  11.054  11.119
 8233W        W12433   2.314   2.279  10.922
 8234W        W12434   7.107   1.488   0.380
 8235W        W12435   2.225  10.768   0.359
 8236W        W12436   3.223   9.772   2.289
 8237W        W12437  11.051   7.909   1.147
 8238W        W12438   6.558   7.859  10.398
 8239W        W12439   0.074   3.790   3.626
 8240W        W12440  10.906   3.148  10.944
 8241W        W12441  10.949   0.166   8.998
 8242W        W12442   5.462   3.662  11.791
 8243W        W12443   6.216   4.162   3.455
 8244W        W12444   2.374   4.048   0.372
 8245W        W12445   2.115   2.711  11.498
 8246W        W12446  10.328   4.066   9.014
 8247W        W12447   1.373   2.707   0.135
 8248W        W12448   8.245   0.984   0.622
 8249W        W12449   7.946   4.095   9.532
 8250W        W12450   5.844   7.629   4.006
 8251W        W12451   8.073   4.729   9.898
 8252W        W12452   4.135   5.222  10.531
 8253W        W12453   1.122   4.443   1.812
 8254W        W12454  11.376  10.063  10.613
 8255W        W12455  11.215   6.292  11.369
 8256W        W12456   7.069   6.427   4.171
 8257W        W12457   5.014   4.722   0.206
 8258W        W12458   9.963   9.231  11.976
 8259W        W12459   0.923   3.652   3.423
 8260W        W12460   5.252   4.552   8.647
 8261W        W12461  11.480   3.515   0.391
 8262W        W12462   1.394  11.483   1.839
 8263W        W12463   1.303  11.123   2.202
 8264W        W12464   9.559   6.775  10.366
 8265W        W12465   5.624   6.522   9.881
 8266W        W12466   3.382   7.140   1.485
 8267W        W12467   1.312   5.970   9.186
 8268W        W12468   1.301   9.924   0.780
 8269W        W12469   0.444  11.425   2.261
 8270W        W12470   6.463   2.036  10.247
 8271W        W12471  10.269  10.538  10.266
 8272W        W12472   7.946   0.974  10.721
 8273W        W12473   6.609   7.826   9.110
 8274W        W12474   1.729   7.262   3.526
 8275W        W12475   4.082  10.744   0.045
 8276W        W12476   8.557  10.740   1.338
 8277W        W12477   6.593   5.722   0.036
 8278W        W12478   6.758   7.070   0.657
 8279W        W12479   6.647   3.280  10.545
 8280W        W12480   7.923   6.431   0.917
 8281W        W12481  10.081   5.863   3.398
 8282W        W12482   4.624  10.004  10.010
 8283W        W12483   9.415  10.658   1.220
 8284W        W12484   9.069   4.277   2.620
 8285W        W12485   8.959   5.569   2.136
 8286W        W12486   9.966   6.809   3.178
 8287W        W12487  11.079   0.952  11.758
 8288W        W12488   3.819   4.436  10.264
 8289W        W12489   9.245   5.810   0.201
 8290W        W12490   5.470   6.260   1.733
 8291W        W12491  11.436   7.303   2.983
 8292W        W12492  10.416   9.399   2.671
 8293W        W12493   6.537   8.315   1.166
 8294W        W12494   9.747   7.267  10.398
 8295W        W12495   4.326   7.213   2.369
 8296W        W12496  11.098   6.348   8.389
 8297W        W12497   4.117   4.868   8.576
 8298W        W12498  11.117   3.109   0.491
 8299W        W12499   1.586   6.684   0.385
 8300W        W12500   8.128   9.392   0.524
 8301W        W12501   8.037   9.934   2.193
 8302W        W12502   4.745  10.796   0.286
 8303W        W12503   8.685   8.864   9.822
 8304W        W12504   3.817  10.402   0.355
 8305W        W12505   9.575   8.892   2.710
 8306W        W12506   6.096   3.761   2.663
 8307W        W12507   0.716  10.271   9.159
 8308W        W12508   1.793   6.536   1.811
 8309W        W12509   0.009   5.076   1.649
 8310W        W12510   3.939   9.353   9.879
 8311W        W12511   1.662  11.285  11.075
 8312W        W12512   3.564   5.599   2.461
 8313W        W12513   2.186   0.164   3.522
 8314W        W12514   9.432   9.241  11.253
 8315W        W12515   6.433   1.679   2.026
 8316W        W12516  10.436   5.493   3.582
 8317W        W12517   1.947   3.137  10.488
 8318W        W12518   1.785   0.012   2.750
 8319W        W12519   6.906   8.247  10.217
 8320W        W12520   9.291   9.270   0.136
 8321W        W12521   2.480   7.970  10.366
 8322W        W12522   2.348   1.838   1.468
 8323W        W12523   4.798   8.009   2.872
 8324W        W12524  11.442  10.064   0.142
 8325W        W12525   7.680   5.177   1.814
 8326W        W12526   2.621   0.696  10.499
 8327W        W12527   3.419   6.467   9.072
 8328W        W12528   5.756  11.190   3.465
 8329W        W12529   4.719   9.798   2.480
 8330W        W12530   2.156   3.276  11.886
 8331W        W12531   3.853   7.128   9.745
 8332W        W12532   3.783   7.419  11.089
 8333W        W12533   7.730   8.453  10.502
 8334W        W12534   0.125   7.801   0.177
 8335W        W12535   1.641   5.763   2.648
 8336W        W12536  10.371   4.740   9.344
 8337W        W12537   6.143   1.247   3.238
 8338W        W12538   1.753   9.129  11.350
 8339W        W12539   8.553   2.716   0.527
 8340W        W12540   3.907  10.290   9.950
 8341W        W12541   9.058   9.975   0.569
 8342W        W12542   2.294   3.231  10.142
 8343W        W12543   8.620   0.057   0.857
 8344W        W12544   7.783   7.931  10.754
 8345W        W12545   1.570   9.752   1.525
 8346W        W12546  10.378   4.568   3.434
 8347W        W12547   6.153   9.018   3.282
 8348W        W12548   7.967  10.030   1.261
 8349W        W12549   8.860   5.468   0.113
 8350W        W12550  11.029   6.193   1.988
 8351W        W12551  11.311   7.705   0.594
 8352W        W12552   5.528   3.676  10.133
 8353W        W12553   8.452   2.183  10.768
 8354W        W12554   3.170   4.782   1.582
 8355W        W12555   1.479   4.758  11.071
 8356W        W12556   3.091   7.104   2.812
 8357W        W12557  10.828   6.346  10.730
 8358W        W12558   3.382  10.454   3.473
 8359W        W12559   6.251   9.959   1.700
 8360W        W12560   1.812   1.401  11.387
 8361W        W12561  10.881   6.596   8.831
 8362W        W12562   6.934   4.645   3.174
 8363W        W12563  10.343   8.302   1.228
 8364W        W12564   2.351   1.137   0.491
 8365W        W12565   0.563   2.432   2.383
 8366W        W12566   6.651   2.864  11.580
 8367W        W12567  10.790   2.900   3.646
 8368W        W12568   2.611   9.860   9.882
 8369W        W12569   2.239   0.509  11.795
 8370W        W12570   7.793   8.152   1.406
 8371W        W12571   0.279   1.295   1.712
 8372W        W12572  11.044  10.459   9.490
 8373W        W12573   5.494   6.144   9.516
 8374W        W12574   3.495   2.126   3.233
 8375W        W12575   0.474   7.090   1.702
 8376W        W12576   3.888   1.506   0.391
 8377W        W12577   5.559   7.816   9.540
 8378W        W12578   9.076   7.736   1.203
 8379W        W12579   7.509   8.682   0.416
 8380W        W12580  10.419  10.396   1.657
 8381W        W12581   4.182   8.541   3.051
 8382W        W12582   4.335   9.003   3.289
 8383W        W12583   8.607   8.351   3.021
 8384W        W12584   5.529   0.335   1.384
 8385W        W12585  11.096   3.399   2.959
 8386W        W12586   5.820  10.561  11.782
 8387W        W12587   4.531   4.866   0.093
 8388W        W12588   1.675   4.845   3.178
 8389W        W12589   8.084   1.836   9.445
 8390W        W12590   9.842   3.430   3.149
 8391W        W12591   7.887   1.762   1.012
 8392W        W12592  11.336  11.028  11.565
 8393W        W12593   5.177   6.500   0.171
 8394W        W12594   2.185  11.474   9.379
 8395W        W12595   0.652  11.078   0.271
 8396W        W12596   5.178   1.851   1.333
 8397W        W12597   6.466   5.056  10.968
 8398W        W12598   3.144   4.302   1.329
 8399W        W12599   1.751   9.966   2.867
 8400W        W12600   4.628   8.216   3.668
 8401W        W12601   6.976   8.875   0.085
 8402W        W12602   5.075   1.901   9.312
 8403W        W12603   2.043  11.069   8.605
 8404W        W12604   7.430   3.285   1.578
 8405W        W12605   0.246   1.071   0.889
 8406W        W12606   1.007  10.996  11.499
 8407W        W12607   4.469  11.073  11.927
 8408W        W12608   1.144  10.057   8.917
 8409W        W12609   5.611   9.808  11.444
 8410W        W12610   5.203   0.410   2.799
 8411W        W12611   3.296   3.274  11.059
 8412W        W12612  10.076   6.031   2.112
 8413W        W12613   0.505  10.558   0.075
 8414W        W12614   2.168   4.653   3.255
 8415W        W12615   3.380   2.420  11.490
 8416W        W12616   4.310   2.180   1.222
 8417W        W12617   5.844   8.668  11.858
 8418W        W12618   6.037   0.325  11.290
 8419W        W12619   4.183   0.239   2.807
 8420W        W12620   0.802   4.521   0.318
 8421W        W12621   9.941   8.581   1.052
 8422W        W12622   6.030   0.826  11.071
 8423W        W12623   5.205   0.541   9.237
 8424W        W12624   8.997   2.520  11.962
 8425W        W12625   7.756   6.157  10.226
 8426W        W12626   2.095   5.071   9.538
 8427W        W12627   2.437   0.354  10.844
 8428W        W12628   9.977   5.364   3.403
 8429W        W12629   5.093   9.125   9.483
 8430W        W12630   4.367   7.200   1.456
 8431W        W12631   8.407   0.235   0.400
 8432W        W12632   0.876  10.216  10.970
 8433W        W12633   2.080   9.454   0.759
 8434W        W12634   4.832   3.828  10.493
 8435W        W12635   3.529   5.228   0.867
 8436W        W12636   1.208   3.130   2.297
 8437W        W12637   7.319   0.566   1.383
 8438W        W12638   0.278   3.924   1.520
 8439W        W12639   8.849   2.249   9.901
 8440W        W12640   0.162  10.983   0.445
 8441W        W12641   9.474   9.858   9.885
 8442W        W12642  10.402   6.173  11.655
 8443W        W12643   1.294   6.479   9.256
 8444W        W12644   8.828   4.088  10.403
 8445W        W12645   7.965   7.503   0.293
 8446W        W12646   0.723   2.782  11.460
 8447W        W12647   6.349   7.636   4.067
 8448W        W12648   0.479   4.818   8.951
 8449W        W12649   5.020   0.460   2.300
 8450W        W12650   6.981  10.244  10.023
 8451W        W12651   3.888   8.814   3.450
 8452W        W12652   4.537   8.908  11.423
 8453W        W12653   4.622   2.339   2.176
 8454W        W12654   0.569   4.297   1.222
 8455W        W12655   3.740   7.141   8.888
 8456W        W12656   0.362   6.476  10.188
 8457W        W12657   0.280   0.869   9.720
 8458W        W12658   5.780   8.130   0.002
 8459W        W12659   5.615   9.306  10.779
 8460W        W12660   1.897   1.077   0.222
 8461W        W12661   2.810   4.673   9.145
 8462W        W12662  10.746   7.148   2.237
 8463W        W12663  10.371   7.141   0.741
 8464W        W12664  10.610   1.343   1.072
 8465W        W12665   6.176   0.385   0.658
 8466W        W12666  11.424   8.161   2.616
 8467W        W12667   2.568   1.588   9.000
 8468W        W12668   4.399   6.606  10.451
 8469W        W12669   8.586  10.243  10.565
 8470W        W12670   3.314   0.305   9.629
 8471W        W12671   3.211   3.650  10.360
 8472W        W12672   7.111   6.052   0.862
 8473W        W12673   7.045   7.596   8.965
 8474W        W12674   8.148   1.853  10.497
 8475W        W12675  11.392   4.121   1.870
 8476W        W12676   4.787   1.906  11.679
 8477W        W12677   6.983   5.730  10.433
 8478W        W12678   6.026   9.574  10.581
 8479W        W12679   5.098   7.832   9.800
 8480W        W12680   3.816   3.633   9.769
 8481W        W12681   1.070   8.944   1.506
 8482W        W12682   5.180   8.696   0.616
 8483W        W12683   7.961   7.046   2.064
 8484W        W12684   9.140   5.180   0.464
 8485W        W12685   4.775  10.387   9.654
 8486W        W12686   8.385   5.511  10.317
 8487W        W12687   2.654  10.883   0.624
 8488W        W12688   9.382   0.840   1.264
 8489W        W12689   9.786   2.642   9.090
 8490W        W12690  10.852   3.010   9.921
 8491W        W12691  11.337   0.571  11.261
 8492W        W12692   2.775   1.024  11.429
 8493W        W12693   2.191   2.156   3.417
 8494W        W12694   9.458   1.466  10.099
 8495W        W12695   5.932   1.822  10.209
 8496W        W12696   4.503   7.608   2.706
 8497W        W12697   5.453   6.102   2.750
 8498W        W12698   4.780   8.511   2.805
 8499W        W12699   4.209   2.921   1.918
 8500W        W12700   6.055  10.962   0.696
 8501W        W12701   7.897   4.190  10.587
 8502W        W12702   4.291  11.052   0.415
 8503W        W12703   5.185  11.424  11.107
 8504W        W12704   7.222   9.254   9.935
 8505W        W12705   9.383   6.178  11.541
 8506W        W12706  10.674   3.895   3.595
 8507W        W12707   3.950   8.012  10.496
 8508W        W12708   6.796  10.768  10.781
 8509W        W12709   4.888  10.119   0.921
 8510W        W12710   1.674   0.874   3.471
 8511W        W12711   7.064  10.483   9.433
 8512W        W12712   9.815  10.798   8.982
 8513W        W12713   2.146   0.173   2.431
 8514W        W12714   2.388   6.119  11.332
 8515W        W12715   4.165   1.720   9.147
 8516W        W12716  10.467   4.317  11.015
 8517W        W12717   9.785   0.404   1.297
 8518W        W12718   0.919   4.984   0.514
 8519W        W12719   1.337   5.305   9.935
 8520W        W12720   8.480   5.804   0.807
 8521W        W12721   1.167   8.147  11.306
 8522W        W12722   0.217   3.456  11.945
 8523W        W12723   2.732   3.849   0.673
 8524W        W12724   2.619   5.091   9.421
 8525W        W12725   9.880   5.700   0.745
 8526W        W12726   8.585   8.276   1.033
 8527W        W12727   5.985   9.397   8.569
 8528W        W12728   9.607   3.141  10.531
 8529W        W12729   6.346   2.098   1.727
 8530W        W12730   5.820   9.867   1.462
 8531W        W12731   7.119   9.895   2.192
 8532W        W12732   4.650  11.267   9.603
 8533W        W12733   5.704   8.335   9.482
 8534W        W12734   5.650   5.820   1.974
 8535ION    NA+12735   2.771   6.709  11.893
 8536ION    NA+12736   4.194   1.087   2.059
 8537ION    NA+12737   0.924  10.687   3.312
 8538ION    NA+12738   6.824   0.874   1.352
 8539ION    NA+12739   7.205   3.416   9.468
 8540ION    NA+12740  10.295   9.605   3.470
 8541ION    NA+12741  11.463   2.013  11.413
 8542ION    NA+12742   5.635   4.062   0.643
 8543ION    NA+12743  11.232   7.151   9.661
 8544ION    NA+12744   8.226   4.618   9.416
 8545ION    NA+12745   6.826   6.438  10.901
 8546ION    NA+12746   7.752   2.285   1.667
 8547ION    NA+12747   8.054   4.980   0.989
 8548ION    NA+12748   8.124   2.306   3.242
 8549ION    NA+12749   1.846  11.004   1.004
 8550ION    NA+12750   0.916   9.291  11.893
 8551ION    NA+12751   7.862   6.236  11.512
 8552ION    NA+12752   5.338   1.599   3.232
 8553ION    NA+12753   3.995  10.437  10.462
 8554ION    NA+12754   1.841   3.115   9.919
 8555ION    NA+12755   9.849   4.723   2.284
 8556ION    NA+12756   0.874   8.677   0.838
 8557ION    NA+12757   6.326   7.425  11.914
 8558ION    NA+12758   8.048   3.413   3.135
 8559ION    NA+12759   8.878   6.304  10.668
 8560ION    NA+12760   9.736   7.749   0.950
 8561ION    NA+12761   6.392  11.000   3.165
 8562ION    NA+12762   8.235   2.282   0.405
 8563ION    NA+12763   0.929   2.807   9.650
 8564ION    NA+12764   2.116   0.624   0.300
 8565ION    NA+12765   3.398   2.837  11.798
 8566ION    NA+12766   6.620   7.659   1.900
 8567ION    NA+12767   3.214   4.873   8.251
 8568ION    NA+12768   4.728  11.047   2.583
 8569ION    NA+12769   5.693  10.296   1.215
 8570ION    NA+12770   3.164   4.709  10.830
 8571ION    NA+12771  10.425   0.482  11.522
 8572ION    NA+12772   7.116   7.528   3.414
 8573ION    NA+12773   7.638   3.768   0.262
 8574ION    NA+12774  10.238   7.440  11.968
 8575ION    NA+12775   3.678  10.055   2.215
 8576ION    NA+12776   3.218   1.128  10.177
 8577ION    NA+12777   1.463   7.672  10.001
 8578ION    NA+12778   1.419   8.810   8.916
 8579ION    NA+12779   3.136   9.415  11.837
 8580ION    NA+12780   8.909   0.162   1.300
 8581ION    NA+12781   0.545   5.227   9.801
 8582ION    NA+12782   5.615   7.091   2.426
 8583ION    NA+12783   2.913   3.861   9.396
 8584ION    NA+12784   7.021   5.627   0.557
 8585ION    NA+12785   3.496  11.437   1.712
 8586ION    NA+12786   0.929  10.791   2.306
 8587ION    NA+12787   4.821   6.524   1.941
 8588ION    NA+12788   1.021   6.287   3.117
 8589ION    NA+12789   9.799   1.970   8.792
 8590ION    NA+12790   6.692   6.838   3.175
 8591ION    NA+12791   9.174  10.355   1.842
 8592ION    NA+12792   1.499   4.162   0.730
 8593ION    NA+12793   1.670   4.365   1.878
 8594ION    NA+12794   3.320   6.283   3.402
 8595ION    NA+12795   9.648   7.695   3.475
 8596ION    NA+12796   5.769   8.037  11.484
 8597ION    NA+12797   1.163   6.005   9.684
 8598ION    NA+12798   8.458   3.647   2.208
 8599ION    NA+12799   9.825   2.330   3.771
 8600ION    NA+12800   7.405   1.748   0.048
 8601ION    NA+12801   8.530   8.389   2.505
 8602ION    NA+12802  11.476  10.976   3.179
 8603ION    NA+12803   6.818   7.488   4.193
 8604ION    NA+12804   5.315  11.282  11.575
 8605ION    NA+12805   6.048   2.556   2.617
 8606ION    NA+12806   8.291   8.542   9.819
 8607ION    NA+12807   7.324   8.890   1.428
 8608ION    NA+12808   4.710  10.154   2.140
 8609ION    NA+12809   4.260   5.809   1.991
 8610ION    NA+12810   0.032   8.019   1.905
 8611ION    NA+12811   4.153  10.020   1.310
 8612ION    NA+12812   8.140   0.920   9.751
 8613ION    NA+12813   4.359   5.916   0.382
 8614ION    NA+12814  10.091   0.422   0.872
 8615ION    NA+12815   9.715   7.858   9.025
 8616ION    NA+12816   5.999   3.904   1.832
 8617ION    NA+12817   7.324   9.364  10.830
 8618ION    NA+12818   5.910   3.242   3.354
 8619ION    NA+12819   1.767   1.144   1.356
 8620ION    NA+12820   7.661   2.860   8.638
 8621ION    NA+12821   6.193   8.483   9.496
 8622ION    NA+12822   0.661   4.658   1.614
 8623ION    NA+12823   3.184   6.582   8.600
 8624ION    NA+12824   4.130   6.807   0.252
 8625ION    CL-12825   5.547   1.715   2.137
 8626ION    CL-12826   0.204   7.860  11.290
 8627ION    CL-12827  11.334   4.318   8.639
 8628ION    CL-12828   2.110   8.482   2.303
 8629ION    CL-12829   7.033   7.829   1.871
 8630ION    CL-12830   4.717   8.990   1.512
 8631ION    CL-12831   8.196   3.597  11.389
 8632ION    CL-12832   0.129   7.828   2.295
 8633ION    CL-12833   9.250   5.862   3.560
 8634ION    CL-12834   0.276   0.877   0.208
 8635ION    CL-12835   7.454  11.455   0.808
 8636ION    CL-12836   3.320  11.306   1.326
 8637ION    CL-12837   6.940   3.145   9.704
 8638ION    CL-12838   5.031   0.531   1.413
 8639ION    CL-12839  11.451  11.390   3.007
 8640ION    CL-12840   4.769   1.191  11.023
 8641ION    CL-12841   5.817   9.944   0.953
 8642ION    CL-12842  11.147   7.349   9.268
 8643ION    CL-12843   0.261   4.446   1.625
 8644ION    CL-12844   6.051   7.772  11.750
 8645ION    CL-12845  10.605  10.953  10.125
 8646ION    CL-12846   3.571  11.330  11.993
 8647ION    CL-12847   7.226   1.061   1.415
 8648ION    CL-12848   9.116   1.575   3.543
 8649ION    CL-12849   3.244  11.135   9.116
 8650ION    CL-12850   0.977  10.352   9.594
 8651ION    CL-12851   3.423   2.925   3.168
 8652ION    CL-12852   6.937   7.217   3.117
 8653ION    CL-12853   6.703   2.782  10.606
 8654ION    CL-12854  11.465   3.547   1.302
 8655ION    CL-12855   2.363   0.436  10.130
 8656ION    CL-12856   9.470  10.658  10.353
 8657ION    CL-12857   0.970   7.859   3.370
 8658ION    CL-12858   6.481   7.284   4.423
 8659ION    CL-12859   8.472   4.953   3.641
 8660ION    CL-12860   5.379   2.850   8.525
 8661ION    CL-12861   8.181   6.514   2.751
 8662ION    CL-12862   6.997   9.501   2.510
 8663ION    CL-12863   5.201   3.384   2.730
 8664ION    CL-12864  11.206   3.558  11.929
 8665ION    CL-12865  10.529   3.210   1.399
 8666ION    CL-12866   7.530   7.317   9.658
 8667ION    CL-12867   1.020   1.516   0.402
 8668ION    CL-12868   3.329   1.553  10.099
 8669ION    CL-12869  10.880   3.599  10.118
 8670ION    CL-12870   1.351   1.232   9.657
 8671ION    CL-12871  11.436   5.492   2.315
 8672ION    CL-12872   2.661   6.826   9.972
 8673ION    CL-12873   6.887   9.418  10.764
 8674ION    CL-12874   8.313   4.612   0.961
 8675ION    CL-12875   4.253   8.736  11.010
 8676ION    CL-12876   5.303   3.758   0.672
 8677ION    CL-12877   0.227   5.263  10.115
 8678ION    CL-12878   5.811   4.161   2.148
 8679ION    CL-12879   9.164   9.572   3.571
 8680ION    CL-12880  10.976   5.547   8.113
 8681ION    CL-12881   3.022   7.759   9.889
 8682ION    CL-12882   5.317   1.178  11.964
 8683ION    CL-12883   9.897   6.692   1.201
 8684ION    CL-12884   9.200   7.178   2.920
 8685ION    CL-12885   4.089   7.263   0.301
 8686ION    CL-12886   9.320   6.384  10.664
 8687ION    CL-12887   0.673   4.658   2.883
 8688ION    CL-12888  10.434  10.447   1.141
 8689ION    CL-12889   7.127  10.103   1.278
 8690ION    CL-12890   5.306   3.698   9.622
 8691ION    CL-12891   4.533   6.175   2.006
 8692ION    CL-12892   4.231   6.350   0.300
 8693ION    CL-12893  10.899   0.920   8.508
 8694ION    CL-12894   5.537   8.311  11.196
 8695ION    CL-12895   5.327   3.114  11.552
 8696ION    CL-12896   4.458   3.066   8.852
 8697ION    CL-12897   9.965   7.466  11.615
 8698ION    CL-12898   0.741   5.991   3.348
 8699ION    CL-12899  10.114   3.121   2.774
 8700ION    CL-12900   9.335   7.822   0.762
 8701ION    CL-12901   7.482   1.763  11.608
 8702ION    CL-12902   2.748   5.629   2.053
 8703ION    CL-12903   5.672  10.705   1.418
 8704ION    CL-12904   1.234   2.291   1.862
 8705ION    CL-12905   1.151  11.269  11.035
 8706ION    CL-12906   4.896   1.925   9.814
 8707ION    CL-12907   8.073  11.292   1.837
 8708ION    CL-12908   1.223   9.346   2.753
 8709ION    CL-12909   6.628   7.107   0.035
 8710ION    CL-12910   1.750  10.750  10.343
 8711ION    CL-12911   0.859   4.982   1.357
 8712ION    CL-12912   6.044   9.549  11.556
 8713ION    CL-12913   5.155  10.192   8.695
 8714ION    CL-12914   9.527  10.318   1.570
  11.50000  11.50000  12.00000
