Protein in INSANE! Membrane UpperLeaflet>POPC=1.0 LowerLeaflet>POPC=1.0
12676
    1AU     AUC    1   5.749   5.858   6.007
    1AU     AUC    2   6.013   5.853   5.848
    1AU     AUC    3   6.004   5.847   6.155
    1AU     AUC    4   5.503   5.858   5.846
    1AU     AUC    5   5.486   5.881   6.152
    1AU     AUC    6   5.606   6.119   6.005
    1AU     AUC    7   5.915   6.110   5.983
    1AU     AUC    8   5.590   5.604   6.020
    1AU     AUC    9   5.884   5.598   6.035
    1AU     AUC   10   5.737   5.712   6.271
    1AU     AUC   11   5.775   6.025   6.256
    1AU     AUC   12   5.750   5.690   5.752
    1AU     AUC   13   5.740   5.991   5.741
    1AU     AUC   14   6.259   5.841   5.683
    1AU     AUC   15   6.271   5.852   5.992
    1AU     AUC   16   6.263   5.849   6.302
    1AU     AUC   17   5.243   5.848   5.688
    1AU     AUC   18   5.230   5.883   5.990
    1AU     AUC   19   5.239   5.907   6.315
    1AU     AUC   20   5.468   6.391   6.003
    1AU     AUC   21   5.772   6.385   5.993
    1AU     AUC   22   6.064   6.375   5.991
    1AU     AUC   23   5.402   5.354   6.034
    1AU     AUC   24   5.723   5.333   6.020
    1AU     AUC   25   6.038   5.333   6.044
    1AU     AUC   26   5.714   5.561   6.524
    1AU     AUC   27   5.752   5.873   6.535
    1AU     AUC   28   5.779   6.184   6.521
    1AU     AUC   29   5.750   5.510   5.519
    1AU     AUC   30   5.760   5.829   5.482
    1AU     AUC   31   5.742   6.140   5.474
    1AU     AUC   32   6.016   5.708   6.433
    1AU     AUC   33   6.024   6.003   6.422
    1AU     AUC   34   6.019   5.678   5.589
    1AU     AUC   35   6.020   5.988   5.572
    1AU     AUC   36   5.478   5.739   6.437
    1AU     AUC   37   5.498   6.046   6.432
    1AU     AUC   38   5.500   5.684   5.579
    1AU     AUC   39   5.491   5.997   5.578
    1AU     AUC   40   6.170   6.117   5.822
    1AU     AUC   41   6.183   6.096   6.141
    1AU     AUC   42   5.338   6.122   5.848
    1AU     AUC   43   5.346   6.150   6.167
    1AU     AUC   44   6.158   5.584   5.861
    1AU     AUC   45   6.163   5.590   6.177
    1AU     AUC   46   5.321   5.604   5.852
    1AU     AUC   47   5.322   5.630   6.189
    1AU     AUC   48   5.610   6.286   6.270
    1AU     AUC   49   5.932   6.284   6.241
    1AU     AUC   50   5.564   5.445   6.275
    1AU     AUC   51   5.886   5.444   6.297
    1AU     AUC   52   5.596   6.271   5.735
    1AU     AUC   53   5.914   6.256   5.722
    1AU     AUC   54   5.571   5.442   5.759
    1AU     AUC   55   5.900   5.422   5.777
    1AU    AUSL   56   6.090   5.804   6.600
    1AU    AUSL   57   6.051   5.376   6.654
    1AU     AUL   58   6.281   5.461   6.911
    1AU       S   59   6.320   5.090   6.592
    1AU     LIG   60   6.179   4.822   6.911
    1AU     LIG   61   6.320   4.462   7.154
    1AU     LIG   62   6.584   4.202   7.452
    1AU     LIG   63   6.664   3.928   7.841
    1AU     LIG   64   6.722   3.753   8.288
    1AU     LIG   65   6.945   3.596   8.669
    1AU       S   66   6.158   5.830   7.160
    1AU     LIG   67   6.317   5.638   7.523
    1AU     LIG   68   6.631   5.445   7.795
    1AU     LIG   69   6.961   5.494   8.117
    1AU     LIG   70   7.314   5.474   8.421
    1AU     LIG   71   7.637   5.586   8.733
    1AU     LIG   72   7.911   5.603   9.103
    1AU    AUSL   73   5.813   5.650   6.878
    1AU    AUSL   74   5.700   6.055   6.794
    1AU     AUL   75   5.755   6.023   7.217
    1AU       S   76   5.886   5.650   7.015
    1AU     LIG   77   5.997   5.293   7.297
    1AU     LIG   78   6.193   5.149   7.736
    1AU     LIG   79   6.253   4.951   8.202
    1AU     LIG   80   6.272   4.761   8.671
    1AU     LIG   81   6.427   4.668   9.127
    1AU     LIG   82   6.559   4.836   9.554
    1AU       S   83   5.394   5.765   7.152
    1AU     LIG   84   5.304   5.675   7.623
    1AU     LIG   85   5.106   5.609   8.052
    1AU     LIG   86   5.030   5.751   8.498
    1AU     LIG   87   5.112   6.016   8.895
    1AU     LIG   88   4.981   6.261   9.279
    1AU     LIG   89   4.697   6.448   9.615
    1AU    AUSL   90   6.094   6.178   6.786
    1AU    AUSL   91   6.421   6.036   6.475
    1AU     AUL   92   6.390   5.899   6.784
    1AU       S   93   6.109   6.206   6.983
    1AU     LIG   94   6.367   6.253   7.361
    1AU     LIG   95   6.438   6.461   7.785
    1AU     LIG   96   6.465   6.660   8.220
    1AU     LIG   97   6.510   6.777   8.691
    1AU     LIG   98   6.634   6.841   9.162
    1AU     LIG   99   6.586   6.824   9.638
    1AU       S  100   6.705   6.105   6.514
    1AU     LIG  101   6.966   6.104   6.897
    1AU     LIG  102   7.206   6.339   7.235
    1AU     LIG  103   7.478   6.643   7.490
    1AU     LIG  104   7.765   6.756   7.868
    1AU     LIG  105   8.185   6.835   8.120
    1AU     LIG  106   8.551   7.036   8.367
    1AU    AUSL  107   6.288   5.879   5.373
    1AU    AUSL  108   6.061   6.275   5.322
    1AU     AUL  109   6.407   6.201   4.947
    1AU       S  110   6.347   5.895   5.237
    1AU     LIG  111   6.605   5.770   4.845
    1AU     LIG  112   6.655   5.587   4.429
    1AU     LIG  113   6.798   5.474   3.986
    1AU     LIG  114   7.183   5.517   3.683
    1AU     LIG  115   7.566   5.658   3.408
    1AU     LIG  116   7.720   5.724   2.956
    1AU       S  117   6.058   6.326   5.168
    1AU     LIG  118   6.355   6.677   5.052
    1AU     LIG  119   6.709   6.742   4.729
    1AU     LIG  120   7.030   6.860   4.366
    1AU     LIG  121   7.230   7.071   3.975
    1AU     LIG  122   7.412   7.428   3.702
    1AU     LIG  123   7.509   7.902   3.610
    1AU    AUSL  124   6.024   5.558   5.212
    1AU    AUSL  125   6.366   5.492   5.506
    1AU     AUL  126   6.378   5.470   5.159
    1AU       S  127   6.492   5.069   5.375
    1AU     LIG  128   6.609   4.876   4.974
    1AU     LIG  129   6.849   4.524   4.773
    1AU     LIG  130   7.096   4.300   4.434
    1AU     LIG  131   7.498   4.379   4.169
    1AU     LIG  132   7.859   4.478   3.865
    1AU     LIG  133   8.217   4.294   3.608
    1AU       S  134   6.105   5.797   4.948
    1AU     LIG  135   6.208   5.426   4.685
    1AU     LIG  136   6.332   5.225   4.260
    1AU     LIG  137   6.397   5.175   3.785
    1AU     LIG  138   6.370   5.064   3.305
    1AU     LIG  139   6.404   5.025   2.814
    1AU     LIG  140   6.631   5.005   2.375
    1AU    AUSL  141   5.868   5.917   5.384
    1AU    AUSL  142   5.615   5.656   5.166
    1AU     AUL  143   5.825   5.443   5.072
    1AU       S  144   5.574   5.750   4.823
    1AU     LIG  145   5.479   5.462   4.467
    1AU     LIG  146   5.245   5.211   4.123
    1AU     LIG  147   5.064   4.923   3.766
    1AU     LIG  148   4.989   4.779   3.306
    1AU     LIG  149   4.806   4.909   2.878
    1AU     LIG  150   4.671   5.125   2.459
    1AU       S  151   6.010   5.888   5.012
    1AU     LIG  152   6.206   5.904   4.494
    1AU     LIG  153   6.318   5.703   4.058
    1AU     LIG  154   6.470   5.651   3.605
    1AU     LIG  155   6.530   5.813   3.164
    1AU     LIG  156   6.723   6.171   2.914
    1AU     LIG  157   6.827   6.379   2.505
    1AU    AUSL  158   5.306   5.936   6.728
    1AU    AUSL  159   5.448   6.348   6.636
    1AU     AUL  160   5.487   6.246   6.925
    1AU       S  161   5.228   5.940   7.175
    1AU     LIG  162   4.913   5.604   7.292
    1AU     LIG  163   4.758   5.411   7.719
    1AU     LIG  164   4.527   5.319   8.156
    1AU     LIG  165   4.195   5.301   8.538
    1AU     LIG  166   3.984   5.460   8.958
    1AU     LIG  167   3.620   5.731   9.160
    1AU       S  168   5.035   6.318   6.862
    1AU     LIG  169   5.029   6.581   7.261
    1AU     LIG  170   4.959   6.857   7.651
    1AU     LIG  171   4.828   6.962   8.098
    1AU     LIG  172   4.774   7.273   8.453
    1AU     LIG  173   4.570   7.640   8.684
    1AU     LIG  174   4.321   8.050   8.760
    1AU    AUSL  175   5.609   5.730   6.529
    1AU    AUSL  176   5.068   5.668   6.516
    1AU     AUL  177   5.114   5.784   6.756
    1AU       S  178   4.909   5.352   6.729
    1AU     LIG  179   4.484   5.153   6.586
    1AU     LIG  180   4.092   4.910   6.716
    1AU     LIG  181   3.916   4.631   7.062
    1AU     LIG  182   3.730   4.339   7.384
    1AU     LIG  183   3.427   4.176   7.705
    1AU     LIG  184   3.130   4.284   8.067
    1AU       S  185   5.407   5.651   7.107
    1AU     LIG  186   5.298   5.262   7.319
    1AU     LIG  187   5.209   5.166   7.781
    1AU     LIG  188   5.007   5.116   8.220
    1AU     LIG  189   4.858   4.891   8.628
    1AU     LIG  190   4.847   4.750   9.090
    1AU     LIG  191   4.741   4.932   9.511
    1AU    AUSL  192   5.354   5.803   5.457
    1AU    AUSL  193   5.500   5.380   5.450
    1AU     AUL  194   5.322   5.491   5.148
    1AU       S  195   5.328   5.832   4.821
    1AU     LIG  196   5.018   5.689   4.493
    1AU     LIG  197   4.812   5.484   4.099
    1AU     LIG  198   4.597   5.205   3.759
    1AU     LIG  199   4.227   5.114   3.449
    1AU     LIG  200   3.941   5.222   3.079
    1AU     LIG  201   3.804   5.548   2.745
    1AU       S  202   5.037   5.090   5.307
    1AU     LIG  203   4.743   4.743   5.277
    1AU     LIG  204   4.398   4.512   5.070
    1AU     LIG  205   4.162   4.289   4.723
    1AU     LIG  206   4.229   4.092   4.271
    1AU     LIG  207   4.312   3.786   3.888
    1AU     LIG  208   4.150   3.446   3.576
    1AU    AUSL  209   5.551   6.089   5.171
    1AU    AUSL  210   5.117   6.147   5.447
    1AU     AUL  211   5.145   5.932   5.222
    1AU       S  212   5.051   6.392   5.227
    1AU     LIG  213   4.689   6.617   4.974
    1AU     LIG  214   4.518   6.704   4.522
    1AU     LIG  215   4.418   6.857   4.071
    1AU     LIG  216   4.098   7.012   3.755
    1AU     LIG  217   3.643   7.148   3.749
    1AU     LIG  218   3.411   7.544   3.672
    1AU       S  219   5.549   6.008   4.958
    1AU     LIG  220   5.507   5.996   4.402
    1AU     LIG  221   5.274   5.751   4.049
    1AU     LIG  222   5.068   5.816   3.619
    1AU     LIG  223   5.103   6.058   3.191
    1AU     LIG  224   5.131   6.212   2.727
    1AU     LIG  225   4.940   6.291   2.289
    1AU    AUSL  226   6.375   6.478   5.937
    1AU    AUSL  227   6.405   6.223   5.585
    1AU     AUL  228   6.527   6.674   5.737
    1AU       S  229   6.534   6.333   5.374
    1AU     LIG  230   6.873   6.337   5.039
    1AU     LIG  231   7.159   6.464   4.677
    1AU     LIG  232   7.493   6.587   4.356
    1AU     LIG  233   7.932   6.573   4.153
    1AU     LIG  234   8.296   6.838   4.003
    1AU     LIG  235   8.473   7.034   3.595
    1AU       S  236   6.827   6.334   5.856
    1AU     LIG  237   7.303   6.452   5.994
    1AU     LIG  238   7.812   6.508   6.009
    1AU     LIG  239   8.305   6.597   6.003
    1AU     LIG  240   8.688   6.932   6.011
    1AU     LIG  241   8.983   7.339   6.017
    1AU     LIG  242   9.223   7.740   6.170
    1AU    AUSL  243   6.598   5.888   5.731
    1AU    AUSL  244   6.596   5.736   6.155
    1AU     AUL  245   6.868   5.674   5.925
    1AU       S  246   6.828   6.107   5.761
    1AU     LIG  247   7.294   5.983   5.808
    1AU     LIG  248   7.789   6.050   5.777
    1AU     LIG  249   8.276   6.141   5.714
    1AU     LIG  250   8.762   6.081   5.672
    1AU     LIG  251   9.200   6.286   5.668
    1AU     LIG  252   9.567   6.586   5.496
    1AU       S  253   6.897   5.268   6.170
    1AU     LIG  254   7.291   5.039   6.224
    1AU     LIG  255   7.697   4.803   6.242
    1AU     LIG  256   8.089   4.563   6.265
    1AU     LIG  257   8.514   4.411   6.216
    1AU     LIG  258   8.879   4.346   6.477
    1AU     LIG  259   9.215   4.452   6.799
    1AU    AUSL  260   6.383   6.076   6.059
    1AU    AUSL  261   6.280   6.411   6.343
    1AU     AUL  262   6.525   6.414   6.206
    1AU       S  263   6.575   6.309   6.637
    1AU     LIG  264   6.976   6.546   6.634
    1AU     LIG  265   7.193   6.788   6.984
    1AU     LIG  266   7.389   7.124   7.265
    1AU     LIG  267   7.607   7.575   7.276
    1AU     LIG  268   7.843   8.004   7.353
    1AU     LIG  269   8.099   8.380   7.521
    1AU       S  270   6.845   6.138   6.045
    1AU     LIG  271   7.183   6.074   6.325
    1AU     LIG  272   7.653   6.092   6.274
    1AU     LIG  273   8.139   6.127   6.203
    1AU     LIG  274   8.629   6.189   6.154
    1AU     LIG  275   9.113   6.308   6.187
    1AU     LIG  276   9.460   6.580   6.404
    1AU    AUSL  277   5.097   6.432   6.074
    1AU    AUSL  278   5.140   6.159   6.419
    1AU     AUL  279   5.104   6.607   6.343
    1AU       S  280   4.931   6.237   6.616
    1AU     LIG  281   4.588   6.435   6.995
    1AU     LIG  282   4.535   6.654   7.433
    1AU     LIG  283   4.388   6.737   7.904
    1AU     LIG  284   4.035   6.813   8.256
    1AU     LIG  285   3.597   7.021   8.386
    1AU     LIG  286   3.213   7.274   8.548
    1AU       S  287   4.734   6.475   6.114
    1AU     LIG  288   4.623   6.909   6.279
    1AU     LIG  289   4.388   7.354   6.144
    1AU     LIG  290   4.000   7.684   6.150
    1AU     LIG  291   3.538   7.882   6.071
    1AU     LIG  292   3.109   8.125   6.133
    1AU     LIG  293   2.699   8.149   6.422
    1AU    AUSL  294   5.175   6.087   5.851
    1AU    AUSL  295   5.262   6.496   5.688
    1AU     AUL  296   4.996   6.421   5.709
    1AU       S  297   4.611   6.383   5.975
    1AU     LIG  298   4.431   6.491   5.559
    1AU     LIG  299   4.012   6.734   5.434
    1AU     LIG  300   3.516   6.791   5.321
    1AU     LIG  301   3.048   6.941   5.243
    1AU     LIG  302   2.583   6.775   5.230
    1AU     LIG  303   2.128   6.927   5.118
    1AU       S  304   5.095   6.671   5.315
    1AU     LIG  305   4.989   7.036   5.020
    1AU     LIG  306   4.914   7.438   4.785
    1AU     LIG  307   4.534   7.690   4.779
    1AU     LIG  308   4.390   8.084   4.596
    1AU     LIG  309   4.023   8.322   4.403
    1AU     LIG  310   3.796   8.727   4.283
    1AU    AUSL  311   4.876   6.019   6.143
    1AU    AUSL  312   4.928   5.761   5.794
    1AU     AUL  313   4.777   6.019   5.756
    1AU       S  314   4.577   5.580   5.921
    1AU     LIG  315   4.230   5.497   6.273
    1AU     LIG  316   3.753   5.389   6.353
    1AU     LIG  317   3.308   5.216   6.227
    1AU     LIG  318   2.904   5.052   5.926
    1AU     LIG  319   2.397   5.034   5.873
    1AU     LIG  320   1.967   4.933   5.647
    1AU       S  321   4.687   6.087   6.224
    1AU     LIG  322   4.443   6.398   6.506
    1AU     LIG  323   4.043   6.584   6.710
    1AU     LIG  324   3.555   6.701   6.748
    1AU     LIG  325   3.069   6.815   6.728
    1AU     LIG  326   2.642   7.041   6.779
    1AU     LIG  327   2.202   6.876   6.840
    1AU    AUSL  328   6.443   5.339   6.082
    1AU    AUSL  329   6.392   5.556   6.466
    1AU     AUL  330   6.693   5.603   6.416
    1AU       S  331   6.593   5.079   6.056
    1AU     LIG  332   6.838   4.764   6.268
    1AU     LIG  333   7.246   4.529   6.145
    1AU     LIG  334   7.679   4.336   6.006
    1AU     LIG  335   8.133   4.152   5.954
    1AU     LIG  336   8.491   3.898   6.155
    1AU     LIG  337   8.854   3.827   6.498
    1AU       S  338   6.427   5.232   6.543
    1AU     LIG  339   6.710   4.861   6.781
    1AU     LIG  340   6.842   4.545   7.130
    1AU     LIG  341   7.102   4.301   7.460
    1AU     LIG  342   7.457   4.231   7.788
    1AU     LIG  343   7.801   4.256   8.139
    1AU     LIG  344   8.218   4.228   8.389
    1AU    AUSL  345   6.284   5.668   5.871
    1AU    AUSL  346   6.205   5.197   5.772
    1AU     AUL  347   6.549   5.405   5.700
    1AU       S  348   6.640   5.249   6.107
    1AU     LIG  349   7.000   4.961   5.800
    1AU     LIG  350   7.485   4.803   5.773
    1AU     LIG  351   7.981   4.686   5.778
    1AU     LIG  352   8.432   4.494   5.701
    1AU     LIG  353   8.835   4.452   5.463
    1AU     LIG  354   9.221   4.698   5.526
    1AU       S  355   6.434   4.955   5.588
    1AU     LIG  356   6.434   4.546   5.326
    1AU     LIG  357   6.628   4.169   5.084
    1AU     LIG  358   6.860   3.786   4.881
    1AU     LIG  359   7.089   3.333   4.872
    1AU     LIG  360   7.505   3.097   4.758
    1AU     LIG  361   7.978   3.106   4.622
    1AU    AUSL  362   5.015   5.381   5.988
    1AU    AUSL  363   5.111   5.480   5.558
    1AU     AUL  364   4.848   5.584   5.532
    1AU       S  365   5.012   5.152   5.553
    1AU     LIG  366   4.540   5.165   5.510
    1AU     LIG  367   4.223   4.993   5.234
    1AU     LIG  368   3.971   4.762   4.928
    1AU     LIG  369   3.686   4.496   4.681
    1AU     LIG  370   3.406   4.429   4.297
    1AU     LIG  371   3.155   4.412   3.884
    1AU       S  372   4.729   5.364   5.924
    1AU     LIG  373   4.392   5.087   6.018
    1AU     LIG  374   3.951   5.041   6.043
    1AU     LIG  375   3.620   4.819   6.280
    1AU     LIG  376   3.153   4.694   6.203
    1AU     LIG  377   2.738   4.436   6.089
    1AU     LIG  378   2.517   4.031   5.934
    1AU    AUSL  379   5.191   5.749   6.136
    1AU    AUSL  380   5.275   5.356   6.320
    1AU     AUL  381   4.891   5.551   6.308
    1AU       S  382   4.996   5.165   6.528
    1AU     LIG  383   4.783   4.878   6.276
    1AU     LIG  384   4.375   4.650   6.378
    1AU     LIG  385   4.097   4.356   6.670
    1AU     LIG  386   3.841   4.054   6.972
    1AU     LIG  387   3.641   3.717   7.275
    1AU     LIG  388   3.542   3.235   7.349
    1AU       S  389   4.615   5.642   5.964
    1AU     LIG  390   4.128   5.462   5.774
    1AU     LIG  391   3.638   5.433   5.846
    1AU     LIG  392   3.147   5.507   5.854
    1AU     LIG  393   2.848   5.425   6.248
    1AU     LIG  394   2.371   5.364   6.314
    1AU     LIG  395   1.939   5.239   6.497
    1AU    AUSL  396   5.803   6.548   6.537
    1AU    AUSL  397   5.471   6.328   6.221
    1AU     AUL  398   5.504   6.627   6.614
    1AU       S  399   5.103   6.457   6.768
    1AU     LIG  400   4.870   6.832   6.830
    1AU     LIG  401   4.771   7.102   7.216
    1AU     LIG  402   4.681   7.556   7.398
    1AU     LIG  403   4.550   8.039   7.430
    1AU     LIG  404   4.276   8.437   7.502
    1AU     LIG  405   3.839   8.569   7.650
    1AU       S  406   5.859   6.933   6.495
    1AU     LIG  407   5.996   7.097   6.879
    1AU     LIG  408   6.058   7.530   7.044
    1AU     LIG  409   6.108   7.873   7.378
    1AU     LIG  410   6.090   8.157   7.775
    1AU     LIG  411   5.938   8.502   8.081
    1AU     LIG  412   5.868   8.959   8.206
    1AU    AUSL  413   5.548   6.728   6.171
    1AU    AUSL  414   6.000   6.701   5.756
    1AU     AUL  415   5.688   6.956   5.920
    1AU       S  416   5.695   7.006   6.378
    1AU     LIG  417   5.801   7.448   6.556
    1AU     LIG  418   5.771   7.872   6.753
    1AU     LIG  419   5.515   8.271   6.804
    1AU     LIG  420   5.397   8.734   6.892
    1AU     LIG  421   5.326   9.208   7.023
    1AU     LIG  422   5.169   9.649   7.133
    1AU       S  423   6.026   7.040   5.587
    1AU     LIG  424   6.375   7.274   5.388
    1AU     LIG  425   6.479   7.730   5.262
    1AU     LIG  426   6.771   8.134   5.221
    1AU     LIG  427   6.858   8.616   5.231
    1AU     LIG  428   6.877   9.092   5.197
    1AU     LIG  429   6.854   9.565   5.115
    1AU    AUSL  430   5.950   6.559   6.145
    1AU    AUSL  431   5.936   6.181   6.409
    1AU     AUL  432   6.132   6.568   6.544
    1AU       S  433   6.513   6.354   6.737
    1AU     LIG  434   6.735   6.530   7.107
    1AU     LIG  435   6.971   6.755   7.462
    1AU     LIG  436   7.207   6.895   7.863
    1AU     LIG  437   7.253   7.131   8.292
    1AU     LIG  438   7.298   7.538   8.561
    1AU     LIG  439   7.447   7.875   8.878
    1AU       S  440   6.039   6.880   6.217
    1AU     LIG  441   6.263   7.248   6.457
    1AU     LIG  442   6.352   7.705   6.640
    1AU     LIG  443   6.662   8.119   6.690
    1AU     LIG  444   6.824   8.600   6.738
    1AU     LIG  445   6.664   9.057   6.742
    1AU     LIG  446   6.709   9.525   6.867
    1AU    AUSL  447   5.703   5.292   6.443
    1AU    AUSL  448   6.066   5.413   6.236
    1AU     AUL  449   5.890   5.178   6.703
    1AU       S  450   5.776   4.752   6.574
    1AU     LIG  451   5.798   4.385   6.821
    1AU     LIG  452   5.451   4.084   6.826
    1AU     LIG  453   5.347   3.639   6.879
    1AU     LIG  454   5.349   3.285   7.191
    1AU     LIG  455   5.378   3.095   7.638
    1AU     LIG  456   5.447   2.805   8.013
    1AU       S  457   6.348   5.052   6.455
    1AU     LIG  458   6.372   4.587   6.498
    1AU     LIG  459   6.603   4.266   6.769
    1AU     LIG  460   6.893   4.007   7.075
    1AU     LIG  461   7.200   3.655   7.259
    1AU     LIG  462   7.515   3.272   7.357
    1AU     LIG  463   7.928   3.012   7.389
    1AU    AUSL  464   5.510   5.049   6.167
    1AU    AUSL  465   5.415   5.423   6.718
    1AU     AUL  466   5.443   5.082   6.531
    1AU       S  467   5.589   4.656   6.447
    1AU     LIG  468   5.399   4.267   6.324
    1AU     LIG  469   5.200   3.847   6.420
    1AU     LIG  470   5.008   3.427   6.535
    1AU     LIG  471   4.742   3.027   6.544
    1AU     LIG  472   4.616   2.639   6.776
    1AU     LIG  473   4.681   2.203   6.894
    1AU       S  474   5.146   5.296   6.809
    1AU     LIG  475   4.834   4.894   6.911
    1AU     LIG  476   4.455   4.608   6.947
    1AU     LIG  477   4.244   4.261   7.207
    1AU     LIG  478   4.044   3.948   7.513
    1AU     LIG  479   4.042   3.692   7.922
    1AU     LIG  480   4.033   3.612   8.393
    1AU    AUSL  481   5.960   5.013   6.223
    1AU    AUSL  482   5.471   5.039   5.748
    1AU     AUL  483   5.651   4.805   6.020
    1AU       S  484   5.396   4.713   5.623
    1AU     LIG  485   5.092   4.414   5.547
    1AU     LIG  486   5.081   3.949   5.635
    1AU     LIG  487   5.093   3.481   5.521
    1AU     LIG  488   4.841   3.069   5.429
    1AU     LIG  489   4.668   2.644   5.269
    1AU     LIG  490   4.648   2.228   5.055
    1AU       S  491   5.912   4.821   6.392
    1AU     LIG  492   5.934   4.320   6.328
    1AU     LIG  493   5.729   3.884   6.444
    1AU     LIG  494   5.672   3.408   6.532
    1AU     LIG  495   5.913   2.968   6.534
    1AU     LIG  496   6.114   2.568   6.718
    1AU     LIG  497   6.262   2.196   6.954
    1AU    AUSL  498   5.743   6.518   5.439
    1AU    AUSL  499   6.046   6.288   5.766
    1AU     AUL  500   6.123   6.601   5.505
    1AU       S  501   5.790   6.809   5.256
    1AU     LIG  502   6.059   7.090   5.030
    1AU     LIG  503   6.170   7.514   4.890
    1AU     LIG  504   6.107   7.798   4.512
    1AU     LIG  505   6.049   8.107   4.153
    1AU     LIG  506   5.991   8.533   3.969
    1AU     LIG  507   6.029   8.864   3.635
    1AU       S  508   6.485   6.305   5.469
    1AU     LIG  509   6.786   6.743   5.324
    1AU     LIG  510   7.119   6.869   5.007
    1AU     LIG  511   7.393   7.157   4.737
    1AU     LIG  512   7.635   7.592   4.706
    1AU     LIG  513   7.833   8.026   4.588
    1AU     LIG  514   7.816   8.429   4.320
    1AU    AUSL  515   5.643   6.490   5.847
    1AU    AUSL  516   5.528   6.193   5.565
    1AU     AUL  517   5.476   6.680   5.589
    1AU       S  518   5.828   6.977   5.485
    1AU     LIG  519   5.890   7.461   5.343
    1AU     LIG  520   5.952   7.911   5.169
    1AU     LIG  521   5.781   8.369   5.082
    1AU     LIG  522   5.459   8.743   4.984
    1AU     LIG  523   5.415   9.222   4.853
    1AU     LIG  524   4.994   9.418   4.749
    1AU       S  525   5.326   6.489   5.187
    1AU     LIG  526   5.156   6.624   4.759
    1AU     LIG  527   4.962   6.934   4.425
    1AU     LIG  528   4.896   7.021   3.939
    1AU     LIG  529   4.873   7.363   3.598
    1AU     LIG  530   4.556   7.679   3.442
    1AU     LIG  531   4.242   7.906   3.148
    1AU    AUSL  532   5.827   5.129   5.486
    1AU    AUSL  533   5.405   5.429   5.860
    1AU     AUL  534   5.468   5.133   5.443
    1AU       S  535   5.019   5.028   5.686
    1AU     LIG  536   4.676   4.740   5.777
    1AU     LIG  537   4.265   4.605   5.564
    1AU     LIG  538   3.936   4.368   5.255
    1AU     LIG  539   3.694   4.035   4.974
    1AU     LIG  540   3.418   3.613   4.870
    1AU     LIG  541   3.260   3.300   4.536
    1AU       S  542   5.725   4.757   5.406
    1AU     LIG  543   5.484   4.477   5.156
    1AU     LIG  544   5.308   4.067   5.190
    1AU     LIG  545   5.340   3.620   5.086
    1AU     LIG  546   5.375   3.289   4.754
    1AU     LIG  547   5.364   3.121   4.300
    1AU     LIG  548   5.483   2.826   3.948
    1AU    AUSL  549   5.813   5.227   5.905
    1AU    AUSL  550   5.943   5.503   5.606
    1AU     AUL  551   5.989   4.984   5.717
    1AU       S  552   5.629   4.708   5.582
    1AU     LIG  553   5.581   4.235   5.617
    1AU     LIG  554   5.555   3.765   5.542
    1AU     LIG  555   5.639   3.314   5.416
    1AU     LIG  556   5.983   2.955   5.429
    1AU     LIG  557   6.282   2.594   5.322
    1AU     LIG  558   6.501   2.204   5.129
    1AU       S  559   6.241   5.061   5.317
    1AU     LIG  560   6.093   4.787   5.019
    1AU     LIG  561   6.327   4.462   4.778
    1AU     LIG  562   6.591   4.135   4.550
    1AU     LIG  563   6.738   3.927   4.154
    1AU     LIG  564   6.922   3.714   3.778
    1AU     LIG  565   7.222   3.571   3.454
    2POPC   NC3  566   1.401   2.502   7.915
    2POPC   PO4  567   1.146   3.077   8.138
    2POPC   GL1  568   1.237   2.979   7.717
    2POPC   GL2  569   0.906   2.831   7.693
    2POPC   C1A  570   1.254   2.707   7.317
    2POPC   D2A  571   1.468   2.700   6.942
    2POPC   C3A  572   1.352   2.744   6.537
    2POPC   C4A  573   1.649   2.976   6.301
    2POPC   C1B  574   0.880   3.044   7.293
    2POPC   C2B  575   1.008   3.043   6.862
    2POPC   C3B  576   0.859   2.873   6.472
    2POPC   C4B  577   1.097   2.778   6.082
    3POPC   NC3  578   2.747   1.958   8.085
    3POPC   PO4  579   3.226   2.304   7.719
    3POPC   GL1  580   3.009   1.907   7.607
    3POPC   GL2  581   2.664   1.743   7.629
    3POPC   C1A  582   3.017   1.908   7.185
    3POPC   D2A  583   3.119   2.008   6.792
    3POPC   C3A  584   3.001   1.871   6.467
    3POPC   C4A  585   3.067   1.957   6.103
    3POPC   C1B  586   2.537   2.023   7.311
    3POPC   C2B  587   2.582   2.118   6.876
    3POPC   C3B  588   2.506   2.032   6.456
    3POPC   C4B  589   2.613   2.149   6.023
    4POPC   NC3  590   8.559   5.197   8.162
    4POPC   PO4  591   9.039   5.471   8.208
    4POPC   GL1  592   8.927   5.269   7.788
    4POPC   GL2  593   8.962   4.909   7.674
    4POPC   C1A  594   8.945   5.279   7.302
    4POPC   D2A  595   9.194   5.185   6.895
    4POPC   C3A  596   9.045   5.255   6.446
    4POPC   C4A  597   8.789   5.285   6.057
    4POPC   C1B  598   8.999   4.778   7.191
    4POPC   C2B  599   8.858   4.828   6.732
    4POPC   C3B  600   8.850   4.810   6.280
    4POPC   C4B  601   8.939   4.521   5.953
    5POPC   NC3  602   1.404   0.519   8.072
    5POPC   PO4  603   0.845   0.826   7.976
    5POPC   GL1  604   1.015   0.464   7.707
    5POPC   GL2  605   1.240   0.152   7.756
    5POPC   C1A  606   0.918   0.370   7.271
    5POPC   D2A  607   0.831   0.549   6.864
    5POPC   C3A  608   0.847   0.183   6.606
    5POPC   C4A  609   0.858  11.488   6.225
    5POPC   C1B  610   1.427   0.377   7.387
    5POPC   C2B  611   1.340   0.535   6.953
    5POPC   C3B  612   1.226   0.517   6.508
    5POPC   C4B  613   1.274   0.260   6.157
    6POPC   NC3  614   7.882   2.566   7.976
    6POPC   PO4  615   7.596   3.129   8.017
    6POPC   GL1  616   7.528   2.823   7.664
    6POPC   GL2  617   7.179   2.735   7.673
    6POPC   C1A  618   7.522   2.755   7.188
    6POPC   D2A  619   7.382   2.868   6.743
    6POPC   C3A  620   7.595   2.767   6.329
    6POPC   C4A  621   7.647   2.914   5.886
    6POPC   C1B  622   7.175   2.427   7.358
    6POPC   C2B  623   7.174   2.414   6.904
    6POPC   C3B  624   7.099   2.522   6.459
    6POPC   C4B  625   7.270   2.480   6.043
    7POPC   NC3  626   2.128   5.680   8.145
    7POPC   PO4  627   1.657   6.113   8.051
    7POPC   GL1  628   1.662   5.951   7.661
    7POPC   GL2  629   2.019   5.921   7.658
    7POPC   C1A  630   1.641   6.134   7.241
    7POPC   D2A  631   1.821   6.021   6.866
    7POPC   C3A  632   1.685   6.067   6.447
    7POPC   C4A  633   1.730   5.693   6.236
    7POPC   C1B  634   1.868   5.673   7.292
    7POPC   C2B  635   2.031   5.562   6.885
    7POPC   C3B  636   2.136   5.801   6.514
    7POPC   C4B  637   2.190   5.784   6.059
    8POPC   NC3  638   0.412   5.418   8.133
    8POPC   PO4  639   0.053   4.899   8.139
    8POPC   GL1  640   0.236   5.000   7.810
    8POPC   GL2  641   0.570   5.017   7.856
    8POPC   C1A  642   0.119   4.848   7.383
    8POPC   D2A  643   0.172   4.654   6.965
    8POPC   C3A  644  11.494   4.791   6.594
    8POPC   C4A  645   0.212   4.863   6.240
    8POPC   C1B  646   0.547   5.154   7.451
    8POPC   C2B  647   0.508   5.037   7.034
    8POPC   C3B  648   0.457   5.149   6.576
    8POPC   C4B  649   0.614   5.180   6.153
    9POPC   NC3  650  11.220   5.251   8.158
    9POPC   PO4  651  11.007   4.624   8.349
    9POPC   GL1  652  11.119   4.789   7.859
    9POPC   GL2  653  11.265   5.110   7.696
    9POPC   C1A  654  11.086   4.806   7.374
    9POPC   D2A  655  11.058   5.085   6.973
    9POPC   C3A  656  10.956   4.896   6.588
    9POPC   C4A  657  11.080   4.831   6.185
    9POPC   C1B  658  11.388   5.296   7.308
    9POPC   C2B  659   0.055   5.209   6.881
    9POPC   C3B  660  11.422   5.271   6.396
    9POPC   C4B  661  11.179   5.292   5.967
   10POPC   NC3  662  11.360   8.166   7.905
   10POPC   PO4  663  10.652   8.319   8.039
   10POPC   GL1  664  10.947   8.324   7.638
   10POPC   GL2  665  11.319   8.407   7.488
   10POPC   C1A  666  10.888   8.336   7.193
   10POPC   D2A  667  10.894   8.491   6.801
   10POPC   C3A  668  11.034   8.184   6.584
   10POPC   C4A  669  10.982   8.044   6.198
   10POPC   C1B  670  11.329   8.033   7.248
   10POPC   C2B  671  11.456   8.081   6.843
   10POPC   C3B  672  11.468   7.969   6.452
   10POPC   C4B  673  11.410   8.293   6.199
   11POPC   NC3  674   3.542   2.432   8.032
   11POPC   PO4  675   4.199   2.542   8.276
   11POPC   GL1  676   3.962   2.526   7.789
   11POPC   GL2  677   3.613   2.750   7.639
   11POPC   C1A  678   3.849   2.429   7.347
   11POPC   D2A  679   3.650   2.682   7.076
   11POPC   C3A  680   3.762   2.550   6.692
   11POPC   C4A  681   3.756   2.814   6.369
   11POPC   C1B  682   3.216   2.823   7.326
   11POPC   C2B  683   3.092   2.948   6.890
   11POPC   C3B  684   3.217   2.842   6.451
   11POPC   C4B  685   3.425   3.166   6.194
   12POPC   NC3  686   4.798   7.989   8.039
   12POPC   PO4  687   5.155   7.579   7.944
   12POPC   GL1  688   5.042   7.883   7.589
   12POPC   GL2  689   5.115   8.220   7.690
   12POPC   C1A  690   4.950   7.913   7.119
   12POPC   D2A  691   5.132   7.905   6.686
   12POPC   C3A  692   4.808   7.959   6.348
   12POPC   C4A  693   4.421   8.079   6.094
   12POPC   C1B  694   5.224   8.314   7.245
   12POPC   C2B  695   5.015   8.389   6.828
   12POPC   C3B  696   5.189   8.317   6.380
   12POPC   C4B  697   5.257   7.956   6.083
   13POPC   NC3  698   8.469   0.957   7.987
   13POPC   PO4  699   7.758   1.060   8.134
   13POPC   GL1  700   8.007   1.097   7.757
   13POPC   GL2  701   7.826   1.351   7.556
   13POPC   C1A  702   8.097   0.911   7.352
   13POPC   D2A  703   7.956   1.027   6.916
   13POPC   C3A  704   8.252   0.960   6.595
   13POPC   C4A  705   8.293   1.088   6.182
   13POPC   C1B  706   8.145   1.402   7.221
   13POPC   C2B  707   8.237   1.481   6.793
   13POPC   C3B  708   7.949   1.356   6.460
   13POPC   C4B  709   7.752   1.633   6.163
   14POPC   NC3  710   1.107   9.559   8.093
   14POPC   PO4  711   0.854  10.185   8.135
   14POPC   GL1  712   1.023   9.936   7.756
   14POPC   GL2  713   1.396   9.867   7.754
   14POPC   C1A  714   0.866   9.928   7.339
   14POPC   D2A  715   1.129   9.895   6.968
   14POPC   C3A  716   1.062   9.634   6.602
   14POPC   C4A  717   1.138   9.862   6.235
   14POPC   C1B  718   1.308   9.629   7.381
   14POPC   C2B  719   1.513   9.526   6.975
   14POPC   C3B  720   1.581   9.646   6.570
   14POPC   C4B  721   1.481   9.484   6.174
   15POPC   NC3  722   1.266  10.552   8.186
   15POPC   PO4  723   0.726  10.688   7.825
   15POPC   GL1  724   0.982  10.430   7.653
   15POPC   GL2  725   1.347  10.412   7.685
   15POPC   C1A  726   1.064  10.381   7.239
   15POPC   D2A  727   1.300  10.491   6.911
   15POPC   C3A  728   1.137  10.268   6.568
   15POPC   C4A  729   0.906  10.320   6.194
   15POPC   C1B  730   1.549  10.224   7.298
   15POPC   C2B  731   1.596  10.067   6.857
   15POPC   C3B  732   1.612  10.136   6.397
   15POPC   C4B  733   1.391  10.363   6.096
   16POPC   NC3  734   3.603   9.376   8.254
   16POPC   PO4  735   3.064   9.219   7.994
   16POPC   GL1  736   3.422   9.463   7.763
   16POPC   GL2  737   3.664   9.752   7.824
   16POPC   C1A  738   3.440   9.552   7.315
   16POPC   D2A  739   3.330   9.724   6.902
   16POPC   C3A  740   3.300   9.524   6.473
   16POPC   C4A  741   3.204   9.512   6.034
   16POPC   C1B  742   3.731   9.967   7.391
   16POPC   C2B  743   3.820   9.941   6.918
   16POPC   C3B  744   3.782   9.735   6.480
   16POPC   C4B  745   3.684   9.733   6.015
   17POPC   NC3  746  10.465   1.258   8.281
   17POPC   PO4  747  10.364   1.822   7.958
   17POPC   GL1  748  10.303   1.511   7.648
   17POPC   GL2  749  10.453   1.180   7.724
   17POPC   C1A  750  10.544   1.409   7.254
   17POPC   D2A  751  10.682   1.240   6.866
   17POPC   C3A  752  10.628   1.567   6.600
   17POPC   C4A  753  10.485   1.550   6.203
   17POPC   C1B  754  10.133   1.121   7.371
   17POPC   C2B  755  10.217   1.021   6.955
   17POPC   C3B  756  10.238   1.202   6.548
   17POPC   C4B  757  10.247   1.056   6.104
   18POPC   NC3  758   3.819  11.338   8.157
   18POPC   PO4  759   3.278   0.054   7.840
   18POPC   GL1  760   3.629  11.395   7.677
   18POPC   GL2  761   3.552  11.053   7.686
   18POPC   C1A  762   3.755  11.340   7.273
   18POPC   D2A  763   3.716  11.045   6.948
   18POPC   C3A  764   3.684  11.200   6.579
   18POPC   C4A  765   3.721   0.017   6.297
   18POPC   C1B  766   3.293  11.075   7.289
   18POPC   C2B  767   3.226  10.921   6.852
   18POPC   C3B  768   3.263  11.008   6.403
   18POPC   C4B  769   3.590  11.001   6.085
   19POPC   NC3  770  11.346   6.242   8.125
   19POPC   PO4  771  11.256   6.910   7.994
   19POPC   GL1  772  11.253   6.705   7.631
   19POPC   GL2  773  11.257   6.355   7.652
   19POPC   C1A  774  11.145   6.825   7.214
   19POPC   D2A  775  11.103   7.004   6.794
   19POPC   C3A  776  11.212   6.799   6.341
   19POPC   C4A  777  10.906   6.944   5.955
   19POPC   C1B  778  11.230   6.326   7.224
   19POPC   C2B  779  11.043   6.493   6.845
   19POPC   C3B  780  11.055   6.314   6.457
   19POPC   C4B  781  11.460   6.249   6.270
   20POPC   NC3  782  10.431   0.268   8.416
   20POPC   PO4  783  10.971   0.047   8.121
   20POPC   GL1  784  10.754   0.234   7.737
   20POPC   GL2  785  10.400   0.361   7.761
   20POPC   C1A  786  10.591   0.242   7.283
   20POPC   D2A  787  10.510  11.495   6.913
   20POPC   C3A  788  10.571   0.219   6.527
   20POPC   C4A  789  10.687   0.180   6.100
   20POPC   C1B  790  10.267   0.612   7.358
   20POPC   C2B  791  10.407   0.555   6.912
   20POPC   C3B  792  10.265   0.677   6.508
   20POPC   C4B  793  10.213   0.407   6.181
   21POPC   NC3  794   6.955   1.116   7.961
   21POPC   PO4  795   6.259   1.164   8.038
   21POPC   GL1  796   6.509   0.974   7.682
   21POPC   GL2  797   6.289   0.750   7.485
   21POPC   C1A  798   6.851   1.064   7.342
   21POPC   D2A  799   6.789   1.231   6.944
   21POPC   C3A  800   6.548   0.976   6.692
   21POPC   C4A  801   6.560   1.202   6.329
   21POPC   C1B  802   6.342   1.099   7.188
   21POPC   C2B  803   6.292   1.461   6.903
   21POPC   C3B  804   6.361   1.664   6.484
   21POPC   C4B  805   6.209   1.490   6.101
   22POPC   NC3  806   9.009  11.045   8.044
   22POPC   PO4  807   9.292  10.498   7.930
   22POPC   GL1  808   9.169  10.815   7.609
   22POPC   GL2  809   9.076  11.204   7.581
   22POPC   C1A  810   8.948  10.828   7.222
   22POPC   D2A  811   8.650  10.761   6.889
   22POPC   C3A  812   8.684  10.986   6.519
   22POPC   C4A  813   8.979  10.996   6.254
   22POPC   C1B  814   8.692  11.241   7.356
   22POPC   C2B  815   8.792  11.289   6.927
   22POPC   C3B  816   8.691   0.007   6.540
   22POPC   C4B  817   8.745  11.432   6.105
   23POPC   NC3  818   0.478   1.091   7.869
   23POPC   PO4  819   0.796   1.615   7.987
   23POPC   GL1  820   0.701   1.479   7.604
   23POPC   GL2  821   0.306   1.486   7.617
   23POPC   C1A  822   0.599   1.560   7.185
   23POPC   D2A  823   0.503   1.319   6.828
   23POPC   C3A  824   0.485   1.601   6.493
   23POPC   C4A  825   0.309   1.551   6.094
   23POPC   C1B  826   0.159   1.236   7.265
   23POPC   C2B  827  11.468   1.089   6.907
   23POPC   C3B  828   0.091   1.237   6.501
   23POPC   C4B  829   0.479   1.067   6.310
   24POPC   NC3  830   4.236   8.605   8.180
   24POPC   PO4  831   4.049   9.225   8.166
   24POPC   GL1  832   4.075   9.006   7.789
   24POPC   GL2  833   4.393   8.890   7.732
   24POPC   C1A  834   4.052   8.913   7.328
   24POPC   D2A  835   4.177   8.596   7.006
   24POPC   C3A  836   4.127   8.706   6.547
   24POPC   C4A  837   4.080   8.490   6.152
   24POPC   C1B  838   4.550   8.855   7.285
   24POPC   C2B  839   4.431   9.008   6.848
   24POPC   C3B  840   4.542   8.959   6.399
   24POPC   C4B  841   4.681   9.153   6.030
   25POPC   NC3  842   3.540   1.354   8.170
   25POPC   PO4  843   3.211   0.701   8.052
   25POPC   GL1  844   3.247   0.893   7.643
   25POPC   GL2  845   3.510   1.140   7.563
   25POPC   C1A  846   3.150   1.038   7.226
   25POPC   D2A  847   3.355   1.076   6.823
   25POPC   C3A  848   3.155   1.098   6.420
   25POPC   C4A  849   3.171   1.467   6.142
   25POPC   C1B  850   3.815   1.400   7.281
   25POPC   C2B  851   3.976   1.525   6.856
   25POPC   C3B  852   3.920   1.469   6.411
   25POPC   C4B  853   3.629   1.187   6.344
   26POPC   NC3  854   5.639   9.703   8.248
   26POPC   PO4  855   6.080  10.151   8.213
   26POPC   GL1  856   6.098   9.844   7.806
   26POPC   GL2  857   5.787   9.643   7.743
   26POPC   C1A  858   6.010   9.881   7.311
   26POPC   D2A  859   6.180   9.757   6.882
   26POPC   C3A  860   5.946   9.823   6.488
   26POPC   C4A  861   6.012   9.882   6.052
   26POPC   C1B  862   5.649   9.510   7.318
   26POPC   C2B  863   5.626   9.644   6.876
   26POPC   C3B  864   5.493   9.538   6.445
   26POPC   C4B  865   5.717   9.461   6.039
   27POPC   NC3  866  11.117  10.419   8.019
   27POPC   PO4  867  10.751   9.915   7.774
   27POPC   GL1  868  11.112  10.096   7.604
   27POPC   GL2  869  11.134  10.469   7.521
   27POPC   C1A  870  11.217  10.036   7.182
   27POPC   D2A  871  10.945  10.071   6.820
   27POPC   C3A  872  11.182  10.266   6.543
   27POPC   C4A  873  11.227  10.123   6.137
   27POPC   C1B  874  10.844  10.756   7.297
   27POPC   C2B  875  11.013  10.649   6.913
   27POPC   C3B  876  11.106  10.830   6.519
   27POPC   C4B  877  11.333  10.626   6.226
   28POPC   NC3  878   5.445   0.130   7.908
   28POPC   PO4  879   5.011   0.589   8.231
   28POPC   GL1  880   5.203   0.548   7.773
   28POPC   GL2  881   5.121   0.280   7.539
   28POPC   C1A  882   5.360   0.624   7.284
   28POPC   D2A  883   5.081   0.363   6.989
   28POPC   C3A  884   5.166   0.326   6.553
   28POPC   C4A  885   5.291   0.644   6.295
   28POPC   C1B  886   4.871   0.648   7.387
   28POPC   C2B  887   4.632   0.678   7.020
   28POPC   C3B  888   4.766   0.675   6.586
   28POPC   C4B  889   4.798   0.972   6.252
   29POPC   NC3  890   8.688   2.598   8.031
   29POPC   PO4  891   8.202   2.912   8.000
   29POPC   GL1  892   8.526   2.890   7.625
   29POPC   GL2  893   8.769   2.579   7.527
   29POPC   C1A  894   8.816   3.026   7.278
   29POPC   D2A  895   8.915   3.339   6.945
   29POPC   C3A  896   8.971   3.198   6.519
   29POPC   C4A  897   8.683   3.033   6.180
   29POPC   C1B  898   9.090   2.606   7.175
   29POPC   C2B  899   8.966   2.714   6.765
   29POPC   C3B  900   9.058   2.713   6.334
   29POPC   C4B  901   9.057   2.556   5.911
   30POPC   NC3  902   7.378  10.609   8.209
   30POPC   PO4  903   7.712  10.789   7.663
   30POPC   GL1  904   7.355  10.559   7.562
   30POPC   GL2  905   7.398  10.255   7.771
   30POPC   C1A  906   7.269  10.395   7.154
   30POPC   D2A  907   6.993  10.434   6.824
   30POPC   C3A  908   7.157  10.637   6.479
   30POPC   C4A  909   7.504  10.656   6.216
   30POPC   C1B  910   7.681  10.155   7.434
   30POPC   C2B  911   7.619  10.058   7.004
   30POPC   C3B  912   7.514  10.262   6.619
   30POPC   C4B  913   7.478  10.125   6.195
   31POPC   NC3  914  10.246   4.543   7.636
   31POPC   PO4  915  10.113   4.048   7.930
   31POPC   GL1  916   9.982   4.117   7.515
   31POPC   GL2  917   9.692   4.287   7.533
   31POPC   C1A  918  10.006   4.288   7.065
   31POPC   D2A  919  10.142   4.663   6.784
   31POPC   C3A  920  10.036   4.600   6.341
   31POPC   C4A  921   9.780   4.256   6.214
   31POPC   C1B  922   9.484   4.134   7.150
   31POPC   C2B  923   9.319   3.923   6.769
   31POPC   C3B  924   9.322   4.134   6.392
   31POPC   C4B  925   9.336   4.591   6.313
   32POPC   NC3  926   0.340   2.077   7.965
   32POPC   PO4  927   0.979   2.349   7.887
   32POPC   GL1  928   0.848   2.027   7.606
   32POPC   GL2  929   0.508   1.941   7.526
   32POPC   C1A  930   0.764   2.152   7.174
   32POPC   D2A  931   0.478   1.976   6.885
   32POPC   C3A  932   0.704   2.078   6.537
   32POPC   C4A  933   0.854   1.919   6.162
   32POPC   C1B  934   0.146   1.828   7.281
   32POPC   C2B  935   0.090   1.613   6.892
   32POPC   C3B  936  11.487   1.763   6.470
   32POPC   C4B  937   0.279   2.046   6.258
   33POPC   NC3  938   9.436   5.669   8.248
   33POPC   PO4  939   9.921   6.047   8.151
   33POPC   GL1  940   9.957   5.822   7.758
   33POPC   GL2  941  10.163   6.022   7.587
   33POPC   C1A  942   9.916   5.658   7.313
   33POPC   D2A  943   9.855   5.808   6.875
   33POPC   C3A  944   9.742   5.600   6.493
   33POPC   C4A  945   9.867   5.679   6.082
   33POPC   C1B  946   9.865   6.174   7.247
   33POPC   C2B  947   9.699   6.283   6.797
   33POPC   C3B  948   9.686   6.102   6.373
   33POPC   C4B  949   9.438   5.930   6.042
   34POPC   NC3  950   5.066   1.077   8.169
   34POPC   PO4  951   5.657   0.718   8.096
   34POPC   GL1  952   5.427   0.984   7.729
   34POPC   GL2  953   5.168   1.261   7.708
   34POPC   C1A  954   5.379   1.121   7.279
   34POPC   D2A  955   5.066   0.967   6.983
   34POPC   C3A  956   5.190   1.048   6.580
   34POPC   C4A  957   5.258   1.168   6.144
   34POPC   C1B  958   4.901   1.325   7.330
   34POPC   C2B  959   4.763   1.427   6.908
   34POPC   C3B  960   4.898   1.444   6.468
   34POPC   C4B  961   4.997   1.598   6.049
   35POPC   NC3  962   7.737   9.198   8.086
   35POPC   PO4  963   8.445   9.228   8.044
   35POPC   GL1  964   8.314   9.076   7.653
   35POPC   GL2  965   7.986   9.108   7.644
   35POPC   C1A  966   8.199   8.831   7.265
   35POPC   D2A  967   8.064   8.676   6.818
   35POPC   C3A  968   8.331   8.640   6.419
   35POPC   C4A  969   8.316   8.780   5.983
   35POPC   C1B  970   7.817   9.169   7.246
   35POPC   C2B  971   7.989   9.179   6.840
   35POPC   C3B  972   8.012   9.052   6.396
   35POPC   C4B  973   7.851   8.998   5.948
   36POPC   NC3  974   8.867  10.385   8.076
   36POPC   PO4  975   8.520  11.034   8.023
   36POPC   GL1  976   8.617  10.660   7.652
   36POPC   GL2  977   8.898  10.368   7.585
   36POPC   C1A  978   8.558  10.409   7.230
   36POPC   D2A  979   8.609  10.250   6.801
   36POPC   C3A  980   8.381  10.549   6.491
   36POPC   C4A  981   8.546  10.729   6.088
   36POPC   C1B  982   9.081  10.329   7.168
   36POPC   C2B  983   9.118  10.592   6.802
   36POPC   C3B  984   8.886  10.512   6.435
   36POPC   C4B  985   8.957  10.126   6.285
   37POPC   NC3  986   7.109   8.824   7.950
   37POPC   PO4  987   7.786   8.605   8.181
   37POPC   GL1  988   7.750   8.660   7.752
   37POPC   GL2  989   7.542   8.881   7.696
   37POPC   C1A  990   7.717   8.649   7.273
   37POPC   D2A  991   7.581   8.873   6.890
   37POPC   C3A  992   7.437   8.639   6.555
   37POPC   C4A  993   7.797   8.605   6.302
   37POPC   C1B  994   7.328   8.994   7.322
   37POPC   C2B  995   7.128   9.085   6.938
   37POPC   C3B  996   7.140   9.085   6.492
   37POPC   C4B  997   7.390   8.973   6.149
   38POPC   NC3  998   0.576  11.026   8.084
   38POPC   PO4  999   1.142  10.957   8.429
   38POPC   GL1 1000   1.178  10.954   7.891
   38POPC   GL2 1001   0.945  11.191   7.722
   38POPC   C1A 1002   1.227  10.862   7.390
   38POPC   D2A 1003   1.210  11.053   6.939
   38POPC   C3A 1004   1.218  10.822   6.530
   38POPC   C4A 1005   0.949  10.864   6.178
   38POPC   C1B 1006   1.153  11.382   7.343
   38POPC   C2B 1007   1.444   0.019   7.018
   38POPC   C3B 1008   1.355   0.029   6.606
   38POPC   C4B 1009   1.299  11.262   6.265
   39POPC   NC3 1010   9.340   8.526   8.091
   39POPC   PO4 1011   9.247   7.860   8.047
   39POPC   GL1 1012   9.545   8.051   7.715
   39POPC   GL2 1013   9.728   8.363   7.720
   39POPC   C1A 1014   9.696   8.042   7.270
   39POPC   D2A 1015   9.829   7.756   6.917
   39POPC   C3A 1016   9.636   7.803   6.484
   39POPC   C4A 1017   9.723   7.787   6.040
   39POPC   C1B 1018   9.638   8.557   7.336
   39POPC   C2B 1019   9.536   8.426   6.921
   39POPC   C3B 1020   9.701   8.453   6.504
   39POPC   C4B 1021   9.549   8.233   6.155
   40POPC   NC3 1022   1.147   1.294   7.999
   40POPC   PO4 1023   1.720   0.864   8.085
   40POPC   GL1 1024   1.482   0.945   7.738
   40POPC   GL2 1025   1.536   1.273   7.654
   40POPC   C1A 1026   1.583   0.875   7.296
   40POPC   D2A 1027   1.738   0.854   6.864
   40POPC   C3A 1028   1.400   0.987   6.583
   40POPC   C4A 1029   1.038   0.959   6.288
   40POPC   C1B 1030   1.252   1.286   7.318
   40POPC   C2B 1031   1.288   1.394   6.878
   40POPC   C3B 1032   0.955   1.368   6.567
   40POPC   C4B 1033   0.818   1.409   6.143
   41POPC   NC3 1034   8.003   3.327   8.033
   41POPC   PO4 1035   8.316   3.817   7.921
   41POPC   GL1 1036   8.332   3.420   7.667
   41POPC   GL2 1037   7.992   3.488   7.537
   41POPC   C1A 1038   8.374   3.275   7.248
   41POPC   D2A 1039   8.417   3.564   6.902
   41POPC   C3A 1040   8.512   3.433   6.497
   41POPC   C4A 1041   8.321   3.390   6.109
   41POPC   C1B 1042   7.921   3.437   7.074
   41POPC   C2B 1043   8.031   3.279   6.646
   41POPC   C3B 1044   7.831   3.250   6.231
   41POPC   C4B 1045   7.478   3.393   5.956
   42POPC   NC3 1046  11.132   9.763   8.014
   42POPC   PO4 1047  10.819   9.210   7.823
   42POPC   GL1 1048  11.008   9.530   7.551
   42POPC   GL2 1049  11.361   9.638   7.574
   42POPC   C1A 1050  10.816   9.683   7.170
   42POPC   D2A 1051  10.655   9.459   6.804
   42POPC   C3A 1052  10.670   9.694   6.441
   42POPC   C4A 1053  10.868   9.773   6.036
   42POPC   C1B 1054  11.411   9.561   7.148
   42POPC   C2B 1055  11.162   9.593   6.807
   42POPC   C3B 1056  11.187   9.698   6.422
   42POPC   C4B 1057  11.326   9.540   6.051
   43POPC   NC3 1058  11.100   7.262   8.243
   43POPC   PO4 1059  11.107   7.783   7.854
   43POPC   GL1 1060  11.203   7.315   7.664
   43POPC   GL2 1061  10.932   7.100   7.597
   43POPC   C1A 1062  11.455   7.211   7.275
   43POPC   D2A 1063   0.083   6.933   6.926
   43POPC   C3A 1064   0.003   7.171   6.529
   43POPC   C4A 1065  11.364   7.523   6.265
   43POPC   C1B 1066  10.975   7.433   7.240
   43POPC   C2B 1067  11.033   7.750   6.906
   43POPC   C3B 1068  10.881   7.663   6.502
   43POPC   C4B 1069  10.962   7.240   6.371
   44POPC   NC3 1070   1.529   8.046   8.176
   44POPC   PO4 1071   0.897   8.143   8.221
   44POPC   GL1 1072   1.161   8.197   7.803
   44POPC   GL2 1073   1.142   8.553   7.655
   44POPC   C1A 1074   1.407   8.156   7.387
   44POPC   D2A 1075   1.522   8.316   6.950
   44POPC   C3A 1076   1.604   8.186   6.543
   44POPC   C4A 1077   1.363   8.121   6.177
   44POPC   C1B 1078   0.945   8.376   7.289
   44POPC   C2B 1079   1.064   8.113   6.995
   44POPC   C3B 1080   1.092   8.213   6.610
   44POPC   C4B 1081   0.878   8.285   6.239
   45POPC   NC3 1082   3.320   3.407   8.023
   45POPC   PO4 1083   2.682   3.231   8.061
   45POPC   GL1 1084   2.687   3.214   7.636
   45POPC   GL2 1085   2.504   3.529   7.594
   45POPC   C1A 1086   2.915   3.300   7.235
   45POPC   D2A 1087   2.779   3.377   6.791
   45POPC   C3A 1088   2.948   3.364   6.360
   45POPC   C4A 1089   2.951   3.810   6.162
   45POPC   C1B 1090   2.346   3.313   7.250
   45POPC   C2B 1091   2.147   3.502   6.929
   45POPC   C3B 1092   2.364   3.624   6.602
   45POPC   C4B 1093   2.431   3.275   6.376
   46POPC   NC3 1094  10.752   8.839   8.079
   46POPC   PO4 1095  11.312   9.343   8.158
   46POPC   GL1 1096  11.328   9.134   7.740
   46POPC   GL2 1097  11.178   8.806   7.785
   46POPC   C1A 1098  11.465   9.071   7.315
   46POPC   D2A 1099  11.251   9.092   6.906
   46POPC   C3A 1100  11.467   9.190   6.508
   46POPC   C4A 1101  11.198   9.058   6.181
   46POPC   C1B 1102  11.048   8.791   7.342
   46POPC   C2B 1103  11.347   8.597   7.013
   46POPC   C3B 1104  11.338   8.651   6.555
   46POPC   C4B 1105  10.983   8.581   6.261
   47POPC   NC3 1106   0.639   3.018   8.114
   47POPC   PO4 1107   0.194   2.499   8.084
   47POPC   GL1 1108   0.394   2.727   7.756
   47POPC   GL2 1109   0.545   2.450   7.627
   47POPC   C1A 1110   0.404   2.841   7.312
   47POPC   D2A 1111   0.499   2.984   6.918
   47POPC   C3A 1112   0.211   3.000   6.592
   47POPC   C4A 1113   0.425   2.945   6.211
   47POPC   C1B 1114   0.293   2.334   7.283
   47POPC   C2B 1115   0.355   2.482   6.886
   47POPC   C3B 1116   0.347   2.506   6.476
   47POPC   C4B 1117   0.685   2.453   6.199
   48POPC   NC3 1118   5.418   0.404   8.338
   48POPC   PO4 1119   5.961   0.217   7.918
   48POPC   GL1 1120   5.694   0.367   7.581
   48POPC   GL2 1121   5.777   0.623   7.592
   48POPC   C1A 1122   5.535   0.161   7.208
   48POPC   D2A 1123   5.650   0.386   6.838
   48POPC   C3A 1124   5.652   0.152   6.489
   48POPC   C4A 1125   5.414  11.418   6.216
   48POPC   C1B 1126   6.017   0.402   7.223
   48POPC   C2B 1127   6.194   0.652   6.959
   48POPC   C3B 1128   6.101   0.720   6.576
   48POPC   C4B 1129   5.872   0.519   6.215
   49POPC   NC3 1130  10.704   4.898   8.163
   49POPC   PO4 1131  10.764   5.511   8.091
   49POPC   GL1 1132  10.754   5.204   7.695
   49POPC   GL2 1133  10.481   4.994   7.705
   49POPC   C1A 1134  10.641   4.967   7.236
   49POPC   D2A 1135  10.517   5.066   6.818
   49POPC   C3A 1136  10.449   4.903   6.433
   49POPC   C4A 1137  10.649   5.090   6.128
   49POPC   C1B 1138  10.265   5.266   7.382
   49POPC   C2B 1139  10.169   5.400   6.939
   49POPC   C3B 1140  10.184   5.339   6.472
   49POPC   C4B 1141   9.856   5.171   6.171
   50POPC   NC3 1142   8.091  10.679   7.896
   50POPC   PO4 1143   8.487  10.202   7.896
   50POPC   GL1 1144   8.214  10.265   7.577
   50POPC   GL2 1145   8.105  10.560   7.403
   50POPC   C1A 1146   8.142  10.084   7.192
   50POPC   D2A 1147   8.057  10.258   6.815
   50POPC   C3A 1148   8.225  10.017   6.570
   50POPC   C4A 1149   8.437  10.118   6.224
   50POPC   C1B 1150   7.759  10.543   7.103
   50POPC   C2B 1151   7.543  10.741   6.823
   50POPC   C3B 1152   7.870  10.693   6.557
   50POPC   C4B 1153   7.945  10.346   6.289
   51POPC   NC3 1154   9.916   1.726   8.002
   51POPC   PO4 1155   9.295   1.586   8.275
   51POPC   GL1 1156   9.435   1.895   7.831
   51POPC   GL2 1157   9.742   2.127   7.724
   51POPC   C1A 1158   9.448   1.950   7.333
   51POPC   D2A 1159   9.719   1.887   6.933
   51POPC   C3A 1160   9.529   1.949   6.521
   51POPC   C4A 1161   9.336   1.792   6.143
   51POPC   C1B 1162   9.852   2.264   7.293
   51POPC   C2B 1163   9.523   2.371   6.967
   51POPC   C3B 1164   9.512   2.466   6.518
   51POPC   C4B 1165   9.857   2.271   6.258
   52POPC   NC3 1166  10.478   2.252   8.176
   52POPC   PO4 1167  10.790   1.723   8.302
   52POPC   GL1 1168  10.774   2.073   7.806
   52POPC   GL2 1169  10.397   2.090   7.556
   52POPC   C1A 1170  10.811   2.137   7.312
   52POPC   D2A 1171  10.560   1.896   6.993
   52POPC   C3A 1172  10.543   2.078   6.555
   52POPC   C4A 1173  10.540   2.058   6.106
   52POPC   C1B 1174  10.104   1.813   7.309
   52POPC   C2B 1175  10.117   1.529   6.966
   52POPC   C3B 1176  10.128   1.718   6.577
   52POPC   C4B 1177  10.080   1.833   6.161
   53POPC   NC3 1178   2.871   5.773   8.225
   53POPC   PO4 1179   3.279   6.133   8.021
   53POPC   GL1 1180   2.898   5.982   7.755
   53POPC   GL2 1181   2.582   5.712   7.710
   53POPC   C1A 1182   2.894   5.844   7.335
   53POPC   D2A 1183   2.971   6.039   6.964
   53POPC   C3A 1184   3.028   5.760   6.620
   53POPC   C4A 1185   3.113   5.883   6.198
   53POPC   C1B 1186   2.405   5.710   7.231
   53POPC   C2B 1187   2.548   5.586   6.763
   53POPC   C3B 1188   2.605   5.834   6.342
   53POPC   C4B 1189   2.484   6.206   6.188
   54POPC   NC3 1190   8.938   9.279   8.097
   54POPC   PO4 1191   8.936   9.946   8.206
   54POPC   GL1 1192   8.828   9.850   7.732
   54POPC   GL2 1193   8.805   9.496   7.650
   54POPC   C1A 1194   8.754   9.934   7.276
   54POPC   D2A 1195   8.956   9.843   6.838
   54POPC   C3A 1196   8.676   9.740   6.469
   54POPC   C4A 1197   8.694   9.624   5.991
   54POPC   C1B 1198   9.117   9.568   7.298
   54POPC   C2B 1199   9.193   9.326   6.933
   54POPC   C3B 1200   9.188   9.328   6.523
   54POPC   C4B 1201   9.123   9.641   6.239
   55POPC   NC3 1202   9.756   0.240   7.954
   55POPC   PO4 1203   9.251  11.427   8.086
   55POPC   GL1 1204   9.288   0.158   7.710
   55POPC   GL2 1205   9.409   0.504   7.633
   55POPC   C1A 1206   9.498   0.068   7.315
   55POPC   D2A 1207   9.463   0.306   6.938
   55POPC   C3A 1208   9.337   0.099   6.583
   55POPC   C4A 1209   9.320   0.294   6.189
   55POPC   C1B 1210   9.759   0.518   7.311
   55POPC   C2B 1211   9.859   0.640   6.859
   55POPC   C3B 1212   9.740   0.433   6.463
   55POPC   C4B 1213   9.755   0.495   6.011
   56POPC   NC3 1214   0.146   8.183   8.416
   56POPC   PO4 1215   0.276   7.909   7.853
   56POPC   GL1 1216   0.301   8.186   7.578
   56POPC   GL2 1217   0.643   8.266   7.671
   56POPC   C1A 1218   0.337   8.127   7.163
   56POPC   D2A 1219   0.596   8.190   6.854
   56POPC   C3A 1220   0.388   8.262   6.518
   56POPC   C4A 1221   0.363   8.074   6.145
   56POPC   C1B 1222   0.743   7.900   7.349
   56POPC   C2B 1223   0.755   7.702   6.904
   56POPC   C3B 1224   0.738   7.864   6.459
   56POPC   C4B 1225   0.759   7.869   5.934
   57POPC   NC3 1226   0.589   4.095   7.931
   57POPC   PO4 1227   0.414   3.428   8.115
   57POPC   GL1 1228   0.436   3.598   7.721
   57POPC   GL2 1229   0.571   3.262   7.630
   57POPC   C1A 1230   0.425   3.830   7.326
   57POPC   D2A 1231   0.653   3.892   6.926
   57POPC   C3A 1232   0.478   3.837   6.546
   57POPC   C4A 1233   0.652   3.728   6.131
   57POPC   C1B 1234   0.247   3.334   7.310
   57POPC   C2B 1235   0.361   3.472   6.910
   57POPC   C3B 1236   0.586   3.345   6.534
   57POPC   C4B 1237   0.233   3.442   6.244
   58POPC   NC3 1238   5.185  10.957   8.115
   58POPC   PO4 1239   4.976   0.057   7.973
   58POPC   GL1 1240   4.824  11.361   7.616
   58POPC   GL2 1241   4.951  11.071   7.674
   58POPC   C1A 1242   5.069  11.375   7.236
   58POPC   D2A 1243   5.257  11.366   6.833
   58POPC   C3A 1244   4.908  11.387   6.532
   58POPC   C4A 1245   4.919  11.463   6.104
   58POPC   C1B 1246   5.102  10.873   7.300
   58POPC   C2B 1247   5.235  10.819   6.876
   58POPC   C3B 1248   5.231  10.999   6.448
   58POPC   C4B 1249   5.218  10.965   5.988
   59POPC   NC3 1250   2.926   0.282   8.077
   59POPC   PO4 1251   2.464   0.815   7.956
   59POPC   GL1 1252   2.780   0.648   7.692
   59POPC   GL2 1253   2.598   0.349   7.668
   59POPC   C1A 1254   2.999   0.546   7.312
   59POPC   D2A 1255   2.911   0.295   6.947
   59POPC   C3A 1256   2.886   0.440   6.532
   59POPC   C4A 1257   2.876   0.235   6.151
   59POPC   C1B 1258   2.478   0.447   7.234
   59POPC   C2B 1259   2.294   0.725   6.902
   59POPC   C3B 1260   2.208   0.757   6.466
   59POPC   C4B 1261   2.493   0.725   6.056
   60POPC   NC3 1262   8.983   1.267   8.137
   60POPC   PO4 1263   8.332   1.381   8.074
   60POPC   GL1 1264   8.671   1.364   7.719
   60POPC   GL2 1265   8.882   1.086   7.651
   60POPC   C1A 1266   8.660   1.336   7.245
   60POPC   D2A 1267   8.861   1.273   6.819
   60POPC   C3A 1268   8.611   1.391   6.456
   60POPC   C4A 1269   8.666   1.344   5.976
   60POPC   C1B 1270   9.125   1.108   7.247
   60POPC   C2B 1271   9.232   0.807   6.954
   60POPC   C3B 1272   9.241   1.001   6.592
   60POPC   C4B 1273   9.075   1.290   6.282
   61POPC   NC3 1274   2.321  10.406   7.941
   61POPC   PO4 1275   1.717  10.689   8.104
   61POPC   GL1 1276   1.859  10.514   7.717
   61POPC   GL2 1277   1.870  10.133   7.733
   61POPC   C1A 1278   1.816  10.672   7.311
   61POPC   D2A 1279   1.677  10.841   6.931
   61POPC   C3A 1280   1.902  10.716   6.579
   61POPC   C4A 1281   1.815  10.649   6.178
   61POPC   C1B 1282   2.071  10.216   7.337
   61POPC   C2B 1283   1.997  10.369   6.930
   61POPC   C3B 1284   2.107  10.207   6.509
   61POPC   C4B 1285   2.037  10.231   6.056
   62POPC   NC3 1286   0.317   4.550   8.272
   62POPC   PO4 1287   0.092   4.060   7.968
   62POPC   GL1 1288   0.049   4.434   7.746
   62POPC   GL2 1289   0.379   4.528   7.750
   62POPC   C1A 1290   0.196   4.312   7.327
   62POPC   D2A 1291   0.181   4.083   6.954
   62POPC   C3A 1292   0.168   4.276   6.579
   62POPC   C4A 1293   0.237   4.075   6.189
   62POPC   C1B 1294   0.586   4.633   7.378
   62POPC   C2B 1295   0.679   4.503   6.956
   62POPC   C3B 1296   0.524   4.637   6.581
   62POPC   C4B 1297   0.560   4.463   6.180
   63POPC   NC3 1298   1.166   8.841   8.080
   63POPC   PO4 1299   1.551   9.469   8.094
   63POPC   GL1 1300   1.381   9.232   7.732
   63POPC   GL2 1301   1.044   9.099   7.659
   63POPC   C1A 1302   1.364   9.133   7.277
   63POPC   D2A 1303   1.106   9.210   6.924
   63POPC   C3A 1304   1.342   9.169   6.576
   63POPC   C4A 1305   1.191   9.090   6.190
   63POPC   C1B 1306   0.923   8.883   7.293
   63POPC   C2B 1307   1.175   8.697   6.939
   63POPC   C3B 1308   1.098   8.703   6.499
   63POPC   C4B 1309   0.791   8.764   6.153
   64POPC   NC3 1310   9.808  10.863   8.066
   64POPC   PO4 1311  10.166   0.036   8.107
   64POPC   GL1 1312   9.952  11.256   7.763
   64POPC   GL2 1313   9.583  11.188   7.695
   64POPC   C1A 1314   9.929  11.155   7.300
   64POPC   D2A 1315   9.738  11.307   6.886
   64POPC   C3A 1316   9.922  11.107   6.506
   64POPC   C4A 1317   9.840  10.756   6.255
   64POPC   C1B 1318   9.429  11.054   7.243
   64POPC   C2B 1319   9.267  11.093   6.798
   64POPC   C3B 1320   9.436  11.153   6.369
   64POPC   C4B 1321   9.257  11.316   5.971
   65POPC   NC3 1322   0.746   7.754   7.983
   65POPC   PO4 1323   1.407   7.680   7.917
   65POPC   GL1 1324   1.108   7.563   7.666
   65POPC   GL2 1325   1.142   7.225   7.806
   65POPC   C1A 1326   1.184   7.675   7.245
   65POPC   D2A 1327   1.451   7.796   6.935
   65POPC   C3A 1328   1.241   7.729   6.591
   65POPC   C4A 1329   1.127   7.654   6.213
   65POPC   C1B 1330   1.203   7.174   7.346
   65POPC   C2B 1331   0.959   7.137   6.933
   65POPC   C3B 1332   1.014   7.202   6.478
   65POPC   C4B 1333   1.456   7.280   6.339
   66POPC   NC3 1334   8.917   0.269   8.137
   66POPC   PO4 1335   9.176   0.844   8.082
   66POPC   GL1 1336   8.907   0.590   7.739
   66POPC   GL2 1337   8.717   0.253   7.674
   66POPC   C1A 1338   8.862   0.679   7.300
   66POPC   D2A 1339   8.656   0.819   6.901
   66POPC   C3A 1340   8.736   0.898   6.416
   66POPC   C4A 1341   8.630   0.802   5.941
   66POPC   C1B 1342   8.964   0.173   7.314
   66POPC   C2B 1343   8.870   0.321   6.926
   66POPC   C3B 1344   9.014   0.503   6.586
   66POPC   C4B 1345   8.811   0.426   6.228
   67POPC   NC3 1346   4.302   3.006   8.220
   67POPC   PO4 1347   3.678   3.136   8.041
   67POPC   GL1 1348   4.028   3.051   7.749
   67POPC   GL2 1349   4.349   2.830   7.699
   67POPC   C1A 1350   4.015   2.941   7.320
   67POPC   D2A 1351   4.151   2.774   6.925
   67POPC   C3A 1352   4.230   2.944   6.502
   67POPC   C4A 1353   4.418   3.096   6.117
   67POPC   C1B 1354   4.346   2.481   7.330
   67POPC   C2B 1355   4.171   2.276   6.926
   67POPC   C3B 1356   4.229   2.431   6.510
   67POPC   C4B 1357   4.575   2.595   6.258
   68POPC   NC3 1358   9.937   9.328   8.103
   68POPC   PO4 1359   9.781   8.705   8.078
   68POPC   GL1 1360   9.723   8.947   7.707
   68POPC   GL2 1361   9.351   8.903   7.690
   68POPC   C1A 1362   9.973   9.006   7.318
   68POPC   D2A 1363   9.935   8.751   6.911
   68POPC   C3A 1364   9.905   8.925   6.456
   68POPC   C4A 1365  10.011   9.167   6.035
   68POPC   C1B 1366   9.343   8.943   7.222
   68POPC   C2B 1367   9.443   8.900   6.751
   68POPC   C3B 1368   9.403   8.874   6.344
   68POPC   C4B 1369   9.180   8.481   6.389
   69POPC   NC3 1370  11.473   3.623   8.122
   69POPC   PO4 1371  10.737   3.546   7.925
   69POPC   GL1 1372  10.852   3.515   7.542
   69POPC   GL2 1373  11.163   3.354   7.655
   69POPC   C1A 1374  10.823   3.754   7.187
   69POPC   D2A 1375  10.894   3.627   6.765
   69POPC   C3A 1376  10.749   3.877   6.436
   69POPC   C4A 1377  10.969   3.717   6.043
   69POPC   C1B 1378  11.254   3.113   7.303
   69POPC   C2B 1379  11.344   3.254   6.877
   69POPC   C3B 1380  11.258   3.283   6.417
   69POPC   C4B 1381  11.040   3.034   6.104
   70POPC   NC3 1382   1.217   5.973   7.925
   70POPC   PO4 1383   0.891   5.428   8.081
   70POPC   GL1 1384   0.995   5.590   7.673
   70POPC   GL2 1385   1.350   5.534   7.688
   70POPC   C1A 1386   0.875   5.475   7.245
   70POPC   D2A 1387   0.680   5.497   6.860
   70POPC   C3A 1388   0.933   5.377   6.493
   70POPC   C4A 1389   1.053   5.465   6.051
   70POPC   C1B 1390   1.306   5.752   7.282
   70POPC   C2B 1391   1.224   5.602   6.864
   70POPC   C3B 1392   1.254   5.763   6.439
   70POPC   C4B 1393   1.330   5.918   6.035
   71POPC   NC3 1394   9.862   6.551   8.049
   71POPC   PO4 1395  10.498   6.353   7.903
   71POPC   GL1 1396  10.544   6.343   7.540
   71POPC   GL2 1397  10.810   6.497   7.494
   71POPC   C1A 1398  10.403   6.245   7.161
   71POPC   D2A 1399  10.570   6.316   6.759
   71POPC   C3A 1400  10.275   6.548   6.545
   71POPC   C4A 1401   9.974   6.535   6.260
   71POPC   C1B 1402  10.655   6.690   7.175
   71POPC   C2B 1403  10.636   6.818   6.801
   71POPC   C3B 1404  10.723   6.723   6.394
   71POPC   C4B 1405  10.423   6.758   6.075
   72POPC   NC3 1406   2.867   1.027   8.030
   72POPC   PO4 1407   3.069   1.603   8.076
   72POPC   GL1 1408   3.004   1.363   7.669
   72POPC   GL2 1409   2.695   1.173   7.596
   72POPC   C1A 1410   2.853   1.438   7.217
   72POPC   D2A 1411   2.726   1.643   6.869
   72POPC   C3A 1412   2.785   1.428   6.523
   72POPC   C4A 1413   2.638   1.634   6.184
   72POPC   C1B 1414   2.632   0.947   7.242
   72POPC   C2B 1415   2.844   0.826   6.873
   72POPC   C3B 1416   2.690   0.921   6.485
   72POPC   C4B 1417   2.395   1.192   6.308
   73POPC   NC3 1418   9.639   7.616   8.032
   73POPC   PO4 1419   9.729   6.987   7.982
   73POPC   GL1 1420   9.617   7.308   7.623
   73POPC   GL2 1421   9.806   7.633   7.549
   73POPC   C1A 1422   9.465   7.469   7.198
   73POPC   D2A 1423   9.471   7.395   6.730
   73POPC   C3A 1424   9.322   7.092   6.373
   73POPC   C4A 1425   9.364   6.851   5.953
   73POPC   C1B 1426   9.958   7.327   7.220
   73POPC   C2B 1427  10.010   7.296   6.762
   73POPC   C3B 1428   9.808   7.274   6.366
   73POPC   C4B 1429   9.865   7.008   6.012
   74POPC   NC3 1430  10.533   3.916   8.095
   74POPC   PO4 1431  10.659   4.542   7.870
   74POPC   GL1 1432  10.717   4.417   7.502
   74POPC   GL2 1433  10.505   4.125   7.570
   74POPC   C1A 1434  10.742   4.275   7.109
   74POPC   D2A 1435  10.644   4.563   6.826
   74POPC   C3A 1436  10.655   4.451   6.431
   74POPC   C4A 1437  10.641   4.606   6.015
   74POPC   C1B 1438  10.350   3.937   7.230
   74POPC   C2B 1439  10.456   3.938   6.848
   74POPC   C3B 1440  10.248   4.180   6.599
   74POPC   C4B 1441  10.306   4.164   6.209
   75POPC   NC3 1442   4.909  10.355   8.142
   75POPC   PO4 1443   5.485  10.006   7.952
   75POPC   GL1 1444   5.273  10.276   7.671
   75POPC   GL2 1445   5.078  10.577   7.720
   75POPC   C1A 1446   5.168  10.202   7.225
   75POPC   D2A 1447   5.046  10.241   6.781
   75POPC   C3A 1448   4.982   9.948   6.390
   75POPC   C4A 1449   4.991   9.965   5.899
   75POPC   C1B 1450   4.757  10.499   7.378
   75POPC   C2B 1451   4.653  10.628   6.932
   75POPC   C3B 1452   4.875  10.640   6.539
   75POPC   C4B 1453   5.014  10.422   6.161
   76POPC   NC3 1454   7.591   8.211   8.017
   76POPC   PO4 1455   7.016   8.382   7.881
   76POPC   GL1 1456   7.221   8.525   7.527
   76POPC   GL2 1457   7.459   8.304   7.536
   76POPC   C1A 1458   7.239   8.533   7.075
   76POPC   D2A 1459   7.180   8.217   6.762
   76POPC   C3A 1460   7.057   8.326   6.368
   76POPC   C4A 1461   7.055   8.600   6.020
   76POPC   C1B 1462   7.351   8.034   7.216
   76POPC   C2B 1463   7.557   7.888   6.838
   76POPC   C3B 1464   7.417   7.918   6.388
   76POPC   C4B 1465   7.516   7.798   5.942
   77POPC   NC3 1466   2.424  11.225   8.475
   77POPC   PO4 1467   3.048  11.389   8.305
   77POPC   GL1 1468   2.780  11.391   7.812
   77POPC   GL2 1469   2.558  11.116   7.786
   77POPC   C1A 1470   2.768  11.491   7.347
   77POPC   D2A 1471   2.889  11.296   6.937
   77POPC   C3A 1472   2.709  11.448   6.543
   77POPC   C4A 1473   2.439  11.426   6.184
   77POPC   C1B 1474   2.753  10.981   7.370
   77POPC   C2B 1475   2.696  10.841   6.951
   77POPC   C3B 1476   2.784  10.948   6.535
   77POPC   C4B 1477   2.622  10.930   6.120
   78POPC   NC3 1478   7.821   0.619   8.016
   78POPC   PO4 1479   8.510   0.512   8.096
   78POPC   GL1 1480   8.292   0.562   7.728
   78POPC   GL2 1481   8.138   0.277   7.769
   78POPC   C1A 1482   8.398   0.485   7.319
   78POPC   D2A 1483   8.205   0.569   6.952
   78POPC   C3A 1484   8.439   0.467   6.593
   78POPC   C4A 1485   8.239   0.565   6.225
   78POPC   C1B 1486   7.890   0.384   7.397
   78POPC   C2B 1487   7.858   0.191   7.011
   78POPC   C3B 1488   7.844   0.421   6.604
   78POPC   C4B 1489   7.726   0.166   6.278
   79POPC   NC3 1490   2.039   0.518   8.005
   79POPC   PO4 1491   2.454   0.058   8.165
   79POPC   GL1 1492   2.174   0.057   7.773
   79POPC   GL2 1493   1.900   0.281   7.586
   79POPC   C1A 1494   2.210  11.488   7.333
   79POPC   D2A 1495   2.413  11.499   6.951
   79POPC   C3A 1496   2.169   0.088   6.577
   79POPC   C4A 1497   2.152   0.344   6.202
   79POPC   C1B 1498   1.923   0.467   7.185
   79POPC   C2B 1499   1.784   0.352   6.768
   79POPC   C3B 1500   1.718   0.583   6.383
   79POPC   C4B 1501   1.692   0.444   5.960
   80POPC   NC3 1502  10.805   3.263   8.278
   80POPC   PO4 1503  10.132   3.335   8.236
   80POPC   GL1 1504  10.309   3.339   7.747
   80POPC   GL2 1505  10.343   3.657   7.645
   80POPC   C1A 1506  10.628   3.064   7.469
   80POPC   D2A 1507  10.815   3.240   7.091
   80POPC   C3A 1508  10.812   3.100   6.655
   80POPC   C4A 1509  10.730   3.384   6.335
   80POPC   C1B 1510  10.346   3.432   7.245
   80POPC   C2B 1511  10.195   3.501   6.838
   80POPC   C3B 1512  10.274   3.662   6.415
   80POPC   C4B 1513  10.475   3.723   6.018
   81POPC   NC3 1514  10.853   6.669   7.979
   81POPC   PO4 1515  10.691   7.321   8.065
   81POPC   GL1 1516  10.443   7.174   7.709
   81POPC   GL2 1517  10.117   7.304   7.782
   81POPC   C1A 1518  10.513   7.182   7.239
   81POPC   D2A 1519  10.684   7.316   6.827
   81POPC   C3A 1520  10.440   7.158   6.475
   81POPC   C4A 1521  10.556   7.270   6.095
   81POPC   C1B 1522  10.304   7.602   7.463
   81POPC   C2B 1523  10.330   7.619   7.004
   81POPC   C3B 1524  10.354   7.655   6.553
   81POPC   C4B 1525  10.154   7.549   6.146
   82POPC   NC3 1526   0.545   9.908   7.930
   82POPC   PO4 1527   0.787   9.215   8.077
   82POPC   GL1 1528   0.691   9.457   7.722
   82POPC   GL2 1529   0.321   9.474   7.732
   82POPC   C1A 1530   0.833   9.432   7.286
   82POPC   D2A 1531   0.654   9.686   6.914
   82POPC   C3A 1532   0.500   9.544   6.506
   82POPC   C4A 1533   0.802   9.467   6.176
   82POPC   C1B 1534   0.377   9.676   7.347
   82POPC   C2B 1535   0.268  10.001   7.070
   82POPC   C3B 1536   0.050   9.930   6.705
   82POPC   C4B 1537   0.161   9.875   6.268
   83POPC   NC3 1538   3.332   1.970   8.000
   83POPC   PO4 1539   3.918   1.641   8.233
   83POPC   GL1 1540   3.633   1.614   7.745
   83POPC   GL2 1541   3.528   1.950   7.512
   83POPC   C1A 1542   3.334   1.541   7.358
   83POPC   D2A 1543   3.464   1.686   6.999
   83POPC   C3A 1544   3.392   1.564   6.607
   83POPC   C4A 1545   3.532   1.815   6.273
   83POPC   C1B 1546   3.442   2.208   7.131
   83POPC   C2B 1547   3.277   2.469   6.812
   83POPC   C3B 1548   3.400   2.312   6.414
   83POPC   C4B 1549   3.811   2.322   6.229
   84POPC   NC3 1550   6.654  10.704   7.967
   84POPC   PO4 1551   7.074  10.247   8.172
   84POPC   GL1 1552   6.874  10.284   7.744
   84POPC   GL2 1553   6.483  10.266   7.717
   84POPC   C1A 1554   6.799  10.494   7.337
   84POPC   D2A 1555   6.518  10.567   6.986
   84POPC   C3A 1556   6.568  10.454   6.543
   84POPC   C4A 1557   6.692  10.781   6.316
   84POPC   C1B 1558   6.459  10.123   7.273
   84POPC   C2B 1559   6.612  10.049   6.841
   84POPC   C3B 1560   6.454   9.960   6.399
   84POPC   C4B 1561   6.506   9.955   5.923
   85POPC   NC3 1562   9.682   2.668   7.953
   85POPC   PO4 1563   9.090   2.438   7.913
   85POPC   GL1 1564   9.255   2.773   7.636
   85POPC   GL2 1565   9.455   2.509   7.510
   85POPC   C1A 1566   9.327   3.072   7.249
   85POPC   D2A 1567   9.434   2.882   6.843
   85POPC   C3A 1568   9.477   3.016   6.428
   85POPC   C4A 1569   9.494   2.765   6.079
   85POPC   C1B 1570   9.712   2.751   7.244
   85POPC   C2B 1571   9.972   2.643   6.894
   85POPC   C3B 1572   9.973   2.717   6.457
   85POPC   C4B 1573   9.949   2.993   6.138
   86POPC   NC3 1574   0.207   9.123   8.079
   86POPC   PO4 1575  11.480   8.537   8.156
   86POPC   GL1 1576   0.215   8.682   7.732
   86POPC   GL2 1577   0.585   8.822   7.760
   86POPC   C1A 1578   0.457   8.602   7.305
   86POPC   D2A 1579   0.667   8.687   6.890
   86POPC   C3A 1580   0.362   8.776   6.571
   86POPC   C4A 1581   0.299   8.613   6.159
   86POPC   C1B 1582   0.465   9.101   7.407
   86POPC   C2B 1583   0.545   9.178   6.951
   86POPC   C3B 1584   0.758   9.107   6.546
   86POPC   C4B 1585   0.435   9.121   6.192
   87POPC   NC3 1586   6.272   2.422   8.097
   87POPC   PO4 1587   6.893   2.420   7.982
   87POPC   GL1 1588   6.753   2.273   7.600
   87POPC   GL2 1589   6.419   2.406   7.565
   87POPC   C1A 1590   6.725   2.284   7.150
   87POPC   D2A 1591   6.654   2.498   6.760
   87POPC   C3A 1592   6.585   2.359   6.352
   87POPC   C4A 1593   6.785   2.629   6.035
   87POPC   C1B 1594   6.420   2.705   7.178
   87POPC   C2B 1595   6.426   2.958   6.767
   87POPC   C3B 1596   6.370   2.822   6.326
   87POPC   C4B 1597   6.140   2.928   5.939
   88POPC   NC3 1598   5.857  10.273   7.832
   88POPC   PO4 1599   5.361  10.539   8.248
   88POPC   GL1 1600   5.564  10.701   7.809
   88POPC   GL2 1601   5.856  10.850   7.593
   88POPC   C1A 1602   5.520  10.586   7.326
   88POPC   D2A 1603   5.616  10.432   6.892
   88POPC   C3A 1604   5.395  10.512   6.479
   88POPC   C4A 1605   5.475  10.525   5.996
   88POPC   C1B 1606   6.082  10.523   7.286
   88POPC   C2B 1607   6.118  10.275   6.911
   88POPC   C3B 1608   6.033  10.467   6.554
   88POPC   C4B 1609   5.792  10.276   6.286
   89POPC   NC3 1610   1.130   1.922   8.023
   89POPC   PO4 1611   1.585   2.334   8.313
   89POPC   GL1 1612   1.591   2.063   7.833
   89POPC   GL2 1613   1.367   1.770   7.618
   89POPC   C1A 1614   1.535   2.140   7.357
   89POPC   D2A 1615   1.275   2.213   7.002
   89POPC   C3A 1616   1.471   2.216   6.600
   89POPC   C4A 1617   1.171   2.314   6.284
   89POPC   C1B 1618   1.117   1.774   7.267
   89POPC   C2B 1619   0.960   1.787   6.876
   89POPC   C3B 1620   1.183   1.820   6.530
   89POPC   C4B 1621   1.297   1.567   6.212
   90POPC   NC3 1622   6.117   0.722   7.981
   90POPC   PO4 1623   6.866   0.641   7.965
   90POPC   GL1 1624   6.766   0.539   7.569
   90POPC   GL2 1625   6.913   0.250   7.458
   90POPC   C1A 1626   6.684   0.639   7.140
   90POPC   D2A 1627   6.612   0.438   6.777
   90POPC   C3A 1628   6.830   0.590   6.457
   90POPC   C4A 1629   6.715   0.795   6.077
   90POPC   C1B 1630   6.496   0.180   7.290
   90POPC   C2B 1631   6.375  11.492   6.916
   90POPC   C3B 1632   6.164   0.225   6.631
   90POPC   C4B 1633   6.365   0.375   6.291
   91POPC   NC3 1634   4.222   2.075   8.297
   91POPC   PO4 1635   3.781   2.050   7.923
   91POPC   GL1 1636   4.028   2.026   7.585
   91POPC   GL2 1637   4.126   1.705   7.562
   91POPC   C1A 1638   3.884   1.931   7.156
   91POPC   D2A 1639   3.740   2.023   6.721
   91POPC   C3A 1640   4.076   1.950   6.427
   91POPC   C4A 1641   4.291   2.183   6.066
   91POPC   C1B 1642   4.387   1.889   7.227
   91POPC   C2B 1643   4.400   1.796   6.792
   91POPC   C3B 1644   4.572   1.833   6.365
   91POPC   C4B 1645   4.543   1.768   5.908
   92POPC   NC3 1646   7.558  11.163   7.883
   92POPC   PO4 1647   6.836  11.164   7.967
   92POPC   GL1 1648   6.960  10.931   7.576
   92POPC   GL2 1649   7.272  11.122   7.475
   92POPC   C1A 1650   7.061  10.865   7.102
   92POPC   D2A 1651   7.224  11.129   6.785
   92POPC   C3A 1652   7.036  11.139   6.402
   92POPC   C4A 1653   7.073  10.866   5.999
   92POPC   C1B 1654   7.590  11.181   7.150
   92POPC   C2B 1655   7.802  11.195   6.774
   92POPC   C3B 1656   7.641  11.133   6.381
   92POPC   C4B 1657   7.376  11.314   6.078
   93POPC   NC3 1658   0.474  10.479   8.142
   93POPC   PO4 1659   0.093   9.923   7.942
   93POPC   GL1 1660   0.131  10.130   7.556
   93POPC   GL2 1661   0.445  10.306   7.608
   93POPC   C1A 1662   0.044  10.443   7.213
   93POPC   D2A 1663   0.249  10.618   6.824
   93POPC   C3A 1664   0.250  10.347   6.490
   93POPC   C4A 1665   0.606  10.047   6.513
   93POPC   C1B 1666   0.556  10.542   7.237
   93POPC   C2B 1667   0.806  10.721   6.928
   93POPC   C3B 1668   0.713  10.601   6.556
   93POPC   C4B 1669   0.513  10.631   6.168
   94POPC   NC3 1670   4.560   0.557   8.093
   94POPC   PO4 1671   4.034   0.159   7.879
   94POPC   GL1 1672   4.272   0.395   7.561
   94POPC   GL2 1673   4.605   0.320   7.652
   94POPC   C1A 1674   4.152   0.449   7.100
   94POPC   D2A 1675   3.847   0.309   6.734
   94POPC   C3A 1676   4.019   0.439   6.301
   94POPC   C4A 1677   4.386   0.689   6.161
   94POPC   C1B 1678   4.633   0.185   7.230
   94POPC   C2B 1679   4.566   0.224   6.787
   94POPC   C3B 1680   4.508   0.197   6.361
   94POPC   C4B 1681   4.434  11.338   6.095
   95POPC   NC3 1682   7.103   2.016   7.925
   95POPC   PO4 1683   7.738   2.127   8.133
   95POPC   GL1 1684   7.555   2.155   7.670
   95POPC   GL2 1685   7.418   1.821   7.537
   95POPC   C1A 1686   7.573   2.164   7.182
   95POPC   D2A 1687   7.413   1.974   6.783
   95POPC   C3A 1688   7.509   2.170   6.391
   95POPC   C4A 1689   7.470   2.011   5.979
   95POPC   C1B 1690   7.099   1.936   7.195
   95POPC   C2B 1691   6.899   2.010   6.744
   95POPC   C3B 1692   7.001   2.043   6.284
   95POPC   C4B 1693   6.751   2.131   5.922
   96POPC   NC3 1694  11.122   4.295   8.049
   96POPC   PO4 1695  11.048   3.666   8.327
   96POPC   GL1 1696  11.147   3.834   7.827
   96POPC   GL2 1697  10.974   4.007   7.651
   96POPC   C1A 1698  11.323   3.806   7.343
   96POPC   D2A 1699  11.180   4.027   6.912
   96POPC   C3A 1700  11.259   3.952   6.431
   96POPC   C4A 1701  10.958   4.201   6.128
   96POPC   C1B 1702  11.192   4.307   7.364
   96POPC   C2B 1703  11.168   4.544   6.956
   96POPC   C3B 1704  11.148   4.426   6.549
   96POPC   C4B 1705  11.402   4.450   6.182
   97POPC   NC3 1706   8.019   1.730   8.074
   97POPC   PO4 1707   8.528   2.171   8.012
   97POPC   GL1 1708   8.534   1.869   7.675
   97POPC   GL2 1709   8.256   1.639   7.647
   97POPC   C1A 1710   8.455   1.819   7.233
   97POPC   D2A 1711   8.286   2.018   6.879
   97POPC   C3A 1712   8.437   1.899   6.476
   97POPC   C4A 1713   8.262   1.643   6.182
   97POPC   C1B 1714   7.935   1.843   7.408
   97POPC   C2B 1715   7.812   1.730   6.998
   97POPC   C3B 1716   7.894   1.851   6.588
   97POPC   C4B 1717   8.035   2.130   6.270
   98POPC   NC3 1718  11.053   5.833   8.234
   98POPC   PO4 1719   0.109   5.986   7.847
   98POPC   GL1 1720  11.300   5.850   7.580
   98POPC   GL2 1721  11.131   5.597   7.742
   98POPC   C1A 1722  11.340   5.798   7.158
   98POPC   D2A 1723  11.234   5.571   6.793
   98POPC   C3A 1724  11.236   5.770   6.384
   98POPC   C4A 1725  11.017   5.981   6.047
   98POPC   C1B 1726  10.924   5.507   7.325
   98POPC   C2B 1727  10.741   5.511   6.924
   98POPC   C3B 1728  10.845   5.385   6.514
   98POPC   C4B 1729  10.781   5.564   6.139
   99POPC   NC3 1730   1.496   6.517   8.218
   99POPC   PO4 1731   0.905   6.341   7.969
   99POPC   GL1 1732   1.212   6.405   7.662
   99POPC   GL2 1733   1.304   6.747   7.706
   99POPC   C1A 1734   1.152   6.253   7.243
   99POPC   D2A 1735   1.309   6.115   6.830
   99POPC   C3A 1736   1.184   6.279   6.419
   99POPC   C4A 1737   1.488   6.405   6.106
   99POPC   C1B 1738   0.990   6.725   7.324
   99POPC   C2B 1739   1.153   6.638   6.888
   99POPC   C3B 1740   1.305   6.776   6.470
   99POPC   C4B 1741   1.084   6.721   6.091
  100POPC   NC3 1742   1.388   4.379   7.998
  100POPC   PO4 1743   0.746   4.600   8.093
  100POPC   GL1 1744   0.952   4.421   7.661
  100POPC   GL2 1745   1.289   4.145   7.559
  100POPC   C1A 1746   0.869   4.164   7.295
  100POPC   D2A 1747   1.114   4.076   6.910
  100POPC   C3A 1748   0.855   4.203   6.543
  100POPC   C4A 1749   1.009   4.156   6.120
  100POPC   C1B 1750   1.330   4.441   7.251
  100POPC   C2B 1751   1.268   4.547   6.832
  100POPC   C3B 1752   1.343   4.326   6.461
  100POPC   C4B 1753   1.402   4.536   6.092
  101POPC   NC3 1754   7.185   9.813   8.097
  101POPC   PO4 1755   7.294   9.251   7.933
  101POPC   GL1 1756   7.534   9.400   7.617
  101POPC   GL2 1757   7.479   9.737   7.673
  101POPC   C1A 1758   7.428   9.486   7.158
  101POPC   D2A 1759   7.519   9.387   6.733
  101POPC   C3A 1760   7.273   9.628   6.427
  101POPC   C4A 1761   7.149   9.425   6.063
  101POPC   C1B 1762   7.218   9.921   7.330
  101POPC   C2B 1763   7.138   9.939   6.851
  101POPC   C3B 1764   6.998  10.103   6.417
  101POPC   C4B 1765   7.030   9.940   5.974
  102POPC   NC3 1766   2.131   8.557   7.976
  102POPC   PO4 1767   1.499   8.514   8.091
  102POPC   GL1 1768   1.668   8.519   7.708
  102POPC   GL2 1769   1.758   8.869   7.737
  102POPC   C1A 1770   1.554   8.669   7.298
  102POPC   D2A 1771   1.675   8.906   6.903
  102POPC   C3A 1772   1.644   8.706   6.478
  102POPC   C4A 1773   1.768   8.454   6.088
  102POPC   C1B 1774   2.036   8.790   7.390
  102POPC   C2B 1775   2.199   8.861   7.030
  102POPC   C3B 1776   2.147   8.856   6.633
  102POPC   C4B 1777   2.114   8.831   6.217
  103POPC   NC3 1778   3.008   6.483   8.028
  103POPC   PO4 1779   2.463   6.001   8.113
  103POPC   GL1 1780   2.452   6.202   7.676
  103POPC   GL2 1781   2.620   6.497   7.673
  103POPC   C1A 1782   2.543   6.199   7.223
  103POPC   D2A 1783   2.499   6.078   6.772
  103POPC   C3A 1784   2.872   6.235   6.508
  103POPC   C4A 1785   2.959   6.396   6.087
  103POPC   C1B 1786   2.651   6.696   7.251
  103POPC   C2B 1787   2.625   6.549   6.835
  103POPC   C3B 1788   2.653   6.671   6.408
  103POPC   C4B 1789   2.873   6.924   6.109
  104POPC   NC3 1790   7.696   1.399   8.441
  104POPC   PO4 1791   7.176   1.547   7.943
  104POPC   GL1 1792   7.296   1.307   7.573
  104POPC   GL2 1793   7.468   0.988   7.705
  104POPC   C1A 1794   7.362   1.477   7.125
  104POPC   D2A 1795   7.486   1.475   6.661
  104POPC   C3A 1796   7.259   1.593   6.242
  104POPC   C4A 1797   7.446   1.479   5.787
  104POPC   C1B 1798   7.564   1.000   7.258
  104POPC   C2B 1799   7.241   1.005   6.928
  104POPC   C3B 1800   7.097   1.088   6.508
  104POPC   C4B 1801   7.485   1.136   6.267
  105POPC   NC3 1802   3.718  10.279   8.029
  105POPC   PO4 1803   3.261   9.841   8.149
  105POPC   GL1 1804   3.286  10.094   7.768
  105POPC   GL2 1805   3.266  10.482   7.787
  105POPC   C1A 1806   3.216  10.028   7.329
  105POPC   D2A 1807   3.362  10.228   6.949
  105POPC   C3A 1808   3.233  10.077   6.541
  105POPC   C4A 1809   3.509  10.157   6.236
  105POPC   C1B 1810   3.515  10.475   7.393
  105POPC   C2B 1811   3.758  10.540   7.006
  105POPC   C3B 1812   3.591  10.620   6.571
  105POPC   C4B 1813   3.843  10.558   6.192
  106POPC   NC3 1814   0.608   6.766   7.924
  106POPC   PO4 1815   0.239   6.403   8.299
  106POPC   GL1 1816   0.202   6.497   7.827
  106POPC   GL2 1817   0.470   6.333   7.635
  106POPC   C1A 1818   0.148   6.608   7.349
  106POPC   D2A 1819   0.132   6.403   6.922
  106POPC   C3A 1820   0.246   6.629   6.541
  106POPC   C4A 1821   0.275   6.638   6.106
  106POPC   C1B 1822   0.599   6.404   7.203
  106POPC   C2B 1823   0.621   6.735   6.899
  106POPC   C3B 1824   0.797   6.686   6.512
  106POPC   C4B 1825   0.696   6.373   6.237
  107POPC   NC3 1826   5.841  10.548   8.282
  107POPC   PO4 1827   5.605  11.220   8.077
  107POPC   GL1 1828   5.446  11.185   7.649
  107POPC   GL2 1829   5.720  11.364   7.575
  107POPC   C1A 1830   5.563  11.090   7.203
  107POPC   D2A 1831   5.917  10.906   6.996
  107POPC   C3A 1832   5.717  10.870   6.640
  107POPC   C4A 1833   5.686  10.913   6.230
  107POPC   C1B 1834   6.016  11.373   7.278
  107POPC   C2B 1835   5.859  11.406   6.901
  107POPC   C3B 1836   6.009  11.261   6.561
  107POPC   C4B 1837   5.963  11.369   6.206
  108POPC   NC3 1838   9.935   3.635   7.955
  108POPC   PO4 1839   9.874   3.050   7.815
  108POPC   GL1 1840   9.857   3.292   7.481
  108POPC   GL2 1841   9.889   3.632   7.425
  108POPC   C1A 1842   9.808   3.233   7.078
  108POPC   D2A 1843   9.870   3.120   6.727
  108POPC   C3A 1844   9.818   3.419   6.412
  108POPC   C4A 1845   9.636   3.379   6.011
  108POPC   C1B 1846   9.498   3.610   7.170
  108POPC   C2B 1847   9.399   3.406   6.763
  108POPC   C3B 1848   9.293   3.581   6.340
  108POPC   C4B 1849   9.471   3.853   6.002
  109POPC   NC3 1850   2.068   4.584   8.047
  109POPC   PO4 1851   2.042   3.991   8.122
  109POPC   GL1 1852   1.825   4.165   7.761
  109POPC   GL2 1853   2.158   4.185   7.634
  109POPC   C1A 1854   1.772   4.172   7.288
  109POPC   D2A 1855   1.643   4.171   6.838
  109POPC   C3A 1856   1.837   4.429   6.471
  109POPC   C4A 1857   1.883   4.781   6.148
  109POPC   C1B 1858   2.224   3.902   7.268
  109POPC   C2B 1859   2.143   4.017   6.844
  109POPC   C3B 1860   2.291   4.133   6.415
  109POPC   C4B 1861   2.018   4.161   6.061
  110POPC   NC3 1862  10.158   8.408   8.038
  110POPC   PO4 1863  10.344   9.092   8.167
  110POPC   GL1 1864  10.232   8.838   7.767
  110POPC   GL2 1865  10.521   8.635   7.676
  110POPC   C1A 1866  10.144   8.530   7.372
  110POPC   D2A 1867  10.417   8.506   6.981
  110POPC   C3A 1868  10.251   8.559   6.549
  110POPC   C4A 1869  10.278   8.747   6.129
  110POPC   C1B 1870  10.520   8.874   7.327
  110POPC   C2B 1871  10.730   8.970   6.973
  110POPC   C3B 1872  10.657   8.876   6.568
  110POPC   C4B 1873  10.698   9.035   6.189
  111POPC   NC3 1874   0.503   0.538   8.117
  111POPC   PO4 1875   0.316  11.405   8.086
  111POPC   GL1 1876   0.548   0.103   7.721
  111POPC   GL2 1877   0.515   0.466   7.596
  111POPC   C1A 1878   0.496   0.053   7.265
  111POPC   D2A 1879   0.395   0.275   6.872
  111POPC   C3A 1880   0.373   0.041   6.445
  111POPC   C4A 1881   0.457   0.137   5.968
  111POPC   C1B 1882   0.391   0.750   7.228
  111POPC   C2B 1883   0.366   0.805   6.774
  111POPC   C3B 1884   0.519   0.556   6.450
  111POPC   C4B 1885   0.826   0.509   6.171
  112POPC   NC3 1886  10.611   9.557   8.031
  112POPC   PO4 1887   9.922   9.777   8.219
  112POPC   GL1 1888  10.191   9.749   7.834
  112POPC   GL2 1889  10.298   9.368   7.700
  112POPC   C1A 1890  10.190   9.816   7.393
  112POPC   D2A 1891  10.015   9.620   7.041
  112POPC   C3A 1892  10.197   9.665   6.652
  112POPC   C4A 1893  10.017   9.700   6.206
  112POPC   C1B 1894  10.392   9.354   7.256
  112POPC   C2B 1895  10.243   9.157   6.865
  112POPC   C3B 1896  10.310   9.235   6.432
  112POPC   C4B 1897  10.438   9.468   6.045
  113POPC   NC3 1898   9.548  10.028   8.354
  113POPC   PO4 1899   9.275   9.587   7.948
  113POPC   GL1 1900   9.664   9.734   7.754
  113POPC   GL2 1901   9.815   9.468   7.624
  113POPC   C1A 1902   9.664   9.879   7.323
  113POPC   D2A 1903   9.518   9.724   6.923
  113POPC   C3A 1904   9.737   9.895   6.592
  113POPC   C4A 1905   9.531   9.911   6.204
  113POPC   C1B 1906   9.596   9.369   7.306
  113POPC   C2B 1907   9.727   9.237   6.942
  113POPC   C3B 1908   9.784   9.389   6.581
  113POPC   C4B 1909   9.592   9.391   6.229
  114POPC   NC3 1910  10.201  10.305   8.116
  114POPC   PO4 1911  10.864  10.110   8.256
  114POPC   GL1 1912  10.676  10.396   7.783
  114POPC   GL2 1913  10.371  10.251   7.639
  114POPC   C1A 1914  10.741  10.269   7.266
  114POPC   D2A 1915  10.521  10.393   6.901
  114POPC   C3A 1916  10.700  10.511   6.533
  114POPC   C4A 1917  10.736  10.178   6.300
  114POPC   C1B 1918  10.363  10.591   7.345
  114POPC   C2B 1919  10.096  10.703   6.997
  114POPC   C3B 1920  10.206  10.640   6.565
  114POPC   C4B 1921  10.356  10.473   6.144
  115POPC   NC3 1922  10.644   7.804   7.986
  115POPC   PO4 1923   9.967   7.958   8.011
  115POPC   GL1 1924  10.124   8.055   7.624
  115POPC   GL2 1925  10.465   8.116   7.616
  115POPC   C1A 1926  10.199   8.059   7.192
  115POPC   D2A 1927  10.004   8.234   6.874
  115POPC   C3A 1928  10.056   8.062   6.493
  115POPC   C4A 1929  10.085   8.271   6.143
  115POPC   C1B 1930  10.685   7.887   7.283
  115POPC   C2B 1931  10.606   8.031   6.855
  115POPC   C3B 1932  10.549   8.156   6.451
  115POPC   C4B 1933  10.518   7.890   6.112
  116POPC   NC3 1934   0.004   7.559   7.961
  116POPC   PO4 1935   0.635   7.232   7.903
  116POPC   GL1 1936   0.326   7.356   7.637
  116POPC   GL2 1937   0.175   7.015   7.682
  116POPC   C1A 1938   0.288   7.605   7.246
  116POPC   D2A 1939   0.047   7.579   6.849
  116POPC   C3A 1940   0.322   7.583   6.473
  116POPC   C4A 1941   0.658   7.450   6.183
  116POPC   C1B 1942   0.454   7.031   7.282
  116POPC   C2B 1943   0.464   7.259   6.882
  116POPC   C3B 1944   0.495   7.082   6.487
  116POPC   C4B 1945   0.671   6.972   6.082
  117POPC   NC3 1946   8.480   9.781   8.099
  117POPC   PO4 1947   7.827   9.598   8.284
  117POPC   GL1 1948   8.065   9.554   7.863
  117POPC   GL2 1949   7.985   9.849   7.744
  117POPC   C1A 1950   8.345   9.602   7.437
  117POPC   D2A 1951   8.440   9.689   6.948
  117POPC   C3A 1952   8.233   9.509   6.545
  117POPC   C4A 1953   8.146   9.710   6.183
  117POPC   C1B 1954   7.861   9.678   7.343
  117POPC   C2B 1955   7.927   9.687   6.912
  117POPC   C3B 1956   7.760   9.791   6.509
  117POPC   C4B 1957   7.705   9.420   6.225
  118POPC   NC3 1958   3.591   0.387   7.921
  118POPC   PO4 1959   3.798   1.036   7.956
  118POPC   GL1 1960   3.774   0.709   7.590
  118POPC   GL2 1961   3.778   0.349   7.454
  118POPC   C1A 1962   3.544   0.719   7.193
  118POPC   D2A 1963   3.344   0.547   6.818
  118POPC   C3A 1964   3.600   0.715   6.506
  118POPC   C4A 1965   3.650   0.758   6.054
  118POPC   C1B 1966   3.408   0.220   7.229
  118POPC   C2B 1967   3.368  11.449   6.905
  118POPC   C3B 1968   3.229   0.031   6.511
  118POPC   C4B 1969   3.356   0.372   6.248
  119POPC   NC3 1970  11.266   2.383   8.161
  119POPC   PO4 1971  10.727   2.718   8.216
  119POPC   GL1 1972  10.884   2.587   7.834
  119POPC   GL2 1973  11.198   2.798   7.838
  119POPC   C1A 1974  10.976   2.640   7.408
  119POPC   D2A 1975  10.858   2.740   7.025
  119POPC   C3A 1976  10.918   2.417   6.760
  119POPC   C4A 1977  10.900   2.404   6.315
  119POPC   C1B 1978  11.463   2.671   7.490
  119POPC   C2B 1979  11.432   2.717   7.034
  119POPC   C3B 1980  11.236   2.797   6.654
  119POPC   C4B 1981  11.397   2.719   6.288
  120POPC   NC3 1982   8.110  11.393   8.128
  120POPC   PO4 1983   7.766  10.867   8.184
  120POPC   GL1 1984   8.045  11.137   7.715
  120POPC   GL2 1985   7.853  11.388   7.540
  120POPC   C1A 1986   8.096  11.044   7.220
  120POPC   D2A 1987   8.306  11.113   6.833
  120POPC   C3A 1988   8.182  11.061   6.387
  120POPC   C4A 1989   7.992  10.821   6.056
  120POPC   C1B 1990   8.251  11.499   7.374
  120POPC   C2B 1991   8.388   0.095   6.980
  120POPC   C3B 1992   8.163   0.037   6.608
  120POPC   C4B 1993   8.246   0.048   6.211
  121POPC   NC3 1994   6.018   1.553   8.079
  121POPC   PO4 1995   5.348   1.574   8.088
  121POPC   GL1 1996   5.680   1.416   7.733
  121POPC   GL2 1997   5.916   1.107   7.677
  121POPC   C1A 1998   5.911   1.459   7.328
  121POPC   D2A 1999   5.760   1.368   6.925
  121POPC   C3A 2000   5.955   1.346   6.519
  121POPC   C4A 2001   5.741   1.314   6.095
  121POPC   C1B 2002   5.853   0.946   7.231
  121POPC   C2B 2003   5.595   0.889   6.861
  121POPC   C3B 2004   5.676   0.944   6.427
  121POPC   C4B 2005   6.105   0.983   6.160
  122POPC   NC3 2006  10.751   1.576   7.870
  122POPC   PO4 2007  11.352   1.934   8.070
  122POPC   GL1 2008  11.285   2.188   7.686
  122POPC   GL2 2009  11.185   1.860   7.562
  122POPC   C1A 2010  11.291   2.261   7.232
  122POPC   D2A 2011  11.487   2.118   6.884
  122POPC   C3A 2012  11.369   2.277   6.534
  122POPC   C4A 2013  11.341   2.240   6.120
  122POPC   C1B 2014  11.140   1.780   7.125
  122POPC   C2B 2015  11.021   1.928   6.728
  122POPC   C3B 2016  10.994   1.873   6.293
  122POPC   C4B 2017  10.913   1.677   5.895
  123POPC   NC3 2018   1.303   3.492   8.013
  123POPC   PO4 2019   1.053   4.062   7.990
  123POPC   GL1 2020   0.949   3.736   7.668
  123POPC   GL2 2021   1.282   3.600   7.513
  123POPC   C1A 2022   0.848   3.550   7.258
  123POPC   D2A 2023   1.131   3.547   6.910
  123POPC   C3A 2024   0.988   3.699   6.533
  123POPC   C4A 2025   1.151   3.665   6.133
  123POPC   C1B 2026   1.369   3.229   7.240
  123POPC   C2B 2027   1.497   3.185   6.784
  123POPC   C3B 2028   1.240   3.242   6.412
  123POPC   C4B 2029   1.323   3.206   5.928
  124POPC   NC3 2030   9.276  10.040   7.867
  124POPC   PO4 2031   9.755  10.430   8.236
  124POPC   GL1 2032   9.771  10.448   7.758
  124POPC   GL2 2033   9.938  10.718   7.581
  124POPC   C1A 2034   9.533  10.536   7.320
  124POPC   D2A 2035   9.575  10.242   6.953
  124POPC   C3A 2036   9.414  10.287   6.527
  124POPC   C4A 2037   9.352  10.660   6.334
  124POPC   C1B 2038   9.970  10.291   7.322
  124POPC   C2B 2039  10.098  10.110   6.935
  124POPC   C3B 2040  10.234  10.135   6.504
  124POPC   C4B 2041   9.910  10.244   6.234
  125POPC   NC3 2042  11.084   0.640   7.972
  125POPC   PO4 2043   0.159   0.849   8.074
  125POPC   GL1 2044   0.033   0.529   7.736
  125POPC   GL2 2045  11.301   0.222   7.737
  125POPC   C1A 2046   0.086   0.354   7.310
  125POPC   D2A 2047  11.429   0.543   6.937
  125POPC   C3A 2048   0.031   0.480   6.535
  125POPC   C4A 2049   0.009   0.260   6.178
  125POPC   C1B 2050  11.088   0.320   7.341
  125POPC   C2B 2051  10.984   0.205   6.922
  125POPC   C3B 2052  11.079   0.248   6.491
  125POPC   C4B 2053  11.067   0.521   6.191
  126POPC   NC3 2054   0.498   6.091   8.077
  126POPC   PO4 2055  11.483   5.617   8.232
  126POPC   GL1 2056   0.141   5.495   7.729
  126POPC   GL2 2057   0.493   5.667   7.710
  126POPC   C1A 2058   0.311   5.569   7.267
  126POPC   D2A 2059   0.329   5.885   6.974
  126POPC   C3A 2060   0.228   5.656   6.617
  126POPC   C4A 2061   0.362   5.649   6.215
  126POPC   C1B 2062   0.710   5.933   7.398
  126POPC   C2B 2063   0.839   5.969   6.963
  126POPC   C3B 2064   0.748   5.895   6.527
  126POPC   C4B 2065   0.812   5.899   6.092
  127POPC   NC3 2066  10.382   5.933   8.060
  127POPC   PO4 2067  10.903   6.267   8.241
  127POPC   GL1 2068  10.874   6.040   7.797
  127POPC   GL2 2069  10.643   5.775   7.671
  127POPC   C1A 2070  10.856   6.017   7.307
  127POPC   D2A 2071  10.966   5.990   6.876
  127POPC   C3A 2072  10.745   5.905   6.516
  127POPC   C4A 2073  10.573   6.229   6.240
  127POPC   C1B 2074  10.434   5.732   7.274
  127POPC   C2B 2075  10.363   5.856   6.856
  127POPC   C3B 2076  10.172   6.036   6.522
  127POPC   C4B 2077  10.327   5.781   6.252
  128POPC   NC3 2078   2.079   6.331   7.989
  128POPC   PO4 2079   1.750   6.868   8.065
  128POPC   GL1 2080   1.835   6.744   7.636
  128POPC   GL2 2081   1.724   6.443   7.647
  128POPC   C1A 2082   1.693   6.651   7.175
  128POPC   D2A 2083   1.654   6.494   6.737
  128POPC   C3A 2084   1.824   6.761   6.403
  128POPC   C4A 2085   2.244   6.946   6.333
  128POPC   C1B 2086   2.076   6.355   7.360
  128POPC   C2B 2087   2.140   6.392   6.954
  128POPC   C3B 2088   2.193   6.431   6.531
  128POPC   C4B 2089   2.001   6.357   6.131
  129POPC   NC3 2090  10.287   2.948   8.036
  129POPC   PO4 2091  10.019   2.352   8.089
  129POPC   GL1 2092  10.302   2.527   7.781
  129POPC   GL2 2093  10.049   2.630   7.592
  129POPC   C1A 2094  10.489   2.557   7.363
  129POPC   D2A 2095  10.440   2.407   6.953
  129POPC   C3A 2096  10.483   2.631   6.548
  129POPC   C4A 2097  10.310   2.519   6.121
  129POPC   C1B 2098  10.179   2.940   7.272
  129POPC   C2B 2099  10.373   3.001   6.915
  129POPC   C3B 2100  10.312   3.133   6.500
  129POPC   C4B 2101  10.464   3.003   6.151
  130POPC   NC3 2102   4.344  10.519   7.924
  130POPC   PO4 2103   3.714  10.728   8.053
  130POPC   GL1 2104   3.903  10.670   7.693
  130POPC   GL2 2105   3.979  10.356   7.598
  130POPC   C1A 2106   3.981  10.886   7.355
  130POPC   D2A 2107   4.211  10.932   6.990
  130POPC   C3A 2108   4.108  10.706   6.642
  130POPC   C4A 2109   4.364  10.633   6.282
  130POPC   C1B 2110   4.229  10.449   7.249
  130POPC   C2B 2111   4.241  10.269   6.858
  130POPC   C3B 2112   4.560  10.255   6.554
  130POPC   C4B 2113   4.575  10.172   6.128
  131POPC   NC3 2114   1.023   4.982   8.091
  131POPC   PO4 2115   1.650   4.762   7.995
  131POPC   GL1 2116   1.282   4.813   7.637
  131POPC   GL2 2117   1.034   5.097   7.612
  131POPC   C1A 2118   1.014   4.828   7.200
  131POPC   D2A 2119   0.921   4.939   6.771
  131POPC   C3A 2120   0.995   4.695   6.419
  131POPC   C4A 2121   1.085   4.980   6.164
  131POPC   C1B 2122   1.322   5.228   7.283
  131POPC   C2B 2123   1.419   5.036   6.896
  131POPC   C3B 2124   1.484   4.891   6.483
  131POPC   C4B 2125   1.468   5.278   6.285
  132POPC   NC3 2126   5.356   2.025   8.041
  132POPC   PO4 2127   6.007   2.042   8.098
  132POPC   GL1 2128   5.963   1.895   7.660
  132POPC   GL2 2129   5.614   1.903   7.621
  132POPC   C1A 2130   5.860   1.938   7.180
  132POPC   D2A 2131   5.932   1.819   6.743
  132POPC   C3A 2132   6.123   2.127   6.462
  132POPC   C4A 2133   6.001   2.486   6.213
  132POPC   C1B 2134   5.404   1.622   7.322
  132POPC   C2B 2135   5.267   1.466   6.894
  132POPC   C3B 2136   5.463   1.519   6.476
  132POPC   C4B 2137   5.802   1.789   6.237
  133POPC   NC3 2138  11.489  11.243   7.796
  133POPC   PO4 2139   0.177  10.858   8.285
  133POPC   GL1 2140   0.239  10.804   7.749
  133POPC   GL2 2141   0.443  11.099   7.620
  133POPC   C1A 2142   0.183  10.930   7.242
  133POPC   D2A 2143  11.473  11.034   6.827
  133POPC   C3A 2144   0.182  10.934   6.400
  133POPC   C4A 2145   0.150  10.811   5.890
  133POPC   C1B 2146   0.696  11.081   7.274
  133POPC   C2B 2147   0.502  11.179   6.883
  133POPC   C3B 2148   0.654  11.110   6.501
  133POPC   C4B 2149   0.528  11.139   6.066
  134POPC   NC3 2150   2.295   3.607   8.068
  134POPC   PO4 2151   1.689   3.261   7.951
  134POPC   GL1 2152   1.927   3.328   7.582
  134POPC   GL2 2153   1.984   3.675   7.644
  134POPC   C1A 2154   1.861   3.136   7.164
  134POPC   D2A 2155   1.998   3.009   6.765
  134POPC   C3A 2156   1.939   3.343   6.478
  134POPC   C4A 2157   1.637   3.498   6.187
  134POPC   C1B 2158   1.740   3.653   7.237
  134POPC   C2B 2159   1.665   3.665   6.792
  134POPC   C3B 2160   1.864   3.858   6.444
  134POPC   C4B 2161   2.189   3.692   6.144
  135POPC   NC3 2162   1.616   2.886   8.202
  135POPC   PO4 2163   2.221   2.456   8.042
  135POPC   GL1 2164   1.898   2.499   7.780
  135POPC   GL2 2165   1.933   2.846   7.774
  135POPC   C1A 2166   1.768   2.587   7.346
  135POPC   D2A 2167   1.824   2.346   6.961
  135POPC   C3A 2168   1.829   2.564   6.577
  135POPC   C4A 2169   1.648   2.479   6.178
  135POPC   C1B 2170   2.192   2.839   7.406
  135POPC   C2B 2171   2.312   2.519   7.075
  135POPC   C3B 2172   2.333   2.519   6.613
  135POPC   C4B 2173   2.164   2.828   6.301
  136POPC   NC3 2174   2.763   8.880   8.034
  136POPC   PO4 2175   2.505   8.423   7.760
  136POPC   GL1 2176   2.472   8.899   7.610
  136POPC   GL2 2177   2.782   9.118   7.568
  136POPC   C1A 2178   2.409   9.233   7.260
  136POPC   D2A 2179   2.605   9.124   6.849
  136POPC   C3A 2180   2.555   9.072   6.417
  136POPC   C4A 2181   2.591   8.854   6.010
  136POPC   C1B 2182   2.729   8.783   7.208
  136POPC   C2B 2183   2.592   8.595   6.788
  136POPC   C3B 2184   2.843   8.649   6.404
  136POPC   C4B 2185   3.059   9.052   6.256
  137POPC   NC3 2186   2.014   2.054   8.163
  137POPC   PO4 2187   1.506   1.592   8.058
  137POPC   GL1 2188   1.851   1.656   7.745
  137POPC   GL2 2189   2.097   1.913   7.691
  137POPC   C1A 2190   1.825   1.636   7.310
  137POPC   D2A 2191   1.592   1.809   6.951
  137POPC   C3A 2192   1.689   1.680   6.534
  137POPC   C4A 2193   1.756   1.947   6.164
  137POPC   C1B 2194   2.046   2.121   7.351
  137POPC   C2B 2195   2.116   1.909   6.959
  137POPC   C3B 2196   2.015   2.080   6.572
  137POPC   C4B 2197   2.134   2.299   6.193
  138POPC   NC3 2198   1.730  11.106   8.342
  138POPC   PO4 2199   1.698   0.187   8.031
  138POPC   GL1 2200   1.683  11.315   7.768
  138POPC   GL2 2201   1.971  11.072   7.805
  138POPC   C1A 2202   1.707  11.188   7.332
  138POPC   D2A 2203   1.924  11.299   6.948
  138POPC   C3A 2204   1.758  11.213   6.552
  138POPC   C4A 2205   1.746   0.023   6.246
  138POPC   C1B 2206   2.216  10.978   7.423
  138POPC   C2B 2207   2.198  10.860   6.993
  138POPC   C3B 2208   2.298  11.090   6.634
  138POPC   C4B 2209   2.142  11.034   6.245
  139POPC   NC3 2210   4.498  11.481   8.038
  139POPC   PO4 2211   4.712  10.777   8.046
  139POPC   GL1 2212   4.446  10.980   7.718
  139POPC   GL2 2213   4.118  11.148   7.777
  139POPC   C1A 2214   4.602  10.986   7.311
  139POPC   D2A 2215   4.639  11.235   6.957
  139POPC   C3A 2216   4.523  11.034   6.579
  139POPC   C4A 2217   4.756  10.984   6.219
  139POPC   C1B 2218   4.263  11.344   7.374
  139POPC   C2B 2219   4.154  11.448   6.965
  139POPC   C3B 2220   4.156  11.390   6.545
  139POPC   C4B 2221   4.059  11.046   6.274
  140POPC   NC3 2222   9.478   1.194   8.063
  140POPC   PO4 2223  10.070   1.291   8.060
  140POPC   GL1 2224   9.771   1.334   7.668
  140POPC   GL2 2225   9.497   1.044   7.591
  140POPC   C1A 2226   9.663   1.487   7.250
  140POPC   D2A 2227   9.348   1.458   6.897
  140POPC   C3A 2228   9.506   1.441   6.480
  140POPC   C4A 2229   9.870   1.397   6.260
  140POPC   C1B 2230   9.656   0.995   7.185
  140POPC   C2B 2231   9.761   1.147   6.794
  140POPC   C3B 2232   9.782   0.931   6.403
  140POPC   C4B 2233   9.413   0.844   6.158
  141POPC   NC3 2234   2.854  10.038   8.279
  141POPC   PO4 2235   2.715  10.672   8.047
  141POPC   GL1 2236   2.730  10.565   7.652
  141POPC   GL2 2237   2.814  10.230   7.607
  141POPC   C1A 2238   2.467  10.529   7.295
  141POPC   D2A 2239   2.496  10.364   6.894
  141POPC   C3A 2240   2.422  10.600   6.552
  141POPC   C4A 2241   2.507  10.417   6.181
  141POPC   C1B 2242   2.972  10.469   7.207
  141POPC   C2B 2243   2.978  10.491   6.735
  141POPC   C3B 2244   3.019  10.548   6.316
  141POPC   C4B 2245   2.966  10.210   6.087
  142POPC   NC3 2246   6.944   0.160   7.960
  142POPC   PO4 2247   7.708   0.116   7.991
  142POPC   GL1 2248   7.405   0.140   7.648
  142POPC   GL2 2249   7.307   0.482   7.723
  142POPC   C1A 2250   7.329   0.121   7.184
  142POPC   D2A 2251   7.445   0.084   6.723
  142POPC   C3A 2252   7.209   0.204   6.355
  142POPC   C4A 2253   7.389   0.292   5.909
  142POPC   C1B 2254   7.196   0.644   7.316
  142POPC   C2B 2255   7.139   0.505   6.888
  142POPC   C3B 2256   7.377   0.645   6.543
  142POPC   C4B 2257   7.217   0.709   6.156
  143POPC   NC3 2258   2.952   9.635   7.860
  143POPC   PO4 2259   2.415   9.972   8.102
  143POPC   GL1 2260   2.375   9.934   7.662
  143POPC   GL2 2261   2.511   9.601   7.586
  143POPC   C1A 2262   2.542   9.993   7.241
  143POPC   D2A 2263   2.879  10.023   6.933
  143POPC   C3A 2264   2.702  10.063   6.510
  143POPC   C4A 2265   2.413   9.895   6.175
  143POPC   C1B 2266   2.836   9.562   7.221
  143POPC   C2B 2267   2.865   9.548   6.765
  143POPC   C3B 2268   2.776   9.563   6.344
  143POPC   C4B 2269   2.715   9.329   5.998
  144POPC   NC3 2270   1.669   7.313   7.967
  144POPC   PO4 2271   1.947   7.819   8.329
  144POPC   GL1 2272   1.878   7.860   7.842
  144POPC   GL2 2273   2.092   8.102   7.729
  144POPC   C1A 2274   1.784   7.801   7.356
  144POPC   D2A 2275   1.928   7.931   6.897
  144POPC   C3A 2276   1.762   7.715   6.487
  144POPC   C4A 2277   1.779   7.873   6.043
  144POPC   C1B 2278   1.925   8.291   7.326
  144POPC   C2B 2279   1.998   8.435   6.894
  144POPC   C3B 2280   2.107   8.360   6.466
  144POPC   C4B 2281   2.225   8.133   6.081
  145POPC   NC3 2282   2.599   2.764   8.065
  145POPC   PO4 2283   3.106   2.336   8.221
  145POPC   GL1 2284   2.851   2.580   7.697
  145POPC   GL2 2285   2.522   2.508   7.588
  145POPC   C1A 2286   2.879   2.410   7.212
  145POPC   D2A 2287   2.785   2.565   6.827
  145POPC   C3A 2288   2.884   2.371   6.466
  145POPC   C4A 2289   3.053   2.465   6.083
  145POPC   C1B 2290   2.666   2.858   7.261
  145POPC   C2B 2291   2.504   2.970   6.834
  145POPC   C3B 2292   2.691   2.853   6.394
  145POPC   C4B 2293   2.526   2.986   5.957
  146POPC   NC3 2294  11.214   1.557   8.315
  146POPC   PO4 2295  10.837   1.037   8.086
  146POPC   GL1 2296  11.032   1.153   7.673
  146POPC   GL2 2297  11.408   1.094   7.694
  146POPC   C1A 2298  11.083   1.276   7.203
  146POPC   D2A 2299  11.146   1.441   6.737
  146POPC   C3A 2300  10.982   1.315   6.359
  146POPC   C4A 2301  10.682   1.008   6.388
  146POPC   C1B 2302  11.296   0.818   7.347
  146POPC   C2B 2303  11.001   0.807   6.975
  146POPC   C3B 2304  11.163   0.868   6.553
  146POPC   C4B 2305  11.462   0.855   6.200
  147POPC   NC3 2306   1.905   1.294   8.094
  147POPC   PO4 2307   2.341   1.721   8.098
  147POPC   GL1 2308   2.277   1.415   7.713
  147POPC   GL2 2309   2.036   1.116   7.650
  147POPC   C1A 2310   2.349   1.490   7.257
  147POPC   D2A 2311   2.397   1.262   6.841
  147POPC   C3A 2312   2.220   1.591   6.538
  147POPC   C4A 2313   1.983   1.505   6.135
  147POPC   C1B 2314   2.052   1.084   7.217
  147POPC   C2B 2315   1.896   1.345   6.884
  147POPC   C3B 2316   1.886   1.165   6.484
  147POPC   C4B 2317   1.600   1.145   6.143
  148POPC   NC3 2318  11.435  11.272   8.349
  148POPC   PO4 2319  11.241  10.855   7.857
  148POPC   GL1 2320  11.217  11.030   7.453
  148POPC   GL2 2321  10.989  11.279   7.662
  148POPC   C1A 2322  11.368  11.394   7.190
  148POPC   D2A 2323  11.455   0.042   6.787
  148POPC   C3A 2324  11.359  11.323   6.406
  148POPC   C4A 2325   0.055  11.282   6.013
  148POPC   C1B 2326  10.852  11.321   7.287
  148POPC   C2B 2327  10.986  11.168   6.945
  148POPC   C3B 2328  10.884  11.296   6.590
  148POPC   C4B 2329  10.890  11.188   6.193
  149POPC   NC3 2330   5.209   8.815   8.086
  149POPC   PO4 2331   4.653   8.432   8.084
  149POPC   GL1 2332   4.852   8.659   7.706
  149POPC   GL2 2333   4.891   9.029   7.726
  149POPC   C1A 2334   5.060   8.785   7.298
  149POPC   D2A 2335   4.923   8.936   6.896
  149POPC   C3A 2336   5.005   8.785   6.503
  149POPC   C4A 2337   4.698   8.460   6.382
  149POPC   C1B 2338   4.863   9.263   7.326
  149POPC   C2B 2339   4.754   9.409   6.914
  149POPC   C3B 2340   4.844   9.383   6.473
  149POPC   C4B 2341   5.105   9.487   6.093
  150POPC   NC3 2342   4.379   9.529   8.072
  150POPC   PO4 2343   4.495  10.111   8.045
  150POPC   GL1 2344   4.181   9.896   7.728
  150POPC   GL2 2345   4.091   9.518   7.658
  150POPC   C1A 2346   4.240   9.883   7.256
  150POPC   D2A 2347   4.561   9.875   6.899
  150POPC   C3A 2348   4.338   9.814   6.482
  150POPC   C4A 2349   4.065  10.071   6.211
  150POPC   C1B 2350   4.338   9.355   7.300
  150POPC   C2B 2351   4.231   9.479   6.874
  150POPC   C3B 2352   4.186   9.327   6.450
  150POPC   C4B 2353   4.139   9.517   6.046
  151POPC   NC3 2354   8.951   1.989   8.005
  151POPC   PO4 2355   9.211   1.446   7.779
  151POPC   GL1 2356   9.010   1.730   7.551
  151POPC   GL2 2357   9.003   2.109   7.524
  151POPC   C1A 2358   8.994   1.720   7.153
  151POPC   D2A 2359   8.758   1.763   6.838
  151POPC   C3A 2360   9.020   1.720   6.544
  151POPC   C4A 2361   8.832   1.766   6.175
  151POPC   C1B 2362   8.810   2.191   7.135
  151POPC   C2B 2363   9.091   2.182   6.773
  151POPC   C3B 2364   9.082   2.203   6.330
  151POPC   C4B 2365   8.676   2.294   6.138
  152POPC   NC3 2366  10.593  11.271   8.016
  152POPC   PO4 2367  10.256  10.755   7.999
  152POPC   GL1 2368  10.397  11.005   7.626
  152POPC   GL2 2369  10.414  11.370   7.575
  152POPC   C1A 2370  10.423  11.068   7.186
  152POPC   D2A 2371  10.569  10.899   6.865
  152POPC   C3A 2372  10.425  11.109   6.575
  152POPC   C4A 2373  10.438  10.953   6.210
  152POPC   C1B 2374  10.103   0.117   7.407
  152POPC   C2B 2375  10.040   0.199   7.010
  152POPC   C3B 2376  10.086   0.086   6.591
  152POPC   C4B 2377  10.245  11.416   6.212
  153POPC   NC3 2378   2.006   9.520   8.165
  153POPC   PO4 2379   2.322   8.977   8.080
  153POPC   GL1 2380   2.112   9.249   7.712
  153POPC   GL2 2381   1.959   9.599   7.678
  153POPC   C1A 2382   1.863   9.254   7.307
  153POPC   D2A 2383   1.993   9.323   6.887
  153POPC   C3A 2384   1.859   9.235   6.457
  153POPC   C4A 2385   2.202   9.337   6.182
  153POPC   C1B 2386   1.807   9.778   7.315
  153POPC   C2B 2387   2.055   9.851   6.956
  153POPC   C3B 2388   2.139   9.692   6.563
  153POPC   C4B 2389   1.920   9.754   6.201
  154POPC   NC3 2390   6.060  11.262   7.918
  154POPC   PO4 2391   6.190  10.640   7.921
  154POPC   GL1 2392   6.378  10.906   7.580
  154POPC   GL2 2393   6.513  11.263   7.593
  154POPC   C1A 2394   6.425  11.038   7.159
  154POPC   D2A 2395   6.669  11.060   6.793
  154POPC   C3A 2396   6.319  10.888   6.624
  154POPC   C4A 2397   6.179  10.856   6.213
  154POPC   C1B 2398   6.849  11.309   7.239
  154POPC   C2B 2399   6.922   0.036   6.855
  154POPC   C3B 2400   6.726   0.051   6.459
  154POPC   C4B 2401   6.469  11.264   6.268
  155POPC   NC3 2402   8.316   8.795   8.142
  155POPC   PO4 2403   8.978   8.815   8.175
  155POPC   GL1 2404   8.800   8.913   7.776
  155POPC   GL2 2405   8.605   8.634   7.699
  155POPC   C1A 2406   8.731   9.015   7.332
  155POPC   D2A 2407   8.581   8.792   6.950
  155POPC   C3A 2408   8.468   9.073   6.647
  155POPC   C4A 2409   8.697   9.250   6.321
  155POPC   C1B 2410   9.002   8.584   7.419
  155POPC   C2B 2411   9.061   8.619   6.953
  155POPC   C3B 2412   8.945   8.880   6.594
  155POPC   C4B 2413   8.800   8.772   6.172
  156POPC   NC3 2414   4.118   1.357   7.929
  156POPC   PO4 2415   4.639   0.999   7.971
  156POPC   GL1 2416   4.498   1.214   7.623
  156POPC   GL2 2417   4.439   0.902   7.457
  156POPC   C1A 2418   4.349   1.365   7.231
  156POPC   D2A 2419   4.365   1.102   6.891
  156POPC   C3A 2420   4.392   1.338   6.565
  156POPC   C4A 2421   4.445   1.358   6.182
  156POPC   C1B 2422   4.045   0.944   7.260
  156POPC   C2B 2423   3.860   1.009   6.864
  156POPC   C3B 2424   4.065   0.947   6.473
  156POPC   C4B 2425   4.047   1.070   6.050
  157POPC   NC3 2426   0.893   8.148   3.994
  157POPC   PO4 2427   1.444   7.764   3.939
  157POPC   GL1 2428   1.417   7.957   4.312
  157POPC   GL2 2429   1.270   8.277   4.322
  157POPC   C1A 2430   1.305   7.858   4.719
  157POPC   D2A 2431   1.223   7.561   5.037
  157POPC   C3A 2432   1.284   7.846   5.373
  157POPC   C4A 2433   1.339   7.760   5.785
  157POPC   C1B 2434   0.959   8.245   4.662
  157POPC   C2B 2435   0.899   7.987   5.022
  157POPC   C3B 2436   0.837   8.097   5.438
  157POPC   C4B 2437   1.086   8.201   5.764
  158POPC   NC3 2438   3.570   1.796   4.122
  158POPC   PO4 2439   4.081   2.259   3.883
  158POPC   GL1 2440   3.824   2.195   4.365
  158POPC   GL2 2441   3.489   2.047   4.552
  158POPC   C1A 2442   3.857   2.245   4.804
  158POPC   D2A 2443   3.533   2.025   5.075
  158POPC   C3A 2444   3.549   2.184   5.483
  158POPC   C4A 2445   3.471   2.188   5.906
  158POPC   C1B 2446   3.461   1.620   4.745
  158POPC   C2B 2447   3.593   1.423   5.133
  158POPC   C3B 2448   3.716   1.660   5.472
  158POPC   C4B 2449   3.340   1.742   5.718
  159POPC   NC3 2450   0.721   5.679   3.972
  159POPC   PO4 2451   0.871   6.289   3.928
  159POPC   GL1 2452   0.603   6.146   4.259
  159POPC   GL2 2453   0.364   5.893   4.245
  159POPC   C1A 2454   0.634   5.957   4.680
  159POPC   D2A 2455   0.769   5.832   5.104
  159POPC   C3A 2456   0.498   5.799   5.458
  159POPC   C4A 2457   0.608   5.550   5.790
  159POPC   C1B 2458   0.302   5.590   4.628
  159POPC   C2B 2459   0.174   5.737   5.050
  159POPC   C3B 2460   0.027   5.564   5.466
  159POPC   C4B 2461  11.460   5.732   5.900
  160POPC   NC3 2462   2.036   4.555   4.118
  160POPC   PO4 2463   1.713   4.104   3.808
  160POPC   GL1 2464   1.590   4.069   4.256
  160POPC   GL2 2465   1.909   4.078   4.459
  160POPC   C1A 2466   1.481   4.294   4.646
  160POPC   D2A 2467   1.789   4.425   4.919
  160POPC   C3A 2468   1.682   4.325   5.337
  160POPC   C4A 2469   1.756   4.455   5.748
  160POPC   C1B 2470   2.205   3.803   4.746
  160POPC   C2B 2471   2.270   3.814   5.216
  160POPC   C3B 2472   2.147   4.113   5.570
  160POPC   C4B 2473   2.271   4.522   5.818
  161POPC   NC3 2474   0.481   1.485   4.193
  161POPC   PO4 2475   0.440   0.992   3.742
  161POPC   GL1 2476   0.382   0.978   4.261
  161POPC   GL2 2477   0.509   1.159   4.568
  161POPC   C1A 2478   0.109   0.895   4.691
  161POPC   D2A 2479   0.228   1.180   5.043
  161POPC   C3A 2480   0.395   1.051   5.432
  161POPC   C4A 2481   0.243   1.100   5.852
  161POPC   C1B 2482   0.599   1.523   4.848
  161POPC   C2B 2483   0.573   1.517   5.285
  161POPC   C3B 2484   0.597   1.429   5.694
  161POPC   C4B 2485   0.741   0.982   5.845
  162POPC   NC3 2486   2.280   1.529   4.112
  162POPC   PO4 2487   2.510   0.877   3.922
  162POPC   GL1 2488   2.392   1.053   4.333
  162POPC   GL2 2489   2.034   1.104   4.332
  162POPC   C1A 2490   2.329   0.902   4.772
  162POPC   D2A 2491   2.054   0.920   5.163
  162POPC   C3A 2492   2.258   1.000   5.548
  162POPC   C4A 2493   2.068   1.002   5.995
  162POPC   C1B 2494   1.948   1.266   4.752
  162POPC   C2B 2495   1.835   1.375   5.187
  162POPC   C3B 2496   1.882   1.342   5.630
  162POPC   C4B 2497   1.579   1.578   5.808
  163POPC   NC3 2498   1.266   3.284   4.073
  163POPC   PO4 2499   0.820   3.658   3.749
  163POPC   GL1 2500   0.858   3.490   4.302
  163POPC   GL2 2501   1.170   3.515   4.512
  163POPC   C1A 2502   0.834   3.357   4.805
  163POPC   D2A 2503   0.983   3.558   5.224
  163POPC   C3A 2504   0.911   3.465   5.690
  163POPC   C4A 2505   0.845   3.236   6.099
  163POPC   C1B 2506   1.463   3.295   4.723
  163POPC   C2B 2507   1.511   3.453   5.087
  163POPC   C3B 2508   1.515   3.362   5.476
  163POPC   C4B 2509   1.365   3.693   5.691
  164POPC   NC3 2510   9.616   7.522   3.869
  164POPC   PO4 2511   9.798   6.995   3.997
  164POPC   GL1 2512   9.708   7.244   4.336
  164POPC   GL2 2513   9.949   7.471   4.375
  164POPC   C1A 2514   9.595   7.304   4.779
  164POPC   D2A 2515   9.331   7.511   5.116
  164POPC   C3A 2516   9.396   7.328   5.536
  164POPC   C4A 2517   9.491   7.353   5.962
  164POPC   C1B 2518  10.134   7.410   4.773
  164POPC   C2B 2519  10.059   7.078   5.082
  164POPC   C3B 2520   9.853   7.071   5.471
  164POPC   C4B 2521   9.917   7.459   5.695
  165POPC   NC3 2522  11.207   3.069   4.005
  165POPC   PO4 2523  10.879   2.417   3.982
  165POPC   GL1 2524  10.987   2.522   4.375
  165POPC   GL2 2525  11.307   2.710   4.374
  165POPC   C1A 2526  11.144   2.431   4.778
  165POPC   D2A 2527  10.909   2.567   5.105
  165POPC   C3A 2528  11.126   2.448   5.435
  165POPC   C4A 2529  11.237   2.630   5.812
  165POPC   C1B 2530  11.476   2.835   4.797
  165POPC   C2B 2531  11.300   2.899   5.200
  165POPC   C3B 2532  11.284   3.088   5.574
  165POPC   C4B 2533   0.026   3.041   5.934
  166POPC   NC3 2534  11.130   8.770   3.691
  166POPC   PO4 2535  10.900   9.071   4.298
  166POPC   GL1 2536  10.994   8.707   4.493
  166POPC   GL2 2537  11.273   8.700   4.333
  166POPC   C1A 2538  11.161   8.672   4.916
  166POPC   D2A 2539  11.251   9.024   5.153
  166POPC   C3A 2540  10.935   9.017   5.432
  166POPC   C4A 2541  10.905   8.792   5.803
  166POPC   C1B 2542  11.443   8.394   4.610
  166POPC   C2B 2543   0.045   8.342   5.083
  166POPC   C3B 2544  11.490   8.658   5.443
  166POPC   C4B 2545  11.385   8.691   5.888
  167POPC   NC3 2546   8.794   5.432   3.942
  167POPC   PO4 2547   8.513   5.991   3.950
  167POPC   GL1 2548   8.672   5.742   4.328
  167POPC   GL2 2549   9.033   5.636   4.354
  167POPC   C1A 2550   8.749   5.699   4.783
  167POPC   D2A 2551   8.680   5.430   5.143
  167POPC   C3A 2552   8.723   5.551   5.594
  167POPC   C4A 2553   8.468   5.724   5.960
  167POPC   C1B 2554   9.264   5.821   4.722
  167POPC   C2B 2555   9.110   5.761   5.171
  167POPC   C3B 2556   9.192   5.767   5.623
  167POPC   C4B 2557   8.971   5.764   6.034
  168POPC   NC3 2558   8.365   3.533   4.027
  168POPC   PO4 2559   8.045   3.942   4.200
  168POPC   GL1 2560   8.141   3.585   4.497
  168POPC   GL2 2561   8.454   3.371   4.499
  168POPC   C1A 2562   8.222   3.484   4.937
  168POPC   D2A 2563   8.533   3.549   5.269
  168POPC   C3A 2564   8.330   3.675   5.682
  168POPC   C4A 2565   7.933   3.675   5.934
  168POPC   C1B 2566   8.475   3.041   4.820
  168POPC   C2B 2567   8.320   3.063   5.252
  168POPC   C3B 2568   8.242   3.111   5.696
  168POPC   C4B 2569   8.153   2.862   6.077
  169POPC   NC3 2570   8.991   9.075   4.115
  169POPC   PO4 2571   8.448   9.182   3.703
  169POPC   GL1 2572   8.542   8.860   4.190
  169POPC   GL2 2573   8.803   8.640   4.299
  169POPC   C1A 2574   8.586   8.885   4.691
  169POPC   D2A 2575   8.710   8.669   5.097
  169POPC   C3A 2576   8.607   8.750   5.537
  169POPC   C4A 2577   8.678   9.089   5.787
  169POPC   C1B 2578   9.063   8.708   4.692
  169POPC   C2B 2579   9.209   8.609   5.119
  169POPC   C3B 2580   9.111   8.812   5.515
  169POPC   C4B 2581   9.232   8.685   5.913
  170POPC   NC3 2582  10.513   1.331   3.898
  170POPC   PO4 2583  10.053   0.770   3.964
  170POPC   GL1 2584  10.076   1.214   4.153
  170POPC   GL2 2585  10.349   1.123   4.336
  170POPC   C1A 2586  10.043   1.488   4.543
  170POPC   D2A 2587  10.189   1.388   4.954
  170POPC   C3A 2588  10.097   1.530   5.367
  170POPC   C4A 2589  10.051   1.427   5.796
  170POPC   C1B 2590  10.584   1.182   4.701
  170POPC   C2B 2591  10.534   1.087   5.154
  170POPC   C3B 2592  10.471   1.249   5.559
  170POPC   C4B 2593  10.697   1.219   5.909
  171POPC   NC3 2594   8.214   8.780   3.828
  171POPC   PO4 2595   8.519   9.352   4.187
  171POPC   GL1 2596   8.203   9.160   4.423
  171POPC   GL2 2597   8.044   8.901   4.280
  171POPC   C1A 2598   8.153   9.106   4.831
  171POPC   D2A 2599   8.283   8.950   5.204
  171POPC   C3A 2600   8.198   9.110   5.592
  171POPC   C4A 2601   8.284   9.276   6.020
  171POPC   C1B 2602   8.165   8.622   4.625
  171POPC   C2B 2603   8.232   8.484   5.030
  171POPC   C3B 2604   8.210   8.443   5.484
  171POPC   C4B 2605   7.945   8.471   5.843
  172POPC   NC3 2606   6.565   0.400   3.702
  172POPC   PO4 2607   7.089   0.604   3.931
  172POPC   GL1 2608   6.919   0.300   4.214
  172POPC   GL2 2609   6.563   0.303   4.205
  172POPC   C1A 2610   6.844   0.243   4.667
  172POPC   D2A 2611   6.872   0.433   5.095
  172POPC   C3A 2612   6.751   0.330   5.535
  172POPC   C4A 2613   6.863   0.328   6.002
  172POPC   C1B 2614   6.337   0.405   4.588
  172POPC   C2B 2615   6.341   0.518   5.032
  172POPC   C3B 2616   6.259   0.412   5.471
  172POPC   C4B 2617   6.277   0.614   5.857
  173POPC   NC3 2618   3.416   8.251   3.534
  173POPC   PO4 2619   2.964   8.073   3.933
  173POPC   GL1 2620   3.052   8.290   4.353
  173POPC   GL2 2621   3.426   8.246   4.384
  173POPC   C1A 2622   3.175   8.354   4.821
  173POPC   D2A 2623   3.339   8.136   5.228
  173POPC   C3A 2624   3.397   8.279   5.683
  173POPC   C4A 2625   3.559   8.405   6.098
  173POPC   C1B 2626   3.464   7.933   4.736
  173POPC   C2B 2627   3.683   7.755   5.115
  173POPC   C3B 2628   3.691   7.847   5.566
  173POPC   C4B 2629   3.942   8.108   5.843
  174POPC   NC3 2630   9.498   9.880   3.983
  174POPC   PO4 2631  10.017   9.461   3.890
  174POPC   GL1 2632   9.815   9.591   4.274
  174POPC   GL2 2633   9.696   9.303   4.430
  174POPC   C1A 2634   9.841   9.808   4.684
  174POPC   D2A 2635   9.821  10.034   5.076
  174POPC   C3A 2636   9.577   9.956   5.440
  174POPC   C4A 2637   9.796   9.994   5.798
  174POPC   C1B 2638   9.555   9.424   4.839
  174POPC   C2B 2639   9.851   9.506   5.197
  174POPC   C3B 2640   9.848   9.500   5.652
  174POPC   C4B 2641   9.432   9.582   5.799
  175POPC   NC3 2642   9.108   0.231   4.006
  175POPC   PO4 2643   8.603   0.628   3.742
  175POPC   GL1 2644   8.746   0.437   4.246
  175POPC   GL2 2645   8.643   0.089   4.250
  175POPC   C1A 2646   8.823   0.598   4.713
  175POPC   D2A 2647   8.658   0.762   5.130
  175POPC   C3A 2648   8.884   0.637   5.508
  175POPC   C4A 2649   9.339   0.677   5.694
  175POPC   C1B 2650   8.724   0.075   4.707
  175POPC   C2B 2651   8.850   0.219   5.112
  175POPC   C3B 2652   8.634   0.174   5.489
  175POPC   C4B 2653   8.489   0.308   5.858
  176POPC   NC3 2654   8.126   9.442   3.905
  176POPC   PO4 2655   7.742   8.905   3.851
  176POPC   GL1 2656   7.747   9.306   4.202
  176POPC   GL2 2657   8.024   9.622   4.345
  176POPC   C1A 2658   7.754   9.365   4.660
  176POPC   D2A 2659   7.742   9.285   5.073
  176POPC   C3A 2660   7.759   9.627   5.355
  176POPC   C4A 2661   7.970   9.556   5.730
  176POPC   C1B 2662   8.187   9.641   4.770
  176POPC   C2B 2663   8.235   9.466   5.186
  176POPC   C3B 2664   8.473   9.534   5.532
  176POPC   C4B 2665   8.363   9.905   5.754
  177POPC   NC3 2666   2.934   0.308   4.057
  177POPC   PO4 2667   2.397   0.078   3.841
  177POPC   GL1 2668   2.487   0.248   4.270
  177POPC   GL2 2669   2.635   0.601   4.339
  177POPC   C1A 2670   2.405   0.339   4.707
  177POPC   D2A 2671   2.216   0.459   5.065
  177POPC   C3A 2672   2.495   0.492   5.407
  177POPC   C4A 2673   2.510   0.268   5.803
  177POPC   C1B 2674   2.820   0.683   4.771
  177POPC   C2B 2675   2.973   0.634   5.217
  177POPC   C3B 2676   2.893   0.756   5.661
  177POPC   C4B 2677   3.011   0.718   6.109
  178POPC   NC3 2678   2.106  11.232   3.959
  178POPC   PO4 2679   1.555  10.971   3.650
  178POPC   GL1 2680   1.627  11.123   4.166
  178POPC   GL2 2681   1.881  10.980   4.379
  178POPC   C1A 2682   1.604  11.310   4.627
  178POPC   D2A 2683   1.887  11.159   4.991
  178POPC   C3A 2684   1.763  11.250   5.437
  178POPC   C4A 2685   1.824  11.095   5.870
  178POPC   C1B 2686   2.199  11.301   4.576
  178POPC   C2B 2687   2.371  11.382   4.963
  178POPC   C3B 2688   2.382  11.103   5.291
  178POPC   C4B 2689   2.335  11.167   5.737
  179POPC   NC3 2690  10.698   8.728   4.069
  179POPC   PO4 2691  10.077   8.503   3.992
  179POPC   GL1 2692  10.160   8.871   4.256
  179POPC   GL2 2693  10.426   8.819   4.470
  179POPC   C1A 2694  10.011   9.007   4.680
  179POPC   D2A 2695  10.188   8.828   5.053
  179POPC   C3A 2696  10.040   8.887   5.477
  179POPC   C4A 2697  10.107   8.469   5.678
  179POPC   C1B 2698  10.653   8.836   4.825
  179POPC   C2B 2699  10.695   8.670   5.147
  179POPC   C3B 2700  10.520   8.698   5.508
  179POPC   C4B 2701  10.448   9.050   5.748
  180POPC   NC3 2702   2.368  10.269   4.019
  180POPC   PO4 2703   3.032   9.962   3.917
  180POPC   GL1 2704   2.843  10.126   4.282
  180POPC   GL2 2705   2.707  10.437   4.344
  180POPC   C1A 2706   2.755  10.022   4.710
  180POPC   D2A 2707   3.018  10.140   5.075
  180POPC   C3A 2708   2.857  10.150   5.493
  180POPC   C4A 2709   2.451  10.160   5.731
  180POPC   C1B 2710   2.886  10.498   4.712
  180POPC   C2B 2711   2.578  10.426   5.041
  180POPC   C3B 2712   2.491  10.588   5.434
  180POPC   C4B 2713   2.788  10.575   5.785
  181POPC   NC3 2714  11.359   4.264   4.008
  181POPC   PO4 2715  11.307   4.902   3.780
  181POPC   GL1 2716  11.279   4.723   4.241
  181POPC   GL2 2717  11.040   4.442   4.349
  181POPC   C1A 2718  11.416   4.621   4.672
  181POPC   D2A 2719  11.174   4.446   5.031
  181POPC   C3A 2720  11.351   4.492   5.439
  181POPC   C4A 2721  11.089   4.504   5.770
  181POPC   C1B 2722  11.225   4.142   4.634
  181POPC   C2B 2723  11.360   3.947   5.043
  181POPC   C3B 2724  11.209   3.995   5.456
  181POPC   C4B 2725  11.346   4.034   5.861
  182POPC   NC3 2726   2.745  11.066   3.547
  182POPC   PO4 2727   2.990  10.519   3.929
  182POPC   GL1 2728   2.855  10.912   4.257
  182POPC   GL2 2729   2.661  11.243   4.189
  182POPC   C1A 2730   2.765  10.994   4.705
  182POPC   D2A 2731   2.883  10.819   5.121
  182POPC   C3A 2732   2.840  10.995   5.512
  182POPC   C4A 2733   3.092  10.965   5.926
  182POPC   C1B 2734   2.742  11.477   4.592
  182POPC   C2B 2735   2.810   0.169   5.003
  182POPC   C3B 2736   2.698  11.496   5.413
  182POPC   C4B 2737   2.796  11.357   5.846
  183POPC   NC3 2738   9.053   8.251   3.953
  183POPC   PO4 2739   8.458   8.387   3.933
  183POPC   GL1 2740   8.671   8.162   4.322
  183POPC   GL2 2741   9.008   7.996   4.384
  183POPC   C1A 2742   8.798   8.278   4.766
  183POPC   D2A 2743   8.598   8.166   5.168
  183POPC   C3A 2744   8.727   8.247   5.580
  183POPC   C4A 2745   8.565   8.340   5.993
  183POPC   C1B 2746   9.160   7.903   4.807
  183POPC   C2B 2747   9.031   7.906   5.251
  183POPC   C3B 2748   9.081   7.781   5.673
  183POPC   C4B 2749   8.738   7.821   5.989
  184POPC   NC3 2750   1.169  10.277   3.933
  184POPC   PO4 2751   1.693  10.607   4.033
  184POPC   GL1 2752   1.509  10.321   4.319
  184POPC   GL2 2753   1.254  10.578   4.317
  184POPC   C1A 2754   1.587  10.121   4.734
  184POPC   D2A 2755   1.643  10.315   5.150
  184POPC   C3A 2756   1.539  10.065   5.503
  184POPC   C4A 2757   1.536   9.911   5.912
  184POPC   C1B 2758   1.136  10.362   4.667
  184POPC   C2B 2759   1.140  10.543   5.049
  184POPC   C3B 2760   1.216  10.455   5.429
  184POPC   C4B 2761   1.063  10.602   5.770
  185POPC   NC3 2762   4.431   8.817   3.655
  185POPC   PO4 2763   4.213   9.235   4.001
  185POPC   GL1 2764   4.204   9.148   4.425
  185POPC   GL2 2765   4.273   8.790   4.469
  185POPC   C1A 2766   4.038   9.195   4.843
  185POPC   D2A 2767   4.190   9.378   5.234
  185POPC   C3A 2768   4.045   9.214   5.639
  185POPC   C4A 2769   4.154   8.999   6.048
  185POPC   C1B 2770   4.496   8.967   4.827
  185POPC   C2B 2771   4.566   8.952   5.233
  185POPC   C3B 2772   4.471   8.935   5.631
  185POPC   C4B 2773   4.521   8.637   5.948
  186POPC   NC3 2774  11.158   9.344   4.036
  186POPC   PO4 2775  10.717   9.994   3.961
  186POPC   GL1 2776  10.895   9.969   4.389
  186POPC   GL2 2777  11.115   9.678   4.419
  186POPC   C1A 2778  10.803   9.796   4.812
  186POPC   D2A 2779  10.856   9.582   5.222
  186POPC   C3A 2780  11.049   9.858   5.532
  186POPC   C4A 2781  11.437   9.914   5.724
  186POPC   C1B 2782  11.196   9.439   4.806
  186POPC   C2B 2783  11.401   9.544   5.197
  186POPC   C3B 2784  11.247   9.402   5.563
  186POPC   C4B 2785  10.893   9.326   5.822
  187POPC   NC3 2786   2.383   5.971   3.729
  187POPC   PO4 2787   3.060   6.147   3.863
  187POPC   GL1 2788   2.748   6.037   4.180
  187POPC   GL2 2789   2.519   5.734   4.170
  187POPC   C1A 2790   2.902   5.921   4.608
  187POPC   D2A 2791   3.160   6.042   4.984
  187POPC   C3A 2792   2.977   5.937   5.419
  187POPC   C4A 2793   2.772   5.986   5.832
  187POPC   C1B 2794   2.406   5.787   4.608
  187POPC   C2B 2795   2.302   5.863   5.062
  187POPC   C3B 2796   2.457   5.779   5.471
  187POPC   C4B 2797   2.567   5.520   5.838
  188POPC   NC3 2798  11.420   8.040   3.996
  188POPC   PO4 2799  10.720   8.271   3.856
  188POPC   GL1 2800  10.987   8.259   4.227
  188POPC   GL2 2801  11.059   7.922   4.351
  188POPC   C1A 2802  10.938   8.248   4.699
  188POPC   D2A 2803  10.801   8.165   5.102
  188POPC   C3A 2804  11.036   8.410   5.395
  188POPC   C4A 2805  11.080   8.308   5.793
  188POPC   C1B 2806  11.362   7.910   4.681
  188POPC   C2B 2807  11.231   7.889   5.072
  188POPC   C3B 2808  11.331   7.992   5.460
  188POPC   C4B 2809  11.344   7.876   5.887
  189POPC   NC3 2810   1.696   9.769   4.082
  189POPC   PO4 2811   1.098   9.847   3.770
  189POPC   GL1 2812   1.193   9.848   4.227
  189POPC   GL2 2813   1.293   9.531   4.294
  189POPC   C1A 2814   1.119   9.842   4.681
  189POPC   D2A 2815   1.208  10.019   5.083
  189POPC   C3A 2816   0.924   9.946   5.412
  189POPC   C4A 2817   1.077  10.089   5.778
  189POPC   C1B 2818   1.548   9.542   4.682
  189POPC   C2B 2819   1.420   9.462   5.097
  189POPC   C3B 2820   1.451   9.568   5.512
  189POPC   C4B 2821   1.123   9.581   5.802
  190POPC   NC3 2822   1.278   7.314   3.899
  190POPC   PO4 2823   1.564   6.797   3.725
  190POPC   GL1 2824   1.498   6.943   4.173
  190POPC   GL2 2825   1.169   6.865   4.302
  190POPC   C1A 2826   1.496   7.060   4.647
  190POPC   D2A 2827   1.655   7.175   5.072
  190POPC   C3A 2828   1.444   7.335   5.468
  190POPC   C4A 2829   1.666   7.379   5.874
  190POPC   C1B 2830   0.985   6.986   4.727
  190POPC   C2B 2831   0.838   7.066   5.165
  190POPC   C3B 2832   0.921   6.994   5.610
  190POPC   C4B 2833   1.131   7.226   5.937
  191POPC   NC3 2834   9.776   5.622   3.915
  191POPC   PO4 2835   9.244   5.310   3.994
  191POPC   GL1 2836   9.517   5.452   4.390
  191POPC   GL2 2837   9.755   5.739   4.422
  191POPC   C1A 2838   9.635   5.474   4.864
  191POPC   D2A 2839   9.602   5.689   5.286
  191POPC   C3A 2840   9.618   5.474   5.694
  191POPC   C4A 2841   9.397   5.430   6.106
  191POPC   C1B 2842   9.831   5.952   4.830
  191POPC   C2B 2843   9.879   6.121   5.241
  191POPC   C3B 2844   9.683   6.090   5.631
  191POPC   C4B 2845   9.608   6.392   5.957
  192POPC   NC3 2846   2.814   2.218   3.889
  192POPC   PO4 2847   3.421   2.230   4.086
  192POPC   GL1 2848   3.090   1.908   4.266
  192POPC   GL2 2849   2.780   2.069   4.366
  192POPC   C1A 2850   2.987   1.755   4.682
  192POPC   D2A 2851   2.930   2.097   4.933
  192POPC   C3A 2852   3.063   1.981   5.316
  192POPC   C4A 2853   3.029   2.184   5.661
  192POPC   C1B 2854   2.509   1.927   4.695
  192POPC   C2B 2855   2.546   1.826   5.104
  192POPC   C3B 2856   2.569   1.986   5.510
  192POPC   C4B 2857   2.823   1.697   5.730
  193POPC   NC3 2858   1.923   2.371   3.749
  193POPC   PO4 2859   1.839   1.662   4.053
  193POPC   GL1 2860   1.903   2.096   4.221
  193POPC   GL2 2861   2.257   2.084   4.292
  193POPC   C1A 2862   1.990   2.320   4.662
  193POPC   D2A 2863   2.265   2.294   5.026
  193POPC   C3A 2864   2.151   2.297   5.441
  193POPC   C4A 2865   1.819   2.271   5.750
  193POPC   C1B 2866   2.027   1.814   4.657
  193POPC   C2B 2867   2.039   1.837   5.099
  193POPC   C3B 2868   1.924   1.838   5.518
  193POPC   C4B 2869   2.199   1.888   5.877
  194POPC   NC3 2870   8.214   1.906   3.890
  194POPC   PO4 2871   7.697   2.347   3.853
  194POPC   GL1 2872   7.951   2.215   4.228
  194POPC   GL2 2873   8.061   1.879   4.362
  194POPC   C1A 2874   8.127   2.298   4.648
  194POPC   D2A 2875   7.912   2.294   5.032
  194POPC   C3A 2876   8.037   2.320   5.466
  194POPC   C4A 2877   8.256   2.376   5.861
  194POPC   C1B 2878   8.125   1.793   4.815
  194POPC   C2B 2879   8.110   1.516   5.168
  194POPC   C3B 2880   7.847   1.637   5.506
  194POPC   C4B 2881   7.961   1.936   5.808
  195POPC   NC3 2882   0.883   1.084   3.632
  195POPC   PO4 2883   0.881   1.657   4.037
  195POPC   GL1 2884   0.938   1.257   4.260
  195POPC   GL2 2885   1.294   1.241   4.302
  195POPC   C1A 2886   0.987   1.218   4.717
  195POPC   D2A 2887   1.059   1.502   5.080
  195POPC   C3A 2888   1.011   1.265   5.451
  195POPC   C4A 2889   1.202   1.201   5.846
  195POPC   C1B 2890   1.457   1.026   4.651
  195POPC   C2B 2891   1.333   1.057   5.068
  195POPC   C3B 2892   1.488   1.072   5.433
  195POPC   C4B 2893   1.672   0.880   5.719
  196POPC   NC3 2894  11.020  10.334   4.034
  196POPC   PO4 2895  10.922  10.908   3.843
  196POPC   GL1 2896  10.971  10.780   4.266
  196POPC   GL2 2897  11.353  10.700   4.261
  196POPC   C1A 2898  10.862  10.620   4.688
  196POPC   D2A 2899  10.852  10.788   5.112
  196POPC   C3A 2900  10.870  10.653   5.540
  196POPC   C4A 2901  10.842  10.660   6.045
  196POPC   C1B 2902  11.346  10.461   4.633
  196POPC   C2B 2903  11.120  10.292   4.984
  196POPC   C3B 2904  11.244  10.304   5.385
  196POPC   C4B 2905  11.263  10.456   5.769
  197POPC   NC3 2906   7.276   0.992   4.081
  197POPC   PO4 2907   7.815   1.480   3.912
  197POPC   GL1 2908   7.697   1.217   4.259
  197POPC   GL2 2909   7.427   1.386   4.414
  197POPC   C1A 2910   7.565   0.974   4.664
  197POPC   D2A 2911   7.194   1.056   4.936
  197POPC   C3A 2912   7.279   1.031   5.380
  197POPC   C4A 2913   7.431   0.982   5.792
  197POPC   C1B 2914   7.361   1.533   4.851
  197POPC   C2B 2915   7.220   1.545   5.293
  197POPC   C3B 2916   6.915   1.345   5.578
  197POPC   C4B 2917   7.005   1.208   6.000
  198POPC   NC3 2918   9.760   9.061   3.973
  198POPC   PO4 2919   9.235   8.669   4.044
  198POPC   GL1 2920   9.426   8.874   4.346
  198POPC   GL2 2921   9.711   8.680   4.355
  198POPC   C1A 2922   9.516   8.906   4.787
  198POPC   D2A 2923   9.261   9.108   5.111
  198POPC   C3A 2924   9.510   9.164   5.442
  198POPC   C4A 2925   9.562   9.077   5.839
  198POPC   C1B 2926   9.917   8.506   4.726
  198POPC   C2B 2927   9.750   8.576   5.150
  198POPC   C3B 2928   9.605   8.646   5.566
  198POPC   C4B 2929   9.770   8.664   6.017
  199POPC   NC3 2930   8.807  10.590   4.114
  199POPC   PO4 2931   9.039   9.953   3.939
  199POPC   GL1 2932   9.130  10.212   4.293
  199POPC   GL2 2933   8.792  10.147   4.385
  199POPC   C1A 2934   9.036  10.402   4.740
  199POPC   D2A 2935   8.929  10.171   5.130
  199POPC   C3A 2936   9.059  10.383   5.509
  199POPC   C4A 2937   9.061  10.622   5.911
  199POPC   C1B 2938   8.564  10.127   4.761
  199POPC   C2B 2939   8.453   9.947   5.158
  199POPC   C3B 2940   8.521  10.266   5.444
  199POPC   C4B 2941   8.714  10.276   5.851
  200POPC   NC3 2942   1.523   8.891   3.869
  200POPC   PO4 2943   0.927   8.619   3.971
  200POPC   GL1 2944   1.188   8.773   4.338
  200POPC   GL2 2945   1.065   9.077   4.371
  200POPC   C1A 2946   1.317   8.628   4.795
  200POPC   D2A 2947   1.220   8.406   5.216
  200POPC   C3A 2948   1.045   8.660   5.581
  200POPC   C4A 2949   1.270   8.623   5.998
  200POPC   C1B 2950   1.138   9.133   4.816
  200POPC   C2B 2951   1.346   8.971   5.231
  200POPC   C3B 2952   1.302   9.096   5.666
  200POPC   C4B 2953   0.881   9.123   5.815
  201POPC   NC3 2954   9.737   4.106   3.882
  201POPC   PO4 2955   9.800   3.458   3.937
  201POPC   GL1 2956   9.781   3.670   4.332
  201POPC   GL2 2957   9.441   3.797   4.408
  201POPC   C1A 2958   9.752   3.764   4.801
  201POPC   D2A 2959   9.527   3.867   5.183
  201POPC   C3A 2960   9.760   3.990   5.585
  201POPC   C4A 2961   9.972   3.836   5.993
  201POPC   C1B 2962   9.381   3.404   4.691
  201POPC   C2B 2963   9.506   3.294   5.111
  201POPC   C3B 2964   9.532   3.484   5.519
  201POPC   C4B 2965   9.174   3.568   5.727
  202POPC   NC3 2966   5.850   1.064   3.921
  202POPC   PO4 2967   5.393   1.561   3.879
  202POPC   GL1 2968   5.478   1.529   4.299
  202POPC   GL2 2969   5.552   1.194   4.308
  202POPC   C1A 2970   5.662   1.420   4.727
  202POPC   D2A 2971   5.467   1.420   5.109
  202POPC   C3A 2972   5.778   1.486   5.383
  202POPC   C4A 2973   5.942   1.674   5.731
  202POPC   C1B 2974   5.446   0.960   4.701
  202POPC   C2B 2975   5.503   0.833   5.117
  202POPC   C3B 2976   5.506   1.060   5.496
  202POPC   C4B 2977   5.958   1.116   5.686
  203POPC   NC3 2978   9.558   2.722   3.864
  203POPC   PO4 2979  10.149   2.530   3.802
  203POPC   GL1 2980   9.945   2.488   4.233
  203POPC   GL2 2981   9.646   2.692   4.367
  203POPC   C1A 2982  10.002   2.528   4.691
  203POPC   D2A 2983   9.882   2.300   5.050
  203POPC   C3A 2984   9.922   2.549   5.411
  203POPC   C4A 2985   9.884   2.573   5.845
  203POPC   C1B 2986   9.535   2.806   4.801
  203POPC   C2B 2987   9.396   2.556   5.154
  203POPC   C3B 2988   9.442   2.654   5.572
  203POPC   C4B 2989   9.705   3.015   5.670
  204POPC   NC3 2990  11.349   5.211   4.118
  204POPC   PO4 2991  10.784   4.847   4.190
  204POPC   GL1 2992  10.843   4.900   4.537
  204POPC   GL2 2993  10.961   5.247   4.479
  204POPC   C1A 2994  10.745   4.730   4.946
  204POPC   D2A 2995  10.977   4.805   5.320
  204POPC   C3A 2996  10.877   4.964   5.683
  204POPC   C4A 2997  10.710   5.342   5.697
  204POPC   C1B 2998  11.183   5.052   4.852
  204POPC   C2B 2999  11.477   4.902   5.128
  204POPC   C3B 3000  11.406   5.049   5.509
  204POPC   C4B 3001  11.445   4.835   5.832
  205POPC   NC3 3002  10.271   3.656   3.877
  205POPC   PO4 3003  10.910   3.997   3.933
  205POPC   GL1 3004  10.649   3.678   4.273
  205POPC   GL2 3005  10.304   3.508   4.346
  205POPC   C1A 3006  10.628   3.405   4.711
  205POPC   D2A 3007  10.544   3.592   5.128
  205POPC   C3A 3008  10.498   3.313   5.472
  205POPC   C4A 3009  10.717   3.299   5.828
  205POPC   C1B 3010  10.276   3.798   4.707
  205POPC   C2B 3011  10.122   3.892   5.132
  205POPC   C3B 3012  10.225   3.746   5.559
  205POPC   C4B 3013  10.152   3.371   5.866
  206POPC   NC3 3014   3.651   1.053   3.814
  206POPC   PO4 3015   3.637   1.634   3.704
  206POPC   GL1 3016   3.381   1.381   4.282
  206POPC   GL2 3017   3.416   1.022   4.261
  206POPC   C1A 3018   3.661   1.161   4.699
  206POPC   D2A 3019   3.827   0.932   5.111
  206POPC   C3A 3020   3.734   1.104   5.560
  206POPC   C4A 3021   3.671   1.410   5.911
  206POPC   C1B 3022   3.315   0.804   4.634
  206POPC   C2B 3023   3.314   0.984   5.050
  206POPC   C3B 3024   3.236   1.168   5.445
  206POPC   C4B 3025   3.294   1.059   5.868
  207POPC   NC3 3026   5.655   9.822   3.896
  207POPC   PO4 3027   5.446   9.279   4.175
  207POPC   GL1 3028   5.679   9.514   4.462
  207POPC   GL2 3029   5.644   9.843   4.408
  207POPC   C1A 3030   5.813   9.589   4.904
  207POPC   D2A 3031   5.744   9.474   5.358
  207POPC   C3A 3032   6.105   9.524   5.691
  207POPC   C4A 3033   6.312   9.487   6.131
  207POPC   C1B 3034   5.353   9.767   4.777
  207POPC   C2B 3035   5.237   9.578   5.220
  207POPC   C3B 3036   5.377   9.654   5.679
  207POPC   C4B 3037   5.477   9.914   6.086
  208POPC   NC3 3038   0.502  11.402   3.929
  208POPC   PO4 3039   0.787  10.790   3.890
  208POPC   GL1 3040   0.662  11.032   4.233
  208POPC   GL2 3041   0.276  11.080   4.273
  208POPC   C1A 3042   0.683  11.127   4.657
  208POPC   D2A 3043   0.774  11.245   5.080
  208POPC   C3A 3044   0.899  10.915   5.354
  208POPC   C4A 3045   0.618  10.834   5.679
  208POPC   C1B 3046   0.245  10.838   4.697
  208POPC   C2B 3047   0.373  10.878   5.179
  208POPC   C3B 3048   0.273  11.187   5.537
  208POPC   C4B 3049   0.097   0.112   5.612
  209POPC   NC3 3050   3.301  10.271   3.660
  209POPC   PO4 3051   3.709   9.906   4.043
  209POPC   GL1 3052   3.687   9.830   4.424
  209POPC   GL2 3053   3.817   9.494   4.383
  209POPC   C1A 3054   3.306   9.856   4.709
  209POPC   D2A 3055   3.271   9.685   5.111
  209POPC   C3A 3056   3.476   9.785   5.491
  209POPC   C4A 3057   3.287   9.970   5.805
  209POPC   C1B 3058   3.585   9.434   4.790
  209POPC   C2B 3059   3.653   9.354   5.252
  209POPC   C3B 3060   3.551   9.330   5.709
  209POPC   C4B 3061   3.685   9.252   6.165
  210POPC   NC3 3062   0.214   8.013   3.395
  210POPC   PO4 3063   0.326   7.825   4.060
  210POPC   GL1 3064   0.263   8.024   4.392
  210POPC   GL2 3065   0.547   8.199   4.352
  210POPC   C1A 3066   0.420   7.906   4.787
  210POPC   D2A 3067   0.240   7.779   5.146
  210POPC   C3A 3068   0.346   7.979   5.535
  210POPC   C4A 3069   0.136   8.285   5.748
  210POPC   C1B 3070   0.434   8.403   4.703
  210POPC   C2B 3071   0.577   8.372   5.058
  210POPC   C3B 3072   0.495   8.485   5.423
  210POPC   C4B 3073   0.625   8.388   5.822
  211POPC   NC3 3074   7.810  10.391   3.911
  211POPC   PO4 3075   8.432  10.744   3.867
  211POPC   GL1 3076   8.191  10.596   4.241
  211POPC   GL2 3077   8.159  10.218   4.244
  211POPC   C1A 3078   8.103  10.694   4.707
  211POPC   D2A 3079   7.873  10.765   5.121
  211POPC   C3A 3080   8.140  10.639   5.484
  211POPC   C4A 3081   8.230  10.409   5.854
  211POPC   C1B 3082   8.066  10.152   4.661
  211POPC   C2B 3083   8.122  10.313   5.072
  211POPC   C3B 3084   7.992  10.128   5.468
  211POPC   C4B 3085   7.895  10.026   5.904
  212POPC   NC3 3086   1.638   5.365   4.007
  212POPC   PO4 3087   1.854   6.008   3.796
  212POPC   GL1 3088   1.798   5.984   4.237
  212POPC   GL2 3089   1.969   5.731   4.346
  212POPC   C1A 3090   1.609   5.998   4.628
  212POPC   D2A 3091   1.636   5.976   5.048
  212POPC   C3A 3092   1.912   6.046   5.372
  212POPC   C4A 3093   1.779   5.963   5.807
  212POPC   C1B 3094   1.930   5.633   4.768
  212POPC   C2B 3095   1.936   5.535   5.191
  212POPC   C3B 3096   2.020   5.541   5.632
  212POPC   C4B 3097   1.955   5.299   6.001
  213POPC   NC3 3098   5.571  11.417   3.470
  213POPC   PO4 3099   6.158   0.194   3.804
  213POPC   GL1 3100   6.095   0.053   4.253
  213POPC   GL2 3101   5.838  11.306   4.284
  213POPC   C1A 3102   5.983   0.048   4.721
  213POPC   D2A 3103   6.085  11.231   5.050
  213POPC   C3A 3104   6.097  11.425   5.423
  213POPC   C4A 3105   6.151  11.206   5.787
  213POPC   C1B 3106   5.790  11.074   4.649
  213POPC   C2B 3107   5.621  10.950   5.050
  213POPC   C3B 3108   5.734  11.087   5.438
  213POPC   C4B 3109   5.652  11.204   5.827
  214POPC   NC3 3110   0.268   4.923   3.822
  214POPC   PO4 3111   0.896   4.564   3.893
  214POPC   GL1 3112   0.695   4.764   4.296
  214POPC   GL2 3113   0.384   4.952   4.323
  214POPC   C1A 3114   0.735   4.978   4.707
  214POPC   D2A 3115   0.769   4.836   5.127
  214POPC   C3A 3116   0.410   4.691   5.383
  214POPC   C4A 3117   0.472   4.817   5.812
  214POPC   C1B 3118   0.209   5.074   4.696
  214POPC   C2B 3119   0.402   5.257   5.053
  214POPC   C3B 3120   0.405   5.204   5.486
  214POPC   C4B 3121   0.188   5.272   5.896
  215POPC   NC3 3122   5.634   0.127   3.944
  215POPC   PO4 3123   5.429   0.846   3.949
  215POPC   GL1 3124   5.669   0.675   4.313
  215POPC   GL2 3125   5.685   0.318   4.393
  215POPC   C1A 3126   5.841   0.613   4.764
  215POPC   D2A 3127   5.846   0.401   5.164
  215POPC   C3A 3128   5.796   0.622   5.582
  215POPC   C4A 3129   5.596   0.834   5.932
  215POPC   C1B 3130   5.474   0.009   4.652
  215POPC   C2B 3131   5.619  11.448   5.089
  215POPC   C3B 3132   5.629   0.107   5.509
  215POPC   C4B 3133   5.925   0.194   5.830
  216POPC   NC3 3134   2.905   7.602   4.059
  216POPC   PO4 3135   2.326   7.938   4.032
  216POPC   GL1 3136   2.639   7.971   4.336
  216POPC   GL2 3137   2.413   7.948   4.581
  216POPC   C1A 3138   2.917   7.929   4.714
  216POPC   D2A 3139   2.838   8.074   5.159
  216POPC   C3A 3140   2.962   8.016   5.614
  216POPC   C4A 3141   2.691   7.854   5.972
  216POPC   C1B 3142   2.581   8.325   4.773
  216POPC   C2B 3143   2.434   8.379   5.206
  216POPC   C3B 3144   2.493   8.206   5.599
  216POPC   C4B 3145   2.668   8.360   5.970
  217POPC   NC3 3146   1.867   6.496   3.913
  217POPC   PO4 3147   2.463   6.386   3.871
  217POPC   GL1 3148   2.250   6.188   4.242
  217POPC   GL2 3149   2.078   6.485   4.369
  217POPC   C1A 3150   2.069   6.150   4.721
  217POPC   D2A 3151   2.236   6.416   5.065
  217POPC   C3A 3152   2.141   6.566   5.476
  217POPC   C4A 3153   1.773   6.447   5.687
  217POPC   C1B 3154   1.833   6.611   4.760
  217POPC   C2B 3155   1.723   6.605   5.195
  217POPC   C3B 3156   1.765   6.928   5.522
  217POPC   C4B 3157   2.021   6.860   5.892
  218POPC   NC3 3158   0.507   3.333   3.974
  218POPC   PO4 3159   0.144   3.908   3.946
  218POPC   GL1 3160   0.404   3.747   4.304
  218POPC   GL2 3161   0.392   3.429   4.451
  218POPC   C1A 3162   0.629   3.817   4.692
  218POPC   D2A 3163   0.371   3.791   5.068
  218POPC   C3A 3164   0.502   3.688   5.473
  218POPC   C4A 3165   0.280   3.771   5.804
  218POPC   C1B 3166   0.364   3.194   4.787
  218POPC   C2B 3167   0.490   3.297   5.161
  218POPC   C3B 3168   0.289   3.187   5.485
  218POPC   C4B 3169   0.446   3.289   5.820
  219POPC   NC3 3170  10.250   7.125   4.023
  219POPC   PO4 3171  10.935   7.377   3.981
  219POPC   GL1 3172  10.811   7.166   4.314
  219POPC   GL2 3173  10.498   7.293   4.421
  219POPC   C1A 3174  10.835   7.051   4.725
  219POPC   D2A 3175  10.686   6.917   5.131
  219POPC   C3A 3176  10.666   7.131   5.520
  219POPC   C4A 3177  10.279   7.105   5.731
  219POPC   C1B 3178  10.618   7.662   4.666
  219POPC   C2B 3179  10.450   7.758   5.064
  219POPC   C3B 3180  10.303   7.463   5.337
  219POPC   C4B 3181  10.482   7.579   5.704
  220POPC   NC3 3182  10.634   4.479   3.962
  220POPC   PO4 3183  10.130   4.034   4.098
  220POPC   GL1 3184  10.254   4.363   4.347
  220POPC   GL2 3185  10.549   4.486   4.466
  220POPC   C1A 3186  10.202   4.300   4.776
  220POPC   D2A 3187  10.434   4.321   5.093
  220POPC   C3A 3188  10.192   4.273   5.451
  220POPC   C4A 3189  10.082   4.401   5.835
  220POPC   C1B 3190  10.692   4.116   4.647
  220POPC   C2B 3191  10.852   4.028   5.059
  220POPC   C3B 3192  10.799   4.290   5.428
  220POPC   C4B 3193  10.561   4.182   5.784
  221POPC   NC3 3194   5.028   8.229   3.890
  221POPC   PO4 3195   4.786   7.693   4.134
  221POPC   GL1 3196   4.914   7.910   4.492
  221POPC   GL2 3197   4.867   8.222   4.370
  221POPC   C1A 3198   4.837   8.075   4.912
  221POPC   D2A 3199   4.599   8.242   5.258
  221POPC   C3A 3200   4.589   7.976   5.618
  221POPC   C4A 3201   4.761   7.686   5.913
  221POPC   C1B 3202   5.183   8.377   4.668
  221POPC   C2B 3203   5.297   8.213   5.097
  221POPC   C3B 3204   5.069   8.162   5.506
  221POPC   C4B 3205   4.883   8.268   5.926
  222POPC   NC3 3206   1.302   4.307   3.905
  222POPC   PO4 3207   1.216   3.745   4.090
  222POPC   GL1 3208   1.066   4.024   4.410
  222POPC   GL2 3209   1.082   4.398   4.351
  222POPC   C1A 3210   1.077   4.009   4.869
  222POPC   D2A 3211   1.329   3.951   5.237
  222POPC   C3A 3212   1.291   4.198   5.658
  222POPC   C4A 3213   1.523   4.033   6.053
  222POPC   C1B 3214   1.031   4.529   4.771
  222POPC   C2B 3215   1.140   4.425   5.181
  222POPC   C3B 3216   0.886   4.526   5.515
  222POPC   C4B 3217   0.946   4.601   5.886
  223POPC   NC3 3218   2.538   8.348   4.000
  223POPC   PO4 3219   2.732   9.044   3.974
  223POPC   GL1 3220   2.760   8.740   4.315
  223POPC   GL2 3221   2.447   8.675   4.419
  223POPC   C1A 3222   2.850   8.763   4.781
  223POPC   D2A 3223   2.902   8.579   5.180
  223POPC   C3A 3224   2.780   8.668   5.578
  223POPC   C4A 3225   3.091   8.627   5.945
  223POPC   C1B 3226   2.522   9.096   4.623
  223POPC   C2B 3227   2.562   9.193   5.067
  223POPC   C3B 3228   2.658   9.184   5.512
  223POPC   C4B 3229   3.070   9.090   5.728
  224POPC   NC3 3230  10.296   0.354   3.925
  224POPC   PO4 3231  10.721   0.091   4.269
  224POPC   GL1 3232  10.373   0.285   4.481
  224POPC   GL2 3233  10.252   0.618   4.425
  224POPC   C1A 3234  10.228   0.337   4.909
  224POPC   D2A 3235  10.362   0.518   5.267
  224POPC   C3A 3236  10.447   0.247   5.615
  224POPC   C4A 3237  10.061   0.111   5.758
  224POPC   C1B 3238  10.574   0.686   4.772
  224POPC   C2B 3239  10.838   0.680   5.159
  224POPC   C3B 3240  10.642   0.790   5.575
  224POPC   C4B 3241  10.605   0.686   6.015
  225POPC   NC3 3242   2.229   3.016   4.028
  225POPC   PO4 3243   1.757   2.797   3.683
  225POPC   GL1 3244   1.766   2.637   4.160
  225POPC   GL2 3245   2.095   2.582   4.252
  225POPC   C1A 3246   1.686   2.748   4.639
  225POPC   D2A 3247   1.634   2.939   5.064
  225POPC   C3A 3248   1.788   2.702   5.425
  225POPC   C4A 3249   1.729   2.866   5.828
  225POPC   C1B 3250   2.201   2.814   4.642
  225POPC   C2B 3251   2.138   2.877   5.079
  225POPC   C3B 3252   2.347   2.798   5.449
  225POPC   C4B 3253   2.183   2.637   5.824
  226POPC   NC3 3254   6.895   7.905   3.947
  226POPC   PO4 3255   7.008   8.445   3.853
  226POPC   GL1 3256   7.051   8.354   4.309
  226POPC   GL2 3257   7.366   8.222   4.407
  226POPC   C1A 3258   7.051   8.362   4.796
  226POPC   D2A 3259   7.281   8.339   5.201
  226POPC   C3A 3260   7.097   8.316   5.602
  226POPC   C4A 3261   7.048   8.026   5.957
  226POPC   C1B 3262   7.572   8.414   4.787
  226POPC   C2B 3263   7.780   8.311   5.203
  226POPC   C3B 3264   7.595   8.195   5.608
  226POPC   C4B 3265   7.476   8.301   6.054
  227POPC   NC3 3266   1.327   0.286   4.040
  227POPC   PO4 3267   1.184   0.918   3.920
  227POPC   GL1 3268   1.114   0.734   4.363
  227POPC   GL2 3269   0.996   0.384   4.437
  227POPC   C1A 3270   1.046   0.714   4.821
  227POPC   D2A 3271   0.820   0.886   5.152
  227POPC   C3A 3272   1.067   0.742   5.501
  227POPC   C4A 3273   1.236   0.692   5.906
  227POPC   C1B 3274   1.394   0.360   4.717
  227POPC   C2B 3275   1.255   0.322   5.152
  227POPC   C3B 3276   1.399   0.313   5.561
  227POPC   C4B 3277   1.470  11.450   5.812
  228POPC   NC3 3278  10.871   7.826   3.901
  228POPC   PO4 3279  11.466   7.709   3.667
  228POPC   GL1 3280  11.376   7.563   4.186
  228POPC   GL2 3281  11.333   7.225   4.272
  228POPC   C1A 3282  11.101   7.488   4.638
  228POPC   D2A 3283  10.861   7.423   5.077
  228POPC   C3A 3284  11.004   7.572   5.501
  228POPC   C4A 3285  10.921   7.597   5.970
  228POPC   C1B 3286  11.349   7.042   4.677
  228POPC   C2B 3287  11.196   6.890   5.059
  228POPC   C3B 3288  11.175   7.070   5.466
  228POPC   C4B 3289  11.268   7.260   5.853
  229POPC   NC3 3290   4.401   2.601   3.925
  229POPC   PO4 3291   3.992   2.962   4.056
  229POPC   GL1 3292   4.033   2.682   4.424
  229POPC   GL2 3293   4.276   2.399   4.367
  229POPC   C1A 3294   3.877   2.749   4.850
  229POPC   D2A 3295   3.680   2.654   5.258
  229POPC   C3A 3296   3.915   2.749   5.630
  229POPC   C4A 3297   4.122   2.673   6.032
  229POPC   C1B 3298   4.333   2.510   4.786
  229POPC   C2B 3299   4.174   2.486   5.188
  229POPC   C3B 3300   4.314   2.424   5.592
  229POPC   C4B 3301   4.571   2.747   5.770
  230POPC   NC3 3302   4.825  10.111   3.906
  230POPC   PO4 3303   5.475  10.247   3.925
  230POPC   GL1 3304   5.394  10.287   4.317
  230POPC   GL2 3305   5.278  10.621   4.314
  230POPC   C1A 3306   5.247  10.275   4.725
  230POPC   D2A 3307   5.028  10.432   5.077
  230POPC   C3A 3308   5.092  10.119   5.376
  230POPC   C4A 3309   5.399  10.160   5.651
  230POPC   C1B 3310   4.909  10.679   4.597
  230POPC   C2B 3311   4.813  10.899   4.992
  230POPC   C3B 3312   4.759  10.748   5.388
  230POPC   C4B 3313   5.104  10.583   5.636
  231POPC   NC3 3314  10.516   2.698   4.027
  231POPC   PO4 3315  10.787   3.299   3.934
  231POPC   GL1 3316  10.806   3.041   4.316
  231POPC   GL2 3317  10.484   2.984   4.457
  231POPC   C1A 3318  10.957   2.942   4.731
  231POPC   D2A 3319  10.828   3.103   5.137
  231POPC   C3A 3320  10.820   2.871   5.524
  231POPC   C4A 3321  10.740   2.665   5.902
  231POPC   C1B 3322  10.546   2.592   4.702
  231POPC   C2B 3323  10.422   2.378   5.099
  231POPC   C3B 3324  10.411   2.512   5.540
  231POPC   C4B 3325  10.262   2.893   5.707
  232POPC   NC3 3326   7.232  10.816   4.038
  232POPC   PO4 3327   6.899  11.426   3.837
  232POPC   GL1 3328   7.022  11.250   4.272
  232POPC   GL2 3329   7.354  11.110   4.432
  232POPC   C1A 3330   6.940  11.229   4.738
  232POPC   D2A 3331   7.005  11.421   5.162
  232POPC   C3A 3332   7.039  11.155   5.551
  232POPC   C4A 3333   6.881  11.332   5.956
  232POPC   C1B 3334   7.368  10.912   4.854
  232POPC   C2B 3335   7.469  11.190   5.190
  232POPC   C3B 3336   7.512  11.368   5.579
  232POPC   C4B 3337   7.528  10.942   5.787
  233POPC   NC3 3338   1.538   3.689   3.775
  233POPC   PO4 3339   1.715   3.147   4.098
  233POPC   GL1 3340   1.651   3.547   4.299
  233POPC   GL2 3341   1.981   3.581   4.343
  233POPC   C1A 3342   1.557   3.787   4.685
  233POPC   D2A 3343   1.793   3.927   5.005
  233POPC   C3A 3344   1.782   3.793   5.397
  233POPC   C4A 3345   1.870   3.660   5.770
  233POPC   C1B 3346   1.968   3.316   4.723
  233POPC   C2B 3347   2.002   3.379   5.149
  233POPC   C3B 3348   2.002   3.181   5.534
  233POPC   C4B 3349   2.068   3.222   5.984
  234POPC   NC3 3350   9.013   1.884   3.884
  234POPC   PO4 3351   8.454   2.312   4.008
  234POPC   GL1 3352   8.831   2.178   4.256
  234POPC   GL2 3353   8.757   1.838   4.310
  234POPC   C1A 3354   9.035   2.097   4.683
  234POPC   D2A 3355   8.966   2.269   5.087
  234POPC   C3A 3356   9.045   1.991   5.414
  234POPC   C4A 3357   9.014   2.065   5.823
  234POPC   C1B 3358   8.546   2.000   4.649
  234POPC   C2B 3359   8.573   1.850   5.065
  234POPC   C3B 3360   8.333   1.909   5.426
  234POPC   C4B 3361   8.498   1.919   5.829
  235POPC   NC3 3362   9.591   0.240   3.609
  235POPC   PO4 3363   9.278   0.690   4.021
  235POPC   GL1 3364   9.461   0.394   4.315
  235POPC   GL2 3365   9.826   0.342   4.201
  235POPC   C1A 3366   9.260   0.336   4.726
  235POPC   D2A 3367   9.201   0.604   5.081
  235POPC   C3A 3368   9.291   0.320   5.361
  235POPC   C4A 3369   9.507   0.192   5.706
  235POPC   C1B 3370   9.812   0.461   4.653
  235POPC   C2B 3371   9.712   0.380   5.079
  235POPC   C3B 3372   9.814   0.549   5.488
  235POPC   C4B 3373  10.175   0.651   5.745
  236POPC   NC3 3374   8.857   0.917   3.998
  236POPC   PO4 3375   8.565   1.600   3.857
  236POPC   GL1 3376   8.646   1.346   4.223
  236POPC   GL2 3377   9.018   1.382   4.235
  236POPC   C1A 3378   8.578   1.475   4.676
  236POPC   D2A 3379   8.609   1.320   5.109
  236POPC   C3A 3380   8.717   1.574   5.487
  236POPC   C4A 3381   9.081   1.566   5.746
  236POPC   C1B 3382   8.958   1.130   4.625
  236POPC   C2B 3383   9.119   1.117   5.042
  236POPC   C3B 3384   8.964   1.130   5.445
  236POPC   C4B 3385   9.057   1.052   5.847
  237POPC   NC3 3386   0.262   7.371   3.910
  237POPC   PO4 3387   0.893   7.026   3.913
  237POPC   GL1 3388   0.670   7.128   4.346
  237POPC   GL2 3389   0.330   7.249   4.382
  237POPC   C1A 3390   0.609   7.339   4.793
  237POPC   D2A 3391   0.353   7.256   5.187
  237POPC   C3A 3392   0.475   7.256   5.657
  237POPC   C4A 3393   0.210   7.152   6.054
  237POPC   C1B 3394   0.117   7.470   4.709
  237POPC   C2B 3395  11.376   7.401   5.099
  237POPC   C3B 3396   0.034   7.519   5.527
  237POPC   C4B 3397   0.270   7.636   5.920
  238POPC   NC3 3398   5.535   1.984   3.978
  238POPC   PO4 3399   5.942   2.365   4.106
  238POPC   GL1 3400   5.846   2.013   4.378
  238POPC   GL2 3401   5.966   1.692   4.271
  238POPC   C1A 3402   5.524   1.897   4.695
  238POPC   D2A 3403   5.318   1.918   5.117
  238POPC   C3A 3404   5.573   1.946   5.498
  238POPC   C4A 3405   5.806   2.155   5.857
  238POPC   C1B 3406   6.065   1.735   4.750
  238POPC   C2B 3407   6.021   1.903   5.188
  238POPC   C3B 3408   6.227   2.079   5.555
  238POPC   C4B 3409   6.277   1.982   6.005
  239POPC   NC3 3410   0.684   6.667   4.120
  239POPC   PO4 3411   0.095   6.918   3.975
  239POPC   GL1 3412   0.225   6.748   4.335
  239POPC   GL2 3413   0.153   6.399   4.267
  239POPC   C1A 3414   0.328   6.892   4.749
  239POPC   D2A 3415   0.444   6.749   5.120
  239POPC   C3A 3416   0.320   6.793   5.539
  239POPC   C4A 3417   0.644   6.586   5.769
  239POPC   C1B 3418   0.372   6.381   4.674
  239POPC   C2B 3419   0.464   6.230   5.094
  239POPC   C3B 3420   0.313   6.285   5.501
  239POPC   C4B 3421   0.370   6.113   5.919
  240POPC   NC3 3422  10.445   9.623   3.810
  240POPC   PO4 3423  10.841   9.109   3.770
  240POPC   GL1 3424  10.477   9.251   4.147
  240POPC   GL2 3425  10.641   9.536   4.274
  240POPC   C1A 3426  10.431   9.295   4.678
  240POPC   D2A 3427  10.521   9.192   5.147
  240POPC   C3A 3428  10.333   9.427   5.435
  240POPC   C4A 3429  10.577   9.731   5.630
  240POPC   C1B 3430  10.334   9.771   4.529
  240POPC   C2B 3431  10.273   9.767   5.003
  240POPC   C3B 3432  10.144   9.895   5.446
  240POPC   C4B 3433  10.288  10.032   5.908
  241POPC   NC3 3434   4.861  11.161   3.845
  241POPC   PO4 3435   5.595  11.150   3.845
  241POPC   GL1 3436   5.342  11.135   4.229
  241POPC   GL2 3437   5.023  11.279   4.319
  241POPC   C1A 3438   5.272  11.026   4.675
  241POPC   D2A 3439   5.149  11.277   5.020
  241POPC   C3A 3440   5.210  11.072   5.411
  241POPC   C4A 3441   5.207  11.403   5.702
  241POPC   C1B 3442   4.745  11.312   4.689
  241POPC   C2B 3443   4.623  11.461   5.104
  241POPC   C3B 3444   4.548  11.319   5.517
  241POPC   C4B 3445   4.794  11.104   5.744
  242POPC   NC3 3446  11.251   6.011   3.576
  242POPC   PO4 3447  10.952   5.623   4.051
  242POPC   GL1 3448  11.114   5.732   4.428
  242POPC   GL2 3449  11.421   5.674   4.302
  242POPC   C1A 3450  11.208   5.567   4.852
  242POPC   D2A 3451  11.051   5.369   5.271
  242POPC   C3A 3452  11.037   5.707   5.594
  242POPC   C4A 3453  10.896   6.130   5.550
  242POPC   C1B 3454  11.498   6.013   4.605
  242POPC   C2B 3455  11.246   6.090   4.952
  242POPC   C3B 3456  11.372   6.048   5.369
  242POPC   C4B 3457  11.377   6.218   5.779
  243POPC   NC3 3458   8.022  11.110   3.865
  243POPC   PO4 3459   7.665  10.756   4.201
  243POPC   GL1 3460   7.934  11.067   4.372
  243POPC   GL2 3461   8.319  11.116   4.275
  243POPC   C1A 3462   7.815  11.146   4.776
  243POPC   D2A 3463   7.968  11.274   5.153
  243POPC   C3A 3464   7.946  11.098   5.550
  243POPC   C4A 3465   7.870  11.304   5.948
  243POPC   C1B 3466   8.332  11.176   4.722
  243POPC   C2B 3467   8.376  10.966   5.118
  243POPC   C3B 3468   8.446  11.192   5.467
  243POPC   C4B 3469   8.350  11.166   5.893
  244POPC   NC3 3470   2.288   8.983   4.040
  244POPC   PO4 3471   1.720   9.316   3.875
  244POPC   GL1 3472   1.635   9.158   4.319
  244POPC   GL2 3473   1.832   8.894   4.287
  244POPC   C1A 3474   1.633   9.044   4.802
  244POPC   D2A 3475   1.810   8.744   5.144
  244POPC   C3A 3476   1.660   8.725   5.610
  244POPC   C4A 3477   1.666   8.969   6.020
  244POPC   C1B 3478   1.998   8.742   4.639
  244POPC   C2B 3479   2.293   8.770   4.933
  244POPC   C3B 3480   2.284   8.846   5.373
  244POPC   C4B 3481   2.199   9.068   5.750
  245POPC   NC3 3482   4.324   0.504   3.830
  245POPC   PO4 3483   4.142  11.371   3.925
  245POPC   GL1 3484   4.228   0.200   4.263
  245POPC   GL2 3485   4.213   0.542   4.353
  245POPC   C1A 3486   4.355   0.217   4.713
  245POPC   D2A 3487   4.134   0.284   5.096
  245POPC   C3A 3488   4.371   0.292   5.446
  245POPC   C4A 3489   4.338   0.268   5.876
  245POPC   C1B 3490   4.239   0.729   4.794
  245POPC   C2B 3491   4.493   0.734   5.190
  245POPC   C3B 3492   4.527   0.725   5.656
  245POPC   C4B 3493   4.060   0.669   5.740
  246POPC   NC3 3494   8.731   9.621   3.880
  246POPC   PO4 3495   9.375   9.335   4.034
  246POPC   GL1 3496   9.192   9.422   4.435
  246POPC   GL2 3497   8.933   9.642   4.345
  246POPC   C1A 3498   8.904   9.283   4.785
  246POPC   D2A 3499   8.756   9.172   5.237
  246POPC   C3A 3500   9.033   9.354   5.571
  246POPC   C4A 3501   9.114   9.191   6.017
  246POPC   C1B 3502   9.003   9.816   4.746
  246POPC   C2B 3503   8.880   9.662   5.160
  246POPC   C3B 3504   8.860   9.869   5.553
  246POPC   C4B 3505   9.161  10.003   5.843
  247POPC   NC3 3506   2.236   0.504   3.914
  247POPC   PO4 3507   1.753   0.105   4.044
  247POPC   GL1 3508   1.993   0.240   4.354
  247POPC   GL2 3509   2.109   0.593   4.391
  247POPC   C1A 3510   1.912   0.196   4.753
  247POPC   D2A 3511   1.769   0.140   5.118
  247POPC   C3A 3512   2.144   0.079   5.404
  247POPC   C4A 3513   2.017   0.061   5.811
  247POPC   C1B 3514   1.844   0.706   4.719
  247POPC   C2B 3515   1.637   0.645   5.100
  247POPC   C3B 3516   1.854   0.505   5.447
  247POPC   C4B 3517   2.120   0.565   5.744
  248POPC   NC3 3518  10.440   6.181   3.754
  248POPC   PO4 3519  10.601   6.803   3.980
  248POPC   GL1 3520  10.545   6.730   4.362
  248POPC   GL2 3521  10.419   6.401   4.253
  248POPC   C1A 3522  10.373   6.830   4.741
  248POPC   D2A 3523  10.219   6.562   5.058
  248POPC   C3A 3524  10.313   6.701   5.431
  248POPC   C4A 3525  10.034   6.604   5.751
  248POPC   C1B 3526  10.446   6.302   4.682
  248POPC   C2B 3527  10.345   6.032   5.011
  248POPC   C3B 3528  10.341   6.169   5.437
  248POPC   C4B 3529  10.498   6.368   5.769
  249POPC   NC3 3530   0.445   1.960   3.764
  249POPC   PO4 3531   0.098   2.263   4.176
  249POPC   GL1 3532   0.237   1.925   4.340
  249POPC   GL2 3533   0.564   1.989   4.273
  249POPC   C1A 3534   0.202   1.816   4.757
  249POPC   D2A 3535   0.383   1.944   5.117
  249POPC   C3A 3536   0.190   1.846   5.455
  249POPC   C4A 3537   0.028   2.213   5.641
  249POPC   C1B 3538   0.645   2.082   4.693
  249POPC   C2B 3539   0.665   2.348   5.053
  249POPC   C3B 3540   0.512   2.317   5.489
  249POPC   C4B 3541   0.502   1.986   5.811
  250POPC   NC3 3542   0.523   8.865   3.890
  250POPC   PO4 3543  11.448   8.472   3.828
  250POPC   GL1 3544   0.247   8.591   4.221
  250POPC   GL2 3545   0.606   8.704   4.345
  250POPC   C1A 3546   0.215   8.862   4.620
  250POPC   D2A 3547   0.309   8.825   5.066
  250POPC   C3A 3548   0.189   9.148   5.400
  250POPC   C4A 3549   0.060   9.143   5.839
  250POPC   C1B 3550   0.819   8.732   4.696
  250POPC   C2B 3551   0.879   8.783   5.097
  250POPC   C3B 3552   0.679   8.995   5.380
  250POPC   C4B 3553   0.454   8.863   5.745
  251POPC   NC3 3554  11.204  11.260   3.731
  251POPC   PO4 3555  10.707   0.151   3.769
  251POPC   GL1 3556  11.181   0.074   4.121
  251POPC   GL2 3557  11.265  11.220   4.228
  251POPC   C1A 3558  11.232   0.015   4.641
  251POPC   D2A 3559  11.043  11.262   5.024
  251POPC   C3A 3560  11.191  11.332   5.462
  251POPC   C4A 3561  11.138   0.019   5.892
  251POPC   C1B 3562  11.230  10.993   4.642
  251POPC   C2B 3563  11.348  10.796   5.026
  251POPC   C3B 3564  11.367  10.840   5.448
  251POPC   C4B 3565  11.171  10.980   5.831
  252POPC   NC3 3566   4.146   1.017   4.187
  252POPC   PO4 3567   4.613   1.414   3.838
  252POPC   GL1 3568   4.626   1.237   4.234
  252POPC   GL2 3569   4.375   1.428   4.376
  252POPC   C1A 3570   4.689   1.202   4.695
  252POPC   D2A 3571   4.570   1.218   5.112
  252POPC   C3A 3572   4.607   1.444   5.474
  252POPC   C4A 3573   4.743   1.216   5.811
  252POPC   C1B 3574   4.173   1.305   4.776
  252POPC   C2B 3575   4.097   1.355   5.212
  252POPC   C3B 3576   4.234   1.121   5.537
  252POPC   C4B 3577   4.164   1.462   5.773
  253POPC   NC3 3578   5.704  10.638   3.964
  253POPC   PO4 3579   6.038  10.055   3.959
  253POPC   GL1 3580   5.909  10.281   4.353
  253POPC   GL2 3581   6.026  10.646   4.374
  253POPC   C1A 3582   5.774  10.118   4.798
  253POPC   D2A 3583   5.580   9.956   5.194
  253POPC   C3A 3584   5.846   9.948   5.536
  253POPC   C4A 3585   5.877  10.273   5.788
  253POPC   C1B 3586   5.652  10.591   4.671
  253POPC   C2B 3587   5.543  10.456   5.109
  253POPC   C3B 3588   5.604  10.608   5.504
  253POPC   C4B 3589   5.937  10.759   5.781
  254POPC   NC3 3590   1.863  10.599   3.604
  254POPC   PO4 3591   2.440  10.902   3.857
  254POPC   GL1 3592   2.359  10.828   4.322
  254POPC   GL2 3593   2.154  10.535   4.411
  254POPC   C1A 3594   2.290  10.837   4.799
  254POPC   D2A 3595   2.044  10.641   5.105
  254POPC   C3A 3596   2.018  10.823   5.492
  254POPC   C4A 3597   2.220  10.685   5.867
  254POPC   C1B 3598   2.176  10.236   4.783
  254POPC   C2B 3599   2.195  10.113   5.220
  254POPC   C3B 3600   2.006  10.332   5.535
  254POPC   C4B 3601   1.651  10.532   5.693
  255POPC   NC3 3602   9.795  11.047   3.611
  255POPC   PO4 3603   9.255  11.422   3.697
  255POPC   GL1 3604   9.554  11.387   4.157
  255POPC   GL2 3605   9.783  11.130   4.374
  255POPC   C1A 3606   9.579  11.450   4.685
  255POPC   D2A 3607   9.449  11.366   5.165
  255POPC   C3A 3608   9.676  11.253   5.590
  255POPC   C4A 3609   9.738  11.439   6.090
  255POPC   C1B 3610   9.592  10.895   4.731
  255POPC   C2B 3611   9.321  10.842   5.098
  255POPC   C3B 3612   9.247  10.924   5.525
  255POPC   C4B 3613   9.514  10.883   5.896
  256POPC   NC3 3614   9.173   4.833   4.038
  256POPC   PO4 3615   8.605   5.019   3.928
  256POPC   GL1 3616   8.772   5.151   4.369
  256POPC   GL2 3617   9.113   5.130   4.452
  256POPC   C1A 3618   8.791   4.990   4.831
  256POPC   D2A 3619   8.658   4.922   5.267
  256POPC   C3A 3620   8.752   4.923   5.700
  256POPC   C4A 3621   8.420   4.898   6.026
  256POPC   C1B 3622   9.132   5.353   4.829
  256POPC   C2B 3623   9.131   5.242   5.262
  256POPC   C3B 3624   9.145   5.256   5.683
  256POPC   C4B 3625   9.229   4.961   5.984
  257POPC   NC3 3626   2.903   3.753   3.986
  257POPC   PO4 3627   2.676   3.159   3.961
  257POPC   GL1 3628   2.702   3.361   4.318
  257POPC   GL2 3629   2.398   3.271   4.446
  257POPC   C1A 3630   2.821   3.537   4.703
  257POPC   D2A 3631   2.973   3.381   5.085
  257POPC   C3A 3632   2.882   3.535   5.502
  257POPC   C4A 3633   3.132   3.430   5.860
  257POPC   C1B 3634   2.463   3.211   4.878
  257POPC   C2B 3635   2.478   3.275   5.301
  257POPC   C3B 3636   2.362   3.533   5.645
  257POPC   C4B 3637   2.624   3.486   5.965
  258POPC   NC3 3638   4.175  10.690   4.086
  258POPC   PO4 3639   4.419  10.093   4.114
  258POPC   GL1 3640   4.149  10.254   4.444
  258POPC   GL2 3641   3.838  10.343   4.328
  258POPC   C1A 3642   4.211  10.183   4.908
  258POPC   D2A 3643   4.592  10.167   5.179
  258POPC   C3A 3644   4.654  10.280   5.611
  258POPC   C4A 3645   4.665  10.629   5.876
  258POPC   C1B 3646   3.909  10.609   4.736
  258POPC   C2B 3647   3.879  10.509   5.170
  258POPC   C3B 3648   4.127  10.290   5.438
  258POPC   C4B 3649   4.212  10.421   5.848
  259POPC   NC3 3650   5.025   0.643   3.945
  259POPC   PO4 3651   5.199   0.023   3.736
  259POPC   GL1 3652   5.196   0.238   4.191
  259POPC   GL2 3653   4.829   0.273   4.318
  259POPC   C1A 3654   5.266   0.492   4.585
  259POPC   D2A 3655   5.327   0.357   5.027
  259POPC   C3A 3656   5.306   0.517   5.471
  259POPC   C4A 3657   5.380   0.349   5.899
  259POPC   C1B 3658   4.847   0.311   4.792
  259POPC   C2B 3659   4.861   0.401   5.249
  259POPC   C3B 3660   4.848   0.293   5.692
  259POPC   C4B 3661   4.851   0.462   6.113
  260POPC   NC3 3662   1.873   7.954   4.016
  260POPC   PO4 3663   2.097   8.568   3.995
  260POPC   GL1 3664   2.116   8.300   4.352
  260POPC   GL2 3665   1.780   8.308   4.420
  260POPC   C1A 3666   2.075   8.282   4.829
  260POPC   D2A 3667   1.752   8.230   5.146
  260POPC   C3A 3668   2.004   8.361   5.488
  260POPC   C4A 3669   2.208   8.567   5.806
  260POPC   C1B 3670   1.811   7.891   4.664
  260POPC   C2B 3671   1.723   7.703   5.086
  260POPC   C3B 3672   1.777   7.850   5.515
  260POPC   C4B 3673   1.569   8.216   5.684
  261POPC   NC3 3674   8.811   2.673   4.085
  261POPC   PO4 3675   9.335   3.015   4.122
  261POPC   GL1 3676   9.142   2.858   4.477
  261POPC   GL2 3677   9.123   2.543   4.474
  261POPC   C1A 3678   9.018   2.864   4.915
  261POPC   D2A 3679   8.928   2.733   5.345
  261POPC   C3A 3680   9.098   2.999   5.677
  261POPC   C4A 3681   9.170   3.158   6.051
  261POPC   C1B 3682   8.694   2.499   4.710
  261POPC   C2B 3683   8.458   2.344   5.097
  261POPC   C3B 3684   8.642   2.337   5.529
  261POPC   C4B 3685   8.611   2.743   5.770
  262POPC   NC3 3686   3.267  10.867   3.989
  262POPC   PO4 3687   3.271   0.016   3.969
  262POPC   GL1 3688   3.168  11.331   4.339
  262POPC   GL2 3689   3.472  11.186   4.383
  262POPC   C1A 3690   3.186  11.332   4.802
  262POPC   D2A 3691   3.274  11.150   5.188
  262POPC   C3A 3692   3.211  11.361   5.564
  262POPC   C4A 3693   3.308  11.424   6.004
  262POPC   C1B 3694   3.705  11.077   4.753
  262POPC   C2B 3695   3.757  11.013   5.179
  262POPC   C3B 3696   3.655  11.087   5.580
  262POPC   C4B 3697   3.804  10.700   5.704
  263POPC   NC3 3698  11.232   2.107   3.966
  263POPC   PO4 3699   0.136   1.594   3.909
  263POPC   GL1 3700  11.274   1.705   4.285
  263POPC   GL2 3701  10.949   1.970   4.338
  263POPC   C1A 3702  11.206   1.887   4.743
  263POPC   D2A 3703  11.356   2.078   5.120
  263POPC   C3A 3704  11.179   1.877   5.496
  263POPC   C4A 3705  11.410   1.799   5.903
  263POPC   C1B 3706  10.741   2.126   4.710
  263POPC   C2B 3707  10.847   2.066   5.109
  263POPC   C3B 3708  10.708   2.113   5.490
  263POPC   C4B 3709  10.938   2.194   5.839
  264POPC   NC3 3710   4.283   1.741   3.762
  264POPC   PO4 3711   3.831   1.359   4.126
  264POPC   GL1 3712   3.929   1.674   4.452
  264POPC   GL2 3713   4.189   1.882   4.258
  264POPC   C1A 3714   3.929   1.734   4.905
  264POPC   D2A 3715   4.020   2.018   5.226
  264POPC   C3A 3716   4.168   1.931   5.593
  264POPC   C4A 3717   3.903   1.871   5.944
  264POPC   C1B 3718   4.311   1.980   4.699
  264POPC   C2B 3719   4.440   1.757   5.100
  264POPC   C3B 3720   4.695   1.940   5.462
  264POPC   C4B 3721   4.741   2.249   5.821
  265POPC   NC3 3722   1.143   6.636   3.774
  265POPC   PO4 3723   1.522   6.442   4.206
  265POPC   GL1 3724   1.318   6.419   4.542
  265POPC   GL2 3725   1.001   6.405   4.437
  265POPC   C1A 3726   1.319   6.640   4.899
  265POPC   D2A 3727   1.288   6.871   5.258
  265POPC   C3A 3728   1.323   6.672   5.642
  265POPC   C4A 3729   1.534   6.897   5.992
  265POPC   C1B 3730   0.832   6.510   4.836
  265POPC   C2B 3731   0.870   6.548   5.279
  265POPC   C3B 3732   0.829   6.197   5.511
  265POPC   C4B 3733   1.042   6.280   5.868
  266POPC   NC3 3734   1.413   6.086   3.947
  266POPC   PO4 3735   1.158   5.455   3.966
  266POPC   GL1 3736   1.331   5.681   4.297
  266POPC   GL2 3737   1.069   5.914   4.297
  266POPC   C1A 3738   1.409   5.546   4.721
  266POPC   D2A 3739   1.243   5.663   5.128
  266POPC   C3A 3740   1.528   5.650   5.450
  266POPC   C4A 3741   1.513   5.489   5.821
  266POPC   C1B 3742   1.123   5.981   4.730
  266POPC   C2B 3743   1.181   6.196   5.098
  266POPC   C3B 3744   1.344   6.115   5.496
  266POPC   C4B 3745   1.061   5.753   5.630
  267POPC   NC3 3746   7.258   2.196   3.942
  267POPC   PO4 3747   7.088   1.572   3.683
  267POPC   GL1 3748   7.196   1.728   4.120
  267POPC   GL2 3749   7.556   1.848   4.192
  267POPC   C1A 3750   7.142   1.917   4.571
  267POPC   D2A 3751   7.149   2.000   5.047
  267POPC   C3A 3752   6.860   1.923   5.408
  267POPC   C4A 3753   7.066   1.785   5.778
  267POPC   C1B 3754   7.652   1.938   4.644
  267POPC   C2B 3755   7.666   1.857   5.088
  267POPC   C3B 3756   7.476   1.985   5.473
  267POPC   C4B 3757   7.163   2.261   5.612
  268POPC   NC3 3758  10.282   8.241   3.673
  268POPC   PO4 3759  10.055   7.676   3.927
  268POPC   GL1 3760  10.329   7.811   4.281
  268POPC   GL2 3761  10.445   8.184   4.300
  268POPC   C1A 3762  10.164   7.948   4.700
  268POPC   D2A 3763   9.927   8.089   5.052
  268POPC   C3A 3764  10.096   7.933   5.410
  268POPC   C4A 3765  10.137   7.929   5.794
  268POPC   C1B 3766  10.431   8.381   4.744
  268POPC   C2B 3767  10.328   8.335   5.196
  268POPC   C3B 3768  10.549   8.178   5.576
  268POPC   C4B 3769  10.598   8.382   5.978
  269POPC   NC3 3770   2.880   9.490   3.902
  269POPC   PO4 3771   2.284   9.811   3.902
  269POPC   GL1 3772   2.552   9.691   4.267
  269POPC   GL2 3773   2.892   9.625   4.402
  269POPC   C1A 3774   2.495   9.587   4.716
  269POPC   D2A 3775   2.760   9.668   5.084
  269POPC   C3A 3776   2.519   9.742   5.423
  269POPC   C4A 3777   2.351   9.554   5.757
  269POPC   C1B 3778   2.990   9.330   4.756
  269POPC   C2B 3779   3.069   9.239   5.210
  269POPC   C3B 3780   3.013   9.566   5.548
  269POPC   C4B 3781   2.801   9.798   5.861
  270POPC   NC3 3782   3.877  11.015   3.743
  270POPC   PO4 3783   4.557  10.795   3.833
  270POPC   GL1 3784   4.607  10.944   4.260
  270POPC   GL2 3785   4.509  11.272   4.255
  270POPC   C1A 3786   4.418  10.870   4.676
  270POPC   D2A 3787   4.363  10.644   5.062
  270POPC   C3A 3788   4.216  10.865   5.409
  270POPC   C4A 3789   4.271  10.942   5.827
  270POPC   C1B 3790   4.151  11.280   4.570
  270POPC   C2B 3791   4.174  11.243   5.015
  270POPC   C3B 3792   4.052  11.379   5.431
  270POPC   C4B 3793   3.972  11.364   5.878
  271POPC   NC3 3794   2.875   6.573   3.898
  271POPC   PO4 3795   2.931   7.142   4.037
  271POPC   GL1 3796   2.858   6.804   4.396
  271POPC   GL2 3797   2.618   6.542   4.337
  271POPC   C1A 3798   2.911   6.597   4.849
  271POPC   D2A 3799   3.051   6.445   5.293
  271POPC   C3A 3800   2.863   6.660   5.654
  271POPC   C4A 3801   2.476   6.624   5.905
  271POPC   C1B 3802   2.551   6.280   4.660
  271POPC   C2B 3803   2.683   6.181   5.062
  271POPC   C3B 3804   2.572   6.288   5.465
  271POPC   C4B 3805   2.256   6.161   5.738
  272POPC   NC3 3806   6.947   3.090   4.118
  272POPC   PO4 3807   6.814   2.413   3.990
  272POPC   GL1 3808   7.082   2.588   4.339
  272POPC   GL2 3809   7.454   2.536   4.288
  272POPC   C1A 3810   7.075   2.803   4.776
  272POPC   D2A 3811   7.275   2.886   5.199
  272POPC   C3A 3812   7.105   2.788   5.637
  272POPC   C4A 3813   7.163   2.975   6.084
  272POPC   C1B 3814   7.402   2.385   4.720
  272POPC   C2B 3815   7.437   2.399   5.166
  272POPC   C3B 3816   7.576   2.533   5.560
  272POPC   C4B 3817   7.767   2.425   5.956
  273POPC   NC3 3818   1.952   9.753   3.600
  273POPC   PO4 3819   1.962  10.115   4.192
  273POPC   GL1 3820   2.074   9.755   4.413
  273POPC   GL2 3821   2.093   9.438   4.205
  273POPC   C1A 3822   2.015   9.737   4.822
  273POPC   D2A 3823   1.764   9.816   5.110
  273POPC   C3A 3824   1.973   9.661   5.397
  273POPC   C4A 3825   1.996   9.880   5.717
  273POPC   C1B 3826   2.049   9.270   4.614
  273POPC   C2B 3827   2.042   9.233   5.061
  273POPC   C3B 3828   1.798   9.183   5.432
  273POPC   C4B 3829   1.829   9.409   5.826
  274POPC   NC3 3830   7.276   8.828   3.884
  274POPC   PO4 3831   7.073   9.403   4.135
  274POPC   GL1 3832   7.320   9.134   4.434
  274POPC   GL2 3833   7.394   8.762   4.375
  274POPC   C1A 3834   7.295   8.990   4.877
  274POPC   D2A 3835   7.332   8.849   5.288
  274POPC   C3A 3836   7.117   9.062   5.670
  274POPC   C4A 3837   6.820   9.049   6.054
  274POPC   C1B 3838   7.718   8.871   4.638
  274POPC   C2B 3839   7.816   8.789   5.038
  274POPC   C3B 3840   7.814   8.792   5.460
  274POPC   C4B 3841   7.479   8.685   5.738
  275POPC   NC3 3842   2.720   1.226   3.724
  275POPC   PO4 3843   2.683   1.734   3.986
  275POPC   GL1 3844   2.747   1.494   4.325
  275POPC   GL2 3845   2.890   1.197   4.233
  275POPC   C1A 3846   2.547   1.410   4.721
  275POPC   D2A 3847   2.338   1.329   5.092
  275POPC   C3A 3848   2.328   1.535   5.457
  275POPC   C4A 3849   2.369   1.400   5.841
  275POPC   C1B 3850   3.031   1.227   4.675
  275POPC   C2B 3851   2.819   1.129   5.086
  275POPC   C3B 3852   2.734   1.223   5.528
  275POPC   C4B 3853   2.795   1.164   5.992
  276POPC   NC3 3854   3.743   2.576   4.032
  276POPC   PO4 3855   3.202   2.476   3.682
  276POPC   GL1 3856   3.157   2.629   4.206
  276POPC   GL2 3857   3.489   2.592   4.469
  276POPC   C1A 3858   3.043   2.520   4.677
  276POPC   D2A 3859   3.238   2.446   5.126
  276POPC   C3A 3860   3.241   2.646   5.564
  276POPC   C4A 3861   3.498   2.687   5.961
  276POPC   C1B 3862   3.385   2.878   4.838
  276POPC   C2B 3863   3.421   3.122   5.233
  276POPC   C3B 3864   3.514   3.105   5.678
  276POPC   C4B 3865   3.891   3.132   5.980
  277POPC   NC3 3866   8.966  11.018   3.548
  277POPC   PO4 3867   9.164  10.884   4.187
  277POPC   GL1 3868   8.854  11.109   4.379
  277POPC   GL2 3869   9.103  11.406   4.406
  277POPC   C1A 3870   8.725  10.864   4.755
  277POPC   D2A 3871   8.825  10.661   5.146
  277POPC   C3A 3872   8.673  10.741   5.552
  277POPC   C4A 3873   8.829  11.058   5.783
  277POPC   C1B 3874   9.109  11.213   4.806
  277POPC   C2B 3875   8.898  11.179   5.193
  277POPC   C3B 3876   9.062  11.408   5.517
  277POPC   C4B 3877   9.014   0.251   5.801
  278POPC   NC3 3878   6.344   2.568   4.035
  278POPC   PO4 3879   6.514   3.186   4.111
  278POPC   GL1 3880   6.616   2.808   4.424
  278POPC   GL2 3881   6.586   2.423   4.451
  278POPC   C1A 3882   6.575   2.722   4.886
  278POPC   D2A 3883   6.759   2.938   5.239
  278POPC   C3A 3884   6.574   2.924   5.649
  278POPC   C4A 3885   6.652   3.133   6.043
  278POPC   C1B 3886   6.886   2.333   4.762
  278POPC   C2B 3887   6.941   2.467   5.185
  278POPC   C3B 3888   6.702   2.447   5.546
  278POPC   C4B 3889   6.351   2.473   5.846
  279POPC   NC3 3890   0.400   2.786   3.737
  279POPC   PO4 3891   0.132   3.089   4.199
  279POPC   GL1 3892   0.503   2.887   4.372
  279POPC   GL2 3893   0.486   2.500   4.415
  279POPC   C1A 3894   0.662   2.789   4.790
  279POPC   D2A 3895   0.536   2.806   5.202
  279POPC   C3A 3896   0.780   3.005   5.492
  279POPC   C4A 3897   0.672   2.769   5.803
  279POPC   C1B 3898   0.216   2.362   4.795
  279POPC   C2B 3899   0.119   2.498   5.194
  279POPC   C3B 3900   0.178   2.704   5.570
  279POPC   C4B 3901   0.244   2.525   5.969
  280POPC   NC3 3902  11.123   3.617   3.808
  280POPC   PO4 3903   0.017   3.120   3.668
  280POPC   GL1 3904  11.448   3.515   4.150
  280POPC   GL2 3905  11.128   3.475   4.303
  280POPC   C1A 3906  11.497   3.621   4.654
  280POPC   D2A 3907  11.495   3.371   5.063
  280POPC   C3A 3908  11.498   3.590   5.423
  280POPC   C4A 3909  11.366   3.504   5.852
  280POPC   C1B 3910  11.007   3.704   4.644
  280POPC   C2B 3911  11.041   3.551   5.033
  280POPC   C3B 3912  10.999   3.496   5.441
  280POPC   C4B 3913  10.745   3.773   5.583
  281POPC   NC3 3914   3.356  10.201   4.154
  281POPC   PO4 3915   3.718  10.806   4.131
  281POPC   GL1 3916   3.411  10.661   4.416
  281POPC   GL2 3917   3.413  10.375   4.619
  281POPC   C1A 3918   3.257  10.837   4.755
  281POPC   D2A 3919   3.385  10.636   5.103
  281POPC   C3A 3920   3.284  10.743   5.517
  281POPC   C4A 3921   3.364  10.536   5.929
  281POPC   C1B 3922   3.717  10.149   4.800
  281POPC   C2B 3923   3.518  10.136   5.127
  281POPC   C3B 3924   3.516  10.300   5.489
  281POPC   C4B 3925   3.770  10.184   5.800
  282POPC   NC3 3926   3.735   0.087   4.058
  282POPC   PO4 3927   3.918   0.700   3.927
  282POPC   GL1 3928   3.707   0.575   4.299
  282POPC   GL2 3929   3.383   0.442   4.256
  282POPC   C1A 3930   3.834   0.327   4.677
  282POPC   D2A 3931   3.688   0.014   5.011
  282POPC   C3A 3932   3.615   0.150   5.444
  282POPC   C4A 3933   3.710   0.297   5.861
  282POPC   C1B 3934   3.316   0.305   4.689
  282POPC   C2B 3935   3.506   0.510   5.064
  282POPC   C3B 3936   3.433   0.659   5.498
  282POPC   C4B 3937   3.198   0.361   5.756
  283POPC   NC3 3938   4.140   9.699   4.024
  283POPC   PO4 3939   4.831   9.618   3.856
  283POPC   GL1 3940   4.559   9.545   4.298
  283POPC   GL2 3941   4.287   9.766   4.481
  283POPC   C1A 3942   4.491   9.459   4.793
  283POPC   D2A 3943   4.710   9.448   5.212
  283POPC   C3A 3944   4.517   9.463   5.649
  283POPC   C4A 3945   4.623   9.656   6.083
  283POPC   C1B 3946   4.019   9.710   4.803
  283POPC   C2B 3947   3.889   9.809   5.181
  283POPC   C3B 3948   3.980   9.730   5.587
  283POPC   C4B 3949   4.309   9.923   5.777
  284POPC   NC3 3950  10.308  10.270   3.975
  284POPC   PO4 3951  10.070  10.901   3.949
  284POPC   GL1 3952  10.064  10.665   4.297
  284POPC   GL2 3953  10.428  10.595   4.376
  284POPC   C1A 3954  10.108  10.832   4.704
  284POPC   D2A 3955  10.395  10.632   4.936
  284POPC   C3A 3956  10.382  10.735   5.329
  284POPC   C4A 3957  10.427  10.771   5.740
  284POPC   C1B 3958  10.531  10.229   4.645
  284POPC   C2B 3959  10.589  10.174   5.090
  284POPC   C3B 3960  10.522  10.261   5.503
  284POPC   C4B 3961  10.802  10.216   5.807
  285POPC   NC3 3962   0.968   5.014   3.955
  285POPC   PO4 3963   0.390   5.356   4.002
  285POPC   GL1 3964   0.749   5.335   4.335
  285POPC   GL2 3965   1.110   5.179   4.408
  285POPC   C1A 3966   0.889   5.483   4.739
  285POPC   D2A 3967   1.148   5.178   4.978
  285POPC   C3A 3968   1.204   5.223   5.430
  285POPC   C4A 3969   0.888   5.100   5.711
  285POPC   C1B 3970   1.382   4.868   4.630
  285POPC   C2B 3971   1.471   4.786   5.086
  285POPC   C3B 3972   1.368   4.727   5.536
  285POPC   C4B 3973   1.492   4.984   5.867
  286POPC   NC3 3974   7.212   9.817   4.016
  286POPC   PO4 3975   7.917   9.888   3.908
  286POPC   GL1 3976   7.681   9.975   4.345
  286POPC   GL2 3977   7.464   9.682   4.421
  286POPC   C1A 3978   7.675   9.868   4.837
  286POPC   D2A 3979   7.338   9.884   5.164
  286POPC   C3A 3980   7.492  10.015   5.575
  286POPC   C4A 3981   7.503   9.721   5.882
  286POPC   C1B 3982   7.294   9.502   4.819
  286POPC   C2B 3983   7.299   9.379   5.270
  286POPC   C3B 3984   7.101   9.607   5.578
  286POPC   C4B 3985   6.716   9.503   5.797
  287POPC   NC3 3986   7.373   0.247   3.859
  287POPC   PO4 3987   7.677   0.882   3.866
  287POPC   GL1 3988   7.750   0.680   4.273
  287POPC   GL2 3989   7.437   0.513   4.300
  287POPC   C1A 3990   7.744   0.492   4.733
  287POPC   D2A 3991   7.724   0.250   5.191
  287POPC   C3A 3992   7.689   0.593   5.564
  287POPC   C4A 3993   7.724   0.677   6.077
  287POPC   C1B 3994   7.208   0.606   4.666
  287POPC   C2B 3995   7.365   0.596   5.082
  287POPC   C3B 3996   7.259   0.340   5.419
  287POPC   C4B 3997   7.088   0.653   5.679
  288POPC   NC3 3998   5.018   9.221   4.018
  288POPC   PO4 3999   4.827   8.622   3.765
  288POPC   GL1 4000   4.743   8.705   4.248
  288POPC   GL2 4001   4.713   9.047   4.377
  288POPC   C1A 4002   4.677   8.524   4.711
  288POPC   D2A 4003   4.947   8.573   5.093
  288POPC   C3A 4004   4.881   8.647   5.543
  288POPC   C4A 4005   5.016   8.768   5.981
  288POPC   C1B 4006   5.009   8.913   4.710
  288POPC   C2B 4007   5.048   9.065   5.155
  288POPC   C3B 4008   4.982   9.174   5.589
  288POPC   C4B 4009   5.366   9.137   5.833
  289POPC   NC3 4010   5.049   1.260   3.921
  289POPC   PO4 4011   4.603   0.742   4.094
  289POPC   GL1 4012   4.858   0.778   4.430
  289POPC   GL2 4013   5.080   1.028   4.372
  289POPC   C1A 4014   4.967   0.803   4.856
  289POPC   D2A 4015   5.075   1.095   5.099
  289POPC   C3A 4016   4.957   0.937   5.443
  289POPC   C4A 4017   5.081   0.804   5.833
  289POPC   C1B 4018   5.148   1.404   4.673
  289POPC   C2B 4019   4.944   1.577   5.072
  289POPC   C3B 4020   5.109   1.460   5.491
  289POPC   C4B 4021   5.433   1.522   5.773
  290POPC   NC3 4022   4.367   7.530   4.164
  290POPC   PO4 4023   3.795   7.605   4.235
  290POPC   GL1 4024   4.060   7.432   4.562
  290POPC   GL2 4025   4.199   7.119   4.453
  290POPC   C1A 4026   4.122   7.471   4.990
  290POPC   D2A 4027   4.268   7.797   5.256
  290POPC   C3A 4028   4.177   7.670   5.673
  290POPC   C4A 4029   3.985   7.275   5.817
  290POPC   C1B 4030   4.499   7.151   4.797
  290POPC   C2B 4031   4.595   7.374   5.198
  290POPC   C3B 4032   4.504   7.280   5.635
  290POPC   C4B 4033   4.345   6.900   5.854
  291POPC   NC3 4034   0.392   0.545   3.862
  291POPC   PO4 4035   0.089  11.497   3.781
  291POPC   GL1 4036   0.196   0.128   4.265
  291POPC   GL2 4037   0.359   0.460   4.352
  291POPC   C1A 4038   0.565   0.112   4.625
  291POPC   D2A 4039   0.754   0.286   5.016
  291POPC   C3A 4040   0.656   0.110   5.442
  291POPC   C4A 4041   0.933   0.237   5.766
  291POPC   C1B 4042   0.555   0.653   4.699
  291POPC   C2B 4043   0.346   0.656   5.107
  291POPC   C3B 4044   0.395   0.548   5.552
  291POPC   C4B 4045   0.372   0.636   5.982
  292POPC   NC3 4046  10.359   2.247   3.500
  292POPC   PO4 4047  10.184   1.680   3.908
  292POPC   GL1 4048  10.179   2.017   4.224
  292POPC   GL2 4049  10.480   2.207   4.273
  292POPC   C1A 4050  10.191   2.058   4.688
  292POPC   D2A 4051  10.355   1.874   5.061
  292POPC   C3A 4052  10.137   2.039   5.401
  292POPC   C4A 4053  10.133   2.154   5.792
  292POPC   C1B 4054  10.521   1.733   4.484
  292POPC   C2B 4055  10.756   1.625   4.871
  292POPC   C3B 4056  10.748   1.610   5.343
  292POPC   C4B 4057  10.446   1.738   5.706
  293POPC   NC3 4058   1.365   1.684   4.044
  293POPC   PO4 4059   1.476   2.235   3.765
  293POPC   GL1 4060   1.395   2.249   4.228
  293POPC   GL2 4061   1.068   2.108   4.250
  293POPC   C1A 4062   1.491   2.221   4.703
  293POPC   D2A 4063   1.688   2.249   5.144
  293POPC   C3A 4064   1.391   2.085   5.470
  293POPC   C4A 4065   1.347   2.030   5.914
  293POPC   C1B 4066   1.101   1.869   4.645
  293POPC   C2B 4067   1.065   2.042   5.051
  293POPC   C3B 4068   0.860   1.928   5.421
  293POPC   C4B 4069   1.033   1.681   5.750
  294POPC   NC3 4070   0.461  10.511   3.746
  294POPC   PO4 4071   0.783  10.131   4.118
  294POPC   GL1 4072   0.740  10.520   4.316
  294POPC   GL2 4073   0.396  10.581   4.259
  294POPC   C1A 4074   0.715  10.628   4.741
  294POPC   D2A 4075   0.717  10.265   4.998
  294POPC   C3A 4076   0.706  10.420   5.371
  294POPC   C4A 4077   0.643  10.350   5.770
  294POPC   C1B 4078   0.337  10.311   4.636
  294POPC   C2B 4079   0.187  10.414   5.062
  294POPC   C3B 4080   0.216  10.457   5.520
  294POPC   C4B 4081   0.192  10.287   5.972
  295POPC   NC3 4082   2.922   2.830   3.765
  295POPC   PO4 4083   2.403   2.463   3.855
  295POPC   GL1 4084   2.609   2.536   4.220
  295POPC   GL2 4085   2.681   2.837   4.352
  295POPC   C1A 4086   2.540   2.431   4.623
  295POPC   D2A 4087   2.589   2.670   4.965
  295POPC   C3A 4088   2.737   2.447   5.313
  295POPC   C4A 4089   2.700   2.562   5.738
  295POPC   C1B 4090   2.891   3.002   4.717
  295POPC   C2B 4091   2.980   2.888   5.165
  295POPC   C3B 4092   2.872   3.023   5.566
  295POPC   C4B 4093   3.026   2.950   5.977
  296POPC   NC3 4094   1.211  10.982   3.951
  296POPC   PO4 4095   0.886   0.128   3.996
  296POPC   GL1 4096   1.074  11.380   4.316
  296POPC   GL2 4097   1.152  11.048   4.453
  296POPC   C1A 4098   1.106  11.450   4.755
  296POPC   D2A 4099   1.358  11.299   5.090
  296POPC   C3A 4100   1.130  11.387   5.435
  296POPC   C4A 4101   0.975  11.210   5.807
  296POPC   C1B 4102   1.456  10.829   4.746
  296POPC   C2B 4103   1.552  10.820   5.205
  296POPC   C3B 4104   1.377  10.958   5.580
  296POPC   C4B 4105   1.408  10.866   6.004
  297POPC   NC3 4106   9.933   8.087   4.125
  297POPC   PO4 4107   9.311   7.864   3.917
  297POPC   GL1 4108   9.510   7.870   4.310
  297POPC   GL2 4109   9.461   8.239   4.294
  297POPC   C1A 4110   9.670   7.799   4.735
  297POPC   D2A 4111   9.823   7.587   5.152
  297POPC   C3A 4112   9.594   7.796   5.495
  297POPC   C4A 4113   9.703   8.167   5.681
  297POPC   C1B 4114   9.440   8.329   4.735
  297POPC   C2B 4115   9.448   8.166   5.169
  297POPC   C3B 4116   9.232   8.287   5.551
  297POPC   C4B 4117   9.070   8.208   5.970
  298POPC   NC3 4118   6.456  11.356   3.932
  298POPC   PO4 4119   6.493  10.732   3.939
  298POPC   GL1 4120   6.555  10.969   4.323
  298POPC   GL2 4121   6.539  11.325   4.417
  298POPC   C1A 4122   6.415  10.939   4.744
  298POPC   D2A 4123   6.606  11.063   5.116
  298POPC   C3A 4124   6.374  10.903   5.447
  298POPC   C4A 4125   6.558  10.927   5.861
  298POPC   C1B 4126   6.467  11.450   4.795
  298POPC   C2B 4127   6.514   0.060   5.167
  298POPC   C3B 4128   6.580  11.365   5.543
  298POPC   C4B 4129   6.432   0.101   5.879
  299POPC   NC3 4130  11.079   6.928   3.936
  299POPC   PO4 4131  10.904   6.244   3.764
  299POPC   GL1 4132  10.964   6.493   4.214
  299POPC   GL2 4133  11.213   6.698   4.343
  299POPC   C1A 4134  10.889   6.543   4.712
  299POPC   D2A 4135  10.719   6.405   5.139
  299POPC   C3A 4136  10.855   6.639   5.535
  299POPC   C4A 4137  10.960   6.463   5.971
  299POPC   C1B 4138  11.396   6.530   4.691
  299POPC   C2B 4139   0.025   6.485   5.084
  299POPC   C3B 4140  11.352   6.579   5.442
  299POPC   C4B 4141  11.369   6.754   5.844
  300POPC   NC3 4142  11.493   1.134   3.855
  300POPC   PO4 4143  10.833   0.998   3.913
  300POPC   GL1 4144  11.094   0.913   4.260
  300POPC   GL2 4145  11.363   1.147   4.333
  300POPC   C1A 4146  11.065   0.923   4.708
  300POPC   D2A 4147  11.015   1.230   5.036
  300POPC   C3A 4148  10.998   1.136   5.472
  300POPC   C4A 4149  11.065   0.900   5.864
  300POPC   C1B 4150  11.397   1.394   4.700
  300POPC   C2B 4151  11.395   1.566   5.125
  300POPC   C3B 4152  11.450   1.389   5.541
  300POPC   C4B 4153  11.311   1.319   5.984
  301POPC   NC3 4154  10.699   5.240   3.973
  301POPC   PO4 4155  10.313   4.785   3.778
  301POPC   GL1 4156  10.270   4.872   4.250
  301POPC   GL2 4157  10.424   5.175   4.405
  301POPC   C1A 4158  10.277   4.816   4.733
  301POPC   D2A 4159  10.137   4.723   5.167
  301POPC   C3A 4160  10.416   4.725   5.548
  301POPC   C4A 4161  10.223   4.883   5.943
  301POPC   C1B 4162  10.597   5.223   4.837
  301POPC   C2B 4163  10.555   5.130   5.250
  301POPC   C3B 4164  10.232   5.236   5.541
  301POPC   C4B 4165  10.268   5.396   5.947
  302POPC   NC3 4166   9.654   1.016   3.982
  302POPC   PO4 4167   9.392   1.607   3.918
  302POPC   GL1 4168   9.551   1.422   4.317
  302POPC   GL2 4169   9.431   1.065   4.430
  302POPC   C1A 4170   9.501   1.434   4.774
  302POPC   D2A 4171   9.707   1.236   5.111
  302POPC   C3A 4172   9.481   1.170   5.513
  302POPC   C4A 4173   9.479   1.338   5.949
  302POPC   C1B 4174   9.864   1.004   4.624
  302POPC   C2B 4175  10.082   0.864   4.999
  302POPC   C3B 4176  10.035   1.019   5.436
  302POPC   C4B 4177   9.809   0.976   5.853
  303POPC   NC3 4178   9.594  10.857   4.022
  303POPC   PO4 4179   9.855  10.206   3.932
  303POPC   GL1 4180   9.849  10.177   4.323
  303POPC   GL2 4181   9.599  10.451   4.348
  303POPC   C1A 4182  10.023  10.321   4.699
  303POPC   D2A 4183   9.876  10.552   5.062
  303POPC   C3A 4184  10.023  10.379   5.433
  303POPC   C4A 4185   9.969  10.540   5.818
  303POPC   C1B 4186   9.503  10.211   4.706
  303POPC   C2B 4187   9.408  10.339   5.122
  303POPC   C3B 4188   9.543  10.501   5.519
  303POPC   C4B 4189   9.497  10.368   5.951
  304POPC   NC3 4190   6.626   1.662   3.722
  304POPC   PO4 4191   6.279   1.185   3.853
  304POPC   GL1 4192   6.512   1.074   4.321
  304POPC   GL2 4193   6.844   0.823   4.340
  304POPC   C1A 4194   6.507   1.239   4.796
  304POPC   D2A 4195   6.598   1.564   5.157
  304POPC   C3A 4196   6.472   1.632   5.625
  304POPC   C4A 4197   6.685   1.628   6.054
  304POPC   C1B 4198   6.707   0.760   4.739
  304POPC   C2B 4199   6.749   0.924   5.158
  304POPC   C3B 4200   6.640   0.864   5.565
  304POPC   C4B 4201   6.471   1.161   5.827
  305POPC   NC3 4202  10.907   0.491   4.024
  305POPC   PO4 4203   0.021   0.702   4.068
  305POPC   GL1 4204  11.325   0.479   4.428
  305POPC   GL2 4205  10.958   0.454   4.526
  305POPC   C1A 4206  11.300   0.486   4.895
  305POPC   D2A 4207  11.337   0.854   5.139
  305POPC   C3A 4208  11.440   0.842   5.522
  305POPC   C4A 4209  11.417   0.545   5.794
  305POPC   C1B 4210  10.741   0.210   4.879
  305POPC   C2B 4211  10.808   0.142   5.262
  305POPC   C3B 4212  11.160   0.344   5.397
  305POPC   C4B 4213  10.932   0.429   5.716
  306POPC   NC3 4214   0.706   9.713   3.954
  306POPC   PO4 4215   0.300   9.272   3.949
  306POPC   GL1 4216   0.570   9.220   4.332
  306POPC   GL2 4217   0.787   9.518   4.435
  306POPC   C1A 4218   0.614   9.184   4.808
  306POPC   D2A 4219   0.531   9.467   5.152
  306POPC   C3A 4220   0.616   9.486   5.591
  306POPC   C4A 4221   0.328   9.548   5.921
  306POPC   C1B 4222   0.587   9.820   4.747
  306POPC   C2B 4223   0.336   9.937   5.139
  306POPC   C3B 4224   0.417   9.955   5.583
  306POPC   C4B 4225   0.642   9.918   6.010
  307POPC   NC3 4226  10.782   6.033   4.162
  307POPC   PO4 4227  10.188   5.819   3.902
  307POPC   GL1 4228  10.448   5.658   4.242
  307POPC   GL2 4229  10.290   5.907   4.418
  307POPC   C1A 4230  10.675   5.697   4.689
  307POPC   D2A 4231  10.824   5.836   5.094
  307POPC   C3A 4232  10.552   5.705   5.391
  307POPC   C4A 4233  10.542   5.854   5.806
  307POPC   C1B 4234  10.174   5.583   4.718
  307POPC   C2B 4235  10.093   5.599   5.171
  307POPC   C3B 4236  10.070   5.758   5.611
  307POPC   C4B 4237  10.088   6.119   5.949
  308POPC   NC3 4238  10.583  11.231   3.972
  308POPC   PO4 4239   9.924  11.471   3.765
  308POPC   GL1 4240  10.147  11.425   4.193
  308POPC   GL2 4241  10.300  11.117   4.345
  308POPC   C1A 4242  10.100  11.393   4.694
  308POPC   D2A 4243   9.981  11.436   5.148
  308POPC   C3A 4244  10.177  11.184   5.478
  308POPC   C4A 4245  10.040  11.064   5.902
  308POPC   C1B 4246  10.591  11.054   4.666
  308POPC   C2B 4247  10.519  11.189   5.068
  308POPC   C3B 4248  10.708  11.147   5.461
  308POPC   C4B 4249  10.547  11.278   5.828
  309POPC   NC3 4250   0.614   4.031   3.946
  309POPC   PO4 4251   0.232   4.549   4.074
  309POPC   GL1 4252   0.270   4.244   4.322
  309POPC   GL2 4253   0.595   4.259   4.388
  309POPC   C1A 4254   0.215   4.111   4.705
  309POPC   D2A 4255   0.166   4.355   5.059
  309POPC   C3A 4256   0.237   4.145   5.431
  309POPC   C4A 4257   0.215   4.387   5.790
  309POPC   C1B 4258   0.520   4.518   4.727
  309POPC   C2B 4259   0.662   4.289   5.078
  309POPC   C3B 4260   0.843   4.041   5.385
  309POPC   C4B 4261   0.652   4.120   5.778
  310POPC   NC3 4262   9.948   4.571   3.634
  310POPC   PO4 4263   9.395   4.408   3.979
  310POPC   GL1 4264   9.751   4.462   4.269
  310POPC   GL2 4265   9.804   4.161   4.466
  310POPC   C1A 4266   9.796   4.591   4.727
  310POPC   D2A 4267   9.799   4.308   5.109
  310POPC   C3A 4268   9.708   4.509   5.505
  310POPC   C4A 4269   9.704   4.739   5.926
  310POPC   C1B 4270   9.451   4.199   4.737
  310POPC   C2B 4271   9.227   4.275   5.134
  310POPC   C3B 4272   9.252   4.139   5.558
  310POPC   C4B 4273   9.403   4.334   5.886
  311POPC   NC3 4274   6.360  10.332   4.104
  311POPC   PO4 4275   6.971  10.212   3.924
  311POPC   GL1 4276   6.837  10.531   4.283
  311POPC   GL2 4277   6.525  10.483   4.535
  311POPC   C1A 4278   6.893  10.718   4.743
  311POPC   D2A 4279   6.642  10.563   5.124
  311POPC   C3A 4280   6.831  10.639   5.554
  311POPC   C4A 4281   6.760  10.414   5.980
  311POPC   C1B 4282   6.167  10.466   4.837
  311POPC   C2B 4283   6.065  10.432   5.293
  311POPC   C3B 4284   6.343  10.436   5.670
  311POPC   C4B 4285   6.272  10.367   6.116
  312POPC   NC3 4286   8.181   0.596   3.924
  312POPC   PO4 4287   7.813   0.027   3.859
  312POPC   GL1 4288   7.912   0.171   4.302
  312POPC   GL2 4289   8.219   0.372   4.367
  312POPC   C1A 4290   8.051   0.096   4.752
  312POPC   D2A 4291   8.353   0.077   5.087
  312POPC   C3A 4292   8.127   0.089   5.513
  312POPC   C4A 4293   7.973   0.297   5.853
  312POPC   C1B 4294   8.316   0.531   4.767
  312POPC   C2B 4295   8.127   0.531   5.110
  312POPC   C3B 4296   8.295   0.572   5.482
  312POPC   C4B 4297   8.131   0.796   5.787
  313POPC   NC3 4298   8.222   1.273   3.920
  313POPC   PO4 4299   8.462   0.816   4.223
  313POPC   GL1 4300   8.149   1.014   4.415
  313POPC   GL2 4301   8.158   1.384   4.408
  313POPC   C1A 4302   8.232   1.093   4.837
  313POPC   D2A 4303   8.208   1.003   5.241
  313POPC   C3A 4304   8.453   1.119   5.557
  313POPC   C4A 4305   8.258   1.467   5.715
  313POPC   C1B 4306   7.838   1.399   4.723
  313POPC   C2B 4307   7.701   1.198   5.109
  313POPC   C3B 4308   7.823   1.130   5.525
  313POPC   C4B 4309   7.871   1.202   5.946
  314POPC   NC3 4310   9.349   3.457   4.048
  314POPC   PO4 4311   8.628   3.146   4.038
  314POPC   GL1 4312   8.936   3.300   4.360
  314POPC   GL2 4313   8.945   3.645   4.407
  314POPC   C1A 4314   8.874   3.364   4.837
  314POPC   D2A 4315   8.992   3.279   5.276
  314POPC   C3A 4316   8.722   3.333   5.688
  314POPC   C4A 4317   8.822   3.523   6.089
  314POPC   C1B 4318   9.113   3.819   4.825
  314POPC   C2B 4319   9.007   3.792   5.265
  314POPC   C3B 4320   8.793   3.901   5.656
  314POPC   C4B 4321   8.983   4.020   6.034
  315POPC   NC3 4322   6.794  10.537   3.657
  315POPC   PO4 4323   7.456  10.607   3.698
  315POPC   GL1 4324   7.373  10.341   4.182
  315POPC   GL2 4325   7.304  10.568   4.480
  315POPC   C1A 4326   7.247  10.104   4.634
  315POPC   D2A 4327   7.114  10.340   5.032
  315POPC   C3A 4328   7.035  10.184   5.475
  315POPC   C4A 4329   7.234  10.397   5.844
  315POPC   C1B 4330   7.638  10.417   4.743
  315POPC   C2B 4331   7.620  10.301   5.132
  315POPC   C3B 4332   7.511  10.537   5.441
  315POPC   C4B 4333   7.730  10.477   5.797
  316POPC   NC3 4334   1.356   2.663   3.839
  316POPC   PO4 4335   0.805   2.954   3.947
  316POPC   GL1 4336   0.965   2.628   4.232
  316POPC   GL2 4337   1.286   2.751   4.328
  316POPC   C1A 4338   1.025   2.433   4.659
  316POPC   D2A 4339   1.247   2.552   5.053
  316POPC   C3A 4340   0.984   2.508   5.414
  316POPC   C4A 4341   0.927   2.283   5.795
  316POPC   C1B 4342   1.128   2.936   4.686
  316POPC   C2B 4343   1.136   3.069   5.121
  316POPC   C3B 4344   1.301   2.899   5.508
  316POPC   C4B 4345   1.376   2.520   5.743
  317POPC   NC3 4346   9.761   1.889   3.947
  317POPC   PO4 4347   9.223   2.350   3.925
  317POPC   GL1 4348   9.468   2.221   4.249
  317POPC   GL2 4349   9.322   1.910   4.320
  317POPC   C1A 4350   9.507   2.308   4.697
  317POPC   D2A 4351   9.426   2.043   5.059
  317POPC   C3A 4352   9.575   2.173   5.483
  317POPC   C4A 4353   9.473   2.257   5.938
  317POPC   C1B 4354   9.707   1.869   4.587
  317POPC   C2B 4355   9.842   1.766   4.997
  317POPC   C3B 4356   9.608   1.670   5.397
  317POPC   C4B 4357   9.714   1.805   5.813
  318POPC   NC3 4358   3.367   5.811   3.810
  318POPC   PO4 4359   3.627   5.325   3.823
  318POPC   GL1 4360   3.475   5.101   4.232
  318POPC   GL2 4361   3.165   4.883   4.247
  318POPC   C1A 4362   3.642   5.081   4.682
  318POPC   D2A 4363   3.762   5.222   5.117
  318POPC   C3A 4364   3.435   5.192   5.442
  318POPC   C4A 4365   3.426   4.944   5.818
  318POPC   C1B 4366   3.245   4.761   4.690
  318POPC   C2B 4367   3.489   4.779   5.099
  318POPC   C3B 4368   3.789   4.817   5.459
  318POPC   C4B 4369   3.831   4.584   5.855
  319W        W 4370  11.180  10.841   8.517
  320W        W 4371   8.594   4.368   3.157
  321W        W 4372   5.727   3.534   8.135
  322W        W 4373   6.751   6.834  11.804
  323W        W 4374   7.618   8.431   9.849
  324W        W 4375   2.192   9.667   8.636
  325W        W 4376   5.980   3.878   8.546
  326W        W 4377   0.959   5.092   2.235
  327W        W 4378   3.695   0.818   3.131
  328W        W 4379   9.286   0.752  11.236
  329W        W 4380   7.613   6.102   8.331
  330W        W 4381   8.678   5.496   8.593
  331W        W 4382  10.940   9.086   9.077
  332W        W 4383   9.789   9.394   9.118
  333W        W 4384  10.456   6.554   2.991
  334W        W 4385   7.782  10.867   2.274
  335W        W 4386  10.262   6.658  10.849
  336W        W 4387   7.493   1.368   0.149
  337W        W 4388   5.141   6.454   0.823
  338W        W 4389   0.747   4.372  11.650
  339W        W 4390   0.124   8.142  10.785
  340W        W 4391   7.992   2.323   2.938
  341W        W 4392   4.064  10.745  11.496
  342W        W 4393   3.188   7.610   9.981
  343W        W 4394   1.443   0.903   1.893
  344W        W 4395   9.696   6.618   9.995
  345W        W 4396   7.233   8.016   0.754
  346W        W 4397  10.999   5.436  10.549
  347W        W 4398   6.678   0.759   1.756
  348W        W 4399   3.253   7.022   1.760
  349W        W 4400   5.543   3.603   9.479
  350W        W 4401   1.844   9.475  11.777
  351W        W 4402   4.770   2.836   0.513
  352W        W 4403   9.990  11.417   3.209
  353W        W 4404   8.618   3.413   2.154
  354W        W 4405   1.526   7.582  10.023
  355W        W 4406   0.394   8.522  11.529
  356W        W 4407   0.967   6.979   8.247
  357W        W 4408   2.464   9.923   0.353
  358W        W 4409   6.413   3.633   8.761
  359W        W 4410   7.505   9.527   8.997
  360W        W 4411  10.635   5.069  11.985
  361W        W 4412   6.119   8.451  10.384
  362W        W 4413   1.094   1.402   9.780
  363W        W 4414   6.517   2.921  11.646
  364W        W 4415   2.294  10.832   1.370
  365W        W 4416   1.828   5.524   2.480
  366W        W 4417   9.413   8.850   3.024
  367W        W 4418   4.625  10.766   2.797
  368W        W 4419   5.205   5.459   1.813
  369W        W 4420   8.464   6.955   3.066
  370W        W 4421   7.610   6.583   9.497
  371W        W 4422   5.561   2.618   1.485
  372W        W 4423  11.150  10.514   2.869
  373W        W 4424   7.741   9.482   3.544
  374W        W 4425   5.575   6.662  10.537
  375W        W 4426   1.406   9.911   0.476
  376W        W 4427   9.842   4.746   0.728
  377W        W 4428   7.605   5.218  10.095
  378W        W 4429   2.232   3.707   2.327
  379W        W 4430   1.449   8.117   2.737
  380W        W 4431   3.751   3.730   1.274
  381W        W 4432   9.320   2.458   2.481
  382W        W 4433   5.143   3.214   1.337
  383W        W 4434   5.663   0.379  11.107
  384W        W 4435   5.388   6.049   9.828
  385W        W 4436   4.820   1.158   3.110
  386W        W 4437   9.410   4.623  11.953
  387W        W 4438   4.970  10.557  10.441
  388W        W 4439   8.631   9.876   2.567
  389W        W 4440  11.179   2.648   8.802
  390W        W 4441   2.689   5.939   1.816
  391W        W 4442   2.963   8.040   9.268
  392W        W 4443   2.716   1.978  11.763
  393W        W 4444   0.849   9.348   2.630
  394W        W 4445   5.403   4.470   3.947
  395W        W 4446   2.721   8.604   3.238
  396W        W 4447   1.727   7.929   3.539
  397W        W 4448   5.193   3.653   1.853
  398W        W 4449   6.951   7.558   1.324
  399W        W 4450   3.092   7.455   2.513
  400W        W 4451   3.777   0.486  10.685
  401W        W 4452  11.401   2.568  10.854
  402W        W 4453   5.381  10.841  10.583
  403W        W 4454   1.430   9.156   0.667
  404W        W 4455   8.685  10.512  11.721
  405W        W 4456   4.989   2.400   8.126
  406W        W 4457   3.150   6.575   1.482
  407W        W 4458   0.223   6.546  11.493
  408W        W 4459   3.320   4.758  11.062
  409W        W 4460  10.359   4.149   1.238
  410W        W 4461   3.567   5.546  11.290
  411W        W 4462   5.952  10.413  10.966
  412W        W 4463   7.601   5.081  11.922
  413W        W 4464   2.761   9.181   3.473
  414W        W 4465   6.477  10.135   3.630
  415W        W 4466   3.301   3.395   0.459
  416W        W 4467   8.218   9.059  11.274
  417W        W 4468   2.334   2.274   9.144
  418W        W 4469   8.978   5.391  11.554
  419W        W 4470   5.239   2.606  10.783
  420W        W 4471   9.995   6.632   2.770
  421W        W 4472   6.962   4.649  10.745
  422W        W 4473   4.283   6.985   0.710
  423W        W 4474  11.307   6.056  10.391
  424W        W 4475   1.289   6.474   0.182
  425W        W 4476   9.040   8.897   0.522
  426W        W 4477   6.451   4.048   9.140
  427W        W 4478   2.284   9.668  11.942
  428W        W 4479  10.996   7.474   1.466
  429W        W 4480  10.024  10.775  10.412
  430W        W 4481   3.933   0.166  11.095
  431W        W 4482   7.066   7.524   0.297
  432W        W 4483   7.826   0.874   2.637
  433W        W 4484   7.083   0.252  11.527
  434W        W 4485   8.607   2.256  11.864
  435W        W 4486   4.213   5.706   0.340
  436W        W 4487   4.256   3.766   1.378
  437W        W 4488   5.540   1.954   9.451
  438W        W 4489   8.433   7.113   1.650
  439W        W 4490   7.572   1.698   3.418
  440W        W 4491  10.018  10.826   1.299
  441W        W 4492   8.025   4.108   1.190
  442W        W 4493   5.601   9.654   9.438
  443W        W 4494   1.239   6.504   1.145
  444W        W 4495   9.460   7.921   2.841
  445W        W 4496   6.996  11.297   2.811
  446W        W 4497   5.484   4.177   2.254
  447W        W 4498   2.254   2.783   8.903
  448W        W 4499   0.955  10.892   9.842
  449W        W 4500   2.831   7.621   1.760
  450W        W 4501   4.281  11.146   3.477
  451W        W 4502   4.720   0.773  11.931
  452W        W 4503   7.683   3.690  10.443
  453W        W 4504  10.863   8.838   1.458
  454W        W 4505  10.443   0.576   1.407
  455W        W 4506   3.202   8.113   9.751
  456W        W 4507   3.150   1.639   2.485
  457W        W 4508   9.318   7.549  10.789
  458W        W 4509   2.943  11.189   2.219
  459W        W 4510   7.780   9.277  11.719
  460W        W 4511   9.530   2.603   0.439
  461W        W 4512   7.062   1.698   0.201
  462W        W 4513   4.156   8.762   8.940
  463W        W 4514   0.892   1.367   0.030
  464W        W 4515   7.153   8.871   3.172
  465W        W 4516   3.145   5.665   9.435
  466W        W 4517  10.003   7.077   0.503
  467W        W 4518   5.527   8.414   9.943
  468W        W 4519   0.670   0.957   0.307
  469W        W 4520   1.106   9.496   0.372
  470W        W 4521   7.084   4.320   0.875
  471W        W 4522   2.716  10.817   1.950
  472W        W 4523   4.331  10.776   0.027
  473W        W 4524   9.227  10.061  11.052
  474W        W 4525   3.198   6.465   8.903
  475W        W 4526   5.994   5.737  11.363
  476W        W 4527   5.916   6.051   9.818
  477W        W 4528   2.161   4.855   3.283
  478W        W 4529   9.570   1.062   9.608
  479W        W 4530  10.705   0.885  11.375
  480W        W 4531   4.726   0.646  11.025
  481W        W 4532   2.301   7.608   8.013
  482W        W 4533   2.480   4.821   8.323
  483W        W 4534   7.984   9.573   9.307
  484W        W 4535   3.764   2.550   8.715
  485W        W 4536   4.574   7.131  11.815
  486W        W 4537   3.842   9.037   8.585
  487W        W 4538   0.912   8.427   1.762
  488W        W 4539   9.461   6.518  10.430
  489W        W 4540   3.059   7.140   9.518
  490W        W 4541   5.098  10.739   9.957
  491W        W 4542   7.035   1.803  10.837
  492W        W 4543   5.110   2.329   3.238
  493W        W 4544   2.291   7.177   9.875
  494W        W 4545   3.154   1.832   3.773
  495W        W 4546   7.964   6.083   3.226
  496W        W 4547  11.443   3.405   2.746
  497W        W 4548   5.957   6.438   0.389
  498W        W 4549   4.107  11.271   2.149
  499W        W 4550   0.947   2.685   1.212
  500W        W 4551   5.511   2.726   3.264
  501W        W 4552   4.867   4.336   0.894
  502W        W 4553   9.711   3.360  10.672
  503W        W 4554   5.116   9.829   2.223
  504W        W 4555   6.135  10.817   9.997
  505W        W 4556   1.455   3.322   1.483
  506W        W 4557   7.222   0.831   9.297
  507W        W 4558   0.801   6.559   1.393
  508W        W 4559   9.857   8.476   0.650
  509W        W 4560   1.662   4.027   9.672
  510W        W 4561   4.505   5.288  11.230
  511W        W 4562  10.534  10.060   2.251
  512W        W 4563  11.424   4.715  11.898
  513W        W 4564   8.188   5.461   8.436
  514W        W 4565  10.855   9.338   1.580
  515W        W 4566   1.205   2.798   2.988
  516W        W 4567   7.448   6.575   8.513
  517W        W 4568   0.056   4.835   0.375
  518W        W 4569   2.756   8.579   0.351
  519W        W 4570   2.628   4.638   1.954
  520W        W 4571   4.652  10.237   0.931
  521W        W 4572   3.884   1.729   2.166
  522W        W 4573   7.571   2.411   2.678
  523W        W 4574   2.360   6.970  10.816
  524W        W 4575   6.339   9.528   9.683
  525W        W 4576   6.187   5.082  10.844
  526W        W 4577   3.153   8.648   9.873
  527W        W 4578   8.249   4.803   3.616
  528W        W 4579   8.866   8.554  11.256
  529W        W 4580   3.320   8.090   0.350
  530W        W 4581   7.445   2.679   1.836
  531W        W 4582   6.727   0.795   9.248
  532W        W 4583   9.739   7.548   1.321
  533W        W 4584   8.445   6.087   3.441
  534W        W 4585   0.918   5.598   9.564
  535W        W 4586   1.789  11.000  10.282
  536W        W 4587   4.943   0.081  10.320
  537W        W 4588   8.532   6.638   2.182
  538W        W 4589   1.300   7.482  10.894
  539W        W 4590   0.334   1.681   0.787
  540W        W 4591   5.634   2.809  11.028
  541W        W 4592   5.538   2.317   3.593
  542W        W 4593   6.658   8.702  11.185
  543W        W 4594   3.545   1.003   1.273
  544W        W 4595   7.427   1.302   0.934
  545W        W 4596   7.388   6.156   0.332
  546W        W 4597   0.952   8.582   8.480
  547W        W 4598  11.433   5.198   3.377
  548W        W 4599   9.166   6.106   8.179
  549W        W 4600   3.891  10.800  10.997
  550W        W 4601   0.846   7.900   1.965
  551W        W 4602  10.519   9.921   1.284
  552W        W 4603   5.613   7.150   1.699
  553W        W 4604   7.634  10.078   0.086
  554W        W 4605   2.653   7.582   0.277
  555W        W 4606   9.880   6.501   2.294
  556W        W 4607  10.946   6.486   9.618
  557W        W 4608  10.055   3.317   1.354
  558W        W 4609   1.514  11.348   0.000
  559W        W 4610   7.729   1.935   2.554
  560W        W 4611   9.433   7.036  10.734
  561W        W 4612   0.407   1.169   0.725
  562W        W 4613   5.649   7.949   2.811
  563W        W 4614   6.111  11.306   2.699
  564W        W 4615   1.195   6.573   0.658
  565W        W 4616  10.805  11.294   1.146
  566W        W 4617   4.608   7.086   9.849
  567W        W 4618  11.452   2.588   3.177
  568W        W 4619   5.561   4.170   8.661
  569W        W 4620   2.300   9.220   2.776
  570W        W 4621   2.480   8.165  11.808
  571W        W 4622   9.062  10.494  10.811
  572W        W 4623   0.981   1.868  11.990
  573W        W 4624   1.351   8.674   1.947
  574W        W 4625   6.483   7.167   3.117
  575W        W 4626   4.867   1.999   1.390
  576W        W 4627   9.876   9.789  10.372
  577W        W 4628   9.598   6.786   9.216
  578W        W 4629   1.117   5.681   0.505
  579W        W 4630   5.821  10.462   9.445
  580W        W 4631   8.017   0.571  11.424
  581W        W 4632   9.210   2.145   3.467
  582W        W 4633   6.396   5.734   2.223
  583W        W 4634   1.831   2.205   9.273
  584W        W 4635   9.467   3.195   3.602
  585W        W 4636   4.304   2.647  11.084
  586W        W 4637   5.688   8.696   9.548
  587W        W 4638  10.873   6.759  11.964
  588W        W 4639   8.174  10.969   0.747
  589W        W 4640   1.308   8.995  11.491
  590W        W 4641   2.158   1.810   2.683
  591W        W 4642   2.641   0.338   2.845
  592W        W 4643   3.231   3.720   0.051
  593W        W 4644   4.630   6.162   3.518
  594W        W 4645   9.419   4.356   9.855
  595W        W 4646   4.293   7.956  10.340
  596W        W 4647   0.820   8.918   1.378
  597W        W 4648   7.389   3.132   9.462
  598W        W 4649   5.102   9.504   9.433
  599W        W 4650   3.044   6.056  11.938
  600W        W 4651   0.503   8.561   2.009
  601W        W 4652   4.307   7.174   8.872
  602W        W 4653   9.908   1.976   1.660
  603W        W 4654   0.825   3.528   3.080
  604W        W 4655   2.744   9.363   9.910
  605W        W 4656   7.404   4.860  10.489
  606W        W 4657   4.806   6.634   1.209
  607W        W 4658   7.392   1.688  11.777
  608W        W 4659   9.435   3.152  11.494
  609W        W 4660   8.709   9.888   0.322
  610W        W 4661  10.323   9.457  10.004
  611W        W 4662   2.436   2.285  10.081
  612W        W 4663  10.760   9.528   8.799
  613W        W 4664   6.989   9.980   3.224
  614W        W 4665   3.509   5.093   3.365
  615W        W 4666   5.594   9.720   1.896
  616W        W 4667   5.563   2.435   9.231
  617W        W 4668   8.523  11.314   2.215
  618W        W 4669   6.293   7.047  10.472
  619W        W 4670   2.304   7.684  11.866
  620W        W 4671   1.414   2.813   1.965
  621W        W 4672   0.206   2.217   1.474
  622W        W 4673   4.115   6.355   8.594
  623W        W 4674   6.671   7.207  11.442
  624W        W 4675   0.239   5.355   1.491
  625W        W 4676   0.316   4.252   3.102
  626W        W 4677   3.793  10.237   0.180
  627W        W 4678   8.835   4.331   0.126
  628W        W 4679   1.380   1.024   2.783
  629W        W 4680   2.380   9.585  10.155
  630W        W 4681   7.883   9.312   0.771
  631W        W 4682  11.427   5.636  11.714
  632W        W 4683   5.692   8.500   1.383
  633W        W 4684   7.191  10.212   1.416
  634W        W 4685   2.802   9.577  11.522
  635W        W 4686   6.042   6.887   1.810
  636W        W 4687  10.991   7.425  11.381
  637W        W 4688   1.415   6.689   2.161
  638W        W 4689   3.592  10.435  10.462
  639W        W 4690   3.639   9.495   3.291
  640W        W 4691   0.727   6.747   9.070
  641W        W 4692   8.982   6.814   9.542
  642W        W 4693   8.657   6.633   1.671
  643W        W 4694  11.418   5.763   1.120
  644W        W 4695   3.624   1.825   2.653
  645W        W 4696  10.487   0.731   0.928
  646W        W 4697   1.812  10.166  11.284
  647W        W 4698   4.138   5.700  11.839
  648W        W 4699  11.283   7.457  11.791
  649W        W 4700   8.570   0.545  10.220
  650W        W 4701   6.235   9.765   0.366
  651W        W 4702   1.797   7.313   0.254
  652W        W 4703   4.086   0.447   1.416
  653W        W 4704   5.200   1.663  11.736
  654W        W 4705   8.108   7.119   9.967
  655W        W 4706   8.431   1.177  10.849
  656W        W 4707   5.104   4.463  11.219
  657W        W 4708   7.121   7.131   1.104
  658W        W 4709   0.786   1.885   2.323
  659W        W 4710   7.970   0.330   0.265
  660W        W 4711   5.146  10.026   3.139
  661W        W 4712   0.717   8.891  11.094
  662W        W 4713   5.182   1.843   3.141
  663W        W 4714   2.660   5.198   3.669
  664W        W 4715   5.748   3.160   2.124
  665W        W 4716   3.621   4.855   0.623
  666W        W 4717   8.929   3.753   0.735
  667W        W 4718   7.608   9.157   3.092
  668W        W 4719   7.458   8.150   2.064
  669W        W 4720   1.281  11.366  11.010
  670W        W 4721   0.994   3.036   9.671
  671W        W 4722   9.057   0.261  11.454
  672W        W 4723   5.790   5.750  11.849
  673W        W 4724   4.971  10.246  10.036
  674W        W 4725   3.583   7.027   9.614
  675W        W 4726   6.578  11.088  10.975
  676W        W 4727   9.589   5.501   9.445
  677W        W 4728   2.102   4.200  10.576
  678W        W 4729   7.448   4.226   1.928
  679W        W 4730   0.890   7.623   9.388
  680W        W 4731   2.460  10.363  10.078
  681W        W 4732   7.067  10.563   8.670
  682W        W 4733   7.173  11.144   0.407
  683W        W 4734   0.802   3.366  10.033
  684W        W 4735   4.708   6.169   0.801
  685W        W 4736   3.644   2.388  11.791
  686W        W 4737   2.195   6.239   2.975
  687W        W 4738   8.325   5.267   2.818
  688W        W 4739   8.806   3.793   9.068
  689W        W 4740  10.806   4.863   3.657
  690W        W 4741   5.831  10.554   0.184
  691W        W 4742   2.329  11.317   9.058
  692W        W 4743   5.694   1.795   1.005
  693W        W 4744   8.141   8.261   2.262
  694W        W 4745   2.298   1.719  11.921
  695W        W 4746   1.416   5.160   2.651
  696W        W 4747   5.490   2.656   0.948
  697W        W 4748   3.119   9.456   9.172
  698W        W 4749   2.985   4.135   0.221
  699W        W 4750   4.725   7.231   0.531
  700W        W 4751   9.969   0.786   3.468
  701W        W 4752  10.580   5.171   2.279
  702W        W 4753   8.070   4.609   9.449
  703W        W 4754   1.664   2.354   2.303
  704W        W 4755   9.272   3.270  10.927
  705W        W 4756   7.131   0.933  11.313
  706W        W 4757   9.596   8.970   0.855
  707W        W 4758   4.361   9.940  10.667
  708W        W 4759  10.658   3.204   0.680
  709W        W 4760   4.898   1.288   1.216
  710W        W 4761   1.263   9.759   9.813
  711W        W 4762   6.535   9.972   9.599
  712W        W 4763   2.185   8.639   1.630
  713W        W 4764   1.865   8.557   9.987
  714W        W 4765   9.343   9.494   2.286
  715W        W 4766   2.753   2.194   0.246
  716W        W 4767   3.119   3.166   1.796
  717W        W 4768  10.074   9.623   3.088
  718W        W 4769   0.244   0.571   0.123
  719W        W 4770   4.148   9.507  10.962
  720W        W 4771   5.087   9.401  11.065
  721W        W 4772   9.206   6.579  10.865
  722W        W 4773   8.154  10.019   9.063
  723W        W 4774   7.926   0.353  10.959
  724W        W 4775   8.062   1.451   1.871
  725W        W 4776   1.135   7.976  11.590
  726W        W 4777   7.177   3.674   1.237
  727W        W 4778   0.517   7.690   1.439
  728W        W 4779  10.329   0.242   1.015
  729W        W 4780   6.322   1.691   2.286
  730W        W 4781   2.613   5.589   3.347
  731W        W 4782   3.534   8.391  11.304
  732W        W 4783   0.700  10.380   1.358
  733W        W 4784   3.693   7.920  11.518
  734W        W 4785   5.209   3.061  11.568
  735W        W 4786   6.494   2.806   3.441
  736W        W 4787   0.758   0.678   3.224
  737W        W 4788   7.016   8.430   1.912
  738W        W 4789   5.602   7.807   9.837
  739W        W 4790   5.851  10.532   2.121
  740W        W 4791   0.494  11.036   0.660
  741W        W 4792   8.294   6.362  10.986
  742W        W 4793  11.448   7.639   9.650
  743W        W 4794   1.537   7.937  10.898
  744W        W 4795   2.219   1.260   1.010
  745W        W 4796   5.669   5.537   2.735
  746W        W 4797   9.990   8.176   1.064
  747W        W 4798   3.260  10.818   0.855
  748W        W 4799  10.855   8.661   8.789
  749W        W 4800   6.691   3.218   8.915
  750W        W 4801   2.747   4.228  11.207
  751W        W 4802  10.385   5.560   1.886
  752W        W 4803  11.411   4.551   1.684
  753W        W 4804   5.034   2.086   9.542
  754W        W 4805   8.570   7.203  11.171
  755W        W 4806  10.893   4.685   1.699
  756W        W 4807   4.787   2.662  10.978
  757W        W 4808   0.936   9.018   9.209
  758W        W 4809   7.129   4.271   9.972
  759W        W 4810   9.032  11.490   9.537
  760W        W 4811  11.450   5.677  10.742
  761W        W 4812   5.703   1.132   1.815
  762W        W 4813   0.698   0.339  10.958
  763W        W 4814  10.864   7.032   1.725
  764W        W 4815  10.137   4.491   9.873
  765W        W 4816   6.669   9.116  11.695
  766W        W 4817   2.095   6.852   3.640
  767W        W 4818   7.615   0.725   2.042
  768W        W 4819  10.019   5.675  10.638
  769W        W 4820   2.606   1.796   1.758
  770W        W 4821   4.201   1.775   3.089
  771W        W 4822   6.776   5.154   0.444
  772W        W 4823   1.945   0.681   0.208
  773W        W 4824   8.546   8.951   2.740
  774W        W 4825   5.077   6.672  10.320
  775W        W 4826   7.041   1.012   3.605
  776W        W 4827   9.679   4.995   3.880
  777W        W 4828   6.268   5.735   1.230
  778W        W 4829   0.840   5.080   1.726
  779W        W 4830   7.830   4.672  10.735
  780W        W 4831   0.029   8.577   9.448
  781W        W 4832   5.951  10.103  10.484
  782W        W 4833   4.821   5.664   2.095
  783W        W 4834  10.856   0.883   1.316
  784W        W 4835   6.692   2.607   9.390
  785W        W 4836   6.004   2.091   2.217
  786W        W 4837  10.279   0.251  10.715
  787W        W 4838  10.511   5.633  10.480
  788W        W 4839   9.347   7.615   3.444
  789W        W 4840   2.847   8.634   2.736
  790W        W 4841   1.191   9.638   1.737
  791W        W 4842   5.788  10.070   0.390
  792W        W 4843   6.597   3.183  11.183
  793W        W 4844   7.483   7.636   1.261
  794W        W 4845   5.578   1.813   3.462
  795W        W 4846   6.379  10.601  11.210
  796W        W 4847   7.419   7.696   2.314
  797W        W 4848   7.554   6.725  11.419
  798W        W 4849  10.539   6.578  10.373
  799W        W 4850   8.596   9.890   8.779
  800W        W 4851   9.120   8.973  11.152
  801W        W 4852  11.439   5.595   1.854
  802W        W 4853   0.902  10.071   0.368
  803W        W 4854   2.727   6.619  10.945
  804W        W 4855  10.356   5.119   3.139
  805W        W 4856   9.987   1.702  10.268
  806W        W 4857   6.454   3.808   9.594
  807W        W 4858   1.343   5.474   3.222
  808W        W 4859   0.065  11.340  10.666
  809W        W 4860   9.561   0.234   0.518
  810W        W 4861   5.054   0.459   0.806
  811W        W 4862   3.643   2.329   1.205
  812W        W 4863  10.006   0.256   0.269
  813W        W 4864   4.571   2.198   0.970
  814W        W 4865   2.556   8.348   0.787
  815W        W 4866   0.542   9.189   0.790
  816W        W 4867   5.923   7.826  11.996
  817W        W 4868   6.513   5.145   1.868
  818W        W 4869   4.770   8.331   1.534
  819W        W 4870   3.204   1.384   2.043
  820W        W 4871  10.420   0.603   9.388
  821W        W 4872   3.858   0.374   9.680
  822W        W 4873   6.272   7.197   9.481
  823W        W 4874   2.232   5.234   9.489
  824W        W 4875   5.436   0.795   9.848
  825W        W 4876   0.914   8.343   3.529
  826W        W 4877   5.641   9.942  11.857
  827W        W 4878   2.186   3.372   2.790
  828W        W 4879  11.379   7.028  10.514
  829W        W 4880   2.720   4.509   0.954
  830W        W 4881   1.440   9.921   9.360
  831W        W 4882   7.042   4.831   0.749
  832W        W 4883   1.835   8.152   1.393
  833W        W 4884   7.811   4.204   8.678
  834W        W 4885  10.914   2.101   2.249
  835W        W 4886  11.292   9.931   0.751
  836W        W 4887   1.163   0.558   2.890
  837W        W 4888   7.782  10.650   0.777
  838W        W 4889   0.691   8.885   2.772
  839W        W 4890  10.011   5.651   0.971
  840W        W 4891   8.054  10.755   1.220
  841W        W 4892   6.286   9.182   3.147
  842W        W 4893   1.516   6.228   9.876
  843W        W 4894   6.427   0.296  11.663
  844W        W 4895   0.960   8.408   9.862
  845W        W 4896   6.683   9.417   1.066
  846W        W 4897  10.841   2.178   1.746
  847W        W 4898   4.208  10.798   2.474
  848W        W 4899   2.651   3.677   2.034
  849W        W 4900   7.873   0.375   2.701
  850W        W 4901   6.571   8.122  11.330
  851W        W 4902   0.666   2.146   1.735
  852W        W 4903   0.775   0.805   0.787
  853W        W 4904   1.280   3.111  11.576
  854W        W 4905  11.356   4.038   3.512
  855W        W 4906   2.361   2.452   0.460
  856W        W 4907   8.360   7.497   2.304
  857W        W 4908   1.204   9.399   9.446
  858W        W 4909   4.263  11.290  11.340
  859W        W 4910   1.757   5.078   1.681
  860W        W 4911   3.823   9.280   0.433
  861W        W 4912   3.533  11.400  11.939
  862W        W 4913   7.495   5.007   0.931
  863W        W 4914   2.557   4.630  11.794
  864W        W 4915   7.742   1.432   0.568
  865W        W 4916   7.905   1.929   0.713
  866W        W 4917   0.947   2.732   8.464
  867W        W 4918   3.183   7.490   1.064
  868W        W 4919   2.708   4.098   1.253
  869W        W 4920   6.974   0.321   2.752
  870W        W 4921   2.519   8.058   8.151
  871W        W 4922   4.899   2.825   4.028
  872W        W 4923   4.272   3.363  11.495
  873W        W 4924   2.256   3.821   1.324
  874W        W 4925  11.169   7.697   0.773
  875W        W 4926   1.013   8.889   0.423
  876W        W 4927   8.462   1.766   3.204
  877W        W 4928   1.362  10.036  11.729
  878W        W 4929   9.919   8.975   9.383
  879W        W 4930   0.342   2.730   0.041
  880W        W 4931   9.773   7.462   8.526
  881W        W 4932   3.929   2.169   2.883
  882W        W 4933   6.943   5.844  10.346
  883W        W 4934   4.220   2.202   3.377
  884W        W 4935   4.311   0.848   2.204
  885W        W 4936   7.748  10.163   0.577
  886W        W 4937   0.485   6.273   1.675
  887W        W 4938   0.306   1.879  10.294
  888W        W 4939  11.405   4.674  10.560
  889W        W 4940   3.599   0.471   2.740
  890W        W 4941   5.699   1.334   0.766
  891W        W 4942   1.154  10.428   9.503
  892W        W 4943  10.919  10.407   9.290
  893W        W 4944   6.265  10.246   0.208
  894W        W 4945   4.540  11.159   9.172
  895W        W 4946   4.185   4.699   2.816
  896W        W 4947   6.634   9.486  10.480
  897W        W 4948  11.352   7.610   9.124
  898W        W 4949  10.321   9.575  10.515
  899W        W 4950   3.892   6.163  10.660
  900W        W 4951   4.103   4.115   9.268
  901W        W 4952   1.677   9.509   8.593
  902W        W 4953   1.338   8.693   1.066
  903W        W 4954   0.866   6.375   2.942
  904W        W 4955   3.604  11.437   9.535
  905W        W 4956   4.834   8.402   2.846
  906W        W 4957   8.344  10.217   2.779
  907W        W 4958   5.550  10.601   2.982
  908W        W 4959   7.581   8.448  10.371
  909W        W 4960   0.197   1.443  11.899
  910W        W 4961   5.988   3.191   0.125
  911W        W 4962   0.636   7.063   9.496
  912W        W 4963   3.413   8.900   1.940
  913W        W 4964  11.287   8.023   3.080
  914W        W 4965   1.711   7.346   2.948
  915W        W 4966   3.082   5.282   8.216
  916W        W 4967   8.157   2.795  11.277
  917W        W 4968   9.309   0.397   2.747
  918W        W 4969   8.634   1.083   2.619
  919W        W 4970   9.375   2.156   0.307
  920W        W 4971  10.961  10.558   0.762
  921W        W 4972   2.266   9.103   9.976
  922W        W 4973   6.611   1.981   1.465
  923W        W 4974   5.760   1.648   1.911
  924W        W 4975   4.296   0.741  11.378
  925W        W 4976   6.121   3.804   0.400
  926W        W 4977   4.740   6.264  10.312
  927W        W 4978   0.320   2.271  10.905
  928W        W 4979   8.019   7.968   1.364
  929W        W 4980   6.587  10.427  10.763
  930W        W 4981   2.121   4.293   0.509
  931W        W 4982   3.184   5.534  10.517
  932W        W 4983   4.486   8.829   9.341
  933W        W 4984  10.384   2.417  10.912
  934W        W 4985   9.678   4.132   1.852
  935W        W 4986   1.546   6.348   3.522
  936W        W 4987   5.126   1.976   3.646
  937W        W 4988   3.278  10.186   2.724
  938W        W 4989   8.573   3.348   3.102
  939W        W 4990   6.194   1.382   2.695
  940W        W 4991  11.009   3.649   1.417
  941W        W 4992   8.539   6.154   9.166
  942W        W 4993  11.134   8.118   3.560
  943W        W 4994   8.045  11.442   8.924
  944W        W 4995   5.948  10.416   2.638
  945W        W 4996   3.593   6.373   2.697
  946W        W 4997   3.664   3.714   3.052
  947W        W 4998   9.421  10.522  10.284
  948W        W 4999   0.426   7.005   2.557
  949W        W 5000   2.075   9.993   2.879
  950W        W 5001   9.770   3.271  11.872
  951W        W 5002   7.610   2.222  10.924
  952W        W 5003   8.997  11.066   0.401
  953W        W 5004   9.294   5.093   1.464
  954W        W 5005   6.734   8.902   9.207
  955W        W 5006   8.278   9.151  11.773
  956W        W 5007   5.733   3.759   1.632
  957W        W 5008   1.329   3.773   2.878
  958W        W 5009   5.232   8.047   9.623
  959W        W 5010   0.981   1.660   1.450
  960W        W 5011   0.284   9.493   1.476
  961W        W 5012  10.390   3.212   2.186
  962W        W 5013   2.649  10.907   8.950
  963W        W 5014   5.752   7.176  11.286
  964W        W 5015   1.345   0.457   3.393
  965W        W 5016   8.604   5.907  10.963
  966W        W 5017   5.170   4.626  11.754
  967W        W 5018   1.024   0.636   1.756
  968W        W 5019   5.630   7.565  10.987
  969W        W 5020   2.129   5.967  10.907
  970W        W 5021   9.480   5.188   3.420
  971W        W 5022   3.771   8.030   8.914
  972W        W 5023   4.158   7.647   9.038
  973W        W 5024   7.144   2.314   3.006
  974W        W 5025   8.746   4.955  10.763
  975W        W 5026   0.804   0.197   1.871
  976W        W 5027   4.371   1.329   1.370
  977W        W 5028   6.993   2.756   8.999
  978W        W 5029   7.633   3.877   3.283
  979W        W 5030  11.495   4.273   0.161
  980W        W 5031   2.674   8.501   1.709
  981W        W 5032  10.872  10.356   0.294
  982W        W 5033   3.150   2.905   9.153
  983W        W 5034   1.368   2.775  11.008
  984W        W 5035   3.270   9.836   8.848
  985W        W 5036   5.058   5.867  11.356
  986W        W 5037   5.139   9.608   8.061
  987W        W 5038  10.950   8.095   2.683
  988W        W 5039   6.439   9.127   1.861
  989W        W 5040   5.664  10.132   8.545
  990W        W 5041   7.039   8.390   9.084
  991W        W 5042   6.010   5.551   9.649
  992W        W 5043   8.895   5.529  10.569
  993W        W 5044   7.462   3.604   0.778
  994W        W 5045   6.304   2.679   2.904
  995W        W 5046   8.090   5.534   0.691
  996W        W 5047   1.440   6.240   9.002
  997W        W 5048   6.664   0.070  10.856
  998W        W 5049   8.069   6.423   0.292
  999W        W 5050  10.564   4.502   9.599
 1000W        W 5051   9.564   3.549   2.662
 1001W        W 5052   4.179   2.839  10.030
 1002W        W 5053   0.340   4.549   9.817
 1003W        W 5054  10.003   9.082  11.520
 1004W        W 5055   2.641   6.585   2.923
 1005W        W 5056   3.287  10.515   3.216
 1006W        W 5057   9.921   1.686   3.488
 1007W        W 5058   9.406   5.550  11.754
 1008W        W 5059   7.979   9.959   3.268
 1009W        W 5060   1.230   4.559   9.859
 1010W        W 5061   9.035   9.382  11.470
 1011W        W 5062   3.602   0.419   0.044
 1012W        W 5063   3.068   3.092   8.383
 1013W        W 5064   0.249   9.119   0.059
 1014W        W 5065   8.149   8.935   0.582
 1015W        W 5066   9.744   6.637   0.422
 1016W        W 5067   9.325   9.389   9.940
 1017W        W 5068   5.233   1.934   0.726
 1018W        W 5069   3.143   2.382   2.155
 1019W        W 5070   9.317   5.912   1.944
 1020W        W 5071   0.942   1.524  11.093
 1021W        W 5072   2.886   1.622  10.478
 1022W        W 5073   3.769   0.283   9.174
 1023W        W 5074   0.402   6.462   3.296
 1024W        W 5075   1.837   3.613   9.395
 1025W        W 5076   9.880   9.979   3.448
 1026W        W 5077   5.948   0.493   9.283
 1027W        W 5078  11.371   7.027   1.710
 1028W        W 5079   7.669   2.609  11.943
 1029W        W 5080   8.440   0.244   0.445
 1030W        W 5081   5.771  10.920   9.192
 1031W        W 5082   8.437   8.095   9.090
 1032W        W 5083   0.313   5.172   3.013
 1033W        W 5084   4.812   8.906   0.934
 1034W        W 5085   0.552   3.980  11.880
 1035W        W 5086   0.401   6.269   9.759
 1036W        W 5087   8.744   1.446  11.779
 1037W        W 5088  11.253  11.182  10.284
 1038W        W 5089   2.606   8.111   2.089
 1039W        W 5090   3.636   8.419   9.727
 1040W        W 5091   7.881   6.960   2.602
 1041W        W 5092   9.576   2.372  11.091
 1042W        W 5093   6.941   0.798   1.297
 1043W        W 5094   6.239   6.360   8.552
 1044W        W 5095   2.184   8.322  10.723
 1045W        W 5096   0.921   1.372   9.075
 1046W        W 5097   2.065   6.852   9.517
 1047W        W 5098   9.788  10.275   8.954
 1048W        W 5099  11.056   7.696  10.490
 1049W        W 5100   1.196   1.948   0.706
 1050W        W 5101   8.598   9.951   1.149
 1051W        W 5102   6.054   8.177   3.060
 1052W        W 5103  11.037   9.840   0.324
 1053W        W 5104   4.788   9.805   2.632
 1054W        W 5105   6.150   1.382   1.157
 1055W        W 5106   1.758  11.251  11.104
 1056W        W 5107   9.391   6.633   0.075
 1057W        W 5108   8.290   0.254   2.987
 1058W        W 5109   2.437   0.726   0.316
 1059W        W 5110   2.584   6.140  11.040
 1060W        W 5111   3.765   0.067   0.383
 1061W        W 5112   7.970   8.969   1.579
 1062W        W 5113   6.639   8.934   0.307
 1063W        W 5114   0.889   3.402  11.443
 1064W        W 5115   0.837   6.780  10.905
 1065W        W 5116   8.163   6.661   1.770
 1066W        W 5117   2.425   4.829   1.204
 1067W        W 5118   9.411   2.438  10.632
 1068W        W 5119   5.092   2.643   1.283
 1069W        W 5120   0.886   3.663  10.884
 1070W        W 5121   7.564   7.215   0.318
 1071W        W 5122  10.132   7.905   0.679
 1072W        W 5123   6.709   9.316   9.991
 1073W        W 5124   9.853  10.149   1.819
 1074W        W 5125   2.200   4.671   0.163
 1075W        W 5126   2.211   7.944   2.379
 1076W        W 5127  11.189   6.482  11.261
 1077W        W 5128  10.946  10.022  10.065
 1078W        W 5129   1.594   2.352   1.450
 1079W        W 5130   6.513   1.715   1.002
 1080W        W 5131   1.933   1.342   9.400
 1081W        W 5132  11.378   7.233   0.803
 1082W        W 5133   9.872  10.832   9.914
 1083W        W 5134   1.179   9.570   0.865
 1084W        W 5135   0.715   2.308  11.293
 1085W        W 5136   9.513  10.367   0.029
 1086W        W 5137   9.330   7.614   1.007
 1087W        W 5138  10.872   7.190   3.079
 1088W        W 5139   6.606   1.475   1.467
 1089W        W 5140   5.515   6.684   1.828
 1090W        W 5141   9.418   1.888  11.060
 1091W        W 5142   9.292   1.416  11.839
 1092W        W 5143   4.706   7.755   2.960
 1093W        W 5144   6.531   3.744  10.920
 1094W        W 5145   5.165   8.023   3.015
 1095W        W 5146   9.517   8.878  10.811
 1096W        W 5147   9.490   1.653   1.506
 1097W        W 5148   2.887   9.481   2.199
 1098W        W 5149  11.319   5.111   2.878
 1099W        W 5150   7.615   9.318  10.484
 1100W        W 5151   2.873   0.939  11.433
 1101W        W 5152   2.273   4.370   9.822
 1102W        W 5153   3.776   7.980  11.020
 1103W        W 5154   5.147   6.671  10.838
 1104W        W 5155   9.754   7.014   0.962
 1105W        W 5156   0.175   2.823   8.999
 1106W        W 5157   3.705  10.357   2.927
 1107W        W 5158   3.202  11.364  10.617
 1108W        W 5159  10.978  10.832   2.523
 1109W        W 5160  10.827   6.332   2.763
 1110W        W 5161  11.123  11.117  11.519
 1111W        W 5162   0.383   6.019  10.755
 1112W        W 5163   8.179   2.811   1.253
 1113W        W 5164   7.498   2.637   9.031
 1114W        W 5165   7.080   7.014   2.070
 1115W        W 5166   0.340   9.030   3.120
 1116W        W 5167   9.872   1.789   1.174
 1117W        W 5168   2.907   5.488   0.720
 1118W        W 5169   7.954   8.374  11.316
 1119W        W 5170   7.942   0.659   3.129
 1120W        W 5171   8.992   8.692   2.773
 1121W        W 5172   2.090   0.867   0.689
 1122W        W 5173   8.008   3.871  10.079
 1123W        W 5174   9.370   7.427   9.846
 1124W        W 5175   0.855   0.499   8.834
 1125W        W 5176   4.747   4.356   2.932
 1126W        W 5177   7.043   5.028  11.327
 1127W        W 5178  11.014   4.080   0.613
 1128W        W 5179   4.424   1.285   2.746
 1129W        W 5180   2.541   4.210  10.216
 1130W        W 5181   6.427   2.776   1.671
 1131W        W 5182   3.299   0.442   9.429
 1132W        W 5183   7.038   2.975   9.821
 1133W        W 5184   5.179   4.032   8.358
 1134W        W 5185   0.063   2.853  11.236
 1135W        W 5186   6.842  10.735   0.584
 1136W        W 5187   2.691  10.811   9.919
 1137W        W 5188   4.564   2.211  11.933
 1138W        W 5189   7.095   6.518  11.413
 1139W        W 5190  10.258   4.046  10.418
 1140W        W 5191   7.889   5.031   1.472
 1141W        W 5192   6.342   3.288   3.254
 1142W        W 5193   4.290   4.210   2.649
 1143W        W 5194  11.365   7.507   3.187
 1144W        W 5195   1.255   6.669   9.756
 1145W        W 5196   9.455   4.038   2.840
 1146W        W 5197   4.738   4.118   8.636
 1147W        W 5198  10.035   8.615   1.937
 1148W        W 5199   0.889   7.712  10.676
 1149W        W 5200   8.982   5.618   0.979
 1150W        W 5201   0.924   0.228  10.212
 1151W        W 5202   1.132  10.207   2.783
 1152W        W 5203  10.108   3.060  10.539
 1153W        W 5204  11.029   1.169   0.548
 1154W        W 5205   4.595   2.269   2.384
 1155W        W 5206   7.341   1.462   9.065
 1156W        W 5207   3.812   0.388  10.196
 1157W        W 5208   2.495   1.763   8.813
 1158W        W 5209   6.674  10.928   8.726
 1159W        W 5210   3.835   4.624  11.355
 1160W        W 5211   6.178   2.955  10.341
 1161W        W 5212   3.050   5.544   8.865
 1162W        W 5213   0.268   3.158  10.834
 1163W        W 5214   2.439   4.627  11.303
 1164W        W 5215   0.113   1.779   8.840
 1165W        W 5216   4.239   5.029   9.564
 1166W        W 5217  10.041   1.714   2.620
 1167W        W 5218   9.066   4.281   2.596
 1168W        W 5219  11.261   3.113  10.876
 1169W        W 5220   8.366   1.752   0.865
 1170W        W 5221   1.265   8.458  11.552
 1171W        W 5222   6.925   6.213   9.134
 1172W        W 5223  11.398   3.184   1.340
 1173W        W 5224  10.670   1.855   3.935
 1174W        W 5225   1.158  10.293  10.409
 1175W        W 5226   9.087   9.019   1.995
 1176W        W 5227   8.942   1.886  11.938
 1177W        W 5228   4.271   9.945   2.788
 1178W        W 5229   8.976   6.926   1.203
 1179W        W 5230   6.870   3.105   9.373
 1180W        W 5231   6.212   8.485  11.276
 1181W        W 5232   9.422   3.587   3.152
 1182W        W 5233   8.560   2.071   1.280
 1183W        W 5234   8.507   8.045   2.750
 1184W        W 5235   9.876   9.317  10.647
 1185W        W 5236   7.476   2.788   2.337
 1186W        W 5237   8.952   7.145  10.842
 1187W        W 5238  10.802   9.791   1.873
 1188W        W 5239   4.749   9.484   8.464
 1189W        W 5240   8.139   1.792   2.266
 1190W        W 5241   8.017   6.438  11.443
 1191W        W 5242   7.593   5.319  10.607
 1192W        W 5243   7.060   9.068   0.001
 1193W        W 5244   7.115  10.983   9.022
 1194W        W 5245   8.900   4.582   8.630
 1195W        W 5246   4.175   2.597   2.997
 1196W        W 5247   5.669   3.857   0.722
 1197W        W 5248   1.259   6.544  11.276
 1198W        W 5249   8.497   9.009   3.234
 1199W        W 5250   4.136   0.470   8.830
 1200W        W 5251   8.721  10.914   0.959
 1201W        W 5252   6.556   8.448   9.683
 1202W        W 5253   2.331   8.647  10.340
 1203W        W 5254   0.504   1.031  11.825
 1204W        W 5255   0.400   4.389   1.726
 1205W        W 5256   0.423   0.478   2.082
 1206W        W 5257  11.301  10.774   0.404
 1207W        W 5258  10.524   4.809  10.007
 1208W        W 5259   1.807   1.747  10.098
 1209W        W 5260   6.477   4.732   0.389
 1210W        W 5261   1.209   4.994   3.199
 1211W        W 5262  10.341   6.270  11.240
 1212W        W 5263   6.115   9.621  10.575
 1213W        W 5264  10.905   7.876   1.778
 1214W        W 5265   3.306   8.331   8.930
 1215W        W 5266   2.296   6.170   9.325
 1216W        W 5267   9.864   5.420   8.711
 1217W        W 5268  10.409   2.143   9.580
 1218W        W 5269   1.842   0.195   2.727
 1219W        W 5270   3.374   1.288   8.785
 1220W        W 5271   7.192   7.286  10.057
 1221W        W 5272   8.581  10.780   0.474
 1222W        W 5273   6.416   7.991   8.997
 1223W        W 5274   6.638   5.426   0.045
 1224W        W 5275   7.476   1.543   2.380
 1225W        W 5276   6.730   9.515   3.228
 1226W        W 5277   3.460   8.637  11.763
 1227W        W 5278   5.914   2.934   0.844
 1228W        W 5279  10.884   5.542  10.057
 1229W        W 5280   2.419   1.783  11.402
 1230W        W 5281   7.223  10.662   0.226
 1231W        W 5282   0.033  10.894   0.884
 1232W        W 5283   3.263   7.446   2.034
 1233W        W 5284   8.904   7.582  11.099
 1234W        W 5285   6.247  10.013  10.921
 1235W        W 5286   3.732  10.923  10.005
 1236W        W 5287  10.066   9.102   1.792
 1237W        W 5288   3.803   7.042   0.506
 1238W        W 5289   9.404   7.146   1.863
 1239W        W 5290   3.624   9.377   9.239
 1240W        W 5291   3.833   9.863   1.208
 1241W        W 5292   1.327   5.320   9.431
 1242W        W 5293  11.337   8.531   8.967
 1243W        W 5294   8.230   6.369   8.791
 1244W        W 5295   6.924  11.438   3.303
 1245W        W 5296   2.388   1.328   9.137
 1246W        W 5297   6.388   9.144  11.281
 1247W        W 5298   3.128   1.843   9.530
 1248W        W 5299   6.565   2.461  11.892
 1249W        W 5300   3.713   9.825   2.064
 1250W        W 5301   6.177  11.064  11.291
 1251W        W 5302   7.144   7.070   0.564
 1252W        W 5303   2.332   9.872   1.746
 1253W        W 5304   8.498   9.412  11.056
 1254W        W 5305   5.523   5.642   9.536
 1255W        W 5306   7.641   7.994  10.145
 1256W        W 5307   1.144   0.358  11.218
 1257W        W 5308   1.315   8.147   1.927
 1258W        W 5309   7.547  10.872  11.453
 1259W        W 5310   1.697   4.556   9.581
 1260W        W 5311   8.855   1.651   2.876
 1261W        W 5312   5.146   8.634   0.322
 1262W        W 5313   5.634  10.018   1.447
 1263W        W 5314   9.866  10.289  10.334
 1264W        W 5315   9.046   3.718   8.624
 1265W        W 5316   5.656   8.658   0.462
 1266W        W 5317   2.031  11.288  11.918
 1267W        W 5318   7.434   4.002  11.936
 1268W        W 5319   4.602   6.734   2.921
 1269W        W 5320   5.354   5.072   2.626
 1270W        W 5321   9.504   3.014   2.488
 1271W        W 5322   9.150   1.234  10.041
 1272W        W 5323   0.627   0.550  10.495
 1273W        W 5324   4.544  10.364   8.516
 1274W        W 5325   1.237   3.557   9.859
 1275W        W 5326   0.745   0.068  11.398
 1276W        W 5327   0.622   7.148   1.275
 1277W        W 5328  10.427  10.832  11.003
 1278W        W 5329   1.925   5.050   2.639
 1279W        W 5330   1.464   9.733   1.269
 1280W        W 5331   3.659   2.349   0.692
 1281W        W 5332   6.718   6.857   2.381
 1282W        W 5333   8.448   7.105   0.334
 1283W        W 5334   5.278   3.300   2.246
 1284W        W 5335   0.264   2.307   9.102
 1285W        W 5336   1.750   6.875   2.738
 1286W        W 5337   5.268   0.186   0.401
 1287W        W 5338   0.045  10.291   2.352
 1288W        W 5339   6.745   9.974  10.985
 1289W        W 5340   5.992   8.479  11.768
 1290W        W 5341   8.068   7.244  11.111
 1291W        W 5342   9.813   9.418   0.687
 1292W        W 5343   2.395  11.343   0.278
 1293W        W 5344   2.381   9.427   0.383
 1294W        W 5345   8.488   5.614   3.596
 1295W        W 5346   4.254   3.562   0.914
 1296W        W 5347   6.973   2.357  10.991
 1297W        W 5348   8.432   3.273   9.476
 1298W        W 5349   9.189  10.113   0.405
 1299W        W 5350  10.178   8.599  11.579
 1300W        W 5351  11.422   8.644   9.930
 1301W        W 5352   6.513   0.639   0.060
 1302W        W 5353   6.147  10.992   3.415
 1303W        W 5354   0.156   7.195   9.820
 1304W        W 5355   2.902   7.536   2.986
 1305W        W 5356   0.425   8.995   1.741
 1306W        W 5357  10.528   8.498  11.957
 1307W        W 5358   7.199   5.666   1.082
 1308W        W 5359   3.392   5.256   9.135
 1309W        W 5360   9.910   8.134   2.822
 1310W        W 5361   2.901   5.483   1.750
 1311W        W 5362   2.408   3.313   1.184
 1312W        W 5363   3.879   1.295   8.616
 1313W        W 5364   8.712   6.664  10.831
 1314W        W 5365  10.419   1.495  10.441
 1315W        W 5366   7.153   6.503   3.164
 1316W        W 5367  11.476   6.130  11.999
 1317W        W 5368   0.179   1.061   0.265
 1318W        W 5369  11.445   3.381  10.447
 1319W        W 5370   8.889   3.227   8.579
 1320W        W 5371   0.065   6.093   1.914
 1321W        W 5372   6.003   4.096   9.440
 1322W        W 5373   9.900   3.718   0.669
 1323W        W 5374   4.644   8.534   0.450
 1324W        W 5375  10.809   3.470   2.367
 1325W        W 5376   0.468  10.003   2.208
 1326W        W 5377   5.055  11.448   0.825
 1327W        W 5378   7.266   6.193  10.596
 1328W        W 5379   3.782  11.139  11.422
 1329W        W 5380   2.663   9.318  11.942
 1330W        W 5381  10.605   7.864   0.511
 1331W        W 5382   1.708   4.866  11.036
 1332W        W 5383   6.912  11.374   9.507
 1333W        W 5384   1.880   8.828   0.279
 1334W        W 5385   8.554   2.344   2.357
 1335W        W 5386   3.664   2.859   0.725
 1336W        W 5387  10.681  11.405   0.661
 1337W        W 5388   2.861   4.180   2.665
 1338W        W 5389   3.142   0.309   1.522
 1339W        W 5390   0.269   5.537   9.817
 1340W        W 5391   6.314  10.447  10.308
 1341W        W 5392   4.920   0.659   1.678
 1342W        W 5393   0.243   3.131   0.389
 1343W        W 5394   2.951   0.135  10.177
 1344W        W 5395   0.481   3.087  11.426
 1345W        W 5396   1.984   8.117  11.899
 1346W        W 5397   4.607   7.584  11.569
 1347W        W 5398   7.321   0.523   8.912
 1348W        W 5399   6.577   7.882   2.351
 1349W        W 5400   7.547   2.288   0.781
 1350W        W 5401   3.770   5.205   0.256
 1351W        W 5402   3.705   4.493   1.899
 1352W        W 5403   8.141   4.629   8.656
 1353W        W 5404   7.852   8.463  11.940
 1354W        W 5405   5.490   8.961   8.586
 1355W        W 5406   0.839   9.222   3.128
 1356W        W 5407   2.800   2.107  10.366
 1357W        W 5408   0.512   1.312   2.640
 1358W        W 5409   5.319  11.363   1.754
 1359W        W 5410  10.278   9.495  11.352
 1360W        W 5411  10.729  10.408   1.326
 1361W        W 5412   2.782   2.393   0.780
 1362W        W 5413   8.006   6.004   4.126
 1363W        W 5414   2.320  10.872  11.801
 1364W        W 5415   6.983   1.517   0.729
 1365W        W 5416   0.012   9.916   8.820
 1366W        W 5417   0.489   3.061   9.767
 1367W        W 5418  10.636   3.912   0.285
 1368W        W 5419   2.815   3.763   9.456
 1369W        W 5420   4.596   9.484  10.697
 1370W        W 5421   5.656   1.729   2.945
 1371W        W 5422   3.411   1.421   2.883
 1372W        W 5423   5.287   9.462   8.539
 1373W        W 5424   0.219   0.325  10.759
 1374W        W 5425  10.906  10.137  11.273
 1375W        W 5426   4.606  10.066   2.212
 1376W        W 5427   4.931   0.783   9.774
 1377W        W 5428   4.049   4.619   3.540
 1378W        W 5429  10.536   7.226  11.517
 1379W        W 5430   6.795   3.655   9.180
 1380W        W 5431   4.528   4.463   9.557
 1381W        W 5432   3.814   0.394  11.577
 1382W        W 5433  10.885   4.168   1.137
 1383W        W 5434   5.210   9.917   3.638
 1384W        W 5435   4.354   1.433   9.950
 1385W        W 5436   7.496   0.834   3.375
 1386W        W 5437   9.046   0.785   2.472
 1387W        W 5438   8.542   7.585   9.277
 1388W        W 5439   3.691   2.652   9.270
 1389W        W 5440   8.550   7.539   2.801
 1390W        W 5441   9.029   4.614   1.314
 1391W        W 5442   8.587   2.585   0.529
 1392W        W 5443   6.100   3.290   1.160
 1393W        W 5444   2.747   7.918   2.635
 1394W        W 5445   3.205  10.315   0.099
 1395W        W 5446  10.611   9.831  10.901
 1396W        W 5447   7.603   4.371   1.455
 1397W        W 5448   2.389   7.861  10.734
 1398W        W 5449   8.625   6.374  11.719
 1399W        W 5450   8.959   9.630  11.017
 1400W        W 5451   5.770   0.381   0.498
 1401W        W 5452   6.074   8.092   8.594
 1402W        W 5453   6.051   7.292   4.032
 1403W        W 5454   4.086  10.965   9.040
 1404W        W 5455   0.881   3.905  11.358
 1405W        W 5456   4.339   8.835   0.747
 1406W        W 5457   2.787   2.480  11.830
 1407W        W 5458   7.786   6.664   9.983
 1408W        W 5459   9.562   2.889   9.459
 1409W        W 5460  10.086   9.002   9.859
 1410W        W 5461   3.667   0.792   8.963
 1411W        W 5462   4.739   9.064  11.467
 1412W        W 5463   8.781  10.914   2.419
 1413W        W 5464   3.866   5.265  10.562
 1414W        W 5465   6.673   3.781   0.247
 1415W        W 5466   8.036   9.612   9.868
 1416W        W 5467   9.088   5.735   2.798
 1417W        W 5468   7.671   4.165  11.032
 1418W        W 5469  10.725   9.801  11.787
 1419W        W 5470   3.141   9.093  10.149
 1420W        W 5471   5.831   5.212  11.613
 1421W        W 5472   3.376   6.063  10.670
 1422W        W 5473   6.534   6.659   1.697
 1423W        W 5474   9.550   6.159  10.816
 1424W        W 5475   6.928  10.862  10.665
 1425W        W 5476   8.140   8.978   1.094
 1426W        W 5477   3.334   8.054  10.228
 1427W        W 5478   4.226   2.323  10.454
 1428W        W 5479  10.828   2.776   9.171
 1429W        W 5480   0.483  10.969   1.182
 1430W        W 5481   0.977  11.328   1.396
 1431W        W 5482   8.913   7.323   9.532
 1432W        W 5483   2.168   3.413   1.893
 1433W        W 5484   9.158   7.080  11.939
 1434W        W 5485   2.906   7.881  11.924
 1435W        W 5486   2.375   0.543   1.998
 1436W        W 5487   1.148   9.651   2.929
 1437W        W 5488   8.840   0.737  11.473
 1438W        W 5489   2.942   3.026   3.116
 1439W        W 5490   4.275   2.825   0.362
 1440W        W 5491   4.647   4.263   9.111
 1441W        W 5492   4.715   2.958   1.431
 1442W        W 5493   5.224   5.594  10.948
 1443W        W 5494   5.750  11.079   3.073
 1444W        W 5495  11.051   6.063   9.899
 1445W        W 5496   1.273   4.810   9.405
 1446W        W 5497   2.327   4.338   8.439
 1447W        W 5498   2.409   2.710  11.557
 1448W        W 5499   5.798   7.116  10.411
 1449W        W 5500   1.288   1.102  11.112
 1450W        W 5501   8.750   4.264   9.228
 1451W        W 5502   7.431   5.192   1.842
 1452W        W 5503   5.139   1.691  11.252
 1453W        W 5504   6.592   6.133  10.038
 1454W        W 5505   6.583   4.512   2.528
 1455W        W 5506   1.189   5.670   1.333
 1456W        W 5507  10.288   0.641   0.090
 1457W        W 5508   3.113   8.850   2.349
 1458W        W 5509   3.409  10.778  10.861
 1459W        W 5510   8.108   4.114   3.146
 1460W        W 5511   3.154   3.524   2.754
 1461W        W 5512   4.715  10.930   9.690
 1462W        W 5513   9.870   0.272  10.349
 1463W        W 5514   5.688   3.385   8.940
 1464W        W 5515   9.088   4.598  10.949
 1465W        W 5516  10.678   1.782   0.878
 1466W        W 5517   5.215   3.716   1.366
 1467W        W 5518   9.101   4.180   8.872
 1468W        W 5519   9.738   5.283   1.239
 1469W        W 5520   9.945   8.136   0.279
 1470W        W 5521  10.386  10.950   3.224
 1471W        W 5522  10.068   2.340   2.923
 1472W        W 5523   1.281   2.355   1.043
 1473W        W 5524   7.096   0.281   1.306
 1474W        W 5525   2.166   2.137  10.991
 1475W        W 5526   7.366   7.185   2.470
 1476W        W 5527   0.013   9.567   2.764
 1477W        W 5528   9.134   6.594   9.091
 1478W        W 5529   3.149   8.933   9.139
 1479W        W 5530   4.110   9.543  10.437
 1480W        W 5531   1.913   2.209   0.413
 1481W        W 5532   4.819  10.578   1.300
 1482W        W 5533   6.216   6.218   3.032
 1483W        W 5534   3.715   5.401  11.780
 1484W        W 5535   0.139   8.889   2.150
 1485W        W 5536   6.059   6.198  11.933
 1486W        W 5537   0.895   6.469   1.904
 1487W        W 5538   5.165   3.624  10.987
 1488W        W 5539   9.280   6.298  11.286
 1489W        W 5540   8.966   3.255  10.495
 1490W        W 5541   4.572   0.262  11.959
 1491W        W 5542   1.760   9.188  11.348
 1492W        W 5543   9.658   0.588   9.442
 1493W        W 5544   9.756   0.778  11.428
 1494W        W 5545  10.389  11.347   1.893
 1495W        W 5546  10.828   1.316  11.090
 1496W        W 5547   3.713   3.364  10.926
 1497W        W 5548   0.465   3.835   2.312
 1498W        W 5549   4.592   0.749   0.764
 1499W        W 5550   9.023   8.090  10.177
 1500W        W 5551  10.811   0.300   0.985
 1501W        W 5552  10.154  10.392   9.936
 1502W        W 5553   8.538  11.231   0.176
 1503W        W 5554   1.019  10.536   2.421
 1504W        W 5555   5.019  11.323   2.653
 1505W        W 5556   5.461   4.050   3.618
 1506W        W 5557   1.992   9.879   9.378
 1507W        W 5558   4.934   1.228   2.608
 1508W        W 5559   6.622   2.678  10.375
 1509W        W 5560   5.164   4.007   4.029
 1510W        W 5561   9.116   6.354   8.636
 1511W        W 5562   8.903   7.421   1.226
 1512W        W 5563  10.578   4.300  10.092
 1513W        W 5564   2.177   9.137  11.991
 1514W        W 5565   8.073   5.028   4.052
 1515W        W 5566   7.620   7.127   1.239
 1516W        W 5567   1.687   6.920   3.254
 1517W        W 5568   0.051   5.969   9.940
 1518W        W 5569   4.424  10.397  11.349
 1519W        W 5570   9.509   9.890   1.257
 1520W        W 5571   5.535   9.631  11.334
 1521W        W 5572   2.649   1.072   1.281
 1522W        W 5573   3.336   2.253   9.271
 1523W        W 5574  11.059   9.434  11.727
 1524W        W 5575   2.295   2.247   0.917
 1525W        W 5576   9.034   6.782   1.963
 1526W        W 5577   7.796   5.746   9.866
 1527W        W 5578  11.091   4.481  10.899
 1528W        W 5579   8.008   4.692   2.184
 1529W        W 5580   7.375   4.700  11.024
 1530W        W 5581   4.231  11.375   2.629
 1531W        W 5582   3.667   6.613   0.270
 1532W        W 5583   5.924   0.922   8.501
 1533W        W 5584  10.863   8.196   0.223
 1534W        W 5585  10.797   1.813  10.491
 1535W        W 5586   9.414   2.632   2.012
 1536W        W 5587   1.623   1.338   9.812
 1537W        W 5588   0.484  10.537   2.304
 1538W        W 5589   9.342  11.362  11.209
 1539W        W 5590   9.992  11.439   9.533
 1540W        W 5591   2.912   5.351   0.215
 1541W        W 5592   3.364   2.588  10.650
 1542W        W 5593   4.338   3.776  11.188
 1543W        W 5594   6.593   2.234   0.972
 1544W        W 5595   2.144   1.774   9.199
 1545W        W 5596   2.179  11.411  11.421
 1546W        W 5597   4.360   0.796   0.304
 1547W        W 5598   9.578   8.049  10.084
 1548W        W 5599   4.905   8.584  10.890
 1549W        W 5600   0.604   5.911   0.710
 1550W        W 5601   3.240   4.291  11.293
 1551W        W 5602   2.264   8.621   2.972
 1552W        W 5603   1.829   0.269   9.489
 1553W        W 5604   6.372   4.023  10.480
 1554W        W 5605   4.107  11.257  10.830
 1555W        W 5606   6.011   6.123   0.864
 1556W        W 5607   0.282   1.664   9.828
 1557W        W 5608   1.439  10.234   1.358
 1558W        W 5609   3.751   6.604   9.389
 1559W        W 5610   1.149   1.838   8.964
 1560W        W 5611   7.952   0.434   1.776
 1561W        W 5612   6.263   8.808   9.989
 1562W        W 5613   8.004   4.164  11.423
 1563W        W 5614   8.589   8.410   2.011
 1564W        W 5615   8.200   6.535   3.255
 1565W        W 5616   9.621   6.951   2.291
 1566W        W 5617   0.701  11.381   0.983
 1567W        W 5618   8.789   8.741   3.767
 1568W        W 5619  11.440   9.140  10.770
 1569W        W 5620   1.296   5.984   0.066
 1570W        W 5621   8.923   6.108   0.534
 1571W        W 5622   8.504   3.391   8.906
 1572W        W 5623   4.728   8.088  11.625
 1573W        W 5624  11.276   9.653   1.730
 1574W        W 5625   6.758   8.036   9.387
 1575W        W 5626   7.130  10.475   9.193
 1576W        W 5627  10.958  10.637  11.418
 1577W        W 5628   5.484   6.139   2.302
 1578W        W 5629   6.369   6.154   2.541
 1579W        W 5630   3.278   8.565  10.392
 1580W        W 5631   2.697   5.543   2.838
 1581W        W 5632   0.309   9.465  11.330
 1582W        W 5633   3.137   6.251   3.389
 1583W        W 5634   0.585   1.482   3.671
 1584W        W 5635   0.294   7.079  11.774
 1585W        W 5636   3.673   3.854  11.814
 1586W        W 5637   9.879   0.011   1.841
 1587W        W 5638  10.399   1.288  11.357
 1588W        W 5639   6.244   7.906   0.401
 1589W        W 5640  11.001  10.007   1.461
 1590W        W 5641  10.825   1.363   9.611
 1591W        W 5642  10.453   6.489  11.977
 1592W        W 5643   0.755   1.188   3.141
 1593W        W 5644   0.906   3.791   2.572
 1594W        W 5645   9.652   2.111   2.641
 1595W        W 5646   3.152   2.089  10.758
 1596W        W 5647   4.522   0.961  10.086
 1597W        W 5648   1.351   2.315   1.917
 1598W        W 5649   8.852   4.593   2.233
 1599W        W 5650   5.788   9.021   9.942
 1600W        W 5651  11.006   9.858   2.328
 1601W        W 5652   8.858   1.732   1.025
 1602W        W 5653   8.008   7.460   1.308
 1603W        W 5654   9.042   7.655   2.887
 1604W        W 5655  10.011   6.997   8.993
 1605W        W 5656   3.384   3.386   1.410
 1606W        W 5657   9.171   7.585  11.940
 1607W        W 5658  10.626   3.613   9.646
 1608W        W 5659   8.098  10.299  11.872
 1609W        W 5660  10.082   8.860   8.905
 1610W        W 5661   6.968   4.627  11.728
 1611W        W 5662   6.578   1.146   9.599
 1612W        W 5663   6.261   8.977   2.678
 1613W        W 5664  10.004   8.951  11.010
 1614W        W 5665   8.323   6.840   0.766
 1615W        W 5666   2.828  11.385   8.802
 1616W        W 5667   2.487   0.062  10.369
 1617W        W 5668   6.646  10.920   1.337
 1618W        W 5669   4.584   9.039  11.941
 1619W        W 5670   9.407   2.878   0.886
 1620W        W 5671   5.007   2.843   3.166
 1621W        W 5672   0.182  10.338   1.419
 1622W        W 5673   9.821   4.799   2.311
 1623W        W 5674  10.084   0.388   9.733
 1624W        W 5675   3.303   9.960   1.316
 1625W        W 5676  10.915   6.457   1.323
 1626W        W 5677   6.105   3.655   1.993
 1627W        W 5678   4.146   4.257  11.197
 1628W        W 5679   0.715  10.833   3.401
 1629W        W 5680   9.381   8.046   1.821
 1630W        W 5681   0.440   6.176  11.769
 1631W        W 5682   4.242  10.123   3.308
 1632W        W 5683   9.473   3.928   2.312
 1633W        W 5684   2.854   2.598  10.495
 1634W        W 5685   0.773   4.197   0.695
 1635W        W 5686   1.808   0.916   8.662
 1636W        W 5687   3.785   3.607  11.376
 1637W        W 5688   2.183   5.695   9.120
 1638W        W 5689   8.111   5.822  10.969
 1639W        W 5690   4.992   9.510   8.945
 1640W        W 5691   3.730   7.525   3.287
 1641W        W 5692   5.620   3.675   2.106
 1642W        W 5693   5.056   3.548   2.777
 1643W        W 5694   0.058   6.699   2.392
 1644W        W 5695  10.472   3.221   2.694
 1645W        W 5696   5.653   7.623   1.954
 1646W        W 5697   7.316   0.876   8.471
 1647W        W 5698   7.992   5.011  10.369
 1648W        W 5699   4.443   1.088  11.046
 1649W        W 5700   2.663   3.294   0.224
 1650W        W 5701   0.414   0.275   3.420
 1651W        W 5702   3.216   3.609  10.549
 1652W        W 5703   3.203   6.051   9.807
 1653W        W 5704   9.893   2.857   1.128
 1654W        W 5705   0.416   8.622  10.058
 1655W        W 5706   7.101   2.835   0.459
 1656W        W 5707   8.088  10.050   2.362
 1657W        W 5708   0.829   8.365  11.281
 1658W        W 5709   6.199   5.288   2.399
 1659W        W 5710   1.891   2.270   1.859
 1660W        W 5711   3.215   5.324   2.470
 1661W        W 5712   5.800   5.044   0.393
 1662W        W 5713   5.169   9.740  11.727
 1663W        W 5714   1.379   5.764   1.799
 1664W        W 5715   2.159   9.016   8.915
 1665W        W 5716  10.527   6.983   9.078
 1666W        W 5717   5.549   7.953   8.675
 1667W        W 5718   4.714   0.964   3.640
 1668W        W 5719   6.428   2.125   9.318
 1669W        W 5720   1.262   7.646   9.016
 1670W        W 5721  11.242   2.821   1.717
 1671W        W 5722   3.427   2.244   3.000
 1672W        W 5723  10.891   3.654   0.915
 1673W        W 5724  10.993   6.172   0.551
 1674W        W 5725   0.877   8.647  10.288
 1675W        W 5726   2.680   0.522  11.239
 1676W        W 5727  11.475   8.076   2.600
 1677W        W 5728   7.307  10.768   2.137
 1678W        W 5729  10.424   0.451   8.907
 1679W        W 5730   5.498   6.672   0.392
 1680W        W 5731   2.697   0.263   0.243
 1681W        W 5732   3.517   4.003   2.013
 1682W        W 5733   9.600   2.900  11.053
 1683W        W 5734   4.598   9.359   9.388
 1684W        W 5735   8.706   5.115   0.356
 1685W        W 5736   5.109   4.064   0.090
 1686W        W 5737   1.684   9.491   9.600
 1687W        W 5738   4.780   1.463  11.531
 1688W        W 5739   5.636   9.390  11.784
 1689W        W 5740   1.818   0.475   1.189
 1690W        W 5741   2.715   3.652   3.038
 1691W        W 5742   9.990   4.842   1.262
 1692W        W 5743   9.013   4.815   2.672
 1693W        W 5744   0.065   9.442   3.280
 1694W        W 5745   4.560   4.814   0.472
 1695W        W 5746  10.709   5.771   3.631
 1696W        W 5747   7.076   9.852   2.252
 1697W        W 5748   6.137   4.891  10.387
 1698W        W 5749  10.983   0.753   0.837
 1699W        W 5750   8.458  10.037  10.355
 1700W        W 5751   2.703   3.661   1.531
 1701W        W 5752   3.836  10.259   0.693
 1702W        W 5753  11.133   0.043  11.797
 1703W        W 5754   4.471   9.317   1.267
 1704W        W 5755   4.661  10.798   1.745
 1705W        W 5756   9.069  11.356  10.553
 1706W        W 5757   4.240   7.764  10.942
 1707W        W 5758   5.503  10.781   1.191
 1708W        W 5759   7.926   3.201  11.604
 1709W        W 5760   5.517   6.822  10.053
 1710W        W 5761  10.131   5.159  10.518
 1711W        W 5762   6.246   3.182   2.165
 1712W        W 5763   8.451   5.184   3.340
 1713W        W 5764  10.825   0.754   0.331
 1714W        W 5765  10.106   6.275  11.687
 1715W        W 5766   8.928   3.559   9.951
 1716W        W 5767   4.826   6.974   2.484
 1717W        W 5768   3.346   8.145  11.806
 1718W        W 5769   1.082   7.953  11.086
 1719W        W 5770   2.232   0.965   3.163
 1720W        W 5771   4.203   8.401   9.485
 1721W        W 5772   8.136   7.847   3.063
 1722W        W 5773   7.848  11.488  10.387
 1723W        W 5774   1.480   3.729   1.170
 1724W        W 5775   7.264   4.519   8.183
 1725W        W 5776   6.189  11.220   9.092
 1726W        W 5777   7.867   5.485   1.747
 1727W        W 5778   5.577   1.707   8.964
 1728W        W 5779   2.772   2.690   1.965
 1729W        W 5780   0.422   4.072   0.359
 1730W        W 5781   2.416   8.573   8.813
 1731W        W 5782   3.847  11.128   8.617
 1732W        W 5783   8.402  10.923  11.784
 1733W        W 5784   9.521   0.096   9.369
 1734W        W 5785   5.563   7.982   3.671
 1735W        W 5786   8.978   9.980   3.020
 1736W        W 5787   0.421   0.337   1.041
 1737W        W 5788   6.320   8.023   0.914
 1738W        W 5789   6.228   4.098   8.128
 1739W        W 5790   5.200   2.569  11.783
 1740W        W 5791   3.165   8.302   3.040
 1741W        W 5792   3.061   5.560   1.234
 1742W        W 5793   0.740  10.462  10.642
 1743W        W 5794   5.334   6.927   3.555
 1744W        W 5795   5.980   4.196   3.649
 1745W        W 5796   8.878   5.072   1.131
 1746W        W 5797   6.184   4.310   0.973
 1747W        W 5798   4.686   3.725  10.804
 1748W        W 5799   6.606   7.969   8.515
 1749W        W 5800   0.927   2.922   0.752
 1750W        W 5801   1.684   3.252   1.918
 1751W        W 5802  10.926   5.535   2.201
 1752W        W 5803   9.447   4.256  10.894
 1753W        W 5804   3.685   6.171   9.664
 1754W        W 5805   3.630   3.556   9.891
 1755W        W 5806   6.316   5.381  10.433
 1756W        W 5807   9.901   4.672   8.895
 1757W        W 5808  10.815   7.650   9.015
 1758W        W 5809   4.252   5.584  10.884
 1759W        W 5810   5.713  10.499   8.909
 1760W        W 5811   5.908   3.791   2.872
 1761W        W 5812   7.230  10.101   0.435
 1762W        W 5813   3.401   9.749   3.657
 1763W        W 5814  11.446   8.056   1.875
 1764W        W 5815   5.690   4.114   0.256
 1765W        W 5816   4.163   6.669   0.303
 1766W        W 5817   6.913   0.747  10.313
 1767W        W 5818  10.456  10.539   0.569
 1768W        W 5819   2.910   2.963  11.911
 1769W        W 5820  10.028   2.552  11.279
 1770W        W 5821   4.449   6.660   3.574
 1771W        W 5822   1.336   8.931   2.419
 1772W        W 5823   2.139   3.340  10.491
 1773W        W 5824   7.942   9.157   9.662
 1774W        W 5825   3.284   4.004   2.872
 1775W        W 5826  11.146   9.484   9.531
 1776W        W 5827   2.751   3.733   8.956
 1777W        W 5828   9.096   8.050   2.287
 1778W        W 5829   7.792   2.855   2.823
 1779W        W 5830   7.505   3.137  10.919
 1780W        W 5831   8.523   0.623   1.186
 1781W        W 5832   6.537   0.799  11.563
 1782W        W 5833   6.453   2.252   2.429
 1783W        W 5834   9.663   8.688  11.319
 1784W        W 5835   3.266   9.783   2.375
 1785W        W 5836   4.602   0.364   1.392
 1786W        W 5837   6.720   1.095  11.969
 1787W        W 5838   5.210   1.013   3.485
 1788W        W 5839   4.478   5.373  10.451
 1789W        W 5840   1.003   8.522   9.375
 1790W        W 5841  10.780   8.466  10.867
 1791W        W 5842   7.097   9.754   1.219
 1792W        W 5843   1.948   2.230   9.996
 1793W        W 5844   6.522   8.360   0.224
 1794W        W 5845   3.374   9.106  11.524
 1795W        W 5846   6.018   7.907  11.011
 1796W        W 5847   6.234   6.469   9.829
 1797W        W 5848   1.229   0.959   0.938
 1798W        W 5849   1.441   3.092   9.907
 1799W        W 5850   1.697   4.558   3.329
 1800W        W 5851   4.040   6.737   2.867
 1801W        W 5852   6.033   1.833   9.509
 1802W        W 5853  10.787   9.111   2.941
 1803W        W 5854   9.779   8.452   8.974
 1804W        W 5855   1.490   8.020   0.038
 1805W        W 5856   9.402   6.658   1.044
 1806W        W 5857   9.394   4.695   3.576
 1807W        W 5858   0.660   6.724  11.783
 1808W        W 5859   2.617  10.559  11.444
 1809W        W 5860   3.804   2.157   9.048
 1810W        W 5861  10.885  10.931   9.999
 1811W        W 5862  10.949   6.647   3.178
 1812W        W 5863   8.027  10.075  10.078
 1813W        W 5864   4.687  10.875   3.324
 1814W        W 5865   1.476   9.652   0.053
 1815W        W 5866   9.514   2.669   1.470
 1816W        W 5867   4.282  10.823  10.609
 1817W        W 5868   9.239   5.165  10.722
 1818W        W 5869   3.228   3.826  11.534
 1819W        W 5870   5.701   4.258   9.950
 1820W        W 5871   4.096  10.023  10.239
 1821W        W 5872   1.280   9.115   2.897
 1822W        W 5873   2.567  10.063   2.960
 1823W        W 5874   6.630   9.441   9.248
 1824W        W 5875   1.614   5.570   0.453
 1825W        W 5876   8.914   4.145   9.698
 1826W        W 5877   9.920   7.156   2.649
 1827W        W 5878   2.485   5.323   1.010
 1828W        W 5879   4.166   3.126  11.046
 1829W        W 5880   1.401   5.793   9.611
 1830W        W 5881   1.059   2.927   3.495
 1831W        W 5882   1.715   6.646  11.006
 1832W        W 5883   1.209  10.944   9.383
 1833W        W 5884   4.125   5.227  11.543
 1834W        W 5885   0.564  10.318   8.919
 1835W        W 5886   5.016   5.786   9.578
 1836W        W 5887   1.382   3.764   1.823
 1837W        W 5888   0.227   3.519   9.874
 1838W        W 5889   9.971   0.474   8.673
 1839W        W 5890   9.517   1.946   9.012
 1840W        W 5891   4.626   3.234   0.249
 1841W        W 5892   9.179   0.467   9.553
 1842W        W 5893   3.589   4.202   3.269
 1843W        W 5894   8.534   5.380  10.942
 1844W        W 5895   5.663   8.713   1.864
 1845W        W 5896  10.036   2.709   9.363
 1846W        W 5897  10.213   3.417  10.888
 1847W        W 5898   7.962   9.440   8.784
 1848W        W 5899   0.800   8.249   2.318
 1849W        W 5900   0.730   8.097   9.239
 1850W        W 5901   9.083   6.651   2.912
 1851W        W 5902   8.541  10.354   0.178
 1852W        W 5903   6.576   2.648  11.196
 1853W        W 5904   0.243   5.875   1.471
 1854W        W 5905   1.814   2.785   1.209
 1855W        W 5906   3.490   8.424   1.622
 1856W        W 5907   3.824   4.815  10.850
 1857W        W 5908   8.076   2.667   8.463
 1858W        W 5909   1.534  11.020   0.853
 1859W        W 5910   6.728   9.895   0.366
 1860W        W 5911   5.852   6.226  11.458
 1861W        W 5912   4.624  11.253   2.957
 1862W        W 5913   7.163   9.393   1.961
 1863W        W 5914  10.655  11.394  11.783
 1864W        W 5915   2.021   6.291  11.859
 1865W        W 5916   7.474   3.344   1.577
 1866W        W 5917   5.738   4.115   3.208
 1867W        W 5918   8.107  10.836   1.724
 1868W        W 5919   2.458  10.890  10.907
 1869W        W 5920  11.269   4.272   2.996
 1870W        W 5921   7.182   2.638   9.478
 1871W        W 5922   9.271   0.672   1.782
 1872W        W 5923   7.200   3.253   3.036
 1873W        W 5924   2.202   3.692   3.267
 1874W        W 5925  10.324   3.398   9.984
 1875W        W 5926   1.365   9.206   1.983
 1876W        W 5927   3.729   2.092   8.440
 1877W        W 5928  10.276   3.923   9.901
 1878W        W 5929   6.980   5.383   2.034
 1879W        W 5930   4.578   2.723   0.980
 1880W        W 5931   6.227   3.670   1.491
 1881W        W 5932   8.363  10.818   9.516
 1882W        W 5933   4.742   5.236   0.761
 1883W        W 5934   7.108   4.532   1.714
 1884W        W 5935  11.048  11.332   0.267
 1885W        W 5936   9.725   5.941  11.729
 1886W        W 5937   6.694  10.439   9.453
 1887W        W 5938   5.300  10.953   8.978
 1888W        W 5939   6.286   2.359   1.384
 1889W        W 5940   4.659   0.601   2.473
 1890W        W 5941   0.479   2.774  10.563
 1891W        W 5942  10.895   2.001   2.739
 1892W        W 5943   6.493   6.152   0.986
 1893W        W 5944   1.959  10.142   1.959
 1894W        W 5945   1.156   0.872   9.097
 1895W        W 5946   3.489   9.585   9.678
 1896W        W 5947  10.454   2.775   2.434
 1897W        W 5948   1.240   8.039   9.367
 1898W        W 5949   0.354   0.837   2.451
 1899W        W 5950   1.695   5.546   1.425
 1900W        W 5951   3.193   8.850   3.149
 1901W        W 5952  10.052   4.994  10.036
 1902W        W 5953   2.086   1.805   1.750
 1903W        W 5954   8.438   3.269  10.417
 1904W        W 5955   3.788   3.099  11.378
 1905W        W 5956   9.039   6.076   9.053
 1906W        W 5957  11.187   5.719  11.224
 1907W        W 5958   1.788   4.595   1.498
 1908W        W 5959   8.722   2.512   2.823
 1909W        W 5960  11.350  10.563  11.100
 1910W        W 5961  10.045   2.620  10.311
 1911W        W 5962   8.246   0.915  10.394
 1912W        W 5963   5.504   2.090   2.583
 1913W        W 5964   5.611   0.377   9.630
 1914W        W 5965  10.972   5.216  11.481
 1915W        W 5966  10.119   3.615   9.512
 1916W        W 5967   0.282   7.259   2.984
 1917W        W 5968   3.337  11.345   1.428
 1918W        W 5969   6.701   6.126   8.677
 1919W        W 5970   1.449   7.071   8.421
 1920W        W 5971  11.312   5.722   9.197
 1921W        W 5972  10.117   6.059   2.235
 1922W        W 5973   5.043  10.321   2.317
 1923W        W 5974   0.418   9.886   3.482
 1924W        W 5975   9.180   9.589   0.337
 1925W        W 5976   9.005  10.495   2.203
 1926W        W 5977   1.803   8.943   1.826
 1927W        W 5978   2.228   2.746  10.072
 1928W        W 5979   4.104   4.245   1.556
 1929W        W 5980   2.248   1.954   3.803
 1930W        W 5981   4.122   3.346  10.049
 1931W        W 5982   0.180   1.470   1.696
 1932W        W 5983   8.466  10.719   2.791
 1933W        W 5984   4.635   3.857   2.814
 1934W        W 5985   6.611   8.432  10.216
 1935W        W 5986   2.991  10.449  10.116
 1936W        W 5987   3.185   1.774   9.014
 1937W        W 5988   9.580  10.775   1.007
 1938W        W 5989   3.511   8.003   0.937
 1939W        W 5990   5.416   7.826   9.176
 1940W        W 5991   4.049   2.574   2.511
 1941W        W 5992   7.691  11.034   0.458
 1942W        W 5993   3.606   2.130   0.235
 1943W        W 5994   6.571   1.259   9.075
 1944W        W 5995   8.068   8.318   2.771
 1945W        W 5996   0.886   0.380   2.376
 1946W        W 5997   6.917   3.314   0.582
 1947W        W 5998   4.188   9.074   1.696
 1948W        W 5999   3.456   0.490   3.738
 1949W        W 6000   3.676   3.557   1.791
 1950W        W 6001   9.934   4.751  10.798
 1951W        W 6002   7.218   1.870   2.691
 1952W        W 6003   8.678   3.687  11.299
 1953W        W 6004  11.423   9.876   9.319
 1954W        W 6005   9.811   0.080   0.993
 1955W        W 6006   1.476   5.096   2.129
 1956W        W 6007   2.432   6.116   8.825
 1957W        W 6008   3.373   9.500   0.400
 1958W        W 6009   8.606   5.258  11.872
 1959W        W 6010   5.996   6.063  10.969
 1960W        W 6011  10.479   3.435   0.278
 1961W        W 6012   3.098  11.350  11.114
 1962W        W 6013   8.631   8.785   1.234
 1963W        W 6014   1.766   5.971   2.207
 1964W        W 6015   1.687  10.801   9.237
 1965W        W 6016  11.285   9.765  11.366
 1966W        W 6017   5.292   8.956   0.700
 1967W        W 6018  10.564  11.352  10.933
 1968W        W 6019  11.440   7.560   1.728
 1969W        W 6020   9.919   5.588   0.026
 1970W        W 6021   1.382   1.414   3.123
 1971W        W 6022   4.774   1.704  11.986
 1972W        W 6023   6.527   7.559   1.012
 1973W        W 6024   4.984   6.532   3.595
 1974W        W 6025   3.851   3.164   1.494
 1975W        W 6026   7.125   8.850  11.057
 1976W        W 6027   3.264   2.679   1.751
 1977W        W 6028   2.258   7.912   1.201
 1978W        W 6029   3.692   0.297   3.214
 1979W        W 6030   4.157  11.214  10.292
 1980W        W 6031  10.429   5.182  11.475
 1981W        W 6032   2.830   8.817   0.784
 1982W        W 6033  10.830   3.290   9.296
 1983W        W 6034   3.950   7.122   9.262
 1984W        W 6035   3.854   3.387  11.829
 1985W        W 6036  11.388   3.120   9.996
 1986W        W 6037   2.224   8.925  11.310
 1987W        W 6038   6.219  10.804  10.756
 1988W        W 6039   2.194   2.215  11.495
 1989W        W 6040   3.268   9.055  10.637
 1990W        W 6041   1.296   5.293   1.663
 1991W        W 6042   9.747   4.603  10.194
 1992W        W 6043   3.882   8.176   8.375
 1993W        W 6044   8.104  10.464   2.048
 1994W        W 6045   6.971   8.422   0.544
 1995W        W 6046   5.542   2.362   9.745
 1996W        W 6047   0.683   6.004   1.227
 1997W        W 6048   1.684   6.703  11.992
 1998W        W 6049   6.077   8.891   1.623
 1999W        W 6050   0.627   1.831   9.030
 2000W        W 6051   2.766   1.120  10.428
 2001W        W 6052   6.064   0.410   2.274
 2002W        W 6053   8.560   9.721   1.613
 2003W        W 6054  11.441   0.906  11.854
 2004W        W 6055   7.210   7.837   9.934
 2005W        W 6056   8.629  10.024  11.081
 2006W        W 6057   3.324   2.253   9.787
 2007W        W 6058   1.795   6.421   1.935
 2008W        W 6059   3.651   8.917   9.030
 2009W        W 6060   2.247   3.671  11.275
 2010W        W 6061  10.062   0.222   1.431
 2011W        W 6062   8.256   1.544  11.296
 2012W        W 6063   2.911   1.866  11.260
 2013W        W 6064   8.395   9.579   0.029
 2014W        W 6065   0.321   7.960   9.539
 2015W        W 6066   2.702   3.465   8.520
 2016W        W 6067   1.255   9.351   3.394
 2017W        W 6068  10.797   7.053  10.865
 2018W        W 6069   3.839   7.498   0.255
 2019W        W 6070   2.010   7.707   3.177
 2020W        W 6071   1.841   1.373   1.995
 2021W        W 6072   9.396   9.369  11.867
 2022W        W 6073   1.618  10.504   1.772
 2023W        W 6074   8.011  11.453   0.895
 2024W        W 6075   8.590   0.606   2.282
 2025W        W 6076   4.267   4.553  11.700
 2026W        W 6077   2.408   7.431   4.095
 2027W        W 6078   9.537   9.837   9.058
 2028W        W 6079   8.067   5.303   3.627
 2029W        W 6080   9.638  10.956  11.304
 2030W        W 6081   8.901   3.634  10.833
 2031W        W 6082   6.118   9.486   0.772
 2032W        W 6083   2.623  10.885   0.212
 2033W        W 6084  10.509   0.456   3.140
 2034W        W 6085   1.544   2.414   0.088
 2035W        W 6086  10.880   1.234   8.589
 2036W        W 6087   9.038  11.283   2.145
 2037W        W 6088   8.160   7.531   1.820
 2038W        W 6089   3.089   1.482   3.350
 2039W        W 6090   2.254   4.906   3.793
 2040W        W 6091   0.126   6.781  10.139
 2041W        W 6092  10.376   7.007  11.959
 2042W        W 6093  10.831   6.102  11.198
 2043W        W 6094   1.657   2.798   3.199
 2044W        W 6095  10.102   2.760   8.857
 2045W        W 6096   4.813  10.072   1.372
 2046W        W 6097   5.699  11.360   8.940
 2047W        W 6098   2.784   4.559   1.468
 2048W        W 6099   4.509  11.258  11.969
 2049W        W 6100   8.967   9.489  10.296
 2050W        W 6101   3.057   7.809   0.707
 2051W        W 6102   5.668   8.148   1.809
 2052W        W 6103   6.424   3.356   9.351
 2053W        W 6104   1.100   2.203   1.486
 2054W        W 6105   5.547   5.698   0.449
 2055W        W 6106   8.907   5.925  11.419
 2056W        W 6107  11.462   6.719   0.839
 2057W        W 6108   6.738  10.428   1.490
 2058W        W 6109   4.375   6.528   0.966
 2059W        W 6110  10.783   5.149   1.400
 2060W        W 6111   0.369  10.356   9.881
 2061W        W 6112   6.954   3.766   2.287
 2062W        W 6113   4.044   7.930   0.978
 2063W        W 6114   5.516   3.292   1.687
 2064W        W 6115  11.257   0.410  11.105
 2065W        W 6116   1.799  10.417   2.774
 2066W        W 6117   0.993   9.937   1.338
 2067W        W 6118  10.457   8.955  11.286
 2068W        W 6119   9.660   8.165   9.564
 2069W        W 6120   1.904   2.514  11.763
 2070W        W 6121   5.955   6.181   8.938
 2071W        W 6122   0.648   1.632   1.878
 2072W        W 6123   2.212  11.339  10.910
 2073W        W 6124   4.180  10.289   2.393
 2074W        W 6125   5.213   9.766   4.152
 2075W        W 6126   2.938   8.383   8.102
 2076W        W 6127   2.822   2.951  10.877
 2077W        W 6128   7.393   2.994  11.746
 2078W        W 6129   5.451   4.660   0.339
 2079W        W 6130   1.806   0.224   3.257
 2080W        W 6131  10.894   5.972   2.432
 2081W        W 6132   6.940   9.910  11.470
 2082W        W 6133   5.750   4.779  10.043
 2083W        W 6134  11.470   5.068   1.832
 2084W        W 6135   8.143   2.893   8.954
 2085W        W 6136   4.132   3.039   2.714
 2086W        W 6137   3.599  11.061   0.382
 2087W        W 6138   2.283   9.058   3.249
 2088W        W 6139   1.688   1.869   0.772
 2089W        W 6140   0.297  10.048  10.640
 2090W        W 6141  10.445   5.480   9.370
 2091W        W 6142  10.818   9.675  10.440
 2092W        W 6143   1.392   1.752  11.274
 2093W        W 6144   9.240   3.886   1.833
 2094W        W 6145   2.617   3.190   1.794
 2095W        W 6146   8.579   1.830   9.541
 2096W        W 6147   8.195  11.108  10.448
 2097W        W 6148   8.223   5.066   0.478
 2098W        W 6149   2.401   5.324   0.026
 2099W        W 6150   3.171   7.954   1.315
 2100W        W 6151   3.673   7.574   9.202
 2101W        W 6152   1.321   9.437   2.447
 2102W        W 6153   7.617  10.376   9.000
 2103W        W 6154   0.072   0.548   9.798
 2104W        W 6155  10.374   2.433   0.305
 2105W        W 6156  11.051   5.982  11.651
 2106W        W 6157   1.963   3.162   9.130
 2107W        W 6158  10.008   6.174   9.900
 2108W        W 6159   6.160  10.822   2.889
 2109W        W 6160  11.453   2.768   2.188
 2110W        W 6161   7.150   7.022  11.540
 2111W        W 6162   0.046   3.338  11.357
 2112W        W 6163   5.741   0.802   2.196
 2113W        W 6164   0.200   3.184  11.861
 2114W        W 6165   3.884   1.049  11.394
 2115W        W 6166   1.900   0.250  10.860
 2116W        W 6167   6.014   4.399  10.322
 2117W        W 6168   9.337   7.587   8.834
 2118W        W 6169   3.305   5.124   9.625
 2119W        W 6170   3.406   3.254   3.147
 2120W        W 6171   3.589   9.319  10.251
 2121W        W 6172  10.182   0.229   2.817
 2122W        W 6173   3.998   8.908   9.423
 2123W        W 6174   5.513   8.289   4.084
 2124W        W 6175   2.186   8.421   2.126
 2125W        W 6176  10.416   6.531   2.430
 2126W        W 6177   8.131   9.965   0.256
 2127W        W 6178  11.331   3.913   1.028
 2128W        W 6179   0.838   7.439   1.752
 2129W        W 6180  10.526   6.784   1.336
 2130W        W 6181   1.923   9.674  11.312
 2131W        W 6182   3.282   2.247  10.288
 2132W        W 6183   8.566   2.635   3.627
 2133W        W 6184   4.612   2.425   9.588
 2134W        W 6185   3.173   9.412  11.924
 2135W        W 6186   2.104   5.609   0.334
 2136W        W 6187  10.025   1.181   2.578
 2137W        W 6188   1.048   3.641   1.465
 2138W        W 6189   9.607   9.797  10.814
 2139W        W 6190   0.777   6.140  10.392
 2140W        W 6191  10.053   0.809   9.077
 2141W        W 6192   9.164   1.274   3.209
 2142W        W 6193   9.252   8.352  11.472
 2143W        W 6194   1.891   1.929   1.275
 2144W        W 6195   4.367   4.395   0.204
 2145W        W 6196   8.650   1.759   0.426
 2146W        W 6197   9.757   6.715   1.849
 2147W        W 6198   1.664   9.410   1.618
 2148W        W 6199   4.499   8.372  10.040
 2149W        W 6200   3.766   9.678   8.842
 2150W        W 6201   3.654   0.274   2.272
 2151W        W 6202   0.450   8.856   9.296
 2152W        W 6203   2.465   3.243   3.206
 2153W        W 6204   5.069   3.002  10.022
 2154W        W 6205   5.234   8.604   3.092
 2155W        W 6206   1.432   1.739  11.778
 2156W        W 6207   9.996  10.507  11.822
 2157W        W 6208   4.571   4.223   3.406
 2158W        W 6209   4.127   2.564   0.773
 2159W        W 6210   8.282   3.693   1.880
 2160W        W 6211   0.543  10.338   1.831
 2161W        W 6212   7.862   4.093   9.348
 2162W        W 6213   0.844   3.645   9.039
 2163W        W 6214   7.061   3.355  11.046
 2164W        W 6215   1.610  10.538  10.387
 2165W        W 6216   6.609   4.560   0.869
 2166W        W 6217   5.253   1.164   9.551
 2167W        W 6218   0.104   7.072   1.243
 2168W        W 6219   2.135  11.334   2.330
 2169W        W 6220   7.030   0.382   9.432
 2170W        W 6221   2.745   5.651  11.777
 2171W        W 6222   5.559   9.451   2.317
 2172W        W 6223   0.825   4.816  10.931
 2173W        W 6224   1.753   8.060  10.070
 2174W        W 6225   2.516   9.016   1.564
 2175W        W 6226   9.624   8.452   1.641
 2176W        W 6227   8.408   2.327   3.224
 2177W        W 6228   7.033   9.717   0.731
 2178W        W 6229   9.591   7.454  11.647
 2179W        W 6230  11.241   6.068   1.491
 2180W        W 6231  10.582   6.133   2.074
 2181W        W 6232   7.699   0.665   9.281
 2182W        W 6233   1.528   9.499  10.989
 2183W        W 6234   9.972   1.721   2.113
 2184W        W 6235   3.218   6.053   1.278
 2185W        W 6236   3.785   9.268  11.256
 2186W        W 6237   5.092   5.567   0.252
 2187W        W 6238   8.649   3.747  10.385
 2188W        W 6239   0.909   9.767  11.411
 2189W        W 6240   9.895   8.868   2.371
 2190W        W 6241  11.061   3.150   0.965
 2191W        W 6242   9.800   7.488   9.043
 2192W        W 6243  10.836   7.555  10.919
 2193W        W 6244   5.490   4.092   9.525
 2194W        W 6245   7.096   7.454  11.271
 2195W        W 6246   1.786   0.508   1.725
 2196W        W 6247   9.269   0.776  10.741
 2197W        W 6248   3.713   3.273   1.020
 2198W        W 6249   8.382   6.331   0.804
 2199W        W 6250   1.783   9.029   9.789
 2200W        W 6251   3.144   0.233   0.020
 2201W        W 6252   1.370   7.104   0.071
 2202W        W 6253   2.852   7.944  10.948
 2203W        W 6254  10.518  11.419   3.036
 2204W        W 6255   0.796   9.896  10.028
 2205W        W 6256   6.458   9.983   1.828
 2206W        W 6257   6.552   0.868   3.376
 2207W        W 6258   7.673   6.331   1.175
 2208W        W 6259   7.907   5.583   0.202
 2209W        W 6260   9.401   3.761  10.810
 2210W        W 6261  10.412   6.986   2.705
 2211W        W 6262   2.280   8.467   0.193
 2212W        W 6263   5.117   7.030   1.858
 2213W        W 6264   8.466  11.326  11.205
 2214W        W 6265   5.559  10.252   3.410
 2215W        W 6266  10.448   2.751  11.888
 2216W        W 6267   6.633   0.920  11.058
 2217W        W 6268  11.021   1.347   2.917
 2218W        W 6269   7.614   3.054   3.276
 2219W        W 6270   8.900   4.232  11.649
 2220W        W 6271   1.589  10.249   0.157
 2221W        W 6272  10.604   3.559   1.847
 2222W        W 6273  11.122   9.933  10.864
 2223W        W 6274   7.534   6.246  11.509
 2224W        W 6275   4.588   9.319   0.740
 2225W        W 6276  10.303  11.124   9.248
 2226W        W 6277   5.422   3.746   3.065
 2227W        W 6278   5.606   4.838   0.814
 2228W        W 6279   0.495   0.765  10.032
 2229W        W 6280   1.481   8.654   0.559
 2230W        W 6281   7.401   5.768  11.512
 2231W        W 6282   0.435   3.563  11.629
 2232W        W 6283  10.223   3.680   3.363
 2233W        W 6284   1.386   3.559   8.963
 2234W        W 6285  10.635   7.493  10.306
 2235W        W 6286  10.814   9.077   9.579
 2236W        W 6287   3.538   4.660   0.148
 2237W        W 6288  10.564  10.560   2.315
 2238W        W 6289   6.621   6.325   9.527
 2239W        W 6290   6.210   0.652   0.468
 2240W        W 6291   6.498   7.511  10.518
 2241W        W 6292   5.183   3.543   9.127
 2242W        W 6293   4.638   2.457   1.415
 2243W        W 6294   4.052   4.781   0.289
 2244W        W 6295  10.925   6.905  11.477
 2245W        W 6296   8.094   5.934   1.559
 2246W        W 6297  10.478   4.084  11.400
 2247W        W 6298   6.741   9.809  10.075
 2248W        W 6299   8.411   3.525   9.974
 2249W        W 6300   3.312   9.323   1.314
 2250W        W 6301   8.240   1.187   9.970
 2251W        W 6302   9.763   6.049  10.351
 2252W        W 6303   2.685   1.184   3.233
 2253W        W 6304   4.254   7.194   0.230
 2254W        W 6305   3.718   1.832  10.969
 2255W        W 6306   1.784   3.731   2.617
 2256W        W 6307   7.935   9.796   0.880
 2257W        W 6308  11.274   7.264  10.967
 2258W        W 6309  10.490   7.854   2.704
 2259W        W 6310   9.410   8.508  10.435
 2260W        W 6311   6.684  10.296   9.967
 2261W        W 6312   7.095   5.155  11.808
 2262W        W 6313   2.374   9.466   2.165
 2263W        W 6314   4.340   8.570   2.907
 2264W        W 6315  10.420   7.993   0.047
 2265W        W 6316   5.562   7.124   2.201
 2266W        W 6317   2.906   7.255  10.294
 2267W        W 6318   3.827   4.579   9.041
 2268W        W 6319   0.351   0.994  10.517
 2269W        W 6320  11.214   3.677   9.985
 2270W        W 6321   6.230   3.158   2.745
 2271W        W 6322   1.193   8.770  11.941
 2272W        W 6323   3.553   8.497   2.245
 2273W        W 6324   0.070  10.100  11.100
 2274W        W 6325   0.374   6.399   9.269
 2275W        W 6326   3.724  10.511   2.455
 2276W        W 6327   1.948   4.311  11.915
 2277W        W 6328   7.924   1.435   2.616
 2278W        W 6329   2.216  10.799  10.077
 2279W        W 6330   1.233  10.947  11.853
 2280W        W 6331   7.557   4.510   0.966
 2281W        W 6332   4.585   0.682   8.965
 2282W        W 6333   7.717   8.485  10.863
 2283W        W 6334   3.407   1.765  10.446
 2284W        W 6335   8.536   8.170  10.445
 2285W        W 6336   3.367   0.286   8.363
 2286W        W 6337   6.210   7.004  11.406
 2287W        W 6338   0.449   8.129   1.708
 2288W        W 6339   4.464   0.364   3.337
 2289W        W 6340   6.317   6.955   2.675
 2290W        W 6341   2.436   6.600   0.177
 2291W        W 6342   2.965   5.124  10.009
 2292W        W 6343   5.946  10.928   0.951
 2293W        W 6344   8.988   9.101   0.033
 2294W        W 6345   0.575  11.471   2.312
 2295W        W 6346   8.727   0.397   3.236
 2296W        W 6347   4.598  10.400  10.836
 2297W        W 6348   4.265   7.621   2.714
 2298W        W 6349   1.679   9.006   8.736
 2299W        W 6350   5.494   0.196   0.893
 2300W        W 6351   5.316   6.865  11.278
 2301W        W 6352  10.271   9.887   2.652
 2302W        W 6353   2.583   8.559  11.505
 2303W        W 6354  10.909   4.339  11.353
 2304W        W 6355   1.419   2.828   0.875
 2305W        W 6356   3.126  11.366   9.681
 2306W        W 6357   7.552   7.537   9.388
 2307W        W 6358   6.635   1.967   0.046
 2308W        W 6359   8.383   5.540   1.693
 2309W        W 6360   2.184  10.005  10.383
 2310W        W 6361   2.785   7.076   0.178
 2311W        W 6362   2.356   7.619   2.786
 2312W        W 6363  11.428   7.709   2.233
 2313W        W 6364   2.754   6.030   9.542
 2314W        W 6365   6.136   0.899   2.506
 2315W        W 6366   0.067   2.701   1.317
 2316W        W 6367   7.335   0.357  11.966
 2317W        W 6368   4.528  10.441   9.814
 2318W        W 6369   9.466   5.563   1.596
 2319W        W 6370   5.610   9.940   9.980
 2320W        W 6371  10.899   0.247   8.902
 2321W        W 6372   6.200   8.456   2.651
 2322W        W 6373   6.972   6.016   1.710
 2323W        W 6374   8.419   9.473   9.019
 2324W        W 6375   6.754   8.964   8.306
 2325W        W 6376   8.372  11.214   1.175
 2326W        W 6377   6.503   3.640   0.709
 2327W        W 6378   5.599   6.913   3.108
 2328W        W 6379   8.026   6.591   2.265
 2329W        W 6380   9.442  11.490   2.359
 2330W        W 6381   1.955   4.602  11.452
 2331W        W 6382   6.489   2.770   1.153
 2332W        W 6383   1.929   7.615   1.453
 2333W        W 6384   4.509   8.208  11.148
 2334W        W 6385  10.606   9.187   0.982
 2335W        W 6386   6.448   4.344  11.414
 2336W        W 6387   3.246   1.815   0.417
 2337W        W 6388   8.986   6.737   3.785
 2338W        W 6389   1.753   8.660   1.363
 2339W        W 6390   7.468   4.682   0.494
 2340W        W 6391   3.010   0.450   2.002
 2341W        W 6392   0.742   6.744   3.515
 2342W        W 6393   8.002   5.100   0.956
 2343W        W 6394   3.705   3.079  10.096
 2344W        W 6395   9.698   6.190   0.671
 2345W        W 6396   7.793   3.777   8.960
 2346W        W 6397   2.985   9.706   9.593
 2347W        W 6398   8.139  10.882   0.226
 2348W        W 6399  10.400   5.783   1.291
 2349W        W 6400   6.102   0.426   0.921
 2350W        W 6401   0.050   2.305   0.988
 2351W        W 6402   5.699   0.894   0.024
 2352W        W 6403   9.801   4.251  11.996
 2353W        W 6404   0.217   6.764   2.949
 2354W        W 6405   0.229  10.990   9.426
 2355W        W 6406   5.469   3.241  10.780
 2356W        W 6407   2.163   6.830  11.274
 2357W        W 6408   4.091   0.472   2.956
 2358W        W 6409   2.763   5.561   2.299
 2359W        W 6410  10.904   6.484   2.273
 2360W        W 6411   8.385   2.406  10.571
 2361W        W 6412   6.280   5.200   0.532
 2362W        W 6413   8.960   7.941   1.287
 2363W        W 6414  10.845   7.251  11.944
 2364W        W 6415   5.093   2.252   8.600
 2365W        W 6416   5.859   6.730  11.986
 2366W        W 6417   3.645   5.590   1.194
 2367W        W 6418   2.826  10.049   2.509
 2368W        W 6419   7.650   9.956   1.344
 2369W        W 6420   8.135   5.788   2.092
 2370W        W 6421   7.616   2.889  10.418
 2371W        W 6422   9.096   4.097   1.354
 2372W        W 6423   6.203   4.147  10.966
 2373W        W 6424   7.765   3.456   2.945
 2374W        W 6425   6.061   9.624  11.317
 2375W        W 6426  10.400   1.162  10.834
 2376W        W 6427   7.754   4.412   3.367
 2377W        W 6428   6.257   6.516   1.279
 2378W        W 6429  10.959   2.814   3.052
 2379W        W 6430   7.239   6.606  11.880
 2380W        W 6431   7.940   2.113   3.427
 2381W        W 6432   0.370   3.179  10.259
 2382W        W 6433   0.081  11.321   2.368
 2383W        W 6434   1.588   1.799   8.543
 2384W        W 6435   4.089   3.974   0.094
 2385W        W 6436   8.510   4.683   1.870
 2386W        W 6437   9.822   1.884   3.050
 2387W        W 6438   0.889   5.542   0.946
 2388W        W 6439   7.923   3.262  10.625
 2389W        W 6440   3.264   7.886   2.743
 2390W        W 6441   1.800   5.519   1.953
 2391W        W 6442   2.900  10.508   2.331
 2392W        W 6443   5.489   3.731   9.993
 2393W        W 6444   0.081   6.980   0.395
 2394W        W 6445   1.614   7.536   8.647
 2395W        W 6446   6.671   2.403   3.198
 2396W        W 6447   8.512   1.291   0.218
 2397W        W 6448   1.859   2.765   1.724
 2398W        W 6449   3.624   1.789   0.836
 2399W        W 6450   4.579  11.305   1.923
 2400W        W 6451   0.938   5.522   1.954
 2401W        W 6452   5.295   7.079   2.677
 2402W        W 6453   7.096  10.849  11.710
 2403W        W 6454  10.754   8.511  11.392
 2404W        W 6455   9.801   7.096  11.092
 2405W        W 6456   4.667   1.708  11.076
 2406W        W 6457   9.981   6.564   0.874
 2407W        W 6458   2.926   5.085   9.064
 2408W        W 6459  10.783   4.629  10.453
 2409W        W 6460   0.299   6.286  10.263
 2410W        W 6461   3.257   6.915   0.298
 2411W        W 6462   6.184   1.448   0.649
 2412W        W 6463   1.825   7.156  11.783
 2413W        W 6464   0.748   9.371   1.683
 2414W        W 6465   4.048   1.801   9.741
 2415W        W 6466   7.393  10.818  10.928
 2416W        W 6467   0.685   0.444   0.376
 2417W        W 6468  11.147   6.920   2.191
 2418W        W 6469   5.233   2.619  11.284
 2419W        W 6470   6.552  10.532  11.826
 2420W        W 6471   9.860   6.928   8.475
 2421W        W 6472   3.348   3.625   0.946
 2422W        W 6473   7.926   1.858   9.565
 2423W        W 6474   1.306   9.935   2.396
 2424W        W 6475   9.870   7.117   9.969
 2425W        W 6476   5.379   1.201   0.319
 2426W        W 6477   6.967  10.834  11.188
 2427W        W 6478   5.443   4.323  10.397
 2428W        W 6479   1.857   7.068  10.780
 2429W        W 6480   2.259   8.056   3.488
 2430W        W 6481   5.390   2.289   0.292
 2431W        W 6482   8.973   0.071   0.493
 2432W        W 6483   8.994   5.559  11.073
 2433W        W 6484   1.861   1.197   2.891
 2434W        W 6485   2.805   5.941   0.945
 2435W        W 6486   4.347   3.912   1.862
 2436W        W 6487  10.504   9.323  10.923
 2437W        W 6488  10.112   1.414   3.061
 2438W        W 6489   8.857  10.786   9.961
 2439W        W 6490  10.939   9.958   9.548
 2440W        W 6491  10.055   4.794   1.854
 2441W        W 6492   0.583   0.440   2.795
 2442W        W 6493   8.160   9.743   2.772
 2443W        W 6494   2.223   6.685  10.056
 2444W        W 6495   0.913  10.832   1.457
 2445W        W 6496   2.709   1.448  10.001
 2446W        W 6497   9.916   9.251   8.622
 2447W        W 6498   6.513   7.849   1.449
 2448W        W 6499   0.266   4.769   3.340
 2449W        W 6500   8.361   9.177  10.606
 2450W        W 6501   3.210   3.143   0.894
 2451W        W 6502  10.920  11.475  10.014
 2452W        W 6503   8.571   5.537   9.525
 2453W        W 6504  10.578   8.996  10.003
 2454W        W 6505   1.298   1.472   0.934
 2455W        W 6506   8.512  10.400   2.339
 2456W        W 6507  11.188   5.637   3.202
 2457W        W 6508   6.001   6.695  10.219
 2458W        W 6509   7.320   3.227   1.080
 2459W        W 6510   9.536   4.631   9.261
 2460W        W 6511   3.591   5.063  11.403
 2461W        W 6512   2.934  10.557   0.496
 2462W        W 6513   6.180   1.046  11.274
 2463W        W 6514   5.689   8.773   3.278
 2464W        W 6515   2.737   0.476   0.704
 2465W        W 6516   8.483   7.649   1.419
 2466W        W 6517   3.169   4.261   1.711
 2467W        W 6518   0.101   0.403   3.009
 2468W        W 6519   8.264   5.528   4.053
 2469W        W 6520   1.648   9.466   2.838
 2470W        W 6521  10.716   1.259   0.129
 2471W        W 6522   6.594   5.060   0.922
 2472W        W 6523   2.205   9.492   9.660
 2473W        W 6524   1.325   6.150   3.003
 2474W        W 6525   1.951   4.614   2.895
 2475W        W 6526   8.990   5.916   9.830
 2476W        W 6527   2.212   6.659   2.645
 2477W        W 6528  11.042   8.720   3.172
 2478W        W 6529   8.498   4.162  11.324
 2479W        W 6530   3.175   4.999   2.994
 2480W        W 6531   3.626   9.835  10.280
 2481W        W 6532   7.796   0.283  11.783
 2482W        W 6533   6.200  10.811   9.461
 2483W        W 6534  10.556   8.194   2.325
 2484W        W 6535   5.210  11.499   2.224
 2485W        W 6536   0.532   5.034   0.240
 2486W        W 6537   3.327   4.219  11.847
 2487W        W 6538   3.882   1.724  10.280
 2488W        W 6539   3.668   0.244   0.858
 2489W        W 6540   3.237   9.763   0.848
 2490W        W 6541   7.476   8.921   9.672
 2491W        W 6542   5.260   8.760   1.163
 2492W        W 6543   2.290  11.437   2.817
 2493W        W 6544   9.029   3.131   2.315
 2494W        W 6545   1.406   0.738   1.400
 2495W        W 6546  10.861   0.019  11.322
 2496W        W 6547   8.009   1.790   2.985
 2497W        W 6548  11.288  11.229   9.261
 2498W        W 6549   9.911   5.223   0.376
 2499W        W 6550   5.518   5.348   0.040
 2500W        W 6551   3.128   9.203   9.629
 2501W        W 6552   3.628   4.914   2.232
 2502W        W 6553   1.792   7.655   9.144
 2503W        W 6554   9.324   8.465   9.889
 2504W        W 6555   8.953   6.379   0.113
 2505W        W 6556  10.591   8.959   1.899
 2506W        W 6557   3.260  11.435   0.484
 2507W        W 6558   1.090   9.364   1.317
 2508W        W 6559   5.281   0.489   3.519
 2509W        W 6560   7.126  10.824   2.622
 2510W        W 6561   2.109   7.229   3.301
 2511W        W 6562   1.710   5.052   3.093
 2512W        W 6563   5.685   5.667  10.048
 2513W        W 6564   0.075   3.608   2.050
 2514W        W 6565   0.904   7.176  11.856
 2515W        W 6566   9.672   7.981  10.940
 2516W        W 6567   1.325   3.624  11.190
 2517W        W 6568   8.275  10.898   2.339
 2518W        W 6569   1.806   4.713  10.565
 2519W        W 6570   9.829   5.677   1.983
 2520W        W 6571   3.473   8.044   9.335
 2521W        W 6572   2.604   4.143   3.124
 2522W        W 6573   6.262   1.142   9.987
 2523W        W 6574   5.504   3.766   2.569
 2524W        W 6575   3.083   8.636  11.418
 2525W        W 6576   9.506   5.736   1.120
 2526W        W 6577   8.339   4.181   9.517
 2527W        W 6578   2.265   0.278  11.962
 2528W        W 6579   6.497   4.024   3.677
 2529W        W 6580   4.714   9.736   0.989
 2530W        W 6581   2.758   6.229   1.392
 2531W        W 6582  10.979   6.603  10.685
 2532W        W 6583   1.699   4.087   0.341
 2533W        W 6584   2.924   0.310  10.716
 2534W        W 6585  10.424   9.455   1.873
 2535W        W 6586   2.750   7.570  11.301
 2536W        W 6587   0.421   3.102   1.375
 2537W        W 6588   4.676  10.377   3.165
 2538W        W 6589   0.045   9.625  10.896
 2539W        W 6590   5.648   6.200   1.815
 2540W        W 6591   6.237   8.070   9.487
 2541W        W 6592   2.637   5.107  11.272
 2542W        W 6593   6.067   2.004  11.383
 2543W        W 6594   1.335   4.171   0.006
 2544W        W 6595   6.577   7.613   1.921
 2545W        W 6596   3.740   9.408   3.848
 2546W        W 6597   0.897   7.226   9.073
 2547W        W 6598   7.546   2.295   2.189
 2548W        W 6599  11.331   6.992   3.167
 2549W        W 6600   7.125  10.517   9.865
 2550W        W 6601   8.916   9.206  10.722
 2551W        W 6602  10.343   2.770   0.852
 2552W        W 6603   8.720   6.837  11.947
 2553W        W 6604  11.073   8.981   1.003
 2554W        W 6605  10.436   0.803   9.849
 2555W        W 6606  10.412   3.670   0.733
 2556W        W 6607   1.852   5.836   9.871
 2557W        W 6608   9.792  10.555   2.786
 2558W        W 6609   9.787   0.920  11.927
 2559W        W 6610  10.863   3.483  10.845
 2560W        W 6611   8.847   5.610   9.068
 2561W        W 6612   5.732   3.644   3.449
 2562W        W 6613   3.778   9.857   8.332
 2563W        W 6614   7.491   9.200   0.238
 2564W        W 6615  10.179   5.289   3.948
 2565W        W 6616   0.199   5.653   3.254
 2566W        W 6617   1.685   5.071  11.503
 2567W        W 6618  10.404   8.114  11.471
 2568W        W 6619   6.827   7.191   3.604
 2569W        W 6620   9.653   5.070  10.368
 2570W        W 6621   0.262   1.912   0.325
 2571W        W 6622   7.071   9.498   0.276
 2572W        W 6623   3.041   4.676   9.623
 2573W        W 6624   6.388   4.668  10.015
 2574W        W 6625   4.752   0.487   9.410
 2575W        W 6626   4.910   4.384  10.336
 2576W        W 6627   7.070   1.802   3.180
 2577W        W 6628   8.921   6.305   9.499
 2578W        W 6629   9.835   9.615   2.611
 2579W        W 6630   4.609   8.353  10.550
 2580W        W 6631   4.841   5.714   1.553
 2581W        W 6632   2.222   2.058   9.607
 2582W        W 6633  11.239   5.292   8.901
 2583W        W 6634   6.482   2.719   2.189
 2584W        W 6635   9.344   8.525   0.744
 2585W        W 6636  10.330   3.160   3.708
 2586W        W 6637   2.899   2.476   9.978
 2587W        W 6638  10.544   3.688   2.949
 2588W        W 6639   3.617   7.567  10.243
 2589W        W 6640   1.763   8.436  10.469
 2590W        W 6641   4.969   3.508   0.939
 2591W        W 6642   0.981   2.635   1.745
 2592W        W 6643   3.826  10.922   9.480
 2593W        W 6644  11.388   2.145   3.460
 2594W        W 6645   8.913   5.097   9.793
 2595W        W 6646  11.492   5.570   3.742
 2596W        W 6647   7.367   6.435   0.761
 2597W        W 6648   1.216   0.939   3.263
 2598W        W 6649   3.144   0.188   2.419
 2599W        W 6650   2.731   6.899   9.910
 2600W        W 6651   8.046   3.823  11.023
 2601W        W 6652   9.707   5.222   2.556
 2602W        W 6653   7.241  10.019   8.970
 2603W        W 6654   2.277   5.741   9.603
 2604W        W 6655   3.596   1.769   9.355
 2605W        W 6656  10.971   4.802   9.349
 2606W        W 6657   8.501  11.222   3.728
 2607W        W 6658   3.926   9.347   1.344
 2608W        W 6659   8.041   9.189  10.175
 2609W        W 6660   0.919   5.339   9.080
 2610W        W 6661   0.380   7.679   1.972
 2611W        W 6662   1.632  11.333   2.423
 2612W        W 6663   9.317  10.383   1.351
 2613W        W 6664   0.871   4.816   9.076
 2614W        W 6665   3.271  10.297   0.860
 2615W        W 6666   7.186   2.251   9.159
 2616W        W 6667   9.507   1.504  10.327
 2617W        W 6668   3.786   5.067   1.234
 2618W        W 6669  10.343   7.923  10.298
 2619W        W 6670  10.995   9.346   2.074
 2620W        W 6671   1.796   0.419   0.658
 2621W        W 6672   2.846   9.922  11.948
 2622W        W 6673   0.515   3.244   2.711
 2623W        W 6674   3.902   5.595   1.634
 2624W        W 6675   9.215  10.613  11.700
 2625W        W 6676   2.193   1.746   0.868
 2626W        W 6677   2.228   6.176   2.464
 2627W        W 6678  10.969   7.531   3.494
 2628W        W 6679   7.254   5.666  10.727
 2629W        W 6680   2.747   9.065   2.971
 2630W        W 6681   1.352   5.468  11.120
 2631W        W 6682   5.653   0.731   8.922
 2632W        W 6683   0.391  11.006   2.121
 2633W        W 6684   9.491  10.607   9.366
 2634W        W 6685  10.340   2.284   1.661
 2635W        W 6686   3.147   1.649   0.910
 2636W        W 6687   4.524   3.686   9.940
 2637W        W 6688   7.915   7.113   1.671
 2638W        W 6689   2.096   4.230   8.880
 2639W        W 6690   0.389   4.788  10.272
 2640W        W 6691  10.738   8.611   0.875
 2641W        W 6692   5.407   2.825   1.920
 2642W        W 6693   3.151   7.510  10.997
 2643W        W 6694   5.577   4.085   1.250
 2644W        W 6695   4.570  11.321  10.586
 2645W        W 6696   0.981   9.767  11.937
 2646W        W 6697   3.936  10.621   1.532
 2647W        W 6698   5.072  10.320  11.016
 2648W        W 6699   4.159  10.638   3.444
 2649W        W 6700   4.724   4.281  10.810
 2650W        W 6701  10.795   1.198   2.070
 2651W        W 6702   2.495   7.584   3.305
 2652W        W 6703  10.434  10.416   9.128
 2653W        W 6704   4.690   8.854   1.430
 2654W        W 6705   4.727   3.921   1.509
 2655W        W 6706   7.717   3.994   2.798
 2656W        W 6707   7.002   3.815   0.751
 2657W        W 6708   4.244   3.281   2.274
 2658W        W 6709   5.741   7.143   0.695
 2659W        W 6710   9.508  10.574   0.497
 2660W        W 6711   9.539   1.003   0.822
 2661W        W 6712  10.330   8.365  10.580
 2662W        W 6713   0.428   6.923  11.238
 2663W        W 6714   7.984   1.709  10.057
 2664W        W 6715   8.419   5.041   8.629
 2665W        W 6716   9.848   7.640   9.905
 2666W        W 6717   1.510  10.428   3.218
 2667W        W 6718   0.847   1.005  10.326
 2668W        W 6719  10.354  11.352   3.541
 2669W        W 6720   6.206   9.926  10.045
 2670W        W 6721   9.103   8.913   1.055
 2671W        W 6722   9.813  10.362   1.238
 2672W        W 6723   6.134   2.948  11.241
 2673W        W 6724   8.897   1.013  11.007
 2674W        W 6725  11.230   0.223   2.241
 2675W        W 6726   2.807   5.085   2.677
 2676W        W 6727   8.392  11.239   2.759
 2677W        W 6728   3.199  10.982   1.796
 2678W        W 6729   1.417   3.303   9.456
 2679W        W 6730   9.519   3.655  11.640
 2680W        W 6731   9.822   2.160  10.503
 2681W        W 6732   7.304   8.941   2.170
 2682W        W 6733   7.590  11.198   8.979
 2683W        W 6734   5.797   7.761   3.263
 2684W        W 6735   7.974   0.488  10.460
 2685W        W 6736   6.966   0.476   2.257
 2686W        W 6737   1.015   9.247  11.882
 2687W        W 6738   4.758   0.972  11.457
 2688W        W 6739   7.441   0.080   2.655
 2689W        W 6740   6.961   6.697   0.863
 2690W        W 6741   6.094   7.420   2.722
 2691W        W 6742   6.616   2.668   0.658
 2692W        W 6743   6.710   3.048   2.974
 2693W        W 6744   7.163   8.929   2.658
 2694W        W 6745   6.592   8.353   1.408
 2695W        W 6746   4.777   2.918   8.684
 2696W        W 6747   8.509   6.071   0.205
 2697W        W 6748   3.844   9.881  10.753
 2698W        W 6749  10.407   1.584   1.366
 2699W        W 6750   2.378   6.049  10.451
 2700W        W 6751   0.292   4.580   8.818
 2701W        W 6752   8.429   7.132  11.648
 2702W        W 6753   1.451  10.040   1.899
 2703W        W 6754   5.635   1.463   9.397
 2704W        W 6755   3.759   0.840   9.472
 2705W        W 6756   9.804  11.273   1.394
 2706W        W 6757  10.548   2.661   9.592
 2707W        W 6758   8.126   0.525   0.857
 2708W        W 6759   8.709   3.135   3.541
 2709W        W 6760   9.929   2.380   1.328
 2710W        W 6761   7.629   9.813  10.269
 2711W        W 6762   3.325   0.690   2.318
 2712W        W 6763   6.214   1.842   1.793
 2713W        W 6764   3.250   7.800   3.255
 2714W        W 6765   5.046   9.140  10.266
 2715W        W 6766   2.428   5.186   9.026
 2716W        W 6767   7.716   5.467   3.948
 2717W        W 6768   4.087   5.728  10.435
 2718W        W 6769   2.239   4.638  10.838
 2719W        W 6770   0.664  10.241   9.477
 2720W        W 6771   8.168   6.812   9.054
 2721W        W 6772   6.089   9.587   9.227
 2722W        W 6773   5.895   3.904  10.267
 2723W        W 6774   8.995   8.176   2.782
 2724W        W 6775   0.204   6.046   2.674
 2725W        W 6776  11.135   8.831  10.507
 2726W        W 6777   5.399   0.361   1.840
 2727W        W 6778   0.416   7.857  10.495
 2728W        W 6779  10.941   9.617   3.630
 2729W        W 6780   0.428   3.891   1.804
 2730W        W 6781  11.361   9.839   9.840
 2731W        W 6782   0.718   5.529   1.473
 2732W        W 6783   0.519   8.434   9.589
 2733W        W 6784   0.628   1.914  10.684
 2734W        W 6785   7.200  10.060  10.078
 2735W        W 6786   4.534   5.799  10.159
 2736W        W 6787   7.844  10.900  10.161
 2737W        W 6788  10.071   6.566   3.316
 2738W        W 6789   7.410   0.819   1.107
 2739W        W 6790   5.603   5.162   9.710
 2740W        W 6791   9.907   3.953   2.589
 2741W        W 6792   5.583   8.442  10.461
 2742W        W 6793   8.481  10.180   1.862
 2743W        W 6794   5.208   4.950  11.126
 2744W        W 6795  10.903   8.198   9.060
 2745W        W 6796   7.467   3.477  11.904
 2746W        W 6797   7.153   5.153  10.848
 2747W        W 6798  11.337  10.275  11.526
 2748W        W 6799   0.968   1.148   1.820
 2749W        W 6800   2.204   6.472  10.916
 2750W        W 6801   5.220   4.127  10.831
 2751W        W 6802   8.894   2.304  10.493
 2752W        W 6803   2.900   7.055   2.249
 2753W        W 6804   7.799   3.089   0.076
 2754W        W 6805   8.087  11.359   0.404
 2755W        W 6806   7.532   1.178   9.465
 2756W        W 6807   4.335   8.273   2.045
 2757W        W 6808   2.670   6.730   1.383
 2758W        W 6809   6.502   3.234   1.458
 2759W        W 6810   2.394   4.707   8.836
 2760W        W 6811   7.088   9.926  11.989
 2761W        W 6812  11.125   5.721   0.725
 2762W        W 6813   5.936  10.092   1.860
 2763W        W 6814   9.598   7.946   2.343
 2764W        W 6815   5.246   4.769  10.223
 2765W        W 6816  10.024   1.337   9.023
 2766W        W 6817   5.582   0.394  11.990
 2767W        W 6818   4.803  10.385   0.307
 2768W        W 6819   7.619   8.140   1.086
 2769W        W 6820   2.242   6.126   0.351
 2770W        W 6821   2.839   9.033   1.956
 2771W        W 6822   2.245   0.409   1.500
 2772W        W 6823   2.200   4.683   2.372
 2773W        W 6824   4.027   2.060  11.893
 2774W        W 6825  10.528   1.211   2.730
 2775W        W 6826  10.215   5.101   9.061
 2776W        W 6827   7.729   4.512   2.859
 2777W        W 6828   2.130   5.054  11.227
 2778W        W 6829   3.954  10.693   0.357
 2779W        W 6830   8.673   7.882   3.195
 2780W        W 6831   2.896   9.627   1.248
 2781W        W 6832   5.531   1.242   2.401
 2782W        W 6833   7.684   4.671   8.447
 2783W        W 6834   2.553   4.210   9.403
 2784W        W 6835   6.991   7.567   0.802
 2785W        W 6836  10.277   4.560   0.935
 2786W        W 6837  10.388   8.671   2.293
 2787W        W 6838   4.632   2.768  11.881
 2788W        W 6839   6.493   2.198  10.230
 2789W        W 6840   8.310   3.177  11.959
 2790W        W 6841   8.228  10.506   8.913
 2791W        W 6842   5.778   9.848  10.919
 2792W        W 6843   8.499   9.130   0.250
 2793W        W 6844   5.318   2.263   1.778
 2794W        W 6845   8.507   4.646   1.365
 2795W        W 6846   5.514   8.931   2.333
 2796W        W 6847   5.895   1.212  10.783
 2797W        W 6848   9.758   4.494  11.223
 2798W        W 6849   6.516   0.601   2.756
 2799W        W 6850   2.910   3.259   1.300
 2800W        W 6851   7.206   9.373   3.395
 2801W        W 6852   3.212   6.292  10.255
 2802W        W 6853   5.048   6.492   1.814
 2803W        W 6854   4.479   7.953   9.341
 2804W        W 6855   5.710   7.478   9.420
 2805W        W 6856   9.440   3.368   9.742
 2806W        W 6857   9.524   1.204  11.299
 2807W        W 6858   3.721   4.609   2.617
 2808W        W 6859   5.522   3.690  10.534
 2809W        W 6860  10.098   7.627  11.781
 2810W        W 6861   0.774   6.942   1.748
 2811W        W 6862   0.428   7.916   0.731
 2812W        W 6863   5.670   0.775  11.499
 2813W        W 6864  10.953   8.209  10.271
 2814W        W 6865   9.890   0.224   2.292
 2815W        W 6866   9.856  11.323   9.041
 2816W        W 6867   8.610   9.291   1.907
 2817W        W 6868   7.169   1.876   8.804
 2818W        W 6869   4.693   9.088   8.954
 2819W        W 6870  10.097   4.688   9.378
 2820W        W 6871   1.337   4.126   1.467
 2821W        W 6872   7.167   0.433   3.439
 2822W        W 6873   2.432   0.981   2.236
 2823W        W 6874   1.402  11.435   3.482
 2824W        W 6875   3.004   7.067   8.104
 2825W        W 6876   8.494   0.207   9.025
 2826W        W 6877   0.645   5.795   9.053
 2827W        W 6878   9.988   9.797   8.775
 2828W        W 6879   6.630   1.257   2.433
 2829W        W 6880   4.546   1.806   9.032
 2830W        W 6881   0.276  11.278  11.621
 2831W        W 6882   9.003   6.843   0.380
 2832W        W 6883   6.240   8.988   0.779
 2833W        W 6884  10.649   7.018   2.223
 2834W        W 6885   8.966  10.022   1.963
 2835W        W 6886   3.697   0.633  11.151
 2836W        W 6887   7.875   1.654  11.951
 2837W        W 6888   3.126   1.124   2.518
 2838W        W 6889  11.370   1.278   8.800
 2839W        W 6890  10.241   6.155   2.735
 2840W        W 6891   0.442   3.558  11.121
 2841W        W 6892   8.561  10.159   3.931
 2842W        W 6893   5.232  10.603   1.873
 2843W        W 6894   6.615  10.946  11.534
 2844W        W 6895  10.912   6.836   2.674
 2845W        W 6896   7.483  10.501  11.814
 2846W        W 6897   5.635   6.119   9.371
 2847W        W 6898   1.781   6.008   2.731
 2848W        W 6899   2.382   7.043   2.303
 2849W        W 6900   0.258   9.927  11.568
 2850W        W 6901   2.263   3.879   2.800
 2851W        W 6902  11.454   8.467   3.315
 2852W        W 6903   7.140   6.379   9.619
 2853W        W 6904  10.453  10.569  11.532
 2854W        W 6905   1.061   7.430   2.235
 2855W        W 6906   3.984   3.716   2.173
 2856W        W 6907   8.963   6.359  10.464
 2857W        W 6908   6.575   8.526  11.653
 2858W        W 6909  10.445   1.908   2.328
 2859W        W 6910   1.269   3.336  10.325
 2860W        W 6911   6.070   7.128   2.249
 2861W        W 6912   4.520   3.944   9.502
 2862W        W 6913   0.849  10.721   1.983
 2863W        W 6914   0.389   8.840   0.455
 2864W        W 6915   3.761   2.189  10.087
 2865W        W 6916   7.090   0.417   9.957
 2866W        W 6917  11.046   3.796   1.968
 2867W        W 6918   7.126   0.336  10.996
 2868W        W 6919   7.543   6.661   3.839
 2869W        W 6920   9.625   7.810   0.038
 2870W        W 6921   5.019   8.170  11.178
 2871W        W 6922   4.901   7.980   2.553
 2872W        W 6923   1.607   5.853   8.492
 2873W        W 6924   6.108   9.662   2.075
 2874W        W 6925   1.745   4.156   1.796
 2875W        W 6926   1.059   7.369   8.598
 2876W        W 6927   5.328  10.319   0.411
 2877W        W 6928   0.508   9.945   0.026
 2878W        W 6929   8.348   8.663  11.954
 2879W        W 6930   8.670   5.619   3.117
 2880W        W 6931   5.585   4.713  11.437
 2881W        W 6932   0.765   1.884   0.452
 2882W        W 6933  10.122   4.290   0.414
 2883W        W 6934   6.628   1.934   0.555
 2884W        W 6935   5.304   7.394  11.355
 2885W        W 6936   5.459   9.139   9.453
 2886W        W 6937   5.631   0.823   3.243
 2887W        W 6938  10.339   4.226   2.566
 2888W        W 6939   2.078   8.794  10.834
 2889W        W 6940   6.066   7.106   1.347
 2890W        W 6941   4.800   3.864   3.694
 2891W        W 6942   5.951   2.349   2.690
 2892W        W 6943   9.340   3.772   9.040
 2893W        W 6944   1.708   4.653   1.987
 2894W        W 6945   4.748   2.254   9.119
 2895W        W 6946   2.211   6.635   1.152
 2896W        W 6947   0.032   7.529  10.577
 2897W        W 6948   3.943   9.317   2.890
 2898W        W 6949   2.001   4.171   2.406
 2899W        W 6950   5.166   2.339   4.026
 2900W        W 6951  10.073   2.205  10.048
 2901W        W 6952   3.355  10.260   2.214
 2902W        W 6953   3.728  10.806   3.166
 2903W        W 6954   7.041   9.130  10.537
 2904W        W 6955   7.981   2.796   2.261
 2905W        W 6956   7.061   3.800  10.806
 2906W        W 6957  10.841   2.634   0.236
 2907W        W 6958   7.176   9.571  10.327
 2908W        W 6959   2.315   9.971   2.324
 2909W        W 6960   4.137   6.472   2.019
 2910W        W 6961   7.598   4.711   1.866
 2911W        W 6962   0.393   1.365   8.962
 2912W        W 6963   0.909   3.760   2.014
 2913W        W 6964  11.342   6.249   2.360
 2914W        W 6965   6.759   8.925   2.260
 2915W        W 6966   2.107   0.728  10.847
 2916W        W 6967   2.893   4.677   8.689
 2917W        W 6968  11.016  10.467   9.792
 2918W        W 6969   7.548   3.627   9.944
 2919W        W 6970   0.719   3.080  11.878
 2920W        W 6971   7.626  10.331   3.233
 2921W        W 6972   4.213   3.405   1.760
 2922W        W 6973  10.852   9.491   9.955
 2923W        W 6974   9.574   8.375   3.155
 2924W        W 6975  11.045   4.529   8.882
 2925W        W 6976   8.345   9.512   1.016
 2926W        W 6977   0.957   0.156   9.703
 2927W        W 6978   9.045   4.758   0.279
 2928W        W 6979   6.717   3.810   1.430
 2929W        W 6980   5.173   5.988   1.890
 2930W        W 6981   0.783   3.049   3.085
 2931W        W 6982  10.315   5.518   8.364
 2932W        W 6983   0.997   7.951   0.079
 2933W        W 6984   7.557   3.649  10.948
 2934W        W 6985  11.252   0.258  10.538
 2935W        W 6986   1.949   8.360   2.650
 2936W        W 6987   1.823   3.684   1.573
 2937W        W 6988   8.406   4.766   0.009
 2938W        W 6989   4.750  11.207  11.138
 2939W        W 6990   0.926   3.108   1.505
 2940W        W 6991   7.304   9.994   2.782
 2941W        W 6992   6.925   4.145  11.506
 2942W        W 6993   3.310   2.739   9.614
 2943W        W 6994   1.126   1.927  10.853
 2944W        W 6995   0.642   9.310   9.492
 2945W        W 6996   1.814   8.310   0.353
 2946W        W 6997   7.407   4.846   1.409
 2947W        W 6998   5.401   7.036  11.748
 2948W        W 6999   4.675   3.454   1.349
 2949W        W 7000   0.780   5.091  10.430
 2950W        W 7001   9.925   3.259   3.357
 2951W        W 7002   1.755   8.135   9.382
 2952W        W 7003   3.040   4.784   3.427
 2953W        W 7004   9.682   1.984   0.695
 2954W        W 7005   0.749  10.114   0.878
 2955W        W 7006   2.753   8.359   9.626
 2956W        W 7007   3.769   7.972   9.949
 2957W        W 7008   8.698   3.023   2.718
 2958W        W 7009  10.577   8.193   9.933
 2959W        W 7010   0.447   1.778   3.280
 2960W        W 7011   1.722   9.960   9.797
 2961W        W 7012   2.773   4.758   3.891
 2962W        W 7013   9.960   9.909   9.859
 2963W        W 7014   0.020   0.190   1.357
 2964W        W 7015   6.627   4.538   1.942
 2965W        W 7016   1.711   0.002  11.566
 2966W        W 7017   5.035   4.327   9.453
 2967W        W 7018   5.121   8.997   3.551
 2968W        W 7019   8.221   3.054   3.655
 2969W        W 7020   7.676   6.611   8.978
 2970W        W 7021   7.164   7.565   2.771
 2971W        W 7022  10.275  10.397   2.740
 2972W        W 7023   7.183   4.222  11.044
 2973W        W 7024   9.723   3.723   3.531
 2974W        W 7025   2.772   0.733   1.660
 2975W        W 7026   8.599   9.036   0.809
 2976W        W 7027   5.023   3.151   1.828
 2977W        W 7028   3.111   0.742   1.277
 2978W        W 7029   4.816  10.689  11.229
 2979W        W 7030   2.264   5.221   4.209
 2980W        W 7031   7.126   0.493   0.803
 2981W        W 7032   2.803   6.112  11.496
 2982W        W 7033   2.130   0.748   9.967
 2983W        W 7034   1.833   9.994   8.872
 2984W        W 7035  10.700   8.645  10.358
 2985W        W 7036   0.556   4.994   8.382
 2986W        W 7037   4.160   2.673   9.515
 2987W        W 7038   7.151   6.377   4.011
 2988W        W 7039   7.457   9.058   1.658
 2989W        W 7040   3.214   6.587  10.732
 2990W        W 7041   0.986   4.409  11.209
 2991W        W 7042   2.270   3.777  10.258
 2992W        W 7043  11.316  10.965   3.331
 2993W        W 7044   9.874  10.901   3.143
 2994W        W 7045   5.964   0.934  10.340
 2995W        W 7046   1.261   7.665   0.861
 2996W        W 7047   6.905   7.032   1.575
 2997W        W 7048  10.784   6.053  10.323
 2998W        W 7049   8.669   0.450   9.457
 2999W        W 7050   4.726   4.770  11.000
 3000W        W 7051   9.667   3.630   1.669
 3001W        W 7052   9.389   6.448   2.099
 3002W        W 7053   5.764   9.936   2.385
 3003W        W 7054   8.481   7.840  10.981
 3004W        W 7055   4.666   3.646   0.538
 3005W        W 7056   3.719   3.528  10.414
 3006W        W 7057   9.134   2.735  10.325
 3007W        W 7058   4.275   7.751   0.420
 3008W        W 7059   0.684   1.588   9.485
 3009W        W 7060  10.477   0.399   0.527
 3010W        W 7061   0.264   5.873   9.429
 3011W        W 7062   1.101   8.238   8.899
 3012W        W 7063   9.090   1.717  11.469
 3013W        W 7064   8.913   9.101   1.514
 3014W        W 7065   4.592   0.238   0.866
 3015W        W 7066   1.344   3.684   0.191
 3016W        W 7067   9.262   5.638   3.272
 3017W        W 7068   8.427   9.003   9.867
 3018W        W 7069   4.018   7.444   0.755
 3019W        W 7070   9.042   2.242   1.148
 3020W        W 7071   8.392   4.363   2.246
 3021W        W 7072   6.032  10.488   0.660
 3022W        W 7073  11.282   1.812   1.653
 3023W        W 7074   7.143   4.835   2.125
 3024W        W 7075   2.098   4.213   3.163
 3025W        W 7076   3.268  10.839  10.364
 3026W        W 7077   0.852   5.339  11.348
 3027W        W 7078   5.538   2.792  10.010
 3028W        W 7079   1.795   1.699   3.068
 3029W        W 7080   4.480   7.596   0.913
 3030W        W 7081   1.792   6.030   9.391
 3031W        W 7082   4.195   7.598  11.874
 3032W        W 7083  11.119   9.192   3.365
 3033W        W 7084   4.013   6.660  10.374
 3034W        W 7085   6.171   7.909   2.662
 3035W        W 7086   5.433   1.879   8.517
 3036W        W 7087   0.605   3.415   1.772
 3037W        W 7088   3.536   1.249   3.351
 3038W        W 7089  11.017   1.056   2.497
 3039W        W 7090   4.650   8.061   0.197
 3040W        W 7091   7.439   4.024   9.653
 3041W        W 7092   7.066   6.730   3.619
 3042W        W 7093   8.697   6.476   3.192
 3043W        W 7094   5.974   5.946   0.372
 3044W        W 7095  10.468  10.791   1.865
 3045W        W 7096   4.793   1.972  11.516
 3046W        W 7097   1.469  10.347   9.069
 3047W        W 7098   8.043   3.279   1.607
 3048W        W 7099   6.338  10.738   2.314
 3049W        W 7100   5.510   8.384   9.074
 3050W        W 7101   3.330   9.584   4.150
 3051W        W 7102   2.106   5.579   3.893
 3052W        W 7103   3.990  11.033   1.208
 3053W        W 7104   7.018   3.227   0.072
 3054W        W 7105   7.876   0.785  10.059
 3055W        W 7106  10.201  10.382   8.646
 3056W        W 7107  11.470   4.133   2.043
 3057W        W 7108  10.052   3.469   2.889
 3058W        W 7109   6.716   7.344  11.939
 3059W        W 7110   2.621   0.871   9.024
 3060W        W 7111   2.580   9.620   2.620
 3061W        W 7112   0.874   6.825   2.723
 3062W        W 7113   1.405   1.240  11.949
 3063W        W 7114  11.371   1.315  11.531
 3064W        W 7115   2.061   4.839   9.854
 3065W        W 7116   3.257   5.059   8.661
 3066W        W 7117   5.099   3.912  10.383
 3067W        W 7118   1.232   1.216   1.384
 3068W        W 7119   9.953   2.270   9.054
 3069W        W 7120   7.460   4.984   9.660
 3070W        W 7121   8.967   9.160   3.010
 3071W        W 7122   2.214   9.980   9.863
 3072W        W 7123   4.615  11.102   2.402
 3073W        W 7124   6.673   7.816   0.110
 3074W        W 7125   1.712   8.676  11.403
 3075W        W 7126   8.574  10.738   1.950
 3076W        W 7127   9.958   1.475   1.633
 3077W        W 7128   7.858   3.686   2.413
 3078W        W 7129  10.805   3.114   0.043
 3079W        W 7130   1.621   7.404   3.477
 3080W        W 7131   7.545   6.595   2.451
 3081W        W 7132   9.593   6.588   3.094
 3082W        W 7133   8.438   0.640   1.696
 3083W        W 7134   8.330   0.135  10.388
 3084W        W 7135  11.329   8.033   8.806
 3085W        W 7136   3.066   7.041   2.855
 3086W        W 7137   9.890   0.937   2.999
 3087W        W 7138   2.115   1.279   9.999
 3088W        W 7139   1.698   4.591   2.473
 3089W        W 7140   3.717  10.036   9.797
 3090W        W 7141   0.731  10.563   0.580
 3091W        W 7142   5.198  11.052   3.475
 3092W        W 7143   0.044   8.551   1.781
 3093W        W 7144   8.005   1.944   1.232
 3094W        W 7145   1.186   3.203   0.076
 3095W        W 7146   7.570  11.486   0.654
 3096W        W 7147  11.204   2.246   1.373
 3097W        W 7148   6.775   8.623  10.686
 3098W        W 7149   3.804   3.703   0.739
 3099W        W 7150   8.710   1.393   9.267
 3100W        W 7151  10.934   5.064   3.214
 3101W        W 7152   9.380   8.407  10.970
 3102W        W 7153   4.732   1.672   2.885
 3103W        W 7154   6.299   7.251   3.592
 3104W        W 7155   5.992   6.208   2.218
 3105W        W 7156   0.309   8.806   8.781
 3106W        W 7157   2.945  10.924  10.776
 3107W        W 7158   6.853   2.353   0.321
 3108W        W 7159  11.219   0.770   3.675
 3109W        W 7160   4.075   7.079  11.725
 3110W        W 7161   9.769   1.435  11.979
 3111W        W 7162   1.500   7.790   3.111
 3112W        W 7163   3.849   2.757  10.851
 3113W        W 7164   3.302   4.710   9.053
 3114W        W 7165   2.225  10.460   3.065
 3115W        W 7166   5.528   3.600   3.918
 3116W        W 7167   9.484   3.338   9.240
 3117W        W 7168   6.207  10.726   8.949
 3118W        W 7169   1.327   3.641   2.330
 3119W        W 7170   1.000   3.149   9.149
 3120W        W 7171   6.268   8.769  10.830
 3121W        W 7172   5.500   5.558  11.398
 3122W        W 7173   1.819   2.827   2.271
 3123W        W 7174   1.025   8.455   0.733
 3124W        W 7175   3.800   9.479   2.438
 3125W        W 7176   5.199   2.560  10.294
 3126W        W 7177  10.641   4.412   0.260
 3127W        W 7178   4.036   4.938   8.186
 3128W        W 7179   2.777   4.621   9.188
 3129W        W 7180   1.654   5.123  10.302
 3130W        W 7181   8.905   9.626  11.912
 3131W        W 7182   9.982   0.759  10.552
 3132W        W 7183   2.880  10.900   2.624
 3133W        W 7184   8.893  10.979  10.868
 3134W        W 7185   7.096   8.435   2.869
 3135W        W 7186   4.343   8.048   1.399
 3136W        W 7187   4.186   9.782   2.292
 3137W        W 7188   0.956   9.349   9.916
 3138W        W 7189   1.228   8.790   8.852
 3139W        W 7190   9.839   3.620   9.937
 3140W        W 7191   4.210   3.589   9.225
 3141W        W 7192   9.359  10.005  10.385
 3142W        W 7193   8.862   9.431   8.732
 3143W        W 7194   7.648   8.120   2.530
 3144W        W 7195   1.352   8.387   1.490
 3145W        W 7196   8.645   2.628  11.019
 3146W        W 7197  11.324   9.343   1.285
 3147W        W 7198  10.702   6.095   0.979
 3148W        W 7199   1.909   7.910  10.541
 3149W        W 7200   1.925   0.850   2.139
 3150W        W 7201  10.386   9.389   2.750
 3151W        W 7202   2.757  11.294   9.322
 3152W        W 7203   4.179   0.937  11.836
 3153W        W 7204  10.240   8.603   0.978
 3154W        W 7205   6.634   7.662   2.793
 3155W        W 7206   3.583   0.488   1.324
 3156W        W 7207  10.752   4.821  11.228
 3157W        W 7208   3.197   6.404   0.304
 3158W        W 7209   6.713  11.426  11.357
 3159W        W 7210   1.117   1.596   8.438
 3160W        W 7211   3.825   8.812  11.457
 3161W        W 7212  10.466   4.697   1.399
 3162W        W 7213   5.391   6.519  11.801
 3163W        W 7214   5.177   0.756  11.255
 3164W        W 7215   1.310  11.041   0.370
 3165W        W 7216   3.198   3.873   1.365
 3166W        W 7217  11.291   5.778   8.692
 3167W        W 7218  10.437   3.090   9.034
 3168W        W 7219   1.366   0.107   2.996
 3169W        W 7220   6.290   7.655   3.171
 3170W        W 7221   7.880   4.152   0.709
 3171W        W 7222   6.715   3.683   3.284
 3172W        W 7223   3.854   6.598  11.790
 3173W        W 7224  10.687   5.661  11.436
 3174W        W 7225   4.739   9.931   9.717
 3175W        W 7226   4.058   0.929   1.213
 3176W        W 7227   9.586   4.297   3.294
 3177W        W 7228   8.512   8.688  10.555
 3178W        W 7229   0.072   8.991  10.266
 3179W        W 7230   0.746   6.376   0.863
 3180W        W 7231   4.258   9.014   3.172
 3181W        W 7232   6.276   0.148   0.511
 3182W        W 7233   5.856   3.328   3.070
 3183W        W 7234   2.252   5.305   2.992
 3184W        W 7235   6.448   5.881  10.535
 3185W        W 7236  10.368   7.195   9.988
 3186W        W 7237   9.823   5.740   0.506
 3187W        W 7238   3.532   8.464   0.635
 3188W        W 7239   8.366  10.024   0.709
 3189W        W 7240   9.185   6.500   3.379
 3190W        W 7241   9.198   8.011   8.549
 3191W        W 7242   1.967   2.711   0.216
 3192W        W 7243   1.674  10.013  10.317
 3193W        W 7244   4.488  10.951   1.266
 3194W        W 7245   6.227   5.733  10.078
 3195W        W 7246  10.558   3.672  11.805
 3196W        W 7247  10.001   1.816   8.767
 3197W        W 7248   9.941   6.157   3.607
 3198W        W 7249   6.959   1.301  10.980
 3199W        W 7250   0.319   2.923   3.268
 3200W        W 7251   8.489   5.846   0.678
 3201W        W 7252   8.868   5.454   1.464
 3202W        W 7253   3.323   2.730  10.151
 3203W        W 7254   4.646   6.687   9.131
 3204W        W 7255   8.481   7.428   9.793
 3205W        W 7256   3.681  10.181   8.957
 3206W        W 7257  10.695   9.496   9.304
 3207W        W 7258  11.334   8.378   0.235
 3208W        W 7259  10.895   7.023  10.331
 3209W        W 7260   3.584   1.378  11.166
 3210W        W 7261   2.100   4.441   3.621
 3211W        W 7262   3.140  10.374  11.135
 3212W        W 7263  11.238   9.384   0.204
 3213W        W 7264   8.081   7.954   0.355
 3214W        W 7265   5.780   0.554  10.642
 3215W        W 7266   0.424   8.158   1.174
 3216W        W 7267   1.280   4.336   1.923
 3217W        W 7268   2.090   5.104   8.080
 3218W        W 7269   4.022   7.945   2.348
 3219W        W 7270   7.026  10.817   1.693
 3220W        W 7271   9.430   9.857   1.771
 3221W        W 7272   3.385   4.277   2.445
 3222W        W 7273   1.636   0.548   9.089
 3223W        W 7274   0.359   3.521   8.871
 3224W        W 7275   8.077   7.665   9.991
 3225W        W 7276   9.152   1.451  11.037
 3226W        W 7277   0.812   1.266   1.043
 3227W        W 7278   3.770  11.004   2.621
 3228W        W 7279   7.371   2.431  11.339
 3229W        W 7280   4.101   4.704   2.302
 3230W        W 7281   2.848  10.265   3.390
 3231W        W 7282  10.906   9.602   1.139
 3232W        W 7283   3.091  10.447  10.637
 3233W        W 7284   5.813   1.676   2.458
 3234W        W 7285   2.832  10.074   1.007
 3235W        W 7286   9.740   4.781   3.208
 3236W        W 7287  10.865  11.311   2.669
 3237W        W 7288   6.724   1.256  11.455
 3238W        W 7289  11.052  10.376   2.313
 3239W        W 7290   0.980  11.273  10.445
 3240W        W 7291   9.313  11.308   1.351
 3241W        W 7292   0.920   6.983  11.379
 3242W        W 7293   9.346   1.946  10.535
 3243W        W 7294   5.460   1.418  10.971
 3244W        W 7295   1.735   2.069   2.710
 3245W        W 7296   7.808  10.111   2.799
 3246W        W 7297   3.266   7.285   9.069
 3247W        W 7298   4.851   8.221   2.113
 3248W        W 7299   2.828  10.583   1.004
 3249W        W 7300   8.655   2.103   1.821
 3250W        W 7301   5.696   5.112  11.068
 3251W        W 7302   0.655   3.291   0.967
 3252W        W 7303   6.573   1.254   1.933
 3253W        W 7304   0.839   4.015   9.429
 3254W        W 7305   6.991   9.985  10.545
 3255W        W 7306  10.886   8.568   2.208
 3256W        W 7307   3.618   7.547  10.765
 3257W        W 7308   0.298   2.645   0.545
 3258W        W 7309   9.009   1.874   1.488
 3259W        W 7310   0.459   9.486   9.932
 3260W        W 7311   0.707   5.782  11.575
 3261W        W 7312   1.449   1.949   0.254
 3262W        W 7313   9.493   2.855  11.977
 3263W        W 7314   4.899   9.569   1.436
 3264W        W 7315   2.507   7.572  10.233
 3265W        W 7316   6.555   6.716  10.767
 3266W        W 7317   0.390   4.739   9.327
 3267W        W 7318   8.917  10.012  10.643
 3268W        W 7319   2.884   7.217   1.406
 3269W        W 7320   7.079   3.596   1.774
 3270W        W 7321   1.013   0.944  11.778
 3271W        W 7322   9.949   1.247  11.564
 3272W        W 7323   1.710   5.695  10.840
 3273W        W 7324   5.422  11.309  10.349
 3274W        W 7325  10.545   4.615   9.093
 3275W        W 7326   0.313   7.154  10.803
 3276W        W 7327   5.432  10.398   9.772
 3277W        W 7328   1.415   0.794  11.510
 3278W        W 7329   9.827   9.345  10.126
 3279W        W 7330   2.701   2.641   9.135
 3280W        W 7331   4.984   5.363  11.322
 3281W        W 7332   1.725   4.784  11.927
 3282W        W 7333   8.889   2.919   0.792
 3283W        W 7334   4.514   7.837   2.228
 3284W        W 7335  11.458   0.738   1.395
 3285W        W 7336   6.698   7.974  10.453
 3286W        W 7337  11.279   1.568   9.786
 3287W        W 7338   4.859   9.349   9.846
 3288W        W 7339   1.846   8.989   2.814
 3289W        W 7340   8.200   8.505   1.390
 3290W        W 7341   4.145   4.705   1.295
 3291W        W 7342   0.841   9.772   9.533
 3292W        W 7343   0.937   6.427   2.402
 3293W        W 7344  10.369   8.359   2.782
 3294W        W 7345  10.912   5.696   1.210
 3295W        W 7346  10.080   5.238   2.186
 3296W        W 7347   5.779   1.227   2.944
 3297W        W 7348   9.580   8.874  11.813
 3298W        W 7349   1.215   6.711   9.221
 3299W        W 7350   5.197   5.095   0.993
 3300W        W 7351   1.280   2.473   3.372
 3301W        W 7352   5.292   2.551   2.803
 3302W        W 7353   2.321   4.769   0.664
 3303W        W 7354   1.968  10.883  10.782
 3304W        W 7355   2.213  11.252   0.751
 3305W        W 7356   0.292   9.011   9.759
 3306W        W 7357   1.209  11.283   9.993
 3307W        W 7358  11.230   6.267   8.931
 3308W        W 7359   3.649   1.788   3.188
 3309W        W 7360   3.232   8.491   9.403
 3310W        W 7361   0.058   2.930   9.531
 3311W        W 7362   6.445   3.323   0.316
 3312W        W 7363   5.046  10.818   2.476
 3313W        W 7364   2.795   0.243   9.565
 3314W        W 7365   0.821   5.813   0.071
 3315W        W 7366   2.000   8.002  11.056
 3316W        W 7367   8.833   0.768   9.830
 3317W        W 7368   2.362   1.394   2.894
 3318W        W 7369   9.491   7.092   0.337
 3319W        W 7370   7.398   8.898   8.383
 3320W        W 7371   0.072  10.528   1.900
 3321W        W 7372   1.787  10.300  10.787
 3322W        W 7373   0.788   7.302  10.986
 3323W        W 7374   8.136   4.260   2.662
 3324W        W 7375   0.449   2.724   2.350
 3325W        W 7376   8.241   6.691  11.883
 3326W        W 7377   6.929   2.712   1.788
 3327W        W 7378   5.731   5.608  10.934
 3328W        W 7379  11.260   0.726   8.827
 3329W        W 7380   4.765   7.964   9.774
 3330W        W 7381   4.372  10.856  11.094
 3331W        W 7382   3.242   0.943   9.589
 3332W        W 7383   2.428   2.808   0.047
 3333W        W 7384  10.393   3.150   9.541
 3334W        W 7385   3.411   4.657  11.629
 3335W        W 7386   3.931   8.828  10.957
 3336W        W 7387   2.653   7.229   2.666
 3337W        W 7388   3.538   5.507   8.714
 3338W        W 7389   9.464   8.032   9.080
 3339W        W 7390   8.046   0.835  10.862
 3340W        W 7391   8.247  10.499  10.325
 3341W        W 7392   5.146  11.464   8.980
 3342W        W 7393   9.108  10.890  10.393
 3343W        W 7394  10.817   7.983  11.198
 3344W        W 7395   0.724   2.589   9.809
 3345W        W 7396   1.874  10.520   1.309
 3346W        W 7397  11.035   4.412   3.644
 3347W        W 7398  11.355   3.122   3.174
 3348W        W 7399   2.428   7.144   8.969
 3349W        W 7400   6.500   4.331   9.581
 3350W        W 7401   1.905   3.831   0.845
 3351W        W 7402   9.547   4.607   1.381
 3352W        W 7403   7.954   9.797  11.780
 3353W        W 7404   7.531   7.711   0.444
 3354W        W 7405   5.038   6.485   0.263
 3355W        W 7406   6.425   4.140   8.623
 3356W        W 7407  10.237   9.077  10.364
 3357W        W 7408  11.283   6.551   0.299
 3358W        W 7409   6.509  10.931  10.347
 3359W        W 7410   5.072  11.333  10.756
 3360W        W 7411   4.720   4.156   9.914
 3361W        W 7412   4.658   9.241   1.783
 3362W        W 7413   8.860   6.577   0.807
 3363W        W 7414   2.484   3.229  11.736
 3364W        W 7415   8.756   8.016   9.483
 3365W        W 7416   6.466   2.758   8.955
 3366W        W 7417   3.720   5.684  10.814
 3367W        W 7418   3.193   1.414   9.801
 3368W        W 7419  10.121   7.897   2.363
 3369W        W 7420   9.876   7.008   3.111
 3370W        W 7421   7.415   5.727   1.782
 3371W        W 7422   2.680  10.445  10.935
 3372W        W 7423   2.184  10.481  11.061
 3373W        W 7424   5.178  10.216  11.932
 3374W        W 7425   8.987   6.605   2.427
 3375W        W 7426   1.983   8.934   3.643
 3376W        W 7427   9.550   2.641  11.513
 3377W        W 7428  11.431  10.255  10.116
 3378W        W 7429   3.139   1.825   2.973
 3379W        W 7430   4.911   5.688  10.525
 3380W        W 7431   4.664   3.440   9.490
 3381W        W 7432   8.046   1.068  11.330
 3382W        W 7433   0.821   9.279  11.398
 3383W        W 7434   7.362   3.623   2.689
 3384W        W 7435   1.688   6.696   8.938
 3385W        W 7436   3.785   9.780  11.261
 3386W        W 7437   5.256   0.676   9.376
 3387W        W 7438   5.711   5.097   9.208
 3388W        W 7439   7.521   9.428   9.497
 3389W        W 7440   3.013  10.386   1.857
 3390W        W 7441   9.790   0.413  10.867
 3391W        W 7442   3.704   3.331   2.719
 3392W        W 7443   8.185   5.882   9.433
 3393W        W 7444   6.944   6.423  10.954
 3394W        W 7445   2.560   8.814  11.943
 3395W        W 7446   3.748   5.047   8.812
 3396W        W 7447   2.258   1.361   0.505
 3397W        W 7448  11.092   0.838   1.784
 3398W        W 7449   7.944   0.795   0.468
 3399W        W 7450   9.446   5.508   0.257
 3400W        W 7451   5.724   7.648  11.498
 3401W        W 7452   6.823   9.439   8.038
 3402W        W 7453   4.498   8.118   0.740
 3403W        W 7454   8.863   6.196   2.736
 3404W        W 7455   0.429   4.544   0.163
 3405W        W 7456   6.254  10.258   9.221
 3406W        W 7457   8.417   7.064   2.569
 3407W        W 7458   2.674   9.223  10.404
 3408W        W 7459   1.923   7.082  10.254
 3409W        W 7460   3.605   3.795   2.512
 3410W        W 7461   3.377   5.433   0.463
 3411W        W 7462   6.074   5.417   1.919
 3412W        W 7463   3.863   0.869   1.673
 3413W        W 7464   7.383   2.175   3.461
 3414W        W 7465   5.746  10.919  10.971
 3415W        W 7466  11.379   8.136   9.831
 3416W        W 7467   0.725   6.008   2.625
 3417W        W 7468   5.793   8.498   2.315
 3418W        W 7469   0.747   3.358   2.268
 3419W        W 7470   7.472   3.339  11.381
 3420W        W 7471   5.993   0.014   3.170
 3421W        W 7472   5.222   1.219  10.575
 3422W        W 7473   7.435   8.528   0.284
 3423W        W 7474   1.780  10.055   0.995
 3424W        W 7475   3.696   7.003   3.275
 3425W        W 7476  11.114   8.475   1.182
 3426W        W 7477   4.623   6.208  11.746
 3427W        W 7478   1.656   4.296   0.816
 3428W        W 7479   8.019   4.628   1.177
 3429W        W 7480   6.785   4.034   2.702
 3430W        W 7481   9.055   3.234   1.419
 3431W        W 7482  10.656   7.979  10.695
 3432W        W 7483   0.095   1.066   9.878
 3433W        W 7484   9.263  10.301   9.005
 3434W        W 7485   7.953   8.213   9.266
 3435W        W 7486   8.044   0.929   1.818
 3436W        W 7487   6.140   6.755   3.115
 3437W        W 7488   4.524   1.268   0.866
 3438W        W 7489  11.447  10.748   9.988
 3439W        W 7490  11.306   6.507   2.813
 3440W        W 7491   4.535   1.604   8.540
 3441W        W 7492   2.282   3.842   9.167
 3442W        W 7493   8.944   9.901  11.476
 3443W        W 7494   1.908   5.936   0.690
 3444W        W 7495   2.912   9.069   0.328
 3445W        W 7496   2.325   1.044   9.562
 3446W        W 7497   5.059   0.796   1.195
 3447W        W 7498   9.314   1.305   1.191
 3448W        W 7499   8.341  10.885  10.908
 3449W        W 7500   0.310   5.731   0.072
 3450W        W 7501   6.694   4.222  10.928
 3451W        W 7502   2.338  11.371   1.421
 3452W        W 7503   3.716   1.409  10.662
 3453W        W 7504   3.999   1.455   3.420
 3454W        W 7505   8.903   9.947  10.110
 3455W        W 7506   7.144   2.382   8.651
 3456W        W 7507   0.979   2.630   9.366
 3457W        W 7508   9.397   4.389   8.523
 3458W        W 7509   3.782   1.281   9.133
 3459W        W 7510   4.647   3.372   3.670
 3460W        W 7511   8.456  10.324   9.432
 3461W        W 7512   0.754   7.092   3.148
 3462W        W 7513   4.489   0.139  11.009
 3463W        W 7514   4.399   6.622   2.455
 3464W        W 7515   5.646   8.011   1.200
 3465W        W 7516   4.957   3.931   3.203
 3466W        W 7517   6.226  10.214   2.255
 3467W        W 7518   5.613   3.080   1.225
 3468W        W 7519   0.396   2.201   2.485
 3469W        W 7520  10.923   2.152   0.392
 3470W        W 7521   7.031   6.534   1.687
 3471W        W 7522   4.605   0.939  10.597
 3472W        W 7523   5.200   2.088  10.036
 3473W        W 7524   8.092   7.879  11.314
 3474W        W 7525   6.402   7.677   4.088
 3475W        W 7526   8.149   6.175  11.851
 3476W        W 7527   8.797   4.767   3.503
 3477W        W 7528   1.894   1.688   0.341
 3478W        W 7529  11.194   3.357   1.797
 3479W        W 7530  11.008  10.838   9.013
 3480W        W 7531   3.755   7.944   1.454
 3481W        W 7532   9.123   1.693   2.444
 3482W        W 7533   0.245   1.873   9.371
 3483W        W 7534   0.378  10.883  11.268
 3484W        W 7535   5.548  10.674   0.687
 3485W        W 7536   8.805   4.053   2.188
 3486W        W 7537   2.060   6.116   8.436
 3487W        W 7538   9.584   1.482   8.759
 3488W        W 7539   0.538   5.588   2.849
 3489W        W 7540   2.359  10.857   2.309
 3490W        W 7541   8.788   5.818   1.840
 3491W        W 7542  10.503   4.673   2.794
 3492W        W 7543   1.327   6.096   2.482
 3493W        W 7544  10.380   1.359   9.902
 3494W        W 7545   7.634   8.050   0.103
 3495W        W 7546   6.554   8.972  10.374
 3496W        W 7547   8.026   7.705   9.140
 3497W        W 7548  10.438   9.810   9.626
 3498W        W 7549   6.469   1.928   9.790
 3499W        W 7550   8.898   0.830   2.975
 3500W        W 7551   7.170   2.088  10.031
 3501W        W 7552   8.302   0.230   8.517
 3502W        W 7553   3.241   7.034   9.990
 3503W        W 7554   0.971   3.753  10.353
 3504W        W 7555   5.716   6.489   8.608
 3505W        W 7556   8.939   6.035   3.219
 3506W        W 7557   6.503   6.666   0.667
 3507W        W 7558   9.357   4.381   0.964
 3508W        W 7559   6.705   0.408   0.494
 3509W        W 7560   2.408   3.727   0.837
 3510W        W 7561  11.449   0.421  11.636
 3511W        W 7562   7.622   7.545   1.767
 3512W        W 7563   1.659   1.317  10.326
 3513W        W 7564  11.018   9.435  10.865
 3514W        W 7565   6.373   9.848   8.874
 3515W        W 7566   4.188  10.518   1.048
 3516W        W 7567   2.747  10.471  11.959
 3517W        W 7568   5.609   2.225   3.088
 3518W        W 7569   5.642   0.684   1.007
 3519W        W 7570   5.304   1.343   3.084
 3520W        W 7571   3.316   8.040  10.725
 3521W        W 7572   4.323   5.069  10.819
 3522W        W 7573   2.233   2.489   3.325
 3523W        W 7574   7.285   4.592   3.486
 3524W        W 7575   1.925   9.858   0.273
 3525W        W 7576   6.075   3.685   9.141
 3526W        W 7577   7.194   7.500  11.783
 3527W        W 7578   3.729   2.623   0.268
 3528W        W 7579   6.008   8.248   3.556
 3529W        W 7580   9.536   0.504   0.949
 3530W        W 7581   5.657   3.145   3.570
 3531W        W 7582   9.440   7.035  10.214
 3532W        W 7583   3.766   4.096   9.646
 3533W        W 7584   1.687   3.105   0.424
 3534W        W 7585   3.343   5.994   8.722
 3535W        W 7586  10.731   9.042   2.413
 3536W        W 7587   1.930   1.645  10.587
 3537W        W 7588  11.347  10.370   9.035
 3538W        W 7589   4.382   4.403  10.338
 3539W        W 7590   3.373   2.831  11.580
 3540W        W 7591   4.099   7.440  11.353
 3541W        W 7592   3.816   4.498  10.001
 3542W        W 7593   1.645   0.396  11.270
 3543W        W 7594   4.825  11.360   1.326
 3544W        W 7595   9.329   9.135   8.472
 3545W        W 7596   1.994   2.029   8.780
 3546W        W 7597   3.021   4.105   0.818
 3547W        W 7598   2.861   3.673   1.029
 3548W        W 7599   6.172   9.931   2.688
 3549W        W 7600   2.186  10.826   9.152
 3550W        W 7601  10.876   6.980   9.470
 3551W        W 7602   5.216   8.536   9.480
 3552W        W 7603  11.103   3.760  10.492
 3553W        W 7604  11.215   8.290  11.206
 3554W        W 7605   0.245   7.553  11.981
 3555W        W 7606   0.367   8.123  10.039
 3556W        W 7607   4.296   5.129   2.077
 3557W        W 7608   6.097   3.659  11.919
 3558W        W 7609   6.570   2.067  11.535
 3559W        W 7610   7.170   3.191   2.501
 3560W        W 7611  10.017   4.385   1.546
 3561W        W 7612  10.237   6.598   0.417
 3562W        W 7613   8.482   3.774  11.929
 3563W        W 7614   4.933   8.419   0.890
 3564W        W 7615   9.970   1.332  11.061
 3565W        W 7616   3.542   6.213  11.991
 3566W        W 7617   2.606   7.080   3.147
 3567W        W 7618   1.477   1.201   8.385
 3568W        W 7619   0.398   5.582   1.054
 3569W        W 7620   6.003   8.424   0.772
 3570W        W 7621  10.311   4.731   2.320
 3571W        W 7622   7.710   6.665   1.550
 3572W        W 7623   6.442   8.574   3.609
 3573W        W 7624   1.717   8.364   0.924
 3574W        W 7625   0.621   7.039   8.663
 3575W        W 7626   1.389   1.395   8.840
 3576W        W 7627   9.546   6.109   8.531
 3577W        W 7628  11.346   1.576   9.231
 3578W        W 7629   5.871   5.066   2.721
 3579W        W 7630   7.603  11.466   0.154
 3580W        W 7631   1.406  10.742   1.325
 3581W        W 7632   7.947   1.498   1.011
 3582W        W 7633   2.378  10.450   3.549
 3583W        W 7634   0.416   8.479   3.549
 3584W        W 7635  11.192  11.309   8.784
 3585W        W 7636   6.127   7.635   2.224
 3586W        W 7637  11.048   2.268   0.882
 3587W        W 7638   9.482  11.198   1.829
 3588W        W 7639   9.654   6.630   3.611
 3589W        W 7640   3.354   0.430   0.493
 3590W        W 7641   6.574   5.337   1.352
 3591W        W 7642  10.143   6.935   2.249
 3592W        W 7643   6.765   1.204  10.080
 3593W        W 7644   4.489   9.555   8.914
 3594W        W 7645   3.299   0.060   3.453
 3595W        W 7646   2.836   6.698   0.509
 3596W        W 7647   1.312   1.693   2.292
 3597W        W 7648   0.811   7.096   9.994
 3598W        W 7649   2.972   7.047  10.800
 3599W        W 7650   3.818   2.598  11.350
 3600W        W 7651   8.982  10.475   9.439
 3601W        W 7652   0.298   3.407   3.134
 3602W        W 7653   2.117   8.570   0.662
 3603W        W 7654   5.233   9.864   1.157
 3604W        W 7655   3.757   8.412  10.241
 3605W        W 7656   5.335  11.334   1.253
 3606W        W 7657   3.362   9.996   3.212
 3607W        W 7658   3.823   4.367  11.818
 3608W        W 7659   2.442   7.985  11.295
 3609W        W 7660   5.492   7.014   9.559
 3610W        W 7661   6.235   5.853   8.643
 3611W        W 7662  10.278   9.417   8.987
 3612W        W 7663   4.684   6.428  10.818
 3613W        W 7664   2.898   5.276  10.864
 3614W        W 7665   3.078   2.118   3.365
 3615W        W 7666  10.051   5.669   9.674
 3616W        W 7667   3.654   4.345  10.962
 3617W        W 7668   6.578   1.217   0.896
 3618W        W 7669  10.331   1.074   1.299
 3619W        W 7670   2.104   8.097   9.015
 3620W        W 7671   2.172   7.146   2.799
 3621W        W 7672   0.731   4.679   2.454
 3622W        W 7673   3.179   5.779  11.504
 3623W        W 7674   7.535   1.537   2.911
 3624W        W 7675   3.776   7.749   2.766
 3625W        W 7676   6.240   0.061  11.252
 3626W        W 7677   1.939   6.302  11.335
 3627W        W 7678   5.251   4.251   0.533
 3628W        W 7679   5.437   3.379   0.817
 3629W        W 7680   4.055   0.668   3.433
 3630W        W 7681   7.683   7.000   2.116
 3631W        W 7682   2.651   9.361   9.410
 3632W        W 7683   2.713   3.773  11.451
 3633W        W 7684   8.441   5.308   9.055
 3634W        W 7685   5.748   6.544   9.675
 3635W        W 7686   8.395   4.183   1.788
 3636W        W 7687   8.090   8.150  10.874
 3637W        W 7688   2.339   8.631   9.796
 3638W        W 7689   4.818   1.727   0.952
 3639W        W 7690   5.329   9.897   8.894
 3640W        W 7691   3.697  10.140   1.646
 3641W        W 7692   5.465  10.192   2.054
 3642W        W 7693   9.748   6.120   2.603
 3643W        W 7694   6.912   9.378   1.515
 3644W        W 7695   0.302   4.123   0.873
 3645W        W 7696  10.703   6.613  11.116
 3646W        W 7697   6.542   1.990   7.983
 3647W        W 7698   1.931   1.400   8.867
 3648W        W 7699   7.435   3.999   2.367
 3649W        W 7700   3.177  10.039  10.370
 3650W        W 7701   4.825   2.005   0.415
 3651W        W 7702  10.138   5.701   2.982
 3652W        W 7703   4.134   0.484   0.900
 3653W        W 7704   7.871   6.236   1.925
 3654W        W 7705  10.960   6.617   8.596
 3655W        W 7706   0.661   9.285   0.292
 3656W        W 7707   6.159   3.205   9.876
 3657W        W 7708   0.924   0.180   3.269
 3658W        W 7709   2.102   2.395   1.392
 3659W        W 7710  10.829   0.319  10.818
 3660W        W 7711   8.565   4.140   1.318
 3661W        W 7712  10.565   4.980   0.931
 3662W        W 7713   5.890   7.997   9.062
 3663W        W 7714   1.735   7.374   1.872
 3664W        W 7715   1.153   3.306   1.920
 3665W        W 7716   3.579   1.383   2.397
 3666W        W 7717   8.191   2.178  10.141
 3667W        W 7718   4.601   4.827   1.509
 3668W        W 7719   0.286  10.550  10.368
 3669W        W 7720   1.054   3.293   2.675
 3670W        W 7721   9.906   7.674  11.290
 3671W        W 7722   8.607  10.394   3.177
 3672W        W 7723   6.513   4.837  11.484
 3673W        W 7724   8.109   3.613   3.324
 3674W        W 7725  10.560   2.735   3.481
 3675W        W 7726   5.550   6.160   0.144
 3676W        W 7727   1.872   6.164  10.268
 3677W        W 7728   7.358  11.019   0.865
 3678W        W 7729   1.904   9.812  10.809
 3679W        W 7730   5.178   8.858  11.236
 3680W        W 7731   3.877   9.940  11.741
 3681W        W 7732   7.042   4.413   3.922
 3682W        W 7733   2.598   1.687  10.887
 3683W        W 7734   6.858  11.326  10.452
 3684W        W 7735  11.243  10.335   1.147
 3685W        W 7736   5.500   4.074  11.254
 3686W        W 7737   7.109   9.657   9.323
 3687W        W 7738   4.377   4.319   2.150
 3688W        W 7739  10.243   5.301   2.670
 3689W        W 7740   2.256   0.727  11.705
 3690W        W 7741   8.083   9.627  10.435
 3691W        W 7742   1.773   2.277   3.206
 3692W        W 7743   6.033   3.223   1.680
 3693W        W 7744  10.862   1.747   9.256
 3694W        W 7745   2.255   6.161   1.464
 3695W        W 7746   0.193  11.365   0.993
 3696W        W 7747   9.590   5.362   0.760
 3697W        W 7748   4.227   1.890  11.220
 3698W        W 7749  10.140   3.860   1.645
 3699W        W 7750   3.196  10.454   1.372
 3700W        W 7751   4.893   8.624   9.086
 3701W        W 7752   8.753   8.307   3.491
 3702W        W 7753   3.046   3.101  10.423
 3703W        W 7754   5.325  11.166   0.335
 3704W        W 7755   8.428   6.728  11.324
 3705W        W 7756   6.714   7.136   0.798
 3706W        W 7757   6.095   1.607   9.956
 3707W        W 7758  10.106   8.476   1.459
 3708W        W 7759   7.974   0.970   9.581
 3709W        W 7760   1.165   1.480  10.325
 3710W        W 7761   5.934   9.405   1.656
 3711W        W 7762  11.406  11.499  11.355
 3712W        W 7763   1.159   4.259   2.690
 3713W        W 7764   3.123   1.289   0.538
 3714W        W 7765   9.456   3.889   0.898
 3715W        W 7766   3.113   8.466   1.964
 3716W        W 7767   3.761   4.699   3.118
 3717W        W 7768   6.188   0.802  10.818
 3718W        W 7769   4.405   1.846   2.115
 3719W        W 7770   1.332   6.573   2.696
 3720W        W 7771  10.975  10.775   2.008
 3721W        W 7772   3.034   4.638  11.987
 3722W        W 7773   6.466   9.552  10.981
 3723W        W 7774   4.076   8.660   9.903
 3724W        W 7775  10.278   3.230  11.878
 3725W        W 7776  10.127  11.483  11.831
 3726W        W 7777   4.196   8.275   0.361
 3727W        W 7778   9.922   2.206   0.311
 3728W        W 7779   1.170   4.059   9.828
 3729W        W 7780   9.456   6.758  11.263
 3730W        W 7781   1.272   7.114   1.855
 3731W        W 7782   2.869   2.312   9.490
 3732W        W 7783   3.003   0.565   9.908
 3733W        W 7784   4.251   7.238  10.886
 3734W        W 7785   0.821  10.972   2.923
 3735W        W 7786   5.505   6.573   2.672
 3736W        W 7787   6.075   4.651  11.723
 3737W        W 7788   7.169   3.682   0.289
 3738W        W 7789  10.200   6.689   9.986
 3739W        W 7790   9.020   9.580   2.718
 3740W        W 7791   0.312   2.453   1.953
 3741W        W 7792   3.756   9.995   2.553
 3742W        W 7793   0.014   5.267   9.389
 3743W        W 7794  11.479   5.287   1.001
 3744W        W 7795   4.963   5.209  10.312
 3745W        W 7796   7.104   2.901  10.315
 3746W        W 7797   9.809   0.546   2.669
 3747W        W 7798   3.519   1.332  11.691
 3748W        W 7799  11.036   8.590  11.852
 3749W        W 7800   4.157   2.345   1.279
 3750W        W 7801   9.940   6.576   9.545
 3751W        W 7802   0.284   1.273   3.329
 3752W        W 7803   4.106   3.096   0.748
 3753W        W 7804   9.966   6.691  11.949
 3754W        W 7805   1.687   1.461   1.340
 3755W        W 7806  10.695   4.033   1.626
 3756W        W 7807   0.326   7.493   1.004
 3757W        W 7808  11.455   0.450   1.821
 3758W        W 7809   0.188   3.050   0.908
 3759W        W 7810   3.705  11.102   1.689
 3760W        W 7811   2.030   6.874   0.317
 3761W        W 7812  11.442   3.882   9.533
 3762W        W 7813  10.277   6.094  10.354
 3763W        W 7814   1.449   7.828   1.416
 3764W        W 7815  11.086   1.704  11.325
 3765W        W 7816   2.271   8.131   1.677
 3766W        W 7817   3.652   7.474   2.370
 3767W        W 7818   8.007  10.260   1.040
 3768W        W 7819   1.362   5.585   2.262
 3769W        W 7820   7.356   8.540   0.877
 3770W        W 7821   5.264   9.006   2.779
 3771W        W 7822   6.043   3.100   8.125
 3772W        W 7823   6.749   3.673  10.425
 3773W        W 7824   5.996   4.201   8.937
 3774W        W 7825   9.448   1.891  11.895
 3775W        W 7826   6.440   8.119   3.834
 3776W        W 7827   9.151   3.339   0.930
 3777W        W 7828   4.209   9.282   2.182
 3778W        W 7829   4.777  10.883  10.758
 3779W        W 7830   0.843   4.626   1.468
 3780W        W 7831   4.275   2.320  11.493
 3781W        W 7832  10.002   6.401   8.535
 3782W        W 7833   1.029   7.508  11.385
 3783W        W 7834  10.123   9.735   2.191
 3784W        W 7835   6.779   6.454   1.265
 3785W        W 7836   6.151   6.539  11.184
 3786W        W 7837   2.421   9.373   1.210
 3787W        W 7838   5.539   9.407  10.795
 3788W        W 7839   1.837   0.821   9.540
 3789W        W 7840   5.701   8.850  10.819
 3790W        W 7841   6.161   0.940   9.098
 3791W        W 7842   7.001   9.558  10.836
 3792W        W 7843   5.640   1.830  10.560
 3793W        W 7844   1.792   3.562   9.925
 3794W        W 7845   4.737   1.139   1.684
 3795W        W 7846   7.422  10.225   8.540
 3796W        W 7847   4.685   7.108   1.040
 3797W        W 7848   6.545   2.878   9.889
 3798W        W 7849   9.953   6.653  11.331
 3799W        W 7850  10.808   4.678   2.280
 3800W        W 7851   5.492   4.606   1.441
 3801W        W 7852   0.191   6.049   8.936
 3802W        W 7853   7.535  10.799   9.303
 3803W        W 7854   7.962   9.500   2.358
 3804W        W 7855   2.291  10.920   3.342
 3805W        W 7856   3.645   4.156   0.236
 3806W        W 7857   0.376   8.848  10.645
 3807W        W 7858   8.600   2.728   0.027
 3808W        W 7859   9.834   6.607   1.360
 3809W        W 7860   5.133   0.177   9.498
 3810W        W 7861  11.477   8.203   1.409
 3811W        W 7862  10.031   7.097   1.385
 3812W        W 7863   7.720   5.900  10.634
 3813W        W 7864   6.256   3.590   8.179
 3814W        W 7865   5.125   6.727   3.020
 3815W        W 7866   0.612   1.287   1.495
 3816W        W 7867   4.204  10.467   2.907
 3817W        W 7868  10.929   7.723   0.095
 3818W        W 7869   1.854   1.481  11.882
 3819W        W 7870   7.219   1.234  10.487
 3820W        W 7871  10.082   8.395   3.234
 3821W        W 7872   7.949  11.465   9.503
 3822W        W 7873  10.318   8.476  11.097
 3823W        W 7874   2.395   8.930   0.436
 3824W        W 7875   1.222   4.611   3.510
 3825W        W 7876   5.474   0.842  10.354
 3826W        W 7877   1.964  10.280   0.562
 3827W        W 7878   9.269   7.131   0.806
 3828W        W 7879   2.389   1.955   1.335
 3829W        W 7880   2.715  10.587   1.503
 3830W        W 7881   2.315   7.639   9.026
 3831W        W 7882   4.833   9.022   0.401
 3832W        W 7883   1.659   3.146  10.609
 3833W        W 7884   6.033   9.244  10.917
 3834W        W 7885   8.393   2.933   1.775
 3835W        W 7886   3.446   3.388   2.248
 3836W        W 7887   0.887   0.486  11.921
 3837W        W 7888  10.749   4.552   3.241
 3838W        W 7889   1.767   7.890   1.845
 3839W        W 7890   4.635   9.815   1.781
 3840W        W 7891  11.134   5.098   0.046
 3841W        W 7892   1.644   1.771   9.082
 3842W        W 7893   5.038   2.520   9.834
 3843W        W 7894  10.423   1.001   8.772
 3844W        W 7895   2.712   1.406   2.339
 3845W        W 7896   4.751   3.273  11.759
 3846W        W 7897   5.113   8.165  10.653
 3847W        W 7898   7.721   4.294   0.259
 3848W        W 7899   8.982   8.379   0.369
 3849W        W 7900   9.584   0.292   9.863
 3850W        W 7901   4.211   7.312   1.744
 3851W        W 7902   8.746   8.542   9.044
 3852W        W 7903   3.854   7.076  10.624
 3853W        W 7904   5.112   6.023   0.492
 3854W        W 7905   6.751   8.034   9.904
 3855W        W 7906   9.703   7.659   1.823
 3856W        W 7907   6.543   1.897   3.263
 3857W        W 7908  11.054   9.399   2.596
 3858W        W 7909   2.384   1.459  10.411
 3859W        W 7910   0.916   1.408   0.574
 3860W        W 7911   4.180  11.496   3.123
 3861W        W 7912   0.104   8.938   3.566
 3862W        W 7913   0.478   6.485   2.627
 3863W        W 7914   5.672   1.368  10.340
 3864W        W 7915   3.164   3.716   3.280
 3865W        W 7916   7.126   3.562   9.581
 3866W        W 7917   8.653   1.835   2.318
 3867W        W 7918   1.798   2.580   2.749
 3868W        W 7919   3.254   0.973   1.721
 3869W        W 7920   2.585   2.713   2.913
 3870W        W 7921  10.358   6.991   1.779
 3871W        W 7922  10.008   4.329   2.175
 3872W        W 7923   0.930   5.967   2.171
 3873W        W 7924   0.846   1.067   9.492
 3874W        W 7925   5.630   5.093   1.267
 3875W        W 7926   6.814   2.441   1.385
 3876W        W 7927   7.051   6.688  10.523
 3877W        W 7928   0.078   7.202   2.152
 3878W        W 7929   2.640   9.633   0.794
 3879W        W 7930   4.229   5.222   0.031
 3880W        W 7931  11.052   2.829  11.268
 3881W        W 7932   1.201   5.645  11.586
 3882W        W 7933   5.159   7.735  10.992
 3883W        W 7934   4.411   2.093   1.662
 3884W        W 7935   5.718   8.539   2.824
 3885W        W 7936   9.425   5.659  10.829
 3886W        W 7937   4.105   7.079   9.756
 3887W        W 7938  11.323   3.376   8.658
 3888W        W 7939   8.675   2.822  10.518
 3889W        W 7940   8.491   8.571   8.583
 3890W        W 7941   4.922   2.486   0.204
 3891W        W 7942   3.952   7.958   9.424
 3892W        W 7943   3.229   2.880   2.217
 3893W        W 7944  10.786  10.163  10.529
 3894W        W 7945   2.885  10.008   9.166
 3895W        W 7946   1.221   6.604   3.231
 3896W        W 7947   7.696   0.265   3.391
 3897W        W 7948   3.373   6.659  11.217
 3898W        W 7949  10.916   1.789   3.197
 3899W        W 7950   4.077   1.294   2.352
 3900W        W 7951   6.659   2.239   8.431
 3901W        W 7952   3.771   7.196   1.490
 3902W        W 7953   1.112   6.983   1.365
 3903W        W 7954   3.709  11.477  10.512
 3904W        W 7955   2.258   4.620  10.306
 3905W        W 7956   3.857   1.361   1.434
 3906W        W 7957   7.866   8.575   0.901
 3907W        W 7958   5.424   1.146   1.147
 3908W        W 7959   0.043   3.634   1.548
 3909W        W 7960   0.494   5.399   9.368
 3910W        W 7961   5.220  10.936  11.059
 3911W        W 7962   7.024   9.489  11.734
 3912W        W 7963   1.835   0.302   2.212
 3913W        W 7964  11.283   2.551   9.296
 3914W        W 7965   0.805   1.774   0.972
 3915W        W 7966   7.103   2.128  11.878
 3916W        W 7967   5.298   5.142   0.477
 3917W        W 7968   1.821   3.879  10.985
 3918W        W 7969   0.262   1.312   9.454
 3919W        W 7970   5.853   9.646   1.183
 3920W        W 7971   5.049   3.047   2.700
 3921W        W 7972   1.219   2.302  11.191
 3922W        W 7973   7.966   4.663   0.674
 3923W        W 7974   9.636   2.363  11.921
 3924W        W 7975  11.401   6.580   3.491
 3925W        W 7976   2.773   0.748   9.488
 3926W        W 7977  10.888   3.603   8.843
 3927W        W 7978   8.563   3.850   3.190
 3928W        W 7979   5.271   2.749   0.481
 3929W        W 7980   2.170   1.305  11.515
 3930W        W 7981   2.465   8.345   2.566
 3931W        W 7982   0.245   0.789  11.465
 3932W        W 7983  11.125   1.622  10.814
 3933W        W 7984   1.471   1.872  10.464
 3934W        W 7985   2.898   6.935   9.039
 3935W        W 7986   3.100   8.294   2.453
 3936W        W 7987  10.628   7.907   3.472
 3937W        W 7988   3.498  10.578   1.810
 3938W        W 7989   2.399   9.870   1.209
 3939W        W 7990   0.741   1.172  10.800
 3940W        W 7991  11.217  10.587  11.937
 3941W        W 7992  11.247   7.867  11.485
 3942W        W 7993   5.314  10.008   2.652
 3943W        W 7994   6.108   4.757   0.728
 3944W        W 7995  11.476   4.898   1.316
 3945W        W 7996   6.546   0.838   8.760
 3946W        W 7997   3.613   6.172   0.492
 3947W        W 7998   8.481   4.018   9.963
 3948W        W 7999   2.852   9.120   1.201
 3949W        W 8000   9.929   2.841   8.381
 3950W        W 8001   8.411   4.276  11.825
 3951W        W 8002   8.929   2.645   2.215
 3952W        W 8003   7.614   0.743  11.123
 3953W        W 8004   8.239   6.454  10.075
 3954W        W 8005   9.147   1.280   9.011
 3955W        W 8006   8.325   6.971  10.773
 3956W        W 8007   8.994   6.908   8.114
 3957W        W 8008   2.901   0.424   3.572
 3958W        W 8009   9.520   6.244   9.064
 3959W        W 8010  10.338   9.428   1.382
 3960W        W 8011   8.959   8.092   8.996
 3961W        W 8012   5.003   4.699   1.232
 3962W        W 8013   2.833   5.939  10.180
 3963W        W 8014   6.255   4.278   0.473
 3964W        W 8015   5.607   3.876   9.061
 3965W        W 8016   3.647   2.527   2.072
 3966W        W 8017   2.589   9.526   3.127
 3967W        W 8018   0.525   9.844  11.056
 3968W        W 8019   7.857   2.419  10.496
 3969W        W 8020   4.198   9.983   8.870
 3970W        W 8021   2.679   0.571  10.334
 3971W        W 8022   3.450  10.138  11.475
 3972W        W 8023   9.484   1.634   0.347
 3973W        W 8024   7.738   1.264   9.948
 3974W        W 8025   3.607  10.310  10.953
 3975W        W 8026   7.732  11.076  10.663
 3976W        W 8027   4.183   3.468   0.398
 3977W        W 8028   7.514  10.355   9.559
 3978W        W 8029   1.621  10.494  11.689
 3979W        W 8030   7.590   6.123   3.782
 3980W        W 8031   9.931   2.783   2.287
 3981W        W 8032   6.658   9.928   1.353
 3982W        W 8033   6.668   3.367   9.785
 3983W        W 8034  11.311   9.010   9.587
 3984W        W 8035   2.793  10.059   1.522
 3985W        W 8036   7.217   8.474   2.383
 3986W        W 8037   9.169   5.490  10.076
 3987W        W 8038  10.704   2.356   1.261
 3988W        W 8039   5.637   4.863  11.924
 3989W        W 8040   6.126   2.301   3.205
 3990W        W 8041   0.649   5.867   9.945
 3991W        W 8042   4.637   6.816   0.209
 3992W        W 8043   2.215   3.917   1.839
 3993W        W 8044   4.518  10.789   8.812
 3994W        W 8045   0.968   6.648  10.394
 3995W        W 8046   9.253   9.012  10.347
 3996W        W 8047   0.436   0.058   0.582
 3997W        W 8048   8.574   7.958   2.252
 3998W        W 8049   1.448   9.338  10.067
 3999W        W 8050   4.330  10.400   0.546
 4000W        W 8051   4.566   0.872   1.250
 4001W        W 8052   0.314   0.706   8.672
 4002W        W 8053   7.605   9.041   1.142
 4003W        W 8054   5.458   0.383   3.042
 4004W        W 8055   0.042   5.266   2.317
 4005W        W 8056   0.830   6.262  10.893
 4006W        W 8057   9.698   9.603   0.230
 4007W        W 8058   5.247  11.398  11.273
 4008W        W 8059   0.806   4.628   1.965
 4009W        W 8060   7.647   7.562  10.421
 4010W        W 8061   8.250   0.343   3.483
 4011W        W 8062   4.463   7.120   9.350
 4012W        W 8063   4.172  10.080   1.874
 4013W        W 8064   3.115   3.642  10.055
 4014W        W 8065   9.484   0.746   3.562
 4015W        W 8066   3.361  10.989  11.684
 4016W        W 8067   1.035   5.132   0.311
 4017W        W 8068   7.853   2.404  11.487
 4018W        W 8069  10.857   5.005   0.483
 4019W        W 8070   5.020   0.466   2.153
 4020W        W 8071   6.317  11.271   1.138
 4021W        W 8072   1.907  10.866   9.693
 4022W        W 8073   3.758   5.007   1.747
 4023W        W 8074   8.809  10.507   3.627
 4024W        W 8075   6.038  10.008   0.856
 4025W        W 8076   3.543  10.656  11.337
 4026W        W 8077   5.030   3.423  10.547
 4027W        W 8078  10.861   7.716   3.033
 4028W        W 8079   3.124   7.413   0.366
 4029W        W 8080   9.586   4.938   4.375
 4030W        W 8081   4.802   7.978  10.275
 4031W        W 8082   3.319   2.707   3.233
 4032W        W 8083   0.558   0.853   1.734
 4033W        W 8084   7.478   9.800   3.223
 4034W        W 8085   2.881   4.528  10.426
 4035W        W 8086   5.109   8.973   2.010
 4036W        W 8087   5.215   3.215   8.728
 4037W        W 8088  10.306   6.948   9.547
 4038W        W 8089   9.119   3.690   9.484
 4039W        W 8090   8.813   1.309   1.290
 4040W        W 8091   2.796   1.272   9.496
 4041W        W 8092   2.124   2.900   3.028
 4042W        W 8093   5.828  10.597  10.500
 4043W        W 8094   3.750   2.637   9.831
 4044W        W 8095  10.872   3.284   9.934
 4045W        W 8096  11.083   5.083   2.422
 4046W        W 8097   8.015   1.044   3.494
 4047W        W 8098  11.008   3.121  10.415
 4048W        W 8099  11.425   2.318   0.400
 4049W        W 8100   3.322   9.348  11.062
 4050W        W 8101   5.130   1.592   9.243
 4051W        W 8102   9.555   7.532  10.327
 4052W        W 8103   4.223   2.846  11.534
 4053W        W 8104   6.591   0.435   1.373
 4054W        W 8105   0.117   8.568   1.068
 4055W        W 8106   0.040   2.345  10.389
 4056W        W 8107   0.511   3.836   3.368
 4057W        W 8108   2.613   6.173   3.307
 4058W        W 8109   2.855   2.024   1.161
 4059W        W 8110   2.870   3.334   3.520
 4060W        W 8111   8.849   0.378   1.833
 4061W        W 8112   0.513   9.325   3.503
 4062W        W 8113   8.928   5.128   2.277
 4063W        W 8114   6.160   3.073   3.732
 4064W        W 8115  11.276   5.635   9.693
 4065W        W 8116   9.161   8.086  11.936
 4066W        W 8117   7.655  11.253  11.139
 4067W        W 8118   1.774   2.466  10.892
 4068W        W 8119   2.322   0.057   3.317
 4069W        W 8120   3.317   9.642  11.476
 4070W        W 8121   6.642   7.016   0.312
 4071W        W 8122   1.296   7.643   1.849
 4072W        W 8123   9.522   8.658   8.552
 4073W        W 8124  10.032   4.858   2.781
 4074W        W 8125  10.154  11.426   0.651
 4075W        W 8126   9.619   4.087   1.349
 4076W        W 8127   4.609   2.115   8.625
 4077W        W 8128   6.727   0.407   3.203
 4078W        W 8129   9.704   1.482   0.792
 4079W        W 8130   4.637  11.486   9.548
 4080W        W 8131   6.032   1.285   2.186
 4081W        W 8132   9.835   7.493  10.784
 4082W        W 8133   7.931   5.003  11.539
 4083W        W 8134   7.916   9.470   0.185
 4084W        W 8135   5.637   5.690   1.893
 4085W        W 8136   8.227   2.272   0.907
 4086W        W 8137   2.920   9.758   3.448
 4087W        W 8138   6.742   8.966   0.823
 4088W        W 8139   6.437   9.929   3.150
 4089W        W 8140   5.444   5.900   1.468
 4090W        W 8141   8.496   8.231   0.195
 4091W        W 8142   6.363   2.315   1.896
 4092W        W 8143   0.754   3.282   0.399
 4093W        W 8144   9.565   8.948   8.979
 4094W        W 8145   8.311   3.040   9.933
 4095W        W 8146  11.053   2.912   9.606
 4096W        W 8147   4.684   2.970  11.363
 4097W        W 8148   6.585  11.343  11.852
 4098W        W 8149  10.144   2.332   8.583
 4099W        W 8150  10.426   0.368  11.679
 4100W        W 8151   0.754   4.327   9.987
 4101W        W 8152  11.271   4.848   0.808
 4102W        W 8153   8.427   2.063   2.768
 4103W        W 8154   5.550   9.732   3.303
 4104W        W 8155  10.526  10.881   1.370
 4105W        W 8156   9.002   8.676  10.738
 4106W        W 8157  11.358   8.742  11.374
 4107W        W 8158   7.061  10.090   9.581
 4108W        W 8159   0.162   0.746   3.407
 4109W        W 8160   4.928   1.862   8.276
 4110W        W 8161   7.858   1.150   2.219
 4111W        W 8162   8.024  11.279  11.898
 4112W        W 8163   6.432   6.405   9.032
 4113W        W 8164  10.615   9.527   3.226
 4114W        W 8165  11.016   4.705   2.801
 4115W        W 8166  11.499   9.813   2.239
 4116W        W 8167   8.983   2.180   9.553
 4117W        W 8168   4.589  10.990   0.405
 4118W        W 8169   7.112   2.313   2.486
 4119W        W 8170   5.746   1.272  11.360
 4120W        W 8171  10.458   0.758   3.650
 4121W        W 8172   0.015   6.163   3.168
 4122W        W 8173   5.237   5.500   1.274
 4123W        W 8174   2.656   6.991   1.817
 4124W        W 8175   5.093   7.625  10.014
 4125W        W 8176  10.862   5.480   8.588
 4126W        W 8177   0.813   5.619  10.423
 4127W        W 8178   5.595   9.585   2.801
 4128W        W 8179   3.103   8.466  10.919
 4129W        W 8180   5.559  10.198   0.910
 4130W        W 8181   1.387   1.886   1.209
 4131W        W 8182   4.157   7.557   1.314
 4132W        W 8183   3.816   0.007   1.290
 4133W        W 8184   6.132   0.858   3.003
 4134W        W 8185  11.148  10.521   1.608
 4135W        W 8186   0.902   0.541   3.690
 4136W        W 8187   9.968   3.310   0.343
 4137W        W 8188   4.273   9.080  11.238
 4138W        W 8189  11.127   3.919   0.126
 4139W        W 8190   3.798   3.130   0.303
 4140W        W 8191   0.141   3.144   1.796
 4141W        W 8192   6.493   7.351   2.405
 4142W        W 8193   4.809   6.947   3.356
 4143W        W 8194   4.532  10.300  10.326
 4144W        W 8195   9.572   2.464  10.168
 4145W        W 8196   0.781   8.731   3.249
 4146W        W 8197   9.465   6.220   1.474
 4147W        W 8198   6.998   1.786   9.287
 4148W        W 8199  11.245   3.046  11.683
 4149W        W 8200   8.105   8.124   0.840
 4150W        W 8201   6.639   1.584   2.868
 4151W        W 8202   9.027   2.245   9.047
 4152W        W 8203   8.757   4.608  11.318
 4153W        W 8204   2.294   1.796  10.053
 4154W        W 8205   1.928   5.325   9.905
 4155W        W 8206   1.066   2.311   0.230
 4156W        W 8207  11.205   6.916   9.864
 4157W        W 8208   2.105  10.920  11.307
 4158W        W 8209   7.930   4.046   1.681
 4159W        W 8210   0.938   8.436   2.801
 4160W        W 8211   8.596   1.874  11.489
 4161W        W 8212   6.949   4.683  10.237
 4162W        W 8213   7.022   1.288   9.427
 4163W        W 8214  11.241   1.344   1.909
 4164W        W 8215   4.368   5.604   1.866
 4165W        W 8216   9.110   8.512   1.792
 4166W        W 8217   5.108   9.509   2.884
 4167W        W 8218   6.014   2.890   3.267
 4168W        W 8219   2.208   7.487   0.507
 4169W        W 8220   8.265   2.699   2.703
 4170W        W 8221   8.834  11.420   2.609
 4171W        W 8222   2.543   9.002   8.543
 4172W        W 8223   4.923   2.928  10.530
 4173W        W 8224   8.852   9.503   9.774
 4174W        W 8225   5.235   7.502   9.558
 4175W        W 8226   9.224   6.091  11.770
 4176W        W 8227   8.013   8.717   9.976
 4177W        W 8228   5.502   8.071   0.267
 4178W        W 8229   9.537   1.526   9.806
 4179W        W 8230   6.118   3.805   0.995
 4180W        W 8231   1.153   7.438   3.168
 4181W        W 8232   3.722   9.007   3.246
 4182W        W 8233   4.857   1.005   0.387
 4183W        W 8234   2.468   7.992   9.379
 4184W        W 8235   2.189   8.429   1.153
 4185W        W 8236   2.043   4.248   9.386
 4186W        W 8237   4.681   5.274   0.256
 4187W        W 8238   1.489   8.624   2.810
 4188W        W 8239   4.385   9.462   2.649
 4189W        W 8240  11.326   7.771  10.994
 4190W        W 8241   6.103   5.903   1.816
 4191W        W 8242   0.358   8.045  11.764
 4192W        W 8243  10.879   8.126  11.719
 4193W        W 8244  10.847   1.501  10.104
 4194W        W 8245   8.401   9.395   9.547
 4195W        W 8246  11.432   4.388   0.653
 4196W        W 8247   5.925   4.628   9.205
 4197W        W 8248  10.477   5.051   1.793
 4198W        W 8249   5.198   3.953   0.932
 4199W        W 8250   4.668   6.947  10.885
 4200W        W 8251   1.182  10.630   3.584
 4201W        W 8252   5.413  10.349  10.276
 4202W        W 8253   7.678   2.718   9.514
 4203W        W 8254   6.653   0.926   0.470
 4204W        W 8255   8.119   8.682   1.979
 4205W        W 8256   0.799   1.060  11.302
 4206W        W 8257   1.581   0.864   0.592
 4207W        W 8258   8.540   5.586  11.401
 4208W        W 8259   4.549   7.504  10.565
 4209W        W 8260   1.487   3.065   9.033
 4210W        W 8261   2.556   8.621  11.005
 4211W        W 8262   6.345   2.343   0.356
 4212W        W 8263   9.289   4.184   9.363
 4213W        W 8264  11.238   5.356   1.440
 4214W        W 8265   4.358   6.661   9.981
 4215W        W 8266   9.634   1.037   1.687
 4216W        W 8267   9.126   8.068   0.809
 4217W        W 8268  10.461  10.318  11.028
 4218W        W 8269   9.827   9.568  11.646
 4219W        W 8270  10.457   8.495   9.077
 4220W        W 8271   3.026  10.946   1.314
 4221W        W 8272   0.731   3.828   9.894
 4222W        W 8273  10.197   7.642   1.121
 4223W        W 8274   9.106   1.731   8.752
 4224W        W 8275   9.495   8.425   2.150
 4225W        W 8276   7.408   7.577  10.877
 4226W        W 8277   0.874   9.580   2.159
 4227W        W 8278   1.956   9.584   1.210
 4228W        W 8279   4.189   6.240   9.747
 4229W        W 8280   0.534   2.607   1.511
 4230W        W 8281   5.897   5.720   2.316
 4231W        W 8282   5.058   0.483   8.942
 4232W        W 8283   7.730  10.565   0.248
 4233W        W 8284   7.671   9.034   2.584
 4234W        W 8285   7.428   2.772   0.894
 4235W        W 8286   8.234   1.329  11.754
 4236W        W 8287   2.338   8.488   9.306
 4237W        W 8288   7.969  11.308   2.486
 4238W        W 8289   4.229   6.998   1.229
 4239W        W 8290   8.536   0.177   1.467
 4240W        W 8291   9.280   4.498  11.424
 4241W        W 8292  11.334   1.215  11.016
 4242W        W 8293   3.671   1.324   9.636
 4243W        W 8294   9.092   5.811   8.613
 4244W        W 8295   9.989  10.565  11.307
 4245W        W 8296   2.284   7.253  11.554
 4246W        W 8297   4.840   2.109   1.927
 4247W        W 8298   5.239   1.203  10.062
 4248W        W 8299  11.452  10.465   3.279
 4249W        W 8300   1.767   8.405   1.831
 4250W        W 8301   6.039   3.729   3.850
 4251W        W 8302   4.139   4.758   8.656
 4252W        W 8303   8.116   9.425   1.812
 4253W        W 8304   5.853   8.963   0.026
 4254W        W 8305  11.163   4.270  10.275
 4255W        W 8306   4.046   1.475   0.951
 4256W        W 8307  11.423   7.694   1.234
 4257W        W 8308   5.268   8.441  11.526
 4258W        W 8309   4.722   4.309  11.837
 4259W        W 8310   9.999   1.682   0.347
 4260W        W 8311   8.399  10.354   1.394
 4261W        W 8312  10.505  10.853   8.841
 4262W        W 8313   0.485   9.579   2.993
 4263W        W 8314   7.402   4.118   9.135
 4264W        W 8315   1.732   5.987   3.245
 4265W        W 8316   4.307   0.251   0.418
 4266W        W 8317   6.164   7.493  11.265
 4267W        W 8318   7.171   9.130  10.046
 4268W        W 8319   2.916   0.946   2.105
 4269W        W 8320   9.427   8.981   3.577
 4270W        W 8321   2.249   2.811   2.546
 4271W        W 8322  11.227   0.031   0.879
 4272W        W 8323   6.597   3.640   1.905
 4273W        W 8324   6.152   2.487   0.837
 4274W        W 8325   2.009  10.730   0.845
 4275W        W 8326   7.964   4.043  11.905
 4276W        W 8327   7.431  10.918   9.873
 4277W        W 8328  10.936   1.252   9.110
 4278W        W 8329  10.722   6.549   1.793
 4279W        W 8330  10.369   6.035   9.518
 4280W        W 8331   8.345   2.339  11.436
 4281W        W 8332   8.404   1.546   2.690
 4282W        W 8333   3.116   2.128   2.586
 4283W        W 8334   7.567   2.550   3.175
 4284W        W 8335   7.897  10.413   8.527
 4285W        W 8336   4.953   8.987   9.479
 4286W        W 8337   5.055   8.824  11.837
 4287W        W 8338   2.745   2.215   2.973
 4288W        W 8339   6.500   5.916  11.938
 4289W        W 8340   7.569   6.890   0.796
 4290W        W 8341   5.337   0.349  11.509
 4291W        W 8342   9.159   2.797   2.829
 4292W        W 8343   1.744  11.269   2.972
 4293W        W 8344   4.229   9.544  11.992
 4294W        W 8345   8.998   4.115  11.173
 4295W        W 8346   1.806   9.177   2.323
 4296W        W 8347   6.876   9.410   2.454
 4297W        W 8348   8.373   1.589   1.370
 4298W        W 8349   7.042   6.943  11.025
 4299W        W 8350   9.110   3.088   3.242
 4300W        W 8351   3.561   9.328   0.882
 4301W        W 8352   8.390   1.116   2.158
 4302W        W 8353   6.967   4.662   1.234
 4303W        W 8354   1.810   8.885   0.894
 4304W        W 8355   3.617   1.741   1.731
 4305W        W 8356   5.620   1.754  11.465
 4306W        W 8357   4.232   3.183   9.577
 4307W        W 8358   8.548   2.840   8.624
 4308W        W 8359  10.681   2.293  10.527
 4309W        W 8360   6.351  10.652   8.416
 4310W        W 8361   9.356  10.809   9.831
 4311W        W 8362   1.726  10.887   0.012
 4312W        W 8363   2.745   5.640  11.257
 4313W        W 8364   0.141   2.399   9.618
 4314W        W 8365   4.404   8.660  10.934
 4315W        W 8366   9.096   2.395   1.674
 4316W        W 8367   0.578   2.925   1.900
 4317W        W 8368   2.414   2.532   9.625
 4318W        W 8369   2.831   0.029   3.226
 4319W        W 8370   3.642   0.752   0.848
 4320W        W 8371   1.886  10.010  11.774
 4321W        W 8372   1.862  10.591   8.771
 4322W        W 8373   0.986   0.671   9.867
 4323W        W 8374   8.565   5.350   0.801
 4324W        W 8375   6.777   7.484   8.656
 4325W        W 8376  10.413   5.524  11.886
 4326W        W 8377   5.133   7.370   2.273
 4327W        W 8378   1.231   2.632   9.870
 4328W        W 8379  10.046   6.783   4.375
 4329W        W 8380  10.727   5.141   8.996
 4330W        W 8381   4.156   6.439   4.229
 4331W        W 8382   0.658  11.132   8.567
 4332W        W 8383   5.593   8.005  10.721
 4333W        W 8384   8.688   7.121   2.128
 4334W        W 8385  10.958   0.825  10.931
 4335W        W 8386   6.848   6.142   0.244
 4336W        W 8387  10.354  11.482  11.370
 4337W        W 8388   8.493   1.639  10.022
 4338W        W 8389   3.272   3.038   2.694
 4339W        W 8390   3.550   9.050   0.050
 4340W        W 8391   8.591   9.628  10.616
 4341W        W 8392  10.004  11.321  10.535
 4342W        W 8393  10.901   5.085   9.802
 4343W        W 8394   7.141  11.413   9.956
 4344W        W 8395  10.486   6.542   0.859
 4345W        W 8396   5.491  10.944   2.143
 4346W        W 8397   9.911   9.203   0.013
 4347W        W 8398  10.184   7.997  10.926
 4348W        W 8399   0.984  10.604   9.029
 4349W        W 8400  11.394   2.271   2.374
 4350W        W 8401   5.166   1.742   1.722
 4351W        W 8402   0.383   8.505  11.025
 4352W        W 8403   0.491   8.126   2.697
 4353W        W 8404   8.482   7.195   8.893
 4354W        W 8405   8.404   5.164   1.337
 4355W        W 8406   0.324   7.467   0.484
 4356W        W 8407  10.046   7.032   3.573
 4357W        W 8408   3.074   2.584   2.792
 4358W        W 8409   5.624   7.136   0.207
 4359W        W 8410   2.348  10.905   2.820
 4360W        W 8411  11.336   9.088   2.922
 4361W        W 8412   9.335   9.359   1.284
 4362W        W 8413  11.454   4.146  10.723
 4363W        W 8414   0.979   7.985   1.500
 4364W        W 8415   1.582   9.709   3.282
 4365W        W 8416   6.559   3.423  11.822
 4366W        W 8417   4.260   0.362   9.340
 4367W        W 8418   4.185   0.049   1.716
 4368W        W 8419   8.383   4.208  10.422
 4369W        W 8420   7.588   8.578   2.816
 4370W        W 8421  10.359   1.018  10.300
 4371W        W 8422   7.576   6.697   2.946
 4372W        W 8423   6.030   4.583  10.790
 4373W        W 8424  11.434   2.162   2.880
 4374W        W 8425   9.288   6.464   0.556
 4375W        W 8426   9.878   7.904  10.486
 4376W        W 8427  10.612   1.750  11.442
 4377W        W 8428   6.272   6.580  11.674
 4378W        W 8429   6.202   1.398  10.435
 4379W        W 8430   4.535  10.920  11.582
 4380W        W 8431   9.885   8.127   1.962
 4381W        W 8432   6.089   9.188   1.212
 4382W        W 8433   5.538   7.059  10.852
 4383W        W 8434   0.543   7.371  11.433
 4384W        W 8435   0.627   4.241   2.682
 4385W        W 8436   2.051   5.668   8.651
 4386W        W 8437   3.554   1.781   9.867
 4387W        W 8438   5.441   5.650  10.498
 4388W        W 8439   6.405   9.511   1.504
 4389W        W 8440   0.866   4.615   0.974
 4390W        W 8441  10.441   7.430   3.617
 4391W        W 8442   6.272   4.137   2.747
 4392W        W 8443   2.445   2.645  11.036
 4393W        W 8444   1.697   7.403   0.735
 4394W        W 8445   1.686   3.268   0.991
 4395W        W 8446   0.013  10.871   8.953
 4396W        W 8447   7.399  10.043   0.916
 4397W        W 8448   9.333   1.042   2.134
 4398W        W 8449   1.240   4.265   0.499
 4399W        W 8450   5.604   4.356  11.806
 4400W        W 8451   8.474   2.344   9.582
 4401W        W 8452   1.837   1.020   1.586
 4402W        W 8453   8.698   2.140   0.772
 4403W        W 8454   4.511   2.201  10.925
 4404W        W 8455   1.495  11.265   9.039
 4405W        W 8456   9.924   9.153   2.796
 4406W        W 8457   8.453   4.860   0.905
 4407W        W 8458   0.446   0.263  11.760
 4408W        W 8459   5.182   7.746   1.340
 4409W        W 8460  10.496   1.707   2.835
 4410W        W 8461   7.907   6.509   0.771
 4411W        W 8462   5.985   5.248  10.058
 4412W        W 8463   4.668   5.301  11.738
 4413W        W 8464   8.684   2.113   9.985
 4414W        W 8465   1.701  11.313   9.881
 4415W        W 8466  11.443  10.289   9.599
 4416W        W 8467   2.840  11.145  10.308
 4417W        W 8468   4.516   0.379   1.997
 4418W        W 8469   5.710   9.401  10.311
 4419W        W 8470   5.626   0.275   1.377
 4420W        W 8471   7.861   0.993   0.942
 4421W        W 8472   7.752   9.925   8.779
 4422W        W 8473   1.807  10.957   1.608
 4423W        W 8474   1.272   7.988   9.879
 4424W        W 8475   4.546   9.304   3.563
 4425W        W 8476   6.037   6.632   0.847
 4426W        W 8477   8.183   7.059   2.110
 4427W        W 8478   0.325   4.837   2.153
 4428W        W 8479   4.635   9.789  10.256
 4429W        W 8480   0.419   0.260  10.090
 4430W        W 8481  11.226   0.848  11.381
 4431W        W 8482   7.595   9.889   2.363
 4432W        W 8483   5.190  10.001   8.400
 4433W        W 8484   4.071   9.269   8.987
 4434W        W 8485   5.070   2.984   0.062
 4435W        W 8486   3.484   6.005   3.071
 4436W        W 8487  10.365  10.080   0.770
 4437W        W 8488   3.122   5.268  11.350
 4438W        W 8489   0.447  10.860   9.861
 4439W        W 8490   2.295   5.520  11.066
 4440W        W 8491   6.641   0.546  10.699
 4441W        W 8492   1.201   0.514   0.452
 4442W        W 8493   3.346   7.955   1.806
 4443W        W 8494   0.979   2.905   2.194
 4444W        W 8495   2.723   5.571   9.784
 4445W        W 8496   3.497   0.556   1.853
 4446W        W 8497  10.444   1.759   3.472
 4447W        W 8498   7.646   0.397   0.948
 4448W        W 8499  10.758   2.972  10.871
 4449W        W 8500   8.297   1.442   8.969
 4450W        W 8501   7.934   8.690   9.468
 4451W        W 8502   3.367   9.982   9.355
 4452W        W 8503  10.904  10.917  10.550
 4453W        W 8504   0.224   1.946   1.901
 4454W        W 8505   0.518   9.346  10.863
 4455W        W 8506  10.642   2.601   8.711
 4456W        W 8507   6.952  10.393   2.878
 4457W        W 8508   4.583   4.798   0.987
 4458W        W 8509   8.517   3.967  10.853
 4459W        W 8510   8.338   2.154   0.389
 4460W        W 8511   0.822   7.329   2.681
 4461W        W 8512   8.206   3.765   8.647
 4462W        W 8513   3.524   7.594   0.638
 4463W        W 8514   1.628   1.052   9.129
 4464W        W 8515   6.143  10.279   8.708
 4465W        W 8516  11.287   3.790   2.421
 4466W        W 8517  10.415   0.007  10.238
 4467W        W 8518   8.485   8.097   1.162
 4468W        W 8519   0.054   9.505  11.784
 4469W        W 8520   5.262  10.361   1.395
 4470W        W 8521   5.602  10.447  11.732
 4471W        W 8522   2.876   9.581   0.335
 4472W        W 8523   8.145   2.768   0.309
 4473W        W 8524   1.416   4.658   2.887
 4474W        W 8525   2.851   6.406   9.918
 4475W        W 8526  10.820  10.892  11.859
 4476W        W 8527   8.396   9.450   8.502
 4477W        W 8528   9.442   5.343  11.252
 4478W        W 8529   8.958   5.225   3.297
 4479W        W 8530   3.409   2.208   1.716
 4480W        W 8531  10.511  10.865   2.729
 4481W        W 8532  10.435  11.281   9.754
 4482W        W 8533   1.272   4.756  10.332
 4483W        W 8534   2.647   0.041  11.267
 4484W        W 8535   8.138   2.745  11.774
 4485W        W 8536   1.330   6.998  11.050
 4486W        W 8537   1.490   6.291  11.690
 4487W        W 8538   2.174   5.782  11.877
 4488W        W 8539  11.348   9.014  11.794
 4489W        W 8540  10.040   2.958   2.786
 4490W        W 8541   4.501   2.980   3.092
 4491W        W 8542   9.972   3.198   9.241
 4492W        W 8543  10.899   3.139   1.469
 4493W        W 8544   9.198   3.649  11.254
 4494W        W 8545   3.495   2.309  11.072
 4495W        W 8546   7.982   0.305   9.908
 4496W        W 8547   2.109   0.861   9.108
 4497W        W 8548   1.912   3.134   9.636
 4498W        W 8549  10.266  11.263   1.148
 4499W        W 8550   6.666  11.358   1.982
 4500W        W 8551   4.068   2.993   9.120
 4501W        W 8552   3.963   0.986  10.835
 4502W        W 8553   1.690   2.211  11.380
 4503W        W 8554   3.188   0.708  11.844
 4504W        W 8555   3.354   6.552   9.819
 4505W        W 8556   8.730   9.044  10.270
 4506W        W 8557   5.683   4.052   8.168
 4507W        W 8558   5.863  11.001   0.456
 4508W        W 8559   0.156   0.346   2.499
 4509W        W 8560   5.572   9.716   0.717
 4510W        W 8561   1.200   3.735   3.385
 4511W        W 8562   9.021  10.575   0.246
 4512W        W 8563   2.877   1.350   8.980
 4513W        W 8564   9.527   0.992  10.342
 4514W        W 8565   6.994   1.813   1.163
 4515W        W 8566   1.204   0.212   9.110
 4516W        W 8567   8.943   7.182   1.664
 4517W        W 8568  11.212   9.360  10.386
 4518W        W 8569   9.175   9.545   3.272
 4519W        W 8570   3.891   7.017   2.454
 4520W        W 8571   3.757   7.099  10.116
 4521W        W 8572   4.630   6.401   3.987
 4522W        W 8573   4.724   7.508   9.559
 4523W        W 8574   7.030   8.759  11.577
 4524W        W 8575   1.291  10.486  10.867
 4525W        W 8576   5.688   8.457   8.584
 4526W        W 8577   9.400   1.102   0.253
 4527W        W 8578   1.986   6.980   0.835
 4528W        W 8579   1.128   7.122   9.543
 4529W        W 8580   5.823   5.283  10.556
 4530W        W 8581   6.878   8.534   1.040
 4531W        W 8582   4.053   7.538  10.518
 4532W        W 8583   6.018   2.796   1.344
 4533W        W 8584  11.467   5.136  11.590
 4534W        W 8585   6.684   9.542   1.958
 4535W        W 8586   6.868   8.149  11.786
 4536W        W 8587   4.261   6.980   2.120
 4537W        W 8588   6.085   7.390   1.776
 4538W        W 8589   6.205   0.478  10.325
 4539W        W 8590   9.630   7.980   0.783
 4540W        W 8591   9.913   3.826  10.796
 4541W        W 8592  11.214   1.331   0.054
 4542W        W 8593   5.979   2.683   9.081
 4543W        W 8594  11.365   2.491  11.542
 4544W        W 8595   3.136   6.618   2.036
 4545W        W 8596   6.260   9.071   9.091
 4546W        W 8597   6.835   0.262   0.001
 4547W        W 8598   2.296   0.948  10.401
 4548W        W 8599   7.131   0.268  10.477
 4549W        W 8600   8.082   8.429  10.436
 4550W        W 8601   7.949   3.347  10.132
 4551W        W 8602   9.624  10.448   3.312
 4552W        W 8603   2.599   8.085   8.886
 4553W        W 8604   7.901   3.198   9.636
 4554W        W 8605   9.853   6.130   1.149
 4555W        W 8606   2.462   6.548   9.628
 4556W        W 8607   4.598   9.502  11.219
 4557W        W 8608   5.972   4.400   8.453
 4558W        W 8609   7.736   7.951   9.644
 4559W        W 8610   1.213  11.437   0.951
 4560W        W 8611   6.613  10.813   9.796
 4561W        W 8612   4.673   6.300   8.785
 4562W        W 8613   8.560   9.447   2.891
 4563W        W 8614   5.025  11.045  11.554
 4564W        W 8615   4.599  11.234   0.853
 4565W        W 8616   0.041   9.959   3.139
 4566W        W 8617   4.549   3.358   2.745
 4567W        W 8618   3.336   7.144   0.744
 4568W        W 8619   2.991   9.799   2.924
 4569W        W 8620  10.729  10.323   1.849
 4570W        W 8621   7.514   7.202   2.951
 4571W        W 8622  10.465   6.508   9.347
 4572W        W 8623  11.464   6.796  10.972
 4573W        W 8624   1.297   8.785  10.546
 4574W        W 8625   3.416   9.301   8.759
 4575W        W 8626   8.822   3.050  10.047
 4576W        W 8627   9.599   5.765   9.889
 4577W        W 8628   9.457   6.083   3.444
 4578W        W 8629   2.675   2.308  11.357
 4579W        W 8630   1.473   2.650  11.500
 4580W        W 8631   9.890   8.374  10.319
 4581W        W 8632   9.715   4.767   9.716
 4582W        W 8633   8.112   2.270  11.938
 4583W        W 8634   9.830   4.124  10.047
 4584W        W 8635   2.371  10.157  11.899
 4585W        W 8636   1.326   5.555  10.519
 4586W        W 8637   7.467   1.194  10.946
 4587W        W 8638  10.039   2.740   3.286
 4588W        W 8639   2.151   6.780  11.791
 4589W        W 8640   1.702   3.929   3.321
 4590W        W 8641   5.960   9.128   2.117
 4591W        W 8642  10.464   2.709   2.961
 4592W        W 8643  10.866   8.663   0.369
 4593W        W 8644   6.504  10.644   3.252
 4594W        W 8645   9.385   0.811   1.305
 4595W        W 8646   9.287   3.996   3.587
 4596W        W 8647   4.556  10.803  10.180
 4597W        W 8648   6.426  10.747   0.907
 4598W        W 8649   9.521  11.127   8.443
 4599W        W 8650  10.877   4.035   3.299
 4600W        W 8651   0.749   8.610   8.951
 4601W        W 8652   0.395   5.671   2.363
 4602W        W 8653   4.634   3.198  10.863
 4603W        W 8654  10.277  10.087  10.584
 4604W        W 8655  11.379   4.410   1.164
 4605W        W 8656   7.991   9.940   1.868
 4606W        W 8657   9.920   4.375   2.897
 4607W        W 8658   2.222   4.854   1.697
 4608W        W 8659   6.527   0.699   9.982
 4609W        W 8660   8.631   6.654   9.214
 4610W        W 8661   5.921   3.395  10.311
 4611W        W 8662   7.188   6.160   1.212
 4612W        W 8663   4.247   6.676   9.476
 4613W        W 8664   8.639   2.075   3.599
 4614W        W 8665   7.458   4.266  11.494
 4615W        W 8666   4.243   0.570  10.887
 4616W        W 8667   9.280   3.365   0.003
 4617W        W 8668   0.310   2.680  10.077
 4618W        W 8669   3.783   2.207   9.561
 4619W        W 8670   7.433  11.275   9.475
 4620W        W 8671   0.159   2.249  11.925
 4621W        W 8672   8.023  11.290   1.987
 4622W        W 8673   1.451   8.432   9.691
 4623W        W 8674   2.341   7.674   9.749
 4624W        W 8675   4.980   2.808   2.252
 4625W        W 8676   5.573   7.122   1.192
 4626W        W 8677   5.683   4.239   2.720
 4627W        W 8678   8.843   9.469   1.151
 4628W        W 8679   8.315   0.210   2.482
 4629W        W 8680   2.791   4.732  10.909
 4630W        W 8681   5.199   9.271  11.535
 4631W        W 8682   6.029   0.386   2.797
 4632W        W 8683   4.202   7.526   9.531
 4633W        W 8684   2.348   3.456   9.483
 4634W        W 8685  11.285  11.245   1.312
 4635W        W 8686   8.437  10.865   3.326
 4636W        W 8687   1.220   2.662   8.909
 4637W        W 8688   2.673   8.620   2.209
 4638W        W 8689  10.101   9.789   0.454
 4639W        W 8690   1.855   2.019  11.916
 4640W        W 8691   5.777   1.231   8.952
 4641W        W 8692   1.839   3.744  10.502
 4642W        W 8693   4.599   3.191   9.957
 4643W        W 8694   5.665   3.663  11.018
 4644W        W 8695   6.437   8.263  10.845
 4645W        W 8696   9.373  10.864   3.082
 4646W        W 8697   1.200   3.168   8.639
 4647W        W 8698   7.721   8.582   2.308
 4648W        W 8699  10.992   8.634   9.353
 4649W        W 8700   3.135   0.805   0.763
 4650W        W 8701   4.720   9.061  10.961
 4651W        W 8702   3.149   0.866   9.093
 4652W        W 8703   6.320   8.847  11.919
 4653W        W 8704   5.142  10.545   3.343
 4654W        W 8705  11.319   2.602   9.995
 4655W        W 8706   8.063   0.978   9.070
 4656W        W 8707   6.729   7.702  11.567
 4657W        W 8708   2.158   9.819   0.748
 4658W        W 8709   0.376  10.956   2.631
 4659W        W 8710  11.061   2.608  10.472
 4660W        W 8711   7.526   5.976   0.842
 4661W        W 8712   3.180   4.359   1.211
 4662W        W 8713   2.342   4.120  11.605
 4663W        W 8714  10.031  10.250   2.317
 4664W        W 8715   7.190  10.335   2.419
 4665W        W 8716   8.234   8.515   3.400
 4666W        W 8717   1.296   9.293   8.941
 4667W        W 8718  10.932   0.870  11.848
 4668W        W 8719   6.475   0.110   2.888
 4669W        W 8720  10.372   8.988   0.078
 4670W        W 8721   2.687   1.181   0.306
 4671W        W 8722   7.829   7.714   0.867
 4672W        W 8723   7.511   4.631  10.034
 4673W        W 8724   5.663   3.588   0.270
 4674W        W 8725  10.491   3.640   1.306
 4675W        W 8726   8.262   2.447   1.949
 4676W        W 8727  11.478   9.018   9.118
 4677W        W 8728   3.241   3.359   9.439
 4678W        W 8729   1.676  10.687   0.457
 4679W        W 8730   2.284   4.367   1.463
 4680W        W 8731   0.553   7.065   0.228
 4681W        W 8732  11.027   7.165   9.012
 4682W        W 8733  10.110   9.095   0.938
 4683W        W 8734   1.478   3.213   3.599
 4684W        W 8735   4.814   0.468  11.507
 4685W        W 8736   0.837  10.911   0.211
 4686W        W 8737   9.528   2.391   0.981
 4687W        W 8738   2.867  10.938   8.478
 4688W        W 8739   5.001   9.520   3.378
 4689W        W 8740   8.081   8.467   0.410
 4690W        W 8741   0.555   2.311   0.257
 4691W        W 8742   0.831   7.404   3.569
 4692W        W 8743   8.057   2.037   8.539
 4693W        W 8744   8.531   8.487   2.515
 4694W        W 8745   6.142   6.204  10.270
 4695W        W 8746   0.313   5.278  10.257
 4696W        W 8747   9.837   9.441  11.133
 4697W        W 8748  10.290   0.729   2.744
 4698W        W 8749   2.878   5.047   2.186
 4699W        W 8750   4.976  11.065  10.325
 4700W        W 8751   4.056  10.547  10.259
 4701W        W 8752   9.594  11.017  10.304
 4702W        W 8753   2.931   4.982   1.693
 4703W        W 8754  10.120   3.767  11.252
 4704W        W 8755   5.108  10.948   1.517
 4705W        W 8756   7.511   0.581  10.653
 4706W        W 8757   6.732   6.290  10.514
 4707W        W 8758   6.225   7.104   0.868
 4708W        W 8759   0.123   4.131   2.622
 4709W        W 8760   7.034   1.444   2.142
 4710W        W 8761   2.943   6.901   0.968
 4711W        W 8762  10.591   0.790   1.844
 4712W        W 8763   9.611   1.659  11.487
 4713W        W 8764   2.444   7.029   0.566
 4714W        W 8765   3.174   9.604  10.078
 4715W        W 8766  10.451   8.988   9.235
 4716W        W 8767   5.135  10.554  11.575
 4717W        W 8768   4.773   5.241   1.275
 4718W        W 8769   8.090   0.655   2.255
 4719W        W 8770   0.588   8.682   0.913
 4720W        W 8771   3.509   4.619   3.572
 4721W        W 8772   6.099   5.185   1.040
 4722W        W 8773   2.019   9.079   1.337
 4723W        W 8774   4.829   0.988   9.311
 4724W        W 8775   0.900   2.410   0.704
 4725W        W 8776   8.604   4.644   9.519
 4726W        W 8777   7.254   9.976  11.075
 4727W        W 8778   4.269   7.126  10.273
 4728W        W 8779   7.388   0.837  10.217
 4729W        W 8780   2.582   4.251  10.727
 4730W        W 8781   0.441  10.808   1.661
 4731W        W 8782   9.745   6.629  10.857
 4732W        W 8783   5.883   6.889   3.552
 4733W        W 8784   5.620   4.540   3.481
 4734W        W 8785  10.795   9.571  11.311
 4735W        W 8786   1.560   6.914   0.524
 4736W        W 8787  10.328   3.667   2.467
 4737W        W 8788   8.858  11.001   2.994
 4738W        W 8789   6.325   0.709   9.527
 4739W        W 8790   9.870   0.431  11.803
 4740W        W 8791   6.033   2.668   9.947
 4741W        W 8792   3.165   1.018   3.025
 4742W        W 8793   1.616   0.689   9.976
 4743W        W 8794   4.733   5.239   1.789
 4744W        W 8795   1.820   0.468  11.748
 4745W        W 8796   1.694   3.367  11.939
 4746W        W 8797  11.409   6.153  10.937
 4747W        W 8798   0.704   9.596   1.045
 4748W        W 8799   6.110   7.893   1.783
 4749W        W 8800   1.273   8.299  10.692
 4750W        W 8801   2.721   0.366  11.731
 4751W        W 8802   5.559   6.712   0.903
 4752W        W 8803   0.246   6.166   1.001
 4753W        W 8804   1.705   9.554   9.098
 4754W        W 8805   7.749   6.531  11.886
 4755W        W 8806   9.965   8.003   9.170
 4756W        W 8807   1.908   7.172   8.980
 4757W        W 8808   7.362  11.269  10.384
 4758W        W 8809   4.851  10.844  11.996
 4759W        W 8810   1.362  10.680   2.783
 4760W        W 8811   8.478   9.900   3.133
 4761W        W 8812   8.064  11.363   3.425
 4762W        W 8813   8.036   0.222   1.316
 4763W        W 8814   4.699   2.219  10.062
 4764W        W 8815   2.249   5.700   2.226
 4765W        W 8816   4.332   1.895  10.167
 4766W        W 8817   9.419  10.121   9.460
 4767W        W 8818   1.410   1.475   0.424
 4768W        W 8819  10.389   5.549   8.858
 4769W        W 8820   5.710  11.378   2.281
 4770W        W 8821  10.301   5.277   1.296
 4771W        W 8822   3.670   8.242   2.704
 4772W        W 8823   2.654   9.083   2.441
 4773W        W 8824   5.014   6.200   1.415
 4774W        W 8825  11.432   4.722  10.070
 4775W        W 8826   2.518   7.174   3.653
 4776W        W 8827   0.711   7.572  10.221
 4777W        W 8828   8.041   0.469   8.917
 4778W        W 8829   1.925  11.261   3.467
 4779W        W 8830   1.043  10.524   1.022
 4780W        W 8831   0.169   9.354   0.486
 4781W        W 8832   9.048   3.424   1.889
 4782W        W 8833   9.668   3.717   0.109
 4783W        W 8834   5.974   1.674  11.816
 4784W        W 8835   9.979   5.274   1.688
 4785W        W 8836   6.101   6.405   1.762
 4786W        W 8837  10.429   5.808  10.987
 4787W        W 8838   6.590   4.333   1.402
 4788W        W 8839   8.191   3.726   2.822
 4789W        W 8840   0.923  11.256   3.624
 4790W        W 8841   3.915   9.821   3.576
 4791W        W 8842  11.250   1.204  10.256
 4792W        W 8843   5.330  10.710   0.071
 4793W        W 8844   6.259   1.527  11.416
 4794W        W 8845   3.209   7.207  11.871
 4795W        W 8846   5.939  11.079  10.400
 4796W        W 8847  11.110  11.223   2.205
 4797W        W 8848   6.073   7.569   0.749
 4798W        W 8849   6.525   9.847   0.844
 4799W        W 8850   1.922   3.307   2.361
 4800W        W 8851   2.891   2.250   1.708
 4801W        W 8852  10.027   9.928   1.375
 4802W        W 8853   2.023  10.481   0.069
 4803W        W 8854   6.173   8.681   9.443
 4804W        W 8855   0.833   2.821   2.654
 4805W        W 8856  10.846   2.254   9.238
 4806W        W 8857   4.218   1.084   3.693
 4807W        W 8858   2.227   3.129  11.293
 4808W        W 8859  10.735   0.076   2.237
 4809W        W 8860   2.538  11.366  11.783
 4810W        W 8861   1.022   1.389   2.758
 4811W        W 8862   1.288   1.050  10.081
 4812W        W 8863   3.107   1.182   0.004
 4813W        W 8864   8.544   3.578   0.406
 4814W        W 8865  11.483   3.872   0.510
 4815W        W 8866  10.436   5.311   9.876
 4816W        W 8867   2.253   5.218   8.552
 4817W        W 8868   2.672   5.071   3.180
 4818W        W 8869   6.541   3.956  11.794
 4819W        W 8870   8.447   9.335   2.411
 4820W        W 8871   8.183   2.359   1.448
 4821W        W 8872   0.192   9.521   0.967
 4822W        W 8873   3.212   1.608  10.905
 4823W        W 8874   1.977  11.463  10.440
 4824W        W 8875   7.093   9.302   8.467
 4825W        W 8876   7.260   4.280   2.757
 4826W        W 8877   9.967  11.448  11.031
 4827W        W 8878   8.386   0.830  11.688
 4828W        W 8879   4.693   3.742   9.072
 4829W        W 8880   6.021   9.617   3.068
 4830W        W 8881   9.024   1.725   9.792
 4831W        W 8882   5.738   6.415   3.100
 4832W        W 8883   6.921   2.171  10.494
 4833W        W 8884   5.452   4.507   8.294
 4834W        W 8885   2.730   7.067   8.558
 4835W        W 8886   4.667   4.820  10.495
 4836W        W 8887   7.930   6.227   9.748
 4837W        W 8888   3.574  11.270   2.179
 4838W        W 8889  11.265   2.032   9.479
 4839W        W 8890  10.294   0.505  10.227
 4840W        W 8891  10.400   8.346   0.477
 4841W        W 8892   4.526   2.395   0.505
 4842W        W 8893   6.961   8.941   1.776
 4843W        W 8894   5.105   2.601   8.978
 4844W        W 8895   6.976   2.761   2.289
 4845W        W 8896   2.605   0.956   0.774
 4846W        W 8897  10.559   3.523  11.280
 4847W        W 8898   9.643   4.083   0.450
 4848W        W 8899   6.105   8.171   1.348
 4849W        W 8900   3.123  11.311   0.965
 4850W        W 8901   0.256  10.026   0.891
 4851W        W 8902   5.701  10.497   1.634
 4852W        W 8903   6.931   2.933   0.966
 4853W        W 8904  10.456   4.873  10.809
 4854W        W 8905   3.522  10.848   1.297
 4855W        W 8906   8.041   2.307   2.413
 4856W        W 8907   8.362   0.219   1.970
 4857W        W 8908   2.413   5.110  10.802
 4858W        W 8909   1.864   9.636   2.056
 4859W        W 8910   2.263  10.504   9.623
 4860W        W 8911   3.035   9.360   2.667
 4861W        W 8912   6.766   2.599   2.722
 4862W        W 8913  10.691   5.504   3.190
 4863W        W 8914   6.838   8.013   1.086
 4864W        W 8915   3.905   8.781   0.445
 4865W        W 8916   8.564  10.860   9.050
 4866W        W 8917   9.934  10.953  10.889
 4867W        W 8918   0.229  11.320   8.799
 4868W        W 8919   9.399   7.494   2.546
 4869W        W 8920  11.425   6.554   1.341
 4870W        W 8921  10.446   3.210   3.205
 4871W        W 8922   4.852   1.801   2.365
 4872W        W 8923  10.337   4.636  11.905
 4873W        W 8924   7.571   2.037   3.027
 4874W        W 8925   6.098   8.421   1.790
 4875W        W 8926  10.850   0.612   2.292
 4876W        W 8927   3.916   1.393   2.852
 4877W        W 8928   1.445   6.098   0.566
 4878W        W 8929   6.167   5.048   0.023
 4879W        W 8930   7.043   5.167   1.164
 4880W        W 8931   2.311  10.298   1.445
 4881W        W 8932   8.879   1.309   2.230
 4882W        W 8933   8.573  10.366   9.931
 4883W        W 8934   0.722   0.583  11.439
 4884W        W 8935   1.498   4.124   2.326
 4885W        W 8936   4.087   6.334   8.071
 4886W        W 8937   8.845   2.091   3.123
 4887W        W 8938   2.168   2.348   2.300
 4888W        W 8939  10.578   0.298   9.813
 4889W        W 8940   0.771   9.492  10.394
 4890W        W 8941   3.589   7.486  11.261
 4891W        W 8942   7.721   5.078  11.053
 4892W        W 8943   3.139   6.752   8.493
 4893W        W 8944   0.928   7.965   0.567
 4894W        W 8945   5.992   2.565   3.642
 4895W        W 8946   3.190   7.607  10.506
 4896W        W 8947   8.368  10.886  10.014
 4897W        W 8948   9.574  10.897   8.935
 4898W        W 8949   3.508   8.898   9.519
 4899W        W 8950   7.788   3.617   1.898
 4900W        W 8951   2.948   1.162  10.914
 4901W        W 8952   2.314   7.433  11.072
 4902W        W 8953   7.957   5.526  10.316
 4903W        W 8954   5.195   8.611   1.653
 4904W        W 8955  11.461   2.059   9.951
 4905W        W 8956   6.618   1.448   0.372
 4906W        W 8957   2.605   5.752   0.261
 4907W        W 8958   0.860   3.576  11.944
 4908W        W 8959   3.687   6.293   8.999
 4909W        W 8960   0.872   9.543   9.079
 4910W        W 8961  10.139   6.606   3.850
 4911W        W 8962   4.666   7.477  11.075
 4912W        W 8963   7.137   8.052   0.228
 4913W        W 8964  10.016   5.178   9.547
 4914W        W 8965   0.309   1.661   2.308
 4915W        W 8966   2.883   1.413   2.844
 4916W        W 8967   1.511  10.424   2.288
 4917W        W 8968  11.421   6.975  11.446
 4918W        W 8969   9.501   3.445   2.152
 4919W        W 8970   8.966   0.885   9.341
 4920W        W 8971   3.672  10.356   1.177
 4921W        W 8972  10.893   2.215  11.441
 4922W        W 8973  10.451   0.102   9.325
 4923W        W 8974   9.268   6.076   2.437
 4924W        W 8975   6.867   7.485   3.197
 4925W        W 8976   6.260  11.323   1.660
 4926W        W 8977   6.440   5.846   9.627
 4927W        W 8978   7.248   2.735   1.365
 4928W        W 8979  10.228   6.503   1.921
 4929W        W 8980   0.774   5.760  11.037
 4930W        W 8981   5.466   2.845   2.425
 4931W        W 8982   7.528   0.475   0.448
 4932W        W 8983   1.113   6.022   0.945
 4933W        W 8984   3.616   8.523   3.157
 4934W        W 8985  10.230   1.149   0.010
 4935W        W 8986   2.790   1.906   0.660
 4936W        W 8987   3.204  10.476   9.541
 4937W        W 8988   3.927   6.958  11.160
 4938W        W 8989   7.431   1.966  10.514
 4939W        W 8990   4.243   2.390   8.852
 4940W        W 8991   3.394   9.876  11.936
 4941W        W 8992   8.755   3.835   1.711
 4942W        W 8993   8.027   6.485   2.777
 4943W        W 8994   1.160  10.449  11.968
 4944W        W 8995  10.442   7.484   0.157
 4945W        W 8996  10.844   1.567   2.446
 4946W        W 8997   9.936   8.957   0.460
 4947W        W 8998   9.634   4.202   8.981
 4948W        W 8999   2.622   1.352  11.260
 4949W        W 9000   4.206  11.031   1.692
 4950W        W 9001   7.010   0.827   3.130
 4951W        W 9002   8.516   8.824   1.713
 4952W        W 9003   1.692   3.083   2.771
 4953W        W 9004  11.489   2.874  10.445
 4954W        W 9005   8.879   7.821  10.627
 4955W        W 9006   5.926  10.447   1.176
 4956W        W 9007   2.812  11.392   2.699
 4957W        W 9008   2.602   2.436   1.293
 4958W        W 9009  10.330   7.417   2.422
 4959W        W 9010   9.324   4.811   2.283
 4960W        W 9011   2.904   5.065   1.203
 4961W        W 9012  10.369   1.658  10.965
 4962W        W 9013  10.877   6.110   3.239
 4963W        W 9014   1.283   4.302   9.406
 4964W        W 9015   1.365   0.362   2.007
 4965W        W 9016   7.191   7.918  11.475
 4966W        W 9017   3.829   8.179   1.926
 4967W        W 9018   1.698   8.120   2.285
 4968W        W 9019   5.873   7.236  11.773
 4969W        W 9020   0.622   3.260   3.502
 4970W        W 9021   2.184   5.809   3.272
 4971W        W 9022  10.284  11.426   2.406
 4972W        W 9023   6.464   0.948  10.428
 4973W        W 9024   6.512   6.205   2.030
 4974W        W 9025  10.129   5.101  11.914
 4975W        W 9026  11.003   4.972  10.788
 4976W        W 9027   8.781   6.444   8.257
 4977W        W 9028   1.744   4.990   0.781
 4978W        W 9029   6.444   5.694   0.417
 4979W        W 9030   6.659   4.940  11.965
 4980W        W 9031   6.233  10.440   1.631
 4981W        W 9032  11.064   0.501   9.893
 4982W        W 9033  10.140   3.799   0.247
 4983W        W 9034   5.229   6.726   2.264
 4984W        W 9035   9.346   5.952   9.455
 4985W        W 9036   0.403   9.031  11.599
 4986W        W 9037   2.312   3.734   0.333
 4987W        W 9038   4.919   9.960   9.219
 4988W        W 9039   9.084   5.506   9.537
 4989W        W 9040   1.740   6.747   9.894
 4990W        W 9041   4.736  11.470  11.560
 4991W        W 9042   7.051   5.543  11.197
 4992W        W 9043   2.493   4.149   2.271
 4993W        W 9044   6.672  11.040   3.556
 4994W        W 9045   7.909   5.906  11.440
 4995W        W 9046   6.726   7.978   0.590
 4996W        W 9047   3.514   7.968   2.293
 4997W        W 9048   8.384   6.067  11.397
 4998W        W 9049  11.414   6.442   9.848
 4999W        W 9050   1.974   2.678   9.378
 5000W        W 9051   7.352   9.721   8.555
 5001W        W 9052   5.791   6.669   1.397
 5002W        W 9053  11.269   2.131   8.976
 5003W        W 9054   8.261  10.560  11.428
 5004W        W 9055   0.187   8.071  11.279
 5005W        W 9056  10.001   5.101   3.504
 5006W        W 9057   0.936   9.045   3.645
 5007W        W 9058   2.874   6.535  11.941
 5008W        W 9059   7.297  10.452  11.326
 5009W        W 9060   4.001   0.189   3.582
 5010W        W 9061   8.058   6.866   1.230
 5011W        W 9062   8.610   4.045   2.719
 5012W        W 9063   3.623  11.230   0.878
 5013W        W 9064   0.687   7.746   2.417
 5014W        W 9065   5.378   9.431   3.698
 5015W        W 9066   0.996   9.619  10.898
 5016W        W 9067   7.406   2.610   9.940
 5017W        W 9068   4.167   6.053   1.670
 5018W        W 9069   7.545  11.088   2.695
 5019W        W 9070   8.550   7.424  10.711
 5020W        W 9071   6.553   6.133   8.186
 5021W        W 9072   2.681   6.457   0.933
 5022W        W 9073   3.255   2.611   0.007
 5023W        W 9074   6.529   8.446   9.166
 5024W        W 9075   2.619  11.111   1.068
 5025W        W 9076   6.690  10.317   2.447
 5026W        W 9077   3.097   1.193   1.070
 5027W        W 9078   8.736  10.341   9.004
 5028W        W 9079   5.467   3.137   9.291
 5029W        W 9080   5.940   5.786  10.499
 5030W        W 9081  10.041   3.696  11.745
 5031W        W 9082   9.992   5.592   9.173
 5032W        W 9083   8.491   2.590  10.080
 5033W        W 9084   5.288   2.143  11.484
 5034W        W 9085   0.543   2.312  10.382
 5035W        W 9086   1.356   9.504  11.553
 5036W        W 9087   6.679   8.383   2.306
 5037W        W 9088   8.179   9.478   3.253
 5038W        W 9089   9.883   8.646   2.830
 5039W        W 9090   2.561   6.669   3.462
 5040W        W 9091   1.368   1.448   1.825
 5041W        W 9092   9.799   9.330   2.177
 5042W        W 9093   5.323   5.115  11.599
 5043W        W 9094   6.704  11.439   1.441
 5044W        W 9095   8.839   8.317   8.115
 5045W        W 9096   2.757   7.913   9.884
 5046W        W 9097   1.689   1.559   2.591
 5047W        W 9098   5.787   9.141   0.549
 5048W        W 9099  10.930   5.541  11.877
 5049W        W 9100   1.430   4.543   8.985
 5050W        W 9101   5.604   6.151  10.651
 5051W        W 9102  11.280  10.750   9.448
 5052W        W 9103   9.360   1.815   1.047
 5053W        W 9104   5.270   1.378   8.596
 5054W        W 9105   9.627   3.791   9.482
 5055W        W 9106   2.451   2.939  10.513
 5056W        W 9107   3.753   8.463   9.231
 5057W        W 9108  11.150   1.491   0.956
 5058W        W 9109   8.617  10.834  10.460
 5059W        W 9110   5.595   7.640   8.258
 5060W        W 9111   1.377   5.672   2.758
 5061W        W 9112   7.561  10.930   1.321
 5062W        W 9113   0.483   1.464   0.317
 5063W        W 9114   4.515   1.271   0.002
 5064W        W 9115   0.269   7.491   2.530
 5065W        W 9116   2.467   5.297   0.514
 5066W        W 9117   7.814   5.498  11.711
 5067W        W 9118   7.596   8.906  10.173
 5068W        W 9119   3.092   1.837  10.054
 5069W        W 9120   4.012   0.470   1.952
 5070W        W 9121   7.506   0.683  11.608
 5071W        W 9122   4.092   4.816   0.802
 5072W        W 9123   9.612   1.368   2.926
 5073W        W 9124   6.658   7.543   9.151
 5074W        W 9125   3.265   7.794   8.927
 5075W        W 9126  11.467   0.769  10.801
 5076W        W 9127   1.404   5.081   8.979
 5077W        W 9128   7.153  10.453   3.326
 5078W        W 9129   1.339   2.318   2.898
 5079W        W 9130   8.780   3.139  10.981
 5080W        W 9131   1.769   7.647  11.862
 5081W        W 9132   4.062   2.206   2.189
 5082W        W 9133  10.105   1.719  11.408
 5083W        W 9134   3.373   8.643   2.717
 5084W        W 9135   7.838   7.452   3.277
 5085W        W 9136   4.611   4.405  11.345
 5086W        W 9137  11.317   9.261  11.288
 5087W        W 9138   8.565   7.183  10.254
 5088W        W 9139   3.465   7.085  10.968
 5089W        W 9140   1.935   0.262   9.992
 5090W        W 9141   2.931  10.055   0.501
 5091W        W 9142   0.527  10.887   8.992
 5092W        W 9143   1.775   6.444   2.452
 5093W        W 9144   3.600   8.860  10.014
 5094W        W 9145   8.512   2.833   3.162
 5095W        W 9146   7.002   0.709  11.775
 5096W        W 9147   9.338  11.158  11.694
 5097W        W 9148   9.329  11.109   9.353
 5098W        W 9149   2.668   5.573   9.262
 5099W        W 9150   1.374   7.893  10.403
 5100W        W 9151   4.364   9.097   8.559
 5101W        W 9152  11.121   9.619   3.087
 5102W        W 9153   0.788   6.610   0.270
 5103W        W 9154   3.809   7.998   0.519
 5104W        W 9155   2.456   9.598  11.136
 5105W        W 9156   9.021   6.289   1.776
 5106W        W 9157   4.354   7.112   2.639
 5107W        W 9158  10.803   8.251   3.141
 5108W        W 9159   6.622   9.410   0.552
 5109W        W 9160   1.365   0.452   0.948
 5110W        W 9161   4.540   3.026   1.911
 5111W        W 9162   8.603   3.624   8.359
 5112W        W 9163   4.484   5.982  10.658
 5113W        W 9164   4.503   1.463   3.345
 5114W        W 9165   3.478   9.133   2.779
 5115W        W 9166   0.820   5.318   3.175
 5116W        W 9167   0.289  11.028   3.637
 5117W        W 9168   0.236   9.460  10.425
 5118W        W 9169   1.857  10.904   2.616
 5119W        W 9170   1.981   3.186   3.428
 5120W        W 9171  11.455  10.799   2.332
 5121W        W 9172   0.389   5.404  11.663
 5122W        W 9173   1.740  11.363   1.926
 5123W        W 9174   3.737   7.597   1.867
 5124W        W 9175   7.984   6.941  11.514
 5125W        W 9176   4.598   4.369   1.709
 5126W        W 9177  10.840   0.988  10.062
 5127W        W 9178  10.618   2.237  11.879
 5128W        W 9179   5.475   5.220  10.194
 5129W        W 9180   7.441   8.859  10.666
 5130W        W 9181   4.034   3.116  10.507
 5131W        W 9182   0.690   4.328   9.050
 5132W        W 9183   3.256   6.714   9.345
 5133W        W 9184   4.499   3.734   2.328
 5134W        W 9185  10.863   2.135   3.565
 5135W        W 9186   6.536   9.821   2.341
 5136W        W 9187   0.950   1.627   3.304
 5137W        W 9188   0.947   1.886  11.480
 5138W        W 9189   1.375   9.912  11.241
 5139W        W 9190   2.641   3.777   9.938
 5140W        W 9191   3.384   3.196  11.969
 5141W        W 9192   0.976   7.926   2.833
 5142W        W 9193   8.168   4.638   3.144
 5143W        W 9194   6.033   2.850   8.589
 5144W        W 9195  10.399   7.001   3.225
 5145W        W 9196   6.205   1.785   0.268
 5146W        W 9197  11.475   9.206   1.775
 5147W        W 9198   0.416   9.561   2.469
 5148W        W 9199   5.033   4.331   3.608
 5149W        W 9200   1.573   1.892   1.699
 5150W        W 9201   2.202   0.812   1.213
 5151W        W 9202   5.241   1.244   1.611
 5152W        W 9203   3.066   5.363   3.364
 5153W        W 9204   6.053   7.442  10.752
 5154W        W 9205  10.841   2.788  10.046
 5155W        W 9206   6.175   2.138  11.871
 5156W        W 9207   4.596   4.836  11.960
 5157W        W 9208  10.608   1.382   3.211
 5158W        W 9209   0.889   8.420   1.237
 5159W        W 9210   5.707   0.943   9.399
 5160W        W 9211   6.898   4.077   1.842
 5161W        W 9212   3.609   5.203   8.309
 5162W        W 9213   8.850  11.384   1.142
 5163W        W 9214   3.721   7.468  11.744
 5164W        W 9215   9.073   2.283  10.979
 5165W        W 9216   9.998   9.825   9.322
 5166W        W 9217   4.218   5.169   1.574
 5167W        W 9218   2.452  10.416   2.593
 5168W        W 9219   1.304   4.733   0.717
 5169W        W 9220   1.273   8.139   1.056
 5170W        W 9221   1.916   4.110  10.110
 5171W        W 9222   2.710   4.631   2.456
 5172W        W 9223   7.919   8.807  11.585
 5173W        W 9224   8.558   5.752   2.634
 5174W        W 9225  10.275   7.008   0.938
 5175W        W 9226   0.933   4.159   3.548
 5176W        W 9227   0.915   5.534   2.508
 5177W        W 9228   8.779   6.089   1.011
 5178W        W 9229   1.678   4.186   2.831
 5179W        W 9230   2.079   9.547   3.136
 5180W        W 9231   5.113   7.006   0.197
 5181W        W 9232  10.750   2.681   1.658
 5182W        W 9233   9.478   5.733   8.965
 5183W        W 9234  10.846  10.408   8.766
 5184W        W 9235   3.609   4.202   1.456
 5185W        W 9236   0.432   5.491  10.749
 5186W        W 9237   6.089   7.641   1.266
 5187W        W 9238   9.665   1.214   3.416
 5188W        W 9239   3.359   4.291   9.852
 5189W        W 9240  10.839   0.986   3.388
 5190W        W 9241   8.097   1.912   9.066
 5191W        W 9242   6.058   0.883   3.501
 5192W        W 9243   0.712  10.848  10.305
 5193W        W 9244   6.946   9.608   8.856
 5194W        W 9245  10.999   2.489   2.639
 5195W        W 9246   9.247   5.294   9.093
 5196W        W 9247   0.927   4.163  10.755
 5197W        W 9248   9.504  10.404   2.375
 5198W        W 9249   3.837   6.463  11.290
 5199W        W 9250   1.837   7.549  10.947
 5200W        W 9251   3.724   6.144   2.010
 5201W        W 9252   2.684   1.764   9.288
 5202W        W 9253   8.897   4.166  10.194
 5203W        W 9254   4.977   3.071   9.155
 5204W        W 9255   6.401   6.191   0.494
 5205W        W 9256   8.630   1.877   9.028
 5206W        W 9257   9.396  10.894   2.218
 5207W        W 9258   9.103   5.207   0.029
 5208W        W 9259   4.660   9.495   0.265
 5209W        W 9260   3.386   7.049   2.341
 5210W        W 9261   2.005   6.329   9.749
 5211W        W 9262   6.782  11.133   0.893
 5212W        W 9263   4.000   1.005   9.938
 5213W        W 9264   6.136   0.509   8.805
 5214W        W 9265   9.101   6.603  11.661
 5215W        W 9266   9.534   1.464   1.954
 5216W        W 9267   9.003   8.492   8.571
 5217W        W 9268   6.543   6.784   3.458
 5218W        W 9269  10.409   5.234   0.423
 5219W        W 9270   0.796   7.123  10.514
 5220W        W 9271   2.270   5.560  10.579
 5221W        W 9272   1.514   4.991   9.830
 5222W        W 9273   0.236   2.143  11.425
 5223W        W 9274   9.266  11.304   2.819
 5224W        W 9275   7.987   1.199   0.174
 5225W        W 9276   3.338   7.042   1.257
 5226W        W 9277   3.549   8.468   1.124
 5227W        W 9278   8.933   7.315  11.540
 5228W        W 9279   2.457   4.223   0.098
 5229W        W 9280   0.871   0.322   1.336
 5230W        W 9281   5.291   1.101   9.051
 5231W        W 9282   7.952   9.349  10.876
 5232W        W 9283   1.249   8.655  11.082
 5233W        W 9284   2.626   0.098   2.215
 5234W        W 9285   3.174  10.848   0.147
 5235W        W 9286   0.644   5.488   0.430
 5236W        W 9287   1.121   1.846   9.492
 5237W        W 9288   2.050   2.910  10.838
 5238W        W 9289   8.466   4.921   2.323
 5239W        W 9290   6.667   0.432  11.223
 5240W        W 9291   9.375   9.865  11.964
 5241W        W 9292   9.654   8.544   1.144
 5242W        W 9293  11.136   8.153  10.726
 5243W        W 9294  11.020   3.971  10.973
 5244W        W 9295   9.315   2.175  11.488
 5245W        W 9296   3.205   4.779   2.513
 5246W        W 9297  11.229   0.476   0.077
 5247W        W 9298   1.470   2.761   9.436
 5248W        W 9299   9.812   2.139  11.475
 5249W        W 9300   7.583   4.136  10.169
 5250W        W 9301   0.684   7.604   3.089
 5251W        W 9302   0.941   2.772  11.372
 5252W        W 9303   6.083   2.068  10.855
 5253W        W 9304   7.234   1.492  11.342
 5254W        W 9305   1.808   8.195   3.108
 5255W        W 9306   3.915   2.796   1.154
 5256W        W 9307   8.532  10.006  11.806
 5257W        W 9308  10.385   1.269   1.791
 5258W        W 9309   1.720   0.015   0.945
 5259W        W 9310   9.263   7.610   1.545
 5260W        W 9311   9.549   8.949   9.896
 5261W        W 9312   9.124   5.406   1.914
 5262W        W 9313   3.705   3.111   9.578
 5263W        W 9314   1.723   0.752   3.132
 5264W        W 9315   7.077   6.315  10.133
 5265W        W 9316   5.150   0.749  10.747
 5266W        W 9317   2.866   2.809   1.489
 5267W        W 9318   1.352   8.900   9.492
 5268W        W 9319   4.391   9.955  11.667
 5269W        W 9320   9.359   3.859   9.925
 5270W        W 9321   2.778   0.067   1.232
 5271W        W 9322  10.778   5.384  11.012
 5272W        W 9323   1.346   7.584   0.357
 5273W        W 9324   0.029   4.782  11.033
 5274W        W 9325  11.055   3.508  11.810
 5275W        W 9326   1.224   4.655   2.320
 5276W        W 9327   4.956  10.394   9.541
 5277W        W 9328   4.293   7.043   3.205
 5278W        W 9329   3.426   6.659   0.727
 5279W        W 9330   5.715   8.534  11.324
 5280W        W 9331   9.631   5.124  11.942
 5281W        W 9332   3.400   0.243  10.937
 5282W        W 9333   6.447   3.604   2.397
 5283W        W 9334   9.119   2.425  11.894
 5284W        W 9335   2.747  10.307   9.653
 5285W        W 9336   4.851  10.074  11.456
 5286W        W 9337   8.925   2.913   1.784
 5287W        W 9338   2.867   9.443  10.863
 5288W        W 9339  11.288   1.213   3.357
 5289W        W 9340   3.448   8.843  11.078
 5290W        W 9341   0.369   4.488  10.737
 5291W        W 9342   6.217   8.652   1.184
 5292W        W 9343   2.291   5.648  10.093
 5293W        W 9344   0.472   1.779   1.392
 5294W        W 9345   0.796   6.571   9.547
 5295W        W 9346   0.904   1.372   2.270
 5296W        W 9347  10.784   4.150  11.831
 5297W        W 9348   1.214   9.764  10.312
 5298W        W 9349   4.340   6.530  11.323
 5299W        W 9350   9.143   7.104   2.347
 5300W        W 9351   1.219   6.247   9.459
 5301W        W 9352   3.341  11.290  10.141
 5302W        W 9353   5.135   0.302  10.993
 5303W        W 9354  11.429   1.706   3.187
 5304W        W 9355   1.418   3.149   2.348
 5305W        W 9356  10.840   7.427   0.494
 5306W        W 9357  10.751   6.587   0.411
 5307W        W 9358   5.174   9.942   1.700
 5308W        W 9359   9.481   4.877  11.084
 5309W        W 9360   7.024   0.986   0.805
 5310W        W 9361   2.109   1.587  11.049
 5311W        W 9362   6.190   0.889   1.897
 5312W        W 9363   7.954   1.370  10.905
 5313W        W 9364   1.591   4.220  10.538
 5314W        W 9365  10.821   8.614   2.716
 5315W        W 9366   5.273   0.694   0.276
 5316W        W 9367   3.600   9.638   1.601
 5317W        W 9368   3.343   6.690  11.836
 5318W        W 9369   8.387   1.677  10.835
 5319W        W 9370   1.481   4.514  11.303
 5320W        W 9371  10.375   1.607  11.871
 5321W        W 9372   5.224   0.345   9.983
 5322W        W 9373   9.874   2.685   9.834
 5323W        W 9374   6.625   4.054   0.979
 5324W        W 9375   1.322   6.078  10.372
 5325W        W 9376   7.677   2.162  10.091
 5326W        W 9377  10.613  11.071   2.264
 5327W        W 9378   9.747   5.251  10.840
 5328W        W 9379   0.038   5.561   2.776
 5329W        W 9380   5.821   6.066   2.700
 5330W        W 9381   6.853   9.758   3.664
 5331W        W 9382   3.892   4.215   2.304
 5332W        W 9383   9.721   0.033   2.782
 5333W        W 9384   4.669   7.347   1.996
 5334W        W 9385   3.887   0.569   0.445
 5335W        W 9386   8.695   7.381  11.985
 5336W        W 9387   5.141   3.509   0.017
 5337W        W 9388   1.419   7.539   9.498
 5338W        W 9389  11.372   5.569  10.222
 5339W        W 9390   2.381   2.975   9.364
 5340W        W 9391   9.008   1.474   0.240
 5341W        W 9392   8.014   7.444  11.565
 5342W        W 9393   8.080   8.779   2.976
 5343W        W 9394   7.671   1.517  10.505
 5344W        W 9395   5.707   2.356  11.270
 5345W        W 9396   7.978   1.889  11.065
 5346W        W 9397   1.417   0.045   0.492
 5347W        W 9398   6.643   5.000  10.558
 5348W        W 9399   0.992   1.971  10.349
 5349W        W 9400   1.754   3.490   3.075
 5350W        W 9401   0.043   9.003   0.817
 5351W        W 9402  10.122   4.231  11.008
 5352W        W 9403   3.050   7.882   8.043
 5353W        W 9404   2.031   5.100   0.359
 5354W        W 9405  10.367   1.427   2.279
 5355W        W 9406   1.382   0.271   2.514
 5356W        W 9407   0.136   5.248   8.539
 5357W        W 9408   2.695   0.871  11.895
 5358W        W 9409   2.725   0.576   2.399
 5359W        W 9410   4.709   7.914  10.795
 5360W        W 9411   0.452   4.551  11.253
 5361W        W 9412   0.968   5.802   3.040
 5362W        W 9413   9.065  10.880   1.818
 5363W        W 9414   3.742  11.474   2.816
 5364W        W 9415   6.443   1.509  11.893
 5365W        W 9416   6.633  10.440   8.915
 5366W        W 9417   4.323   4.689   9.140
 5367W        W 9418   7.329   3.336  10.501
 5368W        W 9419   9.431  10.251   0.875
 5369W        W 9420   9.075  10.791   9.039
 5370W        W 9421   1.899  11.262   9.375
 5371W        W 9422  10.241   9.619  11.981
 5372W        W 9423   0.402   4.644   0.713
 5373W        W 9424   6.083   4.607   2.698
 5374W        W 9425   8.048  10.034   9.568
 5375W        W 9426  11.414   0.131  10.074
 5376W        W 9427   4.417   2.793  10.594
 5377W        W 9428   2.836  10.803   9.426
 5378W        W 9429   5.520   4.624   9.591
 5379W        W 9430  10.333   2.890   9.996
 5380W        W 9431   5.068   0.348  11.947
 5381W        W 9432   7.516   4.019   1.069
 5382W        W 9433   6.803   7.116  10.384
 5383W        W 9434   4.594   4.631   2.511
 5384W        W 9435   7.128   5.296  10.352
 5385W        W 9436   6.247   3.878  11.397
 5386W        W 9437   2.919   6.617  11.427
 5387W        W 9438   9.915   9.601   1.739
 5388W        W 9439   9.041   8.949   8.858
 5389W        W 9440   8.959  11.463  11.965
 5390W        W 9441   7.541   9.675   0.499
 5391W        W 9442   2.671   1.451   0.847
 5392W        W 9443   1.192   8.381   0.247
 5393W        W 9444   8.102   2.371  10.987
 5394W        W 9445   1.154   9.152  11.031
 5395W        W 9446   5.714   1.453   1.413
 5396W        W 9447   6.186   3.829   3.322
 5397W        W 9448   4.145   8.244  10.746
 5398W        W 9449   8.076   6.793   9.569
 5399W        W 9450   3.861   8.691   1.836
 5400W        W 9451   9.021  11.445   3.240
 5401W        W 9452   4.175   8.879   1.233
 5402W        W 9453   6.104   1.902  10.378
 5403W        W 9454   8.677   9.509   3.375
 5404W        W 9455   3.663   7.523   9.713
 5405W        W 9456   3.573   0.972   2.679
 5406W        W 9457   1.220  10.846  10.309
 5407W        W 9458   8.852  10.408   1.138
 5408W        W 9459  11.315   4.693   2.163
 5409W        W 9460   5.232   2.736   8.487
 5410W        W 9461   4.283   5.198   1.071
 5411W        W 9462   1.734   6.457   3.029
 5412W        W 9463   0.244  11.465   9.289
 5413W        W 9464   3.252   1.275  10.505
 5414W        W 9465  10.001   8.612   0.073
 5415W        W 9466   3.396  10.984   8.396
 5416W        W 9467   5.434   9.509   1.457
 5417W        W 9468   5.503   8.929  10.343
 5418W        W 9469   6.029   4.540   9.688
 5419W        W 9470   2.900   8.133  11.464
 5420W        W 9471   8.479  11.263   8.724
 5421W        W 9472   0.836   2.360  10.804
 5422W        W 9473   9.454   4.537   0.484
 5423W        W 9474   2.436   3.234   2.296
 5424W        W 9475  10.037   2.236   2.322
 5425W        W 9476   7.241   6.138   8.711
 5426W        W 9477  10.698   0.299   2.700
 5427W        W 9478   7.561   0.449   1.450
 5428W        W 9479   7.629   9.937   9.280
 5429W        W 9480   3.663   2.695   2.846
 5430W        W 9481  10.391   6.045   9.014
 5431W        W 9482   0.403   3.703   9.383
 5432W        W 9483   8.742   6.360   9.992
 5433W        W 9484  10.972   4.587   9.897
 5434W        W 9485   5.040   4.748   0.677
 5435W        W 9486   3.850   9.890   3.060
 5436W        W 9487   9.010   3.802   2.910
 5437W        W 9488   2.175   0.863   2.653
 5438W        W 9489   7.030   5.510   1.544
 5439W        W 9490   0.010   6.147   0.532
 5440W        W 9491   4.658   9.843   3.131
 5441W        W 9492  10.670   3.099  11.548
 5442W        W 9493   9.889   2.244   9.566
 5443W        W 9494   3.165   4.244   8.844
 5444W        W 9495  10.040   0.367  11.327
 5445W        W 9496   8.038   2.660   3.351
 5446W        W 9497   3.928   5.255  11.078
 5447W        W 9498   1.149   4.249  10.299
 5448W        W 9499   0.446   1.214   2.093
 5449W        W 9500   4.314   0.263  11.505
 5450W        W 9501   3.353   0.339  10.413
 5451W        W 9502   5.879   0.523   1.758
 5452W        W 9503   5.271   7.890   2.212
 5453W        W 9504   4.660   8.513  11.925
 5454W        W 9505   8.438   7.199   1.144
 5455W        W 9506   9.472   6.547   2.597
 5456W        W 9507   8.297   3.822   9.145
 5457W        W 9508   3.295   7.956  11.211
 5458W        W 9509   8.194   3.216   8.518
 5459W        W 9510   7.394   6.114   2.136
 5460W        W 9511  10.830   5.674   9.061
 5461W        W 9512   5.970   9.165   9.496
 5462W        W 9513   5.723  11.017  11.961
 5463W        W 9514   8.934   9.991   9.599
 5464W        W 9515   5.236   1.634   9.750
 5465W        W 9516   8.992   6.436   1.301
 5466W        W 9517   4.768   9.933   0.020
 5467W        W 9518   7.691   7.559  11.948
 5468W        W 9519   0.679   2.218   1.201
 5469W        W 9520  10.939   4.291   9.334
 5470W        W 9521  10.752  11.232   8.524
 5471W        W 9522   1.290   5.252   0.761
 5472W        W 9523   7.010   9.849   1.728
 5473W        W 9524   8.084   5.407  11.278
 5474W        W 9525   1.180   5.223  10.144
 5475W        W 9526   2.702   3.290   0.745
 5476W        W 9527   7.482  10.546   1.694
 5477W        W 9528  10.018  10.453  10.816
 5478W        W 9529   6.292   6.645   2.206
 5479W        W 9530  10.269   9.186   2.282
 5480W        W 9531   2.399   2.304   1.815
 5481W        W 9532   8.849   7.636   0.784
 5482W        W 9533  10.962   4.714   1.197
 5483W        W 9534   9.809  10.984  11.796
 5484W        W 9535  11.134   2.231  11.923
 5485W        W 9536   3.903   1.601  11.486
 5486W        W 9537  11.414   4.313   8.543
 5487W        W 9538   7.580   7.038  11.830
 5488W        W 9539   5.949   2.748   1.875
 5489W        W 9540   1.818  10.891   2.111
 5490W        W 9541   6.105  10.500   3.672
 5491W        W 9542   8.716   8.983  11.539
 5492W        W 9543  10.496   4.088   3.645
 5493W        W 9544   4.598   0.457  10.430
 5494W        W 9545   5.229   0.822   2.454
 5495W        W 9546   7.356   7.617   3.231
 5496W        W 9547   9.657   2.631   2.831
 5497W        W 9548   1.804   0.427   8.482
 5498W        W 9549   8.059   6.833  10.380
 5499W        W 9550   9.306   1.112   8.539
 5500W        W 9551   6.908   2.463  11.523
 5501W        W 9552   8.622   0.742  10.676
 5502W        W 9553   0.756   7.700   8.887
 5503W        W 9554   2.177   3.639  11.815
 5504W        W 9555   9.434  10.836  10.808
 5505W        W 9556   8.877   4.342   1.745
 5506W        W 9557   4.850   7.119   8.938
 5507W        W 9558   5.322   8.290   2.603
 5508W        W 9559   0.486   3.192   9.259
 5509W        W 9560  10.516   6.152   0.351
 5510W        W 9561  10.913   6.635   9.105
 5511W        W 9562   0.958   6.161   0.433
 5512W        W 9563   5.856   1.379   0.243
 5513W        W 9564   1.339   8.951   1.520
 5514W        W 9565   7.713   2.469   1.265
 5515W        W 9566   2.723   3.012   8.781
 5516W        W 9567   9.467   9.163   0.346
 5517W        W 9568   3.674   0.870  11.836
 5518W        W 9569  10.097   5.166   0.843
 5519W        W 9570  11.072   7.398   2.043
 5520W        W 9571   1.593   8.055   8.875
 5521W        W 9572   1.567   2.887  11.946
 5522W        W 9573   4.155   1.267   9.499
 5523W        W 9574   6.077   3.244  11.630
 5524W        W 9575   6.150   6.704   9.366
 5525W        W 9576  11.353   8.899   0.317
 5526W        W 9577   4.094   9.284   0.870
 5527W        W 9578   8.030   5.216   2.361
 5528W        W 9579   6.888   1.670  11.703
 5529W        W 9580   5.295   7.142  10.412
 5530W        W 9581   9.170   8.060   3.259
 5531W        W 9582   7.224   3.780  11.324
 5532W        W 9583   7.099   8.949   1.270
 5533W        W 9584   0.371   5.044   9.758
 5534W        W 9585   9.599   8.880   1.953
 5535W        W 9586   8.437   0.285  10.888
 5536W        W 9587   3.680   4.579   1.069
 5537W        W 9588   6.128   0.321   9.819
 5538W        W 9589   1.513   5.679   0.937
 5539W        W 9590   4.405   0.822   9.597
 5540W        W 9591   3.712   3.631   0.255
 5541W        W 9592   8.779  10.320   0.633
 5542W        W 9593   0.782   4.591   8.609
 5543W        W 9594   2.665   6.460   1.864
 5544W        W 9595   0.727   6.554   8.428
 5545W        W 9596   3.194  11.490   1.911
 5546W        W 9597   9.448   9.762   0.734
 5547W        W 9598   4.491   4.330   1.227
 5548W        W 9599   8.205   3.226   2.647
 5549W        W 9600   7.797   9.070   2.078
 5550W        W 9601   8.574   8.667   0.438
 5551W        W 9602   0.798   8.350  11.827
 5552W        W 9603   9.589   5.558  10.365
 5553W        W 9604   1.294   8.317   3.182
 5554W        W 9605   5.585  10.828  10.101
 5555W        W 9606   5.057   7.602  10.515
 5556W        W 9607   2.039   2.474   8.522
 5557W        W 9608   7.685   8.575   1.373
 5558W        W 9609   5.084  10.437   2.828
 5559W        W 9610  10.973   6.650   0.855
 5560W        W 9611   2.312   2.271  11.987
 5561W        W 9612   9.979   7.639   2.787
 5562W        W 9613   3.671   1.707   8.853
 5563W        W 9614  10.314   7.131  11.059
 5564W        W 9615   2.329   0.970   1.706
 5565W        W 9616   2.585  11.064  11.358
 5566W        W 9617   5.590   0.890  11.000
 5567W        W 9618   4.411   9.836   9.327
 5568W        W 9619   6.443   6.561   0.151
 5569W        W 9620  10.836   3.070   2.003
 5570W        W 9621  10.439   1.122   9.313
 5571W        W 9622   5.955   5.732   9.179
 5572W        W 9623   2.244   2.323   2.817
 5573W        W 9624   8.089   7.836   2.556
 5574W        W 9625   7.518  10.994  11.981
 5575W        W 9626  11.376   8.547   2.797
 5576W        W 9627   4.861   3.977  11.219
 5577W        W 9628   5.597   1.931   1.497
 5578W        W 9629   0.369   2.677   2.839
 5579W        W 9630   7.652  11.372   9.936
 5580W        W 9631   7.751   8.932  11.099
 5581W        W 9632   5.973   3.973   2.377
 5582W        W 9633   5.223   7.421   0.483
 5583W        W 9634   8.173   1.933   1.740
 5584W        W 9635   8.666   8.080   8.584
 5585W        W 9636   5.048   9.329   0.009
 5586W        W 9637   6.976   4.135   3.484
 5587W        W 9638   6.505   7.342   1.487
 5588W        W 9639   6.237   0.447   3.287
 5589W        W 9640   0.396   3.581   0.170
 5590W        W 9641   7.775   7.122  10.711
 5591W        W 9642   0.076   9.789   0.260
 5592W        W 9643   9.050   2.791   0.300
 5593W        W 9644   8.157   1.652   0.380
 5594W        W 9645   2.176   3.868   9.726
 5595W        W 9646   9.537   9.588   8.600
 5596W        W 9647   3.358   8.289   8.419
 5597W        W 9648   5.477   4.388   9.121
 5598W        W 9649   0.782  10.583  11.143
 5599W        W 9650   8.945   8.589  10.229
 5600W        W 9651   5.636   7.576   1.455
 5601W        W 9652   4.263   4.059  10.728
 5602W        W 9653   4.806   1.733  10.018
 5603W        W 9654   8.565   6.699  10.354
 5604W        W 9655   4.047   9.098  10.178
 5605W        W 9656   3.831   5.287   0.785
 5606W        W 9657   8.816  10.007   3.496
 5607W        W 9658   3.677   5.891  11.645
 5608W        W 9659  10.919   3.138   3.464
 5609W        W 9660   4.764   2.611   2.753
 5610W        W 9661   4.074   0.892   2.673
 5611W        W 9662  10.317  10.502   1.057
 5612W        W 9663   3.855   4.892  11.819
 5613W        W 9664   8.620   4.464  10.833
 5614W        W 9665  10.855   0.357   1.846
 5615W        W 9666   3.704   9.458  11.762
 5616W        W 9667  10.262  10.736   9.565
 5617W        W 9668   7.874   5.110   8.657
 5618W        W 9669   9.541   1.220  10.796
 5619W        W 9670   0.348  11.370  11.100
 5620W        W 9671   9.551   0.270   1.408
 5621W        W 9672  11.376   8.102   9.310
 5622W        W 9673   6.013   8.971  10.429
 5623W        W 9674   0.391   0.859   1.152
 5624W        W 9675   6.914   1.656   9.806
 5625W        W 9676   1.336   4.073  11.512
 5626W        W 9677   9.816   7.490   0.804
 5627W        W 9678   7.887   2.773   9.978
 5628W        W 9679   2.674   8.309  10.634
 5629W        W 9680   9.389   6.601   8.254
 5630W        W 9681  11.335   0.014   2.762
 5631W        W 9682   3.753  11.295   3.327
 5632W        W 9683   3.025   7.857   2.203
 5633W        W 9684   3.712   2.943   2.395
 5634W        W 9685   3.627   6.222   3.565
 5635W        W 9686  11.452   9.862   1.278
 5636W        W 9687   7.719   5.176   0.487
 5637W        W 9688   3.149   2.417   1.307
 5638W        W 9689   0.775   7.954   9.771
 5639W        W 9690   0.511   5.799   1.885
 5640W        W 9691   9.552   3.181   1.320
 5641W        W 9692   5.958   8.287   0.238
 5642W        W 9693   2.302   8.964   2.025
 5643W        W 9694   4.584  10.319   9.048
 5644W        W 9695   7.876  11.438   2.963
 5645W        W 9696   9.437   8.164   0.359
 5646W        W 9697   4.185   6.109  11.070
 5647W        W 9698   1.402   6.984  10.539
 5648W        W 9699   8.452   6.234  10.522
 5649W        W 9700   9.310   4.984  11.587
 5650W        W 9701   0.944   3.722   0.935
 5651W        W 9702   8.009   9.032   3.425
 5652W        W 9703   0.420   9.294   9.016
 5653W        W 9704   8.642   1.264   3.117
 5654W        W 9705   8.550   4.702   9.001
 5655W        W 9706   6.470   6.228  10.957
 5656W        W 9707   2.936   4.699  11.436
 5657W        W 9708   2.283   0.547   9.515
 5658W        W 9709   6.579  11.229   2.507
 5659W        W 9710   5.641   5.148   1.772
 5660W        W 9711   6.044   6.194   8.101
 5661W        W 9712   9.804  10.629   2.021
 5662W        W 9713   3.239   3.778   9.117
 5663W        W 9714   1.166   3.260   1.075
 5664W        W 9715   9.094  11.239   9.983
 5665W        W 9716   9.600   2.894  10.479
 5666W        W 9717   5.074   3.258   0.484
 5667W        W 9718   3.367   9.285   2.280
 5668W        W 9719   5.090   7.784   0.129
 5669W        W 9720   3.075   4.119  10.802
 5670W        W 9721   3.622   1.258   0.710
 5671W        W 9722   6.567   4.158   3.163
 5672W        W 9723   7.547   0.346  10.172
 5673W        W 9724   3.615  10.520  11.814
 5674W        W 9725   9.058   2.744   1.261
 5675W        W 9726   3.838  10.840   2.098
 5676W        W 9727   6.149   9.979   1.407
 5677W        W 9728   5.235   7.939   0.863
 5678W        W 9729   7.843   1.468   9.203
 5679W        W 9730   3.386   7.687   0.046
 5680W        W 9731   7.705   1.159  11.733
 5681W        W 9732   9.931  10.739   0.276
 5682W        W 9733   7.267   7.991   9.410
 5683W        W 9734   7.593   9.748  10.769
 5684W        W 9735   3.318   5.231   1.965
 5685W        W 9736   8.442   4.715  10.415
 5686W        W 9737   3.090   0.599   2.753
 5687W        W 9738  10.499   2.312   2.613
 5688W        W 9739  10.035   0.879   9.583
 5689W        W 9740  10.227   9.366   9.500
 5690W        W 9741   9.467   2.699   3.327
 5691W        W 9742   7.388   9.089  11.442
 5692W        W 9743   8.039   3.366   9.158
 5693W        W 9744   5.833   5.540   1.435
 5694W        W 9745   2.194   5.319   3.483
 5695W        W 9746   0.699   5.727   3.468
 5696W        W 9747   4.084   1.447  11.024
 5697W        W 9748   2.666   4.141   1.768
 5698W        W 9749   5.580   8.249   3.233
 5699W        W 9750   6.636   9.971   8.124
 5700W        W 9751   3.347   1.902   1.309
 5701W        W 9752   1.001  10.973   0.798
 5702W        W 9753   6.673   6.701   2.952
 5703W        W 9754   3.884   4.380   0.617
 5704W        W 9755   2.308   0.039   9.533
 5705W        W 9756   0.055  11.407   3.239
 5706W        W 9757   9.166   6.637   9.998
 5707W        W 9758   7.914   4.158   2.187
 5708W        W 9759   9.095   4.272   3.136
 5709W        W 9760   3.236   9.910   1.840
 5710W        W 9761   2.670   6.603   2.386
 5711W        W 9762  10.399   7.062  10.511
 5712W        W 9763   6.737   2.082   2.821
 5713W        W 9764   2.716   9.059  11.481
 5714W        W 9765   4.475   6.759   8.635
 5715W        W 9766   2.110   8.639  11.745
 5716W        W 9767   7.695   3.773  11.532
 5717W        W 9768  10.419   7.639  11.229
 5718W        W 9769   4.381   0.760   1.700
 5719W        W 9770   3.895   4.385  10.510
 5720W        W 9771  10.238  10.428   1.567
 5721W        W 9772   0.080   0.968   1.840
 5722W        W 9773   2.136   7.465   1.006
 5723W        W 9774   1.150   0.246  10.690
 5724W        W 9775  11.298   1.224   1.405
 5725W        W 9776   3.470   9.642   2.822
 5726W        W 9777   3.586   2.314   2.512
 5727W        W 9778   7.653   0.183   9.149
 5728W        W 9779   1.798   1.281   3.396
 5729W        W 9780   3.186   5.709  10.995
 5730W        W 9781   6.972   4.651   0.269
 5731W        W 9782  10.999   0.176   3.106
 5732W        W 9783   4.318   8.679  11.559
 5733W        W 9784   1.210   0.626  10.349
 5734W        W 9785   9.960   1.902  11.890
 5735W        W 9786   5.636   3.248   9.819
 5736W        W 9787   2.505   8.541   8.312
 5737W        W 9788   1.309   1.061  10.599
 5738W        W 9789  10.916   3.312   2.937
 5739W        W 9790   3.974   8.400   1.349
 5740W        W 9791   8.683   7.879  11.909
 5741W        W 9792   9.331   1.798   2.902
 5742W        W 9793   9.418   4.919   0.981
 5743W        W 9794   1.907   3.625   8.877
 5744W        W 9795  11.377   8.851   1.416
 5745W        W 9796   4.223   9.976   0.873
 5746W        W 9797   2.783   1.673   0.193
 5747W        W 9798   7.217   3.827  10.305
 5748W        W 9799   7.713   8.044  11.615
 5749W        W 9800   3.145   3.675   1.839
 5750W        W 9801   5.207   9.032   9.020
 5751W        W 9802  10.631   7.685  11.689
 5752W        W 9803   2.715  10.258   8.733
 5753W        W 9804   0.053   7.469  11.358
 5754W        W 9805   0.299   1.204  11.212
 5755W        W 9806  10.829  11.261   3.410
 5756W        W 9807   5.768   1.480   8.510
 5757W        W 9808   3.285   1.357   9.294
 5758W        W 9809   6.032   6.530   2.660
 5759W        W 9810  10.941   6.251   0.058
 5760W        W 9811   3.861   3.872  10.958
 5761W        W 9812  11.358   7.181   9.411
 5762W        W 9813   0.204   1.396  10.254
 5763W        W 9814   0.793   0.848   2.190
 5764W        W 9815   1.054   6.082  11.344
 5765W        W 9816   3.176   4.950   0.396
 5766W        W 9817   0.688   8.410   0.344
 5767W        W 9818   6.706  11.385   0.373
 5768W        W 9819   8.999   0.945   0.954
 5769W        W 9820  11.280   1.132   9.476
 5770W        W 9821   0.904   4.210   2.247
 5771W        W 9822   8.089   9.246   2.801
 5772W        W 9823   9.476   2.152   1.434
 5773W        W 9824   1.258   7.560  11.853
 5774W        W 9825   2.238   6.135   1.961
 5775W        W 9826   9.476   9.331   1.776
 5776W        W 9827  10.583   6.246  10.762
 5777W        W 9828   9.412   7.027   3.335
 5778W        W 9829   8.595   6.141   1.470
 5779W        W 9830   7.081   6.085   8.219
 5780W        W 9831   0.939   5.323  10.844
 5781W        W 9832   8.866   9.588   2.222
 5782W        W 9833  11.326   7.435   0.304
 5783W        W 9834   8.747   0.409   2.729
 5784W        W 9835   6.660   3.185  10.265
 5785W        W 9836   5.995   9.989   3.444
 5786W        W 9837   5.957   4.583   0.216
 5787W        W 9838   5.724   7.383   3.622
 5788W        W 9839   6.351   8.085  11.834
 5789W        W 9840  11.369   5.753   2.338
 5790W        W 9841  10.813  10.867   0.364
 5791W        W 9842   7.007   3.714  11.808
 5792W        W 9843   6.835   2.282   2.065
 5793W        W 9844   8.161  10.445   0.490
 5794W        W 9845   2.790   1.277   1.745
 5795W        W 9846   8.538   6.672   1.188
 5796W        W 9847   8.023  10.522   2.558
 5797W        W 9848   5.623  10.993   1.638
 5798W        W 9849  11.426   4.778   9.581
 5799W        W 9850   2.878   0.389   9.086
 5800W        W 9851  10.755   4.123  10.544
 5801W        W 9852   3.121   7.141  11.361
 5802W        W 9853   4.630  10.284   2.663
 5803W        W 9854   1.255  10.074   0.915
 5804W        W 9855   5.487   3.663   8.571
 5805W        W 9856   2.305   7.214   0.066
 5806W        W 9857   6.138   9.812  11.835
 5807W        W 9858   4.072   7.532  10.019
 5808W        W 9859   5.235   8.747   4.062
 5809W        W 9860   7.414   0.999   2.880
 5810W        W 9861   0.230   1.362   1.171
 5811W        W 9862   7.146   9.610   9.823
 5812W        W 9863  10.531   2.773  10.463
 5813W        W 9864  11.363   0.731   2.242
 5814W        W 9865   1.281  10.975   3.211
 5815W        W 9866   2.487  10.801   0.700
 5816W        W 9867   0.960   9.562   8.581
 5817W        W 9868   6.725   2.303   8.949
 5818W        W 9869   2.639   0.770  10.797
 5819W        W 9870   4.584   6.198   0.284
 5820W        W 9871   3.429   0.904   0.325
 5821W        W 9872   0.564   9.485  11.801
 5822W        W 9873   5.883   2.266   1.727
 5823W        W 9874   2.789   3.336   9.747
 5824W        W 9875   2.847  10.089  11.444
 5825W        W 9876   5.133   3.300   9.616
 5826W        W 9877   0.223   4.030   8.983
 5827W        W 9878   8.196   3.676  11.502
 5828W        W 9879   6.617   0.143   0.932
 5829W        W 9880   1.790   1.367   0.758
 5830W        W 9881  11.406  10.697   3.758
 5831W        W 9882   0.072   3.851  10.311
 5832W        W 9883  10.238   4.632   3.235
 5833W        W 9884  10.429   7.988   8.943
 5834W        W 9885   5.311   8.034  10.211
 5835W        W 9886   6.971   6.626   0.335
 5836W        W 9887  10.404   6.735  11.522
 5837W        W 9888   6.155   4.564   1.697
 5838W        W 9889  10.524   7.873   1.429
 5839W        W 9890   6.284   7.961  10.043
 5840W        W 9891   4.057   6.432   1.341
 5841W        W 9892   6.717   5.564   0.836
 5842W        W 9893   0.372   0.897   2.964
 5843W        W 9894   3.091   6.224  11.080
 5844W        W 9895   7.271   4.167   0.430
 5845W        W 9896  10.133  10.269   0.287
 5846W        W 9897   6.895   2.177   9.597
 5847W        W 9898  11.039   3.806   2.853
 5848W        W 9899   6.675   0.275  10.248
 5849W        W 9900   1.813   4.381  10.964
 5850W        W 9901  10.845   1.886   9.748
 5851W        W 9902   9.111   7.707   9.283
 5852W        W 9903   0.070   0.064   0.043
 5853W        W 9904   8.277   5.686  11.819
 5854W        W 9905   0.327   9.039   1.237
 5855W        W 9906   4.366   1.751  11.691
 5856W        W 9907   4.196   8.644  10.418
 5857W        W 9908   0.821   4.847  11.467
 5858W        W 9909   6.472   7.189  10.962
 5859W        W 9910   1.758   5.309   8.427
 5860W        W 9911   7.590   0.947   1.570
 5861W        W 9912   7.146   0.152   0.393
 5862W        W 9913   3.511  10.474   9.957
 5863W        W 9914   2.360   0.335   9.065
 5864W        W 9915   9.877  10.077   2.929
 5865W        W 9916   8.228   7.655  11.962
 5866W        W 9917   4.747   6.727   0.687
 5867W        W 9918   9.421   9.275   2.736
 5868W        W 9919  11.082   5.009  10.270
 5869W        W 9920   2.858   4.220   9.817
 5870W        W 9921   3.523   3.061  10.570
 5871W        W 9922  10.916   2.658  11.731
 5872W        W 9923   7.556   1.862   0.334
 5873W        W 9924   7.559   6.677  10.462
 5874W        W 9925   1.903   5.237  10.766
 5875W        W 9926   4.674   9.519  11.721
 5876W        W 9927   7.024   4.322   2.275
 5877W        W 9928   7.084   3.401  10.075
 5878W        W 9929   5.643   5.798   1.004
 5879W        W 9930   2.826   2.850   9.585
 5880W        W 9931  10.600   7.447   1.866
 5881W        W 9932  10.509   4.990   9.478
 5882W        W 9933   7.617  10.421  10.063
 5883W        W 9934   6.281   7.552  11.759
 5884W        W 9935   5.575   8.095  11.751
 5885W        W 9936   9.139   4.152   0.509
 5886W        W 9937  11.259   3.083   9.127
 5887W        W 9938   2.813   8.366  10.145
 5888W        W 9939   7.174   9.235   0.846
 5889W        W 9940   4.209   2.314   9.885
 5890W        W 9941   3.856   6.640   9.884
 5891W        W 9942  11.063   2.715   1.225
 5892W        W 9943   0.224   7.776   2.948
 5893W        W 9944   4.014   1.463  11.963
 5894W        W 9945   5.134   4.651  10.711
 5895W        W 9946   0.291  10.719   0.313
 5896W        W 9947   7.024   7.930  10.908
 5897W        W 9948   1.755   1.790   9.587
 5898W        W 9949  10.165   1.244   3.557
 5899W        W 9950  10.864   9.139   0.533
 5900W        W 9951   8.090   1.574   3.490
 5901W        W 9952   3.630   4.692   8.476
 5902W        W 9953   7.939  10.099  10.577
 5903W        W 9954   5.173   8.069   1.742
 5904W        W 9955   1.806  10.017   2.424
 5905W        W 9956   2.347   1.918   0.401
 5906W        W 9957   6.596   8.179   2.808
 5907W        W 9958   9.815   1.209   1.230
 5908W        W 9959   2.688   3.237   2.739
 5909W        W 9960   8.943   6.858  11.260
 5910W        W 9961   6.153   0.552  11.266
 5911W        W 9962   2.876  10.471   2.896
 5912W        W 9963   9.960  10.837   8.560
 5913W        W 9964   4.626   3.897   0.990
 5914W        W 9965   9.426   9.882   9.904
 5915W        W 9966   5.207   3.742   0.476
 5916W        W 9967   3.279   2.899   0.411
 5917W        W 9968   3.216   1.327   3.824
 5918W        W 9969   0.775  11.198   1.852
 5919W        W 9970   3.718   8.403   0.165
 5920W        W 9971   4.785   8.563  11.406
 5921W        W 9972   9.981  11.338  10.035
 5922W        W 9973   3.771   0.155   8.661
 5923W        W 9974   2.173   9.385   1.702
 5924W        W 9975   9.928   3.775   2.122
 5925W        W 9976  10.906   4.051   9.784
 5926W        W 9977   5.207   7.253   3.180
 5927W        W 9978   5.100   9.470   1.890
 5928W        W 9979   9.062   3.646   2.382
 5929W        W 9980   1.100  10.398   1.686
 5930W        W 9981   1.378   1.433   9.355
 5931W        W 9982   3.341   6.669   3.648
 5932W        W 9983  10.554   7.377   9.436
 5933W        W 9984   6.235   5.591  10.892
 5934W        W 9985  11.321   6.987  11.967
 5935W        W 9986   6.070   5.619   0.758
 5936W        W 9987   4.193   7.932  11.436
 5937W        W 9988   1.265  10.884  11.228
 5938W        W 9989   0.801   3.282  10.535
 5939W        W 9990   4.188   7.818   1.828
 5940W        W 9991   2.955   8.962  11.038
 5941W        W 9992  10.921   1.644   0.444
 5942W        W 9993   4.178   0.189  10.528
 5943W        W 9994   6.388   3.650   2.891
 5944W        W 9995   0.820   7.872   1.044
 5945W        W 9996   1.723   8.945  10.308
 5946W        W 9997   7.321   6.044  11.080
 5947W        W 9998   6.830   7.187   2.747
 5948W        W 9999   8.865   2.234   0.299
 5949W        W10000   2.537   7.820   0.746
 5950W        W10001   6.762   5.484  10.679
 5951W        W10002   9.003   8.081  11.062
 5952W        W10003   3.398   1.814  11.381
 5953W        W10004   8.164   5.395   9.863
 5954W        W10005   0.853  10.699  11.631
 5955W        W10006   2.599   7.554   2.273
 5956W        W10007   2.436   2.896   3.568
 5957W        W10008   1.450   1.205   2.303
 5958W        W10009   4.695   1.964   3.312
 5959W        W10010   5.955   4.688   1.222
 5960W        W10011   8.558  10.407  10.738
 5961W        W10012   2.741   7.413  11.785
 5962W        W10013   8.644   2.822   9.621
 5963W        W10014   7.589   9.884   9.776
 5964W        W10015   4.614   4.296   3.929
 5965W        W10016   4.756   8.827   9.967
 5966W        W10017  11.162   4.311   2.479
 5967W        W10018   8.072  10.516   9.835
 5968W        W10019   1.561   9.977   2.867
 5969W        W10020   1.381  11.437   9.511
 5970W        W10021   2.588   4.128   0.578
 5971W        W10022  10.002   2.078  11.003
 5972W        W10023   4.119  11.208   0.301
 5973W        W10024   8.511   7.620  11.487
 5974W        W10025   7.675   9.586   2.800
 5975W        W10026   3.773   2.464   3.318
 5976W        W10027   7.755   1.503  11.375
 5977W        W10028   7.688   3.115   1.978
 5978W        W10029   9.870   5.401  11.556
 5979W        W10030   2.801   5.270   4.154
 5980W        W10031   8.891   0.504  11.028
 5981W        W10032   4.775   9.941   8.718
 5982W        W10033   6.302   7.029  11.923
 5983W        W10034   9.650   3.332   0.851
 5984W        W10035   0.261   6.947   9.163
 5985W        W10036   9.335   0.177   1.881
 5986W        W10037   8.533   4.661   8.292
 5987W        W10038   9.545   8.642   9.421
 5988W        W10039   2.406   0.555   3.449
 5989W        W10040   2.348   1.411   1.974
 5990W        W10041   6.982   5.655   0.343
 5991W        W10042  10.855   1.692   1.932
 5992W        W10043   0.375   4.223   9.437
 5993W        W10044   5.023  11.344  11.970
 5994W        W10045   6.222   5.277  11.305
 5995W        W10046   5.118  10.452   0.899
 5996W        W10047   9.356   8.010  10.556
 5997W        W10048   0.823  11.083  11.290
 5998W        W10049   6.023   6.944  10.904
 5999W        W10050   8.910   1.822  10.783
 6000W        W10051   8.132   9.091   9.183
 6001W        W10052   7.216   2.233   1.718
 6002W        W10053   0.016   3.828   3.060
 6003W        W10054   8.959   2.119   2.635
 6004W        W10055   3.273   6.204   2.315
 6005W        W10056   7.994   1.921  10.551
 6006W        W10057   8.432   0.800   3.265
 6007W        W10058   5.532   8.047  11.231
 6008W        W10059   3.359   4.496  10.585
 6009W        W10060   4.911   0.149   1.764
 6010W        W10061   8.101   4.934   9.069
 6011W        W10062   6.717   1.363  10.559
 6012W        W10063   6.576   8.982   1.373
 6013W        W10064   0.334   6.565   8.785
 6014W        W10065   7.751   7.080   9.205
 6015W        W10066   8.826   8.500   9.724
 6016W        W10067  10.038  10.718   9.060
 6017W        W10068   6.072   4.163  11.883
 6018W        W10069   7.981   6.831   3.616
 6019W        W10070   9.181   4.792   3.141
 6020W        W10071   9.090   2.829   3.695
 6021W        W10072   5.093   9.962   0.686
 6022W        W10073   3.642   6.613   2.248
 6023W        W10074   3.206   7.212   3.329
 6024W        W10075  10.940  10.985  11.042
 6025W        W10076   1.677  10.402   9.555
 6026W        W10077  10.868   0.497   3.474
 6027W        W10078   6.554   7.496   0.489
 6028W        W10079   5.075  10.917   2.987
 6029W        W10080   5.129   2.313   2.304
 6030W        W10081  10.661   4.082   8.956
 6031W        W10082   2.278   2.803   2.036
 6032W        W10083   9.585   6.944  11.704
 6033W        W10084   3.576   6.864   8.972
 6034W        W10085  11.282  11.175   9.768
 6035W        W10086   3.778   8.872   0.920
 6036W        W10087   6.260   6.824   3.899
 6037W        W10088   5.980   3.402   0.664
 6038W        W10089   7.823   0.766   8.555
 6039W        W10090   3.501   6.535   3.168
 6040W        W10091   2.172   9.142  10.469
 6041W        W10092   5.005   2.422   0.776
 6042W        W10093   8.913   6.203   3.697
 6043W        W10094   2.301   9.362   3.662
 6044W        W10095   6.684  11.365   9.048
 6045W        W10096   1.202   7.867   8.546
 6046W        W10097   7.673   8.199   0.585
 6047W        W10098   4.873  10.732   9.178
 6048W        W10099  10.822   4.559   0.734
 6049W        W10100   6.476   9.056   9.603
 6050W        W10101   7.292   6.677   1.257
 6051W        W10102   2.146   8.245   8.522
 6052W        W10103   0.927   4.548   3.068
 6053W        W10104   4.247   9.097  10.670
 6054W        W10105   0.875   8.736   2.333
 6055W        W10106   1.928   4.679   9.067
 6056W        W10107   2.964   4.287   2.168
 6057W        W10108  11.218   8.905   2.451
 6058W        W10109   3.901   1.054   0.257
 6059W        W10110   2.295   2.774   1.031
 6060W        W10111   7.183  11.250  11.394
 6061W        W10112   9.004   4.959   8.291
 6062W        W10113   9.327   5.805   0.642
 6063W        W10114   9.347   6.168   2.943
 6064W        W10115   6.527  10.317   0.628
 6065W        W10116  10.594   4.390  10.949
 6066W        W10117   1.366  10.269   9.956
 6067W        W10118   5.742   0.889   0.528
 6068W        W10119   8.020  10.956   9.138
 6069W        W10120   8.059   9.527  11.355
 6070W        W10121   9.928   2.908   1.650
 6071W        W10122   0.283  10.892   3.131
 6072W        W10123   8.107   3.129   3.141
 6073W        W10124  10.308   7.466   8.997
 6074W        W10125   6.984   8.005   1.585
 6075W        W10126  11.435   8.334  11.674
 6076W        W10127   5.496   6.944   8.758
 6077W        W10128   7.011  10.349  11.741
 6078W        W10129   4.267   7.966   9.823
 6079W        W10130   8.397   6.131   2.944
 6080W        W10131   4.264   8.971   2.592
 6081W        W10132  11.373   4.303   9.788
 6082W        W10133   0.771   1.742   9.965
 6083W        W10134   7.118   8.369   9.893
 6084W        W10135   6.162   7.614   9.229
 6085W        W10136   1.397   0.242   9.991
 6086W        W10137   5.007  11.184   9.374
 6087W        W10138   7.448   5.708  10.249
 6088W        W10139   6.224   1.907   2.773
 6089W        W10140   2.576   2.138   3.464
 6090W        W10141   7.125   8.148   8.455
 6091W        W10142   4.128   1.686   1.707
 6092W        W10143   1.555   9.240   1.147
 6093W        W10144   8.494   5.427   2.218
 6094W        W10145   0.319   8.381   9.092
 6095W        W10146   8.788   0.431  11.861
 6096W        W10147  10.440   3.610   9.119
 6097W        W10148   6.435  11.485   3.424
 6098W        W10149   1.290   3.786   9.403
 6099W        W10150   5.942   3.474   2.475
 6100W        W10151   9.577   9.552   3.614
 6101W        W10152   4.633   5.738   0.015
 6102W        W10153   9.001   3.731  11.710
 6103W        W10154   8.980   7.102   9.975
 6104W        W10155   9.150  10.007   2.460
 6105W        W10156   6.089   2.445  10.438
 6106W        W10157   2.899   8.456   8.624
 6107W        W10158   9.010   9.841   9.090
 6108W        W10159   8.045   5.966   1.009
 6109W        W10160   5.569   2.818   0.029
 6110W        W10161   0.432   2.213   3.024
 6111W        W10162   6.465   9.523   2.789
 6112W        W10163   5.588   3.313  11.821
 6113W        W10164   3.524   1.417   0.207
 6114W        W10165   8.810   6.170   2.223
 6115W        W10166   4.565   8.544   2.428
 6116W        W10167   0.727  10.037   3.052
 6117W        W10168   5.568   9.284   0.991
 6118W        W10169   3.741   6.127   4.060
 6119W        W10170  10.100  10.785   2.423
 6120W        W10171   0.250  11.361   9.791
 6121W        W10172   6.054   7.603   9.748
 6122W        W10173   2.756   5.172   8.596
 6123W        W10174   2.397   5.746   0.728
 6124W        W10175   5.640   1.814  10.007
 6125W        W10176   6.525   0.726   2.249
 6126W        W10177   1.272   9.178   8.442
 6127W        W10178   8.180   8.664  10.952
 6128W        W10179   3.661   4.826  10.362
 6129W        W10180  11.065   6.987   0.442
 6130W        W10181   2.503   5.246   1.499
 6131W        W10182   4.754   2.323   3.689
 6132W        W10183   9.474   3.118   0.417
 6133W        W10184   7.424   9.539   1.525
 6134W        W10185  10.474   4.036   9.434
 6135W        W10186   8.490   5.702   1.196
 6136W        W10187   4.658   9.548   2.207
 6137W        W10188   8.897  11.277  11.481
 6138W        W10189   6.602  10.019  11.869
 6139W        W10190   2.458   5.265   1.993
 6140W        W10191   7.475   1.685  10.078
 6141W        W10192   9.582   5.172   2.005
 6142W        W10193   7.129  11.346  11.920
 6143W        W10194   7.858   2.322   0.375
 6144W        W10195   0.390   2.606  11.558
 6145W        W10196   8.550   6.582   0.370
 6146W        W10197   0.771   1.826   2.840
 6147W        W10198   0.890   8.091  10.289
 6148W        W10199   1.820   0.981  11.790
 6149W        W10200   4.085   9.420   9.480
 6150W        W10201   4.342   9.835   1.357
 6151W        W10202   6.202  11.409   2.180
 6152W        W10203   1.698  10.645  11.165
 6153W        W10204  10.546   9.959   0.282
 6154W        W10205   3.979   6.587   3.375
 6155W        W10206  11.141   3.035   0.427
 6156W        W10207   1.696   6.200  10.762
 6157W        W10208  10.924   8.569   9.883
 6158W        W10209  10.631  10.511   3.096
 6159W        W10210   5.311   2.194   1.164
 6160W        W10211   4.390   4.407   0.728
 6161W        W10212   6.910   2.895  10.799
 6162W        W10213   9.645  11.018   2.662
 6163W        W10214   6.854   3.826   9.927
 6164W        W10215   9.868   3.899   3.085
 6165W        W10216   6.008   2.774   2.391
 6166W        W10217   4.792   0.487   0.368
 6167W        W10218   1.816   1.173   0.280
 6168W        W10219   9.078   4.814   1.830
 6169W        W10220  10.283   0.363   1.864
 6170W        W10221   7.975   7.212   0.857
 6171W        W10222   6.963  10.894   3.135
 6172W        W10223   6.189   7.927  10.547
 6173W        W10224   9.447   9.491  10.433
 6174W        W10225   3.868   9.855   9.329
 6175W        W10226   8.566   8.050   9.940
 6176W        W10227   3.377   0.929  11.405
 6177W        W10228   3.880   5.897   8.735
 6178W        W10229   8.531   9.004   8.862
 6179W        W10230   7.099   4.167   1.361
 6180W        W10231  11.443  11.034   1.848
 6181W        W10232   3.861   8.781   2.806
 6182W        W10233   0.861   0.544   9.363
 6183W        W10234   8.892   0.821   1.458
 6184W        W10235   4.173   1.857  10.692
 6185W        W10236   6.409  10.297   1.118
 6186W        W10237   0.950  10.145   2.107
 6187W        W10238   6.946  10.459  10.357
 6188W        W10239   7.783   2.278   1.752
 6189W        W10240   4.654   1.636   1.716
 6190W        W10241   0.926   8.939   1.875
 6191W        W10242   5.037   3.751   2.321
 6192W        W10243   4.651   0.150   9.046
 6193W        W10244   8.177   3.706  10.526
 6194W        W10245  10.787   6.415  11.590
 6195W        W10246  10.816   6.037   8.696
 6196W        W10247   1.857   9.356   0.332
 6197W        W10248   7.294  10.516   0.722
 6198W        W10249   7.431   6.604   1.966
 6199W        W10250  11.398   3.454   0.175
 6200W        W10251   9.194  10.729   2.646
 6201W        W10252   7.400   9.585  11.386
 6202W        W10253   2.330   8.083  10.240
 6203W        W10254  11.472   4.309  11.226
 6204W        W10255   4.485   3.718   3.289
 6205W        W10256   8.852   4.235   0.921
 6206W        W10257   9.080   1.755   9.266
 6207W        W10258   1.336   2.362  10.675
 6208W        W10259   3.056   0.790   3.984
 6209W        W10260  11.068   6.015   1.965
 6210W        W10261   8.052   4.558   1.680
 6211W        W10262   6.766  10.007   9.151
 6212W        W10263   2.160   0.455  10.410
 6213W        W10264   2.348   2.831   1.533
 6214W        W10265   3.355   9.872  11.004
 6215W        W10266   5.070  10.352   8.833
 6216W        W10267   5.610   7.421   2.926
 6217W        W10268  11.193   4.027   8.929
 6218W        W10269   8.945   7.080   9.072
 6219W        W10270   1.511   7.316   1.408
 6220W        W10271   9.474   0.542   2.258
 6221W        W10272  10.978   5.268   0.928
 6222W        W10273   7.452   4.144   3.703
 6223W        W10274   5.085   9.546  10.569
 6224W        W10275   9.515   7.108   8.825
 6225W        W10276   9.390   8.866   2.436
 6226W        W10277  10.116   7.630   9.469
 6227W        W10278   4.645  10.717   0.826
 6228W        W10279  11.314   1.787   2.165
 6229W        W10280   7.285   6.774  10.023
 6230W        W10281   5.485   1.960  11.018
 6231W        W10282   6.588   9.516   0.033
 6232W        W10283   8.136   8.852   2.457
 6233W        W10284   7.092   7.490   1.812
 6234W        W10285   4.185   6.139   0.656
 6235W        W10286  10.785   3.973   2.402
 6236W        W10287   4.762   3.473  11.283
 6237W        W10288   9.347   5.053   9.518
 6238W        W10289  11.045   8.385   1.703
 6239W        W10290   7.905   8.273   1.777
 6240W        W10291   3.022   6.723   3.244
 6241W        W10292   0.858   9.668   3.369
 6242W        W10293  10.749   9.759   2.782
 6243W        W10294   2.228   5.748   2.746
 6244W        W10295   1.244   3.326   0.576
 6245W        W10296   3.410   2.882   1.295
 6246W        W10297   9.563   6.608   8.731
 6247W        W10298   7.457   6.221   1.631
 6248W        W10299  10.440   9.969  11.386
 6249W        W10300   2.553  10.434   9.193
 6250W        W10301   0.656   7.878  11.365
 6251W        W10302  11.371  10.319  10.645
 6252W        W10303   8.899  10.957  11.903
 6253W        W10304   4.700   6.771   2.033
 6254W        W10305   3.677   0.100   1.771
 6255W        W10306   8.967   3.572   3.389
 6256W        W10307   7.068   1.191   0.330
 6257W        W10308   4.657   9.320   3.057
 6258W        W10309   3.193  10.881   9.860
 6259W        W10310   3.975   5.821   9.953
 6260W        W10311   5.883   4.149   1.911
 6261W        W10312   5.496   9.847  10.473
 6262W        W10313   3.631   8.914   1.430
 6263W        W10314  11.407   0.239   9.027
 6264W        W10315   2.832   7.914  10.393
 6265W        W10316  11.043   1.687   8.788
 6266W        W10317   2.163   4.407   1.955
 6267W        W10318   9.391   7.186   8.320
 6268W        W10319   4.218   4.176   9.888
 6269W        W10320   1.384   9.964  10.744
 6270W        W10321   7.665   3.765   0.337
 6271W        W10322   9.396   6.199  10.006
 6272W        W10323  11.133   8.871   1.904
 6273W        W10324   8.649  10.858  11.326
 6274W        W10325   4.814   1.275   9.786
 6275W        W10326   7.540   4.510   2.358
 6276W        W10327   4.951   4.559   0.219
 6277W        W10328   9.147   1.315   9.529
 6278W        W10329  10.739   9.168  10.474
 6279W        W10330   0.628   7.871   3.645
 6280W        W10331   0.685   3.192   8.622
 6281W        W10332   2.145   8.426  11.269
 6282W        W10333  11.429  10.830  10.629
 6283W        W10334   5.003   3.540  10.043
 6284W        W10335   7.688   5.971  11.934
 6285W        W10336   4.325  11.454   1.237
 6286W        W10337   0.363   7.646  10.979
 6287W        W10338   1.657   7.453  10.493
 6288W        W10339   6.251   7.612   8.705
 6289W        W10340   7.118   8.672  10.307
 6290W        W10341   5.624  11.463   9.912
 6291W        W10342   8.530   1.933  10.438
 6292W        W10343   3.030  11.406  11.625
 6293W        W10344  11.016   2.169  10.165
 6294W        W10345   1.737   6.887   1.732
 6295W        W10346   3.398   0.243   9.902
 6296W        W10347  10.883   3.086   8.762
 6297W        W10348   8.400   1.796  11.962
 6298W        W10349   1.914   8.564   8.945
 6299W        W10350   4.153   7.457   2.239
 6300W        W10351   7.238   1.247   9.915
 6301W        W10352   4.219  11.029   9.810
 6302W        W10353   5.769   6.723  11.494
 6303W        W10354   5.161   5.546   0.755
 6304W        W10355   6.782   3.420   1.073
 6305W        W10356   0.511   5.174   2.516
 6306W        W10357  10.878  11.375   9.526
 6307W        W10358   7.479   9.615  11.937
 6308W        W10359   8.907   6.926   3.310
 6309W        W10360   9.554   0.971   2.580
 6310W        W10361   2.175   7.143   1.858
 6311W        W10362  10.976   5.128   1.913
 6312W        W10363   4.519   0.772   2.922
 6313W        W10364   0.270  10.511   9.287
 6314W        W10365   2.937   6.738  10.344
 6315W        W10366   1.976   4.785   8.526
 6316W        W10367   0.994  10.510   3.144
 6317W        W10368   9.819  10.981   9.431
 6318W        W10369   1.895   9.575  10.067
 6319W        W10370  11.332   2.700   0.057
 6320W        W10371   8.410   6.394   9.599
 6321W        W10372   8.056  10.941   8.625
 6322W        W10373   8.355   8.016   1.772
 6323W        W10374   2.167   6.741   3.138
 6324W        W10375   1.160   5.814   9.157
 6325W        W10376   2.731   5.084   9.529
 6326W        W10377   3.149   0.395  11.447
 6327W        W10378   1.784   5.974   0.185
 6328W        W10379   6.207  11.250   0.174
 6329W        W10380   0.471   9.935   1.328
 6330W        W10381   1.217  10.396  11.385
 6331W        W10382   0.433   5.278   3.503
 6332W        W10383   6.259   1.093   0.211
 6333W        W10384   0.047   1.313   2.878
 6334W        W10385   3.159  10.983   8.909
 6335W        W10386   5.561  11.451  10.827
 6336W        W10387   3.756  10.738   0.842
 6337W        W10388   5.073   5.050   0.030
 6338W        W10389   0.914   6.279   9.031
 6339W        W10390   0.819  10.219   3.554
 6340W        W10391   9.170   2.142  10.084
 6341W        W10392   0.221   5.629  11.217
 6342W        W10393   9.893   2.883   0.628
 6343W        W10394   8.570   8.499   3.022
 6344W        W10395  10.441   1.469   0.504
 6345W        W10396   6.119   6.918   0.400
 6346W        W10397   4.637  10.608   2.251
 6347W        W10398   1.802   7.245   9.779
 6348W        W10399  10.270   9.140   3.191
 6349W        W10400   9.951   1.811   9.279
 6350W        W10401   4.618  11.300  10.044
 6351W        W10402   7.023   1.062   8.893
 6352W        W10403   8.828   5.296   2.747
 6353W        W10404   2.667   1.728   3.178
 6354W        W10405   3.116   3.346   8.857
 6355W        W10406   0.817   4.836   9.987
 6356W        W10407   9.860   5.676  11.117
 6357W        W10408   2.673   9.570   8.930
 6358W        W10409   2.752   7.521   8.289
 6359W        W10410   3.150   6.257   0.791
 6360W        W10411   4.072   5.145   2.550
 6361W        W10412  10.372   7.923   1.915
 6362W        W10413   8.992   4.706   0.784
 6363W        W10414   7.082  10.329   1.921
 6364W        W10415   5.202   1.676   0.269
 6365W        W10416   7.044   2.452   0.801
 6366W        W10417   4.409   9.578   9.843
 6367W        W10418   5.691   3.590   1.176
 6368W        W10419   3.245   2.134   0.872
 6369W        W10420   2.338   8.918   0.959
 6370W        W10421  10.873   1.767  11.912
 6371W        W10422   7.907   8.902   8.743
 6372W        W10423   4.122   6.162  11.607
 6373W        W10424   2.033   9.318  10.947
 6374W        W10425   0.685   8.841   0.028
 6375W        W10426   7.374   5.550  11.980
 6376W        W10427   3.323   5.774   0.852
 6377W        W10428   0.466   6.199   2.211
 6378W        W10429   0.462   6.092  11.258
 6379W        W10430   1.793   6.032   1.174
 6380W        W10431   8.619   3.744   9.547
 6381W        W10432   9.622   5.256   9.900
 6382W        W10433   0.338   7.487   3.424
 6383W        W10434  10.518   0.449  11.179
 6384W        W10435  11.091   6.959   1.266
 6385W        W10436   3.432  10.017   0.448
 6386W        W10437   0.454   2.172   0.738
 6387W        W10438   3.476   5.244  10.180
 6388W        W10439   1.825   1.871   2.204
 6389W        W10440  10.787   7.053   3.557
 6390W        W10441   6.352   3.645  10.107
 6391W        W10442   0.788  10.606   8.528
 6392W        W10443   7.190   8.455   1.430
 6393W        W10444   3.355   4.411   0.566
 6394W        W10445   4.532   6.718  10.443
 6395W        W10446   6.483   4.689  10.985
 6396W        W10447   9.353  11.395   8.915
 6397W        W10448   8.363   7.421   3.265
 6398W        W10449  10.794   0.802   2.884
 6399W        W10450   9.509   9.177  11.405
 6400W        W10451   9.915   5.735   1.467
 6401W        W10452  10.706   7.641   0.987
 6402W        W10453   8.941  10.399  11.303
 6403W        W10454   5.233   1.655  10.288
 6404W        W10455   6.833   3.210   3.458
 6405W        W10456   0.209   5.533   8.955
 6406W        W10457   1.670   5.790  11.734
 6407W        W10458   9.020   0.292   2.302
 6408W        W10459   2.143   5.677   1.200
 6409W        W10460   1.461   2.371   0.581
 6410W        W10461  10.414   8.079   9.454
 6411W        W10462   0.458   0.774  10.982
 6412W        W10463  11.072  11.073   0.752
 6413W        W10464   1.912   2.737   0.706
 6414W        W10465   7.122  11.290  10.893
 6415W        W10466  10.261   9.599   0.918
 6416W        W10467   7.861   2.788  10.852
 6417W        W10468   5.562   6.206   0.655
 6418W        W10469   9.434   3.090   1.798
 6419W        W10470   6.037   8.479   8.986
 6420W        W10471   0.000   6.086  11.458
 6421W        W10472  10.932   0.454  11.555
 6422W        W10473   9.219   9.321   0.781
 6423W        W10474   5.143   9.428   0.523
 6424W        W10475   6.217   8.663   3.131
 6425W        W10476   5.555   4.531  10.975
 6426W        W10477   5.465   0.755   1.500
 6427W        W10478   9.296   2.309   2.987
 6428W        W10479   1.279   8.419   2.376
 6429W        W10480   4.246   3.108  11.955
 6430W        W10481   1.009   2.181   9.858
 6431W        W10482   1.823   7.802   0.380
 6432W        W10483   4.074   2.236   0.374
 6433W        W10484   2.818   8.515   9.124
 6434W        W10485   8.590  10.819   1.438
 6435W        W10486   7.932   8.897  10.577
 6436W        W10487   8.607   8.090   0.666
 6437W        W10488   6.999   7.936   2.083
 6438W        W10489   7.204   1.922   2.143
 6439W        W10490  11.262   3.250   2.284
 6440W        W10491   8.486   2.905   2.273
 6441W        W10492   4.224   9.570   3.232
 6442W        W10493   3.079   4.234   9.351
 6443W        W10494  10.412   1.630   9.455
 6444W        W10495   9.913   2.597  10.786
 6445W        W10496   2.811   9.699  10.433
 6446W        W10497   0.615   8.172   8.699
 6447W        W10498   3.710   8.689   8.225
 6448W        W10499   2.308   5.929  11.413
 6449W        W10500  11.429   7.989  10.324
 6450W        W10501  10.562   2.638  11.352
 6451W        W10502   3.923   9.577   9.951
 6452W        W10503   2.371   4.362   2.732
 6453W        W10504  11.278   6.524  11.754
 6454W        W10505  10.754  10.243   2.687
 6455W        W10506   9.321   5.256   2.910
 6456W        W10507   0.280   6.966   3.459
 6457W        W10508   5.504   0.286   9.142
 6458W        W10509   3.205   7.629   9.465
 6459W        W10510  11.481  10.766  11.549
 6460W        W10511   8.171   9.929   8.497
 6461W        W10512   1.083   1.890   1.896
 6462W        W10513   5.156   4.138  11.603
 6463W        W10514   5.687   5.245   2.268
 6464W        W10515   1.324   2.673   2.506
 6465W        W10516   9.970   1.266  10.536
 6466W        W10517   9.846   0.712  10.046
 6467W        W10518   4.047   8.466   2.439
 6468W        W10519   8.831   0.543   0.345
 6469W        W10520   8.974   4.597  10.461
 6470W        W10521   4.973   2.128   2.768
 6471W        W10522   8.227  10.029  11.407
 6472W        W10523  10.705   9.475   0.175
 6473W        W10524   1.540   0.678  10.860
 6474W        W10525   7.427   6.574  10.945
 6475W        W10526   8.519   6.538   3.671
 6476W        W10527   3.888   3.023   3.168
 6477W        W10528   9.427   0.154  11.800
 6478W        W10529   8.389   8.599  11.438
 6479W        W10530   4.760   5.696   1.044
 6480W        W10531   0.659  10.481   2.774
 6481W        W10532  10.482   6.515   8.816
 6482W        W10533   0.470   3.669   0.675
 6483W        W10534   0.684   2.175   9.439
 6484W        W10535   1.254   0.741   2.363
 6485W        W10536  10.558   9.291  11.709
 6486W        W10537   4.913   8.302   3.369
 6487W        W10538   7.610   7.525   9.902
 6488W        W10539   1.686   1.957  10.927
 6489W        W10540   4.640   7.541   0.116
 6490W        W10541   0.799  10.192  11.649
 6491W        W10542   2.115   3.330   0.712
 6492W        W10543   0.471  11.418   1.449
 6493W        W10544   1.856   5.527  11.326
 6494W        W10545   4.933   4.088   1.952
 6495W        W10546   3.780   7.041   1.000
 6496W        W10547  10.635   5.857   2.850
 6497W        W10548   8.209   4.372   0.295
 6498W        W10549   0.803   8.877   9.726
 6499W        W10550   7.406  11.359   3.141
 6500W        W10551   9.108   1.876   0.609
 6501W        W10552   9.512  11.316   3.273
 6502W        W10553   2.730   7.663   1.189
 6503W        W10554   6.967   5.014   1.651
 6504W        W10555  11.387   3.409   0.683
 6505W        W10556   2.472   7.092   1.081
 6506W        W10557   0.305   0.669   0.644
 6507W        W10558   5.237   9.956   9.629
 6508W        W10559   3.605   3.039   1.904
 6509W        W10560   5.645   5.336   0.806
 6510W        W10561   7.388   9.416   2.414
 6511W        W10562   1.483   2.314  10.196
 6512W        W10563   3.620   6.550   8.565
 6513W        W10564   2.070   7.442   2.370
 6514W        W10565  11.267  10.032   2.716
 6515W        W10566   4.569   1.378   2.235
 6516W        W10567   6.961   4.190   0.018
 6517W        W10568   0.727   5.356   9.970
 6518W        W10569   6.686   1.697  11.192
 6519W        W10570   8.532  11.379   3.236
 6520W        W10571   7.141   1.992   0.626
 6521W        W10572   1.445   0.716   0.038
 6522W        W10573   7.764   9.914  11.218
 6523W        W10574   4.108   0.456  11.986
 6524W        W10575   8.076   8.195   9.964
 6525W        W10576   0.341   6.501   3.793
 6526W        W10577   4.543   5.739  11.497
 6527W        W10578   4.023  10.530   9.759
 6528W        W10579   5.662   2.340  10.742
 6529W        W10580   8.855   9.304   9.273
 6530W        W10581   1.858   6.972   2.240
 6531W        W10582   0.402  10.821  11.823
 6532W        W10583   3.055  10.865  11.272
 6533W        W10584   0.794   9.962  10.560
 6534W        W10585   2.549   5.372   8.156
 6535W        W10586   6.631   6.700  11.293
 6536W        W10587   3.190   3.284  10.925
 6537W        W10588  10.836  10.295  11.777
 6538W        W10589   1.264  11.179   2.737
 6539W        W10590   3.763  10.957  10.520
 6540W        W10591   7.582   1.974  11.394
 6541W        W10592   4.041  11.451  11.818
 6542W        W10593   0.879   0.839   1.315
 6543W        W10594   1.882   8.628   9.476
 6544W        W10595   3.631   6.174   0.989
 6545W        W10596   9.778   1.697  10.742
 6546W        W10597   3.279   5.602  11.967
 6547W        W10598   0.590   7.257   2.159
 6548W        W10599   5.803   7.002   2.660
 6549W        W10600   9.769  11.413  11.498
 6550W        W10601   5.278   6.711   1.368
 6551W        W10602   6.232   4.144   4.113
 6552W        W10603   1.554   5.964  11.262
 6553W        W10604   6.562   6.913   1.217
 6554W        W10605   7.139   7.650  10.429
 6555W        W10606   6.524   7.740  10.976
 6556W        W10607   4.179  10.984   2.987
 6557W        W10608   7.084   0.827  10.799
 6558W        W10609   5.950  11.495   9.465
 6559W        W10610   5.870   9.531   9.846
 6560W        W10611   3.794   8.956   2.325
 6561W        W10612   4.157   6.253   3.742
 6562W        W10613   1.278   2.792   0.371
 6563W        W10614  10.547   2.380  10.037
 6564W        W10615   0.352  11.454   2.803
 6565W        W10616   0.348   7.252   1.694
 6566W        W10617   3.176   2.113  11.963
 6567W        W10618   2.893   2.799  11.412
 6568W        W10619   5.434   9.239   3.204
 6569W        W10620   9.965   8.376   2.393
 6570W        W10621  10.854  11.152   1.668
 6571W        W10622   1.730   9.201   3.289
 6572W        W10623   2.331  11.091  10.464
 6573W        W10624   7.477   0.965   0.572
 6574W        W10625   1.636   1.313  11.432
 6575W        W10626   6.664   3.134   2.463
 6576W        W10627   2.147   6.574   8.662
 6577W        W10628   2.853   6.236  10.608
 6578W        W10629   4.191   3.537  10.760
 6579W        W10630   6.445   3.180   8.470
 6580W        W10631   2.298   2.461  10.563
 6581W        W10632   1.600   7.029   9.378
 6582W        W10633  11.250   7.623   2.702
 6583W        W10634   9.257   0.673   0.572
 6584W        W10635   1.746   8.658   2.288
 6585W        W10636   5.119  11.302   9.875
 6586W        W10637   2.213   9.472   9.144
 6587W        W10638  10.021   3.349   1.878
 6588W        W10639   8.777   3.342  11.962
 6589W        W10640   4.246   0.075   9.852
 6590W        W10641   9.870   2.444   1.858
 6591W        W10642  10.957   8.167   0.737
 6592W        W10643   9.730   0.703   0.377
 6593W        W10644   5.171   5.978   0.999
 6594W        W10645   7.735   4.570   9.019
 6595W        W10646   3.238   2.636   0.862
 6596W        W10647   5.215   6.082  10.326
 6597W        W10648  10.014   8.142  11.786
 6598W        W10649   6.118   0.954   0.881
 6599W        W10650   1.936   3.400  10.956
 6600W        W10651  10.210   6.087   0.764
 6601W        W10652   8.993   7.853  11.528
 6602W        W10653   1.384   1.945   3.298
 6603W        W10654   6.557   8.642   1.818
 6604W        W10655   6.306   7.177   8.966
 6605W        W10656  10.801   0.760   9.060
 6606W        W10657   2.760   8.857   9.529
 6607W        W10658  11.254   8.582   0.705
 6608W        W10659   3.548   4.101   0.946
 6609W        W10660   4.047   6.180   0.133
 6610W        W10661   4.395   1.776   0.699
 6611W        W10662   6.191   0.290  10.803
 6612W        W10663   4.097  11.452   0.784
 6613W        W10664   7.615   8.907   0.624
 6614W        W10665   2.012   3.011  11.736
 6615W        W10666   8.149   2.841  10.398
 6616W        W10667   1.302   3.602  11.695
 6617W        W10668   4.536   3.414  10.401
 6618W        W10669   4.888   7.130  11.395
 6619W        W10670   5.650   6.324  10.162
 6620W        W10671   7.470   3.871   1.582
 6621W        W10672   0.150   5.659   0.604
 6622W        W10673  10.284   8.582  10.083
 6623W        W10674   7.189   3.113   1.976
 6624W        W10675   6.006   2.368   9.490
 6625W        W10676   4.611   1.448   9.366
 6626W        W10677   4.477   4.701   3.239
 6627W        W10678  10.086   7.459  10.315
 6628W        W10679  10.060  10.918   0.796
 6629W        W10680  11.345   5.255  11.091
 6630W        W10681   4.804   1.323  10.308
 6631W        W10682   0.854   3.494   9.522
 6632W        W10683   5.765   4.370   0.682
 6633W        W10684  10.172   7.526   1.628
 6634W        W10685   8.704   1.261   9.764
 6635W        W10686   3.249   8.607   0.229
 6636W        W10687   5.916   1.641  11.043
 6637W        W10688   5.035   1.809   4.141
 6638W        W10689   7.001   1.305   1.201
 6639W        W10690   7.870   5.221   9.457
 6640W        W10691   0.456   3.775   2.821
 6641W        W10692   8.081  11.379  10.875
 6642W        W10693   1.914   5.246   8.949
 6643W        W10694   1.359   2.821  10.341
 6644W        W10695   8.152  11.329   9.980
 6645W        W10696   9.234   0.403   3.270
 6646W        W10697   0.430  11.223   0.170
 6647W        W10698   8.655  11.288  10.218
 6648W        W10699   2.698   6.559   8.749
 6649W        W10700  10.530   0.701  10.662
 6650W        W10701   5.753   7.712   4.068
 6651W        W10702   3.333   3.326  11.411
 6652W        W10703   4.090  10.362  10.795
 6653W        W10704   9.006   3.333   9.067
 6654W        W10705   6.196   5.701   2.733
 6655W        W10706   4.977   8.122   9.191
 6656W        W10707   9.255   5.934  10.419
 6657W        W10708  10.359   4.144   3.118
 6658W        W10709   3.424   7.402   2.895
 6659W        W10710   7.632   2.115  11.891
 6660W        W10711   3.115   1.380  11.363
 6661W        W10712  10.754  11.274   9.051
 6662W        W10713  10.367   0.949   3.183
 6663W        W10714   4.121   1.252  10.384
 6664W        W10715   5.889  10.909   2.467
 6665W        W10716   2.026  10.348   9.191
 6666W        W10717   1.368   3.720  10.680
 6667W        W10718   1.744   4.622   0.422
 6668W        W10719   4.229   1.220   1.858
 6669W        W10720   9.021   8.976   9.846
 6670W        W10721   1.299   4.578  10.814
 6671W        W10722   4.249   2.774   1.558
 6672W        W10723   0.724   4.152   1.208
 6673W        W10724   9.322  10.375   3.805
 6674W        W10725  10.720   6.066   1.571
 6675W        W10726   2.120  10.602   1.805
 6676W        W10727  11.211   0.710   3.163
 6677W        W10728   0.550   1.858  11.163
 6678W        W10729   1.877  10.000   1.491
 6679W        W10730   7.601   6.221  10.191
 6680W        W10731   4.366   6.649  11.813
 6681W        W10732   0.076   1.680  11.228
 6682W        W10733   7.613  10.323  10.955
 6683W        W10734   7.588   8.018  10.652
 6684W        W10735   3.794   5.006   9.322
 6685W        W10736   5.121   0.302   1.312
 6686W        W10737   1.233   5.937  10.862
 6687W        W10738   9.849   8.851   3.304
 6688W        W10739   7.646   5.490   0.910
 6689W        W10740   2.210   8.796   2.492
 6690W        W10741   7.560   1.913   9.213
 6691W        W10742   9.301   4.833  10.047
 6692W        W10743   7.163   7.464   9.052
 6693W        W10744  10.909  10.939   3.031
 6694W        W10745   7.976   2.350   9.714
 6695W        W10746   3.707   6.621  10.809
 6696W        W10747   7.913  10.851   3.423
 6697W        W10748   3.925  10.280  11.342
 6698W        W10749   5.393   8.464  10.946
 6699W        W10750   0.585   9.071  10.191
 6700W        W10751   0.262   3.192   2.284
 6701W        W10752   6.068   2.555  10.953
 6702W        W10753  10.618   8.404   1.349
 6703W        W10754   3.213  11.480   9.184
 6704W        W10755  10.144   4.241   9.101
 6705W        W10756   6.795   1.793   2.423
 6706W        W10757   0.802   4.573  10.466
 6707W        W10758   5.769   2.842   2.834
 6708W        W10759   9.958   2.717   0.155
 6709W        W10760   3.927   7.264   2.891
 6710W        W10761  10.147   0.322   3.452
 6711W        W10762   7.381   1.054   2.374
 6712W        W10763   7.956   3.306  11.121
 6713W        W10764   0.804   7.395   0.808
 6714W        W10765   1.872   3.101  10.149
 6715W        W10766   1.803   6.428   0.401
 6716W        W10767   5.565   1.894  11.990
 6717W        W10768   2.360   9.583  10.650
 6718W        W10769   6.175   2.500  11.497
 6719W        W10770   4.522   6.113   1.286
 6720W        W10771   4.761  11.478   0.396
 6721W        W10772   9.044   7.386  10.392
 6722W        W10773   1.649  11.004  11.539
 6723W        W10774   4.165   9.522  11.494
 6724W        W10775   6.262   8.724   2.217
 6725W        W10776   3.643   0.898  10.408
 6726W        W10777   0.942   6.276  11.827
 6727W        W10778   8.821   7.612   8.846
 6728W        W10779   5.358   4.447   0.980
 6729W        W10780   9.972   3.253   8.730
 6730W        W10781   8.065   1.924  11.570
 6731W        W10782   9.646   9.319   3.183
 6732W        W10783   5.628   4.608   1.930
 6733W        W10784   5.838   7.067   9.161
 6734W        W10785   3.413   1.940   2.168
 6735W        W10786   8.435   5.946   9.878
 6736W        W10787   8.357   8.397   9.551
 6737W        W10788   0.227   4.068   1.364
 6738W        W10789   6.123   1.600   9.060
 6739W        W10790   4.781   7.975   1.137
 6740W        W10791   8.974   9.194   3.616
 6741W        W10792   9.991   7.970   1.507
 6742W        W10793   6.825  10.898   2.200
 6743W        W10794   9.421   3.352   8.730
 6744W        W10795   8.758   0.140   3.661
 6745W        W10796   2.953   0.719   0.301
 6746W        W10797   6.026   2.148   9.945
 6747W        W10798   4.944   2.628   1.782
 6748W        W10799   7.052   8.676   9.508
 6749W        W10800   7.798  10.374  11.436
 6750W        W10801   5.676   0.766   2.719
 6751W        W10802  11.395   5.188   9.894
 6752W        W10803   7.434  10.036  11.607
 6753W        W10804   7.117  11.184   1.309
 6754W        W10805  11.418   3.825  11.374
 6755W        W10806   9.868   9.998  11.933
 6756W        W10807   7.124   8.898   0.473
 6757W        W10808   2.175   4.970  11.737
 6758W        W10809   4.745   8.919   2.761
 6759W        W10810   2.692   9.493   1.707
 6760W        W10811  10.736   7.720   2.273
 6761W        W10812   1.748   2.680   9.872
 6762W        W10813   5.381   9.379   9.895
 6763W        W10814   2.314  10.008  11.413
 6764W        W10815  11.439   8.111   0.916
 6765W        W10816   8.209   1.213   0.637
 6766W        W10817   9.972   7.592   0.326
 6767W        W10818   5.077   7.235  10.890
 6768W        W10819   3.546   6.890   2.801
 6769W        W10820   8.627   3.031   1.247
 6770W        W10821   7.779   3.606   1.260
 6771W        W10822   1.372   7.162  11.546
 6772W        W10823   0.899   3.795   0.410
 6773W        W10824   2.790   2.854   0.988
 6774W        W10825  10.313  11.010  11.860
 6775W        W10826   6.506   2.356  10.757
 6776W        W10827   9.451   6.950   9.694
 6777W        W10828   4.770   9.905  10.966
 6778W        W10829   6.651   0.856   3.880
 6779W        W10830  10.531   7.294   1.346
 6780W        W10831  11.336   0.152   9.560
 6781W        W10832   5.193   9.001  10.744
 6782W        W10833   2.343   1.951  10.531
 6783W        W10834   5.078   9.314   2.405
 6784W        W10835   3.160   5.117   3.797
 6785W        W10836  11.301   5.277   0.509
 6786W        W10837   8.160   5.982   8.455
 6787W        W10838   9.757   0.503   1.812
 6788W        W10839  10.479   3.863  10.886
 6789W        W10840   1.162   6.711   8.703
 6790W        W10841   2.121   7.593   3.677
 6791W        W10842   4.494   1.449  10.681
 6792W        W10843   6.051   7.525  10.242
 6793W        W10844   2.706   7.523   9.338
 6794W        W10845   4.368  10.722   9.387
 6795W        W10846   4.798   7.138  10.337
 6796W        W10847   7.924  10.348   1.561
 6797W        W10848   7.987   1.234   1.424
 6798W        W10849   7.130   6.777   2.703
 6799W        W10850   9.160   8.432   1.271
 6800W        W10851   5.773   2.630   0.458
 6801W        W10852   1.885   2.157  10.495
 6802W        W10853   3.019   2.508  11.020
 6803W        W10854  10.419   7.436   2.973
 6804W        W10855  11.066   0.407   1.399
 6805W        W10856   5.928   4.306  11.375
 6806W        W10857   7.497   5.351   1.369
 6807W        W10858   7.149   9.500   2.890
 6808W        W10859   9.360   8.870   1.500
 6809W        W10860   5.650  10.765   3.468
 6810W        W10861   7.886   2.349   9.213
 6811W        W10862   3.673   7.055   0.027
 6812W        W10863   2.263  11.086   1.849
 6813W        W10864  11.418   0.501   0.948
 6814W        W10865   3.275   8.887   1.035
 6815W        W10866   7.350   7.008   8.832
 6816W        W10867   8.905   7.629   9.963
 6817W        W10868  10.518   9.062   8.710
 6818W        W10869   4.832   6.645  11.271
 6819W        W10870   0.394   4.878   1.631
 6820W        W10871   2.422   6.448  11.498
 6821W        W10872   9.456   9.773   2.913
 6822W        W10873   8.814   5.747  11.910
 6823W        W10874  10.884   0.365   9.403
 6824W        W10875   5.005   7.487   0.949
 6825W        W10876   2.363  10.312   0.904
 6826W        W10877  10.320   6.307   1.293
 6827W        W10878   5.304   9.814   0.232
 6828W        W10879  11.267   4.696   3.279
 6829W        W10880   5.228   0.801  11.768
 6830W        W10881   5.149   2.643   3.620
 6831W        W10882   5.747   4.119  10.745
 6832W        W10883   9.375  10.276   2.859
 6833W        W10884   1.846   7.801   2.705
 6834W        W10885  10.775   7.128   0.900
 6835W        W10886   9.873   4.725   0.207
 6836W        W10887   9.948   1.206   2.074
 6837W        W10888   3.197   4.752   0.906
 6838W        W10889   2.961   3.426  11.741
 6839W        W10890   0.664  10.445   0.074
 6840W        W10891   6.673   8.678   2.710
 6841W        W10892   8.472   9.469  10.130
 6842W        W10893   1.811   5.547   2.999
 6843W        W10894  11.390   2.859   2.712
 6844W        W10895   5.483  11.319   9.406
 6845W        W10896   8.960   9.866   0.806
 6846W        W10897   8.406   3.477  10.911
 6847W        W10898   6.551   1.673  10.199
 6848W        W10899   0.834   5.318  11.879
 6849W        W10900   2.687   8.161   1.286
 6850W        W10901   9.378   4.237  10.353
 6851W        W10902   7.493   6.696   0.318
 6852W        W10903   9.987   3.781   1.157
 6853W        W10904   2.176   7.416  10.582
 6854W        W10905   9.235   7.924   9.734
 6855W        W10906   8.470   9.880   9.829
 6856W        W10907   2.681   3.776  11.976
 6857W        W10908   1.001   0.733  10.852
 6858W        W10909  10.544  10.305   9.618
 6859W        W10910   6.241   1.283   8.669
 6860W        W10911   0.510   6.027   3.095
 6861W        W10912   0.823   4.539   9.524
 6862W        W10913   7.503   1.428   1.410
 6863W        W10914   9.407   5.829  11.322
 6864W        W10915  10.857   1.329  11.624
 6865W        W10916   8.877   4.778  11.787
 6866W        W10917   2.454   3.305  10.880
 6867W        W10918   6.375   1.368  10.931
 6868W        W10919   7.464   7.380   0.813
 6869W        W10920   1.339  10.921   2.304
 6870W        W10921   8.885   7.425   3.306
 6871W        W10922   5.478  10.531   2.476
 6872W        W10923   4.131  10.371  11.815
 6873W        W10924   1.333   1.813   9.964
 6874W        W10925   3.791   4.154   2.806
 6875W        W10926   5.048   6.044  11.985
 6876W        W10927   9.452   8.402   2.654
 6877W        W10928   7.627   5.527   2.207
 6878W        W10929   1.200  10.038   3.278
 6879W        W10930   5.559   7.561   0.932
 6880W        W10931  10.437  10.026   3.114
 6881W        W10932   4.262   5.226   0.540
 6882W        W10933   4.242   2.190   9.326
 6883W        W10934   8.898   7.141   2.810
 6884W        W10935   5.800   3.681  11.500
 6885W        W10936   7.927   2.761   1.699
 6886W        W10937   3.188   2.335  11.495
 6887W        W10938   7.484  10.024   1.833
 6888W        W10939   2.341   6.651   9.129
 6889W        W10940   9.023   9.547   1.725
 6890W        W10941   4.147  10.279   9.304
 6891W        W10942   3.188   6.158   1.793
 6892W        W10943   1.680   8.137  11.470
 6893W        W10944   6.133   0.226   1.390
 6894W        W10945   2.944   3.320   2.280
 6895W        W10946   4.179  11.461   8.906
 6896W        W10947   8.953   8.744   3.286
 6897W        W10948   7.164   8.150  10.351
 6898W        W10949   7.256   2.241   1.202
 6899W        W10950  10.079   8.096   9.872
 6900W        W10951   5.669   1.772   0.491
 6901W        W10952   0.800  11.368  10.893
 6902W        W10953   0.713  10.738   9.436
 6903W        W10954   3.300  11.224   2.608
 6904W        W10955   0.285   7.889   9.025
 6905W        W10956   2.015   7.596  10.133
 6906W        W10957   4.699   1.909  10.518
 6907W        W10958   7.563  10.450   1.184
 6908W        W10959   5.272   8.867   9.877
 6909W        W10960   7.175   5.339   0.708
 6910W        W10961   8.016   7.455   0.415
 6911W        W10962   5.605   3.114   0.438
 6912W        W10963  10.939   8.943  10.985
 6913W        W10964   3.675  10.404   9.418
 6914W        W10965   8.029   6.352   9.258
 6915W        W10966  10.291   1.983  10.575
 6916W        W10967   2.867   5.661   3.787
 6917W        W10968   6.093   0.261   0.055
 6918W        W10969   2.376   0.912  11.248
 6919W        W10970   8.127  10.319  10.996
 6920W        W10971   2.672  10.177  10.486
 6921W        W10972   1.434   1.507  10.815
 6922W        W10973   9.538   0.323  11.310
 6923W        W10974   7.145   9.192   9.096
 6924W        W10975   3.338   5.238   0.935
 6925W        W10976   9.890   7.205   0.020
 6926W        W10977   7.485   1.802   0.974
 6927W        W10978   6.905   7.410  10.809
 6928W        W10979  11.221   4.727  11.426
 6929W        W10980   9.235   7.597   2.057
 6930W        W10981   2.866   9.960  10.909
 6931W        W10982   7.399  10.099   3.638
 6932W        W10983  10.818   5.523   0.374
 6933W        W10984  10.448   8.842  10.765
 6934W        W10985   0.875   0.005   2.761
 6935W        W10986  11.049   3.354  11.301
 6936W        W10987  10.714   5.139   2.770
 6937W        W10988   4.261  10.027   0.171
 6938W        W10989   8.079  11.064  11.406
 6939W        W10990   0.280   6.743   9.644
 6940W        W10991   9.747   9.482   9.639
 6941W        W10992   7.338   2.447  10.405
 6942W        W10993   5.278   4.329   3.158
 6943W        W10994   2.664  11.340   9.867
 6944W        W10995   3.455   0.997  10.875
 6945W        W10996   1.654   5.714   8.995
 6946W        W10997   1.657   4.034   9.128
 6947W        W10998   8.421   9.243   1.431
 6948W        W10999   3.402   4.704   1.508
 6949W        W11000   1.599   6.863   1.195
 6950W        W11001   6.795   8.816   9.931
 6951W        W11002   9.839   9.474   1.209
 6952W        W11003   9.018   9.971   1.433
 6953W        W11004   3.129   3.827   2.330
 6954W        W11005   7.366   2.661  10.862
 6955W        W11006   8.449   5.233  10.447
 6956W        W11007   8.360   8.550   0.881
 6957W        W11008   7.484   5.656   0.458
 6958W        W11009  11.357   0.321   3.473
 6959W        W11010   8.032   0.728   1.344
 6960W        W11011   0.444   4.012  10.886
 6961W        W11012  10.903   2.464  10.959
 6962W        W11013   6.531   7.649   9.630
 6963W        W11014   4.295   1.348   8.947
 6964W        W11015   6.082   5.032   9.582
 6965W        W11016   5.255   1.654   1.219
 6966W        W11017   5.805  10.016   9.085
 6967W        W11018   6.354  11.425  10.442
 6968W        W11019   4.369   5.614   1.363
 6969W        W11020   8.848   0.961  11.940
 6970W        W11021   3.344   2.199   8.758
 6971W        W11022   9.922   5.971   8.839
 6972W        W11023   7.516   1.704  10.957
 6973W        W11024   3.800  11.423   9.997
 6974W        W11025  10.248   5.328  10.996
 6975W        W11026   7.482   1.316   1.914
 6976W        W11027   9.830   7.484   2.282
 6977W        W11028   5.530   8.536  11.995
 6978W        W11029   5.794  11.029   9.685
 6979W        W11030   6.191   4.113   9.923
 6980W        W11031   5.497  11.424  11.750
 6981W        W11032   8.537   0.805   0.703
 6982W        W11033   5.734   8.904   9.071
 6983W        W11034   9.556  11.276   9.778
 6984W        W11035   2.783   0.701   3.157
 6985W        W11036   4.529   9.268  10.235
 6986W        W11037   6.650   5.172  11.054
 6987W        W11038   4.776   3.280   2.302
 6988W        W11039   2.452   5.171   9.947
 6989W        W11040  11.252   6.518   1.854
 6990W        W11041   2.868   1.940   2.173
 6991W        W11042   3.718   6.236  10.177
 6992W        W11043  11.277   7.371  10.137
 6993W        W11044   4.714  11.405   3.436
 6994W        W11045  10.310   2.056   1.199
 6995W        W11046   9.534   0.429   8.970
 6996W        W11047   8.323   0.691   9.823
 6997W        W11048   4.018  10.270   3.839
 6998W        W11049   1.212   4.555  11.702
 6999W        W11050   5.113   7.118   9.926
 7000W        W11051   6.330  11.157   0.646
 7001W        W11052   2.668   1.379  11.767
 7002W        W11053  10.334   9.517   8.469
 7003W        W11054   9.109   2.853   8.894
 7004W        W11055   1.893   0.102   8.974
 7005W        W11056   7.557   1.019   8.930
 7006W        W11057   3.798   2.881  11.840
 7007W        W11058   6.942   4.062   9.465
 7008W        W11059   2.705   2.951  10.074
 7009W        W11060   0.288   4.035   9.895
 7010W        W11061  10.197   1.912   0.731
 7011W        W11062   1.829  10.807   3.134
 7012W        W11063   8.986   4.129  10.682
 7013W        W11064   2.098   6.337   3.469
 7014W        W11065   2.776  11.236   1.659
 7015W        W11066  10.301   5.711   0.368
 7016W        W11067  10.827   1.342   1.548
 7017W        W11068   9.901   1.184   0.412
 7018W        W11069   1.031   7.045   0.457
 7019W        W11070   0.932   5.017   2.771
 7020W        W11071   7.288   7.152  10.574
 7021W        W11072  11.429   1.030   0.907
 7022W        W11073   2.910  11.299   0.128
 7023W        W11074   5.782   6.670   2.244
 7024W        W11075   1.871   0.863  11.290
 7025W        W11076   4.040   8.395  11.215
 7026W        W11077   7.355   2.351   0.295
 7027W        W11078   0.851   4.661   0.465
 7028W        W11079   1.333   9.811   8.852
 7029W        W11080   8.648   2.939   9.128
 7030W        W11081   6.706   9.008   3.409
 7031W        W11082   4.295   5.649   0.843
 7032W        W11083   6.047   3.708  10.710
 7033W        W11084   5.523   6.294   1.168
 7034W        W11085   4.973   3.660   8.662
 7035W        W11086   5.986   9.972   9.581
 7036W        W11087   6.487  10.900   1.811
 7037W        W11088  11.297   1.705   2.661
 7038W        W11089   7.619   2.776   0.428
 7039W        W11090   0.316   8.119   2.217
 7040W        W11091   9.052   4.661   9.100
 7041W        W11092   1.400  10.809   8.826
 7042W        W11093   7.825   0.219   2.219
 7043W        W11094   3.402   8.978   0.542
 7044W        W11095   7.972   3.653   0.785
 7045W        W11096   5.123   9.764  10.099
 7046W        W11097   8.838   0.892   1.956
 7047W        W11098  10.115  11.169   2.792
 7048W        W11099   5.665   1.294   3.476
 7049W        W11100   6.002   8.915  11.498
 7050W        W11101   5.638   4.684   2.432
 7051W        W11102   8.391   0.776   0.201
 7052W        W11103   8.015   5.809   3.658
 7053W        W11104   0.634   0.911   9.052
 7054W        W11105   2.845   4.210  11.711
 7055W        W11106  11.210   5.987   2.817
 7056W        W11107   7.500   8.048   1.571
 7057W        W11108   5.352   0.321  10.500
 7058W        W11109   5.688   6.581   9.142
 7059W        W11110   7.880   7.859   2.091
 7060W        W11111   8.890  10.417  10.333
 7061W        W11112   7.920  10.761  11.780
 7062W        W11113  10.990   0.305   0.508
 7063W        W11114   3.539   4.002  10.589
 7064W        W11115  10.193   1.444   0.939
 7065W        W11116   9.993   6.514  10.419
 7066W        W11117   4.186   2.729   3.487
 7067W        W11118   6.607   1.788   8.928
 7068W        W11119   5.716   8.180   9.502
 7069W        W11120   3.202   9.373   1.802
 7070W        W11121   7.554  11.451   1.193
 7071W        W11122   1.802   8.688   3.229
 7072W        W11123   7.335   8.342  11.792
 7073W        W11124   6.803  10.366  11.284
 7074W        W11125   0.848   8.533  10.782
 7075W        W11126   5.729  11.452   0.236
 7076W        W11127   6.738   6.337  11.764
 7077W        W11128   9.734   8.237   3.665
 7078W        W11129   5.761   8.819   0.964
 7079W        W11130  10.527   5.539   0.842
 7080W        W11131   9.113  10.457   3.245
 7081W        W11132   7.894  10.977   9.650
 7082W        W11133   6.640  10.893   9.235
 7083W        W11134   2.453   7.053  10.334
 7084W        W11135  10.752   0.334   0.051
 7085W        W11136   6.668   9.103  10.861
 7086W        W11137   4.068   2.835   2.037
 7087W        W11138   8.147   9.885   1.371
 7088W        W11139   5.090   4.506   2.238
 7089W        W11140   0.862   4.155   1.699
 7090W        W11141   6.900   2.510   9.991
 7091W        W11142   2.655   4.968  10.394
 7092W        W11143   8.287   0.362  11.868
 7093W        W11144   7.632   9.035   9.192
 7094W        W11145   3.719   5.752   0.182
 7095W        W11146  10.355   6.090   3.256
 7096W        W11147   0.013  10.804   1.383
 7097W        W11148   4.710   0.334   9.922
 7098W        W11149   5.990   3.383   8.551
 7099W        W11150   8.408  10.531   0.915
 7100W        W11151   4.740   4.136   0.443
 7101W        W11152  11.491   1.825   1.185
 7102W        W11153  10.817   7.345   2.603
 7103W        W11154   5.550   9.418   8.992
 7104W        W11155   1.425   9.144   0.174
 7105W        W11156   9.402   0.477  10.356
 7106W        W11157   2.643   7.055  11.227
 7107W        W11158   2.851  10.934  11.758
 7108W        W11159   2.147   7.350   9.405
 7109W        W11160   1.680   9.600   0.770
 7110W        W11161   0.956  10.123  11.021
 7111W        W11162   9.981   2.858  11.671
 7112W        W11163   2.357   1.550   9.617
 7113W        W11164   8.591   3.367   1.624
 7114W        W11165   0.152  10.516   2.795
 7115W        W11166  11.408   8.456   2.264
 7116W        W11167   8.462   7.093   9.403
 7117W        W11168   5.228   1.647   2.677
 7118W        W11169   9.854   6.131   3.100
 7119W        W11170   7.958   6.972   3.123
 7120W        W11171   6.986   6.595   8.783
 7121W        W11172   1.764   6.471   0.903
 7122W        W11173   6.527   1.833  10.692
 7123W        W11174   2.726   5.751  10.738
 7124W        W11175   6.068  11.298  10.847
 7125W        W11176   1.138   5.729  10.038
 7126W        W11177   1.270   8.856  10.001
 7127W        W11178   5.067   2.974   0.903
 7128W        W11179   0.744   6.500  11.345
 7129W        W11180   8.476   1.140   1.632
 7130W        W11181   7.851   7.415   2.354
 7131W        W11182   2.807   2.573   3.346
 7132W        W11183   5.560   1.341  11.836
 7133W        W11184   2.028   7.675  11.431
 7134W        W11185   8.438   0.741  11.157
 7135W        W11186   0.457   6.727  10.527
 7136W        W11187   1.946  11.125   1.160
 7137W        W11188   0.257  11.096  10.264
 7138W        W11189   4.024   4.549   9.535
 7139W        W11190  10.888   9.035   0.023
 7140W        W11191   5.128   5.572  11.761
 7141W        W11192   9.846   5.271   3.045
 7142W        W11193   6.611   9.590   8.480
 7143W        W11194  10.041   1.785   9.777
 7144W        W11195   4.693   5.720   0.533
 7145W        W11196   1.344   8.386  10.195
 7146W        W11197   8.383  11.285   9.281
 7147W        W11198   3.142   1.012  10.091
 7148W        W11199   8.696   5.863   8.227
 7149W        W11200   3.562   4.171   9.196
 7150W        W11201   2.353  10.043  10.881
 7151W        W11202   1.765   5.025   9.393
 7152W        W11203   8.068   6.007  10.235
 7153W        W11204   6.960   0.956   2.126
 7154W        W11205   5.211   0.849   2.953
 7155W        W11206   4.598   3.206   0.800
 7156W        W11207   3.491   0.034  11.408
 7157W        W11208   8.048   0.065  11.391
 7158W        W11209   4.595   0.326   8.559
 7159W        W11210   8.512   7.643   0.392
 7160W        W11211  10.326   2.707   1.369
 7161W        W11212   8.571   1.178  11.369
 7162W        W11213   5.304  11.354   3.065
 7163W        W11214   4.870   0.671   3.275
 7164W        W11215  10.058   8.468   9.400
 7165W        W11216   4.131   1.868   8.744
 7166W        W11217   5.214   8.260   1.278
 7167W        W11218   3.325  10.810   2.264
 7168W        W11219   5.121   9.111   1.511
 7169W        W11220   6.776  10.932   0.103
 7170W        W11221   1.619   8.995  10.877
 7171W        W11222  11.417   1.839  11.692
 7172W        W11223   2.609   5.732   1.359
 7173W        W11224   8.604   4.085   0.490
 7174W        W11225   3.347   5.208   1.457
 7175W        W11226   6.894   4.572  11.241
 7176W        W11227  10.833   2.722   0.746
 7177W        W11228   6.520  11.142   3.058
 7178W        W11229   5.094   3.078  11.061
 7179W        W11230   9.416  10.875   0.109
 7180W        W11231   3.781   7.976  10.500
 7181W        W11232   7.127   7.064   0.065
 7182W        W11233   1.469   8.492   9.176
 7183W        W11234   3.863   1.861   1.295
 7184W        W11235   1.190   6.730  11.752
 7185W        W11236   5.178   1.420   0.751
 7186W        W11237   4.727   8.669   1.926
 7187W        W11238   3.317   8.788   8.637
 7188W        W11239   1.288   4.664   0.192
 7189W        W11240   7.226   8.401  10.791
 7190W        W11241   0.669   1.493  10.404
 7191W        W11242   2.637   8.655   1.233
 7192W        W11243   7.037   1.684  10.327
 7193W        W11244   5.055  10.782   0.512
 7194W        W11245   2.659   2.341   2.463
 7195W        W11246  10.779   4.243   2.833
 7196W        W11247   4.660   6.099   1.842
 7197W        W11248   8.801   3.660   1.230
 7198W        W11249   5.519   3.280   2.692
 7199W        W11250   1.813   5.525   9.444
 7200W        W11251   4.457   2.161   2.868
 7201W        W11252   6.166   3.172   8.967
 7202W        W11253   6.566   5.670   1.740
 7203W        W11254   3.595  11.252  10.960
 7204W        W11255   3.372   7.144  10.475
 7205W        W11256   3.807   2.640  10.354
 7206W        W11257  11.431   4.371   9.248
 7207W        W11258   9.458   5.018   0.404
 7208W        W11259   6.558   5.693  11.257
 7209W        W11260   8.656   6.656   8.713
 7210W        W11261   0.596   1.255   9.910
 7211W        W11262   4.284   4.565  10.815
 7212W        W11263   1.059   7.885   3.367
 7213W        W11264   4.161   2.545  11.953
 7214W        W11265   5.763   7.513   8.896
 7215W        W11266   8.097   3.695   9.603
 7216W        W11267   0.393   4.883  11.750
 7217W        W11268   0.853   9.033  10.626
 7218W        W11269   6.968   0.842   2.623
 7219W        W11270   0.202   7.647  10.083
 7220W        W11271   3.811   2.094  11.423
 7221W        W11272   7.030  11.467   2.327
 7222W        W11273   9.119   3.319   2.790
 7223W        W11274   4.081   1.711   9.235
 7224W        W11275   9.422   2.429   9.694
 7225W        W11276   5.189   6.732   9.122
 7226W        W11277   6.141   6.192   9.400
 7227W        W11278   0.232   6.606   0.043
 7228W        W11279   2.265   0.205   1.023
 7229W        W11280   5.509  10.276  10.759
 7230W        W11281   4.964   0.207   3.130
 7231W        W11282   2.200   1.963   3.189
 7232W        W11283   0.764  11.197  11.777
 7233W        W11284   7.993  10.934   2.874
 7234W        W11285   8.683   1.341   0.756
 7235W        W11286   0.537   9.726   0.554
 7236W        W11287   7.033   7.540   9.560
 7237W        W11288   0.108   5.267   0.084
 7238W        W11289   4.674   6.157  11.234
 7239W        W11290   3.847  10.969  11.919
 7240W        W11291   4.577   7.559  10.058
 7241W        W11292   8.334   9.818   3.618
 7242W        W11293   3.601   1.324  10.136
 7243W        W11294   2.758   9.932   2.022
 7244W        W11295   2.155   5.118  10.342
 7245W        W11296   1.775   3.562  11.449
 7246W        W11297   8.546   8.874   9.390
 7247W        W11298   6.520   7.100   1.956
 7248W        W11299   2.624   0.931   9.961
 7249W        W11300   2.672   1.832   2.646
 7250W        W11301   0.241   0.005   1.904
 7251W        W11302   4.162   3.755  10.314
 7252W        W11303   3.691   6.112   8.322
 7253W        W11304   3.244   4.711  10.097
 7254W        W11305   0.391   6.657   1.112
 7255W        W11306   0.762   3.159  11.018
 7256W        W11307   8.619   8.912  11.008
 7257W        W11308   1.720   8.983  11.809
 7258W        W11309   8.369   1.108   1.111
 7259W        W11310   2.558   5.624   8.731
 7260W        W11311   7.431   0.482   2.993
 7261W        W11312   2.712   8.857  10.046
 7262W        W11313   4.774   2.472  11.473
 7263W        W11314  10.911   2.981   2.534
 7264W        W11315   3.469  10.554   0.456
 7265W        W11316   6.235   5.513  11.757
 7266W        W11317   7.520   8.100  11.141
 7267W        W11318   8.853   8.507   0.859
 7268W        W11319   8.155   6.375   1.322
 7269W        W11320  10.003   0.309   9.182
 7270W        W11321   9.745   7.903   3.267
 7271W        W11322   5.099   8.257  11.961
 7272W        W11323   1.754   2.660   8.910
 7273W        W11324  10.350   8.879   2.742
 7274W        W11325   3.697   4.223   8.698
 7275W        W11326  10.356   2.173  11.381
 7276W        W11327   6.259  10.387   9.727
 7277W        W11328   2.336   3.830   8.633
 7278W        W11329   3.805   9.731   0.204
 7279W        W11330   4.171   0.386   2.447
 7280W        W11331  10.376   1.796   1.823
 7281W        W11332  10.962   2.594   2.130
 7282W        W11333   1.855   7.737   9.661
 7283W        W11334   0.415   0.415   1.563
 7284W        W11335   9.098   2.762  11.313
 7285W        W11336  10.837   6.147   9.247
 7286W        W11337   2.227   6.669   1.653
 7287W        W11338  10.250   7.917   3.146
 7288W        W11339  10.894   4.651  11.820
 7289W        W11340   6.772   5.842   1.265
 7290W        W11341   0.821   2.903  10.188
 7291W        W11342   2.730   9.925   9.990
 7292W        W11343  11.257   9.489   9.025
 7293W        W11344   8.950   2.574   3.278
 7294W        W11345   0.976   2.825  10.685
 7295W        W11346   7.512  11.304   2.217
 7296W        W11347   5.704   4.065   4.079
 7297W        W11348   0.907  11.377   0.505
 7298W        W11349   1.192   4.169   0.992
 7299W        W11350   8.461   0.957   9.417
 7300W        W11351  11.166   1.683   3.657
 7301W        W11352   3.705   1.280   1.920
 7302W        W11353   2.290   9.362  11.543
 7303W        W11354   7.077   1.993  11.349
 7304W        W11355   1.734   7.839   0.995
 7305W        W11356   9.098  10.846   1.304
 7306W        W11357  10.122  11.044  11.378
 7307W        W11358   1.366   4.107  11.007
 7308W        W11359   4.192   4.693   1.806
 7309W        W11360  10.523   8.425   1.849
 7310W        W11361   2.349   3.428   3.691
 7311W        W11362   6.738   1.362   3.327
 7312W        W11363   1.548  10.496   0.903
 7313W        W11364   5.468   8.396   0.850
 7314W        W11365   0.367  10.405  11.423
 7315W        W11366   5.005  11.056   2.030
 7316W        W11367   1.036   7.488   1.289
 7317W        W11368   2.027   5.152   1.241
 7318W        W11369   0.489   2.650   1.004
 7319W        W11370   5.642   4.674   2.978
 7320W        W11371   4.523   3.241   9.020
 7321W        W11372   9.873   4.232   0.901
 7322W        W11373   3.884   8.364  11.692
 7323W        W11374   4.239  10.576   1.952
 7324W        W11375   8.845   2.323  11.423
 7325W        W11376   6.212   9.245   0.281
 7326W        W11377   0.311   5.171   0.663
 7327W        W11378   5.669   2.801  10.504
 7328W        W11379   0.455  10.989  10.746
 7329W        W11380   0.475   2.154   9.904
 7330W        W11381   0.493   6.716   2.122
 7331W        W11382  10.408   1.974   9.070
 7332W        W11383   6.905   6.049  11.375
 7333W        W11384   9.046   0.324   1.353
 7334W        W11385   2.736   6.203   0.458
 7335W        W11386  11.361  10.241   0.276
 7336W        W11387   9.055   2.156   2.139
 7337W        W11388   1.186   7.910   2.353
 7338W        W11389   3.324   5.086  11.910
 7339W        W11390   6.499   4.512  10.510
 7340W        W11391   9.295   0.564   0.080
 7341W        W11392   1.767   9.077   9.251
 7342W        W11393   3.338   1.750   8.480
 7343W        W11394  10.045   0.969   0.850
 7344W        W11395  10.012   2.389   0.800
 7345W        W11396   0.695  11.245   9.506
 7346W        W11397   8.665   6.112   8.668
 7347W        W11398   7.893   4.290   9.808
 7348W        W11399   8.994  10.176  11.928
 7349W        W11400   6.961   0.848   9.739
 7350W        W11401   7.956   4.513  10.266
 7351W        W11402   9.626   2.913   8.951
 7352W        W11403  10.433   0.932   2.305
 7353W        W11404  11.324   6.150   9.450
 7354W        W11405   5.823   2.295   1.194
 7355W        W11406   6.549   0.225   2.383
 7356W        W11407   8.250   7.888   9.566
 7357W        W11408   8.049   7.163  11.993
 7358W        W11409   7.958  11.231   1.449
 7359W        W11410   2.784   4.982   0.726
 7360W        W11411   4.965   7.054   9.444
 7361W        W11412   4.679   4.771   2.025
 7362W        W11413   1.791   2.325   0.970
 7363W        W11414   0.325   5.776  10.323
 7364W        W11415   2.862   3.704   0.484
 7365W        W11416   4.987   1.773   8.772
 7366W        W11417  10.689   6.808   9.914
 7367W        W11418   2.260   0.281   0.511
 7368W        W11419   4.155   4.862  10.397
 7369W        W11420   1.989   5.426   0.792
 7370W        W11421   6.071   6.487  10.681
 7371W        W11422   8.766   9.444   0.581
 7372W        W11423   9.943   5.664   2.492
 7373W        W11424  10.342   7.442   0.673
 7374W        W11425   1.469  11.383  10.438
 7375W        W11426  10.709   9.633   0.668
 7376W        W11427   8.618   2.562   1.043
 7377W        W11428   4.280   9.946  11.168
 7378W        W11429   8.766   5.924  10.279
 7379W        W11430   8.431   3.840   0.903
 7380W        W11431   2.097   8.071   0.739
 7381W        W11432  11.151   3.580   3.305
 7382W        W11433   7.547  10.549   2.717
 7383W        W11434   9.001   8.562   2.288
 7384W        W11435   0.962   6.915   2.229
 7385W        W11436   7.600  11.354  11.637
 7386W        W11437  10.364   8.913   1.387
 7387W        W11438   3.744   7.086   1.978
 7388W        W11439   0.568   3.674   1.332
 7389W        W11440   3.549   0.735   9.932
 7390W        W11441   0.586   9.138   2.221
 7391W        W11442  11.409   8.629  10.880
 7392W        W11443   7.247   2.786   2.800
 7393W        W11444   8.697   8.374   1.515
 7394W        W11445   3.696   3.638   9.363
 7395W        W11446   4.727   5.702  11.008
 7396W        W11447   5.337   7.258   9.125
 7397W        W11448   7.421   0.558   2.486
 7398W        W11449   3.238   3.166   9.912
 7399W        W11450   9.741   0.424   3.150
 7400W        W11451   2.407   9.924   3.417
 7401W        W11452   7.829  10.591  10.583
 7402W        W11453   7.224   1.309   3.229
 7403W        W11454   1.381   0.235   1.425
 7404W        W11455   4.475   8.475   1.124
 7405W        W11456   5.730   2.804  11.547
 7406W        W11457   1.166   1.022   0.353
 7407W        W11458   6.561   8.132   1.877
 7408W        W11459   2.815   2.703   0.359
 7409W        W11460   9.471   1.948   9.530
 7410W        W11461   3.588   7.019  11.524
 7411W        W11462   0.752   6.063   9.471
 7412W        W11463  10.265   2.924  11.021
 7413W        W11464   3.582   3.194   9.081
 7414W        W11465   2.057   0.906   3.642
 7415W        W11466   5.491   7.553  11.933
 7416W        W11467  11.337   2.711   0.776
 7417W        W11468   6.534   6.653  10.222
 7418W        W11469   7.435  10.232  10.499
 7419W        W11470   6.096   5.078   1.542
 7420W        W11471   3.598   1.805  11.856
 7421W        W11472   1.813   3.597   0.386
 7422W        W11473   5.084   4.225   1.359
 7423W        W11474   3.223   4.695   2.000
 7424W        W11475   6.098   7.743   3.675
 7425W        W11476   7.548   4.502   9.499
 7426W        W11477   5.404   9.054   0.206
 7427W        W11478  10.874   5.596   1.705
 7428W        W11479   8.597   8.886   2.213
 7429W        W11480   9.318   3.647   1.315
 7430W        W11481   8.223   8.152  11.758
 7431W        W11482   2.408   7.420   1.493
 7432W        W11483   9.078   2.687   9.387
 7433W        W11484   2.356   9.983   9.008
 7434W        W11485   6.756   4.233   0.490
 7435W        W11486   8.917   1.026   0.441
 7436W        W11487   9.904  11.251   0.226
 7437W        W11488   5.926  10.658  11.416
 7438W        W11489   4.252   1.366   0.433
 7439W        W11490   9.967  10.334   9.439
 7440W        W11491   2.868   4.544   0.478
 7441W        W11492   8.636   2.552   1.544
 7442W        W11493   8.676   7.566   1.895
 7443W        W11494   3.707   8.026   3.175
 7444W        W11495   9.940   3.310   2.404
 7445W        W11496   0.432   5.073   8.938
 7446W        W11497   0.365   8.581   2.500
 7447W        W11498   9.371  10.380   1.862
 7448W        W11499  11.112   4.595   0.299
 7449W        W11500   2.144   3.238   0.184
 7450W        W11501   5.242   1.223  11.448
 7451W        W11502   9.818   2.265   3.432
 7452W        W11503   4.661  10.409  11.803
 7453W        W11504   5.644   4.793  10.543
 7454W        W11505   7.137   3.883   3.063
 7455W        W11506   4.306   4.704   9.944
 7456W        W11507   0.481   2.686   9.383
 7457W        W11508   9.602   5.703   2.878
 7458W        W11509  10.019   7.471   3.307
 7459W        W11510   2.053   8.755   8.467
 7460W        W11511   1.804   6.462   1.433
 7461W        W11512   4.039   5.945   1.167
 7462W        W11513   5.173   7.836  11.577
 7463W        W11514   2.187  11.304   9.997
 7464W        W11515   1.985   2.659  11.293
 7465W        W11516   8.565   1.582   1.876
 7466W        W11517   0.147   9.422   9.450
 7467W        W11518   9.998   6.160   0.206
 7468W        W11519   3.644   8.430  10.781
 7469W        W11520   6.342  10.746   0.324
 7470W        W11521  10.335   9.964   1.779
 7471W        W11522   7.644   0.020   1.713
 7472W        W11523   5.098   8.611  10.390
 7473W        W11524   8.152   3.876   0.354
 7474W        W11525   8.932   3.262  11.450
 7475W        W11526   7.640   5.608  11.071
 7476W        W11527   6.719   3.667  11.381
 7477W        W11528   8.152   0.443   9.413
 7478W        W11529   4.621   2.490   3.229
 7479W        W11530  10.062   6.166  10.815
 7480W        W11531   2.376   3.375   8.934
 7481W        W11532   8.454   4.999   9.995
 7482W        W11533  11.379   4.829   8.605
 7483W        W11534   8.570   8.341  10.923
 7484W        W11535   0.762   4.871   3.473
 7485W        W11536  10.192   5.805  11.483
 7486W        W11537   0.476   4.708   2.881
 7487W        W11538   0.368   8.523   3.012
 7488W        W11539   8.442  11.230   1.706
 7489W        W11540   8.998   5.050  11.185
 7490W        W11541   7.851   4.525  11.759
 7491W        W11542   7.508   6.969   3.412
 7492W        W11543   8.955   9.136   2.482
 7493W        W11544   5.117   4.036   9.013
 7494W        W11545   8.941   5.672   2.311
 7495W        W11546  11.225  10.123   1.919
 7496W        W11547   5.012  10.061  10.534
 7497W        W11548   4.632   7.022   1.573
 7498W        W11549   1.695   3.078  11.274
 7499W        W11550   0.868  10.416   9.978
 7500W        W11551   6.040   4.920   2.058
 7501W        W11552   2.259   1.156   0.015
 7502W        W11553   2.716   5.461  10.312
 7503W        W11554  10.984  10.117   3.154
 7504W        W11555   7.199   8.371   3.373
 7505W        W11556  11.493   0.273   0.496
 7506W        W11557   6.396   0.239   9.280
 7507W        W11558   3.756   2.644   1.601
 7508W        W11559   6.956   7.978   3.110
 7509W        W11560   9.847   1.026   8.634
 7510W        W11561   5.253   3.590  11.491
 7511W        W11562   6.450   0.986   1.351
 7512W        W11563   2.000   5.087   2.136
 7513W        W11564   4.495   6.522   1.613
 7514W        W11565   0.915   2.130   3.226
 7515W        W11566   2.811   6.468   9.265
 7516W        W11567   5.023   1.234  11.946
 7517W        W11568   6.940   5.680  11.727
 7518W        W11569   9.980   1.362   9.529
 7519W        W11570   0.814   2.398   2.181
 7520W        W11571   6.484   8.104   3.325
 7521W        W11572   5.028   3.496   3.999
 7522W        W11573   8.319   2.990  10.848
 7523W        W11574   9.429   7.614   0.476
 7524W        W11575   7.478  10.828   3.142
 7525W        W11576   6.469   6.136   1.529
 7526W        W11577   6.091   0.682  11.777
 7527W        W11578   8.114   3.297   0.433
 7528W        W11579   8.542   6.590   2.710
 7529W        W11580  11.327   2.304   1.868
 7530W        W11581   9.089   5.212   0.683
 7531W        W11582   5.519  10.953  11.492
 7532W        W11583   0.278   8.528   0.036
 7533W        W11584   9.524   8.667   0.292
 7534W        W11585   6.464   5.905   9.109
 7535W        W11586   5.298   7.456   8.651
 7536W        W11587   4.228   6.211  10.263
 7537W        W11588   5.121   3.139   3.628
 7538W        W11589   8.287   3.719   1.386
 7539W        W11590   8.399   9.741   2.110
 7540W        W11591   6.180  10.862  11.820
 7541W        W11592   4.294   9.128   0.336
 7542W        W11593   1.254  11.414   1.801
 7543W        W11594   1.762   3.168   8.621
 7544W        W11595   3.758   9.277   1.919
 7545W        W11596   3.141   4.117  10.272
 7546W        W11597   2.646   9.004   9.049
 7547W        W11598   4.106  11.360   9.406
 7548W        W11599   6.388  10.073  11.402
 7549W        W11600   4.706   0.096   2.362
 7550W        W11601   1.290   7.024   2.938
 7551W        W11602   7.645   9.553   1.971
 7552W        W11603   7.379  10.748  10.401
 7553W        W11604  10.363   0.426   2.350
 7554W        W11605   0.018   4.668   2.647
 7555W        W11606   5.428   6.024  11.652
 7556W        W11607   7.393   1.644   9.592
 7557W        W11608   8.182   3.307   1.111
 7558W        W11609   6.146   1.350   1.669
 7559W        W11610   5.253   0.917   0.730
 7560W        W11611   2.560   7.025   9.445
 7561W        W11612   2.995   5.839   3.137
 7562W        W11613   2.652  10.686  10.438
 7563W        W11614   6.260   2.868   9.467
 7564W        W11615   0.468   6.171   0.276
 7565W        W11616   5.015   8.378   9.952
 7566W        W11617   5.772   9.560   0.247
 7567W        W11618   7.922   7.658  10.863
 7568W        W11619   2.625   4.231   8.879
 7569W        W11620   8.571  11.287   0.669
 7570W        W11621   3.152   5.888   0.396
 7571W        W11622   2.489  10.360   2.039
 7572W        W11623   9.991   4.181  11.529
 7573W        W11624   6.731   8.533   3.197
 7574W        W11625  11.286   1.728  10.307
 7575W        W11626   0.831  11.015   2.411
 7576W        W11627   6.986  10.941  10.133
 7577W        W11628   6.638   4.241  10.093
 7578W        W11629  10.242   4.600  10.396
 7579W        W11630   8.124   4.801   2.675
 7580W        W11631   1.300   7.548   2.700
 7581W        W11632   9.839   4.285  10.574
 7582W        W11633   2.831   3.670  10.947
 7583W        W11634   0.474   5.052   1.147
 7584W        W11635   9.031   6.860  10.442
 7585W        W11636   8.992   3.187   9.560
 7586W        W11637   9.305   4.096  11.995
 7587W        W11638  11.261   4.236  11.702
 7588W        W11639   5.036   3.816   9.566
 7589W        W11640   4.043   2.072   0.870
 7590W        W11641   8.979   7.865   0.348
 7591W        W11642   3.437   5.240  10.890
 7592W        W11643   7.432   3.255   0.403
 7593W        W11644   2.231   7.667   1.919
 7594W        W11645   3.888   1.736   0.405
 7595W        W11646   4.217   6.668  10.849
 7596W        W11647   3.607   6.599   1.741
 7597W        W11648  10.604   9.560   2.331
 7598W        W11649   9.608   6.433  11.660
 7599W        W11650   6.120   4.434   3.185
 7600W        W11651   9.428   7.016   2.792
 7601W        W11652   0.369  10.218   0.436
 7602W        W11653   2.305   7.970   0.289
 7603W        W11654   9.112   6.866   8.622
 7604W        W11655  10.769   1.977  10.986
 7605W        W11656   2.759   3.277  11.289
 7606W        W11657   6.004  10.440   3.181
 7607W        W11658   2.280   8.086   2.953
 7608W        W11659   1.289   1.819   2.805
 7609W        W11660   2.896   6.008   9.034
 7610W        W11661  10.959   3.532   0.418
 7611W        W11662   9.520   4.799   2.761
 7612W        W11663  10.910   4.135   8.501
 7613W        W11664   2.697  11.355  10.780
 7614W        W11665   4.715   8.419   9.542
 7615W        W11666   1.689   6.739  11.498
 7616W        W11667   9.774   5.671   3.381
 7617W        W11668   6.657   2.871   0.177
 7618W        W11669   7.393   4.559  11.993
 7619W        W11670  10.093   3.563  10.392
 7620W        W11671   6.102  10.884   1.436
 7621W        W11672   8.828   5.081   9.301
 7622W        W11673   9.968   0.731   2.222
 7623W        W11674  11.246   9.917  11.868
 7624W        W11675   7.697   3.219   2.484
 7625W        W11676   8.882   8.012   1.812
 7626W        W11677   8.236   8.597   9.053
 7627W        W11678   6.912  10.205   0.961
 7628W        W11679  10.301   4.132  11.922
 7629W        W11680   3.406   2.855  11.084
 7630W        W11681  10.991   9.952   9.028
 7631W        W11682   3.681  11.271   9.072
 7632W        W11683   8.515   5.074  11.396
 7633W        W11684   3.340   7.499   1.539
 7634W        W11685   5.048   8.688   2.424
 7635W        W11686   9.271   9.624   9.473
 7636W        W11687   2.489   9.111  10.883
 7637W        W11688   4.293   4.820  11.269
 7638W        W11689  11.351   7.216   3.627
 7639W        W11690   2.847   2.160   8.991
 7640W        W11691   0.289   0.337  11.264
 7641W        W11692  11.273   3.385   9.565
 7642W        W11693   5.582   2.355   8.726
 7643W        W11694  10.353   7.546  10.732
 7644W        W11695   1.304  10.911   1.796
 7645W        W11696   7.627   3.603   9.419
 7646W        W11697  10.985  10.581   3.451
 7647W        W11698   5.931   0.946   1.383
 7648W        W11699  11.338   9.846  10.403
 7649W        W11700   5.150   4.071   2.738
 7650W        W11701   6.580   0.684   0.918
 7651W        W11702   9.303   0.262  10.835
 7652W        W11703   6.109   1.875   1.298
 7653W        W11704   3.326   4.507   2.931
 7654W        W11705   7.590   7.620  11.360
 7655W        W11706  10.754  10.872   9.476
 7656W        W11707   4.362   9.079   9.767
 7657W        W11708   5.429   3.246  10.277
 7658W        W11709   4.371   1.815   1.232
 7659W        W11710  11.351   1.904   0.692
 7660W        W11711   1.307   8.832   3.336
 7661W        W11712   8.812   4.629   9.994
 7662W        W11713   0.503   7.929   0.233
 7663W        W11714   7.633   5.840   1.328
 7664W        W11715   5.157   7.576   2.747
 7665W        W11716   3.832   7.941   0.005
 7666W        W11717   3.164   4.983  10.528
 7667W        W11718   4.699   3.547   1.874
 7668W        W11719   0.105   3.594   3.559
 7669W        W11720   5.401   4.146   1.745
 7670W        W11721   5.686   7.603   0.409
 7671W        W11722   7.059  10.885   9.526
 7672W        W11723   1.631   8.497  11.914
 7673W        W11724  10.423   8.634   8.436
 7674W        W11725   8.348   5.068   9.504
 7675W        W11726   7.189   6.097  11.856
 7676W        W11727   6.157   4.442   2.219
 7677W        W11728   6.981   3.263  11.560
 7678W        W11729   0.478   0.290   9.595
 7679W        W11730   8.099   4.941   8.227
 7680W        W11731   3.195   7.626  11.572
 7681W        W11732   4.978   0.777  10.269
 7682W        W11733   1.820   5.614  10.340
 7683W        W11734   8.901   5.075   8.791
 7684W        W11735  11.385  11.004   2.808
 7685W        W11736   4.409   8.114   2.659
 7686W        W11737   1.405   3.811   0.677
 7687W        W11738   7.873  10.756  11.072
 7688W        W11739   5.537   5.168   3.110
 7689W        W11740   1.385   7.137   8.933
 7690W        W11741   9.860   6.063   9.395
 7691W        W11742   7.319   4.408   8.709
 7692W        W11743   5.594   3.107   8.413
 7693W        W11744   0.871   2.466   3.726
 7694W        W11745   5.003   1.501   3.476
 7695W        W11746   6.534   4.084   2.256
 7696W        W11747   8.330   2.943   0.787
 7697W        W11748   3.148   9.374   3.171
 7698W        W11749   8.650   4.880   3.016
 7699W        W11750   4.108   3.696   2.688
 7700W        W11751  11.072  10.534  10.302
 7701W        W11752   8.187   9.806  10.918
 7702W        W11753   2.433  10.425   0.371
 7703W        W11754   7.934   8.944   0.118
 7704W        W11755   4.086   3.710   9.699
 7705W        W11756   1.173   7.420  10.364
 7706W        W11757   2.643   0.553   1.196
 7707W        W11758   9.957   4.990  11.264
 7708W        W11759   6.119  11.335   9.979
 7709W        W11760   7.469   2.212   9.610
 7710W        W11761   7.192   0.679   1.746
 7711W        W11762  11.443  11.057  11.096
 7712W        W11763   5.659   0.023   2.757
 7713W        W11764   5.184   5.042   1.541
 7714W        W11765   6.075   2.659  11.985
 7715W        W11766   0.522  11.495  10.500
 7716W        W11767   3.122   0.771  10.540
 7717W        W11768   7.080  10.677   1.169
 7718W        W11769   4.323   4.032  11.635
 7719W        W11770  11.461   9.364   9.941
 7720W        W11771   0.229   8.375   0.584
 7721W        W11772   2.389   2.942   0.545
 7722W        W11773   4.775   2.414  10.537
 7723W        W11774   0.399   4.343   2.233
 7724W        W11775   7.047   8.016   2.581
 7725W        W11776   5.734  10.065   2.950
 7726W        W11777   6.521   1.618   9.415
 7727W        W11778   1.447  10.771   9.858
 7728W        W11779   1.212   2.169   2.414
 7729W        W11780   0.993   6.257   9.936
 7730W        W11781  10.923   3.837  11.454
 7731W        W11782   4.752   8.793   3.250
 7732W        W11783   6.431   2.278   3.625
 7733W        W11784  10.681   1.235   0.938
 7734W        W11785   6.441   3.138   0.805
 7735W        W11786   5.568   7.338   9.990
 7736W        W11787   4.193   8.666   0.050
 7737W        W11788   2.178  10.504  10.510
 7738W        W11789  10.516   3.142   1.158
 7739W        W11790   1.094   2.701  11.875
 7740W        W11791  10.262   5.549   3.471
 7741W        W11792   5.162   5.627  10.059
 7742W        W11793   9.863   3.131  10.089
 7743W        W11794   5.241   2.091   9.061
 7744W        W11795   0.126   0.945   9.112
 7745W        W11796  10.004   6.458   9.050
 7746W        W11797  11.360   6.661   9.367
 7747W        W11798   2.568   4.583   3.421
 7748W        W11799   9.913   0.682   1.259
 7749W        W11800   6.938   7.915   8.914
 7750W        W11801   2.668   3.813   3.518
 7751W        W11802   2.094   9.312   0.793
 7752W        W11803   0.172   4.339  10.280
 7753W        W11804   0.566  11.306   3.253
 7754W        W11805   0.732   2.590   3.236
 7755W        W11806   5.295   0.869   1.960
 7756W        W11807   8.087  10.490   3.101
 7757W        W11808   5.141   7.545   1.797
 7758W        W11809  10.373  10.876  10.056
 7759W        W11810   1.833   0.180   0.204
 7760W        W11811   5.027   7.377  11.819
 7761W        W11812  10.840   9.255   8.364
 7762W        W11813   1.286   4.794   1.710
 7763W        W11814   8.329   4.508   9.928
 7764W        W11815   1.844   5.343  11.939
 7765W        W11816  11.026   5.528   2.707
 7766W        W11817   8.566  11.320  10.706
 7767W        W11818   2.263   0.367   2.483
 7768W        W11819   9.870   8.470  10.824
 7769W        W11820   8.338   7.649   0.896
 7770W        W11821   5.525   9.204   1.872
 7771W        W11822  10.230   6.026   1.725
 7772W        W11823   9.772   8.875  10.356
 7773W        W11824   0.412   3.597  10.590
 7774W        W11825   0.360   6.568   0.570
 7775W        W11826   5.528   0.376   2.388
 7776W        W11827  10.850   7.306   9.867
 7777W        W11828   4.481   2.828   2.385
 7778W        W11829   2.251   6.553   0.650
 7779W        W11830   5.815   8.041  10.231
 7780W        W11831   1.973   3.204   1.457
 7781W        W11832   6.900   2.081   3.585
 7782W        W11833   3.106   1.786   1.747
 7783W        W11834   6.466   3.502   3.699
 7784W        W11835   1.708   8.426  10.969
 7785W        W11836   4.046   5.698  11.336
 7786W        W11837   2.131   1.349   2.434
 7787W        W11838   8.246   1.431   9.521
 7788W        W11839  11.081   9.024  10.040
 7789W        W11840  10.623  10.430  10.107
 7790W        W11841  10.973   3.783   9.326
 7791W        W11842  11.415   3.593   9.116
 7792W        W11843   2.788   7.359   0.754
 7793W        W11844   7.452   8.084   3.003
 7794W        W11845   3.296  11.128   3.119
 7795W        W11846   0.404   7.045   0.779
 7796W        W11847   0.891   0.312   0.816
 7797W        W11848   9.652  10.363   9.849
 7798W        W11849   8.640   3.538   2.644
 7799W        W11850   0.485   8.362  10.488
 7800W        W11851   5.617   9.143  11.226
 7801W        W11852   3.113   1.646  11.792
 7802W        W11853   9.687  10.086   0.424
 7803W        W11854   3.509   6.692  10.307
 7804W        W11855   6.917   4.089   8.907
 7805W        W11856   1.311   5.487   0.056
 7806W        W11857   5.852   0.282  11.573
 7807W        W11858   9.570  10.781   1.553
 7808W        W11859   5.236   2.741   9.455
 7809W        W11860   8.463   8.530  10.075
 7810W        W11861   7.735   4.897   3.605
 7811W        W11862   1.372   2.818   1.451
 7812W        W11863  10.622  11.049  11.418
 7813W        W11864  10.321  11.446   8.826
 7814W        W11865   8.028   7.385   9.542
 7815W        W11866  11.303   1.828   0.182
 7816W        W11867   8.022   5.506   1.261
 7817W        W11868   9.574   7.441   3.027
 7818W        W11869   5.499  11.165   0.811
 7819W        W11870   7.437   4.779  11.535
 7820W        W11871   7.654   2.856  11.322
 7821W        W11872   3.916   8.918   3.721
 7822W        W11873   4.760   2.911   9.584
 7823W        W11874   8.959   3.779   0.209
 7824W        W11875   0.850   4.775  11.965
 7825W        W11876   6.237   1.312   3.223
 7826W        W11877  10.544   2.284   0.764
 7827W        W11878  10.128  10.446   3.231
 7828W        W11879   0.690  11.304  10.027
 7829W        W11880   4.764   4.165   2.431
 7830W        W11881  10.307   9.333   0.472
 7831W        W11882   8.059   6.320   3.709
 7832W        W11883   6.762   9.129   2.901
 7833W        W11884   1.475  11.239   1.347
 7834W        W11885   5.327   5.165  10.681
 7835W        W11886  11.494   1.240   2.360
 7836W        W11887   8.509   7.684  10.279
 7837W        W11888   3.367   3.762  11.045
 7838W        W11889   0.620   5.454   8.626
 7839W        W11890   6.799   9.905   2.758
 7840W        W11891   0.624   8.083  10.900
 7841W        W11892   5.939   6.100   1.376
 7842W        W11893   8.581   4.146   8.752
 7843W        W11894   9.632   9.920   2.244
 7844W        W11895   8.651   5.485  10.041
 7845W        W11896   9.112   2.794  10.816
 7846W        W11897   8.065   5.333  10.775
 7847W        W11898  10.410   2.475   9.140
 7848W        W11899   2.689   1.940   9.782
 7849W        W11900   1.120   1.391  11.549
 7850W        W11901   3.618  10.735   9.013
 7851W        W11902   6.376   0.317   1.863
 7852W        W11903   7.094  10.406  10.850
 7853W        W11904   0.751   2.308  11.795
 7854W        W11905   7.957   6.907   0.423
 7855W        W11906  10.002   0.481   0.732
 7856W        W11907   7.053   7.009   3.169
 7857W        W11908   0.361   6.489  10.965
 7858W        W11909   4.083   6.694   8.984
 7859W        W11910   3.350   0.386   8.885
 7860W        W11911   8.162   5.603   3.195
 7861W        W11912   0.009   7.908   0.448
 7862W        W11913   2.310   3.328   9.983
 7863W        W11914   7.477   0.756   9.738
 7864W        W11915   9.142   1.226   1.685
 7865W        W11916  11.309   2.135  11.145
 7866W        W11917   5.660   6.527  11.025
 7867W        W11918   4.920   6.737  11.774
 7868W        W11919   5.628   9.016   1.421
 7869W        W11920   7.032   8.352  11.266
 7870W        W11921   0.574   4.061  10.383
 7871W        W11922   2.657   4.688   9.960
 7872W        W11923   8.603   1.149   3.610
 7873W        W11924   3.722   8.859  10.503
 7874W        W11925   9.019   0.283  10.029
 7875W        W11926   5.882   2.179   0.272
 7876W        W11927   2.467   6.560  10.487
 7877W        W11928   5.865   0.080  10.429
 7878W        W11929   0.333   9.889   9.644
 7879W        W11930   0.869   2.288   8.973
 7880W        W11931  11.442   3.624  10.898
 7881W        W11932   5.631   2.431   2.176
 7882W        W11933   5.957   3.135  10.788
 7883W        W11934   9.390  10.149  11.559
 7884W        W11935   9.911   8.240  11.300
 7885W        W11936   0.412   0.804   9.515
 7886W        W11937   4.667   9.043   2.273
 7887W        W11938   2.321   3.778  10.768
 7888W        W11939   7.752   1.027  10.508
 7889W        W11940  10.911  10.505  10.870
 7890W        W11941   0.187   9.962   1.764
 7891W        W11942   7.909   5.995   0.504
 7892W        W11943   3.077  10.488   9.047
 7893W        W11944  10.149   3.260   0.836
 7894W        W11945   3.330  10.993   9.381
 7895W        W11946   4.545   1.902   9.617
 7896W        W11947  10.964   5.882  10.771
 7897W        W11948   5.347   8.517   3.606
 7898W        W11949   0.525   2.716  11.059
 7899W        W11950   5.551   2.857   8.880
 7900W        W11951  10.237   0.825  11.590
 7901W        W11952  10.522   1.493   8.916
 7902W        W11953   8.183   5.087   1.885
 7903W        W11954   6.009   8.059  11.479
 7904W        W11955   7.596   9.390   9.986
 7905W        W11956   6.692   3.142   1.935
 7906W        W11957  10.686   3.605   3.531
 7907W        W11958   9.627   1.969  10.033
 7908W        W11959   8.900   0.005  11.021
 7909W        W11960   9.575   3.118   2.996
 7910W        W11961   4.154   9.566   8.536
 7911W        W11962   4.349   1.823   0.205
 7912W        W11963  10.433  11.076  10.527
 7913W        W11964   7.666   7.666   2.792
 7914W        W11965   6.362   6.121  11.459
 7915W        W11966   7.623   7.064   9.698
 7916W        W11967   3.601   6.614   1.225
 7917W        W11968  10.978   7.638   9.490
 7918W        W11969   8.618   2.780  11.519
 7919W        W11970   8.867  11.294   9.085
 7920W        W11971  10.291   4.593  11.360
 7921W        W11972   5.350   3.233   3.165
 7922W        W11973   8.928  11.387   1.662
 7923W        W11974   4.072   6.823   1.669
 7924W        W11975   9.809   6.165  11.265
 7925W        W11976   4.190   1.071   3.159
 7926W        W11977   4.068   9.096  11.810
 7927W        W11978   3.773   9.746   0.714
 7928W        W11979  10.966   2.394   9.705
 7929W        W11980   9.278   8.513   8.984
 7930W        W11981  10.039   7.137  11.540
 7931W        W11982   5.276   9.858  10.951
 7932W        W11983   2.645   4.914   0.220
 7933W        W11984   9.540  10.319  10.734
 7934W        W11985   6.581   7.197   4.050
 7935W        W11986   5.916   8.381  10.860
 7936W        W11987   1.316   4.225   3.191
 7937W        W11988   1.708   0.673   2.603
 7938W        W11989   8.659   1.210  10.289
 7939W        W11990   4.249   5.996   2.180
 7940W        W11991   3.293   9.573  10.589
 7941W        W11992  10.970   4.287   1.995
 7942W        W11993   8.991   0.833   3.475
 7943W        W11994   9.714   5.104   9.132
 7944W        W11995   6.703   1.781   1.926
 7945W        W11996   9.138   1.246   2.698
 7946W        W11997   2.797   8.087   0.376
 7947W        W11998   1.281   7.156   0.909
 7948W        W11999   4.944  10.731   8.517
 7949W        W12000  11.288   5.712   0.222
 7950W        W12001   1.263   2.223  11.711
 7951W        W12002   5.302   8.066   8.169
 7952W        W12003   5.781   9.078   2.834
 7953W        W12004   9.314   7.237  11.211
 7954W        W12005   3.528   4.608   9.502
 7955W        W12006  11.006   5.324   9.379
 7956W        W12007  11.366   6.785   8.867
 7957W        W12008   9.149  10.880  11.279
 7958W        W12009  10.583  10.930   0.859
 7959W        W12010  10.560   6.308   9.920
 7960W        W12011  10.425   8.855   0.570
 7961W        W12012   6.601   7.669   3.595
 7962W        W12013   5.047  10.968   1.007
 7963W        W12014   2.275   4.209   0.981
 7964W        W12015   8.126   3.286   2.146
 7965W        W12016  10.130   2.374  11.803
 7966W        W12017   9.088   1.249  10.565
 7967W        W12018   9.025   0.294   9.097
 7968W        W12019   4.702   7.477   2.503
 7969W        W12020   3.353  10.722   2.765
 7970W        W12021   7.556   1.928   1.471
 7971W        W12022   5.759  11.364  11.284
 7972W        W12023   5.633   2.288  10.244
 7973W        W12024   9.885   7.016  10.504
 7974W        W12025   5.935   3.273   9.411
 7975W        W12026   8.870   7.547   2.404
 7976W        W12027   9.411   7.159   1.327
 7977W        W12028   2.173   0.475   2.995
 7978W        W12029   2.838   1.561   1.335
 7979W        W12030   2.323   4.715   9.416
 7980W        W12031   9.171   8.298   9.416
 7981W        W12032   4.138   4.295   3.144
 7982W        W12033   9.549  11.326  10.742
 7983W        W12034   7.953   4.882   9.865
 7984W        W12035   1.279   6.496  10.763
 7985W        W12036   7.895   4.776   0.192
 7986W        W12037   2.026   7.093   1.360
 7987W        W12038   1.005   2.462  10.299
 7988W        W12039   0.836   0.901   2.703
 7989W        W12040   6.121   1.977   0.749
 7990W        W12041   2.730   6.098   2.294
 7991W        W12042  10.455   5.687   2.389
 7992W        W12043   9.934  10.429   0.732
 7993W        W12044   7.486   8.580  11.363
 7994W        W12045   4.465   2.509   1.952
 7995W        W12046  11.223  11.500   1.761
 7996W        W12047   9.572   0.995   9.087
 7997W        W12048   8.907   0.437   0.865
 7998W        W12049   1.386   6.137   1.457
 7999W        W12050   2.255   9.010   9.441
 8000W        W12051  10.496   8.119   0.956
 8001W        W12052   9.389  11.362   0.228
 8002W        W12053   6.603  10.450   1.981
 8003W        W12054   0.390   4.024  11.387
 8004W        W12055  10.297   5.450   7.856
 8005W        W12056  11.306   0.635   9.356
 8006W        W12057   1.809   7.191  11.281
 8007W        W12058   8.687   5.148   1.822
 8008W        W12059  10.048   5.516  10.152
 8009W        W12060   2.242   5.660   1.710
 8010W        W12061   4.129   4.570   4.058
 8011W        W12062   0.706   9.863   1.764
 8012W        W12063   9.332   6.709   1.564
 8013W        W12064   8.160   4.341  10.967
 8014W        W12065   6.018   5.388   3.107
 8015W        W12066   9.837   8.970   1.356
 8016W        W12067  10.134   0.799  11.063
 8017W        W12068   2.419   6.120   9.934
 8018W        W12069   6.095  10.320  11.747
 8019W        W12070   7.657   7.109  10.208
 8020W        W12071   9.402   0.845   3.059
 8021W        W12072   6.433   2.415   9.767
 8022W        W12073   7.640  10.368   2.197
 8023W        W12074   9.054   8.805   9.358
 8024W        W12075   8.626   3.355   0.849
 8025W        W12076   3.586   6.047  11.149
 8026W        W12077   7.048   2.763   3.271
 8027W        W12078   7.919   9.426   1.314
 8028W        W12079   0.319  10.021   2.709
 8029W        W12080   8.246  10.343   3.567
 8030W        W12081   1.820   1.169  10.857
 8031W        W12082   1.793   0.844  10.436
 8032W        W12083   5.139   4.458   8.721
 8033W        W12084   8.852  10.364   2.715
 8034W        W12085   0.877   6.230   3.424
 8035W        W12086   7.487   8.828  11.866
 8036W        W12087   5.985   2.036   3.710
 8037W        W12088   4.217  10.037   9.749
 8038W        W12089  11.333   0.762   0.472
 8039W        W12090   1.829   5.976   1.686
 8040W        W12091   6.405   2.883  10.789
 8041W        W12092   1.730   0.983   1.082
 8042W        W12093   0.346   7.208  10.294
 8043W        W12094   0.811   9.876   2.574
 8044W        W12095   8.413   5.528   0.284
 8045W        W12096   0.801   5.075   0.753
 8046W        W12097   6.407  10.343   2.860
 8047W        W12098   1.770   5.033   3.594
 8048W        W12099  11.083   2.637   3.550
 8049W        W12100   7.898   4.128  10.584
 8050W        W12101   9.335   5.327   8.606
 8051W        W12102   1.150   4.064   8.976
 8052W        W12103   9.441   5.591   2.339
 8053W        W12104   6.065  11.351  11.705
 8054W        W12105   0.861   6.862   0.926
 8055W        W12106   6.058   1.180  11.756
 8056W        W12107   8.187   1.427  10.433
 8057W        W12108   4.752   1.497   0.453
 8058W        W12109   3.693   2.178  10.589
 8059W        W12110   6.999   3.165   1.486
 8060W        W12111  11.011   2.315   3.125
 8061W        W12112   1.328   0.316  11.715
 8062W        W12113   0.864   4.267   0.152
 8063W        W12114   7.503   3.120   9.975
 8064W        W12115   9.853   7.184   9.461
 8065W        W12116  10.546   3.333  10.464
 8066W        W12117   0.830   7.506   0.294
 8067W        W12118   6.890   0.273   1.789
 8068W        W12119  11.070   8.091   2.202
 8069W        W12120   4.920   4.622   9.867
 8070W        W12121   4.314   1.287  11.495
 8071W        W12122  10.462   1.866  10.083
 8072W        W12123   1.196   7.046   3.469
 8073W        W12124   9.855   4.699  11.687
 8074W        W12125   3.129  10.511  11.631
 8075W        W12126   0.063   3.844  11.867
 8076W        W12127   3.807   6.616   3.872
 8077W        W12128   8.592   4.624   0.482
 8078W        W12129   1.898   1.765  11.467
 8079W        W12130   0.018  11.245   0.496
 8080W        W12131   1.228   3.251  10.850
 8081W        W12132   7.932   0.747  11.936
 8082W        W12133   9.599   7.681   9.458
 8083W        W12134   9.250   4.326   2.094
 8084W        W12135   6.104   1.286   9.492
 8085W        W12136   8.759   7.110   0.763
 8086W        W12137   4.945   1.218  11.019
 8087W        W12138   8.197   4.315   9.041
 8088W        W12139   8.865   0.307  10.550
 8089W        W12140   1.922  10.386  10.017
 8090W        W12141   5.497  10.529  11.198
 8091W        W12142   9.005   7.348   0.381
 8092W        W12143   8.276   9.541   0.524
 8093W        W12144   8.963   1.676  10.289
 8094W        W12145   0.392   5.093  11.248
 8095W        W12146   6.642  10.773   2.727
 8096W        W12147   5.993   5.477   0.224
 8097W        W12148   2.335   1.447   1.464
 8098W        W12149   0.778   2.765   0.294
 8099W        W12150   5.965   3.677   9.759
 8100W        W12151   3.595   5.082   2.730
 8101W        W12152   9.496   2.443   9.192
 8102W        W12153  11.382   7.112   2.656
 8103W        W12154   7.531   0.081  10.773
 8104W        W12155   0.275   1.774   2.799
 8105W        W12156   8.901   1.652   3.433
 8106W        W12157   7.035   1.174   1.679
 8107W        W12158   8.338   6.196   2.432
 8108W        W12159   6.957   8.578   0.057
 8109W        W12160  10.478  10.571  10.567
 8110W        W12161   9.145  10.341   9.897
 8111W        W12162   1.507   5.094   1.226
 8112W        W12163   6.859   5.930  10.875
 8113W        W12164   6.943   4.205  10.488
 8114W        W12165   1.837   2.661  10.412
 8115W        W12166   4.660   2.714  10.127
 8116W        W12167   6.486   9.992  10.479
 8117W        W12168   2.460   0.333   9.943
 8118W        W12169   3.752  10.281   3.412
 8119W        W12170   3.048   9.300   0.769
 8120W        W12171  11.097   0.745  10.439
 8121W        W12172   0.442   5.303   1.976
 8122W        W12173   3.591   5.749  10.301
 8123W        W12174   1.741   5.566   3.530
 8124W        W12175   5.211   2.121  10.560
 8125W        W12176   0.232   8.985  11.133
 8126W        W12177   8.118   7.369  10.430
 8127W        W12178   5.811   0.006   1.795
 8128W        W12179   5.939   0.789   9.835
 8129W        W12180   2.372   1.204  10.839
 8130W        W12181   1.716   3.863  11.872
 8131W        W12182   4.618   9.941   0.519
 8132W        W12183   9.410   3.333  10.247
 8133W        W12184   3.672   6.114   1.502
 8134W        W12185   2.914  11.057   0.582
 8135W        W12186   2.704   7.470  10.721
 8136W        W12187   6.048   1.789   3.257
 8137W        W12188   6.192   1.801   8.550
 8138W        W12189   2.029  10.474   2.322
 8139W        W12190   9.350  10.011   3.411
 8140W        W12191  10.461   9.901   9.086
 8141W        W12192   5.688   2.348  11.797
 8142W        W12193   6.820  10.364   0.217
 8143W        W12194   3.066   4.263   3.307
 8144W        W12195  10.013  11.013   1.775
 8145W        W12196   7.356   0.271   2.032
 8146W        W12197   7.792   6.219  11.044
 8147W        W12198   4.286   8.147  11.878
 8148W        W12199   6.413  11.273   9.544
 8149W        W12200   3.177   5.593   9.997
 8150W        W12201   5.370  10.294   9.250
 8151W        W12202   5.777   7.990   0.707
 8152W        W12203   0.615   6.630  10.035
 8153W        W12204   2.804   7.520   8.829
 8154W        W12205   2.116  10.466  11.566
 8155W        W12206   1.526   2.233   9.705
 8156W        W12207   1.464   3.860  10.188
 8157W        W12208   3.765   4.968   9.838
 8158W        W12209   7.978   3.556  11.977
 8159W        W12210   5.454  11.052   2.659
 8160W        W12211   7.924   6.735  11.021
 8161W        W12212   6.635  11.304   9.996
 8162W        W12213   8.393   6.212   1.919
 8163W        W12214  10.414   3.021   8.528
 8164W        W12215  10.799   5.760   9.584
 8165W        W12216  10.426   3.119   1.664
 8166W        W12217   7.776   3.161   0.803
 8167W        W12218   5.164   7.016   0.817
 8168W        W12219   0.451   9.845   9.151
 8169W        W12220   5.082   0.355   2.659
 8170W        W12221   1.814   1.865   3.561
 8171W        W12222   6.053   4.795  11.248
 8172W        W12223   3.733   9.314  10.743
 8173W        W12224   1.240   4.969  11.219
 8174W        W12225   9.849  11.191   2.233
 8175W        W12226   5.338  10.801   9.479
 8176W        W12227   9.882   9.948   0.895
 8177W        W12228   7.617  11.021   1.809
 8178W        W12229   3.794   0.860   2.216
 8179W        W12230   4.154   9.583   1.770
 8180W        W12231   4.094  10.492   8.837
 8181W        W12232   5.835  11.308   1.296
 8182W        W12233  10.107   0.850   1.712
 8183W        W12234   1.046   0.019   0.044
 8184W        W12235  11.479  10.421   0.718
 8185W        W12236   2.334   5.420  11.547
 8186W        W12237  10.430   9.949  10.124
 8187W        W12238   0.972  10.898  10.789
 8188W        W12239  10.505   8.615   9.600
 8189W        W12240   4.283   3.159   1.225
 8190W        W12241   9.068   6.053  10.889
 8191W        W12242   9.399   4.849   8.786
 8192W        W12243  10.985   7.796   9.978
 8193W        W12244   8.911   4.143   8.358
 8194W        W12245   1.320   6.614   1.647
 8195W        W12246   6.034   8.376   9.858
 8196W        W12247   9.104   4.625   9.588
 8197W        W12248   8.175   2.779   9.461
 8198W        W12249   7.712   2.992   1.293
 8199W        W12250   3.321   1.412   1.480
 8200W        W12251   6.987   9.189   9.572
 8201W        W12252   0.813   9.077   8.709
 8202W        W12253   6.158   8.724   0.372
 8203W        W12254   1.477  10.958  10.745
 8204W        W12255   1.793   3.743   2.101
 8205W        W12256   4.854   3.357   3.202
 8206W        W12257  11.459   9.329   2.286
 8207W        W12258   2.675  11.482   0.707
 8208W        W12259   1.433   8.070   0.580
 8209W        W12260   6.858   3.523   2.761
 8210W        W12261   5.650   2.226   0.731
 8211W        W12262   9.813   4.268   9.519
 8212W        W12263   3.315   6.272  11.541
 8213W        W12264   4.001   2.271  10.971
 8214W        W12265   9.370   3.618   0.492
 8215W        W12266   7.532   7.152  11.161
 8216W        W12267   2.048   9.589   2.552
 8217W        W12268   2.934   7.946   8.535
 8218W        W12269   6.671   5.300  11.554
 8219W        W12270  10.922   8.990  11.501
 8220W        W12271   2.685   3.709   2.540
 8221W        W12272   5.067   9.343   1.023
 8222W        W12273   4.564   6.397   8.281
 8223W        W12274  10.107   3.271  11.395
 8224W        W12275   7.918   2.655   0.818
 8225W        W12276   9.428   9.689  11.334
 8226W        W12277  10.472   1.926   0.277
 8227W        W12278   9.644   3.795  10.371
 8228W        W12279   8.416   3.228  11.374
 8229W        W12280  10.862   1.841   1.354
 8230W        W12281   2.530   6.146  11.925
 8231W        W12282   4.261   8.786   2.110
 8232W        W12283   0.381   4.545   1.222
 8233W        W12284   0.719   7.649  11.810
 8234W        W12285   4.546   0.250   2.830
 8235W        W12286   9.074   5.912   1.408
 8236W        W12287   0.451  10.411   3.238
 8237W        W12288   0.706   2.782   8.936
 8238W        W12289   9.139   0.759   8.880
 8239W        W12290   5.331   8.409   2.105
 8240W        W12291  10.320   2.712   1.946
 8241W        W12292  10.470  10.580   0.064
 8242W        W12293   4.994   6.706   8.639
 8243W        W12294   1.261   9.315  10.554
 8244W        W12295   2.642   6.062   2.797
 8245W        W12296   6.376   4.084   1.786
 8246W        W12297   1.640   0.363  10.429
 8247W        W12298   9.580   4.642   1.880
 8248W        W12299   5.712   0.447  10.130
 8249W        W12300   7.123  11.492   0.883
 8250W        W12301   1.458   6.557  10.265
 8251W        W12302   5.926   2.093   9.057
 8252W        W12303   9.030   2.922  11.803
 8253W        W12304   4.327   8.572   1.638
 8254W        W12305  10.391   0.965   0.478
 8255W        W12306   3.102   0.943   3.512
 8256W        W12307   4.388   3.598  11.944
 8257W        W12308   3.696   4.110  11.396
 8258W        W12309   0.188  10.347  11.906
 8259W        W12310   8.476  11.422  11.711
 8260W        W12311   6.526   4.834   1.425
 8261W        W12312   2.421   0.303  10.838
 8262W        W12313  10.558   6.593   3.503
 8263W        W12314   1.534   5.090   0.307
 8264W        W12315  10.997   7.987   1.252
 8265W        W12316   2.671   0.968   2.729
 8266W        W12317   6.600   1.080   2.909
 8267W        W12318   5.576   7.584  10.448
 8268W        W12319   8.379   5.719  10.540
 8269W        W12320   9.416   9.143   9.444
 8270W        W12321   5.210   4.174   9.947
 8271W        W12322   4.102   0.975   0.719
 8272W        W12323  10.612   5.140  10.379
 8273W        W12324  10.438  11.482   0.226
 8274W        W12325   8.998   0.802  10.315
 8275W        W12326   2.268   6.158   0.969
 8276W        W12327   1.844   4.102  11.435
 8277W        W12328   6.958   7.476   2.310
 8278W        W12329   1.058   7.521   9.861
 8279W        W12330   2.631   6.917  11.721
 8280W        W12331   3.091   6.295   2.888
 8281W        W12332  11.018  10.820   1.202
 8282W        W12333   9.858   3.679   9.030
 8283W        W12334   8.779   6.363  11.219
 8284W        W12335   6.042   4.144   1.419
 8285W        W12336   0.295   6.022   3.605
 8286W        W12337   5.007   2.173  11.043
 8287W        W12338  10.775   0.382  10.306
 8288W        W12339   8.338   5.777   8.891
 8289W        W12340   4.818   4.882  11.485
 8290W        W12341   4.684   7.510   1.386
 8291W        W12342   2.246   4.171  11.105
 8292W        W12343   7.252   5.095   0.281
 8293W        W12344   9.370   7.258   9.292
 8294W        W12345   6.865  10.057   8.610
 8295W        W12346   7.124   2.877  11.269
 8296W        W12347   1.866   0.046   1.466
 8297W        W12348   9.651  11.212   0.669
 8298W        W12349   4.407   7.028  11.332
 8299W        W12350   8.905   5.603   0.411
 8300W        W12351  11.231   6.219   0.989
 8301W        W12352   5.516   8.892  11.649
 8302W        W12353   7.459   5.277  11.441
 8303W        W12354   7.409   9.288  10.959
 8304W        W12355   1.003   9.040   0.918
 8305W        W12356   0.174   3.537   1.070
 8306W        W12357   8.119   5.187  11.982
 8307W        W12358  10.330   4.752   0.467
 8308W        W12359   5.926  11.438   0.798
 8309W        W12360   5.659   4.685   8.750
 8310W        W12361   5.507   3.849  11.860
 8311W        W12362   2.832   8.777  10.560
 8312W        W12363   5.189   4.588   2.725
 8313W        W12364  10.367   2.945   0.360
 8314W        W12365   3.830   5.377   2.114
 8315W        W12366  10.348  10.137  11.845
 8316W        W12367   3.348   3.890   0.518
 8317W        W12368   6.634   0.254   9.734
 8318W        W12369  10.926   8.149   9.570
 8319W        W12370   2.376  11.029   9.573
 8320W        W12371   6.492   8.509   0.716
 8321W        W12372   5.074   6.088  10.845
 8322W        W12373   8.257   4.871  10.983
 8323W        W12374   9.283   6.170   0.983
 8324W        W12375   7.548  10.772   8.686
 8325W        W12376   3.335   5.493   2.947
 8326W        W12377   9.893   1.225  10.027
 8327W        W12378   2.772   2.842   2.445
 8328W        W12379   4.396  10.361   1.498
 8329W        W12380   9.504   8.035   1.296
 8330W        W12381   3.917   6.579   0.761
 8331W        W12382   3.385   5.695   8.272
 8332W        W12383   6.968   6.059   0.754
 8333W        W12384   0.850   5.073   9.534
 8334W        W12385   9.772   6.190   1.877
 8335W        W12386   1.355   0.471   9.533
 8336W        W12387   5.051   8.176   0.471
 8337W        W12388  10.457   4.467   1.879
 8338W        W12389   9.455  11.490  10.250
 8339W        W12390   8.883  10.433   1.652
 8340W        W12391   1.920   6.628  10.506
 8341W        W12392   8.968   2.561   9.890
 8342W        W12393   8.547   9.836   9.325
 8343W        W12394  10.691   3.751  10.162
 8344W        W12395   3.265   0.548   3.235
 8345W        W12396   0.843   2.327   2.734
 8346W        W12397   9.280   8.477   3.562
 8347W        W12398   6.169   9.315  11.759
 8348W        W12399   1.107  11.415   2.280
 8349W        W12400   5.210   3.615   3.512
 8350W        W12401   0.249   9.087   2.620
 8351W        W12402   5.714   1.251   9.850
 8352W        W12403   1.692   4.566  10.097
 8353W        W12404   5.778   0.389   3.497
 8354W        W12405   4.549   2.730   9.145
 8355W        W12406   1.748   9.424  10.523
 8356W        W12407   7.674   6.471   3.385
 8357W        W12408   9.289   9.384   9.004
 8358W        W12409   5.073   4.578   1.738
 8359W        W12410   3.282   6.195   9.329
 8360W        W12411   7.820   4.606  11.243
 8361W        W12412   3.817   5.773   0.704
 8362W        W12413   1.272   5.902   3.488
 8363W        W12414   7.086   2.657  11.967
 8364W        W12415   1.790   7.358   3.984
 8365W        W12416   4.669   8.858  10.498
 8366W        W12417   9.073   1.685   1.941
 8367W        W12418   8.348   4.355   0.864
 8368W        W12419   2.666   0.225   1.707
 8369W        W12420  10.523   8.681   3.182
 8370W        W12421   1.400   7.114   2.443
 8371W        W12422   2.385   4.856   2.815
 8372W        W12423  10.452   5.810   9.975
 8373W        W12424   4.227   4.273   8.801
 8374W        W12425   1.984   4.622   1.036
 8375W        W12426   5.101   7.203   1.371
 8376W        W12427   2.356   1.869   2.212
 8377W        W12428   8.918   5.082  10.298
 8378W        W12429   4.084   5.297  10.095
 8379W        W12430   8.337   3.855   2.344
 8380W        W12431   9.377   9.354  10.924
 8381W        W12432   4.811   7.743   0.564
 8382W        W12433   1.337   4.601   1.227
 8383W        W12434   8.543   9.558  11.536
 8384W        W12435   2.279   1.478   3.428
 8385W        W12436   3.247   0.127   2.932
 8386W        W12437   7.491   8.461   9.353
 8387W        W12438   1.363   7.089  10.023
 8388W        W12439   8.537   0.312  11.399
 8389W        W12440   7.163  11.312   1.821
 8390W        W12441  11.439   4.858   9.091
 8391W        W12442   0.298   9.908  10.157
 8392W        W12443   5.069   1.672  10.761
 8393W        W12444   1.939   6.163   8.928
 8394W        W12445   7.175   0.018   9.084
 8395W        W12446   7.423   4.360  10.604
 8396W        W12447   2.779   3.271   9.236
 8397W        W12448   6.214   2.866   0.437
 8398W        W12449   8.472   0.177   0.961
 8399W        W12450   2.169   0.415  11.294
 8400W        W12451   3.298   3.848   9.621
 8401W        W12452   6.388   3.358  10.639
 8402W        W12453   0.344   9.519   1.974
 8403W        W12454   0.937   5.999   1.665
 8404W        W12455   1.343   0.971   9.577
 8405W        W12456   1.371   5.084  10.723
 8406W        W12457   7.501   0.262   9.638
 8407W        W12458   3.750   8.524   8.718
 8408W        W12459   4.198  10.944   0.741
 8409W        W12460   9.199   1.378   0.706
 8410W        W12461   2.363   5.275   2.495
 8411W        W12462   2.749   8.019   3.155
 8412W        W12463   6.141   3.451  11.148
 8413W        W12464   4.150   0.886   9.145
 8414W        W12465   5.986   7.242   3.194
 8415W        W12466  10.550   6.008  11.814
 8416W        W12467   3.354  11.393   8.701
 8417W        W12468   7.507   8.598   1.846
 8418W        W12469   1.222  10.460   0.500
 8419W        W12470   6.544   9.590  11.514
 8420W        W12471   9.102   2.459   0.693
 8421W        W12472   3.113   0.675  11.035
 8422W        W12473   8.604   0.707   8.994
 8423W        W12474   1.589   7.605   2.290
 8424W        W12475  11.463   6.515  10.554
 8425W        W12476   7.683   1.810   1.973
 8426W        W12477   7.177   1.206  11.772
 8427W        W12478   4.680   2.867   3.567
 8428W        W12479   6.797   0.379   8.959
 8429W        W12480   2.757   7.396   9.825
 8430W        W12481   0.386   4.992  10.740
 8431W        W12482  10.842  11.414  10.507
 8432W        W12483   1.286   3.280   3.129
 8433W        W12484  10.854   0.854   9.558
 8434W        W12485   8.412   2.450   9.077
 8435W        W12486   1.334   6.220   1.986
 8436W        W12487   7.774   6.117   8.828
 8437W        W12488   9.902   7.191   1.880
 8438W        W12489   9.555   3.863   8.586
 8439W        W12490   6.382   2.046   4.082
 8440W        W12491   2.917   8.419  11.890
 8441W        W12492   9.424   1.685   3.397
 8442W        W12493  10.846  10.082   0.926
 8443W        W12494   3.157   6.651   2.545
 8444W        W12495   4.816  10.315   1.822
 8445W        W12496   3.212  10.068   9.853
 8446W        W12497   6.005  10.992   1.967
 8447W        W12498   3.167   0.325   0.982
 8448ION    NA+12499   2.194   0.086   1.887
 8449ION    NA+12500   3.679   7.544   1.132
 8450ION    NA+12501   9.642   3.934  11.237
 8451ION    NA+12502   3.096   8.850   1.559
 8452ION    NA+12503   9.453   4.685  10.605
 8453ION    NA+12504   2.212   6.601   2.147
 8454ION    NA+12505   4.803   3.792  11.714
 8455ION    NA+12506   7.482   1.263   3.664
 8456ION    NA+12507   0.003   8.484  10.400
 8457ION    NA+12508   6.178   8.181   2.221
 8458ION    NA+12509   9.570   8.364  11.874
 8459ION    NA+12510   9.468   6.089   0.219
 8460ION    NA+12511   3.380   5.691   1.645
 8461ION    NA+12512   9.320   0.919  11.714
 8462ION    NA+12513   5.251   4.971   2.072
 8463ION    NA+12514  11.444   5.185  10.589
 8464ION    NA+12515   7.396   3.523   2.184
 8465ION    NA+12516   7.966  10.492   9.347
 8466ION    NA+12517   0.288   7.401   8.906
 8467ION    NA+12518   9.418   6.451   9.554
 8468ION    NA+12519   2.142   8.169   9.736
 8469ION    NA+12520   7.605   2.169   8.789
 8470ION    NA+12521   8.096   2.583   3.873
 8471ION    NA+12522   8.855  10.966   9.485
 8472ION    NA+12523   5.247   6.349  11.287
 8473ION    NA+12524   0.551   7.500   9.755
 8474ION    NA+12525   9.119  10.675   0.785
 8475ION    NA+12526   3.799   4.016  10.146
 8476ION    NA+12527   9.379   7.734  11.257
 8477ION    NA+12528   3.912   2.170   1.707
 8478ION    NA+12529   4.828   0.952   2.140
 8479ION    NA+12530   1.271   5.048  11.810
 8480ION    NA+12531   0.966  11.188   8.981
 8481ION    NA+12532   8.784   8.381  11.734
 8482ION    NA+12533   0.880   4.007   3.049
 8483ION    NA+12534   7.076   1.360   2.694
 8484ION    NA+12535   5.079   2.097  11.944
 8485ION    NA+12536   4.147   0.736  10.402
 8486ION    NA+12537  10.579   0.093   1.482
 8487ION    NA+12538   5.603   7.578   2.452
 8488ION    NA+12539  11.170   0.490   2.687
 8489ION    NA+12540   4.230   3.957   0.588
 8490ION    NA+12541   6.024   9.448   2.543
 8491ION    NA+12542   3.196   2.359   0.433
 8492ION    NA+12543   1.499   2.222   8.870
 8493ION    NA+12544   3.046   8.920  11.862
 8494ION    NA+12545   4.193   1.774   2.581
 8495ION    NA+12546   8.542   6.841   9.848
 8496ION    NA+12547   7.514   9.556   1.018
 8497ION    NA+12548   7.432   0.858   0.081
 8498ION    NA+12549   1.832   4.129   1.276
 8499ION    NA+12550   7.954   6.373  10.581
 8500ION    NA+12551   3.084   5.830   2.624
 8501ION    NA+12552   5.339   1.706   2.193
 8502ION    NA+12553   0.245   4.376  11.710
 8503ION    NA+12554   3.052   8.286   0.892
 8504ION    NA+12555   7.136   1.690   1.667
 8505ION    NA+12556   3.069  11.038   7.998
 8506ION    NA+12557   8.191   1.100   2.921
 8507ION    NA+12558   4.040   8.426   0.828
 8508ION    NA+12559   9.281   0.062   0.913
 8509ION    NA+12560   3.579   2.102   3.650
 8510ION    NA+12561   5.366  10.101  11.421
 8511ION    NA+12562   7.947   5.111   3.170
 8512ION    NA+12563  11.376   7.931  11.970
 8513ION    NA+12564   9.339   0.753   9.930
 8514ION    NA+12565  11.439  11.063  11.984
 8515ION    NA+12566  11.030   6.510  10.179
 8516ION    NA+12567   5.751   2.808   9.543
 8517ION    NA+12568   6.686   9.166   8.789
 8518ION    NA+12569   0.995   5.105   1.237
 8519ION    NA+12570   7.555   0.247  11.299
 8520ION    NA+12571   0.417   0.421   9.108
 8521ION    NA+12572   2.356   7.761   8.539
 8522ION    NA+12573   8.981   3.298   0.441
 8523ION    NA+12574   9.599   1.547   2.444
 8524ION    NA+12575  10.465   7.693   9.846
 8525ION    NA+12576  10.513   4.158   0.732
 8526ION    NA+12577   7.430   8.681   8.885
 8527ION    NA+12578   0.581   1.495  11.498
 8528ION    NA+12579   9.754  10.136  11.166
 8529ION    NA+12580  10.342  11.016   0.385
 8530ION    NA+12581   9.551   1.489   9.274
 8531ION    NA+12582   0.056   1.864  10.732
 8532ION    NA+12583   8.590   4.536   2.665
 8533ION    NA+12584   1.812  11.206   0.429
 8534ION    NA+12585   2.643   3.413  10.382
 8535ION    NA+12586   8.499   0.183   9.868
 8536ION    NA+12587   5.132   3.409   8.248
 8537ION    CL-12588   2.820   4.611   2.963
 8538ION    CL-12589   4.695   3.265   8.255
 8539ION    CL-12590   0.375   2.349   3.523
 8540ION    CL-12591   1.214  11.345  11.526
 8541ION    CL-12592  10.017   4.145   3.508
 8542ION    CL-12593  11.142  11.429  10.917
 8543ION    CL-12594   5.810  10.104  11.371
 8544ION    CL-12595   9.143   3.754  10.377
 8545ION    CL-12596   9.468  10.489  11.206
 8546ION    CL-12597   0.089   0.591  10.316
 8547ION    CL-12598   2.809   5.109  11.760
 8548ION    CL-12599   5.083   1.333   2.120
 8549ION    CL-12600   3.542  10.684   3.641
 8550ION    CL-12601  11.249   4.080   1.554
 8551ION    CL-12602   1.519   7.646  11.364
 8552ION    CL-12603   0.353   1.525  10.839
 8553ION    CL-12604   6.392   9.314   2.328
 8554ION    CL-12605   0.307  10.516  10.898
 8555ION    CL-12606   4.595   3.959  10.360
 8556ION    CL-12607   6.228   9.338  10.152
 8557ION    CL-12608   0.704   0.061   9.095
 8558ION    CL-12609   2.656   2.201  10.851
 8559ION    CL-12610   7.705   1.722   8.774
 8560ION    CL-12611   9.510   1.912   2.195
 8561ION    CL-12612   9.058   1.185  11.469
 8562ION    CL-12613   0.856   8.788  11.560
 8563ION    CL-12614   8.310   0.706   2.742
 8564ION    CL-12615   9.384  10.840   3.578
 8565ION    CL-12616  11.426   0.849   2.731
 8566ION    CL-12617   8.275   4.619  11.470
 8567ION    CL-12618   2.513   9.864   9.479
 8568ION    CL-12619   8.598   3.079   0.383
 8569ION    CL-12620   9.391   2.894   9.931
 8570ION    CL-12621   4.764   7.230   2.934
 8571ION    CL-12622   9.159   8.590  11.930
 8572ION    CL-12623   8.591   8.125  11.403
 8573ION    CL-12624   6.118   7.401   0.233
 8574ION    CL-12625  10.520   2.146   3.089
 8575ION    CL-12626  11.221   9.425   0.752
 8576ION    CL-12627   1.800   4.944   4.094
 8577ION    CL-12628   0.502   1.842  11.776
 8578ION    CL-12629   8.617  11.269   9.722
 8579ION    CL-12630   1.934  10.170   3.401
 8580ION    CL-12631   8.559   2.126  11.002
 8581ION    CL-12632  11.465   1.440   0.518
 8582ION    CL-12633   2.779  11.031   3.096
 8583ION    CL-12634   8.066   7.909  10.431
 8584ION    CL-12635  10.091   9.870  11.011
 8585ION    CL-12636   4.172   0.061   8.362
 8586ION    CL-12637   0.311   6.750   1.621
 8587ION    CL-12638   5.782   7.977   2.316
 8588ION    CL-12639   7.399   7.066   1.683
 8589ION    CL-12640   1.300   2.259   9.268
 8590ION    CL-12641   9.693   3.493  11.171
 8591ION    CL-12642   5.870  10.373  10.037
 8592ION    CL-12643   2.062  11.077   8.700
 8593ION    CL-12644   4.083   4.073   0.995
 8594ION    CL-12645   0.406  10.517   0.967
 8595ION    CL-12646   3.089   8.480   1.300
 8596ION    CL-12647   9.194  11.117   0.867
 8597ION    CL-12648  10.399   3.989   2.072
 8598ION    CL-12649  10.827   1.191  10.558
 8599ION    CL-12650   4.702   7.862   1.751
 8600ION    CL-12651   5.639   3.239  11.295
 8601ION    CL-12652  10.525   7.029   0.447
 8602ION    CL-12653   2.761   3.833  10.465
 8603ION    CL-12654   4.832   1.308   8.902
 8604ION    CL-12655   0.021   7.716   8.445
 8605ION    CL-12656   6.924   9.288  11.272
 8606ION    CL-12657   9.835   8.548   9.848
 8607ION    CL-12658   5.946   7.031   9.833
 8608ION    CL-12659   4.249   0.548  10.011
 8609ION    CL-12660   9.565   7.991  11.584
 8610ION    CL-12661   0.357   7.460   9.351
 8611ION    CL-12662   8.079   7.372   2.822
 8612ION    CL-12663   1.655   6.520   9.427
 8613ION    CL-12664   7.013   8.842   8.769
 8614ION    CL-12665   2.129  10.905   0.342
 8615ION    CL-12666   9.580   4.387   2.486
 8616ION    CL-12667   5.504   6.017  11.137
 8617ION    CL-12668   4.836   5.235  10.820
 8618ION    CL-12669   7.080   0.681   0.292
 8619ION    CL-12670   0.610   8.100   3.177
 8620ION    CL-12671  11.183   2.121  10.658
 8621ION    CL-12672   4.221   9.619   0.502
 8622ION    CL-12673   0.989  10.074   9.124
 8623ION    CL-12674   6.508   4.449  11.952
 8624ION    CL-12675   0.448   8.575   1.463
 8625ION    CL-12676   6.759   7.563  10.084
  11.50000  11.50000  12.00000
