Protein in INSANE! Membrane UpperLeaflet>POPC=1.0 LowerLeaflet>POPC=1.0
12676
    1AU     AUC    1   2.483   4.367   7.118  0.2286 -0.0249 -0.0719
    1AU     AUC    2   2.197   4.243   7.187  0.0056 -0.0106  0.0802
    1AU     AUC    3   2.434   4.260   7.400 -0.0941  0.0312  0.0497
    1AU     AUC    4   2.507   4.456   6.844  0.0279  0.0589  0.0443
    1AU     AUC    5   2.756   4.436   7.025 -0.0497  0.0186  0.0573
    1AU     AUC    6   2.629   4.181   6.940  0.0130 -0.1326  0.0026
    1AU     AUC    7   2.423   4.050   7.131  0.0478  0.0988  0.0013
    1AU     AUC    8   2.512   4.652   7.100 -0.0341  0.0504  0.0465
    1AU     AUC    9   2.344   4.531   7.307  0.0482  0.0267  0.0019
    1AU     AUC   10   2.652   4.476   7.333 -0.0897  0.0154 -0.0776
    1AU     AUC   11   2.693   4.189   7.241 -0.0126  0.0808 -0.0013
    1AU     AUC   12   2.243   4.515   6.991 -0.0524 -0.0505 -0.0071
    1AU     AUC   13   2.317   4.240   6.897  0.1253  0.0739 -0.0383
    1AU     AUC   14   1.914   4.158   7.241 -0.0438 -0.0744  0.0389
    1AU     AUC   15   2.145   4.133   7.465  0.0573  0.0239  0.0014
    1AU     AUC   16   2.396   4.152   7.662 -0.0141 -0.0438  0.0316
    1AU     AUC   17   2.557   4.576   6.566 -0.0048  0.1469  0.0629
    1AU     AUC   18   2.794   4.557   6.739  0.0427 -0.0453 -0.0071
    1AU     AUC   19   3.031   4.502   6.959  0.0121  0.0118 -0.0749
    1AU     AUC   20   2.793   3.986   6.757 -0.0200  0.0405 -0.0152
    1AU     AUC   21   2.593   3.860   6.961 -0.0259 -0.0844 -0.0526
    1AU     AUC   22   2.401   3.746   7.155 -0.1097  0.0118  0.0387
    1AU     AUC   23   2.553   4.954   7.059 -0.0624  0.1352  0.0160
    1AU     AUC   24   2.355   4.831   7.277  0.0745 -0.0072 -0.0730
    1AU     AUC   25   2.203   4.714   7.489 -0.1245 -0.0865  0.0098
    1AU     AUC   26   2.809   4.628   7.538 -0.0779 -0.0465  0.0820
    1AU     AUC   27   2.880   4.332   7.472  0.0120  0.0417  0.0259
    1AU     AUC   28   2.929   4.034   7.380  0.0136  0.0467 -0.0099
    1AU     AUC   29   2.004   4.679   6.891  0.0267 -0.0030 -0.0167
    1AU     AUC   30   2.082   4.366   6.786 -0.0168 -0.0847 -0.1011
    1AU     AUC   31   2.155   4.099   6.660 -0.1029 -0.0806  0.0582
    1AU     AUC   32   2.589   4.381   7.628  0.0098  0.0553  0.0489
    1AU     AUC   33   2.666   4.095   7.520  0.0076 -0.0650 -0.0704
    1AU     AUC   34   1.953   4.414   7.060 -0.0320  0.0004 -0.0538
    1AU     AUC   35   2.024   4.127   6.972  0.0426 -0.0258 -0.0545
    1AU     AUC   36   2.926   4.575   7.252 -0.0845  0.0381  0.0980
    1AU     AUC   37   3.000   4.277   7.181  0.1138  0.0043  0.0409
    1AU     AUC   38   2.271   4.628   6.720  0.0064 -0.0410 -0.0334
    1AU     AUC   39   2.369   4.328   6.611 -0.0152 -0.0329 -0.0125
    1AU     AUC   40   2.159   3.938   7.202  0.0087 -0.0780  0.0219
    1AU     AUC   41   2.384   3.958   7.409 -0.0733  0.0751  0.0270
    1AU     AUC   42   2.698   4.286   6.664 -0.0276  0.0018 -0.0751
    1AU     AUC   43   2.931   4.244   6.876  0.0058  0.0114  0.1344
    1AU     AUC   44   2.049   4.433   7.369  0.0483 -0.0596 -0.0049
    1AU     AUC   45   2.297   4.424   7.589  0.0380 -0.0226  0.0636
    1AU     AUC   46   2.558   4.750   6.793  0.0519  0.0667  0.0991
    1AU     AUC   47   2.800   4.724   7.025 -0.0278 -0.0120  0.0018
    1AU     AUC   48   2.866   4.027   7.052  0.0325 -0.0176 -0.0685
    1AU     AUC   49   2.649   3.886   7.245 -0.0529 -0.0700 -0.1292
    1AU     AUC   50   2.691   4.793   7.287 -0.0713 -0.1319 -0.0319
    1AU     AUC   51   2.506   4.669   7.517  0.0953  0.0390 -0.0886
    1AU     AUC   52   2.469   4.047   6.705 -0.0308 -0.0128  0.0094
    1AU     AUC   53   2.280   3.920   6.908  0.0541 -0.0340  0.0170
    1AU     AUC   54   2.283   4.788   6.962 -0.0122 -0.0084  0.0108
    1AU     AUC   55   2.090   4.687   7.194  0.0035 -0.0773 -0.0224
    1AU    AUSL   56   2.728   4.238   7.779  0.0372 -0.1037 -0.0195
    1AU    AUSL   57   2.656   4.641   7.896  0.0444 -0.0305  0.0529
    1AU     AUL   58   2.824   4.468   8.183 -0.0395  0.0504  0.0225
    1AU       S   59   2.399   4.793   8.162 -0.1905  0.1214 -0.1781
    1AU     LIG   60   2.524   5.193   8.275 -0.2849 -0.1479 -0.1408
    1AU     LIG   61   2.636   5.639   8.337 -0.0821  0.1257  0.1247
    1AU     LIG   62   2.864   5.941   8.217  0.3279  0.0514  0.0525
    1AU     LIG   63   3.217   6.102   8.275  0.2939  0.0386 -0.1236
    1AU     LIG   64   3.210   6.441   7.907 -0.1683  0.0429  0.0042
    1AU     LIG   65   3.377   6.706   7.519 -0.0103  0.0492  0.2060
    1AU       S   66   3.176   3.936   8.153  0.1520 -0.1035 -0.4255
    1AU     LIG   67   3.426   3.560   8.100 -0.2109  0.2575  0.3075
    1AU     LIG   68   3.501   3.050   8.036  0.0087 -0.0390  0.0148
    1AU     LIG   69   3.323   2.764   7.735  0.2218 -0.1113 -0.0419
    1AU     LIG   70   3.375   2.559   7.356 -0.2127  0.2567 -0.1434
    1AU     LIG   71   3.714   2.356   7.217  0.2611  0.1759  0.0818
    1AU     LIG   72   4.229   2.330   7.218  0.1671  0.3533  0.0776
    1AU    AUSL   73   3.040   4.516   7.792  0.0123 -0.0247  0.1231
    1AU    AUSL   74   3.123   4.179   7.534  0.0094 -0.0920  0.0251
    1AU     AUL   75   3.217   4.296   7.829 -0.0290  0.0178 -0.0066
    1AU       S   76   3.152   4.110   8.231  0.0230  0.1923 -0.0099
    1AU     LIG   77   3.517   4.469   8.251 -0.0277 -0.0926  0.3227
    1AU     LIG   78   3.732   4.739   8.104  0.0834  0.0684  0.4146
    1AU     LIG   79   4.043   5.132   8.024  0.1731 -0.2041 -0.0865
    1AU     LIG   80   4.010   5.349   7.521  0.5651 -0.0435  0.2394
    1AU     LIG   81   3.981   5.508   7.134 -0.2531 -0.0009 -0.1988
    1AU     LIG   82   4.081   5.894   7.082 -0.0791  0.1627 -0.0216
    1AU       S   83   3.631   4.463   7.677 -0.1684  0.3059 -0.1505
    1AU     LIG   84   3.874   4.089   7.519  0.2902  0.2053  0.3899
    1AU     LIG   85   3.802   3.673   7.238 -0.2197  0.0180 -0.1921
    1AU     LIG   86   3.969   3.276   7.170 -0.0311 -0.1593  0.3420
    1AU     LIG   87   3.873   2.888   6.944  0.2287 -0.2876 -0.1686
    1AU     LIG   88   3.789   2.747   6.502  0.2378  0.1222  0.1680
    1AU     LIG   89   4.026   2.574   6.204  0.0173  0.1243 -0.2354
    1AU    AUSL   90   2.932   3.883   7.743 -0.1088 -0.0331 -0.0298
    1AU    AUSL   91   2.485   3.900   7.818 -0.0182 -0.0137  0.0522
    1AU     AUL   92   2.707   4.029   8.013 -0.0732 -0.0504 -0.0920
    1AU       S   93   3.118   3.788   7.874 -0.1366 -0.2659  0.6774
    1AU     LIG   94   3.424   3.644   7.608  0.0641 -0.1017 -0.0412
    1AU     LIG   95   3.796   3.482   7.663  0.0339  0.1104  0.2405
    1AU     LIG   96   4.197   3.335   7.681 -0.3251 -0.0643 -0.0624
    1AU     LIG   97   4.597   3.297   7.481 -0.0230 -0.4317  0.0242
    1AU     LIG   98   4.856   3.538   7.242  0.3797 -0.3275 -0.0867
    1AU     LIG   99   5.264   3.748   7.189 -0.1201 -0.1308  0.0572
    1AU       S  100   2.314   3.744   8.026  0.2652  0.3082  0.0793
    1AU     LIG  101   2.084   3.349   8.118  0.0284  0.0576 -0.1012
    1AU     LIG  102   1.945   2.881   8.003  0.2227  0.0508  0.2076
    1AU     LIG  103   1.591   2.635   7.838  0.0599 -0.0546 -0.0513
    1AU     LIG  104   1.186   2.901   7.775 -0.3103 -0.1553 -0.3262
    1AU     LIG  105   0.823   2.920   7.562  0.3649 -0.0588  0.1270
    1AU     LIG  106   0.501   2.702   7.596  0.1619  0.0069  0.0560
    1AU    AUSL  107   1.701   4.127   7.025  0.1318 -0.0591 -0.0432
    1AU    AUSL  108   1.875   3.857   6.730  0.0040  0.0268  0.0126
    1AU     AUL  109   1.500   3.908   6.738  0.1071 -0.0035 -0.0861
    1AU       S  110   1.214   4.344   6.779  0.1001 -0.0900  0.0447
    1AU     LIG  111   1.161   4.130   6.478 -0.1322 -0.0509 -0.3001
    1AU     LIG  112   1.205   4.236   6.064  0.1857 -0.2328  0.0673
    1AU     LIG  113   1.256   4.499   5.656  0.0334  0.1652  0.0539
    1AU     LIG  114   1.526   4.785   5.765 -0.1021 -0.3901  0.0639
    1AU     LIG  115   1.674   5.075   6.085 -0.0287 -0.1221 -0.3296
    1AU     LIG  116   1.943   5.381   5.892  0.3166 -0.0878 -0.2176
    1AU       S  117   1.536   3.475   6.883 -0.3345 -0.0648 -0.0791
    1AU     LIG  118   1.141   3.349   6.942 -0.2346  0.2041 -0.3635
    1AU     LIG  119   1.041   3.005   7.098 -0.1260  0.1899  0.1870
    1AU     LIG  120   0.760   2.727   7.021  0.1909  0.1778  0.1497
    1AU     LIG  121   0.461   2.308   7.040 -0.0051  0.2025 -0.2255
    1AU     LIG  122   0.510   1.921   6.733 -0.3457  0.0279 -0.2228
    1AU     LIG  123   0.303   2.081   6.340 -0.2243 -0.4431  0.2402
    1AU    AUSL  124   1.660   4.518   6.863 -0.0248 -0.0035 -0.0389
    1AU    AUSL  125   1.648   4.427   7.303  0.0487  0.0838 -0.0231
    1AU     AUL  126   1.440   4.227   7.156  0.1436  0.0457  0.0479
    1AU       S  127   1.324   4.660   7.323  0.1957  0.2732  0.2529
    1AU     LIG  128   0.944   4.428   7.250  0.1914 -0.1632  0.3231
    1AU     LIG  129   0.538   4.348   7.208  0.2810  0.1897 -0.0407
    1AU     LIG  130   0.161   3.954   7.174 -0.3813  0.4806 -0.0957
    1AU     LIG  131  -0.060   3.686   7.366 -0.0904  0.2854 -0.4145
    1AU     LIG  132  -0.365   3.792   7.631  0.0730 -0.1581 -0.3529
    1AU     LIG  133  -0.672   3.824   7.873  0.6115  0.1327 -0.2153
    1AU       S  134   1.317   4.594   6.806  0.1293  0.2016  0.4184
    1AU     LIG  135   1.063   4.986   6.673 -0.4763  0.0303 -0.2896
    1AU     LIG  136   0.666   5.041   6.556 -0.6046  0.1936  0.0442
    1AU     LIG  137   0.265   5.161   6.322 -0.1819  0.1208  0.0866
    1AU     LIG  138   0.014   5.540   6.048  0.0370  0.4087  0.2914
    1AU     LIG  139   0.188   5.845   5.726 -0.0955  0.3003  0.4154
    1AU     LIG  140   0.372   6.246   5.496  0.2444  0.0347 -0.1438
    1AU    AUSL  141   1.979   4.249   6.751 -0.0710  0.0024  0.0609
    1AU    AUSL  142   1.890   4.586   6.519  0.0496  0.0343 -0.0106
    1AU     AUL  143   1.663   4.296   6.563  0.0829  0.0676  0.0424
    1AU       S  144   1.727   4.518   6.137 -0.2700  0.3407  0.2266
    1AU     LIG  145   1.322   4.718   6.170 -0.1654  0.1122 -0.0009
    1AU     LIG  146   0.988   4.591   6.393 -0.1655 -0.2570  0.0412
    1AU     LIG  147   0.608   4.224   6.409 -0.1210 -0.3850 -0.0097
    1AU     LIG  148   0.320   4.054   6.714  0.2657 -0.2048  0.3752
    1AU     LIG  149  -0.161   4.147   6.769 -0.2673 -0.1020  0.0298
    1AU     LIG  150  -0.406   4.028   7.120 -0.1056 -0.3103 -0.5518
    1AU       S  151   1.527   4.606   6.857  0.0016 -0.0082 -0.1571
    1AU     LIG  152   1.610   4.963   6.642  0.3061  0.1208 -0.0126
    1AU     LIG  153   1.336   5.309   6.356  0.0283  0.1185 -0.1054
    1AU     LIG  154   0.934   5.423   6.287  0.2119  0.3619  0.1674
    1AU     LIG  155   0.475   5.739   6.229  0.1536  0.2031 -0.0312
    1AU     LIG  156   0.160   5.938   6.439  0.1087  0.1384 -0.1446
    1AU     LIG  157  -0.239   6.010   6.234  0.1636 -0.2016  0.0932
    1AU    AUSL  158   3.315   4.453   7.292 -0.0125  0.0320  0.0338
    1AU    AUSL  159   3.253   4.019   7.187  0.0854 -0.0065 -0.0515
    1AU     AUL  160   3.390   4.073   7.471  0.0147 -0.0198  0.0129
    1AU       S  161   3.672   4.500   7.539  0.1463  0.0970 -0.0112
    1AU     LIG  162   4.051   4.505   7.386  0.0817 -0.1300 -0.0485
    1AU     LIG  163   4.373   4.175   7.521  0.1597 -0.1587  0.0931
    1AU     LIG  164   4.529   3.788   7.620  0.1867  0.1469 -0.1525
    1AU     LIG  165   4.293   3.624   7.210 -0.0977 -0.0589 -0.0308
    1AU     LIG  166   4.459   3.213   7.008 -0.2571 -0.1521  0.0392
    1AU     LIG  167   4.393   2.691   6.940  0.0871 -0.0383 -0.0556
    1AU       S  168   3.667   4.196   7.068 -0.0581  0.3012  0.5330
    1AU     LIG  169   4.074   4.119   7.087  0.0243 -0.2465 -0.0271
    1AU     LIG  170   4.431   4.497   7.061  0.1849  0.0417  0.2075
    1AU     LIG  171   4.618   4.547   7.394 -0.2460 -0.0609 -0.0311
    1AU     LIG  172   4.551   4.546   7.817 -0.0133  0.1754 -0.2035
    1AU     LIG  173   4.829   4.515   8.221  0.2214 -0.2987 -0.0585
    1AU     LIG  174   5.023   4.732   8.583  0.0215 -0.1696  0.2237
    1AU    AUSL  175   2.921   4.528   7.401 -0.0366  0.0155  0.0954
    1AU    AUSL  176   3.208   4.790   7.067  0.0207 -0.0435 -0.0316
    1AU     AUL  177   3.411   4.687   7.193  0.0620 -0.0081  0.0050
    1AU       S  178   3.423   5.175   7.222  0.0700  0.4654 -0.1393
    1AU     LIG  179   3.779   5.022   7.134 -0.0680 -0.0754  0.0998
    1AU     LIG  180   4.256   4.944   7.132 -0.0094  0.0436 -0.2216
    1AU     LIG  181   4.711   5.022   7.107 -0.4089  0.2096 -0.1189
    1AU     LIG  182   5.076   5.201   7.306 -0.2230 -0.2395 -0.2384
    1AU     LIG  183   5.619   5.152   7.416 -0.2547  0.2462 -0.2783
    1AU     LIG  184   5.951   4.904   7.625 -0.1572  0.0979  0.0612
    1AU       S  185   3.510   4.685   7.685  0.3294 -0.3246 -0.2602
    1AU     LIG  186   3.947   4.924   7.597 -0.2687 -0.0271  0.4089
    1AU     LIG  187   4.368   5.000   7.617 -0.0319 -0.3262 -0.2030
    1AU     LIG  188   4.868   4.933   7.673  0.1893  0.4890 -0.0779
    1AU     LIG  189   5.074   4.719   7.293 -0.0888 -0.5625  0.1216
    1AU     LIG  190   5.371   4.458   7.150 -0.1977 -0.0984 -0.0004
    1AU     LIG  191   5.336   4.168   6.841  0.2426  0.0845 -0.0328
    1AU    AUSL  192   2.303   4.564   6.509  0.0233  0.0484 -0.0670
    1AU    AUSL  193   2.085   4.874   6.716  0.0704  0.0049 -0.0467
    1AU     AUL  194   1.988   4.847   6.393  0.0524 -0.0810  0.0650
    1AU       S  195   1.900   4.540   6.033 -0.2804 -0.3245 -0.1385
    1AU     LIG  196   2.111   4.881   5.753  0.0536 -0.2575 -0.0625
    1AU     LIG  197   2.461   5.266   5.922 -0.0557 -0.0443  0.2564
    1AU     LIG  198   2.748   5.561   6.126 -0.1159  0.1319 -0.5466
    1AU     LIG  199   2.696   5.775   6.476 -0.4101  0.1592 -0.3869
    1AU     LIG  200   2.876   6.026   6.828  0.0817  0.1058  0.1721
    1AU     LIG  201   3.084   5.791   7.220 -0.3471  0.0756  0.3609
    1AU       S  202   2.152   5.326   6.356 -0.2523  0.0694 -0.0625
    1AU     LIG  203   1.803   5.485   6.546 -0.1845  0.0900  0.0247
    1AU     LIG  204   1.460   5.698   6.690 -0.2010  0.2802  0.1240
    1AU     LIG  205   1.109   6.001   6.982 -0.1881 -0.0107  0.1164
    1AU     LIG  206   0.871   6.235   7.339  0.2055 -0.0251 -0.0244
    1AU     LIG  207   0.960   6.455   7.706 -0.0556  0.0520  0.2156
    1AU     LIG  208   0.967   6.924   7.756 -0.7548  0.4907  0.0548
    1AU    AUSL  209   2.078   4.250   6.340  0.0050 -0.0448 -0.0779
    1AU    AUSL  210   2.524   4.352   6.239 -0.0462  0.1144 -0.0100
    1AU     AUL  211   2.321   4.642   6.165 -0.0931  0.0055  0.0191
    1AU       S  212   2.437   4.186   6.030  0.2825 -0.2188  0.6624
    1AU     LIG  213   2.690   4.541   5.833 -0.2813  0.1733 -0.5657
    1AU     LIG  214   2.898   4.938   5.864 -0.1861  0.2384 -0.2484
    1AU     LIG  215   3.093   5.358   5.807  0.2618 -0.0505 -0.1906
    1AU     LIG  216   3.169   5.764   6.089 -0.1470  0.0153  0.3354
    1AU     LIG  217   2.976   6.115   6.297  0.4081 -0.1154 -0.0301
    1AU     LIG  218   3.211   6.378   6.586 -0.2136 -0.1787 -0.1053
    1AU       S  219   2.001   4.291   6.192  0.2858 -0.0596 -0.2164
    1AU     LIG  220   1.766   3.867   6.247 -0.4925 -0.3068 -0.0172
    1AU     LIG  221   1.414   3.628   6.356 -0.3777  0.2595 -0.0355
    1AU     LIG  222   1.025   3.680   6.603 -0.4055 -0.0017 -0.2528
    1AU     LIG  223   0.558   3.609   6.593 -0.2648  0.0577  0.1842
    1AU     LIG  224   0.152   3.615   6.618  0.2850 -0.1850 -0.1554
    1AU     LIG  225  -0.179   3.589   6.898  0.3212 -0.2190 -0.0257
    1AU    AUSL  226   2.189   3.541   7.294 -0.0518  0.0476 -0.0095
    1AU    AUSL  227   1.840   3.752   7.148  0.0014 -0.0308  0.0585
    1AU     AUL  228   1.988   3.288   7.077  0.0642 -0.0290  0.0591
    1AU       S  229   1.579   3.648   7.136 -0.0969 -0.0732  0.0998
    1AU     LIG  230   1.199   3.764   7.182  0.2122 -0.1296 -0.4028
    1AU     LIG  231   0.868   3.885   7.438 -0.0504 -0.1168 -0.2669
    1AU     LIG  232   0.605   4.304   7.710  0.0801 -0.0736  0.1332
    1AU     LIG  233   0.423   4.561   8.015  0.2260 -0.1486  0.4008
    1AU     LIG  234   0.374   4.984   7.865 -0.0866  0.2622 -0.0675
    1AU     LIG  235   0.577   5.328   7.766 -0.0870  0.2749 -0.2939
    1AU       S  236   1.866   3.446   7.536 -0.2616  0.1411 -0.3022
    1AU     LIG  237   2.002   3.078   7.495  0.0449 -0.2356 -0.0233
    1AU     LIG  238   1.953   2.813   7.179  0.0295  0.0754 -0.1831
    1AU     LIG  239   1.707   2.539   6.963 -0.0343  0.1988  0.0730
    1AU     LIG  240   1.271   2.528   6.913  0.2625  0.2643 -0.0608
    1AU     LIG  241   1.070   2.189   6.871 -0.1377 -0.2913 -0.3594
    1AU     LIG  242   1.004   1.756   6.742 -0.0133 -0.1775  0.0673
    1AU    AUSL  243   1.788   3.983   7.493  0.0611  0.0972  0.1469
    1AU    AUSL  244   2.039   4.119   7.828  0.0601 -0.1095 -0.0002
    1AU     AUL  245   1.663   4.050   7.885 -0.0160  0.0306  0.0629
    1AU       S  246   1.783   3.673   7.627 -0.1179 -0.0615 -0.4016
    1AU     LIG  247   1.343   3.722   7.657 -0.1057 -0.1463  0.4938
    1AU     LIG  248   0.957   3.419   7.599  0.0505 -0.1065 -0.2372
    1AU     LIG  249   0.676   3.356   7.242  0.4562 -0.3850 -0.2868
    1AU     LIG  250   0.608   3.653   7.067 -0.0250  0.1710 -0.0248
    1AU     LIG  251   0.812   4.074   6.812  0.0630  0.1941 -0.1483
    1AU     LIG  252   0.748   4.587   6.787  0.0312 -0.3471  0.1952
    1AU       S  253   1.681   4.442   8.168 -0.5101  0.2180  0.3492
    1AU     LIG  254   1.328   4.620   7.885 -0.3121 -0.3598  0.1737
    1AU     LIG  255   0.964   4.679   7.653 -0.2343  0.0850 -0.0171
    1AU     LIG  256   0.576   4.843   7.443  0.0576  0.3132  0.0546
    1AU     LIG  257   0.349   4.722   7.031  0.6507  0.1561  0.1075
    1AU     LIG  258   0.241   4.551   6.665 -0.0727 -0.0961 -0.2010
    1AU     LIG  259   0.356   4.657   6.266  0.1128  0.2053 -0.3854
    1AU    AUSL  260   2.203   3.914   7.509  0.0007  0.0347  0.0069
    1AU    AUSL  261   2.537   3.623   7.513  0.1230  0.0270  0.0639
    1AU     AUL  262   2.303   3.545   7.609  0.0096  0.0209  0.0676
    1AU       S  263   2.550   3.608   7.949 -0.1994 -0.1975  0.3038
    1AU     LIG  264   2.447   3.143   7.866 -0.1971  0.0003  0.3383
    1AU     LIG  265   2.812   2.876   7.593 -0.2994 -0.2466  0.4579
    1AU     LIG  266   2.839   2.804   7.168  0.1055  0.1505 -0.1025
    1AU     LIG  267   2.867   2.897   6.800 -0.4120 -0.2920 -0.0598
    1AU     LIG  268   3.023   2.811   6.491 -0.0991  0.1921  0.1753
    1AU     LIG  269   3.350   2.702   6.244  0.1720 -0.2548 -0.0601
    1AU       S  270   1.881   3.630   7.801  0.4852  0.1265 -0.2714
    1AU     LIG  271   1.577   3.649   8.112 -0.1682  0.2751  0.0313
    1AU     LIG  272   1.370   3.956   8.285  0.1272 -0.1141  0.2473
    1AU     LIG  273   1.148   4.371   8.303 -0.0985  0.1553 -0.3377
    1AU     LIG  274   0.709   4.570   8.446  0.0067  0.1295  0.2252
    1AU     LIG  275   0.306   4.900   8.366 -0.4499  0.1141  0.1534
    1AU     LIG  276  -0.123   5.161   8.344  0.1065 -0.1545  0.3742
    1AU    AUSL  277   3.090   4.100   6.542 -0.0775 -0.1228 -0.0464
    1AU    AUSL  278   3.235   4.317   6.892 -0.0869  0.0251 -0.0461
    1AU     AUL  279   3.343   3.904   6.666 -0.0382 -0.0727 -0.0654
    1AU       S  280   3.497   4.319   6.873 -0.3234  0.2176  0.1024
    1AU     LIG  281   3.762   4.556   6.774 -0.2125 -0.1430 -0.1382
    1AU     LIG  282   4.134   4.839   6.661 -0.0817  0.5570 -0.0167
    1AU     LIG  283   4.556   4.871   6.669  0.0273  0.0843  0.3626
    1AU     LIG  284   4.833   5.230   6.707 -0.1475 -0.2095  0.2769
    1AU     LIG  285   4.921   5.677   6.663  0.2579  0.0015 -0.3121
    1AU     LIG  286   5.102   6.164   6.693  0.1367  0.3616 -0.2297
    1AU       S  287   3.386   4.254   6.367 -0.4565 -0.2097 -0.2824
    1AU     LIG  288   3.772   4.661   6.263 -0.1079  0.2845  0.1087
    1AU     LIG  289   3.979   5.105   6.329 -0.0586  0.2064 -0.2024
    1AU     LIG  290   4.162   5.363   6.671 -0.1735  0.0190  0.2986
    1AU     LIG  291   4.454   5.436   6.962  0.2887  0.5703  0.0751
    1AU     LIG  292   4.427   5.535   7.373  0.2164 -0.1608 -0.5359
    1AU     LIG  293   4.454   5.444   7.846  0.0205  0.2271  0.1391
    1AU    AUSL  294   2.783   4.379   6.553  0.0543  0.0703  0.0356
    1AU    AUSL  295   2.733   3.980   6.396 -0.0235 -0.0144  0.0250
    1AU     AUL  296   2.902   4.188   6.258 -0.0087  0.0464  0.0584
    1AU       S  297   3.339   4.365   6.166 -0.0182 -0.1760 -0.2449
    1AU     LIG  298   3.193   4.432   5.719  0.2186  0.1576 -0.0910
    1AU     LIG  299   2.932   4.654   5.419  0.2412  0.5099 -0.0682
    1AU     LIG  300   2.522   4.759   5.403 -0.1286 -0.2277  0.2964
    1AU     LIG  301   2.237   4.420   5.597  0.3644 -0.3391 -0.1597
    1AU     LIG  302   2.083   3.948   5.614  0.1792 -0.1003  0.0594
    1AU     LIG  303   1.862   3.566   5.620  0.2996 -0.0953  0.0238
    1AU       S  304   2.597   3.978   5.956  0.2148  0.0003  0.0529
    1AU     LIG  305   2.832   3.506   6.048 -0.0966 -0.0787  0.0766
    1AU     LIG  306   2.573   3.191   6.187 -0.0865  0.2134  0.2596
    1AU     LIG  307   2.518   2.820   6.350  0.0931 -0.7804 -0.1450
    1AU     LIG  308   2.729   2.408   6.368  0.0547  0.0566 -0.1400
    1AU     LIG  309   2.935   2.309   6.752  0.1891  0.0046  0.0612
    1AU     LIG  310   2.749   2.175   7.121 -0.2457  0.3088  0.0493
    1AU    AUSL  311   3.155   4.579   6.589 -0.0183  0.0551 -0.0344
    1AU    AUSL  312   2.798   4.778   6.453 -0.0361 -0.0328  0.1206
    1AU     AUL  313   2.947   4.631   6.230  0.0638  0.0275 -0.0045
    1AU       S  314   3.126   5.072   6.408  0.1864 -0.3000 -0.3522
    1AU     LIG  315   3.372   4.923   6.021 -0.0871 -0.0044 -0.4089
    1AU     LIG  316   3.698   4.674   5.762 -0.0790 -0.1486 -0.1055
    1AU     LIG  317   4.022   4.315   5.682  0.0140 -0.5993 -0.1831
    1AU     LIG  318   4.305   4.326   6.022 -0.0806 -0.1495  0.0946
    1AU     LIG  319   4.424   4.703   6.204 -0.2037 -0.0233 -0.1260
    1AU     LIG  320   4.815   4.674   6.317  0.2097  0.2036  0.2398
    1AU       S  321   3.342   4.613   6.488 -0.2438 -0.0893  0.7340
    1AU     LIG  322   3.590   5.018   6.650  0.1338  0.2028  0.0068
    1AU     LIG  323   3.601   5.426   6.771 -0.0212  0.2725  0.0954
    1AU     LIG  324   3.644   5.808   6.922 -0.3064 -0.1496  0.2551
    1AU     LIG  325   3.606   6.152   7.173  0.0350 -0.0138  0.1594
    1AU     LIG  326   3.559   6.593   7.070  0.0229 -0.0674  0.0131
    1AU     LIG  327   3.586   7.081   7.244 -0.2017 -0.0905 -0.0277
    1AU    AUSL  328   1.998   4.543   7.811  0.0707 -0.0124  0.0690
    1AU    AUSL  329   2.366   4.345   7.935  0.1125  0.0915 -0.0504
    1AU     AUL  330   2.139   4.192   8.086  0.0751 -0.0551  0.0288
    1AU       S  331   1.806   4.713   8.046  0.0676  0.2399  0.2933
    1AU     LIG  332   1.494   5.029   8.195  0.0346 -0.2840 -0.1543
    1AU     LIG  333   1.645   5.500   8.216 -0.1878 -0.1905  0.1392
    1AU     LIG  334   1.777   5.755   7.908 -0.1390  0.1987  0.2412
    1AU     LIG  335   1.741   6.141   7.677  0.2263 -0.1830  0.0121
    1AU     LIG  336   1.475   6.442   7.527 -0.1298 -0.2251 -0.1132
    1AU     LIG  337   1.399   6.395   7.102  0.2884 -0.0657  0.1685
    1AU       S  338   2.395   4.576   8.096 -0.1688 -0.4236 -0.1180
    1AU     LIG  339   2.501   4.246   8.409 -0.0784 -0.0228 -0.5816
    1AU     LIG  340   2.282   3.908   8.437 -0.0343 -0.2999 -0.3259
    1AU     LIG  341   1.992   3.581   8.546 -0.1290  0.4981 -0.1343
    1AU     LIG  342   2.014   3.020   8.512  0.1834 -0.1309  0.1866
    1AU     LIG  343   2.333   2.698   8.268 -0.0300 -0.3840  0.3169
    1AU     LIG  344   2.521   2.522   7.881 -0.1082 -0.2469  0.0749
    1AU    AUSL  345   2.000   4.321   7.463 -0.0131  0.1039 -0.0111
    1AU    AUSL  346   1.846   4.759   7.493  0.0559  0.0248 -0.0356
    1AU     AUL  347   1.658   4.420   7.622  0.0202  0.1139 -0.0634
    1AU       S  348   1.866   4.585   7.957 -0.2742  0.4709 -0.2136
    1AU     LIG  349   2.088   4.544   8.457  0.2043  0.2845  0.1794
    1AU     LIG  350   2.193   4.952   8.573 -0.2414 -0.0900 -0.0221
    1AU     LIG  351   1.786   5.317   8.640 -0.3331 -0.0496 -0.0654
    1AU     LIG  352   1.874   5.786   8.700  0.1669 -0.0531  0.3077
    1AU     LIG  353   1.852   6.010   9.131  0.2813  0.3346 -0.3230
    1AU     LIG  354   1.962   6.117   9.592  0.1323 -0.2364  0.1594
    1AU       S  355   1.430   4.860   7.483 -0.1681  0.3792 -0.1972
    1AU     LIG  356   1.508   5.300   7.616 -0.2969 -0.0723 -0.1746
    1AU     LIG  357   1.153   5.519   7.452 -0.2927  0.0048  0.3061
    1AU     LIG  358   0.754   5.752   7.258  0.0941 -0.1625 -0.1875
    1AU     LIG  359   0.450   6.016   7.479 -0.0665 -0.0559  0.0178
    1AU     LIG  360   0.046   5.938   7.598 -0.0393  0.0113 -0.3138
    1AU     LIG  361  -0.263   5.635   7.491  0.2360  0.2457  0.2742
    1AU    AUSL  362   2.765   5.081   6.762  0.0130 -0.0664  0.0736
    1AU    AUSL  363   2.428   4.956   6.504  0.0639  0.0639 -0.0076
    1AU     AUL  364   2.646   5.003   6.287 -0.0096 -0.0774 -0.0394
    1AU       S  365   2.335   5.345   6.484 -0.0772 -0.3446  0.0213
    1AU     LIG  366   2.220   5.873   6.389  0.3084  0.2679  0.0432
    1AU     LIG  367   2.186   6.220   6.511  0.0170  0.0119 -0.1781
    1AU     LIG  368   2.224   6.682   6.692  0.1278 -0.1704 -0.0164
    1AU     LIG  369   1.866   6.977   6.619  0.0143  0.3005 -0.0724
    1AU     LIG  370   1.695   7.286   6.345 -0.2633 -0.1053  0.1343
    1AU     LIG  371   1.622   7.421   5.887 -0.1536 -0.0161  0.3058
    1AU       S  372   2.924   5.227   6.568  0.4949  0.1830  0.0360
    1AU     LIG  373   3.176   5.587   6.657 -0.0228 -0.2153 -0.1957
    1AU     LIG  374   3.417   5.901   6.483 -0.0857 -0.2817  0.0143
    1AU     LIG  375   3.838   6.150   6.497  0.0840 -0.1513 -0.0574
    1AU     LIG  376   4.240   6.162   6.599 -0.1191 -0.5723 -0.0285
    1AU     LIG  377   4.605   6.046   6.904 -0.2671 -0.0115  0.0009
    1AU     LIG  378   4.859   6.275   7.122 -0.1699 -0.1685  0.1374
    1AU    AUSL  379   2.871   4.685   6.856  0.0613 -0.0891 -0.0714
    1AU    AUSL  380   2.856   4.990   7.164  0.0664  0.0478 -0.0368
    1AU     AUL  381   3.136   5.003   6.897 -0.0334  0.0966 -0.0097
    1AU       S  382   3.228   5.310   7.279  0.1245  0.0957 -0.4176
    1AU     LIG  383   3.583   5.615   7.427  0.1541 -0.0722  0.0213
    1AU     LIG  384   3.873   5.887   7.526 -0.0398 -0.2894 -0.0418
    1AU     LIG  385   4.184   6.273   7.372  0.1264 -0.0585 -0.0573
    1AU     LIG  386   4.221   6.420   7.014  0.1259  0.0266 -0.2099
    1AU     LIG  387   3.942   6.568   6.741  0.0153 -0.1699 -0.2398
    1AU     LIG  388   3.896   6.538   6.256 -0.2450  0.0186 -0.2653
    1AU       S  389   3.092   5.062   6.448  0.1458 -0.2510 -0.2126
    1AU     LIG  390   3.527   5.350   6.222 -0.0157  0.0482 -0.1938
    1AU     LIG  391   3.786   5.646   6.271 -0.2693  0.0789 -0.0046
    1AU     LIG  392   4.191   5.761   6.411  0.2745 -0.1379  0.0375
    1AU     LIG  393   4.572   5.968   6.251  0.2188  0.0308 -0.2585
    1AU     LIG  394   4.960   5.803   6.108 -0.4708 -0.1049  0.2538
    1AU     LIG  395   5.380   5.707   5.940  0.1959 -0.2502  0.3022
    1AU    AUSL  396   3.010   3.699   7.297  0.0121 -0.0321  0.0684
    1AU    AUSL  397   2.933   4.033   6.921 -0.0748  0.0315 -0.0567
    1AU     AUL  398   3.255   3.750   7.112  0.0019  0.0076  0.0161
    1AU       S  399   3.578   4.057   7.032  0.0850  0.1088 -0.2885
    1AU     LIG  400   3.828   4.063   6.618  0.6131  0.2271  0.4092
    1AU     LIG  401   4.148   4.314   6.504  0.5698 -0.1867  0.1084
    1AU     LIG  402   4.586   4.375   6.604  0.1099 -0.0296  0.0783
    1AU     LIG  403   4.860   4.388   6.751  0.0252  0.1628  0.2821
    1AU     LIG  404   5.061   4.844   6.760 -0.0122 -0.1348  0.1297
    1AU     LIG  405   5.338   5.051   6.491 -0.0472 -0.2224 -0.0696
    1AU       S  406   3.079   3.297   7.165 -0.0803 -0.0826 -0.3721
    1AU     LIG  407   3.375   2.967   7.012 -0.0639  0.0843 -0.1082
    1AU     LIG  408   3.409   2.515   6.728  0.1553  0.1502  0.0898
    1AU     LIG  409   3.388   2.102   6.871 -0.0018 -0.1894  0.2146
    1AU     LIG  410   3.513   1.661   7.054  0.0294 -0.0173  0.2700
    1AU     LIG  411   3.660   1.429   7.424  0.3368 -0.2856  0.3923
    1AU     LIG  412   3.670   1.463   7.837  0.1143 -0.1427  0.2754
    1AU    AUSL  413   2.948   3.647   6.794  0.0745  0.0499  0.0423
    1AU    AUSL  414   2.361   3.494   6.843  0.0358 -0.0244 -0.0211
    1AU     AUL  415   2.780   3.436   6.596  0.0805  0.0564  0.0271
    1AU       S  416   3.042   3.313   6.961  0.0065 -0.2201  0.2011
    1AU     LIG  417   3.532   3.425   6.917 -0.2199  0.1035  0.3172
    1AU     LIG  418   3.971   3.599   6.790  0.1752  0.0464  0.1318
    1AU     LIG  419   4.298   3.881   6.680 -0.1949  0.2264 -0.3002
    1AU     LIG  420   4.629   4.004   6.990  0.1862 -0.2755 -0.0381
    1AU     LIG  421   4.982   4.124   7.231 -0.1657  0.0439 -0.2266
    1AU     LIG  422   5.332   4.116   7.532  0.1181  0.0600 -0.3061
    1AU       S  423   2.314   3.231   6.648 -0.1305 -0.1613  0.3646
    1AU     LIG  424   2.085   2.816   6.600 -0.1180  0.3332 -0.2112
    1AU     LIG  425   1.740   2.676   6.434 -0.3784  0.2173 -0.0560
    1AU     LIG  426   1.696   2.234   6.154  0.1228  0.0737 -0.2046
    1AU     LIG  427   1.620   1.843   6.104  0.1762 -0.0304 -0.0817
    1AU     LIG  428   1.906   1.476   5.982  0.0616 -0.3132  0.5126
    1AU     LIG  429   2.249   1.194   5.719 -0.0509 -0.3358  0.2073
    1AU    AUSL  430   2.648   3.616   7.116 -0.0752  0.0407 -0.0167
    1AU    AUSL  431   2.736   3.965   7.400 -0.1410 -0.0267  0.0385
    1AU     AUL  432   2.802   3.530   7.481 -0.0402  0.1016  0.0259
    1AU       S  433   2.654   3.555   7.936 -0.1664  0.1470 -0.4839
    1AU     LIG  434   2.928   3.199   7.961 -0.3390  0.0557 -0.0274
    1AU     LIG  435   3.195   3.222   7.654 -0.0699  0.0128 -0.0367
    1AU     LIG  436   3.538   3.145   7.417 -0.1990 -0.1892 -0.1658
    1AU     LIG  437   3.837   2.904   7.525 -0.4149  0.0616 -0.2220
    1AU     LIG  438   4.285   2.941   7.334  0.0521  0.1127 -0.3398
    1AU     LIG  439   4.666   2.749   7.360  0.1251 -0.3312  0.1162
    1AU       S  440   2.742   3.321   7.077  0.1378  0.1358 -0.2348
    1AU     LIG  441   2.486   3.148   7.350  0.4442 -0.0311 -0.1691
    1AU     LIG  442   2.313   2.694   7.481  0.3857  0.0962  0.1154
    1AU     LIG  443   2.108   2.339   7.697 -0.3043  0.1771 -0.4878
    1AU     LIG  444   1.934   2.309   8.146 -0.2708 -0.2460  0.1573
    1AU     LIG  445   1.999   2.340   8.571  0.3972  0.1916  0.0872
    1AU     LIG  446   2.041   2.130   8.970  0.2347  0.0767  0.1613
    1AU    AUSL  447   2.691   4.886   7.564  0.0262  0.0003 -0.0250
    1AU    AUSL  448   2.349   4.625   7.607 -0.0030 -0.0511  0.0737
    1AU     AUL  449   2.716   4.910   7.872  0.0445 -0.0275 -0.0505
    1AU       S  450   2.582   5.353   7.835  0.1494  0.2840  0.2898
    1AU     LIG  451   3.012   5.386   7.873 -0.1061 -0.2010  0.1610
    1AU     LIG  452   3.235   5.677   7.753 -0.0779 -0.7761 -0.0948
    1AU     LIG  453   3.339   6.096   7.574  0.0770 -0.1034 -0.0120
    1AU     LIG  454   3.134   6.340   7.161 -0.0602 -0.2562 -0.1095
    1AU     LIG  455   3.058   6.727   6.990 -0.0670 -0.1646  0.3432
    1AU     LIG  456   3.188   7.003   6.867  0.4137 -0.8140 -0.1788
    1AU       S  457   2.280   4.835   8.079 -0.3769 -0.0624 -0.1786
    1AU     LIG  458   1.987   5.151   8.115  0.5009  0.1720  0.4583
    1AU     LIG  459   2.156   5.523   8.198  0.2613 -0.2001  0.0315
    1AU     LIG  460   2.277   5.918   7.931  0.1635 -0.0154 -0.2908
    1AU     LIG  461   2.651   6.167   7.844 -0.1011 -0.2687 -0.2190
    1AU     LIG  462   2.828   6.516   7.577  0.3129 -0.0258 -0.0011
    1AU     LIG  463   2.727   6.882   7.432  0.3651 -0.1286 -0.0267
    1AU    AUSL  464   2.514   5.163   7.317 -0.0344 -0.0150 -0.0476
    1AU    AUSL  465   3.105   4.876   7.491 -0.0794 -0.0072 -0.1740
    1AU     AUL  466   2.813   5.184   7.478  0.1033 -0.1614  0.0029
    1AU       S  467   2.529   5.436   7.782 -0.3431 -0.0669 -0.0189
    1AU     LIG  468   2.538   5.781   7.522  0.0533  0.0893 -0.0001
    1AU     LIG  469   2.748   6.100   7.321  0.2862  0.0893  0.0278
    1AU     LIG  470   2.570   6.529   7.074  0.1999  0.0953 -0.0058
    1AU     LIG  471   2.752   6.518   6.669  0.3879  0.0713  0.0720
    1AU     LIG  472   3.041   6.807   6.475  0.0264 -0.2166 -0.2279
    1AU     LIG  473   3.137   7.147   6.312  0.6573  0.1150  0.1439
    1AU       S  474   3.254   5.045   7.457 -0.1148  0.4066 -0.5865
    1AU     LIG  475   3.470   5.229   7.720 -0.0095  0.0414  0.1642
    1AU     LIG  476   3.716   5.576   7.949 -0.0923  0.1268  0.1794
    1AU     LIG  477   3.641   5.707   8.339  0.1403 -0.0587  0.1781
    1AU     LIG  478   3.900   5.911   8.499 -0.6018 -0.1111 -0.0530
    1AU     LIG  479   4.201   5.756   8.740  0.3439  0.0300 -0.3870
    1AU     LIG  480   4.524   5.599   9.010 -0.0365 -0.0911  0.0197
    1AU    AUSL  481   2.296   5.023   7.665  0.0247  0.0353 -0.0608
    1AU    AUSL  482   2.218   5.200   7.010 -0.0730  0.0858 -0.0854
    1AU     AUL  483   2.295   5.369   7.386 -0.0328  0.0080  0.0032
    1AU       S  484   1.996   5.539   7.014 -0.3288 -0.0565 -0.4131
    1AU     LIG  485   1.953   5.909   6.810  0.0418 -0.2585 -0.2184
    1AU     LIG  486   1.689   6.283   6.736 -0.3798  0.0481 -0.1361
    1AU     LIG  487   1.243   6.364   6.634  0.1053  0.0034  0.0706
    1AU     LIG  488   0.958   6.548   6.889 -0.0847 -0.1055  0.0588
    1AU     LIG  489   1.076   6.729   7.220 -0.2525  0.0460 -0.4959
    1AU     LIG  490   1.413   6.980   7.336  0.1731  0.1341 -0.0147
    1AU       S  491   2.325   5.199   7.772 -0.0298  0.0682 -0.2349
    1AU     LIG  492   1.974   5.389   7.665  0.2819 -0.2925 -0.2125
    1AU     LIG  493   2.020   5.789   7.454  0.1784 -0.0624 -0.0093
    1AU     LIG  494   2.221   6.243   7.605 -0.1428 -0.0919  0.1389
    1AU     LIG  495   2.320   6.671   7.735  0.1006 -0.0585  0.3913
    1AU     LIG  496   2.412   7.184   7.634 -0.1136 -0.3512 -0.2890
    1AU     LIG  497   2.320   7.659   7.493  0.1265  0.0802  0.0841
    1AU    AUSL  498   2.227   3.774   6.531  0.0070 -0.1121  0.0395
    1AU    AUSL  499   2.213   3.835   7.011  0.0544 -0.0642 -0.0582
    1AU     AUL  500   1.970   3.627   6.728 -0.0447  0.1435 -0.0035
    1AU       S  501   2.181   3.393   6.405  0.1111 -0.5653  0.2014
    1AU     LIG  502   1.809   3.244   6.505  0.1255 -0.2435  0.0275
    1AU     LIG  503   1.469   2.965   6.723 -0.3410 -0.0681  0.0318
    1AU     LIG  504   1.014   2.948   6.619 -0.0376 -0.2842  0.2134
    1AU     LIG  505   0.560   3.130   6.804  0.3597 -0.4420  0.0618
    1AU     LIG  506   0.253   3.185   6.959  0.0906  0.2985 -0.2129
    1AU     LIG  507   0.151   2.935   7.330  0.2106  0.0495  0.4224
    1AU       S  508   1.712   3.665   7.146  0.1282 -0.2127 -0.0703
    1AU     LIG  509   1.496   3.226   7.310 -0.0477  0.2493 -0.0751
    1AU     LIG  510   1.499   2.776   7.376 -0.2579  0.1102 -0.0872
    1AU     LIG  511   1.643   2.388   7.406  0.1888  0.1485 -0.0412
    1AU     LIG  512   1.311   2.039   7.445  0.1122  0.1038 -0.2603
    1AU     LIG  513   0.975   1.888   7.294 -0.4065 -0.3284  0.0192
    1AU     LIG  514   0.831   1.399   7.050 -0.1587  0.3303 -0.1950
    1AU    AUSL  515   2.581   3.825   6.743 -0.0656 -0.0322 -0.0811
    1AU    AUSL  516   2.389   4.144   6.568  0.0018  0.0505 -0.0600
    1AU     AUL  517   2.505   3.741   6.383 -0.1351 -0.0704 -0.0017
    1AU       S  518   2.376   3.379   6.793 -0.2898 -0.0494  0.3673
    1AU     LIG  519   2.434   2.891   6.941 -0.4638 -0.0501 -0.2440
    1AU     LIG  520   2.352   2.477   6.879 -0.0841  0.0767 -0.0644
    1AU     LIG  521   2.482   2.078   6.704 -0.1072 -0.0286 -0.3465
    1AU     LIG  522   2.504   1.734   7.007 -0.1811  0.0404 -0.0627
    1AU     LIG  523   2.606   1.380   7.209  0.2832 -0.0358  0.1623
    1AU     LIG  524   2.708   0.961   7.155 -0.2039  0.1693  0.0660
    1AU       S  525   2.319   3.979   6.056  0.1009 -0.2827 -0.0667
    1AU     LIG  526   2.149   3.601   6.005 -0.0119  0.0357  0.4608
    1AU     LIG  527   2.105   3.157   5.932  0.0281 -0.2782  0.0691
    1AU     LIG  528   2.063   2.803   6.085 -0.1427  0.0048 -0.0059
    1AU     LIG  529   2.143   2.374   6.264  0.0779 -0.0381  0.0513
    1AU     LIG  530   1.952   2.166   6.580 -0.0687  0.1888  0.3255
    1AU     LIG  531   2.068   2.083   6.998 -0.0939  0.0777 -0.1129
    1AU    AUSL  532   1.836   4.979   7.033 -0.0667  0.0152 -0.0641
    1AU    AUSL  533   2.449   4.889   6.922 -0.0959  0.0262  0.0554
    1AU     AUL  534   2.044   5.147   6.800  0.0294 -0.0911 -0.0659
    1AU       S  535   2.415   5.387   6.658  0.2735 -0.0443 -0.0843
    1AU     LIG  536   2.461   5.830   6.892  0.0368  0.0838  0.2396
    1AU     LIG  537   2.228   6.189   7.122  0.2374  0.2002  0.1879
    1AU     LIG  538   1.869   6.272   7.243 -0.1679  0.2535 -0.1746
    1AU     LIG  539   1.851   6.675   7.063 -0.1595 -0.1575 -0.2065
    1AU     LIG  540   1.504   6.801   6.893 -0.1527  0.0201 -0.0803
    1AU     LIG  541   1.125   7.012   6.800  0.1528 -0.2693  0.1743
    1AU       S  542   1.740   5.365   7.081 -0.2717 -0.0539 -0.1428
    1AU     LIG  543   1.377   5.273   6.959  0.2615  0.0757  0.1045
    1AU     LIG  544   0.979   5.525   6.800  0.1941 -0.0262 -0.1186
    1AU     LIG  545   0.533   5.703   6.789 -0.1640 -0.3230  0.0535
    1AU     LIG  546   0.279   5.943   6.913 -0.0561 -0.0667 -0.2177
    1AU     LIG  547   0.052   6.126   7.149 -0.1996 -0.1534  0.1746
    1AU     LIG  548  -0.177   6.552   7.218 -0.0080 -0.0033  0.1038
    1AU    AUSL  549   2.184   4.897   7.294 -0.0454 -0.0144  0.0339
    1AU    AUSL  550   1.962   4.599   7.103  0.0669 -0.0311 -0.0210
    1AU     AUL  551   1.871   5.018   7.376  0.0580  0.1397 -0.0347
    1AU       S  552   1.874   5.412   7.193  0.3535 -0.7550  0.0190
    1AU     LIG  553   1.560   5.852   7.219  0.0180  0.2173  0.3650
    1AU     LIG  554   1.254   5.980   7.484 -0.0138 -0.0256 -0.0109
    1AU     LIG  555   0.895   5.853   7.767  0.1295 -0.0897  0.0566
    1AU     LIG  556   0.500   5.798   7.985  0.3289 -0.0277  0.0172
    1AU     LIG  557   0.462   5.405   8.237 -0.1239  0.2018  0.3020
    1AU     LIG  558   0.522   5.531   8.705 -0.1640  0.0164 -0.1047
    1AU       S  559   1.418   4.851   7.249 -0.4430  0.3637 -0.1611
    1AU     LIG  560   1.034   5.019   7.279 -0.0290 -0.1370 -0.0177
    1AU     LIG  561   0.643   5.285   7.133 -0.3087  0.1904  0.0148
    1AU     LIG  562   0.344   5.264   6.836 -0.1828  0.0547 -0.1223
    1AU     LIG  563  -0.006   4.966   6.677 -0.1526 -0.0896 -0.3313
    1AU     LIG  564  -0.312   4.665   6.813  0.1854  0.2409 -0.1630
    1AU     LIG  565  -0.645   4.323   6.768 -0.0967 -0.0418  0.0361
    2POPC   NC3  566   1.047   7.477   9.611 -0.0012  0.0566 -0.1939
    2POPC   PO4  567   0.890   7.730   9.341  0.1939 -0.0411  0.2865
    2POPC   GL1  568   1.132   7.619   8.916 -0.3640 -0.2561 -0.1417
    2POPC   GL2  569   1.001   7.780   8.681 -0.1726 -0.0303  0.1250
    2POPC   C1A  570   1.440   7.370   8.601 -0.0112 -0.1059  0.0243
    2POPC   D2A  571   1.591   7.086   8.361 -0.1425 -0.2174  0.2073
    2POPC   C3A  572   1.386   6.829   7.965 -0.1691 -0.3504  0.2083
    2POPC   C4A  573   1.525   6.395   8.083 -0.0842 -0.0554  0.2404
    2POPC   C1B  574   0.666   7.624   8.390 -0.1688 -0.1998 -0.0361
    2POPC   C2B  575   0.522   7.707   7.947  0.0901  0.1637  0.1509
    2POPC   C3B  576   0.204   7.950   7.832 -0.1662 -0.0849  0.1389
    2POPC   C4B  577  -0.073   8.246   7.883 -0.1177  0.2287 -0.0765
    3POPC   NC3  578   2.507   1.176   9.771 -0.3021  0.1488 -0.2127
    3POPC   PO4  579   2.752   0.839   9.498  0.1322 -0.2038  0.0440
    3POPC   GL1  580   2.883   0.824   9.116  0.0290 -0.2002 -0.3398
    3POPC   GL2  581   2.617   0.877   9.003  0.2528  0.3922  0.0600
    3POPC   C1A  582   3.045   0.686   8.681 -0.0794  0.2308 -0.1430
    3POPC   D2A  583   3.175   0.626   8.324 -0.2436 -0.1982  0.0711
    3POPC   C3A  584   3.303   0.741   7.981  0.2993  0.2699  0.0735
    3POPC   C4A  585   3.562   0.785   7.598  0.0708 -0.0935 -0.2595
    3POPC   C1B  586   2.563   0.916   8.590 -0.0516  0.0676  0.0680
    3POPC   C2B  587   2.553   0.722   8.126  0.0200 -0.0020  0.3522
    3POPC   C3B  588   2.460   0.641   7.776  0.0044 -0.2315 -0.1576
    3POPC   C4B  589   2.140   0.535   7.563 -0.1451  0.5199  0.1161
    4POPC   NC3  590   5.621   7.341   9.558  0.2146  0.3236 -0.2824
    4POPC   PO4  591   5.219   7.363   9.201  0.2685  0.0436  0.1405
    4POPC   GL1  592   5.161   7.317   8.753  0.1390  0.2346 -0.0559
    4POPC   GL2  593   5.368   7.629   8.808  0.2492  0.0748  0.2140
    4POPC   C1A  594   5.053   7.210   8.367 -0.1113 -0.0775  0.1388
    4POPC   D2A  595   4.753   6.930   8.292 -0.1657 -0.0407 -0.1904
    4POPC   C3A  596   4.771   6.773   7.897  0.1259  0.0395  0.0879
    4POPC   C4A  597   4.673   6.536   7.518  0.1428  0.0093 -0.2855
    4POPC   C1B  598   5.357   7.602   8.309 -0.0791  0.2026  0.1789
    4POPC   C2B  599   5.256   7.400   7.901  0.4127 -0.0817  0.0073
    4POPC   C3B  600   5.357   7.071   7.586 -0.3510  0.1615  0.1709
    4POPC   C4B  601   5.069   6.925   7.364 -0.0306 -0.1729  0.0442
    5POPC   NC3  602   4.369   9.940   9.340 -0.0417 -0.0683 -0.1330
    5POPC   PO4  603   3.902   9.981   9.037 -0.2080 -0.2208 -0.1412
    5POPC   GL1  604   3.548   9.876   8.717 -0.1235  0.1323 -0.2819
    5POPC   GL2  605   3.227  10.071   8.699  0.2644 -0.0693  0.4861
    5POPC   C1A  606   3.378   9.718   8.251  0.1417  0.1820 -0.0462
    5POPC   D2A  607   3.130   9.354   8.156  0.0104 -0.2808  0.2417
    5POPC   C3A  608   3.371   9.225   7.835  0.3308 -0.2923 -0.1129
    5POPC   C4A  609   3.537   8.926   7.653 -0.0662  0.0535 -0.2936
    5POPC   C1B  610   3.027  10.032   8.374  0.1064  0.2108 -0.0545
    5POPC   C2B  611   2.866   9.996   7.946  0.1767  0.1046 -0.4477
    5POPC   C3B  612   3.134  10.037   7.700  0.4268 -0.2496 -0.1970
    5POPC   C4B  613   3.179  10.222   7.243  0.0726  0.1880 -0.1639
    6POPC   NC3  614   3.916   1.740   9.445  0.3334  0.0089  0.0142
    6POPC   PO4  615   3.500   1.430   9.291  0.0507 -0.4449  0.1845
    6POPC   GL1  616   3.411   1.728   8.997 -0.2491 -0.1170 -0.4631
    6POPC   GL2  617   3.723   1.886   8.997  0.1539  0.0387 -0.0232
    6POPC   C1A  618   3.213   1.602   8.607  0.0585 -0.0526  0.0717
    6POPC   D2A  619   3.032   1.671   8.137 -0.0146  0.2059 -0.2582
    6POPC   C3A  620   3.235   1.771   7.798 -0.0268 -0.0636 -0.1257
    6POPC   C4A  621   3.385   2.035   7.521 -0.4229 -0.0308  0.1884
    6POPC   C1B  622   3.630   1.898   8.551 -0.1140 -0.0811  0.2696
    6POPC   C2B  623   3.357   2.016   8.259  0.2398 -0.4173  0.0450
    6POPC   C3B  624   3.145   2.313   7.870  0.3258 -0.1118 -0.2702
    6POPC   C4B  625   2.919   2.389   7.576  0.2370  0.0505  0.0186
    7POPC   NC3  626   0.436   9.584   9.496 -0.0464  0.0012 -0.0041
    7POPC   PO4  627   0.723   9.576   9.173 -0.0675 -0.2120 -0.0042
    7POPC   GL1  628   0.860   9.714   8.787  0.2067 -0.0952 -0.0173
    7POPC   GL2  629   1.151   9.513   8.611  0.3434 -0.2891  0.1624
    7POPC   C1A  630   0.723   9.554   8.450  0.0671  0.0094 -0.2176
    7POPC   D2A  631   0.626   9.357   8.017  0.1881 -0.0240 -0.1898
    7POPC   C3A  632   0.598   9.618   7.554  0.2179 -0.1483 -0.2118
    7POPC   C4A  633   0.382   9.339   7.206  0.4796 -0.0753 -0.0254
    7POPC   C1B  634   1.147   9.363   8.219  0.0272  0.1403 -0.1600
    7POPC   C2B  635   1.028   9.092   7.953  0.2365  0.0630  0.0408
    7POPC   C3B  636   0.814   9.165   7.598 -0.0613 -0.0368  0.2514
    7POPC   C4B  637   0.854   9.065   7.155  0.0110  0.0971 -0.1780
    8POPC   NC3  638   3.089   1.187   9.406 -0.0167 -0.0738 -0.0254
    8POPC   PO4  639   3.436   0.906   9.422  0.2987  0.1513  0.1063
    8POPC   GL1  640   3.234   1.110   8.943  0.1278  0.0131 -0.0574
    8POPC   GL2  641   3.505   1.259   8.689 -0.1019  0.1797  0.0882
    8POPC   C1A  642   3.023   1.180   8.575  0.0384  0.0270  0.0887
    8POPC   D2A  643   2.861   1.213   8.181  0.3359  0.3500  0.2002
    8POPC   C3A  644   2.342   1.205   8.162 -0.1952  0.3352  0.0660
    8POPC   C4A  645   2.097   1.435   8.085  0.2667  0.2703 -0.2001
    8POPC   C1B  646   3.392   1.185   8.208  0.1267 -0.0114  0.1378
    8POPC   C2B  647   3.182   1.231   7.836  0.0497 -0.1482 -0.0037
    8POPC   C3B  648   3.000   1.448   7.501  0.1834  0.4442  0.0139
    8POPC   C4B  649   3.015   1.804   7.265 -0.2518 -0.1556  0.1257
    9POPC   NC3  650   4.497   5.288   9.862  0.3094 -0.1252 -0.1144
    9POPC   PO4  651   4.781   5.559   9.596 -0.0162 -0.1123 -0.1918
    9POPC   GL1  652   5.001   5.539   9.222 -0.1698 -0.0639  0.1510
    9POPC   GL2  653   5.421   5.529   9.252  0.3042 -0.2226 -0.3070
    9POPC   C1A  654   5.092   5.799   8.819 -0.0441  0.2173  0.1002
    9POPC   D2A  655   5.152   5.933   8.357  0.3046 -0.1553  0.1273
    9POPC   C3A  656   4.798   5.826   8.048 -0.1574 -0.0253  0.1011
    9POPC   C4A  657   4.502   6.237   7.883  0.1091  0.0276  0.0829
    9POPC   C1B  658   5.490   5.448   8.810 -0.0050 -0.1798 -0.1113
    9POPC   C2B  659   5.419   5.105   8.443  0.2779 -0.0755 -0.2087
    9POPC   C3B  660   5.231   4.816   8.127 -0.2024 -0.1341  0.1801
    9POPC   C4B  661   5.096   4.457   7.838 -0.1123 -0.1694  0.3301
   10POPC   NC3  662   6.564   8.956   9.263 -0.1551  0.0809 -0.4283
   10POPC   PO4  663   6.485   9.314   9.099 -0.3525 -0.0501 -0.3013
   10POPC   GL1  664   6.585   9.181   8.692 -0.1645  0.1494 -0.2850
   10POPC   GL2  665   6.861   9.344   8.531  0.1770  0.1697  0.5631
   10POPC   C1A  666   6.475   9.076   8.283  0.3216 -0.3932  0.1364
   10POPC   D2A  667   6.205   9.213   7.948 -0.1474 -0.0274 -0.0837
   10POPC   C3A  668   5.945   9.666   7.976  0.1649 -0.3833  0.0292
   10POPC   C4A  669   5.593   9.793   7.716 -0.0961 -0.1756 -0.1672
   10POPC   C1B  670   6.982   9.096   8.188  0.0272  0.1043  0.3929
   10POPC   C2B  671   7.052   8.856   7.864 -0.1830  0.1536  0.1322
   10POPC   C3B  672   6.915   8.969   7.453 -0.1684  0.2353  0.0562
   10POPC   C4B  673   6.802   8.691   7.207  0.0605 -0.1859  0.0370
   11POPC   NC3  674   7.085   5.591   8.971 -0.0829 -0.0867 -0.1444
   11POPC   PO4  675   6.712   5.674   8.978  0.0621  0.1425 -0.0906
   11POPC   GL1  676   6.789   5.360   8.614 -0.1005  0.1772 -0.0659
   11POPC   GL2  677   6.798   5.555   8.420 -0.1961  0.1061  0.2964
   11POPC   C1A  678   6.841   5.067   8.209  0.1826  0.3219  0.1007
   11POPC   D2A  679   7.034   5.041   7.787 -0.1318 -0.2763 -0.0782
   11POPC   C3A  680   7.478   5.098   7.721 -0.2154  0.1410  0.0210
   11POPC   C4A  681   7.886   4.772   7.538  0.4461 -0.2159  0.0948
   11POPC   C1B  682   6.814   5.481   8.010 -0.2728  0.1635  0.0749
   11POPC   C2B  683   7.061   5.458   7.485 -0.0855 -0.1130  0.3090
   11POPC   C3B  684   7.472   5.449   7.279  0.0574 -0.3215  0.0252
   11POPC   C4B  685   7.715   5.706   7.045 -0.1931  0.0698 -0.2401
   12POPC   NC3  686   0.953   8.288   9.013 -0.1462  0.1788 -0.0078
   12POPC   PO4  687   1.265   8.002   9.204  0.0262 -0.0365  0.1507
   12POPC   GL1  688   1.452   7.957   8.716  0.1340  0.3107 -0.0076
   12POPC   GL2  689   1.263   8.198   8.592 -0.1449 -0.0263  0.0664
   12POPC   C1A  690   1.452   7.863   8.289 -0.1211 -0.1869  0.1128
   12POPC   D2A  691   1.014   8.003   8.163 -0.0699  0.0720  0.0463
   12POPC   C3A  692   0.999   7.907   7.742  0.0205 -0.3763  0.0455
   12POPC   C4A  693   0.943   7.518   7.479 -0.1327  0.1154 -0.1353
   12POPC   C1B  694   1.450   8.583   8.534 -0.0095  0.0643  0.2983
   12POPC   C2B  695   1.417   8.915   8.284  0.1264  0.0255  0.2548
   12POPC   C3B  696   1.428   8.786   7.837  0.2114  0.1508 -0.2269
   12POPC   C4B  697   1.266   8.944   7.542 -0.1529 -0.1229 -0.1367
   13POPC   NC3  698   7.942   9.638   9.038 -0.1613  0.0300  0.0420
   13POPC   PO4  699   7.939   9.322   8.646  0.0431 -0.2258  0.0317
   13POPC   GL1  700   7.719   9.476   8.349  0.1356  0.0194  0.0542
   13POPC   GL2  701   7.351   9.422   8.404  0.0300  0.0709 -0.2154
   13POPC   C1A  702   7.552   9.718   8.040 -0.0407  0.1544 -0.3544
   13POPC   D2A  703   7.388   9.586   7.600  0.1427 -0.2228 -0.1861
   13POPC   C3A  704   7.704   9.251   7.417 -0.2410  0.1260  0.2691
   13POPC   C4A  705   7.909   8.872   7.130 -0.0768  0.0372  0.0185
   13POPC   C1B  706   7.042   9.541   8.024  0.2969  0.0464  0.1482
   13POPC   C2B  707   6.724   9.270   7.794  0.3410  0.1425 -0.0818
   13POPC   C3B  708   6.392   9.412   7.530  0.2463 -0.1052 -0.1481
   13POPC   C4B  709   5.985   9.439   7.493  0.1413  0.0173 -0.2646
   14POPC   NC3  710   9.523   4.877   9.418  0.1636  0.0771  0.2012
   14POPC   PO4  711   9.741   5.201   9.297  0.3923  0.1227  0.0346
   14POPC   GL1  712   9.906   5.169   8.842  0.0475 -0.1873 -0.2021
   14POPC   GL2  713   9.843   4.901   8.800  0.1806 -0.1016  0.0914
   14POPC   C1A  714  10.355   5.186   8.733  0.2707  0.1775  0.3150
   14POPC   D2A  715  10.765   4.932   8.831  0.4018 -0.0564  0.3214
   14POPC   C3A  716  11.037   5.056   8.504  0.4472 -0.3618  0.2183
   14POPC   C4A  717  10.995   5.052   8.104  0.0196 -0.2560 -0.1387
   14POPC   C1B  718   9.898   4.690   8.419  0.0621  0.1017 -0.2543
   14POPC   C2B  719  10.135   4.761   8.025  0.0253  0.2477 -0.0607
   14POPC   C3B  720  10.287   4.635   7.590  0.0127 -0.0676 -0.0269
   14POPC   C4B  721  10.156   4.449   7.210  0.1035 -0.1609 -0.0973
   15POPC   NC3  722   6.227  10.002   9.090  0.0784  0.0530  0.0544
   15POPC   PO4  723   6.173  10.487   8.774  0.1290 -0.2477  0.2005
   15POPC   GL1  724   5.861  10.635   8.492  0.0636  0.3617 -0.2170
   15POPC   GL2  725   5.555  10.436   8.499 -0.4572  0.2953  0.0223
   15POPC   C1A  726   5.992  10.646   8.098  0.1223  0.0031  0.0227
   15POPC   D2A  727   5.660  10.575   7.769 -0.0173 -0.3192  0.0151
   15POPC   C3A  728   5.227  10.655   7.745 -0.1229  0.0267 -0.1180
   15POPC   C4A  729   4.782  10.899   7.620  0.0902  0.0972 -0.3223
   15POPC   C1B  730   5.761  10.246   8.201  0.1736  0.2185  0.0233
   15POPC   C2B  731   6.012  10.148   7.832  0.0892  0.2053 -0.1302
   15POPC   C3B  732   6.162  10.329   7.496  0.0880 -0.0498 -0.3309
   15POPC   C4B  733   6.125  10.320   7.107 -0.2591 -0.0203 -0.4016
   16POPC   NC3  734   0.033   3.770   9.428 -0.0217 -0.1620 -0.1713
   16POPC   PO4  735  -0.089   4.094   9.217  0.2233  0.1467 -0.1803
   16POPC   GL1  736   0.104   3.809   8.933  0.1303  0.0323  0.4373
   16POPC   GL2  737  -0.113   3.813   8.710 -0.2426  0.0947 -0.3217
   16POPC   C1A  738   0.504   3.624   8.802  0.0083  0.0356 -0.0158
   16POPC   D2A  739   0.604   3.396   8.366 -0.1480  0.1768  0.3825
   16POPC   C3A  740   0.674   3.512   7.966  0.1666 -0.1932  0.1279
   16POPC   C4A  741   0.456   3.765   7.637  0.0277 -0.0018  0.0225
   16POPC   C1B  742   0.250   3.814   8.416 -0.0252  0.1137 -0.4388
   16POPC   C2B  743   0.531   3.955   8.089  0.2002  0.1736 -0.0562
   16POPC   C3B  744   0.948   3.939   7.926 -0.2314 -0.1360 -0.1106
   16POPC   C4B  745   1.205   4.160   7.705  0.0729 -0.2794  0.1426
   17POPC   NC3  746   1.300   9.763   9.015 -0.2772 -0.2775  0.1173
   17POPC   PO4  747   1.794   9.850   9.000  0.2174  0.1207 -0.0739
   17POPC   GL1  748   1.557   9.791   8.578  0.2636 -0.1113  0.0895
   17POPC   GL2  749   1.238   9.908   8.324  0.3516 -0.0317 -0.1339
   17POPC   C1A  750   1.620   9.551   8.289  0.1320 -0.0760  0.1706
   17POPC   D2A  751   1.668   9.221   8.008  0.2944 -0.2098  0.0971
   17POPC   C3A  752   1.594   9.348   7.611 -0.0270 -0.0434 -0.2213
   17POPC   C4A  753   1.527   9.252   7.270 -0.0726 -0.1803  0.0915
   17POPC   C1B  754   1.492   9.839   7.917  0.0402  0.0019  0.1603
   17POPC   C2B  755   1.852   9.821   7.642  0.1609  0.0343  0.2401
   17POPC   C3B  756   1.615   9.791   7.269 -0.1833  0.1250 -0.1952
   17POPC   C4B  757   1.215   9.926   7.089  0.0008  0.4853 -0.1621
   18POPC   NC3  758   0.335  10.086   9.484  0.1581 -0.3065  0.0178
   18POPC   PO4  759   0.703  10.100   9.147  0.1992  0.0023  0.2121
   18POPC   GL1  760   0.580  10.124   8.720 -0.0102 -0.2772  0.2729
   18POPC   GL2  761   0.367  10.377   8.630  0.1930  0.0147  0.0506
   18POPC   C1A  762   0.744  10.072   8.295 -0.0380  0.1820 -0.0633
   18POPC   D2A  763   1.003  10.220   7.940 -0.1295 -0.2673  0.0238
   18POPC   C3A  764   1.385  10.287   7.984 -0.1889  0.3526 -0.1463
   18POPC   C4A  765   1.794  10.099   8.159  0.0232  0.3924 -0.1146
   18POPC   C1B  766   0.354  10.388   8.322 -0.2167  0.0746 -0.1187
   18POPC   C2B  767   0.386  10.283   8.031  0.0107  0.0822  0.1685
   18POPC   C3B  768   0.557  10.179   7.636 -0.0976  0.3840 -0.1039
   18POPC   C4B  769   0.817   9.998   7.379  0.0245  0.2668 -0.0146
   19POPC   NC3  770   9.142   9.962   9.282  0.0148  0.1793  0.2874
   19POPC   PO4  771   9.296   9.790   8.791 -0.1330  0.1259 -0.1627
   19POPC   GL1  772   9.277   9.932   8.465  0.0699 -0.3358 -0.2086
   19POPC   GL2  773   9.592  10.105   8.459 -0.0694 -0.0643 -0.0550
   19POPC   C1A  774   9.252  10.165   8.147 -0.2202  0.3035 -0.4061
   19POPC   D2A  775   9.085  10.213   7.708  0.2425 -0.0086 -0.1719
   19POPC   C3A  776   9.227  10.543   7.488 -0.0625  0.0773 -0.2042
   19POPC   C4A  777   9.597  10.688   7.305 -0.1559  0.1856 -0.0106
   19POPC   C1B  778   9.978  10.282   8.228  0.2764 -0.2732 -0.4590
   19POPC   C2B  779  10.025  10.161   7.800 -0.3450  0.1686  0.0319
   19POPC   C3B  780  10.280   9.961   7.531 -0.1337 -0.0902 -0.0230
   19POPC   C4B  781  10.478   9.827   7.158 -0.4365  0.3705  0.0812
   20POPC   NC3  782   0.473   1.552   9.423 -0.0704  0.0528 -0.4624
   20POPC   PO4  783   0.586   1.976   9.274 -0.1277  0.0143  0.2130
   20POPC   GL1  784   1.019   2.084   9.196 -0.1609  0.0446 -0.0818
   20POPC   GL2  785   0.986   1.918   8.926  0.0668  0.0561  0.0263
   20POPC   C1A  786   1.301   2.551   9.186 -0.2151  0.3242  0.2128
   20POPC   D2A  787   1.452   2.933   9.201  0.1919  0.2137  0.1101
   20POPC   C3A  788   1.587   3.054   8.764 -0.1132  0.1013 -0.0750
   20POPC   C4A  789   1.535   3.381   8.597 -0.1724 -0.0961 -0.1554
   20POPC   C1B  790   1.221   1.843   8.511 -0.0685  0.0559  0.1246
   20POPC   C2B  791   1.170   1.918   8.163 -0.0114 -0.0361 -0.1874
   20POPC   C3B  792   1.072   1.778   7.828  0.0564  0.2412 -0.0024
   20POPC   C4B  793   1.035   1.478   7.589  0.0561 -0.1423  0.2917
   21POPC   NC3  794   4.679   2.544   9.925  0.0040  0.1101  0.1404
   21POPC   PO4  795   4.655   2.240   9.646 -0.1128  0.1935  0.0587
   21POPC   GL1  796   4.740   2.609   9.457  0.0615 -0.0639  0.0750
   21POPC   GL2  797   4.942   2.503   9.245 -0.2383  0.1885  0.1064
   21POPC   C1A  798   4.790   2.962   9.073  0.0394  0.0010 -0.0662
   21POPC   D2A  799   4.647   2.929   8.597 -0.0993 -0.2186 -0.3334
   21POPC   C3A  800   4.946   2.451   8.555  0.2017  0.1279 -0.1886
   21POPC   C4A  801   4.881   2.139   8.248 -0.0855  0.0034 -0.1992
   21POPC   C1B  802   4.558   2.523   8.989  0.0318 -0.0367 -0.1977
   21POPC   C2B  803   4.343   2.553   8.566 -0.2031  0.2200  0.1178
   21POPC   C3B  804   4.522   2.551   8.219  0.1945  0.0188  0.1613
   21POPC   C4B  805   4.711   2.940   7.826 -0.0324  0.0315  0.1772
   22POPC   NC3  806   2.300   7.408   9.745 -0.2235  0.3897  0.0220
   22POPC   PO4  807   2.065   7.610   9.376  0.0271  0.0902 -0.3152
   22POPC   GL1  808   2.360   7.485   9.164  0.2436 -0.2768  0.1114
   22POPC   GL2  809   2.340   7.769   8.873  0.0098 -0.3679  0.5739
   22POPC   C1A  810   2.577   7.255   8.816  0.0669  0.0774  0.0790
   22POPC   D2A  811   2.543   6.884   8.520 -0.4128  0.0191  0.3370
   22POPC   C3A  812   2.469   6.456   8.766  0.1125  0.1493  0.2648
   22POPC   C4A  813   2.658   6.317   9.096  0.1444  0.0768 -0.1165
   22POPC   C1B  814   2.406   7.643   8.492 -0.0139  0.1866  0.1739
   22POPC   C2B  815   2.524   7.545   7.965  0.1883 -0.0982  0.3416
   22POPC   C3B  816   2.805   7.482   7.580 -0.0870  0.5332  0.1735
   22POPC   C4B  817   2.942   7.293   7.190 -0.0166  0.0842  0.1148
   23POPC   NC3  818   4.586   6.715   9.818  0.4456 -0.0922 -0.1496
   23POPC   PO4  819   4.329   6.887   9.486  0.1570 -0.1441  0.2440
   23POPC   GL1  820   4.319   6.814   8.981  0.1144 -0.0447 -0.0605
   23POPC   GL2  821   4.629   6.738   8.897  0.1609 -0.2526 -0.3284
   23POPC   C1A  822   4.327   6.961   8.531 -0.0980 -0.2449  0.2888
   23POPC   D2A  823   4.258   7.028   8.009 -0.2289  0.0797 -0.0227
   23POPC   C3A  824   4.231   6.748   7.664  0.3551  0.2588  0.3260
   23POPC   C4A  825   4.147   6.828   7.276  0.3892 -0.0018 -0.3329
   23POPC   C1B  826   4.401   6.482   8.590  0.1411  0.1835  0.3677
   23POPC   C2B  827   4.255   6.545   8.158  0.1467 -0.1357 -0.2722
   23POPC   C3B  828   3.953   6.236   8.055 -0.4090 -0.0093 -0.1916
   23POPC   C4B  829   3.604   6.098   8.036  0.1626 -0.1529 -0.2748
   24POPC   NC3  830   7.636   8.963   8.587  0.1422 -0.1673  0.1076
   24POPC   PO4  831   7.385   8.904   8.865  0.0824 -0.1134  0.2070
   24POPC   GL1  832   7.090   8.839   8.584 -0.0928 -0.0145  0.0647
   24POPC   GL2  833   7.294   8.728   8.331  0.2520 -0.1055  0.2044
   24POPC   C1A  834   6.803   8.633   8.385  0.2102  0.1494 -0.2839
   24POPC   D2A  835   6.753   8.356   8.022 -0.0885 -0.1568  0.0678
   24POPC   C3A  836   6.798   8.395   7.643  0.1340  0.1476 -0.1149
   24POPC   C4A  837   6.751   8.216   7.248 -0.0493  0.0045 -0.2451
   24POPC   C1B  838   7.254   8.413   7.940  0.0177  0.2070 -0.1205
   24POPC   C2B  839   7.274   8.278   7.530  0.1222 -0.2264  0.1870
   24POPC   C3B  840   7.322   7.901   7.398 -0.2889  0.2012 -0.1837
   24POPC   C4B  841   7.172   7.501   7.817  0.2701 -0.1494  0.2707
   25POPC   NC3  842   2.968   6.316  10.072 -0.2911  0.3281  0.0923
   25POPC   PO4  843   3.292   6.152  10.275 -0.1163  0.2589 -0.2523
   25POPC   GL1  844   3.128   5.858   9.992  0.0983 -0.1716 -0.2274
   25POPC   GL2  845   3.044   5.592  10.042 -0.2664  0.0784 -0.1256
   25POPC   C1A  846   2.895   5.777   9.555 -0.0086  0.2954  0.2784
   25POPC   D2A  847   2.865   5.467   9.235 -0.0428 -0.1915  0.0359
   25POPC   C3A  848   2.830   5.635   8.804  0.1168  0.3955 -0.2033
   25POPC   C4A  849   2.342   5.470   8.719 -0.1986 -0.2498 -0.1814
   25POPC   C1B  850   3.020   5.233   9.804  0.2168  0.1316  0.0492
   25POPC   C2B  851   3.059   4.964   9.429 -0.0918 -0.2443 -0.3246
   25POPC   C3B  852   3.139   4.918   9.012  0.5577  0.1777 -0.0302
   25POPC   C4B  853   2.868   5.129   8.653  0.2657  0.1013  0.2360
   26POPC   NC3  854   8.934   3.332   8.958 -0.2288 -0.1646  0.4002
   26POPC   PO4  855   8.536   3.701   8.808 -0.0216  0.3813  0.0092
   26POPC   GL1  856   8.771   3.455   8.483 -0.2833  0.1886  0.0703
   26POPC   GL2  857   8.986   3.154   8.513  0.0664  0.2154  0.3191
   26POPC   C1A  858   8.663   3.557   8.140  0.1332  0.0659  0.1357
   26POPC   D2A  859   8.996   3.700   7.789  0.3309 -0.3072  0.0598
   26POPC   C3A  860   9.087   3.274   7.393  0.1072  0.1194 -0.1692
   26POPC   C4A  861   9.291   3.026   7.208  0.0444  0.0621  0.1947
   26POPC   C1B  862   9.276   3.254   8.207  0.1160  0.3586  0.2562
   26POPC   C2B  863   9.180   3.032   7.831  0.1987 -0.1226 -0.2424
   26POPC   C3B  864   9.204   2.723   7.576 -0.2422 -0.4348 -0.1205
   26POPC   C4B  865   9.062   2.616   7.123 -0.1300  0.1031  0.1211
   27POPC   NC3  866   3.155   8.217   9.194  0.2471 -0.0807  0.2260
   27POPC   PO4  867   2.681   8.462   9.136  0.0009  0.2928  0.3359
   27POPC   GL1  868   2.386   8.569   8.822 -0.1493  0.2007  0.0158
   27POPC   GL2  869   2.183   8.372   8.686  0.1642 -0.0478 -0.0493
   27POPC   C1A  870   2.501   8.594   8.432  0.1118 -0.0953 -0.2419
   27POPC   D2A  871   2.404   8.514   7.974  0.0721 -0.0553  0.0205
   27POPC   C3A  872   2.394   8.752   7.578  0.0861 -0.0131 -0.1091
   27POPC   C4A  873   2.505   9.151   7.562 -0.1901 -0.1393  0.0629
   27POPC   C1B  874   1.940   7.903   8.615  0.5088 -0.0101 -0.0858
   27POPC   C2B  875   1.857   7.575   8.373 -0.1116 -0.0672  0.1057
   27POPC   C3B  876   1.592   7.470   8.043 -0.0222  0.0879  0.2947
   27POPC   C4B  877   1.441   7.256   7.751 -0.0970  0.0715  0.1414
   28POPC   NC3  878   3.775   7.323   9.896  0.1184 -0.0617  0.0372
   28POPC   PO4  879   4.046   7.494   9.554  0.1590 -0.0774 -0.2188
   28POPC   GL1  880   3.805   7.574   9.263  0.0663  0.0375  0.0923
   28POPC   GL2  881   3.920   7.526   9.015 -0.3175  0.1246  0.0010
   28POPC   C1A  882   3.543   7.207   9.153  0.4007 -0.1153 -0.0107
   28POPC   D2A  883   3.376   6.894   9.057  0.0275 -0.1625  0.1885
   28POPC   C3A  884   3.470   6.765   8.670 -0.0378  0.1160  0.2232
   28POPC   C4A  885   3.480   6.551   8.246 -0.1051  0.1906 -0.0008
   28POPC   C1B  886   4.035   7.456   8.573 -0.0864 -0.1569 -0.4371
   28POPC   C2B  887   4.049   7.493   8.161  0.2515  0.1031 -0.1438
   28POPC   C3B  888   4.064   7.381   7.734  0.2538 -0.2046  0.0609
   28POPC   C4B  889   4.174   7.311   7.387  0.0091  0.1724 -0.1711
   29POPC   NC3  890   5.398   1.198   9.577 -0.1941  0.2259 -0.1369
   29POPC   PO4  891   5.300   1.514   9.283  0.5060  0.1871  0.2102
   29POPC   GL1  892   5.164   1.775   9.041 -0.0610  0.0604  0.1335
   29POPC   GL2  893   5.179   1.662   8.736 -0.3781  0.0895 -0.0054
   29POPC   C1A  894   5.347   2.107   8.671  0.0029  0.1064 -0.1052
   29POPC   D2A  895   5.370   2.297   8.231 -0.2090  0.3183  0.1129
   29POPC   C3A  896   5.575   2.430   7.741 -0.2891  0.1119 -0.1455
   29POPC   C4A  897   5.720   2.379   7.275 -0.0403  0.0391  0.1668
   29POPC   C1B  898   5.227   1.759   8.230 -0.1375  0.0818  0.2928
   29POPC   C2B  899   5.253   2.043   7.818 -0.1968 -0.0032 -0.0228
   29POPC   C3B  900   5.246   2.201   7.364  0.1069  0.1795 -0.1754
   29POPC   C4B  901   5.355   2.518   7.033  0.0010  0.0399  0.0339
   30POPC   NC3  902   8.402   8.545   8.948  0.0128  0.4027  0.2666
   30POPC   PO4  903   8.762   8.235   8.886 -0.1571 -0.1545  0.0743
   30POPC   GL1  904   8.820   8.448   8.611  0.1329 -0.0560  0.2355
   30POPC   GL2  905   9.215   8.530   8.572 -0.1666 -0.2441  0.0047
   30POPC   C1A  906   8.807   8.503   8.195 -0.0153  0.1095  0.3081
   30POPC   D2A  907   9.105   8.368   8.007 -0.2327  0.0406 -0.1068
   30POPC   C3A  908   9.061   8.204   7.634 -0.4309 -0.2203 -0.1394
   30POPC   C4A  909   9.303   7.917   7.374  0.0567 -0.2555 -0.0449
   30POPC   C1B  910   9.442   8.610   8.360  0.1512  0.0447 -0.2087
   30POPC   C2B  911   9.416   8.866   8.095 -0.1426 -0.3837 -0.0668
   30POPC   C3B  912   9.144   8.818   7.764  0.2144 -0.3264  0.0142
   30POPC   C4B  913   8.770   8.626   7.583  0.1255  0.1080  0.3551
   31POPC   NC3  914   9.082   1.077   9.329 -0.0083 -0.2999  0.1038
   31POPC   PO4  915   9.403   0.785   9.119 -0.1084 -0.0225  0.0973
   31POPC   GL1  916   9.380   0.669   8.749  0.2231  0.1224  0.1157
   31POPC   GL2  917   9.316   0.878   8.524 -0.0616 -0.0783  0.0189
   31POPC   C1A  918   9.557   0.418   8.403 -0.1578  0.0265  0.2843
   31POPC   D2A  919   9.580   0.351   7.961  0.1639  0.3074  0.0222
   31POPC   C3A  920   9.576   0.040   7.713 -0.1296  0.0973  0.0269
   31POPC   C4A  921   9.424  -0.125   7.329  0.3333 -0.0931  0.1714
   31POPC   C1B  922   9.354   0.807   8.124 -0.0402  0.3231  0.2539
   31POPC   C2B  923   9.412   0.821   7.680  0.1222 -0.0266  0.1835
   31POPC   C3B  924   9.426   1.023   7.329 -0.0349  0.0790 -0.0294
   31POPC   C4B  925   9.375   0.773   6.926 -0.0222 -0.0525 -0.0476
   32POPC   NC3  926   6.676   6.218   9.022 -0.0400  0.1917 -0.1152
   32POPC   PO4  927   7.031   6.083   8.973 -0.1197  0.3897  0.1465
   32POPC   GL1  928   6.895   6.229   8.485 -0.0359  0.0140 -0.0377
   32POPC   GL2  929   6.614   6.011   8.442  0.1231 -0.2861 -0.3826
   32POPC   C1A  930   6.938   5.992   8.092  0.0024  0.2160 -0.0094
   32POPC   D2A  931   6.947   5.975   7.643  0.0439  0.2303  0.0801
   32POPC   C3A  932   6.664   5.743   7.515  0.3636  0.1185 -0.1519
   32POPC   C4A  933   6.145   5.896   7.495  0.1290  0.1329 -0.0078
   32POPC   C1B  934   6.408   5.892   8.008  0.0912 -0.0689  0.3502
   32POPC   C2B  935   6.061   5.642   7.912  0.2527 -0.5130 -0.2593
   32POPC   C3B  936   5.743   5.569   7.596  0.4831  0.0620 -0.3338
   32POPC   C4B  937   5.616   5.954   7.341  0.1023  0.2537  0.2401
   33POPC   NC3  938   8.699   7.781   9.137 -0.2571  0.1654 -0.2153
   33POPC   PO4  939   8.247   7.926   9.169 -0.0586 -0.3081 -0.1793
   33POPC   GL1  940   8.377   7.928   8.755  0.1855 -0.2146  0.1223
   33POPC   GL2  941   8.328   8.202   8.560  0.0247 -0.0386  0.1597
   33POPC   C1A  942   8.419   7.732   8.308  0.0122  0.1124  0.1047
   33POPC   D2A  943   8.610   7.607   7.953 -0.0120 -0.1199 -0.1388
   33POPC   C3A  944   8.737   7.227   7.831 -0.0399  0.2338  0.0926
   33POPC   C4A  945   9.034   6.925   7.596 -0.0426  0.0861  0.1784
   33POPC   C1B  946   8.164   8.224   8.150  0.1833 -0.1019 -0.1958
   33POPC   C2B  947   8.248   8.482   7.851 -0.1176  0.2161  0.0135
   33POPC   C3B  948   8.523   8.849   7.956  0.1864 -0.1189  0.3764
   33POPC   C4B  949   8.872   9.029   8.165 -0.0103  0.3179 -0.0811
   34POPC   NC3  950   1.616   0.261   9.538  0.1901 -0.4129 -0.0519
   34POPC   PO4  951   1.337   0.611   9.163 -0.4322 -0.0227 -0.0674
   34POPC   GL1  952   1.177   0.561   8.765  0.1468  0.3731  0.2321
   34POPC   GL2  953   1.407   0.877   8.712  0.1099  0.1668  0.0972
   34POPC   C1A  954   1.244   0.823   8.227 -0.2714 -0.0968  0.2468
   34POPC   D2A  955   1.184   0.618   7.853  0.0138  0.5768 -0.1612
   34POPC   C3A  956   0.952   0.763   7.616  0.0351 -0.1119 -0.0585
   34POPC   C4A  957   0.696   1.061   7.470  0.1120  0.0963  0.2016
   34POPC   C1B  958   1.716   1.054   8.300  0.4891 -0.5849  0.0825
   34POPC   C2B  959   1.949   0.952   7.875 -0.0922 -0.2414  0.0877
   34POPC   C3B  960   1.885   1.140   7.511 -0.0432  0.4544  0.2776
   34POPC   C4B  961   2.142   1.496   7.470  0.0729 -0.0174 -0.1491
   35POPC   NC3  962   8.913   4.157   8.659 -0.3571 -0.0288 -0.1253
   35POPC   PO4  963   9.133   4.521   8.488  0.2163 -0.4229 -0.0723
   35POPC   GL1  964   9.428   4.764   8.430  0.2190  0.2359 -0.1681
   35POPC   GL2  965   9.491   5.164   8.456  0.1047  0.2517  0.1098
   35POPC   C1A  966   9.643   4.851   8.008  0.3695 -0.0550 -0.1360
   35POPC   D2A  967   9.729   4.703   7.665  0.2987 -0.1269  0.1039
   35POPC   C3A  968   9.937   4.290   7.630  0.1129  0.0242 -0.4314
   35POPC   C4A  969  10.274   4.170   7.748 -0.1869  0.3059  0.0047
   35POPC   C1B  970   9.683   5.367   8.126 -0.2029 -0.2540  0.0175
   35POPC   C2B  971  10.038   5.196   7.759  0.0236  0.0284 -0.0853
   35POPC   C3B  972  10.402   5.228   7.516 -0.0398  0.1642 -0.0552
   35POPC   C4B  973  10.439   5.565   7.231 -0.0298  0.1482 -0.0610
   36POPC   NC3  974   2.971   7.971   9.627  0.0237  0.0504  0.1448
   36POPC   PO4  975   3.250   7.739   9.388  0.2160 -0.0177  0.4923
   36POPC   GL1  976   3.484   7.795   8.925  0.0769  0.0651 -0.3044
   36POPC   GL2  977   3.194   7.987   8.789  0.1598  0.0219 -0.2728
   36POPC   C1A  978   3.532   7.472   8.588 -0.1653  0.2663 -0.0270
   36POPC   D2A  979   3.552   7.454   8.141 -0.2187 -0.1183 -0.0361
   36POPC   C3A  980   3.650   7.678   7.790 -0.1550 -0.1751 -0.1345
   36POPC   C4A  981   3.823   7.947   7.574  0.0120 -0.1851  0.0226
   36POPC   C1B  982   3.059   8.117   8.454  0.0385  0.0712  0.0704
   36POPC   C2B  983   2.820   7.931   8.201 -0.0418 -0.3480  0.1002
   36POPC   C3B  984   2.619   7.994   7.818 -0.1453  0.0130  0.1647
   36POPC   C4B  985   2.347   8.143   7.621  0.1863 -0.0290  0.1743
   37POPC   NC3  986   0.585   5.185  10.480  0.1584 -0.1923 -0.3733
   37POPC   PO4  987   0.380   5.320  10.033  0.1406 -0.0971  0.2210
   37POPC   GL1  988   0.602   5.101   9.787 -0.0081  0.2138 -0.0528
   37POPC   GL2  989   0.506   4.746   9.637 -0.0578 -0.3939  0.1512
   37POPC   C1A  990   1.022   5.189   9.642 -0.2071 -0.0247  0.0960
   37POPC   D2A  991   1.352   4.981   9.566 -0.4509  0.1083 -0.3492
   37POPC   C3A  992   1.548   5.310   9.234 -0.4407  0.1308 -0.2098
   37POPC   C4A  993   2.028   5.504   9.148  0.0055 -0.0201  0.0563
   37POPC   C1B  994   0.797   4.875   9.291  0.0983 -0.1067 -0.0692
   37POPC   C2B  995   1.180   5.013   9.110  0.0304  0.5093  0.1514
   37POPC   C3B  996   1.549   4.949   8.936  0.0104 -0.2971 -0.0644
   37POPC   C4B  997   1.843   4.865   8.960  0.0771  0.0693  0.0581
   38POPC   NC3  998   9.673   4.078   9.434 -0.1010 -0.3254 -0.0872
   38POPC   PO4  999   9.703   4.436   9.162 -0.0867 -0.1881  0.2174
   38POPC   GL1 1000  10.073   4.741   9.201 -0.1380  0.1442  0.1899
   38POPC   GL2 1001  10.310   4.537   9.390 -0.5106 -0.4860 -0.3292
   38POPC   C1A 1002  10.391   4.641   8.834  0.0438  0.4454 -0.1898
   38POPC   D2A 1003  10.399   4.354   8.417  0.1776 -0.2646  0.0463
   38POPC   C3A 1004  10.055   4.312   8.151  0.3487  0.2014 -0.1179
   38POPC   C4A 1005   9.683   4.322   8.116  0.1861  0.1001  0.1384
   38POPC   C1B 1006  10.683   4.510   9.182  0.0145  0.3326 -0.0492
   38POPC   C2B 1007  11.046   4.403   8.936 -0.3099 -0.3137  0.2301
   38POPC   C3B 1008  11.321   4.684   8.695 -0.0802 -0.3570  0.1944
   38POPC   C4B 1009  11.725   4.593   8.553  0.1636  0.1609  0.2898
   39POPC   NC3 1010   3.669   5.746  10.082  0.3456 -0.0402 -0.0560
   39POPC   PO4 1011   4.050   5.551  10.052 -0.0426  0.0102  0.2144
   39POPC   GL1 1012   4.005   5.589   9.637  0.2445 -0.0935  0.2584
   39POPC   GL2 1013   3.678   5.602   9.595  0.2115 -0.2181 -0.0794
   39POPC   C1A 1014   3.991   5.587   9.166 -0.2326 -0.0016 -0.0493
   39POPC   D2A 1015   4.044   5.288   8.838 -0.0640  0.0341 -0.2041
   39POPC   C3A 1016   3.822   5.251   8.517 -0.0884  0.1211 -0.0346
   39POPC   C4A 1017   3.551   5.214   8.234 -0.0558  0.2140 -0.1419
   39POPC   C1B 1018   3.350   5.528   9.493 -0.0419  0.0500 -0.0799
   39POPC   C2B 1019   3.429   5.358   9.101 -0.1664  0.0277  0.0289
   39POPC   C3B 1020   3.347   5.343   8.662  0.0782 -0.3607 -0.3258
   39POPC   C4B 1021   3.114   5.506   8.348  0.0981 -0.1215 -0.2317
   40POPC   NC3 1022   8.523   4.975   8.607 -0.3360 -0.1815  0.1132
   40POPC   PO4 1023   8.688   4.593   8.640 -0.1901  0.0635  0.2462
   40POPC   GL1 1024   8.673   4.386   8.229 -0.3502 -0.0205  0.3358
   40POPC   GL2 1025   8.659   4.029   8.122 -0.1936  0.2713 -0.2413
   40POPC   C1A 1026   8.786   4.424   7.753  0.1825  0.1346 -0.2799
   40POPC   D2A 1027   9.028   4.151   7.501  0.2088 -0.1700  0.1791
   40POPC   C3A 1028   9.469   4.270   7.425  0.2968  0.1369  0.0976
   40POPC   C4A 1029   9.551   4.590   7.170  0.2335  0.1952 -0.2196
   40POPC   C1B 1030   8.598   3.983   7.712  0.0936  0.1053 -0.2228
   40POPC   C2B 1031   8.449   4.107   7.287 -0.0697 -0.1266  0.0265
   40POPC   C3B 1032   8.462   4.330   6.897  0.1415 -0.2707  0.0425
   40POPC   C4B 1033   8.192   4.331   6.517 -0.1640  0.3389 -0.0222
   41POPC   NC3 1034   9.358   6.616   9.106 -0.2899  0.0882  0.1169
   41POPC   PO4 1035   9.415   6.836   8.784  0.0527  0.1020 -0.1744
   41POPC   GL1 1036   9.335   7.089   8.400 -0.0235  0.0577 -0.0098
   41POPC   GL2 1037   8.875   7.129   8.409 -0.0493 -0.0617 -0.0388
   41POPC   C1A 1038   9.709   7.214   8.225  0.0798 -0.1159 -0.0416
   41POPC   D2A 1039  10.126   7.034   8.075 -0.2788  0.0911  0.0515
   41POPC   C3A 1040  10.530   6.765   8.052  0.0264 -0.2063  0.1356
   41POPC   C4A 1041  10.674   6.432   7.968  0.3543  0.0579  0.1127
   41POPC   C1B 1042   8.851   6.919   8.171 -0.3684 -0.0541 -0.0669
   41POPC   C2B 1043   9.023   6.571   7.989  0.3854  0.3206  0.2982
   41POPC   C3B 1044   8.897   6.054   7.819  0.1399  0.0914  0.1275
   41POPC   C4B 1045   8.969   5.588   7.709 -0.0709  0.1323  0.0588
   42POPC   NC3 1046   7.063   6.670   9.190  0.0323 -0.2375  0.1130
   42POPC   PO4 1047   7.079   6.730   8.775  0.1453 -0.0525 -0.1193
   42POPC   GL1 1048   7.334   6.816   8.474  0.0688 -0.0681  0.1025
   42POPC   GL2 1049   7.511   6.992   8.586 -0.1903  0.0482 -0.1309
   42POPC   C1A 1050   7.546   6.753   8.127  0.0440 -0.0033  0.0180
   42POPC   D2A 1051   7.957   6.456   7.978  0.0866  0.2947  0.0310
   42POPC   C3A 1052   7.900   6.158   7.679  0.0838 -0.2498 -0.0747
   42POPC   C4A 1053   7.936   5.812   7.463  0.1118 -0.0389 -0.0781
   42POPC   C1B 1054   7.698   7.285   8.292  0.0170  0.1979 -0.0056
   42POPC   C2B 1055   7.550   7.188   7.912 -0.2827  0.2058  0.2915
   42POPC   C3B 1056   7.334   6.866   7.688  0.0334 -0.0403  0.2613
   42POPC   C4B 1057   7.361   6.441   7.725  0.0689  0.1276  0.1445
   43POPC   NC3 1058   8.734   5.843   8.890 -0.3077 -0.5622  0.0701
   43POPC   PO4 1059   9.099   6.145   8.933 -0.2166 -0.3438 -0.1890
   43POPC   GL1 1060   9.360   6.199   8.592 -0.1430 -0.0516  0.0913
   43POPC   GL2 1061   9.125   6.148   8.299  0.1239 -0.3866 -0.1765
   43POPC   C1A 1062   9.541   6.299   8.150  0.2921 -0.0801 -0.0542
   43POPC   D2A 1063   9.386   6.263   7.759 -0.0776 -0.1610  0.0198
   43POPC   C3A 1064   9.505   6.610   7.465 -0.2947 -0.0450  0.3422
   43POPC   C4A 1065   9.442   6.767   7.082  0.0365  0.1499  0.4087
   43POPC   C1B 1066   9.303   5.716   8.060  0.0757 -0.1114 -0.0916
   43POPC   C2B 1067   9.397   5.776   7.601 -0.0844  0.0349 -0.0544
   43POPC   C3B 1068   9.356   5.703   7.165 -0.2113 -0.4315  0.2143
   43POPC   C4B 1069   9.592   5.847   6.775 -0.2537 -0.2044 -0.1841
   44POPC   NC3 1070   7.888   4.274   8.869  0.0080  0.1790  0.4686
   44POPC   PO4 1071   8.314   4.185   8.735  0.2245  0.0753 -0.2844
   44POPC   GL1 1072   8.140   4.216   8.377 -0.0527  0.2916  0.4829
   44POPC   GL2 1073   8.178   4.389   8.256 -0.0665 -0.1311  0.0739
   44POPC   C1A 1074   8.020   3.969   8.149  0.1261  0.0652  0.2530
   44POPC   D2A 1075   8.137   3.639   7.810  0.1057  0.1480 -0.0562
   44POPC   C3A 1076   8.180   3.697   7.270  0.2216  0.0733 -0.0265
   44POPC   C4A 1077   8.037   4.031   6.990 -0.2725  0.1119 -0.2925
   44POPC   C1B 1078   8.338   4.601   7.877  0.0501  0.0816  0.2607
   44POPC   C2B 1079   8.319   4.549   7.507 -0.1227 -0.1469 -0.4649
   44POPC   C3B 1080   8.300   4.731   7.111  0.1178  0.1215  0.0558
   44POPC   C4B 1081   8.323   5.065   6.858 -0.1107 -0.0017  0.1241
   45POPC   NC3 1082   7.813   5.528   9.168  0.1277  0.1762 -0.2403
   45POPC   PO4 1083   7.523   5.338   8.895  0.0479  0.0880 -0.1177
   45POPC   GL1 1084   7.373   5.398   8.548 -0.4489 -0.0011  0.1181
   45POPC   GL2 1085   7.249   5.806   8.510 -0.0169 -0.0921 -0.0102
   45POPC   C1A 1086   7.440   5.076   8.274 -0.0172  0.3974  0.1973
   45POPC   D2A 1087   7.213   4.712   8.070  0.3931 -0.1518 -0.1784
   45POPC   C3A 1088   6.789   4.653   7.807 -0.0221  0.0227  0.0654
   45POPC   C4A 1089   6.363   4.692   7.777  0.0421 -0.2031  0.1145
   45POPC   C1B 1090   7.310   5.537   8.094  0.0969  0.0693  0.0732
   45POPC   C2B 1091   7.382   5.807   7.755  0.0869 -0.3106  0.0819
   45POPC   C3B 1092   7.421   5.944   7.393 -0.5529 -0.2788  0.1114
   45POPC   C4B 1093   7.173   6.284   7.252  0.0465 -0.3994  0.1687
   46POPC   NC3 1094   4.625   7.258   9.710  0.1759 -0.2736  0.1410
   46POPC   PO4 1095   4.871   6.981   9.429  0.0673 -0.1265 -0.1770
   46POPC   GL1 1096   4.667   7.189   9.164  0.2535 -0.2377 -0.3113
   46POPC   GL2 1097   4.305   7.303   9.168 -0.0889  0.1474 -0.0517
   46POPC   C1A 1098   4.617   7.270   8.762  0.0937  0.0503 -0.0857
   46POPC   D2A 1099   4.518   7.392   8.328 -0.0799  0.1837 -0.1188
   46POPC   C3A 1100   4.674   7.297   7.868  0.2214  0.0569 -0.0149
   46POPC   C4A 1101   4.548   7.044   7.481  0.1157  0.0987  0.0180
   46POPC   C1B 1102   3.900   7.085   8.794 -0.2207  0.1683 -0.1545
   46POPC   C2B 1103   3.858   6.879   8.318  0.2958  0.2937  0.2085
   46POPC   C3B 1104   3.798   6.692   7.906 -0.1398  0.0594 -0.0010
   46POPC   C4B 1105   3.747   6.371   7.581  0.0532  0.0291 -0.1539
   47POPC   NC3 1106   2.930   0.315   9.345  0.0675  0.1903 -0.0036
   47POPC   PO4 1107   2.634   0.380   9.020  0.1088 -0.1903  0.3580
   47POPC   GL1 1108   2.471   0.442   8.573  0.0023  0.1257 -0.0703
   47POPC   GL2 1109   2.353   0.302   8.540  0.2891  0.0270  0.1184
   47POPC   C1A 1110   2.124   0.733   8.306 -0.0887  0.0376  0.1135
   47POPC   D2A 1111   1.679   0.535   8.090 -0.0290 -0.1455 -0.2132
   47POPC   C3A 1112   1.627   0.657   7.683  0.1315  0.0980  0.0941
   47POPC   C4A 1113   1.485   0.740   7.422  0.0008  0.1563 -0.3674
   47POPC   C1B 1114   2.143   0.283   8.114 -0.2795 -0.1572  0.1863
   47POPC   C2B 1115   1.858   0.218   7.707  0.3338  0.2239 -0.0147
   47POPC   C3B 1116   1.551   0.027   7.487 -0.3535  0.0526 -0.1388
   47POPC   C4B 1117   1.481   0.192   7.101  0.3394  0.0206 -0.2849
   48POPC   NC3 1118   3.819   6.196  10.197 -0.0908 -0.1125 -0.0328
   48POPC   PO4 1119   4.047   6.049   9.947  0.1149  0.1195  0.1652
   48POPC   GL1 1120   3.760   6.067   9.707 -0.0309 -0.0777 -0.1826
   48POPC   GL2 1121   3.826   6.017   9.360  0.1386  0.0940 -0.0462
   48POPC   C1A 1122   3.372   6.028   9.532  0.2566  0.3470 -0.1028
   48POPC   D2A 1123   3.146   6.113   9.184 -0.0333  0.2206  0.0192
   48POPC   C3A 1124   3.359   6.280   8.773 -0.0556  0.2630  0.0325
   48POPC   C4A 1125   3.775   6.368   8.534  0.0222  0.0441  0.0665
   48POPC   C1B 1126   3.612   5.883   8.972  0.1480 -0.3235  0.1469
   48POPC   C2B 1127   3.261   5.834   8.717 -0.1132  0.1926 -0.1386
   48POPC   C3B 1128   2.905   6.107   8.676  0.2582 -0.0860 -0.2854
   48POPC   C4B 1129   2.516   6.022   8.555 -0.0485  0.0711  0.0443
   49POPC   NC3 1130   8.476   2.834   9.223 -0.1755 -0.4378  0.3358
   49POPC   PO4 1131   8.102   3.000   8.955  0.2204  0.3558 -0.0493
   49POPC   GL1 1132   7.719   2.813   8.579  0.0096 -0.2287 -0.0452
   49POPC   GL2 1133   7.553   2.588   8.489  0.2309 -0.0583 -0.2030
   49POPC   C1A 1134   7.731   3.003   8.267  0.2334 -0.2106 -0.2145
   49POPC   D2A 1135   7.879   3.238   7.939 -0.3236 -0.0006  0.2483
   49POPC   C3A 1136   7.635   3.518   7.691 -0.0234  0.2854  0.1916
   49POPC   C4A 1137   7.557   3.916   7.441  0.0893 -0.0774 -0.1510
   49POPC   C1B 1138   7.710   2.551   8.123  0.0782  0.2057 -0.4750
   49POPC   C2B 1139   7.636   2.704   7.758  0.1858 -0.1045  0.2240
   49POPC   C3B 1140   7.661   3.112   7.442 -0.2257  0.0601  0.1068
   49POPC   C4B 1141   8.006   3.209   7.176  0.1383 -0.2166 -0.1837
   50POPC   NC3 1142   4.159   0.773   9.356  0.1751 -0.3420  0.0694
   50POPC   PO4 1143   4.239   0.287   9.260 -0.0605 -0.0352 -0.1309
   50POPC   GL1 1144   4.333   0.412   8.856  0.1533 -0.1055  0.1518
   50POPC   GL2 1145   4.367   0.711   8.816  0.0435 -0.0828  0.2269
   50POPC   C1A 1146   4.221   0.304   8.381 -0.1576  0.0863 -0.4692
   50POPC   D2A 1147   4.446   0.400   7.969  0.0712  0.1183  0.0746
   50POPC   C3A 1148   4.255   0.591   7.707  0.2505  0.1366  0.3532
   50POPC   C4A 1149   4.002   0.413   7.432 -0.1040  0.1463 -0.0947
   50POPC   C1B 1150   4.266   0.845   8.363  0.0823  0.0250 -0.3689
   50POPC   C2B 1151   4.413   1.063   7.899 -0.0137 -0.0904  0.0901
   50POPC   C3B 1152   4.591   1.291   7.627  0.1517  0.0401 -0.0707
   50POPC   C4B 1153   4.630   1.359   7.203  0.2444  0.1569  0.1168
   51POPC   NC3 1154   3.655   0.677   9.816 -0.1368  0.0010  0.3499
   51POPC   PO4 1155   3.755   0.525   9.469  0.1788  0.1396  0.1765
   51POPC   GL1 1156   3.822   0.382   9.050  0.0780 -0.1180 -0.2574
   51POPC   GL2 1157   3.675   0.181   8.811 -0.2750  0.1610  0.1082
   51POPC   C1A 1158   3.870   0.557   8.677  0.0279  0.1933  0.0050
   51POPC   D2A 1159   3.674   0.796   8.339 -0.0102 -0.0416  0.2131
   51POPC   C3A 1160   3.770   0.465   8.009 -0.0718 -0.1644 -0.0821
   51POPC   C4A 1161   4.005   0.118   7.843  0.1023 -0.0700 -0.3461
   51POPC   C1B 1162   3.583   0.066   8.379 -0.1999 -0.2027 -0.2984
   51POPC   C2B 1163   3.389   0.095   8.029 -0.2855  0.0253 -0.0372
   51POPC   C3B 1164   3.389   0.314   7.637  0.0729 -0.3938  0.0478
   51POPC   C4B 1165   3.261   0.523   7.335 -0.0429  0.1831 -0.0368
   52POPC   NC3 1166   5.633   1.508   8.887 -0.1358  0.4008  0.1278
   52POPC   PO4 1167   5.706   1.057   9.053 -0.2712  0.0407 -0.2360
   52POPC   GL1 1168   5.626   1.028   8.602 -0.1144 -0.0603  0.1336
   52POPC   GL2 1169   5.446   0.789   8.613 -0.0586  0.3170  0.1025
   52POPC   C1A 1170   5.520   1.294   8.289 -0.0547 -0.1444  0.0483
   52POPC   D2A 1171   5.255   1.472   7.853  0.2698 -0.2845  0.2225
   52POPC   C3A 1172   5.285   1.600   7.487  0.1442 -0.1463  0.0137
   52POPC   C4A 1173   4.974   1.661   7.125 -0.2539  0.2107  0.2955
   52POPC   C1B 1174   5.150   0.980   8.388  0.0238  0.2203 -0.0232
   52POPC   C2B 1175   4.848   1.364   8.332 -0.1280  0.2404 -0.1088
   52POPC   C3B 1176   4.754   1.703   8.044  0.1551 -0.0460  0.3190
   52POPC   C4B 1177   4.823   1.727   7.702  0.0499  0.0043  0.0519
   53POPC   NC3 1178   7.456   2.881   8.992 -0.0291 -0.1634 -0.1089
   53POPC   PO4 1179   7.160   2.730   9.092 -0.0574  0.0287 -0.2140
   53POPC   GL1 1180   7.092   2.660   8.628  0.1107  0.1152  0.2562
   53POPC   GL2 1181   6.859   2.824   8.646  0.1776  0.0579  0.1696
   53POPC   C1A 1182   7.230   2.701   8.143 -0.0424 -0.1946  0.0808
   53POPC   D2A 1183   7.150   2.504   7.801  0.1206 -0.0307  0.1928
   53POPC   C3A 1184   7.147   2.059   7.704 -0.1500 -0.0566 -0.0636
   53POPC   C4A 1185   7.310   1.623   7.662 -0.0266 -0.1332  0.3621
   53POPC   C1B 1186   6.825   2.943   8.321  0.0588  0.1601 -0.1369
   53POPC   C2B 1187   6.836   2.875   7.900 -0.3221 -0.0780  0.1216
   53POPC   C3B 1188   6.790   2.646   7.538  0.1632 -0.2262  0.0922
   53POPC   C4B 1189   6.754   2.229   7.325  0.2416 -0.3618 -0.4812
   54POPC   NC3 1190   2.699   8.959   8.893 -0.0602 -0.2634  0.0513
   54POPC   PO4 1191   2.294   9.019   8.912  0.1033  0.1190 -0.4539
   54POPC   GL1 1192   2.166   8.989   8.466 -0.2642 -0.3201  0.0958
   54POPC   GL2 1193   1.893   8.769   8.451  0.0432  0.2213 -0.3005
   54POPC   C1A 1194   2.269   8.983   7.962 -0.1997  0.1035 -0.1073
   54POPC   D2A 1195   1.973   9.035   7.679 -0.0711 -0.0398 -0.2223
   54POPC   C3A 1196   1.754   8.807   7.393  0.4985  0.1821 -0.2976
   54POPC   C4A 1197   1.374   8.716   7.130  0.0483 -0.0341 -0.1600
   54POPC   C1B 1198   1.907   8.705   8.100  0.0780  0.0511 -0.0148
   54POPC   C2B 1199   1.977   8.505   7.766  0.1110  0.0874 -0.0824
   54POPC   C3B 1200   1.780   8.311   7.435 -0.1348  0.1177  0.0044
   54POPC   C4B 1201   2.074   8.014   7.211 -0.0433  0.1257  0.1500
   55POPC   NC3 1202   4.776   3.757   9.874 -0.0844  0.1778  0.4002
   55POPC   PO4 1203   5.163   3.338   9.836  0.1611 -0.1352  0.0485
   55POPC   GL1 1204   4.995   3.505   9.366 -0.3274  0.1651  0.1469
   55POPC   GL2 1205   5.154   3.470   9.092 -0.0672  0.1475 -0.1800
   55POPC   C1A 1206   4.729   3.804   9.036 -0.0939  0.0817 -0.4244
   55POPC   D2A 1207   4.834   4.102   8.757  0.0119 -0.2705 -0.1734
   55POPC   C3A 1208   4.715   4.557   8.892 -0.0339  0.1440 -0.1156
   55POPC   C4A 1209   4.486   4.907   8.737  0.4048 -0.0396 -0.0372
   55POPC   C1B 1210   4.971   3.372   8.663 -0.0025  0.1555  0.2284
   55POPC   C2B 1211   4.697   3.454   8.416 -0.1388 -0.2283 -0.0290
   55POPC   C3B 1212   4.454   3.621   8.167 -0.0486 -0.5093 -0.2346
   55POPC   C4B 1213   4.121   3.862   7.868  0.0016 -0.0890  0.0533
   56POPC   NC3 1214   3.813   9.207   9.554  0.0810 -0.1717  0.3412
   56POPC   PO4 1215   4.139   9.497   9.318  0.1412 -0.2031 -0.3181
   56POPC   GL1 1216   4.129   9.612   8.871 -0.3254  0.1261  0.1651
   56POPC   GL2 1217   4.226   9.262   8.720  0.0452  0.0411 -0.0510
   56POPC   C1A 1218   3.948   9.630   8.466 -0.2383 -0.0822 -0.1795
   56POPC   D2A 1219   4.064   9.793   8.097 -0.1092  0.1249  0.2694
   56POPC   C3A 1220   3.991   9.831   7.659 -0.1148  0.1055  0.3656
   56POPC   C4A 1221   3.689  10.156   7.475 -0.0456 -0.0576 -0.2236
   56POPC   C1B 1222   4.130   9.190   8.299 -0.2983  0.2358 -0.1114
   56POPC   C2B 1223   3.825   9.348   8.011 -0.1910  0.4979  0.0418
   56POPC   C3B 1224   3.525   9.703   7.739 -0.1138  0.2604  0.2284
   56POPC   C4B 1225   3.408   9.740   7.355 -0.2916 -0.0633  0.0363
   57POPC   NC3 1226   2.041   9.116   9.349  0.1755 -0.1964  0.0271
   57POPC   PO4 1227   2.144   9.502   9.131 -0.0396  0.1630  0.1080
   57POPC   GL1 1228   2.262   9.615   8.736  0.1360  0.3221  0.0419
   57POPC   GL2 1229   2.061   9.728   8.596  0.1412 -0.2062  0.2156
   57POPC   C1A 1230   2.582   9.544   8.460 -0.0557  0.1433 -0.0874
   57POPC   D2A 1231   2.625   9.452   8.003 -0.4776  0.1830  0.1592
   57POPC   C3A 1232   2.950   9.462   7.720 -0.0852  0.3323  0.1563
   57POPC   C4A 1233   3.198   9.262   7.370 -0.2912 -0.1946  0.1857
   57POPC   C1B 1234   2.084   9.486   8.282  0.1764  0.2313  0.1390
   57POPC   C2B 1235   2.174   9.518   7.818  0.0458 -0.0341 -0.1496
   57POPC   C3B 1236   2.399   9.826   7.565 -0.1605  0.1559  0.2273
   57POPC   C4B 1237   2.685  10.092   7.296  0.1944  0.0454  0.0275
   58POPC   NC3 1238   0.604   8.990   9.051 -0.0996 -0.1275  0.0800
   58POPC   PO4 1239   0.908   8.727   9.292  0.2509 -0.1993  0.1545
   58POPC   GL1 1240   0.959   8.764   8.785  0.1928 -0.3149 -0.0850
   58POPC   GL2 1241   0.941   9.050   8.595  0.1070 -0.1502  0.0674
   58POPC   C1A 1242   0.909   8.570   8.354  0.2427 -0.2185  0.0388
   58POPC   D2A 1243   1.129   8.506   8.033  0.1821  0.2059 -0.4859
   58POPC   C3A 1244   1.468   8.327   8.049 -0.1127 -0.1399 -0.0917
   58POPC   C4A 1245   1.853   8.276   8.263 -0.0862 -0.2085 -0.2806
   58POPC   C1B 1246   0.556   8.905   8.302  0.0499  0.1403  0.0056
   58POPC   C2B 1247   0.645   8.751   7.882  0.3413  0.1480  0.0583
   58POPC   C3B 1248   0.907   8.606   7.520  0.0465  0.1176 -0.0391
   58POPC   C4B 1249   1.274   8.338   7.510 -0.0840 -0.2001 -0.2616
   59POPC   NC3 1250   8.005   1.897   9.257 -0.1407  0.4110 -0.1656
   59POPC   PO4 1251   7.751   2.234   9.172  0.0194 -0.2370 -0.1333
   59POPC   GL1 1252   7.800   2.081   8.715  0.0432  0.2483 -0.1116
   59POPC   GL2 1253   8.017   2.231   8.518  0.0657 -0.0404 -0.1399
   59POPC   C1A 1254   7.631   2.012   8.350  0.2657 -0.0233 -0.1175
   59POPC   D2A 1255   7.225   2.225   8.289  0.0329  0.1266  0.0858
   59POPC   C3A 1256   6.864   2.422   8.253 -0.1402 -0.0447 -0.1951
   59POPC   C4A 1257   6.455   2.631   8.240  0.2691 -0.0751  0.0121
   59POPC   C1B 1258   8.266   2.413   8.289  0.2127  0.1610  0.0973
   59POPC   C2B 1259   8.639   2.290   8.149  0.1951 -0.1941  0.2505
   59POPC   C3B 1260   8.730   2.021   7.843  0.1604  0.0892  0.0940
   59POPC   C4B 1261   8.851   1.745   7.367  0.0792  0.3141  0.1335
   60POPC   NC3 1262   9.608   3.858   8.994 -0.0249 -0.0068 -0.1699
   60POPC   PO4 1263   9.136   3.741   8.778 -0.3240 -0.1906  0.1968
   60POPC   GL1 1264   9.406   3.721   8.459  0.1856  0.0384 -0.1978
   60POPC   GL2 1265   9.121   3.783   8.319  0.0899 -0.0491 -0.0479
   60POPC   C1A 1266   9.730   3.953   8.417  0.0572 -0.2104  0.0015
   60POPC   D2A 1267   9.958   3.810   8.128  0.1156 -0.0526 -0.0608
   60POPC   C3A 1268  10.290   3.595   7.965 -0.0309 -0.1796  0.3188
   60POPC   C4A 1269  10.486   3.249   7.716  0.2887  0.0631 -0.2501
   60POPC   C1B 1270   9.189   4.137   8.004  0.3496  0.5047  0.0882
   60POPC   C2B 1271   9.242   4.484   7.808 -0.0095  0.3635  0.2192
   60POPC   C3B 1272   9.231   4.825   7.588  0.0467 -0.1699 -0.0559
   60POPC   C4B 1273   9.162   5.069   7.259  0.0856  0.3455 -0.0908
   61POPC   NC3 1274   5.621   9.603   9.028  0.1742 -0.1725 -0.0567
   61POPC   PO4 1275   5.862   9.509   9.346 -0.0228 -0.2748  0.2062
   61POPC   GL1 1276   6.030   9.335   8.926 -0.1847  0.0461  0.0323
   61POPC   GL2 1277   6.101   9.075   8.848  0.4806 -0.0675 -0.0554
   61POPC   C1A 1278   5.978   9.288   8.413  0.1376  0.2139 -0.0319
   61POPC   D2A 1279   5.752   9.222   8.115 -0.0180  0.2580 -0.1964
   61POPC   C3A 1280   5.646   9.299   7.806  0.0340 -0.1840 -0.0952
   61POPC   C4A 1281   5.441   9.356   7.432 -0.0853  0.1245 -0.0638
   61POPC   C1B 1282   6.144   8.780   8.606  0.0802  0.0485  0.4267
   61POPC   C2B 1283   5.837   8.706   8.236 -0.0607  0.2580  0.0311
   61POPC   C3B 1284   5.949   8.679   7.820 -0.2389 -0.1026  0.3940
   61POPC   C4B 1285   5.928   8.933   7.500  0.2203  0.2291  0.0303
   62POPC   NC3 1286   8.064   8.557   9.305  0.2575 -0.0905 -0.0691
   62POPC   PO4 1287   7.901   8.683   8.892 -0.1310 -0.1169 -0.2090
   62POPC   GL1 1288   7.871   8.530   8.434  0.0692  0.1182 -0.2702
   62POPC   GL2 1289   7.714   8.175   8.339  0.0133 -0.0729  0.1142
   62POPC   C1A 1290   7.722   8.614   8.049 -0.0768 -0.0407 -0.0883
   62POPC   D2A 1291   7.915   8.760   7.674  0.3742  0.2230 -0.0931
   62POPC   C3A 1292   8.237   8.962   7.594 -0.1251 -0.1385 -0.2570
   62POPC   C4A 1293   8.265   9.480   7.537  0.2065  0.1100 -0.4037
   62POPC   C1B 1294   7.620   7.978   7.901 -0.0425  0.2652  0.1194
   62POPC   C2B 1295   7.715   7.644   7.678  0.2108 -0.1059  0.0632
   62POPC   C3B 1296   7.526   7.380   7.378  0.0025  0.0342  0.0394
   62POPC   C4B 1297   7.250   7.375   7.053  0.1297  0.2325  0.0818
   63POPC   NC3 1298   0.266   7.992   9.478 -0.1970 -0.2679 -0.2220
   63POPC   PO4 1299   0.544   7.979   9.013 -0.0965  0.0543 -0.0838
   63POPC   GL1 1300   0.574   8.137   8.665 -0.1304 -0.2266 -0.0368
   63POPC   GL2 1301   0.513   8.518   8.721  0.0852  0.1789 -0.1091
   63POPC   C1A 1302   0.577   8.115   8.204 -0.1715  0.3294  0.0362
   63POPC   D2A 1303   0.609   8.258   7.796 -0.0076  0.1330 -0.0241
   63POPC   C3A 1304   0.589   8.083   7.387 -0.0247  0.0335 -0.0062
   63POPC   C4A 1305   0.670   8.402   7.097  0.0342  0.0102  0.1162
   63POPC   C1B 1306   0.260   8.506   8.231  0.1862  0.2007 -0.1184
   63POPC   C2B 1307  -0.088   8.701   7.976 -0.1386  0.2961 -0.3102
   63POPC   C3B 1308  -0.130   9.107   7.644  0.3503  0.0854 -0.0180
   63POPC   C4B 1309   0.141   9.436   7.718 -0.3723  0.0777  0.1127
   64POPC   NC3 1310   4.272   2.321  10.099  0.2745 -0.1900  0.0015
   64POPC   PO4 1311   4.209   2.514   9.672 -0.0149 -0.0782 -0.0532
   64POPC   GL1 1312   4.048   2.700   9.231 -0.2630  0.1737 -0.1127
   64POPC   GL2 1313   3.971   2.514   9.040 -0.1003  0.1367 -0.0513
   64POPC   C1A 1314   4.057   2.961   8.884  0.1543 -0.0472  0.4910
   64POPC   D2A 1315   3.858   2.897   8.435  0.2039  0.0910  0.0950
   64POPC   C3A 1316   4.004   2.732   7.999 -0.0247  0.0621 -0.2526
   64POPC   C4A 1317   4.266   2.664   7.739 -0.0750  0.1153  0.0457
   64POPC   C1B 1318   3.830   2.479   8.733  0.1993  0.1474 -0.0414
   64POPC   C2B 1319   3.557   2.455   8.488 -0.1950 -0.0391  0.0028
   64POPC   C3B 1320   3.492   2.552   8.148 -0.0025  0.0112  0.0900
   64POPC   C4B 1321   3.699   2.449   7.735  0.1693  0.2904 -0.1649
   65POPC   NC3 1322   1.408   1.122   9.201  0.3812  0.1129  0.0339
   65POPC   PO4 1323   1.837   1.210   9.163 -0.2171  0.2741  0.4323
   65POPC   GL1 1324   1.984   1.070   8.824  0.1719 -0.0402  0.1323
   65POPC   GL2 1325   2.113   0.756   8.795 -0.0938  0.0885  0.2132
   65POPC   C1A 1326   2.252   1.329   8.619 -0.1619 -0.2132 -0.0399
   65POPC   D2A 1327   2.188   1.808   8.600 -0.2057  0.1818 -0.0194
   65POPC   C3A 1328   2.370   2.077   8.278  0.0249  0.1299  0.0208
   65POPC   C4A 1329   2.756   2.055   7.928  0.0169 -0.1453 -0.0136
   65POPC   C1B 1330   1.800   0.530   8.604  0.2203 -0.2742 -0.0662
   65POPC   C2B 1331   1.443   0.250   8.466  0.0147  0.1369 -0.2023
   65POPC   C3B 1332   0.981   0.335   8.327  0.2005 -0.3714 -0.4237
   65POPC   C4B 1333   0.684   0.516   7.995 -0.0317  0.0334 -0.1721
   66POPC   NC3 1334   6.451   5.222   9.029  0.0946  0.2826  0.1880
   66POPC   PO4 1335   6.058   5.120   9.332  0.2368 -0.1720  0.2424
   66POPC   GL1 1336   5.991   5.403   8.863 -0.1840 -0.1335 -0.0091
   66POPC   GL2 1337   6.319   5.574   8.625  0.3294 -0.2253 -0.0190
   66POPC   C1A 1338   5.837   5.485   8.403  0.1069  0.0072  0.0333
   66POPC   D2A 1339   5.520   5.595   8.238  0.0148 -0.0301  0.2681
   66POPC   C3A 1340   5.165   5.449   8.164 -0.0549 -0.6213  0.1562
   66POPC   C4A 1341   4.994   5.356   7.859  0.1804  0.5446  0.1130
   66POPC   C1B 1342   6.404   5.372   8.231  0.0513  0.2367 -0.1707
   66POPC   C2B 1343   6.365   5.233   7.712  0.7057 -0.0645 -0.1815
   66POPC   C3B 1344   6.644   5.002   7.490  0.1054  0.1216  0.3232
   66POPC   C4B 1345   7.026   4.668   7.347  0.2600 -0.1100 -0.1855
   67POPC   NC3 1346   8.445   6.315   9.068 -0.1972 -0.1657  0.4473
   67POPC   PO4 1347   8.289   5.967   8.691 -0.0789  0.1520 -0.1623
   67POPC   GL1 1348   8.230   5.977   8.181  0.0328 -0.0845  0.3321
   67POPC   GL2 1349   7.980   5.809   8.022 -0.0782 -0.0362  0.3058
   67POPC   C1A 1350   8.433   6.205   7.803  0.2726  0.1233 -0.1322
   67POPC   D2A 1351   8.661   6.462   7.498 -0.0394  0.0263 -0.2417
   67POPC   C3A 1352   9.039   6.504   7.332 -0.0437 -0.2391 -0.1067
   67POPC   C4A 1353   9.214   6.317   7.035 -0.1527  0.0880  0.0685
   67POPC   C1B 1354   7.875   5.425   7.768  0.1900 -0.2921  0.1451
   67POPC   C2B 1355   7.870   5.252   7.394  0.0039  0.0211 -0.0160
   67POPC   C3B 1356   7.771   5.139   6.954 -0.0187  0.0325  0.0901
   67POPC   C4B 1357   7.481   5.103   6.604  0.2663  0.4014 -0.0310
   68POPC   NC3 1358   2.934   4.554  10.572 -0.3024 -0.4485  0.0821
   68POPC   PO4 1359   2.608   4.359  10.697  0.1064 -0.0640  0.1602
   68POPC   GL1 1360   2.554   4.287  10.336  0.3954  0.2736 -0.0423
   68POPC   GL2 1361   2.654   4.525  10.171  0.1678  0.0581 -0.1779
   68POPC   C1A 1362   2.243   4.235   9.986 -0.3777  0.0355 -0.2784
   68POPC   D2A 1363   2.182   4.540   9.729 -0.0590  0.0078  0.0240
   68POPC   C3A 1364   2.282   4.437   9.250  0.1379 -0.1590  0.0492
   68POPC   C4A 1365   2.398   4.247   8.898 -0.0045  0.4030 -0.2078
   68POPC   C1B 1366   2.459   4.944   9.875  0.0441  0.0275  0.0871
   68POPC   C2B 1367   2.561   5.276   9.547  0.1294  0.0470 -0.0492
   68POPC   C3B 1368   2.442   5.647   9.374  0.1655 -0.2266 -0.0279
   68POPC   C4B 1369   2.384   5.894   9.018 -0.2929  0.2157 -0.3062
   69POPC   NC3 1370   2.488   3.561  10.808  0.3161  0.0299  0.2298
   69POPC   PO4 1371   2.160   3.390  10.594  0.0348 -0.3815 -0.3249
   69POPC   GL1 1372   2.337   3.672  10.267 -0.1144 -0.1729  0.0011
   69POPC   GL2 1373   2.647   3.639  10.073  0.2245  0.1041 -0.0297
   69POPC   C1A 1374   2.265   3.763   9.830  0.1089 -0.1561 -0.3254
   69POPC   D2A 1375   2.320   4.012   9.500 -0.1165  0.1132  0.0895
   69POPC   C3A 1376   2.621   3.920   9.220 -0.2471 -0.1516  0.1828
   69POPC   C4A 1377   2.925   3.873   9.420  0.0876 -0.1283  0.0174
   69POPC   C1B 1378   2.694   3.996   9.895 -0.2865 -0.2679  0.2853
   69POPC   C2B 1379   2.676   4.366   9.703 -0.1651  0.0837  0.0158
   69POPC   C3B 1380   2.635   4.705   9.435 -0.0370 -0.2921 -0.1013
   69POPC   C4B 1381   2.516   4.918   8.997 -0.3657  0.2559 -0.0416
   70POPC   NC3 1382   9.699   5.709   9.253  0.1978 -0.1218 -0.0478
   70POPC   PO4 1383   9.588   6.101   9.115  0.1151  0.3623  0.0953
   70POPC   GL1 1384   9.731   5.904   8.775  0.1051  0.0407  0.0746
   70POPC   GL2 1385   9.861   5.634   8.736  0.0281 -0.0758 -0.3288
   70POPC   C1A 1386  10.052   6.091   8.444 -0.0779 -0.1859  0.0837
   70POPC   D2A 1387  10.371   6.099   8.160  0.1305 -0.4216  0.2094
   70POPC   C3A 1388  10.617   5.940   8.511  0.2318 -0.1758 -0.1252
   70POPC   C4A 1389  10.979   6.017   8.701 -0.3904  0.0392  0.0362
   70POPC   C1B 1390   9.701   5.790   8.326 -0.5006  0.1522 -0.2671
   70POPC   C2B 1391   9.872   5.951   7.973  0.2048 -0.1302 -0.0480
   70POPC   C3B 1392   9.836   6.159   7.520  0.0860 -0.2342 -0.1424
   70POPC   C4B 1393   9.649   6.155   7.151 -0.1858 -0.0120  0.0637
   71POPC   NC3 1394   3.219   9.710   9.139  0.5085 -0.0023  0.4356
   71POPC   PO4 1395   3.238   9.415   8.792  0.0822 -0.1131  0.1600
   71POPC   GL1 1396   3.057   9.022   8.545 -0.1844 -0.0410  0.2112
   71POPC   GL2 1397   2.671   9.075   8.442 -0.3759 -0.1734  0.0592
   71POPC   C1A 1398   2.977   8.620   8.374  0.0421  0.0721 -0.0832
   71POPC   D2A 1399   3.028   8.418   8.010  0.0675  0.0424 -0.0988
   71POPC   C3A 1400   2.790   8.403   7.508  0.1155 -0.2890 -0.2038
   71POPC   C4A 1401   2.967   8.372   7.143  0.1072 -0.0814  0.1997
   71POPC   C1B 1402   2.792   8.989   7.953  0.1266 -0.0231  0.3066
   71POPC   C2B 1403   3.060   8.805   7.680  0.2048  0.1022 -0.1199
   71POPC   C3B 1404   3.355   8.456   7.492  0.0008  0.1399  0.1623
   71POPC   C4B 1405   3.490   8.088   7.227 -0.0210  0.1732  0.0601
   72POPC   NC3 1406   2.863   7.422   9.416 -0.0626 -0.3071  0.2807
   72POPC   PO4 1407   2.794   7.182   9.690 -0.0796  0.0160 -0.4020
   72POPC   GL1 1408   2.376   7.038   9.412 -0.1856  0.1836  0.0701
   72POPC   GL2 1409   2.237   6.760   9.559 -0.3117 -0.1750  0.0897
   72POPC   C1A 1410   2.174   6.909   8.981 -0.1083 -0.0504  0.0785
   72POPC   D2A 1411   2.096   7.312   8.724 -0.2111  0.0640  0.3747
   72POPC   C3A 1412   2.195   7.230   8.258 -0.2972 -0.5985 -0.2330
   72POPC   C4A 1413   2.043   7.432   7.852  0.2930  0.2947  0.0419
   72POPC   C1B 1414   2.048   6.504   9.278 -0.1657 -0.0831 -0.3380
   72POPC   C2B 1415   2.027   6.395   8.908  0.0761  0.0368 -0.2554
   72POPC   C3B 1416   2.045   6.241   8.541 -0.3187 -0.0580 -0.1111
   72POPC   C4B 1417   1.871   6.034   8.268  0.0439  0.0424  0.0332
   73POPC   NC3 1418   6.699   4.360   8.851 -0.0406  0.0086 -0.1700
   73POPC   PO4 1419   6.664   4.762   9.033  0.1759  0.3249 -0.3848
   73POPC   GL1 1420   6.603   4.853   8.629 -0.1141 -0.4275 -0.0431
   73POPC   GL2 1421   6.247   5.038   8.555 -0.1875  0.0735 -0.3505
   73POPC   C1A 1422   6.515   4.711   8.306  0.2171  0.1103  0.1275
   73POPC   D2A 1423   6.084   4.576   8.189  0.1828  0.0709 -0.0590
   73POPC   C3A 1424   5.915   4.898   8.087 -0.0294 -0.1434 -0.0261
   73POPC   C4A 1425   5.588   5.209   7.910 -0.1411 -0.2339  0.1379
   73POPC   C1B 1426   5.883   4.993   8.601 -0.3110  0.0956  0.1290
   73POPC   C2B 1427   5.657   4.649   8.460 -0.1509  0.1295 -0.0098
   73POPC   C3B 1428   5.654   4.447   7.956  0.1670 -0.0600 -0.0780
   73POPC   C4B 1429   5.467   4.706   7.611 -0.0717  0.0780  0.0107
   74POPC   NC3 1430   0.148   0.759   9.295  0.1876  0.0374 -0.2145
   74POPC   PO4 1431  -0.303   0.894   9.370  0.2045 -0.1427 -0.2600
   74POPC   GL1 1432  -0.296   0.882   9.027 -0.0618 -0.0334  0.0240
   74POPC   GL2 1433  -0.301   1.128   8.850 -0.3493 -0.1868 -0.0653
   74POPC   C1A 1434  -0.353   0.782   8.548 -0.0222 -0.4092 -0.2827
   74POPC   D2A 1435  -0.391   0.953   8.088  0.3568  0.4534  0.3901
   74POPC   C3A 1436   0.024   1.088   7.912 -0.0996 -0.1962  0.0973
   74POPC   C4A 1437   0.231   1.159   7.507  0.1577 -0.2763 -0.0268
   74POPC   C1B 1438  -0.204   1.242   8.455 -0.1332  0.1403 -0.1694
   74POPC   C2B 1439  -0.176   1.548   8.108  0.1007  0.4018  0.1939
   74POPC   C3B 1440  -0.116   1.504   7.707  0.3442 -0.1524 -0.1744
   74POPC   C4B 1441  -0.271   1.511   7.302  0.6085  0.0281  0.1443
   75POPC   NC3 1442   1.090   4.404  10.797 -0.1156 -0.0213  0.0603
   75POPC   PO4 1443   0.822   4.784  10.627 -0.3427 -0.0292  0.1377
   75POPC   GL1 1444   1.072   4.728  10.191 -0.1296 -0.1115 -0.3072
   75POPC   GL2 1445   0.931   4.502   9.936 -0.2062 -0.2200 -0.1902
   75POPC   C1A 1446   1.342   5.059  10.090  0.3073 -0.1098 -0.0250
   75POPC   D2A 1447   1.455   5.367   9.830  0.4808 -0.1944 -0.2120
   75POPC   C3A 1448   1.829   5.329   9.647 -0.1186  0.0292 -0.2661
   75POPC   C4A 1449   2.126   5.022   9.399 -0.0790  0.0543 -0.3877
   75POPC   C1B 1450   1.108   4.523   9.565 -0.1926  0.0134 -0.2106
   75POPC   C2B 1451   1.279   4.538   9.180 -0.2805  0.3413 -0.0046
   75POPC   C3B 1452   1.688   4.343   8.963  0.4824 -0.0669  0.5040
   75POPC   C4B 1453   1.772   4.110   8.557 -0.0012  0.0383  0.0570
   76POPC   NC3 1454   4.548   4.180   9.664 -0.0581 -0.2246 -0.1209
   76POPC   PO4 1455   5.015   4.065   9.551 -0.0625 -0.2242  0.1049
   76POPC   GL1 1456   5.198   4.016   9.143  0.2483  0.1377  0.3461
   76POPC   GL2 1457   5.600   4.049   9.027  0.0521  0.0855 -0.0762
   76POPC   C1A 1458   5.280   3.837   8.649 -0.0461 -0.2131 -0.1173
   76POPC   D2A 1459   5.543   3.727   8.308  0.2778 -0.0486  0.1068
   76POPC   C3A 1460   5.500   3.804   7.924 -0.1576  0.0428  0.0362
   76POPC   C4A 1461   5.810   3.740   7.572  0.3685 -0.2200  0.2275
   76POPC   C1B 1462   5.802   4.051   8.535 -0.1349  0.0279 -0.0271
   76POPC   C2B 1463   5.965   4.067   8.107 -0.0211  0.1207  0.2226
   76POPC   C3B 1464   6.026   4.322   7.591  0.2509  0.0367 -0.0906
   76POPC   C4B 1465   5.784   4.175   7.264  0.2719 -0.1375 -0.1157
   77POPC   NC3 1466   8.190   3.341   8.521 -0.0361  0.1927 -0.2214
   77POPC   PO4 1467   8.521   3.111   8.771  0.3401  0.0360 -0.3415
   77POPC   GL1 1468   8.404   2.913   8.444  0.3433  0.1030  0.2201
   77POPC   GL2 1469   8.517   3.064   8.244 -0.3584  0.4002  0.3000
   77POPC   C1A 1470   8.124   2.835   8.042  0.0269 -0.1726  0.1864
   77POPC   D2A 1471   8.096   2.962   7.598 -0.1603 -0.0381  0.5007
   77POPC   C3A 1472   8.289   2.828   7.290 -0.0048 -0.1155 -0.4622
   77POPC   C4A 1473   8.700   2.893   7.457 -0.2647 -0.0910  0.3434
   77POPC   C1B 1474   8.525   3.085   7.875  0.4137 -0.0203 -0.0801
   77POPC   C2B 1475   8.515   3.421   7.616 -0.3146 -0.3878 -0.1166
   77POPC   C3B 1476   8.838   3.683   7.350  0.2598  0.0555 -0.0167
   77POPC   C4B 1477   9.353   3.792   7.380 -0.0549 -0.2114  0.0953
   78POPC   NC3 1478   7.369   0.833   9.300  0.2415 -0.1790  0.0087
   78POPC   PO4 1479   7.668   0.436   9.044  0.0228  0.1394  0.1175
   78POPC   GL1 1480   7.586   0.428   8.531  0.3729 -0.0794 -0.0220
   78POPC   GL2 1481   7.264   0.561   8.377  0.1857 -0.3512 -0.1083
   78POPC   C1A 1482   7.597   0.268   8.036 -0.1449 -0.1222 -0.0153
   78POPC   D2A 1483   7.708  -0.009   7.579 -0.0325 -0.0883  0.1355
   78POPC   C3A 1484   7.363  -0.056   7.428 -0.1104 -0.3904 -0.2383
   78POPC   C4A 1485   7.069  -0.059   7.181  0.1048  0.1157 -0.2170
   78POPC   C1B 1486   6.991   0.406   8.051 -0.1808  0.0288 -0.1492
   78POPC   C2B 1487   6.780   0.206   7.647 -0.3035 -0.0910 -0.0114
   78POPC   C3B 1488   6.619   0.347   7.211 -0.0481 -0.0431 -0.1549
   78POPC   C4B 1489   6.751   0.173   6.903  0.1874 -0.2807 -0.1022
   79POPC   NC3 1490   3.664   8.071   9.274  0.0512 -0.4263  0.0780
   79POPC   PO4 1491   3.578   8.406   9.093 -0.2332 -0.2076  0.0667
   79POPC   GL1 1492   3.626   8.239   8.681 -0.1255 -0.0886 -0.0554
   79POPC   GL2 1493   3.948   8.423   8.643 -0.0819  0.0810 -0.2006
   79POPC   C1A 1494   3.492   7.972   8.407  0.1850  0.4070  0.3598
   79POPC   D2A 1495   3.337   7.910   8.081 -0.1550  0.2130  0.1186
   79POPC   C3A 1496   3.088   7.516   8.012 -0.1342 -0.0674  0.1531
   79POPC   C4A 1497   3.042   7.081   7.741  0.0857  0.2043  0.0531
   79POPC   C1B 1498   4.011   8.497   8.198  0.0024 -0.0115 -0.1273
   79POPC   C2B 1499   3.906   8.884   7.946 -0.0017 -0.0205  0.2041
   79POPC   C3B 1500   4.182   9.067   7.625 -0.1812 -0.0553  0.2393
   79POPC   C4B 1501   4.582   9.324   7.794 -0.2691 -0.0027 -0.3586
   80POPC   NC3 1502   3.844   2.254   9.466  0.0329 -0.2170 -0.3043
   80POPC   PO4 1503   3.497   1.976   9.529 -0.2053  0.0146 -0.0625
   80POPC   GL1 1504   3.306   2.211   9.179  0.0195 -0.1578  0.1947
   80POPC   GL2 1505   3.416   2.491   9.137 -0.1759 -0.0246 -0.2768
   80POPC   C1A 1506   3.276   2.147   8.797 -0.0335 -0.1880 -0.0915
   80POPC   D2A 1507   2.934   2.084   8.550  0.1079  0.1530 -0.1545
   80POPC   C3A 1508   2.991   2.497   8.431 -0.1881  0.0351 -0.2263
   80POPC   C4A 1509   3.040   2.889   8.352  0.0136 -0.1076  0.2310
   80POPC   C1B 1510   3.517   2.836   8.857  0.1346 -0.2018  0.1001
   80POPC   C2B 1511   3.424   3.062   8.546 -0.0248  0.1182 -0.1027
   80POPC   C3B 1512   3.071   3.374   8.422  0.1852 -0.1034  0.0325
   80POPC   C4B 1513   2.814   3.710   8.395  0.1414  0.2357  0.1620
   81POPC   NC3 1514   7.310   3.561   8.807  0.1153 -0.1317  0.3948
   81POPC   PO4 1515   7.486   3.859   8.573  0.2180 -0.2893 -0.1399
   81POPC   GL1 1516   7.546   3.819   8.096  0.0903  0.0881 -0.1836
   81POPC   GL2 1517   7.507   3.521   8.220  0.1233  0.0378  0.0798
   81POPC   C1A 1518   7.138   3.797   7.931 -0.1259  0.2618  0.2613
   81POPC   D2A 1519   6.797   3.959   7.666  0.0601 -0.0828  0.1074
   81POPC   C3A 1520   6.549   4.281   7.413  0.2096  0.0526 -0.2274
   81POPC   C4A 1521   6.285   4.645   7.309 -0.1901  0.2014 -0.0819
   81POPC   C1B 1522   7.282   3.233   8.015 -0.1104 -0.1764 -0.1560
   81POPC   C2B 1523   7.199   3.115   7.633  0.1058 -0.0564  0.0608
   81POPC   C3B 1524   7.021   3.002   7.281 -0.1376  0.3432  0.2328
   81POPC   C4B 1525   6.884   3.276   6.920  0.2054 -0.0865 -0.2368
   82POPC   NC3 1526   2.795   2.074   9.597  0.3312  0.0510 -0.2198
   82POPC   PO4 1527   2.709   2.366   9.859  0.4416  0.0147  0.0327
   82POPC   GL1 1528   2.433   2.522   9.543  0.0520 -0.0481  0.1449
   82POPC   GL2 1529   2.666   2.511   9.354 -0.3097  0.0175  0.0511
   82POPC   C1A 1530   2.302   2.915   9.537 -0.0303 -0.0153  0.0092
   82POPC   D2A 1531   1.988   3.168   9.697  0.0726  0.0296  0.2294
   82POPC   C3A 1532   2.031   3.596   9.448  0.1320  0.3459 -0.2107
   82POPC   C4A 1533   1.972   3.819   9.022  0.1148 -0.0199 -0.1996
   82POPC   C1B 1534   2.372   2.649   9.103  0.0956 -0.0763  0.1669
   82POPC   C2B 1535   2.064   2.843   9.021 -0.0278 -0.0189 -0.3315
   82POPC   C3B 1536   1.942   3.161   9.158  0.1996  0.1746 -0.3012
   82POPC   C4B 1537   1.594   3.408   9.145  0.1454  0.2088  0.1110
   83POPC   NC3 1538   2.172   8.201   9.175 -0.0379 -0.3000  0.3670
   83POPC   PO4 1539   2.415   7.895   9.489 -0.3539 -0.3323 -0.0293
   83POPC   GL1 1540   2.768   7.941   9.098 -0.2412  0.0445 -0.0282
   83POPC   GL2 1541   2.651   8.134   8.688 -0.0686  0.0008 -0.0300
   83POPC   C1A 1542   2.828   7.679   8.687  0.1270 -0.0989 -0.0091
   83POPC   D2A 1543   3.073   7.512   8.465  0.0393 -0.0571 -0.2430
   83POPC   C3A 1544   2.772   7.240   8.284  0.0744  0.2569  0.1181
   83POPC   C4A 1545   2.663   6.895   8.052 -0.0089 -0.0281 -0.2190
   83POPC   C1B 1546   2.415   8.131   8.359 -0.1417 -0.1234  0.1581
   83POPC   C2B 1547   2.205   7.902   8.137 -0.2884 -0.1479 -0.0952
   83POPC   C3B 1548   1.815   7.932   7.913  0.0029 -0.1433 -0.0711
   83POPC   C4B 1549   1.467   7.752   7.684 -0.2222  0.0097  0.0301
   84POPC   NC3 1550   5.566   8.647   9.354 -0.2439  0.0780 -0.0444
   84POPC   PO4 1551   5.259   8.688   8.993  0.0966 -0.1176 -0.0196
   84POPC   GL1 1552   5.181   9.019   8.630 -0.0478 -0.1708 -0.0736
   84POPC   GL2 1553   5.333   9.394   8.556 -0.1732 -0.1824  0.0254
   84POPC   C1A 1554   5.332   9.010   8.197 -0.0666 -0.1908  0.0709
   84POPC   D2A 1555   5.497   8.853   7.820  0.0780  0.0666  0.1737
   84POPC   C3A 1556   5.100   8.565   7.651  0.3178  0.0693 -0.0662
   84POPC   C4A 1557   4.857   8.450   7.226  0.1844 -0.0460  0.0423
   84POPC   C1B 1558   5.118   9.550   8.067  0.0204 -0.0299 -0.0000
   84POPC   C2B 1559   4.996   9.598   7.604 -0.1355 -0.1309  0.0958
   84POPC   C3B 1560   4.928  10.007   7.465  0.1384  0.0711  0.1108
   84POPC   C4B 1561   4.760  10.358   7.581  0.2577 -0.2251 -0.1629
   85POPC   NC3 1562   4.684   6.143   9.797 -0.0358  0.1658 -0.2363
   85POPC   PO4 1563   5.062   5.973   9.730  0.0201 -0.1153  0.1265
   85POPC   GL1 1564   4.921   6.024   9.294  0.0323 -0.1142 -0.1282
   85POPC   GL2 1565   5.217   6.150   9.283 -0.1362 -0.2164  0.0513
   85POPC   C1A 1566   4.500   6.123   9.100 -0.2314  0.0312 -0.1944
   85POPC   D2A 1567   3.987   6.253   9.008 -0.0214  0.0361  0.0627
   85POPC   C3A 1568   3.824   6.607   9.081  0.0733 -0.2579 -0.0555
   85POPC   C4A 1569   3.453   6.489   9.372 -0.2041 -0.1582  0.1642
   85POPC   C1B 1570   5.403   6.167   8.807 -0.1778  0.0182  0.2186
   85POPC   C2B 1571   5.615   6.380   8.423  0.3352 -0.2826 -0.0346
   85POPC   C3B 1572   5.368   6.492   8.088 -0.1987 -0.0189  0.0805
   85POPC   C4B 1573   5.209   6.939   8.031 -0.1727  0.0939 -0.0249
   86POPC   NC3 1574  10.134   7.278   9.457  0.2507 -0.2328  0.0105
   86POPC   PO4 1575   9.852   7.422   9.202 -0.1996  0.0711  0.2648
   86POPC   GL1 1576  10.137   7.314   8.810  0.2652 -0.2286 -0.1602
   86POPC   GL2 1577   9.941   7.013   8.606  0.1715 -0.2448  0.0191
   86POPC   C1A 1578  10.493   7.122   8.397  0.4574  0.1658  0.0382
   86POPC   D2A 1579  10.850   7.166   8.071 -0.0067  0.0671  0.0104
   86POPC   C3A 1580  10.743   7.268   7.736  0.3310 -0.1541 -0.0794
   86POPC   C4A 1581  10.577   7.616   7.491 -0.1272 -0.1800  0.0270
   86POPC   C1B 1582   9.857   6.665   8.310 -0.2075 -0.0967  0.0936
   86POPC   C2B 1583  10.046   6.474   7.870 -0.0347  0.0005  0.0683
   86POPC   C3B 1584  10.335   6.487   7.557 -0.1509  0.2320  0.3258
   86POPC   C4B 1585  10.739   6.689   7.531  0.0647  0.0130 -0.0212
   87POPC   NC3 1586   8.264   7.390   9.241  0.1082  0.0244 -0.1820
   87POPC   PO4 1587   8.687   7.282   9.230 -0.1282  0.1438 -0.1392
   87POPC   GL1 1588   8.602   7.364   8.902  0.2419  0.1586 -0.0535
   87POPC   GL2 1589   8.766   7.603   8.697 -0.0505 -0.1084  0.0264
   87POPC   C1A 1590   8.312   7.358   8.596  0.0563 -0.0838  0.0431
   87POPC   D2A 1591   8.422   7.193   8.241 -0.3069  0.0530 -0.3718
   87POPC   C3A 1592   8.192   7.360   7.900 -0.1420  0.1440  0.1896
   87POPC   C4A 1593   7.984   7.231   7.556 -0.3161 -0.4691 -0.3005
   87POPC   C1B 1594   8.898   7.806   8.398  0.0657  0.0281 -0.2627
   87POPC   C2B 1595   8.797   8.060   8.128 -0.2955  0.1456  0.2563
   87POPC   C3B 1596   8.603   8.087   7.702  0.1472 -0.3559 -0.1416
   87POPC   C4B 1597   8.317   8.192   7.400  0.2960  0.2396 -0.1421
   88POPC   NC3 1598   8.868  10.031   8.823  0.1424 -0.0081  0.1099
   88POPC   PO4 1599   8.337  10.045   8.909 -0.2603 -0.0777  0.3723
   88POPC   GL1 1600   8.544   9.903   8.501  0.0517 -0.2051 -0.0675
   88POPC   GL2 1601   8.711  10.194   8.325 -0.1851 -0.3769 -0.1370
   88POPC   C1A 1602   8.419   9.820   8.137 -0.0796  0.0139  0.0045
   88POPC   D2A 1603   8.294   9.339   8.027  0.0569 -0.2437 -0.0214
   88POPC   C3A 1604   7.895   9.336   7.911  0.0988 -0.1003  0.1348
   88POPC   C4A 1605   7.498   9.215   7.946  0.1134 -0.2385 -0.3348
   88POPC   C1B 1606   8.624  10.350   7.866 -0.0844 -0.2242 -0.2257
   88POPC   C2B 1607   8.575  10.594   7.576  0.0805  0.0128  0.2101
   88POPC   C3B 1608   8.527  10.520   7.225 -0.2127 -0.4764 -0.0903
   88POPC   C4B 1609   8.340  10.151   7.023 -0.1534  0.2844  0.2104
   89POPC   NC3 1610   8.589   1.464   8.804 -0.0995 -0.2517  0.0587
   89POPC   PO4 1611   8.873   1.267   8.926  0.2969  0.0966 -0.2277
   89POPC   GL1 1612   8.928   1.164   8.520  0.0334  0.1766  0.0904
   89POPC   GL2 1613   8.966   1.416   8.439 -0.2738  0.0426 -0.0294
   89POPC   C1A 1614   8.894   1.055   8.110 -0.0889  0.0548  0.0859
   89POPC   D2A 1615   9.086   1.241   7.673 -0.0330  0.0871 -0.2441
   89POPC   C3A 1616   8.816   1.241   7.401 -0.0030 -0.2948  0.0140
   89POPC   C4A 1617   8.543   1.410   7.064 -0.0932  0.3156 -0.1039
   89POPC   C1B 1618   8.983   1.557   8.071  0.1365 -0.2353 -0.3455
   89POPC   C2B 1619   9.180   1.766   7.699  0.0295 -0.0093  0.2006
   89POPC   C3B 1620   9.404   1.937   7.422 -0.1665  0.0068 -0.2918
   89POPC   C4B 1621   9.524   2.324   7.409  0.0419  0.1682 -0.3237
   90POPC   NC3 1622   5.239   3.096  10.256 -0.1729 -0.0863  0.0846
   90POPC   PO4 1623   4.873   3.018  10.081  0.1317  0.1943 -0.4828
   90POPC   GL1 1624   4.695   3.131   9.689  0.0817  0.3067  0.1936
   90POPC   GL2 1625   4.465   3.427   9.618 -0.2454  0.1301 -0.2284
   90POPC   C1A 1626   4.396   3.044   9.309  0.0540 -0.1921  0.0544
   90POPC   D2A 1627   4.484   3.328   8.874 -0.0881 -0.0724 -0.1603
   90POPC   C3A 1628   4.241   3.311   8.512  0.1380  0.0532 -0.0094
   90POPC   C4A 1629   4.412   3.061   8.168  0.0149 -0.2903 -0.2202
   90POPC   C1B 1630   4.106   3.418   9.225 -0.1892 -0.4042  0.1263
   90POPC   C2B 1631   3.860   3.424   8.924 -0.0831 -0.3115  0.0237
   90POPC   C3B 1632   3.662   3.526   8.548  0.0697  0.1805  0.1380
   90POPC   C4B 1633   3.942   3.357   8.146  0.2105  0.1561  0.1334
   91POPC   NC3 1634   7.463   7.419   8.978  0.3077 -0.0254 -0.1720
   91POPC   PO4 1635   7.846   7.656   9.015 -0.1928  0.0914 -0.3380
   91POPC   GL1 1636   7.769   7.577   8.654 -0.1059  0.1423  0.1253
   91POPC   GL2 1637   7.480   7.743   8.605  0.3358  0.1622 -0.1306
   91POPC   C1A 1638   7.974   7.648   8.243  0.0582  0.1009  0.0028
   91POPC   D2A 1639   8.124   7.869   7.870 -0.2048 -0.0978 -0.1598
   91POPC   C3A 1640   8.369   7.642   7.424 -0.2094  0.0131  0.1645
   91POPC   C4A 1641   8.643   7.476   7.099  0.3474 -0.0612  0.1131
   91POPC   C1B 1642   7.319   7.591   8.279  0.2772 -0.0168  0.0714
   91POPC   C2B 1643   7.154   7.157   8.142 -0.0279 -0.1262 -0.1910
   91POPC   C3B 1644   7.022   6.695   8.042  0.0314  0.0294 -0.0052
   91POPC   C4B 1645   7.329   6.244   8.142 -0.2149  0.2920 -0.2280
   92POPC   NC3 1646   5.174   2.506   9.671 -0.1940  0.1001  0.0790
   92POPC   PO4 1647   5.463   2.448   9.368  0.0972 -0.0833  0.2995
   92POPC   GL1 1648   5.416   2.486   8.999  0.4783 -0.2181 -0.2808
   92POPC   GL2 1649   5.724   2.438   8.892  0.1751  0.0600  0.1010
   92POPC   C1A 1650   5.498   2.675   8.538 -0.1187  0.0693  0.0995
   92POPC   D2A 1651   5.491   2.863   8.139  0.1366  0.3486 -0.0569
   92POPC   C3A 1652   5.217   3.061   7.928 -0.1016  0.1704  0.1220
   92POPC   C4A 1653   5.015   3.081   7.482 -0.0869 -0.2079  0.0429
   92POPC   C1B 1654   5.887   2.097   8.677 -0.0004 -0.0904 -0.2723
   92POPC   C2B 1655   5.708   1.875   8.383  0.1331 -0.0959  0.1624
   92POPC   C3B 1656   5.691   1.872   7.989 -0.2912 -0.1983  0.1909
   92POPC   C4B 1657   5.629   1.905   7.509  0.1690  0.2650  0.1524
   93POPC   NC3 1658   5.676   8.006   8.921  0.1295  0.0220  0.1370
   93POPC   PO4 1659   6.121   8.047   9.024 -0.2541 -0.2302 -0.0098
   93POPC   GL1 1660   6.147   8.148   8.633  0.1232  0.0429  0.0439
   93POPC   GL2 1661   6.398   8.340   8.459  0.0568 -0.1269 -0.0205
   93POPC   C1A 1662   5.914   8.169   8.247  0.0453 -0.2416  0.3568
   93POPC   D2A 1663   5.571   8.220   8.200 -0.0962  0.1685  0.2726
   93POPC   C3A 1664   5.566   8.243   7.690 -0.2329 -0.0573 -0.1113
   93POPC   C4A 1665   5.254   8.148   7.405 -0.1397  0.4506  0.2981
   93POPC   C1B 1666   6.304   8.660   8.117 -0.2395  0.0443  0.0969
   93POPC   C2B 1667   6.487   8.830   7.737 -0.1244 -0.0563  0.2877
   93POPC   C3B 1668   6.388   8.910   7.369 -0.3547  0.2174  0.0812
   93POPC   C4B 1669   6.097   9.134   7.114  0.1428 -0.0141  0.1688
   94POPC   NC3 1670   9.005   4.950   8.723 -0.0499  0.1783  0.3450
   94POPC   PO4 1671   8.891   5.318   8.751 -0.1233  0.0071 -0.0433
   94POPC   GL1 1672   8.984   5.304   8.357 -0.0452 -0.2484 -0.1667
   94POPC   GL2 1673   8.766   5.356   8.143  0.0631 -0.1304 -0.2650
   94POPC   C1A 1674   9.207   5.207   7.991 -0.2220 -0.1237 -0.1644
   94POPC   D2A 1675   9.550   5.308   7.599  0.1496 -0.2142  0.1449
   94POPC   C3A 1676   9.718   5.103   7.298 -0.1769  0.2465  0.1707
   94POPC   C4A 1677  10.111   5.008   7.185 -0.0215  0.0075  0.1470
   94POPC   C1B 1678   8.797   5.101   7.713  0.0830  0.0301  0.1852
   94POPC   C2B 1679   8.758   4.770   7.403  0.2253  0.4312  0.0658
   94POPC   C3B 1680   8.966   4.503   7.140 -0.2775  0.2692  0.0433
   94POPC   C4B 1681   9.024   4.059   6.955 -0.4415  0.2823 -0.1517
   95POPC   NC3 1682   5.913   2.454   9.634  0.1506 -0.1132 -0.2669
   95POPC   PO4 1683   5.793   2.840   9.307 -0.0352 -0.1072 -0.2378
   95POPC   GL1 1684   5.571   3.041   9.019 -0.0907  0.0278 -0.4573
   95POPC   GL2 1685   5.800   2.998   8.770  0.0690  0.1129 -0.0161
   95POPC   C1A 1686   5.193   2.940   8.828  0.1406  0.1283  0.1913
   95POPC   D2A 1687   5.019   2.950   8.335  0.1306  0.0823  0.0334
   95POPC   C3A 1688   4.993   2.599   8.056 -0.1984 -0.0338  0.2606
   95POPC   C4A 1689   5.081   2.601   7.593  0.2277  0.3303 -0.2878
   95POPC   C1B 1690   6.002   3.056   8.388  0.0071  0.0655  0.3354
   95POPC   C2B 1691   5.977   2.933   7.989 -0.3030 -0.1666 -0.0188
   95POPC   C3B 1692   5.850   2.961   7.558 -0.0590  0.4606  0.1656
   95POPC   C4B 1693   5.426   2.874   7.377  0.3140 -0.0762  0.0173
   96POPC   NC3 1694   0.037   6.434   9.571  0.2470 -0.0322  0.2630
   96POPC   PO4 1695   0.272   6.792   9.482  0.1908 -0.1175  0.0074
   96POPC   GL1 1696   0.475   6.466   9.353  0.1348 -0.2898  0.0901
   96POPC   GL2 1697   0.510   6.632   9.088 -0.0531  0.1566 -0.2222
   96POPC   C1A 1698   0.386   6.192   8.938  0.2777 -0.2936  0.0932
   96POPC   D2A 1699   0.190   5.757   8.900  0.3054  0.3275 -0.2637
   96POPC   C3A 1700   0.050   5.598   8.433  0.0180 -0.0456  0.0237
   96POPC   C4A 1701  -0.003   5.575   8.043 -0.4134  0.1121  0.2082
   96POPC   C1B 1702   0.797   6.829   8.795 -0.1666 -0.0549  0.0791
   96POPC   C2B 1703   0.913   7.163   8.634  0.3302  0.1862 -0.1892
   96POPC   C3B 1704   1.088   7.280   8.315  0.0980  0.1478  0.0792
   96POPC   C4B 1705   1.045   7.490   7.975  0.0428  0.0350 -0.1775
   97POPC   NC3 1706   5.527   6.375   9.567  0.0135 -0.1485  0.1232
   97POPC   PO4 1707   5.045   6.533   9.677 -0.1793 -0.1402  0.0612
   97POPC   GL1 1708   5.158   6.649   9.152 -0.0224  0.0493 -0.1387
   97POPC   GL2 1709   5.153   6.820   8.900  0.1045  0.1417  0.2168
   97POPC   C1A 1710   4.914   6.310   8.870  0.3325  0.0027 -0.1312
   97POPC   D2A 1711   4.707   5.993   8.652  0.0441  0.1161  0.1079
   97POPC   C3A 1712   4.340   6.014   8.327 -0.3943  0.1436 -0.0982
   97POPC   C4A 1713   4.137   5.783   7.960  0.0452 -0.0794  0.0118
   97POPC   C1B 1714   5.089   6.633   8.501 -0.0572  0.1262 -0.2146
   97POPC   C2B 1715   4.848   6.391   8.250 -0.0637 -0.0475  0.0068
   97POPC   C3B 1716   5.009   6.250   7.799  0.0872  0.3737 -0.2972
   97POPC   C4B 1717   4.781   6.023   7.505 -0.0964  0.0439 -0.2602
   98POPC   NC3 1718   9.032   7.059   9.534 -0.0429  0.0875  0.1233
   98POPC   PO4 1719   9.297   7.464   9.228  0.0633 -0.0882 -0.3215
   98POPC   GL1 1720   9.255   7.666   8.886  0.0572  0.0062  0.5637
   98POPC   GL2 1721   9.175   7.857   8.812  0.5004 -0.2660  0.1283
   98POPC   C1A 1722   9.353   7.568   8.446  0.1931  0.2667  0.0216
   98POPC   D2A 1723   9.141   7.419   8.115 -0.2542  0.0781 -0.4094
   98POPC   C3A 1724   9.250   7.153   7.972 -0.1334  0.1361 -0.3512
   98POPC   C4A 1725   9.468   6.808   7.977 -0.1570 -0.2519  0.0748
   98POPC   C1B 1726   9.326   8.054   8.397 -0.2219  0.0119  0.2003
   98POPC   C2B 1727   9.215   7.836   7.925 -0.0861 -0.0005 -0.0795
   98POPC   C3B 1728   9.512   7.502   7.739  0.2332 -0.2088 -0.1995
   98POPC   C4B 1729   9.864   7.355   7.707  0.0630  0.2123  0.0512
   99POPC   NC3 1730   0.487   7.409   9.481 -0.2136 -0.2916  0.2341
   99POPC   PO4 1731   0.162   7.609   9.124  0.0688  0.0424  0.1215
   99POPC   GL1 1732   0.155   7.795   8.661 -0.0101 -0.2041 -0.1801
   99POPC   GL2 1733   0.126   7.607   8.354  0.1576  0.1735 -0.0105
   99POPC   C1A 1734   0.033   8.079   8.367 -0.0315 -0.1401 -0.2874
   99POPC   D2A 1735  -0.390   8.209   8.264 -0.2484  0.0763 -0.0946
   99POPC   C3A 1736  -0.613   8.185   7.972 -0.2214 -0.1530 -0.0725
   99POPC   C4A 1737  -0.497   8.353   7.620 -0.2126 -0.0770 -0.1770
   99POPC   C1B 1738   0.088   7.467   7.940  0.3937  0.1171  0.0583
   99POPC   C2B 1739   0.079   7.059   7.580  0.4217  0.1620 -0.2399
   99POPC   C3B 1740   0.172   6.901   7.174 -0.0059 -0.3784 -0.2302
   99POPC   C4B 1741   0.440   6.442   7.082  0.0732 -0.5650  0.0895
  100POPC   NC3 1742   9.804   2.104   9.215  0.0513 -0.2569  0.1222
  100POPC   PO4 1743   9.835   2.385   8.855 -0.1722  0.4005 -0.1438
  100POPC   GL1 1744   9.826   2.745   8.621 -0.2217  0.0748  0.3044
  100POPC   GL2 1745   9.990   2.996   8.701 -0.0110  0.0843  0.4910
  100POPC   C1A 1746   9.888   2.909   8.273  0.1896  0.0982  0.0387
  100POPC   D2A 1747  10.064   2.934   7.812  0.0324 -0.0647  0.0267
  100POPC   C3A 1748   9.995   3.241   7.464  0.3244  0.2711 -0.0826
  100POPC   C4A 1749   9.939   3.065   7.027 -0.2121  0.0107  0.0945
  100POPC   C1B 1750  10.428   2.918   8.681 -0.1240  0.2390  0.0331
  100POPC   C2B 1751  10.789   2.890   8.447  0.3135  0.0544  0.2563
  100POPC   C3B 1752  11.195   3.026   8.248  0.2712 -0.0504  0.1999
  100POPC   C4B 1753  11.290   3.366   8.204 -0.2512 -0.2448  0.0682
  101POPC   NC3 1754   2.342   1.180   9.240 -0.3773 -0.0980  0.0525
  101POPC   PO4 1755   2.540   1.575   9.462 -0.0221 -0.0873  0.0077
  101POPC   GL1 1756   2.569   1.807   9.037  0.0552  0.0154  0.0462
  101POPC   GL2 1757   2.716   2.112   9.046 -0.0695 -0.2841  0.2495
  101POPC   C1A 1758   2.679   1.673   8.664 -0.3923 -0.1090 -0.4900
  101POPC   D2A 1759   2.518   1.670   8.165 -0.2242 -0.1589 -0.1100
  101POPC   C3A 1760   2.597   1.588   7.797 -0.0824  0.1416 -0.0063
  101POPC   C4A 1761   2.429   1.146   7.658 -0.2214 -0.0917 -0.1858
  101POPC   C1B 1762   2.845   2.457   8.925 -0.1393 -0.1072 -0.0251
  101POPC   C2B 1763   3.058   2.713   8.895 -0.2585 -0.0284  0.1512
  101POPC   C3B 1764   3.248   2.979   9.208 -0.2162 -0.2939 -0.2855
  101POPC   C4B 1765   3.650   3.066   9.252  0.2777 -0.2996 -0.0768
  102POPC   NC3 1766   0.412   2.464   9.423  0.2610 -0.1143  0.1355
  102POPC   PO4 1767  -0.002   2.386   9.418  0.0453 -0.0410 -0.1913
  102POPC   GL1 1768   0.126   2.281   8.971 -0.1803  0.0342  0.0283
  102POPC   GL2 1769   0.407   2.434   8.902  0.1092 -0.1428 -0.0950
  102POPC   C1A 1770   0.212   2.119   8.597  0.0921  0.1919 -0.0313
  102POPC   D2A 1771   0.206   1.997   8.204  0.1448  0.0521 -0.3408
  102POPC   C3A 1772   0.456   1.897   7.880 -0.0642 -0.3889 -0.1662
  102POPC   C4A 1773   0.585   2.176   7.550 -0.0478 -0.0609 -0.0344
  102POPC   C1B 1774   0.662   2.408   8.604 -0.0724  0.0480 -0.0557
  102POPC   C2B 1775   0.909   2.461   8.285 -0.1315 -0.2648  0.1363
  102POPC   C3B 1776   0.943   2.380   7.886  0.1201  0.0764 -0.0582
  102POPC   C4B 1777   1.038   2.428   7.393  0.1948  0.0445 -0.1719
  103POPC   NC3 1778   8.460   9.473   8.744  0.0614 -0.1565  0.2095
  103POPC   PO4 1779   8.880   9.094   8.892 -0.0369  0.0163  0.0925
  103POPC   GL1 1780   9.201   9.301   8.621  0.3024 -0.3557  0.2044
  103POPC   GL2 1781   8.874   9.533   8.464 -0.1277  0.2028 -0.0838
  103POPC   C1A 1782   9.284   9.331   8.219  0.2798 -0.2266 -0.2654
  103POPC   D2A 1783   9.555   9.304   7.814  0.3341 -0.0979  0.0499
  103POPC   C3A 1784   9.595   8.876   7.574  0.1593  0.2575  0.1482
  103POPC   C4A 1785   9.626   8.613   7.177 -0.1617  0.0280 -0.1978
  103POPC   C1B 1786   8.933   9.790   8.074  0.2263 -0.0492 -0.2151
  103POPC   C2B 1787   8.743   9.876   7.648 -0.2516 -0.2293 -0.1771
  103POPC   C3B 1788   8.816   9.987   7.278 -0.3884 -0.2577 -0.3110
  103POPC   C4B 1789   8.882  10.210   7.092 -0.0843 -0.1866  0.2056
  104POPC   NC3 1790   1.845   1.845   9.480  0.0432 -0.1987 -0.0993
  104POPC   PO4 1791   1.530   1.586   9.321  0.1820 -0.0895 -0.0077
  104POPC   GL1 1792   1.557   1.496   8.885 -0.0047  0.1287 -0.0892
  104POPC   GL2 1793   1.274   1.384   8.751 -0.0129  0.4143  0.1646
  104POPC   C1A 1794   1.763   1.524   8.496  0.0177 -0.0506  0.1684
  104POPC   D2A 1795   1.837   1.865   8.248  0.2632  0.3480 -0.1747
  104POPC   C3A 1796   2.113   1.871   7.866 -0.2117  0.0661  0.3086
  104POPC   C4A 1797   2.387   1.970   7.448 -0.3141  0.0529  0.1607
  104POPC   C1B 1798   1.311   1.396   8.274  0.1318  0.0907  0.4634
  104POPC   C2B 1799   1.538   1.548   8.002  0.2128  0.1968  0.1237
  104POPC   C3B 1800   1.520   1.602   7.551 -0.2580  0.0003  0.2472
  104POPC   C4B 1801   1.351   1.601   7.113  0.0076 -0.0452 -0.0516
  105POPC   NC3 1802   4.403  10.034   8.857 -0.1860  0.0240  0.1511
  105POPC   PO4 1803   4.890  10.334   8.667 -0.1662  0.0069 -0.3216
  105POPC   GL1 1804   4.700  10.661   8.471 -0.3509 -0.0688 -0.2347
  105POPC   GL2 1805   4.876  10.469   8.187 -0.0415  0.0922  0.0679
  105POPC   C1A 1806   4.754  11.024   8.151  0.1675  0.3265 -0.0563
  105POPC   D2A 1807   5.064  11.160   7.938  0.0413 -0.0344 -0.1724
  105POPC   C3A 1808   5.080  11.295   7.506  0.0064 -0.1061  0.0399
  105POPC   C4A 1809   4.845  11.054   7.117 -0.2588  0.3860  0.1066
  105POPC   C1B 1810   5.169  10.671   8.227 -0.0210  0.3396  0.1384
  105POPC   C2B 1811   5.543  10.885   8.153  0.2695  0.2600 -0.0087
  105POPC   C3B 1812   5.553  11.191   7.815 -0.0411 -0.2138  0.1678
  105POPC   C4B 1813   5.593  11.406   7.487 -0.3259  0.1769 -0.0387
  106POPC   NC3 1814   8.835   1.882   9.054  0.0017 -0.0526 -0.2627
  106POPC   PO4 1815   9.127   1.686   8.843  0.0079 -0.0517 -0.2616
  106POPC   GL1 1816   9.301   1.746   8.425  0.1093  0.2815  0.1543
  106POPC   GL2 1817   9.456   1.483   8.442 -0.1730  0.2154 -0.0884
  106POPC   C1A 1818   9.558   1.825   7.981  0.2447  0.1185 -0.2453
  106POPC   D2A 1819   9.830   1.904   7.684 -0.2296  0.5133  0.1780
  106POPC   C3A 1820   9.918   1.982   7.311 -0.1268 -0.0207 -0.0102
  106POPC   C4A 1821  10.257   1.895   7.059 -0.3374  0.0252 -0.1092
  106POPC   C1B 1822   9.409   1.281   8.080  0.0412 -0.1716  0.0162
  106POPC   C2B 1823   9.533   1.443   7.667 -0.1877  0.2611  0.0821
  106POPC   C3B 1824   9.260   1.463   7.268  0.1167 -0.3762 -0.1364
  106POPC   C4B 1825   9.004   1.560   6.901  0.0212  0.1789  0.2387
  107POPC   NC3 1826   5.443   3.750   9.491  0.2241 -0.2117 -0.1622
  107POPC   PO4 1827   5.913   3.710   9.400  0.1017 -0.0465  0.0945
  107POPC   GL1 1828   5.667   3.538   9.050 -0.0602  0.0921  0.0418
  107POPC   GL2 1829   5.975   3.678   8.863  0.0212 -0.0221 -0.0772
  107POPC   C1A 1830   5.492   3.404   8.702  0.2065 -0.0950  0.0288
  107POPC   D2A 1831   5.457   3.234   8.391 -0.2057 -0.0006 -0.4564
  107POPC   C3A 1832   5.174   3.471   8.158  0.0480  0.1046 -0.0835
  107POPC   C4A 1833   4.853   3.390   7.917  0.3135 -0.0259  0.3488
  107POPC   C1B 1834   6.125   3.702   8.472 -0.0814 -0.0408 -0.0350
  107POPC   C2B 1835   6.018   3.578   8.036 -0.0889  0.0396 -0.1365
  107POPC   C3B 1836   5.691   3.334   7.911 -0.1033  0.2606  0.1436
  107POPC   C4B 1837   5.524   3.349   7.582  0.3140  0.1342  0.2697
  108POPC   NC3 1838   7.060   0.527   8.872  0.1035  0.2905  0.0687
  108POPC   PO4 1839   6.874   0.953   9.092 -0.1458 -0.0402 -0.0503
  108POPC   GL1 1840   6.661   0.835   8.734 -0.0193 -0.0225  0.1865
  108POPC   GL2 1841   6.901   0.918   8.554 -0.0454 -0.0718  0.0706
  108POPC   C1A 1842   6.339   0.948   8.478  0.1771 -0.3879 -0.0470
  108POPC   D2A 1843   5.966   0.955   8.211 -0.0390 -0.0098  0.0063
  108POPC   C3A 1844   6.002   0.819   7.729 -0.1985 -0.2508 -0.0471
  108POPC   C4A 1845   6.067   1.149   7.283 -0.1718 -0.0378  0.2031
  108POPC   C1B 1846   6.959   0.911   8.170  0.3158 -0.2465  0.1063
  108POPC   C2B 1847   6.968   0.813   7.700 -0.2115 -0.0097  0.1270
  108POPC   C3B 1848   7.019   0.902   7.276  0.1177  0.2570 -0.1761
  108POPC   C4B 1849   7.304   0.810   7.034  0.1480  0.2036 -0.0072
  109POPC   NC3 1850   6.048   3.217   9.165 -0.4771 -0.2591  0.0203
  109POPC   PO4 1851   6.482   3.437   9.016  0.1432  0.1862  0.0392
  109POPC   GL1 1852   6.611   3.484   8.626 -0.3881  0.2963  0.1994
  109POPC   GL2 1853   6.872   3.361   8.550 -0.0547  0.0747  0.2106
  109POPC   C1A 1854   6.419   3.289   8.211  0.4361  0.3405  0.0282
  109POPC   D2A 1855   6.362   3.145   7.777  0.0103  0.1331  0.0898
  109POPC   C3A 1856   6.191   3.397   7.569  0.3676 -0.1893 -0.2074
  109POPC   C4A 1857   5.908   3.310   7.264  0.0299 -0.1842  0.2449
  109POPC   C1B 1858   6.822   3.399   8.022  0.3366  0.0501  0.0262
  109POPC   C2B 1859   6.726   3.461   7.486  0.0234  0.1823  0.0975
  109POPC   C3B 1860   6.726   3.813   7.175  0.1543 -0.2599  0.0756
  109POPC   C4B 1861   6.930   4.011   6.831 -0.0910 -0.2642 -0.0658
  110POPC   NC3 1862   5.238   5.531   9.779  0.1624 -0.1580 -0.1445
  110POPC   PO4 1863   4.948   5.191   9.829  0.0995  0.2164  0.0469
  110POPC   GL1 1864   4.665   5.061   9.471  0.1203  0.1160  0.0310
  110POPC   GL2 1865   4.375   5.222   9.373  0.0413  0.1766 -0.3133
  110POPC   C1A 1866   4.809   5.017   9.088 -0.0616  0.0189 -0.1170
  110POPC   D2A 1867   4.989   5.250   8.633 -0.1400 -0.2591  0.0868
  110POPC   C3A 1868   4.755   5.549   8.446  0.0039 -0.2158  0.0994
  110POPC   C4A 1869   4.326   5.455   8.367  0.3211  0.0568 -0.0542
  110POPC   C1B 1870   3.893   5.158   9.357  0.1727  0.2160  0.1711
  110POPC   C2B 1871   3.695   4.964   9.023  0.1225 -0.0087 -0.1586
  110POPC   C3B 1872   3.495   4.878   8.561 -0.2088  0.1063  0.1261
  110POPC   C4B 1873   3.120   4.967   8.114  0.1199 -0.0199  0.2772
  111POPC   NC3 1874   9.067   7.194   8.902  0.0122 -0.1972 -0.0064
  111POPC   PO4 1875   8.836   6.838   8.972 -0.0177 -0.0156 -0.1187
  111POPC   GL1 1876   8.512   6.890   8.684  0.0559 -0.1376  0.1513
  111POPC   GL2 1877   8.411   6.613   8.587 -0.0282  0.1998  0.2073
  111POPC   C1A 1878   8.038   6.871   8.484  0.1224  0.0355  0.1003
  111POPC   D2A 1879   7.973   6.987   8.031  0.2519  0.0152 -0.2716
  111POPC   C3A 1880   7.806   6.814   7.619 -0.2008 -0.2324 -0.1594
  111POPC   C4A 1881   7.893   6.887   7.193 -0.3303 -0.3925 -0.1184
  111POPC   C1B 1882   8.363   6.694   8.165  0.1785  0.0495 -0.1227
  111POPC   C2B 1883   8.338   6.817   7.711 -0.0697 -0.3307  0.1153
  111POPC   C3B 1884   8.460   7.106   7.394  0.2100 -0.1291 -0.3596
  111POPC   C4B 1885   8.144   7.343   7.086 -0.0383  0.2357 -0.1226
  112POPC   NC3 1886   4.716   7.681   9.425 -0.1748 -0.2821  0.0842
  112POPC   PO4 1887   5.013   7.865   9.130  0.2579 -0.0721 -0.3481
  112POPC   GL1 1888   4.838   7.847   8.628 -0.2376 -0.2013 -0.0636
  112POPC   GL2 1889   4.833   8.206   8.452  0.0104  0.0787 -0.2739
  112POPC   C1A 1890   4.819   7.669   8.197 -0.0080 -0.0963  0.1726
  112POPC   D2A 1891   4.815   7.769   7.748  0.0806 -0.3232 -0.1029
  112POPC   C3A 1892   4.791   8.193   7.735  0.1402 -0.0644 -0.0169
  112POPC   C4A 1893   4.907   8.541   8.095 -0.0305 -0.2532  0.2174
  112POPC   C1B 1894   5.090   8.108   8.095 -0.2202 -0.1132 -0.1384
  112POPC   C2B 1895   5.255   7.897   7.876  0.1638 -0.2278  0.0120
  112POPC   C3B 1896   5.682   7.787   7.969  0.0004 -0.0211 -0.0850
  112POPC   C4B 1897   5.936   7.930   7.562  0.0587  0.0274  0.2472
  113POPC   NC3 1898   4.095   8.949   9.103 -0.2405 -0.0389 -0.0303
  113POPC   PO4 1899   4.308   8.765   8.778 -0.0011 -0.2170  0.2412
  113POPC   GL1 1900   4.336   8.770   8.453  0.0114  0.2870  0.2263
  113POPC   GL2 1901   4.415   8.460   8.429 -0.1518  0.0780 -0.1342
  113POPC   C1A 1902   4.413   8.794   8.075  0.2686  0.1878  0.2471
  113POPC   D2A 1903   4.532   8.578   7.652  0.1100 -0.0067 -0.0339
  113POPC   C3A 1904   4.537   8.858   7.336  0.2541 -0.2595 -0.0019
  113POPC   C4A 1905   4.616   9.289   7.241  0.0266  0.1389 -0.1755
  113POPC   C1B 1906   4.393   8.303   8.061  0.1478  0.2270 -0.1639
  113POPC   C2B 1907   4.060   8.378   7.680  0.1865 -0.1565 -0.2222
  113POPC   C3B 1908   4.181   8.295   7.367  0.1126  0.0843  0.1110
  113POPC   C4B 1909   4.329   8.565   6.987 -0.1174 -0.0151 -0.2840
  114POPC   NC3 1910   2.952   3.254  10.103 -0.1916 -0.0798 -0.2470
  114POPC   PO4 1911   3.157   2.840   9.887 -0.0989  0.1016  0.2812
  114POPC   GL1 1912   2.968   2.893   9.611 -0.2040 -0.0490 -0.0780
  114POPC   GL2 1913   2.673   3.130   9.734 -0.4421  0.0005 -0.1641
  114POPC   C1A 1914   2.781   3.107   9.246  0.1001  0.1874 -0.0182
  114POPC   D2A 1915   2.873   3.150   8.792 -0.1323 -0.0079 -0.2611
  114POPC   C3A 1916   2.655   2.810   8.696  0.1728  0.0376  0.1216
  114POPC   C4A 1917   2.450   2.370   8.727 -0.1922  0.0149  0.0479
  114POPC   C1B 1918   2.560   3.445   9.572  0.1995 -0.2540  0.0125
  114POPC   C2B 1919   2.401   3.395   9.186 -0.2723  0.0940 -0.2344
  114POPC   C3B 1920   2.360   3.166   8.784 -0.2355 -0.2189  0.0412
  114POPC   C4B 1921   2.523   3.254   8.447  0.0462 -0.0809  0.2276
  115POPC   NC3 1922   7.440   8.424   8.690 -0.0655 -0.1893 -0.2958
  115POPC   PO4 1923   7.032   8.392   8.888 -0.0195 -0.0015 -0.2016
  115POPC   GL1 1924   7.004   8.108   8.495  0.1070  0.0729 -0.1323
  115POPC   GL2 1925   7.212   8.043   8.202 -0.0428  0.1286  0.2015
  115POPC   C1A 1926   6.795   7.873   8.220 -0.0885  0.1361  0.0168
  115POPC   D2A 1927   6.702   7.572   8.053 -0.2647 -0.0407  0.1899
  115POPC   C3A 1928   6.676   7.478   7.694  0.0308  0.0212  0.5051
  115POPC   C4A 1929   6.572   7.181   7.334  0.2453  0.3851  0.0951
  115POPC   C1B 1930   6.949   7.909   7.752 -0.3603  0.1473 -0.2249
  115POPC   C2B 1931   6.531   7.922   7.552  0.0365  0.0589  0.1969
  115POPC   C3B 1932   6.362   7.807   7.175 -0.1303  0.1178  0.2154
  115POPC   C4B 1933   6.031   7.958   6.937  0.4649 -0.0325  0.1060
  116POPC   NC3 1934   3.492   4.207  10.446  0.2128 -0.0150 -0.1383
  116POPC   PO4 1935   3.288   3.824  10.616  0.2822  0.0810  0.2845
  116POPC   GL1 1936   3.152   3.790  10.180  0.0626 -0.3545 -0.3835
  116POPC   GL2 1937   3.034   4.159  10.255 -0.1906 -0.3439  0.3455
  116POPC   C1A 1938   3.330   3.731   9.772  0.1500  0.2271 -0.3654
  116POPC   D2A 1939   3.515   4.045   9.448 -0.4339 -0.0354  0.0035
  116POPC   C3A 1940   3.318   3.978   9.110 -0.0646 -0.0049  0.1874
  116POPC   C4A 1941   3.322   3.864   8.616  0.0537 -0.0482 -0.0029
  116POPC   C1B 1942   3.178   4.320   9.863 -0.0798 -0.1270 -0.2425
  116POPC   C2B 1943   3.152   4.497   9.429 -0.1710 -0.0211  0.0178
  116POPC   C3B 1944   2.926   4.472   9.023  0.0203  0.2279 -0.2617
  116POPC   C4B 1945   2.906   4.114   8.664  0.3995  0.1903  0.2055
  117POPC   NC3 1946   7.045   1.243   9.486  0.2192  0.1392 -0.0063
  117POPC   PO4 1947   7.320   1.362   9.308 -0.1235  0.2541  0.1261
  117POPC   GL1 1948   7.284   1.236   8.888 -0.1013  0.0083 -0.1585
  117POPC   GL2 1949   7.384   0.930   8.742  0.0454  0.0767 -0.2942
  117POPC   C1A 1950   7.204   1.338   8.470 -0.2166 -0.0513 -0.1303
  117POPC   D2A 1951   7.287   1.716   8.149 -0.1572 -0.1001 -0.0415
  117POPC   C3A 1952   6.856   1.959   8.094  0.3515  0.2352 -0.0912
  117POPC   C4A 1953   6.599   2.270   7.783 -0.2724 -0.2096  0.1350
  117POPC   C1B 1954   7.671   0.938   8.400  0.0087  0.3470  0.1566
  117POPC   C2B 1955   7.981   0.594   8.242  0.2695 -0.1109  0.0980
  117POPC   C3B 1956   8.112   0.289   7.875  0.1957  0.0127 -0.1117
  117POPC   C4B 1957   8.285   0.013   7.534 -0.0563  0.0611  0.1453
  118POPC   NC3 1958   9.419   8.830   9.026 -0.0565 -0.3370 -0.2269
  118POPC   PO4 1959   9.317   8.356   8.989  0.3982 -0.2719 -0.1705
  118POPC   GL1 1960   9.668   8.361   8.711  0.0997 -0.1859  0.0105
  118POPC   GL2 1961   9.757   8.123   8.764  0.1211  0.0360 -0.0241
  118POPC   C1A 1962  10.020   8.583   8.566 -0.1665  0.3117 -0.0675
  118POPC   D2A 1963  10.265   8.896   8.519  0.1566  0.0341 -0.1267
  118POPC   C3A 1964  10.321   9.129   8.203  0.0555 -0.1493  0.0341
  118POPC   C4A 1965   9.822   9.182   8.175  0.0837 -0.0452 -0.3453
  118POPC   C1B 1966   9.885   7.745   8.497  0.0528  0.0935  0.0285
  118POPC   C2B 1967   9.856   7.691   8.071 -0.0030 -0.0750  0.0049
  118POPC   C3B 1968   9.916   7.915   7.661 -0.0587  0.4302 -0.4030
  118POPC   C4B 1969  10.265   8.116   7.359  0.1500  0.1711 -0.3308
  119POPC   NC3 1970   6.695  10.014   9.282  0.0189 -0.0118  0.0101
  119POPC   PO4 1971   6.657  10.292   8.942  0.0649  0.3054  0.0300
  119POPC   GL1 1972   6.756  10.276   8.571  0.0090 -0.1380 -0.0939
  119POPC   GL2 1973   6.665  10.557   8.487 -0.0131 -0.1805 -0.1108
  119POPC   C1A 1974   6.775   9.891   8.266 -0.0607  0.1280 -0.2061
  119POPC   D2A 1975   6.477   9.669   8.050  0.1156  0.0042 -0.0376
  119POPC   C3A 1976   6.447   9.912   7.640  0.3199 -0.1741  0.2776
  119POPC   C4A 1977   6.548  10.063   7.258 -0.1869 -0.0893 -0.0516
  119POPC   C1B 1978   6.550  10.779   8.182 -0.0551  0.1731 -0.2192
  119POPC   C2B 1979   6.468  11.149   7.976 -0.2096  0.2423  0.1936
  119POPC   C3B 1980   6.426  11.614   7.877  0.0560  0.2212  0.0708
  119POPC   C4B 1981   6.682  11.940   7.697 -0.2839 -0.2643 -0.0417
  120POPC   NC3 1982   0.103   3.478  10.262 -0.0095  0.0865 -0.1130
  120POPC   PO4 1983   0.378   3.307  10.023  0.2388 -0.3774  0.1654
  120POPC   GL1 1984   0.734   3.429   9.769  0.1235 -0.1606 -0.1281
  120POPC   GL2 1985   0.562   3.652   9.552  0.2300  0.0254  0.3400
  120POPC   C1A 1986   1.070   3.692   9.719  0.1134 -0.2555  0.1732
  120POPC   D2A 1987   1.254   4.049   9.779  0.3945  0.0505  0.1721
  120POPC   C3A 1988   1.531   4.253   9.487  0.0076 -0.0760 -0.2525
  120POPC   C4A 1989   1.742   4.674   9.457 -0.2947 -0.1670 -0.1620
  120POPC   C1B 1990   0.630   3.393   9.251  0.1847  0.0880  0.2117
  120POPC   C2B 1991   0.665   3.002   8.987  0.0415 -0.3713  0.1798
  120POPC   C3B 1992   1.078   2.798   8.719  0.2170  0.3342  0.0485
  120POPC   C4B 1993   1.154   2.365   8.735  0.0878  0.2100 -0.2914
  121POPC   NC3 1994   4.007   3.393   9.960 -0.5167 -0.1529  0.4178
  121POPC   PO4 1995   4.129   3.850   9.904  0.3636  0.0747 -0.4562
  121POPC   GL1 1996   3.997   3.822   9.547  0.1867  0.1385  0.2116
  121POPC   GL2 1997   4.276   3.836   9.406 -0.1371 -0.1482  0.0618
  121POPC   C1A 1998   3.653   3.582   9.345  0.0265 -0.1133  0.0085
  121POPC   D2A 1999   3.340   3.465   9.033 -0.0885  0.0427 -0.1332
  121POPC   C3A 2000   2.962   3.622   8.962  0.2415  0.1085  0.0864
  121POPC   C4A 2001   2.503   3.691   8.803 -0.0629 -0.0591  0.3393
  121POPC   C1B 2002   4.237   3.848   8.936 -0.2650  0.4383  0.1788
  121POPC   C2B 2003   4.122   3.793   8.551  0.0991  0.0232 -0.1646
  121POPC   C3B 2004   3.777   3.865   8.252 -0.2701  0.2059  0.4620
  121POPC   C4B 2005   3.615   4.023   7.931 -0.0455 -0.3824  0.2253
  122POPC   NC3 2006   2.344   6.964  10.016 -0.1586  0.0971  0.1526
  122POPC   PO4 2007   2.645   6.663   9.866  0.1117  0.0049 -0.2110
  122POPC   GL1 2008   2.785   6.719   9.379 -0.0936  0.0221  0.1420
  122POPC   GL2 2009   2.887   7.011   9.220 -0.1551 -0.2758 -0.0034
  122POPC   C1A 2010   3.009   6.595   8.988 -0.1036  0.0828  0.2753
  122POPC   D2A 2011   3.033   6.612   8.485  0.3195  0.4919 -0.0060
  122POPC   C3A 2012   2.703   6.418   8.322 -0.1369 -0.2242 -0.2062
  122POPC   C4A 2013   2.295   6.336   8.172 -0.0670 -0.1824 -0.3414
  122POPC   C1B 2014   3.066   7.070   8.730  0.0960  0.0022 -0.1487
  122POPC   C2B 2015   3.208   7.059   8.241  0.3506  0.3244  0.1468
  122POPC   C3B 2016   3.489   7.074   7.816 -0.0934 -0.1446  0.2431
  122POPC   C4B 2017   3.350   7.407   7.476 -0.2271  0.5311  0.1618
  123POPC   NC3 2018   9.770   9.678   8.949 -0.0775 -0.1148  0.1115
  123POPC   PO4 2019  10.156   9.353   8.967  0.1172 -0.0799 -0.2369
  123POPC   GL1 2020  10.066   9.456   8.540  0.0060  0.3241  0.0705
  123POPC   GL2 2021   9.682   9.586   8.460  0.0989  0.0613  0.0821
  123POPC   C1A 2022  10.095   9.647   8.107 -0.1251 -0.0625 -0.2659
  123POPC   D2A 2023   9.824   9.679   7.620  0.0630 -0.1596  0.0475
  123POPC   C3A 2024   9.919   9.885   7.222 -0.0438  0.1080 -0.2198
  123POPC   C4A 2025  10.050  10.032   6.847  0.0133 -0.0389  0.1038
  123POPC   C1B 2026   9.655   9.848   8.061 -0.0259 -0.2889 -0.1551
  123POPC   C2B 2027   9.340   9.768   7.737  0.0629 -0.1637  0.1544
  123POPC   C3B 2028   8.984   9.403   7.688 -0.0493 -0.0221  0.1663
  123POPC   C4B 2029   8.770   9.122   7.581 -0.0658  0.2356 -0.0786
  124POPC   NC3 2030   4.695   9.076   8.918  0.1083  0.1638  0.0260
  124POPC   PO4 2031   4.609   9.455   9.103 -0.1912 -0.1347  0.1153
  124POPC   GL1 2032   4.649   9.626   8.679  0.1449  0.0564  0.1585
  124POPC   GL2 2033   4.856   9.423   8.579  0.3300  0.0131 -0.1925
  124POPC   C1A 2034   4.537   9.621   8.284 -0.1664 -0.0569  0.1045
  124POPC   D2A 2035   4.616   9.879   7.858 -0.3416 -0.0437 -0.1369
  124POPC   C3A 2036   4.528   9.737   7.438 -0.1754 -0.1142  0.1051
  124POPC   C4A 2037   4.389   9.661   7.030 -0.0011  0.1812 -0.1318
  124POPC   C1B 2038   4.797   9.069   8.223  0.1498 -0.2495 -0.0456
  124POPC   C2B 2039   5.001   9.100   7.838 -0.0295  0.1204  0.0029
  124POPC   C3B 2040   5.026   9.030   7.477 -0.0445  0.0370 -0.2448
  124POPC   C4B 2041   5.108   8.924   7.120  0.0986 -0.1421 -0.1261
  125POPC   NC3 2042   1.648   2.741   9.714 -0.1229  0.0882 -0.0160
  125POPC   PO4 2043   1.796   2.300   9.747  0.0825 -0.1178 -0.0906
  125POPC   GL1 2044   1.768   2.343   9.312 -0.2075 -0.1392 -0.1976
  125POPC   GL2 2045   1.560   2.083   9.137 -0.2312 -0.1410  0.0546
  125POPC   C1A 2046   1.668   2.513   8.892  0.2103 -0.2442 -0.2144
  125POPC   D2A 2047   1.582   2.703   8.396 -0.1616  0.0859  0.2633
  125POPC   C3A 2048   1.552   3.102   8.213 -0.1556 -0.0635  0.0116
  125POPC   C4A 2049   1.475   3.284   7.844  0.4029  0.0042 -0.1417
  125POPC   C1B 2050   1.600   2.045   8.733 -0.0879  0.1564 -0.0644
  125POPC   C2B 2051   1.458   2.249   8.224  0.0648 -0.3399  0.0595
  125POPC   C3B 2052   1.643   2.045   7.831  0.1963  0.0695 -0.1582
  125POPC   C4B 2053   1.851   1.937   7.443  0.0222  0.1126 -0.1339
  126POPC   NC3 2054   9.591   2.602   9.417  0.0599 -0.1874 -0.2376
  126POPC   PO4 2055   9.438   2.689   8.952 -0.0890 -0.3693 -0.0206
  126POPC   GL1 2056   9.354   2.606   8.486  0.1750  0.1719 -0.0100
  126POPC   GL2 2057   8.943   2.678   8.418 -0.1712  0.0243  0.3750
  126POPC   C1A 2058   9.385   2.665   8.095 -0.0330  0.1413 -0.0520
  126POPC   D2A 2059   9.634   2.727   7.753 -0.0172 -0.2129  0.0833
  126POPC   C3A 2060   9.718   2.729   7.292 -0.0721  0.0570 -0.1952
  126POPC   C4A 2061   9.545   2.810   6.808  0.3625 -0.0939  0.1190
  126POPC   C1B 2062   8.845   2.625   7.904 -0.4707  0.2106 -0.1763
  126POPC   C2B 2063   8.406   2.528   7.767  0.1450  0.0705  0.1604
  126POPC   C3B 2064   8.039   2.254   7.815 -0.1547 -0.0769 -0.1413
  126POPC   C4B 2065   7.595   2.037   7.865  0.0770 -0.2867 -0.0211
  127POPC   NC3 2066   6.914   3.477   9.341  0.0937  0.0003 -0.0512
  127POPC   PO4 2067   6.922   3.837   9.043  0.2980 -0.0837 -0.1019
  127POPC   GL1 2068   6.900   3.881   8.575  0.1499 -0.2265 -0.2359
  127POPC   GL2 2069   7.030   4.134   8.534  0.0976  0.1228  0.3140
  127POPC   C1A 2070   6.632   3.812   8.253  0.5216 -0.2679  0.1655
  127POPC   D2A 2071   6.447   3.694   7.883 -0.3587 -0.4277  0.2046
  127POPC   C3A 2072   6.290   3.910   7.590 -0.0338  0.3672  0.0155
  127POPC   C4A 2073   6.163   3.837   7.200 -0.1056 -0.0820 -0.1532
  127POPC   C1B 2074   6.944   4.274   8.172 -0.0100  0.2214  0.3335
  127POPC   C2B 2075   7.158   4.333   7.727  0.0251  0.1257 -0.1958
  127POPC   C3B 2076   7.499   4.448   7.429 -0.0115  0.0483  0.2310
  127POPC   C4B 2077   7.847   4.482   7.150  0.2897  0.0386 -0.1175
  128POPC   NC3 2078   9.362   1.206   8.874 -0.1069  0.0764 -0.0616
  128POPC   PO4 2079   9.652   1.601   8.972 -0.1527  0.2259 -0.1626
  128POPC   GL1 2080  10.011   1.702   8.643  0.2027 -0.2327  0.0503
  128POPC   GL2 2081  10.320   1.580   8.611 -0.1805 -0.0682 -0.0870
  128POPC   C1A 2082   9.875   1.931   8.357 -0.0527 -0.2855 -0.1645
  128POPC   D2A 2083   9.795   2.353   8.297  0.3942 -0.2243 -0.2202
  128POPC   C3A 2084  10.107   2.368   7.881  0.0534  0.1062 -0.1827
  128POPC   C4A 2085  10.279   2.088   7.614  0.0531  0.0301 -0.4559
  128POPC   C1B 2086  10.458   1.414   8.202 -0.1999 -0.1439 -0.0618
  128POPC   C2B 2087  10.763   1.339   7.895  0.0473  0.1754  0.1509
  128POPC   C3B 2088  11.104   1.160   7.932 -0.0557  0.3294  0.0003
  128POPC   C4B 2089  11.541   1.114   7.750  0.1545 -0.1582 -0.3295
  129POPC   NC3 2090   8.250   0.341   8.978  0.2755 -0.0897  0.0447
  129POPC   PO4 2091   8.636   0.271   8.785 -0.1775 -0.1947 -0.0372
  129POPC   GL1 2092   8.587   0.513   8.447 -0.0773 -0.1278 -0.0358
  129POPC   GL2 2093   8.922   0.607   8.500 -0.3899 -0.0366  0.0022
  129POPC   C1A 2094   8.472   0.646   8.051  0.0834 -0.0079 -0.2978
  129POPC   D2A 2095   8.272   0.815   7.655  0.1970 -0.0753 -0.2434
  129POPC   C3A 2096   8.429   0.915   7.262 -0.0506  0.1000 -0.0460
  129POPC   C4A 2097   8.267   1.062   6.952  0.4883 -0.1596 -0.0988
  129POPC   C1B 2098   8.981   0.497   8.090  0.1131  0.0790  0.1344
  129POPC   C2B 2099   8.844   0.784   7.710  0.0432 -0.0313  0.0095
  129POPC   C3B 2100   8.923   0.759   7.250 -0.1762  0.1541 -0.3550
  129POPC   C4B 2101   8.931   1.079   6.924  0.4510 -0.0757 -0.0012
  130POPC   NC3 2102   7.501   1.787   9.119 -0.2306  0.1239 -0.0173
  130POPC   PO4 2103   7.721   1.559   8.842  0.3166 -0.2049  0.1045
  130POPC   GL1 2104   7.773   1.487   8.351 -0.1778 -0.2901 -0.1716
  130POPC   GL2 2105   8.025   1.547   8.164  0.2178 -0.0289  0.1046
  130POPC   C1A 2106   7.517   1.299   8.021  0.2946 -0.0456  0.0960
  130POPC   D2A 2107   7.412   0.847   7.977 -0.2634  0.2691 -0.1673
  130POPC   C3A 2108   7.354   0.427   7.647  0.0258 -0.1382  0.2421
  130POPC   C4A 2109   7.100   0.411   7.268 -0.1377  0.0813 -0.2318
  130POPC   C1B 2110   7.858   1.672   7.754 -0.0646 -0.1237 -0.1004
  130POPC   C2B 2111   7.816   1.931   7.454 -0.3515  0.1804  0.3309
  130POPC   C3B 2112   7.478   2.235   7.409 -0.1223  0.0898  0.0620
  130POPC   C4B 2113   7.208   2.462   7.230 -0.2998  0.3550  0.1346
  131POPC   NC3 2114   0.089   4.601   9.929 -0.4468 -0.0584 -0.2223
  131POPC   PO4 2115   0.321   4.258  10.103  0.1920 -0.1154 -0.0269
  131POPC   GL1 2116   0.378   4.175   9.603 -0.0292  0.0201  0.1857
  131POPC   GL2 2117   0.406   4.011   9.234  0.0021  0.0530 -0.1205
  131POPC   C1A 2118   0.805   4.153   9.474  0.2954 -0.0935  0.0951
  131POPC   D2A 2119   0.937   3.923   9.068 -0.2193  0.0827 -0.2027
  131POPC   C3A 2120   1.123   3.493   9.156  0.1406 -0.1931  0.0948
  131POPC   C4A 2121   1.040   3.102   9.333 -0.1168  0.2210  0.0070
  131POPC   C1B 2122   0.486   4.142   8.770 -0.2455  0.0138  0.0509
  131POPC   C2B 2123   0.789   4.073   8.507  0.2232 -0.0440  0.2921
  131POPC   C3B 2124   0.996   3.711   8.580 -0.2663  0.4170 -0.1750
  131POPC   C4B 2125   1.023   3.289   8.707 -0.0800 -0.1744  0.1584
  132POPC   NC3 2126   6.204   7.340   8.686 -0.4065  0.0342  0.2923
  132POPC   PO4 2127   5.787   7.330   8.690 -0.4461  0.0236  0.1232
  132POPC   GL1 2128   5.933   7.248   8.305  0.0736 -0.1089  0.1807
  132POPC   GL2 2129   5.718   7.205   8.117  0.0799 -0.1096  0.1827
  132POPC   C1A 2130   6.174   7.362   7.929 -0.3105  0.0276  0.3898
  132POPC   D2A 2131   6.151   7.473   7.496  0.0467 -0.1602  0.1684
  132POPC   C3A 2132   5.967   7.214   7.237 -0.0934 -0.1946  0.0206
  132POPC   C4A 2133   5.818   7.151   6.824 -0.1146  0.1088  0.1131
  132POPC   C1B 2134   5.739   7.415   7.720  0.3765 -0.1500  0.1292
  132POPC   C2B 2135   5.654   7.569   7.193  0.2026 -0.2203 -0.0254
  132POPC   C3B 2136   5.622   7.735   6.780  0.1994  0.2143  0.1096
  132POPC   C4B 2137   5.429   7.904   6.349 -0.0166 -0.0097 -0.0943
  133POPC   NC3 2138   5.881   4.583   9.711  0.1792  0.0632 -0.1835
  133POPC   PO4 2139   5.369   4.711   9.688 -0.0225 -0.0908 -0.1956
  133POPC   GL1 2140   5.631   4.874   9.301  0.0779  0.5421  0.1471
  133POPC   GL2 2141   5.634   5.088   9.087 -0.1236  0.0780  0.1684
  133POPC   C1A 2142   5.856   4.623   8.931  0.1291  0.3837 -0.1973
  133POPC   D2A 2143   6.258   4.511   8.707 -0.1754  0.1393 -0.2899
  133POPC   C3A 2144   6.411   4.235   8.271  0.2125 -0.0091 -0.2112
  133POPC   C4A 2145   6.446   4.213   7.963 -0.0358 -0.0565  0.0386
  133POPC   C1B 2146   5.387   4.743   8.905 -0.0128 -0.2010 -0.2874
  133POPC   C2B 2147   5.301   4.358   8.731 -0.1091  0.1205 -0.0998
  133POPC   C3B 2148   5.324   4.155   8.278  0.3490 -0.1817 -0.1891
  133POPC   C4B 2149   5.011   4.002   8.270  0.2573 -0.3708 -0.1068
  134POPC   NC3 2150   4.422   8.323   8.879 -0.1487 -0.0931 -0.1054
  134POPC   PO4 2151   4.068   8.027   8.963 -0.3290  0.4291 -0.1117
  134POPC   GL1 2152   4.047   7.924   8.576 -0.0767  0.0806  0.0660
  134POPC   GL2 2153   4.355   7.889   8.463  0.2037  0.0018 -0.0507
  134POPC   C1A 2154   3.936   7.987   8.134  0.0511 -0.2883  0.1878
  134POPC   D2A 2155   3.624   8.293   7.914 -0.1799 -0.1830  0.1584
  134POPC   C3A 2156   3.510   8.502   8.262 -0.1072  0.1182  0.1607
  134POPC   C4A 2157   3.504   8.983   8.259  0.1196  0.5179 -0.0408
  134POPC   C1B 2158   4.377   7.821   8.007 -0.0215  0.3756 -0.1339
  134POPC   C2B 2159   4.363   7.860   7.578  0.2845 -0.1300 -0.0395
  134POPC   C3B 2160   4.215   7.784   7.251 -0.0248  0.0572 -0.0906
  134POPC   C4B 2161   3.760   7.649   7.143 -0.3292  0.0926 -0.1955
  135POPC   NC3 2162   5.591   7.046   8.982 -0.0830 -0.2804 -0.1561
  135POPC   PO4 2163   6.106   6.881   8.995  0.0385  0.0976 -0.0195
  135POPC   GL1 2164   5.996   6.805   8.547 -0.1977 -0.2089 -0.2467
  135POPC   GL2 2165   6.254   6.933   8.369 -0.1085  0.0429 -0.1118
  135POPC   C1A 2166   5.859   6.752   8.112 -0.1713  0.3738 -0.1934
  135POPC   D2A 2167   5.944   6.892   7.666 -0.0597  0.2088  0.1361
  135POPC   C3A 2168   5.746   6.729   7.413  0.1600 -0.1441 -0.0882
  135POPC   C4A 2169   5.503   6.855   7.157  0.1230  0.3503  0.1423
  135POPC   C1B 2170   6.355   6.851   7.965  0.1031  0.1095  0.0556
  135POPC   C2B 2171   6.764   7.010   7.774 -0.0494 -0.0262 -0.0491
  135POPC   C3B 2172   7.018   7.157   7.415 -0.0496  0.3730 -0.0892
  135POPC   C4B 2173   7.405   6.927   7.198  0.0939 -0.2046  0.2254
  136POPC   NC3 2174   8.255   2.354   9.326  0.2703 -0.1992  0.0958
  136POPC   PO4 2175   8.384   2.035   8.930  0.1094 -0.0903 -0.0774
  136POPC   GL1 2176   8.550   2.031   8.589  0.0788 -0.1102 -0.2212
  136POPC   GL2 2177   8.798   1.841   8.519  0.0182 -0.0812 -0.2673
  136POPC   C1A 2178   8.413   1.892   8.238 -0.2193 -0.2969  0.1769
  136POPC   D2A 2179   8.301   1.803   7.798  0.4287  0.1014 -0.1658
  136POPC   C3A 2180   8.427   2.091   7.481  0.2754  0.0744  0.2325
  136POPC   C4A 2181   8.532   2.440   7.328  0.0429 -0.0055  0.0917
  136POPC   C1B 2182   9.075   2.188   8.326 -0.0619  0.2363 -0.1132
  136POPC   C2B 2183   9.238   2.263   7.855  0.1508 -0.2182 -0.0668
  136POPC   C3B 2184   9.012   2.230   7.519 -0.1803  0.1251 -0.3040
  136POPC   C4B 2185   8.896   2.126   7.056 -0.0123  0.2897  0.2828
  137POPC   NC3 2186   0.684   5.749  10.159 -0.1671 -0.1730  0.1163
  137POPC   PO4 2187   1.159   5.764  10.130 -0.2241  0.1044 -0.0746
  137POPC   GL1 2188   1.113   5.835   9.713 -0.2255  0.0562 -0.1222
  137POPC   GL2 2189   0.833   5.597   9.589 -0.1967  0.0345  0.0725
  137POPC   C1A 2190   1.410   5.861   9.355  0.1385  0.1711 -0.1321
  137POPC   D2A 2191   1.447   5.706   8.918  0.1196  0.4945  0.4279
  137POPC   C3A 2192   1.394   5.817   8.493  0.1214  0.2519 -0.1184
  137POPC   C4A 2193   1.305   5.830   8.071 -0.3303  0.1942  0.0193
  137POPC   C1B 2194   1.094   5.465   9.216 -0.2445 -0.3348  0.1799
  137POPC   C2B 2195   1.077   5.360   8.792  0.1171 -0.3096  0.0280
  137POPC   C3B 2196   1.025   5.557   8.419 -0.1791  0.3638 -0.0369
  137POPC   C4B 2197   1.168   5.368   8.071  0.1635  0.1590 -0.0814
  138POPC   NC3 2198   5.069   4.744  10.113 -0.0575 -0.0545  0.0831
  138POPC   PO4 2199   4.694   4.622   9.815  0.1594  0.0035  0.1592
  138POPC   GL1 2200   4.488   4.603   9.360  0.2390  0.1876 -0.5742
  138POPC   GL2 2201   4.504   4.265   9.200  0.0599  0.1012 -0.0594
  138POPC   C1A 2202   4.152   4.748   9.188  0.2436 -0.1534 -0.1991
  138POPC   D2A 2203   3.977   4.670   8.764 -0.0225  0.1200 -0.3711
  138POPC   C3A 2204   4.268   4.680   8.370  0.0211  0.2970  0.1809
  138POPC   C4A 2205   4.498   5.042   8.143 -0.1141  0.1802  0.0761
  138POPC   C1B 2206   4.299   4.324   8.741 -0.3800 -0.1598 -0.0466
  138POPC   C2B 2207   4.412   4.173   8.267  0.1330 -0.2109  0.1053
  138POPC   C3B 2208   4.793   4.086   7.868  0.3230 -0.1660 -0.1623
  138POPC   C4B 2209   5.054   3.754   7.652  0.2191  0.0651 -0.0151
  139POPC   NC3 2210   6.390   5.605   9.369  0.0333  0.0155  0.0873
  139POPC   PO4 2211   6.207   5.888   9.089  0.0635  0.1366 -0.3285
  139POPC   GL1 2212   6.230   6.253   8.667  0.2632  0.0137  0.4312
  139POPC   GL2 2213   6.091   6.009   8.473  0.1395 -0.0948 -0.1338
  139POPC   C1A 2214   6.192   6.391   8.209 -0.3092 -0.0676  0.2815
  139POPC   D2A 2215   6.164   6.393   7.772 -0.2112  0.0845  0.1354
  139POPC   C3A 2216   5.700   6.302   7.674  0.1057  0.3279  0.0059
  139POPC   C4A 2217   5.256   6.546   7.549 -0.4502 -0.0181  0.1718
  139POPC   C1B 2218   5.859   6.017   8.132 -0.2888  0.1078  0.1085
  139POPC   C2B 2219   5.433   5.975   7.968 -0.0211 -0.1096  0.1167
  139POPC   C3B 2220   5.189   5.772   7.633  0.1066 -0.2794  0.0355
  139POPC   C4B 2221   5.179   5.775   7.252  0.0245  0.0532  0.1337
  140POPC   NC3 2222   1.610   6.431   9.972 -0.1263  0.0198 -0.1368
  140POPC   PO4 2223   1.822   6.773   9.888 -0.1535 -0.1835  0.2283
  140POPC   GL1 2224   1.588   6.627   9.486 -0.4730  0.2164 -0.0418
  140POPC   GL2 2225   1.693   6.829   9.331  0.0601  0.5417  0.1351
  140POPC   C1A 2226   1.437   6.482   9.058 -0.4210 -0.2274 -0.0925
  140POPC   D2A 2227   1.546   6.354   8.616 -0.0236 -0.1805  0.2704
  140POPC   C3A 2228   1.182   6.260   8.453 -0.2217  0.0342  0.1123
  140POPC   C4A 2229   0.911   6.183   8.102  0.2377  0.2141 -0.2565
  140POPC   C1B 2230   1.705   6.789   8.794  0.1442  0.2415 -0.2468
  140POPC   C2B 2231   1.898   6.668   8.306 -0.1684 -0.0205 -0.2552
  140POPC   C3B 2232   1.869   6.749   7.873 -0.0189 -0.1109 -0.0458
  140POPC   C4B 2233   1.888   6.999   7.496 -0.0267 -0.0717  0.1714
  141POPC   NC3 2234   1.195   2.566  10.583  0.0287 -0.0193  0.1373
  141POPC   PO4 2235   1.347   2.908  10.349  0.0642  0.0290 -0.0695
  141POPC   GL1 2236   1.399   3.297  10.085  0.0058 -0.0429 -0.0397
  141POPC   GL2 2237   1.764   3.318  10.176  0.2144  0.0603 -0.1875
  141POPC   C1A 2238   1.387   3.378   9.655 -0.0293  0.3162  0.1309
  141POPC   D2A 2239   1.460   3.802   9.399 -0.2468 -0.0327 -0.1244
  141POPC   C3A 2240   1.483   3.831   8.904  0.0814 -0.1172 -0.1596
  141POPC   C4A 2241   1.295   4.175   8.743 -0.2442 -0.3593 -0.2131
  141POPC   C1B 2242   1.690   3.648   9.963 -0.2738  0.0007 -0.1233
  141POPC   C2B 2243   1.810   4.057   9.853  0.0128 -0.1259 -0.0155
  141POPC   C3B 2244   1.636   4.539   9.945  0.1353 -0.0382 -0.4322
  141POPC   C4B 2245   1.821   4.930   9.907 -0.1220  0.2842 -0.1696
  142POPC   NC3 2246   4.000   1.348   9.127  0.4128  0.0533 -0.1249
  142POPC   PO4 2247   4.263   1.758   9.015 -0.1580  0.2423  0.4233
  142POPC   GL1 2248   4.153   2.085   8.767 -0.4356 -0.3844  0.2590
  142POPC   GL2 2249   4.386   1.890   8.445 -0.0414 -0.0742 -0.1091
  142POPC   C1A 2250   3.989   2.202   8.313 -0.1524 -0.1003 -0.0427
  142POPC   D2A 2251   3.737   1.968   7.964 -0.1171 -0.2733  0.2840
  142POPC   C3A 2252   3.928   2.031   7.587 -0.0105 -0.0583  0.1414
  142POPC   C4A 2253   3.949   1.923   7.145 -0.0761 -0.2299 -0.1321
  142POPC   C1B 2254   4.386   2.129   8.058  0.2691  0.2335  0.0915
  142POPC   C2B 2255   4.661   2.335   7.678 -0.0163 -0.1352 -0.3894
  142POPC   C3B 2256   4.757   2.091   7.346  0.0255  0.4094 -0.1908
  142POPC   C4B 2257   4.911   2.134   6.925  0.1903 -0.2059  0.0452
  143POPC   NC3 2258   1.522   7.581   9.505 -0.0211 -0.1327  0.0490
  143POPC   PO4 2259   1.357   7.228   9.215 -0.3341  0.2532  0.3024
  143POPC   GL1 2260   1.231   6.912   9.015 -0.3571 -0.1205 -0.0731
  143POPC   GL2 2261   1.049   6.820   9.220  0.1253  0.0085 -0.1467
  143POPC   C1A 2262   1.258   6.749   8.496  0.0090 -0.2491 -0.5409
  143POPC   D2A 2263   0.882   6.711   8.216  0.0976 -0.0831 -0.0987
  143POPC   C3A 2264   0.595   6.422   8.462 -0.2118 -0.1440 -0.1817
  143POPC   C4A 2265   0.146   6.603   8.465  0.3643  0.0601 -0.1425
  143POPC   C1B 2266   0.952   6.436   9.160  0.2849 -0.4637 -0.0630
  143POPC   C2B 2267   0.988   5.975   9.163 -0.1651  0.3389 -0.3239
  143POPC   C3B 2268   0.668   5.727   9.144 -0.1212  0.4292  0.1517
  143POPC   C4B 2269   0.582   5.300   9.175 -0.0879 -0.2882 -0.0567
  144POPC   NC3 2270   5.733   0.409   8.969  0.2124  0.0304  0.0494
  144POPC   PO4 2271   5.724  -0.021   8.958 -0.0751  0.1016  0.0369
  144POPC   GL1 2272   5.946  -0.122   8.598 -0.3530  0.0977  0.0789
  144POPC   GL2 2273   5.781  -0.436   8.494 -0.3807 -0.2151  0.1712
  144POPC   C1A 2274   6.280  -0.052   8.272 -0.0072 -0.0850 -0.0177
  144POPC   D2A 2275   6.524   0.128   8.053  0.1002 -0.1953  0.0788
  144POPC   C3A 2276   6.415   0.503   7.714 -0.0293 -0.1090  0.0951
  144POPC   C4A 2277   6.447   0.873   7.422 -0.2997 -0.2091  0.2024
  144POPC   C1B 2278   5.433  -0.294   8.203 -0.1295 -0.0354 -0.0355
  144POPC   C2B 2279   5.185  -0.046   7.860  0.1019 -0.0659 -0.1033
  144POPC   C3B 2280   5.370   0.044   7.494 -0.0661 -0.2508 -0.0228
  144POPC   C4B 2281   5.693   0.259   7.268  0.0934 -0.0697  0.1075
  145POPC   NC3 2282   4.783   1.457   8.984 -0.0931  0.2264 -0.1310
  145POPC   PO4 2283   4.446   1.183   9.085 -0.0971  0.1229 -0.3276
  145POPC   GL1 2284   4.255   1.389   8.704 -0.0320 -0.2126  0.0518
  145POPC   GL2 2285   3.949   1.503   8.705 -0.2498  0.0553  0.1244
  145POPC   C1A 2286   4.392   1.464   8.279 -0.1644  0.3450 -0.0622
  145POPC   D2A 2287   4.179   1.530   7.868 -0.0268  0.0873  0.0534
  145POPC   C3A 2288   4.375   1.799   7.561  0.1853 -0.0350 -0.2073
  145POPC   C4A 2289   4.433   1.768   7.124 -0.3091 -0.0171 -0.3553
  145POPC   C1B 2290   3.891   1.319   8.310  0.3846 -0.0313  0.0003
  145POPC   C2B 2291   3.893   1.022   7.982  0.2263  0.0304 -0.3277
  145POPC   C3B 2292   4.033   1.146   7.574 -0.0944  0.0694  0.1129
  145POPC   C4B 2293   4.146   1.428   7.350  0.0288 -0.2750 -0.0754
  146POPC   NC3 2294   9.889   0.415   9.205 -0.0500  0.1389  0.1720
  146POPC   PO4 2295   9.948  -0.048   9.132  0.0585  0.2547 -0.3143
  146POPC   GL1 2296  10.044   0.177   8.781  0.1309  0.0039 -0.1190
  146POPC   GL2 2297  10.126  -0.107   8.688  0.0013 -0.0472  0.1445
  146POPC   C1A 2298  10.140   0.445   8.559 -0.1354 -0.1350 -0.2205
  146POPC   D2A 2299  10.284   0.550   8.085 -0.2161 -0.0821 -0.0718
  146POPC   C3A 2300   9.961   0.634   7.727  0.3080 -0.1994 -0.0592
  146POPC   C4A 2301   9.893   1.041   7.514 -0.1793 -0.0526 -0.2561
  146POPC   C1B 2302  10.415  -0.293   8.430 -0.0949  0.1665 -0.1922
  146POPC   C2B 2303  10.578  -0.389   7.982 -0.0846 -0.1208 -0.0504
  146POPC   C3B 2304  11.081  -0.449   7.931 -0.1268  0.0724 -0.0463
  146POPC   C4B 2305  11.369  -0.604   7.473  0.0992  0.0780  0.0474
  147POPC   NC3 2306   9.493   3.116   9.346 -0.0936 -0.1601  0.1821
  147POPC   PO4 2307   9.342   3.496   9.201 -0.2424  0.2724 -0.0946
  147POPC   GL1 2308   9.834   3.436   8.981  0.1567 -0.0116 -0.0863
  147POPC   GL2 2309  10.147   3.355   9.043  0.1504  0.2212  0.0244
  147POPC   C1A 2310   9.823   3.422   8.421  0.0156  0.1354 -0.4043
  147POPC   D2A 2311   9.833   3.345   7.965  0.4360  0.1351 -0.1182
  147POPC   C3A 2312   9.561   3.328   7.630 -0.0475 -0.0067 -0.3141
  147POPC   C4A 2313   9.609   3.443   7.132 -0.4868 -0.0696 -0.4687
  147POPC   C1B 2314  10.251   3.408   8.641  0.1813  0.0148  0.0184
  147POPC   C2B 2315  10.277   3.233   8.251  0.0686 -0.0909 -0.0684
  147POPC   C3B 2316  10.504   2.837   8.024 -0.2899 -0.2981 -0.3536
  147POPC   C4B 2317  10.643   2.374   8.030 -0.4096  0.2982 -0.1398
  148POPC   NC3 2318   6.366   1.020   9.148 -0.1634  0.2183  0.1675
  148POPC   PO4 2319   6.558   1.343   9.149  0.0255 -0.1394 -0.3321
  148POPC   GL1 2320   6.382   1.409   8.800 -0.0059  0.2177  0.1141
  148POPC   GL2 2321   6.523   1.742   8.677  0.0518 -0.2548 -0.1512
  148POPC   C1A 2322   6.127   1.515   8.367  0.2339 -0.0643 -0.0285
  148POPC   D2A 2323   5.848   1.438   7.941  0.1962  0.0866  0.0320
  148POPC   C3A 2324   6.031   1.619   7.569 -0.1768 -0.1219  0.0118
  148POPC   C4A 2325   6.406   1.555   7.334 -0.1240 -0.1903  0.0858
  148POPC   C1B 2326   6.675   1.504   8.322  0.2656  0.2840  0.1193
  148POPC   C2B 2327   6.965   1.419   8.001  0.1374  0.0876  0.0712
  148POPC   C3B 2328   6.898   1.291   7.534 -0.0093  0.0576 -0.0103
  148POPC   C4B 2329   6.949   1.595   7.248 -0.0378 -0.0630  0.1006
  149POPC   NC3 2330   6.718   2.433   9.128 -0.0245 -0.1676 -0.0558
  149POPC   PO4 2331   6.609   2.010   9.132 -0.2489  0.0140  0.0094
  149POPC   GL1 2332   6.376   2.195   8.779  0.0208 -0.0377  0.0821
  149POPC   GL2 2333   6.467   2.467   8.686 -0.2651  0.1885 -0.0261
  149POPC   C1A 2334   6.297   2.101   8.329 -0.1252 -0.4080 -0.0995
  149POPC   D2A 2335   6.272   1.952   7.931 -0.2820  0.2804 -0.0370
  149POPC   C3A 2336   6.145   2.094   7.507 -0.0352  0.2279 -0.3925
  149POPC   C4A 2337   6.256   2.361   7.123 -0.0260 -0.0205  0.0382
  149POPC   C1B 2338   6.095   2.611   8.559 -0.0996  0.0691 -0.1102
  149POPC   C2B 2339   5.836   2.446   8.242  0.0103  0.1225  0.2617
  149POPC   C3B 2340   6.066   2.437   7.837  0.3095  0.2876  0.2328
  149POPC   C4B 2341   6.254   2.685   7.555  0.0169  0.0722 -0.0044
  150POPC   NC3 2342   0.772   0.358   8.931  0.2421  0.2587  0.0813
  150POPC   PO4 2343   0.565   0.723   9.096 -0.2465 -0.1263 -0.0482
  150POPC   GL1 2344   0.379   0.685   8.733  0.1581 -0.3140  0.2126
  150POPC   GL2 2345   0.628   0.587   8.500  0.2361  0.2263  0.0630
  150POPC   C1A 2346   0.196   0.939   8.439 -0.0224 -0.0171 -0.1811
  150POPC   D2A 2347   0.486   0.929   8.124  0.0908  0.1738 -0.0651
  150POPC   C3A 2348   0.387   0.719   7.700  0.0556  0.4672  0.0167
  150POPC   C4A 2349   0.189   0.359   7.553 -0.0615 -0.0235  0.3923
  150POPC   C1B 2350   0.694   1.042   8.526  0.0090  0.1774  0.1527
  150POPC   C2B 2351   0.822   1.380   8.387 -0.1755 -0.0999  0.2351
  150POPC   C3B 2352   0.703   1.662   8.226 -0.0875 -0.3119 -0.1374
  150POPC   C4B 2353   0.694   1.916   8.511  0.1064  0.2259 -0.3217
  151POPC   NC3 2354   8.481   0.918   8.800  0.4112 -0.0371  0.3805
  151POPC   PO4 2355   8.172   1.175   8.854 -0.1082  0.0765 -0.2038
  151POPC   GL1 2356   8.252   1.166   8.453 -0.0477  0.0747 -0.0348
  151POPC   GL2 2357   8.484   1.292   8.307  0.4491 -0.1922  0.1595
  151POPC   C1A 2358   8.061   1.075   8.017  0.0671  0.0867  0.1700
  151POPC   D2A 2359   7.794   0.685   7.731  0.0960 -0.0783 -0.1075
  151POPC   C3A 2360   8.049   0.438   7.407  0.2726  0.1678  0.3018
  151POPC   C4A 2361   7.927   0.232   7.166  0.1313 -0.1798 -0.0231
  151POPC   C1B 2362   8.569   1.353   7.793  0.1527 -0.0144  0.0357
  151POPC   C2B 2363   8.235   1.315   7.530 -0.2259  0.0413  0.0756
  151POPC   C3B 2364   7.805   1.230   7.545  0.0132  0.3431  0.1607
  151POPC   C4B 2365   7.462   1.058   7.518  0.1300  0.2087 -0.1070
  152POPC   NC3 2366   7.300   7.970   9.037 -0.0771  0.1653 -0.0190
  152POPC   PO4 2367   7.003   7.650   8.926  0.1329  0.1372  0.2299
  152POPC   GL1 2368   6.721   7.546   8.633 -0.4370  0.1987  0.3957
  152POPC   GL2 2369   6.451   7.765   8.551  0.1027 -0.0389  0.1634
  152POPC   C1A 2370   6.723   7.068   8.379  0.1582  0.0813  0.2019
  152POPC   D2A 2371   6.652   6.653   8.355 -0.1300  0.2790 -0.0855
  152POPC   C3A 2372   6.649   6.411   7.947  0.1916  0.1136 -0.0631
  152POPC   C4A 2373   6.875   6.476   7.589 -0.1265 -0.4662  0.2462
  152POPC   C1B 2374   6.247   7.812   8.159 -0.2145 -0.1024 -0.0778
  152POPC   C2B 2375   6.240   8.235   7.907 -0.3323  0.4521 -0.0614
  152POPC   C3B 2376   6.258   8.419   7.513 -0.1479 -0.1015  0.3541
  152POPC   C4B 2377   6.323   8.350   7.128 -0.0179 -0.1631  0.2198
  153POPC   NC3 2378   2.359  10.005   9.036 -0.1305  0.1556  0.3407
  153POPC   PO4 2379   2.837  10.055   9.079 -0.1960 -0.0435  0.1299
  153POPC   GL1 2380   2.724  10.198   8.691 -0.0455  0.0397 -0.2319
  153POPC   GL2 2381   2.502   9.999   8.518 -0.0620  0.1443  0.2322
  153POPC   C1A 2382   2.787  10.427   8.229 -0.0455 -0.4257 -0.0689
  153POPC   D2A 2383   2.892  10.587   7.933 -0.2628 -0.3173 -0.3762
  153POPC   C3A 2384   2.858  11.069   7.695 -0.3027 -0.0732  0.2739
  153POPC   C4A 2385   3.224  11.189   7.301 -0.0795 -0.5671 -0.2216
  153POPC   C1B 2386   2.358   9.937   8.051 -0.4007 -0.0338  0.1837
  153POPC   C2B 2387   2.457  10.283   7.756 -0.0087  0.0720 -0.0409
  153POPC   C3B 2388   2.598  10.605   7.366 -0.0101 -0.0303 -0.1556
  153POPC   C4B 2389   2.838  10.682   7.006 -0.1156 -0.3069  0.1549
  154POPC   NC3 2390   4.310   4.653  10.274  0.2062  0.2362  0.0107
  154POPC   PO4 2391   4.164   4.444   9.910  0.4262  0.1252  0.1255
  154POPC   GL1 2392   4.005   4.330   9.530  0.2493 -0.1936  0.1807
  154POPC   GL2 2393   3.772   4.499   9.471  0.0027 -0.3317 -0.3852
  154POPC   C1A 2394   3.917   4.129   9.099  0.2946 -0.1593  0.0810
  154POPC   D2A 2395   3.738   4.156   8.693  0.0246 -0.1310 -0.2895
  154POPC   C3A 2396   3.964   4.327   8.358 -0.2138  0.1932 -0.1058
  154POPC   C4A 2397   4.068   4.409   7.888  0.2527 -0.0961 -0.0420
  154POPC   C1B 2398   3.560   4.502   9.176 -0.1776 -0.0512  0.3425
  154POPC   C2B 2399   3.391   4.455   8.835  0.0604 -0.3026  0.0499
  154POPC   C3B 2400   3.028   4.629   8.564 -0.1999 -0.0157 -0.1694
  154POPC   C4B 2401   2.567   4.676   8.593  0.0602  0.0220  0.3197
  155POPC   NC3 2402   7.813  10.183   8.823  0.1225  0.2751  0.3297
  155POPC   PO4 2403   7.614   9.831   8.717  0.1631 -0.1488  0.3255
  155POPC   GL1 2404   7.555  10.106   8.395 -0.0981 -0.1224  0.0105
  155POPC   GL2 2405   7.280  10.273   8.356 -0.2018 -0.1157 -0.1174
  155POPC   C1A 2406   7.921  10.107   8.115 -0.1198  0.0844 -0.1274
  155POPC   D2A 2407   8.018   9.820   7.837 -0.4153 -0.3441 -0.1795
  155POPC   C3A 2408   7.855   9.744   7.398  0.1853 -0.1678  0.1019
  155POPC   C4A 2409   8.046   9.641   6.999  0.2910  0.0014 -0.1640
  155POPC   C1B 2410   7.144  10.104   7.979 -0.0540  0.0535  0.2030
  155POPC   C2B 2411   6.934   9.910   7.656 -0.1364 -0.1760  0.2217
  155POPC   C3B 2412   6.803   9.550   7.338  0.1810 -0.3672  0.2586
  155POPC   C4B 2413   6.686   9.220   7.108 -0.3232 -0.0273  0.0082
  156POPC   NC3 2414   7.833   6.039   8.538  0.0689  0.0269  0.1393
  156POPC   PO4 2415   7.927   5.622   8.572  0.1239 -0.3476 -0.1436
  156POPC   GL1 2416   8.261   5.511   8.323 -0.1316  0.0703 -0.2275
  156POPC   GL2 2417   8.172   5.247   8.169  0.2236 -0.0845 -0.2722
  156POPC   C1A 2418   8.383   5.548   7.875 -0.3193 -0.0505  0.1823
  156POPC   D2A 2419   8.501   5.757   7.494  0.0352  0.0765  0.0065
  156POPC   C3A 2420   8.259   5.644   7.202 -0.0736 -0.0458  0.2963
  156POPC   C4A 2421   8.077   5.538   6.777  0.2023  0.3058  0.0583
  156POPC   C1B 2422   7.874   4.817   8.140 -0.0419 -0.2446  0.0102
  156POPC   C2B 2423   7.657   4.650   7.948 -0.0640  0.1884  0.0011
  156POPC   C3B 2424   7.710   4.220   7.822  0.0184  0.1245 -0.0528
  156POPC   C4B 2425   8.016   4.090   7.611 -0.1908  0.0079 -0.0926
  157POPC   NC3 2426   8.116   7.622   5.468 -0.2221  0.1230  0.0692
  157POPC   PO4 2427   8.291   8.064   5.567 -0.1924 -0.1315 -0.3354
  157POPC   GL1 2428   8.179   8.365   5.910  0.0354  0.0181  0.1974
  157POPC   GL2 2429   7.825   8.453   5.929  0.1445 -0.0800 -0.1250
  157POPC   C1A 2430   8.136   8.687   6.299 -0.0615  0.3117  0.0726
  157POPC   D2A 2431   7.968   8.581   6.703  0.0101  0.1475  0.1722
  157POPC   C3A 2432   8.027   8.325   7.061 -0.0114 -0.0563 -0.3621
  157POPC   C4A 2433   7.819   8.293   7.569 -0.2368  0.0667  0.0154
  157POPC   C1B 2434   7.650   8.406   6.391 -0.0388  0.0202  0.0421
  157POPC   C2B 2435   7.855   8.058   6.639  0.2288  0.1098 -0.0488
  157POPC   C3B 2436   7.694   7.673   6.856 -0.4531  0.1829 -0.1612
  157POPC   C4B 2437   7.661   7.214   6.823  0.0724  0.0032  0.2386
  158POPC   NC3 2438   3.688   4.424   3.125 -0.2700 -0.0631 -0.3740
  158POPC   PO4 2439   3.633   4.333   3.581  0.1748 -0.1565  0.2513
  158POPC   GL1 2440   3.327   4.486   3.917  0.3638 -0.1136  0.2403
  158POPC   GL2 2441   3.171   4.723   3.867 -0.0985 -0.2819  0.0473
  158POPC   C1A 2442   2.868   4.589   4.233  0.1991  0.2153  0.1412
  158POPC   D2A 2443   2.939   4.777   4.600 -0.0367  0.2566 -0.1564
  158POPC   C3A 2444   2.870   5.202   4.558 -0.1838 -0.0325 -0.1546
  158POPC   C4A 2445   3.145   5.415   4.834 -0.0869 -0.2425 -0.0457
  158POPC   C1B 2446   3.174   5.009   4.210 -0.0877 -0.2051  0.3517
  158POPC   C2B 2447   3.186   5.478   4.273  0.1334 -0.1419 -0.1479
  158POPC   C3B 2448   3.100   5.884   4.349 -0.3265  0.3033  0.2652
  158POPC   C4B 2449   2.918   6.240   4.397  0.0959 -0.3498  0.0547
  159POPC   NC3 2450   4.899   7.351   4.871  0.2741 -0.2066 -0.1725
  159POPC   PO4 2451   4.516   7.108   4.891  0.2646  0.2812  0.1553
  159POPC   GL1 2452   4.187   7.066   5.218 -0.0719 -0.0865 -0.3517
  159POPC   GL2 2453   4.314   6.717   5.338  0.1445 -0.0125  0.0985
  159POPC   C1A 2454   3.996   6.951   5.631 -0.1345 -0.1605  0.0478
  159POPC   D2A 2455   3.808   6.613   5.706 -0.1040  0.0671 -0.1863
  159POPC   C3A 2456   3.734   6.221   5.606  0.0731 -0.0616 -0.2325
  159POPC   C4A 2457   3.638   5.739   5.659 -0.1369  0.1188 -0.1659
  159POPC   C1B 2458   4.295   6.571   5.738  0.0294 -0.3540  0.1662
  159POPC   C2B 2459   4.541   6.513   6.157 -0.2912  0.3113  0.1214
  159POPC   C3B 2460   4.597   6.480   6.605 -0.0656 -0.1275  0.1412
  159POPC   C4B 2461   4.867   6.651   6.869  0.2124  0.0014 -0.0596
  160POPC   NC3 2462   6.953   5.043   4.934 -0.2482 -0.0590  0.1008
  160POPC   PO4 2463   7.203   5.309   5.043 -0.3614  0.1295  0.0266
  160POPC   GL1 2464   7.058   5.273   5.415  0.3265 -0.2562  0.3508
  160POPC   GL2 2465   7.132   5.445   5.625 -0.0102 -0.0321 -0.0961
  160POPC   C1A 2466   7.051   4.900   5.860  0.0952 -0.0194  0.3348
  160POPC   D2A 2467   6.671   4.654   6.014  0.0882  0.1699 -0.1827
  160POPC   C3A 2468   6.570   4.875   6.457  0.0830  0.0278  0.1835
  160POPC   C4A 2469   6.300   4.676   6.736  0.1346 -0.2165 -0.0919
  160POPC   C1B 2470   7.356   5.704   5.859 -0.0861  0.2166  0.0597
  160POPC   C2B 2471   7.246   5.978   6.086 -0.1046 -0.0488 -0.2064
  160POPC   C3B 2472   6.888   6.107   6.395  0.0349 -0.1347 -0.1531
  160POPC   C4B 2473   6.994   6.358   6.732 -0.0832 -0.3509  0.0436
  161POPC   NC3 2474   1.312   7.893   5.096 -0.0340  0.2757  0.0663
  161POPC   PO4 2475   1.634   8.038   5.453  0.0010 -0.2055  0.1103
  161POPC   GL1 2476   1.689   8.027   5.853 -0.1065  0.0383 -0.0813
  161POPC   GL2 2477   1.970   8.194   6.119  0.2093 -0.1452 -0.1950
  161POPC   C1A 2478   1.525   7.800   6.303 -0.0067 -0.0068  0.1549
  161POPC   D2A 2479   1.255   7.608   6.732 -0.0200  0.1895  0.3651
  161POPC   C3A 2480   1.508   7.451   7.095 -0.0198 -0.0027  0.1826
  161POPC   C4A 2481   1.838   7.499   7.367  0.0722  0.1312  0.1719
  161POPC   C1B 2482   2.015   7.786   6.447  0.0911 -0.2605  0.0038
  161POPC   C2B 2483   2.023   7.575   6.867 -0.2492  0.2094  0.1945
  161POPC   C3B 2484   2.053   7.120   7.069 -0.1619  0.2841  0.0221
  161POPC   C4B 2485   2.263   6.853   7.264  0.1327  0.2712  0.0457
  162POPC   NC3 2486   5.982   7.509   5.149 -0.0910  0.0438  0.1491
  162POPC   PO4 2487   6.242   7.924   5.123 -0.0094 -0.3716  0.0105
  162POPC   GL1 2488   5.983   7.716   5.582 -0.0702  0.0278  0.0519
  162POPC   GL2 2489   6.189   7.535   5.647  0.2313  0.2727  0.2515
  162POPC   C1A 2490   5.699   7.796   5.883  0.2996  0.0899 -0.0482
  162POPC   D2A 2491   5.753   7.511   6.370 -0.1069 -0.2914  0.0679
  162POPC   C3A 2492   6.125   7.538   6.617 -0.2335 -0.0768  0.2939
  162POPC   C4A 2493   6.357   7.279   6.816 -0.0478  0.2452 -0.0031
  162POPC   C1B 2494   6.128   7.576   6.032  0.1458  0.0915 -0.0209
  162POPC   C2B 2495   6.029   7.973   6.225  0.0647  0.1101  0.1451
  162POPC   C3B 2496   6.206   8.357   6.604  0.1165 -0.1012 -0.2445
  162POPC   C4B 2497   5.964   8.671   7.006  0.1603 -0.0434 -0.0444
  163POPC   NC3 2498   1.804   4.467   3.522 -0.0226 -0.2230 -0.0156
  163POPC   PO4 2499   2.293   4.551   3.376  0.0265 -0.3516  0.0205
  163POPC   GL1 2500   2.177   4.694   3.764 -0.3158  0.3080 -0.0543
  163POPC   GL2 2501   2.117   5.002   3.807  0.2249  0.3310  0.1617
  163POPC   C1A 2502   2.383   4.583   4.074 -0.5221  0.0976  0.0691
  163POPC   D2A 2503   2.393   4.360   4.466 -0.0015  0.2519 -0.0119
  163POPC   C3A 2504   2.302   4.530   4.780 -0.0049  0.1867  0.2453
  163POPC   C4A 2505   2.133   4.791   5.136 -0.3429 -0.1641 -0.0728
  163POPC   C1B 2506   2.215   5.173   4.147  0.5390  0.3752  0.2434
  163POPC   C2B 2507   2.347   5.326   4.575 -0.0272 -0.1876 -0.0144
  163POPC   C3B 2508   2.405   5.377   4.948  0.1325  0.1593 -0.1501
  163POPC   C4B 2509   2.147   5.234   5.408  0.1073 -0.0293  0.0254
  164POPC   NC3 2510   4.696   8.875   5.022 -0.4019 -0.2028  0.0233
  164POPC   PO4 2511   5.087   8.993   5.122  0.0073  0.0275  0.1709
  164POPC   GL1 2512   5.109   9.182   5.520  0.2252  0.0903 -0.2807
  164POPC   GL2 2513   5.383   9.356   5.634 -0.1778 -0.3265  0.0459
  164POPC   C1A 2514   4.797   9.171   5.914 -0.1231 -0.4608  0.0867
  164POPC   D2A 2515   4.486   8.951   6.181 -0.0784  0.0019  0.0051
  164POPC   C3A 2516   4.624   8.546   6.311 -0.3438  0.0368 -0.1807
  164POPC   C4A 2517   4.750   8.462   6.746 -0.4074 -0.0211 -0.0589
  164POPC   C1B 2518   5.290   9.272   6.035 -0.2486  0.3432  0.1244
  164POPC   C2B 2519   5.083   8.928   6.246  0.5700  0.1623 -0.1004
  164POPC   C3B 2520   4.816   9.032   6.535 -0.2351  0.1276 -0.0636
  164POPC   C4B 2521   4.627   8.902   6.820  0.0668 -0.0285 -0.1066
  165POPC   NC3 2522   3.059   4.929   3.358 -0.3300  0.2458 -0.0230
  165POPC   PO4 2523   3.557   4.824   3.409 -0.1198  0.1460 -0.0581
  165POPC   GL1 2524   3.691   4.838   3.796  0.0210 -0.0280 -0.1330
  165POPC   GL2 2525   3.690   5.252   4.010  0.0062 -0.0455 -0.3166
  165POPC   C1A 2526   3.726   4.729   4.219 -0.0273  0.0341 -0.1845
  165POPC   D2A 2527   4.018   4.575   4.639  0.6058  0.1472 -0.1475
  165POPC   C3A 2528   3.833   4.137   4.850 -0.4903 -0.3287  0.0042
  165POPC   C4A 2529   3.856   3.700   5.009 -0.4364  0.1892  0.2667
  165POPC   C1B 2530   3.722   5.560   4.468 -0.0578  0.0649 -0.0239
  165POPC   C2B 2531   3.850   5.430   4.935  0.1912 -0.1663  0.1135
  165POPC   C3B 2532   3.709   5.300   5.275 -0.0843 -0.1401 -0.2097
  165POPC   C4B 2533   3.677   5.231   5.770  0.0539  0.0784  0.2041
  166POPC   NC3 2534   6.635   4.461   5.038 -0.0458 -0.3281 -0.0910
  166POPC   PO4 2535   6.541   4.870   5.153 -0.0974 -0.3404  0.0295
  166POPC   GL1 2536   6.608   4.938   5.574  0.0419  0.0523  0.0722
  166POPC   GL2 2537   6.626   5.278   5.756 -0.0884 -0.0321  0.1659
  166POPC   C1A 2538   6.331   5.018   6.037  0.0297 -0.3608  0.0952
  166POPC   D2A 2539   6.018   5.090   6.284 -0.0287 -0.0489  0.0627
  166POPC   C3A 2540   5.837   4.983   6.641 -0.2077 -0.0636  0.1378
  166POPC   C4A 2541   5.488   4.955   7.013  0.2645 -0.0891  0.2912
  166POPC   C1B 2542   6.793   5.216   6.120  0.1849  0.2796  0.1644
  166POPC   C2B 2543   6.998   5.111   6.592 -0.0732  0.0310  0.3502
  166POPC   C3B 2544   6.974   4.957   6.939 -0.1891  0.0562 -0.1636
  166POPC   C4B 2545   6.700   4.603   6.979 -0.1264  0.0847  0.1554
  167POPC   NC3 2546   9.243   7.169   5.282 -0.1255 -0.1276 -0.2374
  167POPC   PO4 2547   8.893   7.474   5.351  0.1070 -0.3535  0.1279
  167POPC   GL1 2548   8.649   7.599   5.796  0.1250  0.1782  0.2835
  167POPC   GL2 2549   8.693   7.999   5.950 -0.1078  0.0231 -0.2570
  167POPC   C1A 2550   8.511   7.564   6.254  0.0808 -0.3370  0.1336
  167POPC   D2A 2551   8.553   7.785   6.570  0.2807  0.0138  0.2330
  167POPC   C3A 2552   8.244   7.797   6.879 -0.3115  0.0023 -0.0833
  167POPC   C4A 2553   7.983   7.851   7.212 -0.0290 -0.0685  0.2500
  167POPC   C1B 2554   8.956   7.771   6.287 -0.2293 -0.0008 -0.0892
  167POPC   C2B 2555   9.289   7.864   6.484 -0.1382 -0.0541  0.2473
  167POPC   C3B 2556   9.531   7.933   6.856 -0.1803 -0.0104  0.0743
  167POPC   C4B 2557   9.775   8.135   7.159  0.2768 -0.0292  0.2916
  168POPC   NC3 2558   9.447   1.163   5.225 -0.1206  0.2573  0.0571
  168POPC   PO4 2559   9.707   1.411   5.484 -0.1729  0.2387  0.1252
  168POPC   GL1 2560   9.890   1.560   5.809 -0.0828 -0.1391  0.2265
  168POPC   GL2 2561  10.173   1.507   5.745 -0.1463  0.4343  0.1055
  168POPC   C1A 2562   9.954   1.822   6.147 -0.3017 -0.0571  0.3938
  168POPC   D2A 2563  10.019   1.910   6.583  0.1096  0.1967  0.0958
  168POPC   C3A 2564  10.154   2.254   6.756 -0.4113  0.3120 -0.0294
  168POPC   C4A 2565  10.145   2.414   7.217 -0.1375 -0.3993  0.0404
  168POPC   C1B 2566  10.428   1.725   6.075 -0.2103  0.1503  0.0528
  168POPC   C2B 2567  10.887   1.662   6.322  0.0139  0.1018 -0.1369
  168POPC   C3B 2568  11.058   1.352   6.556  0.0632 -0.1445  0.2558
  168POPC   C4B 2569  11.545   1.293   6.758 -0.5594  0.2604 -0.0338
  169POPC   NC3 2570   7.567   6.517   5.023 -0.1303  0.2888  0.1220
  169POPC   PO4 2571   7.874   6.908   5.195 -0.2030 -0.2672  0.4394
  169POPC   GL1 2572   7.743   6.723   5.530  0.2848  0.0041 -0.2591
  169POPC   GL2 2573   7.742   6.904   5.845  0.2377  0.1780  0.0581
  169POPC   C1A 2574   7.344   6.537   5.751  0.2113 -0.0106 -0.2477
  169POPC   D2A 2575   7.049   6.416   6.099 -0.0860 -0.3234 -0.0464
  169POPC   C3A 2576   7.112   6.716   6.431 -0.0573 -0.1161  0.1141
  169POPC   C4A 2577   7.212   7.055   6.711  0.1230  0.1720 -0.3266
  169POPC   C1B 2578   7.620   6.613   6.177  0.0054  0.0308  0.2253
  169POPC   C2B 2579   7.410   6.284   6.467 -0.0081 -0.4954 -0.0658
  169POPC   C3B 2580   7.326   5.970   6.869  0.0729 -0.1137  0.0318
  169POPC   C4B 2581   6.915   5.823   7.084 -0.2550  0.6588 -0.0858
  170POPC   NC3 2582   5.315   3.596   4.518  0.0606  0.0684  0.0059
  170POPC   PO4 2583   4.838   3.653   4.637  0.0745  0.1611  0.0230
  170POPC   GL1 2584   5.001   3.503   5.059  0.0898 -0.0587  0.0287
  170POPC   GL2 2585   5.239   3.405   4.924  0.0195  0.2278  0.0900
  170POPC   C1A 2586   4.858   3.324   5.432  0.1255 -0.1011 -0.2360
  170POPC   D2A 2587   4.714   3.142   5.718  0.3076  0.0091 -0.2652
  170POPC   C3A 2588   4.531   2.977   6.186  0.1650  0.3580 -0.0333
  170POPC   C4A 2589   4.229   2.978   6.536  0.0694  0.0358 -0.1717
  170POPC   C1B 2590   5.381   3.252   5.321  0.0374 -0.0965 -0.2206
  170POPC   C2B 2591   5.549   3.008   5.642  0.0272  0.0536  0.0476
  170POPC   C3B 2592   5.665   2.813   6.075 -0.2316 -0.0665 -0.0919
  170POPC   C4B 2593   5.493   2.664   6.447 -0.0317 -0.0782  0.0281
  171POPC   NC3 2594   6.801   2.507   5.252  0.1233  0.1158  0.1803
  171POPC   PO4 2595   6.871   2.044   5.270 -0.1463  0.1154  0.0820
  171POPC   GL1 2596   6.932   2.071   5.631  0.1235 -0.1478  0.0540
  171POPC   GL2 2597   6.852   2.379   5.753  0.2083 -0.1468 -0.2381
  171POPC   C1A 2598   7.010   1.928   6.073 -0.3202  0.1157  0.1574
  171POPC   D2A 2599   6.858   1.932   6.414 -0.0876 -0.1206  0.0883
  171POPC   C3A 2600   6.476   1.653   6.487 -0.0150  0.1203  0.0811
  171POPC   C4A 2601   6.242   1.416   6.866  0.3927  0.2139  0.2802
  171POPC   C1B 2602   6.822   2.427   6.183 -0.0417  0.2239 -0.0277
  171POPC   C2B 2603   6.549   2.709   6.434  0.2282  0.1831 -0.2529
  171POPC   C3B 2604   6.363   3.001   6.729  0.5302  0.0213  0.0819
  171POPC   C4B 2605   6.036   2.881   7.065  0.2107 -0.0558  0.1434
  172POPC   NC3 2606   6.180   3.575   4.883  0.0202  0.0593 -0.0046
  172POPC   PO4 2607   5.741   3.375   4.808 -0.0784 -0.1369 -0.1564
  172POPC   GL1 2608   5.810   3.552   5.204 -0.0221  0.2317 -0.0645
  172POPC   GL2 2609   6.065   3.419   5.468  0.0064 -0.4249  0.0847
  172POPC   C1A 2610   5.604   3.587   5.631 -0.4466 -0.1495  0.0379
  172POPC   D2A 2611   5.557   3.717   6.049  0.0605  0.0120 -0.1531
  172POPC   C3A 2612   5.738   3.721   6.545 -0.2231  0.0041  0.2684
  172POPC   C4A 2613   5.760   3.723   7.002  0.0080  0.1224  0.2297
  172POPC   C1B 2614   5.867   3.290   5.950  0.3813 -0.1443 -0.2778
  172POPC   C2B 2615   5.485   3.249   6.307  0.0245 -0.1596  0.0056
  172POPC   C3B 2616   5.457   3.414   6.735 -0.2518  0.1140  0.6043
  172POPC   C4B 2617   5.216   3.275   7.064  0.0192 -0.2234 -0.0371
  173POPC   NC3 2618   0.638   4.718   4.014  0.3196 -0.1143  0.3339
  173POPC   PO4 2619   0.773   5.120   4.098 -0.0499  0.1017 -0.1967
  173POPC   GL1 2620   0.910   4.918   4.497 -0.1105 -0.0068  0.3019
  173POPC   GL2 2621   0.781   4.557   4.505 -0.0653 -0.0679  0.1414
  173POPC   C1A 2622   1.020   4.691   4.863 -0.1011  0.1904 -0.2090
  173POPC   D2A 2623   1.427   4.574   5.139  0.0743 -0.0687  0.0622
  173POPC   C3A 2624   1.689   4.497   5.411  0.0166 -0.1376  0.1081
  173POPC   C4A 2625   1.663   4.170   5.727  0.1453 -0.0425  0.2228
  173POPC   C1B 2626   0.665   4.421   4.965 -0.0413 -0.0489  0.0733
  173POPC   C2B 2627   0.727   4.164   5.346  0.2909  0.0507 -0.0015
  173POPC   C3B 2628   0.840   4.234   5.708 -0.2550  0.2057  0.0414
  173POPC   C4B 2629   0.788   4.539   5.999  0.0659 -0.0060  0.0954
  174POPC   NC3 2630   6.979   3.373   5.056  0.0305  0.0784  0.0444
  174POPC   PO4 2631   6.937   2.963   5.266 -0.0912  0.1593  0.1900
  174POPC   GL1 2632   7.234   2.675   5.608 -0.2153  0.0136 -0.3293
  174POPC   GL2 2633   7.464   2.594   5.582 -0.0064 -0.0791  0.1035
  174POPC   C1A 2634   7.128   2.756   6.008 -0.0085 -0.1525  0.0880
  174POPC   D2A 2635   7.162   2.721   6.420  0.0078  0.2044  0.0214
  174POPC   C3A 2636   7.216   2.942   6.812 -0.2687 -0.1492 -0.0078
  174POPC   C4A 2637   7.431   3.223   7.024  0.2822  0.0432  0.2290
  174POPC   C1B 2638   7.397   2.313   6.009 -0.2395 -0.0555  0.3427
  174POPC   C2B 2639   7.306   2.198   6.343 -0.1740 -0.3573 -0.1782
  174POPC   C3B 2640   7.113   2.363   6.718  0.2821 -0.0526 -0.0673
  174POPC   C4B 2641   6.771   2.666   6.961 -0.0434 -0.3892  0.2358
  175POPC   NC3 2642   1.043   7.137   4.933 -0.1222 -0.0571  0.1444
  175POPC   PO4 2643   1.208   7.509   4.829 -0.0263  0.1300  0.3354
  175POPC   GL1 2644   1.422   7.428   5.211 -0.3782  0.1630 -0.0515
  175POPC   GL2 2645   1.356   7.619   5.482  0.1435 -0.0089  0.0773
  175POPC   C1A 2646   1.682   7.199   5.412 -0.0040  0.1899 -0.0359
  175POPC   D2A 2647   2.217   7.058   5.534 -0.0223  0.3121 -0.1164
  175POPC   C3A 2648   2.483   6.895   5.821  0.1431  0.0146  0.2687
  175POPC   C4A 2649   2.659   7.048   6.243  0.1024 -0.3115 -0.0405
  175POPC   C1B 2650   1.161   7.584   5.850  0.1335  0.0167  0.4066
  175POPC   C2B 2651   1.194   7.379   6.212 -0.2500 -0.2958 -0.0593
  175POPC   C3B 2652   0.922   7.015   6.345 -0.0537  0.2398  0.0603
  175POPC   C4B 2653   0.837   6.554   6.352 -0.0409  0.1201 -0.1192
  176POPC   NC3 2654   9.478   2.077   5.063  0.2361  0.1430  0.0213
  176POPC   PO4 2655   9.527   1.627   5.063  0.1680  0.1185 -0.2565
  176POPC   GL1 2656   9.340   1.710   5.542  0.0028 -0.2329 -0.0748
  176POPC   GL2 2657   9.311   2.073   5.545  0.1939  0.0527 -0.1514
  176POPC   C1A 2658   9.071   1.359   5.811 -0.1632  0.1411 -0.1683
  176POPC   D2A 2659   8.915   1.094   6.176  0.1086  0.0398 -0.0385
  176POPC   C3A 2660   9.193   1.050   6.499  0.1702 -0.2304 -0.0857
  176POPC   C4A 2661   9.465   1.239   6.808  0.2381 -0.1843 -0.1219
  176POPC   C1B 2662   9.054   1.960   5.818 -0.1565  0.2799  0.0080
  176POPC   C2B 2663   9.023   2.046   6.239  0.0176 -0.3005  0.1158
  176POPC   C3B 2664   9.256   1.927   6.544 -0.2012  0.3318 -0.2997
  176POPC   C4B 2665   9.442   1.739   6.915  0.0078  0.0026  0.1648
  177POPC   NC3 2666  10.094   6.588   4.781  0.1025  0.0540 -0.0397
  177POPC   PO4 2667  10.156   6.353   5.022  0.0080  0.0181 -0.1679
  177POPC   GL1 2668  10.354   6.850   5.277  0.3834 -0.0302  0.2137
  177POPC   GL2 2669  10.155   6.880   5.457  0.0509  0.1267 -0.0320
  177POPC   C1A 2670  10.781   6.966   5.543 -0.3921 -0.2533 -0.0497
  177POPC   D2A 2671  11.069   7.150   5.829  0.0977  0.0703  0.1566
  177POPC   C3A 2672  11.435   7.108   5.685 -0.0333 -0.3364 -0.3247
  177POPC   C4A 2673  11.825   6.943   5.915 -0.1900  0.0829 -0.2977
  177POPC   C1B 2674  10.293   6.660   5.711  0.0946 -0.0721  0.3115
  177POPC   C2B 2675  10.216   6.660   6.211  0.2116  0.2205 -0.2222
  177POPC   C3B 2676  10.492   6.404   6.547  0.0894  0.1350  0.0080
  177POPC   C4B 2677  10.955   6.134   6.608 -0.1620  0.1857 -0.1511
  178POPC   NC3 2678   9.855   9.006   5.612 -0.2421 -0.0426  0.1309
  178POPC   PO4 2679   9.507   9.183   5.309 -0.0835  0.0227  0.0441
  178POPC   GL1 2680   9.362   9.103   5.681  0.0833 -0.0710 -0.1464
  178POPC   GL2 2681   9.110   8.901   5.868 -0.0748  0.0928 -0.2007
  178POPC   C1A 2682   9.303   9.431   6.123 -0.0976 -0.1709  0.3818
  178POPC   D2A 2683   9.314   9.566   6.457  0.3058 -0.2128  0.0766
  178POPC   C3A 2684   9.553   9.154   6.616 -0.0113 -0.0461  0.0780
  178POPC   C4A 2685   9.472   8.888   6.801  0.0215  0.0625  0.0757
  178POPC   C1B 2686   8.959   8.486   6.056  0.1347  0.3187 -0.1062
  178POPC   C2B 2687   8.946   8.418   6.454  0.2195 -0.0359  0.0794
  178POPC   C3B 2688   8.936   8.123   6.729  0.0813 -0.0152 -0.0091
  178POPC   C4B 2689   8.849   7.968   7.183  0.4352 -0.0909  0.0742
  179POPC   NC3 2690   8.445   5.391   5.325 -0.2867  0.1908  0.0309
  179POPC   PO4 2691   8.346   5.641   5.576  0.1374  0.0769  0.0072
  179POPC   GL1 2692   8.414   5.374   5.914  0.3047 -0.0761  0.0275
  179POPC   GL2 2693   8.342   5.697   6.105 -0.1587  0.0073  0.1326
  179POPC   C1A 2694   8.553   5.301   6.464 -0.0255 -0.2104 -0.0584
  179POPC   D2A 2695   8.707   5.529   6.863 -0.3836  0.2606  0.0622
  179POPC   C3A 2696   8.581   5.298   7.240 -0.1205  0.2626 -0.3533
  179POPC   C4A 2697   8.320   5.080   7.629 -0.0760 -0.1166 -0.0477
  179POPC   C1B 2698   8.454   5.757   6.527  0.0328  0.0318  0.3212
  179POPC   C2B 2699   8.397   5.975   6.807  0.1593  0.2362  0.0925
  179POPC   C3B 2700   8.582   6.070   7.087 -0.0192 -0.2072  0.1701
  179POPC   C4B 2701   8.954   5.995   7.297  0.2163  0.0074 -0.0865
  180POPC   NC3 2702  10.039   1.108   5.351  0.0754  0.3880 -0.2079
  180POPC   PO4 2703  10.177   0.670   5.419 -0.2453  0.0587 -0.1407
  180POPC   GL1 2704  10.024   0.907   5.793 -0.2006 -0.0711  0.1190
  180POPC   GL2 2705  10.249   0.982   5.926 -0.1265  0.2591 -0.1175
  180POPC   C1A 2706   9.821   0.801   6.164  0.0850 -0.0913  0.1862
  180POPC   D2A 2707   9.849   0.988   6.606 -0.0658 -0.0193 -0.1550
  180POPC   C3A 2708   9.835   0.853   6.977  0.2474  0.2222 -0.3312
  180POPC   C4A 2709  10.093   0.620   7.254  0.0940  0.2541  0.4046
  180POPC   C1B 2710  10.074   1.309   6.223  0.1209 -0.0933 -0.1198
  180POPC   C2B 2711  10.442   1.560   6.517 -0.3371 -0.1390  0.2386
  180POPC   C3B 2712  10.557   1.512   7.019  0.1217 -0.4143  0.2763
  180POPC   C4B 2713  10.651   1.708   7.365  0.0274 -0.1004 -0.2892
  181POPC   NC3 2714  10.036   8.117   5.658 -0.0664  0.0127 -0.2427
  181POPC   PO4 2715  10.346   8.484   5.716  0.1715 -0.0891 -0.3645
  181POPC   GL1 2716  10.465   8.181   6.008  0.1286  0.1465  0.1869
  181POPC   GL2 2717  10.215   7.999   6.239 -0.2625  0.4989  0.1631
  181POPC   C1A 2718  10.724   8.050   6.390  0.1140  0.2150  0.1599
  181POPC   D2A 2719  10.581   8.040   6.875 -0.0480 -0.1123 -0.0873
  181POPC   C3A 2720  10.721   7.617   6.986  0.0941 -0.2080 -0.0189
  181POPC   C4A 2721  10.972   7.339   6.681 -0.1874 -0.2419 -0.0746
  181POPC   C1B 2722  10.029   7.650   6.377  0.1937 -0.1338  0.2034
  181POPC   C2B 2723   9.771   7.469   6.760  0.1573  0.0354  0.4504
  181POPC   C3B 2724   9.645   7.528   7.203 -0.1932  0.0849  0.1117
  181POPC   C4B 2725   9.460   7.090   7.401 -0.0838  0.0202  0.3238
  182POPC   NC3 2726   5.762   1.889   4.833 -0.4859  0.0134  0.0217
  182POPC   PO4 2727   6.035   2.139   4.931  0.0053 -0.3903  0.1357
  182POPC   GL1 2728   5.952   2.021   5.338 -0.0576  0.1750  0.0739
  182POPC   GL2 2729   6.113   1.647   5.410 -0.1758 -0.0502 -0.1276
  182POPC   C1A 2730   6.033   2.198   5.652  0.1357 -0.0031  0.0545
  182POPC   D2A 2731   5.919   2.488   5.884 -0.0868 -0.0275  0.0005
  182POPC   C3A 2732   5.966   2.431   6.381 -0.1052 -0.1673 -0.1764
  182POPC   C4A 2733   5.822   2.451   6.815  0.3700  0.3224  0.0313
  182POPC   C1B 2734   6.002   1.685   5.811  0.3019 -0.2926 -0.0802
  182POPC   C2B 2735   6.045   1.691   6.211 -0.1843  0.0726  0.3296
  182POPC   C3B 2736   6.064   1.934   6.625  0.0254  0.2377 -0.1462
  182POPC   C4B 2737   5.903   1.950   7.018  0.3678  0.0574  0.2730
  183POPC   NC3 2738   7.001   8.457   5.205  0.1889 -0.1716  0.3787
  183POPC   PO4 2739   6.885   8.019   5.078 -0.0002 -0.0662 -0.4361
  183POPC   GL1 2740   6.849   7.971   5.500  0.1397 -0.2588 -0.3725
  183POPC   GL2 2741   6.473   7.971   5.549 -0.1930  0.4319  0.1868
  183POPC   C1A 2742   6.776   8.332   5.776  0.1408  0.0166 -0.4055
  183POPC   D2A 2743   6.627   8.243   6.263 -0.2961 -0.1092  0.1664
  183POPC   C3A 2744   6.656   8.521   6.578  0.4238  0.2267  0.1988
  183POPC   C4A 2745   6.474   8.769   6.864  0.3218 -0.3575  0.1643
  183POPC   C1B 2746   6.535   7.875   5.920  0.1382 -0.3911 -0.1486
  183POPC   C2B 2747   6.533   7.698   6.378  0.0859  0.2596 -0.2608
  183POPC   C3B 2748   6.716   7.587   6.788 -0.2725  0.0687  0.2079
  183POPC   C4B 2749   6.761   7.540   7.182 -0.4580 -0.1290 -0.2427
  184POPC   NC3 2750   9.115   9.540   5.111  0.1141  0.3796 -0.2684
  184POPC   PO4 2751   9.034  10.033   5.066  0.2629 -0.1182  0.0133
  184POPC   GL1 2752   9.062  10.052   5.542 -0.0441  0.1420 -0.0872
  184POPC   GL2 2753   9.374  10.028   5.786  0.1507  0.2997 -0.1951
  184POPC   C1A 2754   9.103  10.420   5.913  0.1223  0.3348 -0.3403
  184POPC   D2A 2755   8.847  10.743   6.165  0.0647 -0.2378  0.0944
  184POPC   C3A 2756   8.362  10.672   6.349 -0.1135 -0.4354  0.3229
  184POPC   C4A 2757   8.032  10.915   6.479 -0.1582 -0.1753  0.1717
  184POPC   C1B 2758   9.572   9.867   6.098  0.3462 -0.0364 -0.2875
  184POPC   C2B 2759   9.810   9.620   6.427 -0.0284 -0.1233  0.3096
  184POPC   C3B 2760   9.816   9.561   6.759  0.0850 -0.2533 -0.2043
  184POPC   C4B 2761   9.443   9.536   7.160 -0.0693  0.0959  0.3066
  185POPC   NC3 2762   4.907   0.209   5.300  0.0487  0.2269  0.1292
  185POPC   PO4 2763   5.142  -0.120   5.364  0.2543  0.0592 -0.3410
  185POPC   GL1 2764   5.007  -0.107   5.743  0.0948  0.2625  0.2673
  185POPC   GL2 2765   4.736  -0.115   5.724 -0.1682 -0.0406  0.5415
  185POPC   C1A 2766   4.884   0.233   6.040 -0.2668 -0.3158 -0.2053
  185POPC   D2A 2767   4.748   0.388   6.411  0.1028 -0.0224 -0.0011
  185POPC   C3A 2768   4.810   0.229   6.792  0.0708  0.4337 -0.0739
  185POPC   C4A 2769   4.716  -0.121   6.995  0.3659 -0.3064 -0.0650
  185POPC   C1B 2770   4.528  -0.304   6.001 -0.1983  0.2333 -0.1828
  185POPC   C2B 2771   4.512  -0.692   6.311 -0.1498  0.2900  0.1470
  185POPC   C3B 2772   4.767  -0.691   6.787 -0.1476  0.2637 -0.0477
  185POPC   C4B 2773   4.973  -0.524   7.066 -0.2417  0.2250 -0.1716
  186POPC   NC3 2774   5.717   1.440   5.047  0.2119 -0.1428  0.0231
  186POPC   PO4 2775   5.730   0.980   4.941  0.0730 -0.0842 -0.4663
  186POPC   GL1 2776   5.601   1.108   5.405  0.1258  0.0248  0.2045
  186POPC   GL2 2777   5.816   1.287   5.519  0.3165  0.0044  0.1375
  186POPC   C1A 2778   5.508   0.982   5.686 -0.0168 -0.3293 -0.2638
  186POPC   D2A 2779   5.433   1.078   6.128 -0.2371  0.0540 -0.0546
  186POPC   C3A 2780   5.160   1.327   6.234  0.3502 -0.1347  0.1049
  186POPC   C4A 2781   5.004   1.779   6.064 -0.0391 -0.2517 -0.0934
  186POPC   C1B 2782   5.840   1.224   5.963  0.2748  0.0382  0.2327
  186POPC   C2B 2783   5.808   1.277   6.392  0.0365  0.0282  0.0540
  186POPC   C3B 2784   5.463   1.194   6.650 -0.0354  0.3138 -0.3193
  186POPC   C4B 2785   5.237   1.237   6.968  0.1068  0.0256  0.1129
  187POPC   NC3 2786   3.457   1.015   4.819 -0.0244  0.0950 -0.0423
  187POPC   PO4 2787   3.288   1.027   5.355  0.3087  0.1736 -0.0020
  187POPC   GL1 2788   3.110   0.715   5.576 -0.3676  0.1284  0.3148
  187POPC   GL2 2789   2.776   0.580   5.543  0.1393 -0.1497 -0.1202
  187POPC   C1A 2790   2.977   0.628   5.985 -0.0164 -0.2123 -0.0085
  187POPC   D2A 2791   2.834   0.714   6.487  0.0418  0.2958  0.2449
  187POPC   C3A 2792   3.076   0.945   6.794  0.2578  0.3558  0.2191
  187POPC   C4A 2793   3.537   1.141   6.837  0.2965 -0.2993  0.1929
  187POPC   C1B 2794   3.080   0.166   5.791  0.0921  0.2055  0.1624
  187POPC   C2B 2795   3.016  -0.247   6.058 -0.1545  0.0225  0.0768
  187POPC   C3B 2796   2.929  -0.379   6.387  0.3849 -0.1925 -0.0673
  187POPC   C4B 2797   2.792  -0.647   6.667 -0.5724  0.1981 -0.1431
  188POPC   NC3 2798   4.051   7.505   4.737 -0.0736  0.0232 -0.0379
  188POPC   PO4 2799   3.617   7.667   4.960 -0.0187 -0.4213 -0.3842
  188POPC   GL1 2800   3.549   7.567   5.382  0.4726  0.2122  0.0334
  188POPC   GL2 2801   3.334   7.964   5.527  0.0116  0.0886  0.3216
  188POPC   C1A 2802   3.834   7.423   5.726  0.1440 -0.0886 -0.0889
  188POPC   D2A 2803   4.224   7.428   5.996 -0.1755 -0.0021  0.5089
  188POPC   C3A 2804   4.186   7.484   6.466  0.1562 -0.3638 -0.1079
  188POPC   C4A 2805   4.508   7.662   6.781 -0.1103  0.2901  0.0045
  188POPC   C1B 2806   3.301   7.836   5.941 -0.3557 -0.2670 -0.1907
  188POPC   C2B 2807   3.404   7.751   6.447 -0.0902  0.4828  0.1088
  188POPC   C3B 2808   3.861   7.821   6.701  0.1038 -0.0429  0.0060
  188POPC   C4B 2809   4.054   8.151   6.889  0.4467  0.0863 -0.2821
  189POPC   NC3 2810   8.966   5.217   5.141  0.1047 -0.1537  0.3123
  189POPC   PO4 2811   8.665   4.815   5.116  0.1675  0.0215  0.0072
  189POPC   GL1 2812   8.675   4.841   5.581 -0.1170 -0.1012 -0.2494
  189POPC   GL2 2813   8.767   5.142   5.630  0.0291  0.0899 -0.0624
  189POPC   C1A 2814   8.418   4.845   5.994  0.1164  0.0274 -0.0790
  189POPC   D2A 2815   8.065   4.653   6.197  0.3522 -0.2653  0.0124
  189POPC   C3A 2816   7.572   4.810   6.204 -0.3341  0.0716  0.2230
  189POPC   C4A 2817   7.369   5.178   6.125  0.1789  0.2010 -0.1896
  189POPC   C1B 2818   8.862   5.101   5.998  0.1856 -0.0441 -0.0564
  189POPC   C2B 2819   8.940   4.937   6.481  0.2102  0.3100  0.1164
  189POPC   C3B 2820   8.942   4.473   6.633 -0.0510 -0.0917 -0.0270
  189POPC   C4B 2821   9.237   4.057   6.488  0.3602 -0.3352  0.1161
  190POPC   NC3 2822   0.794   3.644   4.392 -0.2852  0.3227 -0.3417
  190POPC   PO4 2823   1.026   4.073   4.291  0.2294 -0.2647 -0.2925
  190POPC   GL1 2824   1.205   4.276   4.550 -0.1204 -0.0974 -0.0724
  190POPC   GL2 2825   1.467   4.469   4.585 -0.0190  0.2430  0.1706
  190POPC   C1A 2826   1.137   4.197   5.047  0.0512  0.2628 -0.1023
  190POPC   D2A 2827   1.214   3.993   5.515 -0.1860  0.1145 -0.0657
  190POPC   C3A 2828   1.353   3.798   5.893 -0.1693  0.1457  0.1049
  190POPC   C4A 2829   1.628   3.381   6.005 -0.2290 -0.1982 -0.0433
  190POPC   C1B 2830   1.838   4.503   4.873 -0.2094 -0.4012 -0.1550
  190POPC   C2B 2831   2.105   4.253   5.177  0.4153  0.1824  0.0844
  190POPC   C3B 2832   2.470   4.122   5.295  0.2907  0.1013 -0.3964
  190POPC   C4B 2833   2.777   4.191   5.520  0.0346 -0.1220 -0.4219
  191POPC   NC3 2834   9.520   7.768   4.866  0.2058  0.1011 -0.2567
  191POPC   PO4 2835   9.621   7.412   5.050  0.0808 -0.1303 -0.1160
  191POPC   GL1 2836   9.661   7.276   5.521 -0.0756 -0.3550 -0.0058
  191POPC   GL2 2837   9.629   6.921   5.574 -0.1420 -0.1881  0.0960
  191POPC   C1A 2838   9.987   7.060   5.899  0.2084 -0.3247  0.1231
  191POPC   D2A 2839  10.387   7.108   5.948 -0.0886 -0.1094 -0.5171
  191POPC   C3A 2840  10.685   6.812   6.012 -0.3283 -0.0548  0.0980
  191POPC   C4A 2841  10.969   6.579   5.668  0.3646 -0.0060  0.0573
  191POPC   C1B 2842   9.418   6.975   6.019  0.0661  0.1696 -0.1680
  191POPC   C2B 2843   9.282   6.932   6.442  0.1393  0.0456  0.1078
  191POPC   C3B 2844   9.030   6.730   6.841  0.1936  0.0505 -0.3377
  191POPC   C4B 2845   8.650   6.593   7.046  0.1246 -0.2008  0.0499
  192POPC   NC3 2846   6.398   2.572   4.627  0.1597  0.1688 -0.1206
  192POPC   PO4 2847   6.425   2.697   4.997  0.1066  0.2348  0.3699
  192POPC   GL1 2848   6.354   2.669   5.470  0.1013 -0.0055  0.0903
  192POPC   GL2 2849   6.652   2.858   5.626  0.3427 -0.0597 -0.1631
  192POPC   C1A 2850   6.056   2.941   5.665 -0.2195  0.3532 -0.0525
  192POPC   D2A 2851   6.350   3.285   5.829  0.0674  0.0543 -0.1138
  192POPC   C3A 2852   6.289   3.375   6.275  0.3442 -0.6595 -0.0941
  192POPC   C4A 2853   6.045   3.390   6.674  0.0666 -0.1321  0.2732
  192POPC   C1B 2854   6.436   2.660   5.952  0.2807 -0.0187  0.1301
  192POPC   C2B 2855   6.125   2.889   6.224 -0.1456  0.2545 -0.2624
  192POPC   C3B 2856   5.854   2.957   6.579  0.0755  0.0049  0.1224
  192POPC   C4B 2857   5.556   2.969   6.889  0.0038  0.2951 -0.0742
  193POPC   NC3 2858   7.387   8.621   4.790  0.0562  0.1871 -0.3164
  193POPC   PO4 2859   7.227   8.938   5.121 -0.1616 -0.3662 -0.1936
  193POPC   GL1 2860   7.121   9.104   5.497  0.0247 -0.0326  0.0434
  193POPC   GL2 2861   7.164   8.808   5.830 -0.3799  0.0544  0.3985
  193POPC   C1A 2862   6.794   9.226   5.660  0.1437 -0.0001 -0.2275
  193POPC   D2A 2863   6.515   9.214   6.010 -0.2266 -0.1920  0.1845
  193POPC   C3A 2864   6.655   9.072   6.421 -0.1560 -0.0253 -0.2030
  193POPC   C4A 2865   6.949   8.957   6.724  0.0109 -0.3167 -0.1526
  193POPC   C1B 2866   7.151   9.156   6.060 -0.0355 -0.2663 -0.1085
  193POPC   C2B 2867   7.149   9.355   6.432  0.0562 -0.1785  0.0125
  193POPC   C3B 2868   7.045   9.413   6.813 -0.0772  0.2085  0.0143
  193POPC   C4B 2869   7.235   9.646   7.127 -0.0167 -0.0144  0.1274
  194POPC   NC3 2870   7.223   7.676   5.302  0.2631  0.0675 -0.1330
  194POPC   PO4 2871   7.663   7.766   5.328  0.1455 -0.2477  0.0841
  194POPC   GL1 2872   7.829   7.930   5.747  0.2136 -0.0934  0.2105
  194POPC   GL2 2873   8.077   7.780   5.917 -0.2787 -0.1331 -0.3449
  194POPC   C1A 2874   7.640   8.002   6.069 -0.1474 -0.0514 -0.1510
  194POPC   D2A 2875   7.445   7.971   6.393 -0.1549 -0.0621 -0.0625
  194POPC   C3A 2876   7.072   8.099   6.446  0.2526  0.2170  0.0212
  194POPC   C4A 2877   6.611   8.036   6.776 -0.4033  0.0229 -0.0394
  194POPC   C1B 2878   8.129   7.951   6.248  0.1837 -0.0177  0.1275
  194POPC   C2B 2879   8.336   8.202   6.541  0.4434 -0.6053  0.2464
  194POPC   C3B 2880   8.471   8.239   6.918  0.1731 -0.2042 -0.2359
  194POPC   C4B 2881   8.444   8.638   7.151 -0.1538 -0.2294  0.2028
  195POPC   NC3 2882   4.085   5.468   3.903  0.0647  0.1527  0.0854
  195POPC   PO4 2883   4.435   5.447   4.112  0.1029 -0.2513  0.0700
  195POPC   GL1 2884   4.211   5.378   4.356  0.1177 -0.5042  0.3837
  195POPC   GL2 2885   4.261   5.611   4.615  0.0986 -0.1081 -0.1195
  195POPC   C1A 2886   3.926   5.136   4.482 -0.4766  0.2769 -0.3476
  195POPC   D2A 2887   3.444   5.087   4.628 -0.0029 -0.1453  0.1254
  195POPC   C3A 2888   3.249   4.981   5.102  0.2638 -0.1500  0.1476
  195POPC   C4A 2889   3.325   4.938   5.501 -0.6833  0.0089 -0.3331
  195POPC   C1B 2890   4.426   5.435   5.010  0.2161  0.1499  0.0061
  195POPC   C2B 2891   4.688   5.434   5.340 -0.3498  0.4225  0.0181
  195POPC   C3B 2892   5.036   5.463   5.329 -0.3511  0.3408  0.1238
  195POPC   C4B 2893   5.467   5.313   5.582  0.2131 -0.2100  0.0873
  196POPC   NC3 2894   8.762   6.947   5.288  0.1386 -0.0823 -0.0261
  196POPC   PO4 2895   9.038   6.685   5.244 -0.1693 -0.2905 -0.0246
  196POPC   GL1 2896   9.059   6.703   5.608  0.1673 -0.2852 -0.0709
  196POPC   GL2 2897   8.923   6.975   5.775  0.1368  0.1024 -0.2230
  196POPC   C1A 2898   9.162   6.534   6.028 -0.3101  0.3051 -0.2312
  196POPC   D2A 2899   9.253   6.423   6.462  0.3551  0.1443 -0.0379
  196POPC   C3A 2900   9.581   6.332   6.669  0.1474 -0.3396  0.0213
  196POPC   C4A 2901  10.039   6.215   6.697 -0.3115 -0.0792 -0.0752
  196POPC   C1B 2902   8.904   7.278   6.179 -0.0860  0.0132 -0.0423
  196POPC   C2B 2903   9.061   7.401   6.626 -0.1354 -0.1166  0.2717
  196POPC   C3B 2904   9.130   7.668   6.975  0.0546  0.0753 -0.1989
  196POPC   C4B 2905   9.004   7.490   7.466  0.2136  0.0479  0.0879
  197POPC   NC3 2906   6.063   6.678   5.025 -0.0410  0.4912  0.1066
  197POPC   PO4 2907   5.778   6.907   5.057 -0.1016  0.0121  0.1337
  197POPC   GL1 2908   5.559   6.811   5.482 -0.1465 -0.1958 -0.1329
  197POPC   GL2 2909   5.253   6.852   5.573  0.2823 -0.1034  0.1184
  197POPC   C1A 2910   5.611   6.663   5.864 -0.1227 -0.2194 -0.0094
  197POPC   D2A 2911   5.348   6.622   6.206  0.0233  0.4255 -0.0066
  197POPC   C3A 2912   4.980   6.331   6.242  0.0623 -0.2042  0.2950
  197POPC   C4A 2913   4.683   6.173   5.813  0.1409  0.1557  0.1076
  197POPC   C1B 2914   5.041   7.193   5.771  0.1296 -0.0569 -0.1654
  197POPC   C2B 2915   4.838   7.406   6.208  0.1740  0.2645 -0.0326
  197POPC   C3B 2916   4.594   7.212   6.559  0.2090  0.1581 -0.0860
  197POPC   C4B 2917   4.493   7.065   6.960  0.1424 -0.0754 -0.2004
  198POPC   NC3 2918   5.092   0.698   5.136 -0.0201 -0.1749 -0.0745
  198POPC   PO4 2919   4.753   0.668   5.334 -0.2374  0.0212 -0.0545
  198POPC   GL1 2920   4.794   0.829   5.750  0.3371 -0.1237  0.0435
  198POPC   GL2 2921   4.576   1.034   5.776 -0.2072 -0.1330  0.4582
  198POPC   C1A 2922   5.031   0.810   6.100 -0.1695  0.2380 -0.0494
  198POPC   D2A 2923   4.915   0.910   6.555  0.2855  0.0617 -0.0408
  198POPC   C3A 2924   4.783   1.383   6.599  0.1449 -0.0975 -0.0556
  198POPC   C4A 2925   5.123   1.764   6.626  0.2086  0.4243 -0.1457
  198POPC   C1B 2926   4.545   1.360   6.128  0.0499 -0.1389  0.4481
  198POPC   C2B 2927   4.238   1.549   6.361 -0.0447 -0.1844  0.2661
  198POPC   C3B 2928   4.092   1.929   6.463  0.0241 -0.0444  0.0803
  198POPC   C4B 2929   3.892   2.304   6.712  0.1456 -0.0250  0.2614
  199POPC   NC3 2930   1.748   5.242   3.516  0.2473 -0.1268 -0.3478
  199POPC   PO4 2931   2.055   5.376   3.458 -0.3720 -0.1288 -0.2310
  199POPC   GL1 2932   2.049   5.542   3.826 -0.0957 -0.1141  0.0092
  199POPC   GL2 2933   1.804   5.484   3.987  0.0771  0.2278 -0.0302
  199POPC   C1A 2934   2.231   5.763   4.132 -0.2178  0.0325  0.1547
  199POPC   D2A 2935   2.373   6.193   4.335 -0.1728  0.3464 -0.5037
  199POPC   C3A 2936   2.078   6.362   4.801  0.4267 -0.1688 -0.0008
  199POPC   C4A 2937   2.253   6.332   5.179 -0.2212 -0.1155  0.0921
  199POPC   C1B 2938   1.875   5.559   4.390 -0.1937  0.2001  0.3690
  199POPC   C2B 2939   1.649   5.807   4.745 -0.0070  0.1166  0.2476
  199POPC   C3B 2940   1.748   6.091   5.096 -0.1069  0.1195  0.1832
  199POPC   C4B 2941   1.764   6.073   5.535 -0.2218  0.3538 -0.1841
  200POPC   NC3 2942   6.005   7.044   5.497 -0.1891  0.1650 -0.0647
  200POPC   PO4 2943   6.316   7.082   5.201 -0.3462 -0.2089  0.0039
  200POPC   GL1 2944   6.546   7.147   5.607  0.0752 -0.0904 -0.1524
  200POPC   GL2 2945   6.382   6.992   5.857 -0.0205  0.1944 -0.0713
  200POPC   C1A 2946   6.626   7.394   5.939  0.1104 -0.0620  0.0252
  200POPC   D2A 2947   6.972   7.728   6.163  0.1408  0.0322  0.3188
  200POPC   C3A 2948   7.146   8.017   5.975  0.1445  0.2503 -0.2045
  200POPC   C4A 2949   7.291   8.352   6.035  0.1805  0.1951  0.1115
  200POPC   C1B 2950   6.100   6.733   6.142 -0.2307  0.0222 -0.1931
  200POPC   C2B 2951   6.259   6.381   6.406  0.2018 -0.3189 -0.0428
  200POPC   C3B 2952   6.464   6.179   6.715 -0.1471 -0.3215 -0.0974
  200POPC   C4B 2953   6.645   6.301   7.118 -0.3112  0.3247  0.0167
  201POPC   NC3 2954   3.152   2.620   4.644 -0.1266  0.1277 -0.2074
  201POPC   PO4 2955   3.466   2.246   4.662  0.3319  0.1420 -0.0923
  201POPC   GL1 2956   3.518   2.445   5.088  0.4123 -0.0357 -0.1463
  201POPC   GL2 2957   3.153   2.578   5.231 -0.1970  0.0131 -0.1731
  201POPC   C1A 2958   3.592   2.501   5.500 -0.0150 -0.0769  0.1889
  201POPC   D2A 2959   3.564   2.439   5.891 -0.1198  0.1248 -0.0845
  201POPC   C3A 2960   3.694   2.246   6.280  0.0586  0.2382 -0.1160
  201POPC   C4A 2961   3.598   1.909   6.421 -0.0904 -0.1027 -0.0005
  201POPC   C1B 2962   2.908   2.428   5.566 -0.0955 -0.0679 -0.0295
  201POPC   C2B 2963   3.085   2.284   5.964  0.0811 -0.4356  0.3072
  201POPC   C3B 2964   3.137   1.994   6.278  0.2814 -0.2404  0.2807
  201POPC   C4B 2965   3.000   1.830   6.727 -0.0828 -0.0384  0.0524
  202POPC   NC3 2966   7.564   4.959   5.096 -0.1530 -0.0255  0.1369
  202POPC   PO4 2967   7.726   4.617   5.261  0.2167 -0.1096 -0.0917
  202POPC   GL1 2968   7.900   4.498   5.645 -0.0636 -0.0055  0.0326
  202POPC   GL2 2969   7.601   4.611   5.791 -0.0478  0.4043 -0.0638
  202POPC   C1A 2970   8.228   4.354   5.875  0.0635  0.0748  0.2079
  202POPC   D2A 2971   8.401   4.011   6.090 -0.3647  0.2931 -0.0926
  202POPC   C3A 2972   8.387   3.867   6.596  0.1902 -0.1946  0.0252
  202POPC   C4A 2973   8.596   3.753   6.897 -0.1225  0.0101 -0.2443
  202POPC   C1B 2974   7.774   4.234   6.086 -0.2268 -0.1037  0.1900
  202POPC   C2B 2975   7.926   3.984   6.352  0.2362 -0.1582  0.0807
  202POPC   C3B 2976   7.730   3.709   6.589 -0.1970 -0.0088 -0.2754
  202POPC   C4B 2977   7.687   3.643   7.041  0.3259 -0.0693 -0.2369
  203POPC   NC3 2978   1.280   3.635   4.066 -0.2164  0.0110 -0.2185
  203POPC   PO4 2979   1.014   3.144   4.022  0.2062  0.2710  0.0924
  203POPC   GL1 2980   1.126   3.258   4.388 -0.0226  0.0393  0.0705
  203POPC   GL2 2981   1.476   2.981   4.471 -0.1347  0.0094  0.1086
  203POPC   C1A 2982   0.992   3.171   4.812  0.0370 -0.0672  0.1930
  203POPC   D2A 2983   1.027   3.146   5.242 -0.1744 -0.2238  0.1529
  203POPC   C3A 2984   1.188   2.711   5.358 -0.1766 -0.0433  0.0781
  203POPC   C4A 2985   1.637   2.577   5.291 -0.2172  0.1861  0.1217
  203POPC   C1B 2986   1.770   2.736   4.706  0.0349 -0.0189 -0.1596
  203POPC   C2B 2987   2.002   2.558   4.931 -0.3425 -0.1065  0.0249
  203POPC   C3B 2988   2.422   2.583   5.145  0.0748  0.5422 -0.3209
  203POPC   C4B 2989   2.705   2.827   5.232 -0.4293  0.0238  0.1200
  204POPC   NC3 2990   6.781   0.263   5.203 -0.0865 -0.0156  0.5570
  204POPC   PO4 2991   6.434   0.085   5.381 -0.0058  0.2156 -0.0741
  204POPC   GL1 2992   6.239   0.125   5.762 -0.0328 -0.2906  0.2790
  204POPC   GL2 2993   5.980  -0.229   5.795 -0.0844 -0.4221 -0.0849
  204POPC   C1A 2994   6.191   0.375   6.059 -0.1755 -0.0546  0.1988
  204POPC   D2A 2995   6.247   0.548   6.426 -0.2773  0.0167  0.2166
  204POPC   C3A 2996   6.372   0.520   6.844  0.0190 -0.2560 -0.0900
  204POPC   C4A 2997   6.781   0.689   6.899 -0.3422 -0.2966 -0.4723
  204POPC   C1B 2998   5.894  -0.001   6.207 -0.1139  0.1990 -0.1007
  204POPC   C2B 2999   5.853   0.253   6.495 -0.0011 -0.1079  0.2556
  204POPC   C3B 3000   5.859   0.470   6.830 -0.0283  0.0041 -0.2740
  204POPC   C4B 3001   5.999   0.583   7.224  0.2011 -0.6281  0.3083
  205POPC   NC3 3002   6.129   9.056   5.483 -0.2438  0.1384  0.0790
  205POPC   PO4 3003   5.805   9.377   5.404  0.1536 -0.3648  0.1345
  205POPC   GL1 3004   5.790   9.283   5.878  0.3253  0.2837  0.2779
  205POPC   GL2 3005   6.033   9.101   5.963 -0.0235 -0.1925  0.1149
  205POPC   C1A 3006   5.602   9.695   6.154 -0.0950  0.2956  0.0158
  205POPC   D2A 3007   5.555   9.891   6.457 -0.2282 -0.1404  0.0674
  205POPC   C3A 3008   5.327   9.871   6.788 -0.2357  0.0091  0.0747
  205POPC   C4A 3009   5.265  10.273   6.971 -0.0447 -0.2669  0.0390
  205POPC   C1B 3010   5.711   9.257   6.389  0.3983  0.1546  0.1282
  205POPC   C2B 3011   5.668   9.500   6.701  0.1866  0.0213 -0.0053
  205POPC   C3B 3012   5.607   9.692   7.159  0.0828  0.0089  0.0709
  205POPC   C4B 3013   5.813   9.980   7.349  0.2280 -0.0696  0.0637
  206POPC   NC3 3014   9.037   1.844   5.089 -0.1946 -0.0835  0.2645
  206POPC   PO4 3015   9.045   2.304   4.988  0.0021  0.1269  0.2020
  206POPC   GL1 3016   8.876   2.277   5.371 -0.1849  0.0720  0.1364
  206POPC   GL2 3017   8.561   2.336   5.452  0.2068 -0.2716 -0.1886
  206POPC   C1A 3018   9.066   2.507   5.649 -0.3240 -0.1387  0.1266
  206POPC   D2A 3019   9.110   2.835   5.826  0.0783  0.0294  0.0182
  206POPC   C3A 3020   9.215   2.734   6.336  0.1417 -0.0038  0.2786
  206POPC   C4A 3021   9.205   2.443   6.695 -0.0963  0.1022  0.0331
  206POPC   C1B 3022   8.605   2.738   5.633 -0.1481  0.0759 -0.0382
  206POPC   C2B 3023   8.678   2.884   6.018  0.1651 -0.0014 -0.4655
  206POPC   C3B 3024   8.352   2.941   6.354 -0.1157  0.2772 -0.3297
  206POPC   C4B 3025   8.195   2.943   6.788  0.3453 -0.0354 -0.2528
  207POPC   NC3 3026   9.754   9.489   5.628  0.3043 -0.0119 -0.0687
  207POPC   PO4 3027  10.171   9.373   5.531  0.1448  0.1431 -0.1010
  207POPC   GL1 3028  10.132   9.394   5.875  0.1875 -0.2316  0.1446
  207POPC   GL2 3029   9.846   9.253   6.042  0.1661 -0.3120 -0.0704
  207POPC   C1A 3030  10.278   9.372   6.324  0.0181 -0.2567  0.0794
  207POPC   D2A 3031  10.524   9.010   6.436 -0.1801 -0.1091 -0.0733
  207POPC   C3A 3032  10.694   8.986   6.821 -0.0626  0.0434 -0.0258
  207POPC   C4A 3033  10.577   8.818   7.294 -0.0433  0.1370 -0.2619
  207POPC   C1B 3034   9.994   9.000   6.322 -0.2790  0.0955 -0.2155
  207POPC   C2B 3035  10.023   8.993   6.787  0.3241  0.0152 -0.3689
  207POPC   C3B 3036   9.770   9.105   7.140  0.1473  0.0255 -0.0327
  207POPC   C4B 3037   9.266   9.048   7.295  0.2459 -0.2322 -0.0106
  208POPC   NC3 3038   3.394   7.093   4.184 -0.0535  0.1961  0.0316
  208POPC   PO4 3039   3.674   7.277   4.519  0.1149 -0.0252 -0.2092
  208POPC   GL1 3040   3.557   7.175   4.979  0.0850  0.2520 -0.2864
  208POPC   GL2 3041   3.309   7.233   5.123  0.1145  0.4236  0.2328
  208POPC   C1A 3042   3.513   7.099   5.549 -0.3095 -0.1220  0.0202
  208POPC   D2A 3043   3.393   6.831   5.801  0.0573 -0.3268 -0.1183
  208POPC   C3A 3044   3.358   6.574   6.135 -0.2389 -0.1889  0.5189
  208POPC   C4A 3045   3.531   6.809   6.538  0.0044  0.3081 -0.0543
  208POPC   C1B 3046   3.504   6.711   5.201 -0.1970 -0.0180  0.0384
  208POPC   C2B 3047   3.354   6.235   5.267  0.1465 -0.0182 -0.1949
  208POPC   C3B 3048   3.214   5.848   5.403 -0.0991  0.1481 -0.1218
  208POPC   C4B 3049   3.242   5.434   5.347  0.2034 -0.0113  0.1631
  209POPC   NC3 3050   5.060   9.606   5.217 -0.0392 -0.2056  0.0940
  209POPC   PO4 3051   4.654   9.396   5.072 -0.0933  0.3579 -0.1669
  209POPC   GL1 3052   4.491   9.369   5.516 -0.0845  0.1361  0.0091
  209POPC   GL2 3053   4.758   9.579   5.616 -0.1006 -0.3448 -0.2392
  209POPC   C1A 3054   4.268   9.395   5.889 -0.1730  0.0418  0.1588
  209POPC   D2A 3055   3.852   9.299   5.800  0.1230 -0.0499 -0.0895
  209POPC   C3A 3056   3.620   9.104   6.061  0.0027 -0.0979  0.0933
  209POPC   C4A 3057   3.406   8.756   6.228 -0.0116 -0.0197 -0.0703
  209POPC   C1B 3058   4.989   9.730   6.025 -0.1842  0.0756  0.0184
  209POPC   C2B 3059   5.157   9.556   6.423  0.0602  0.0622 -0.0711
  209POPC   C3B 3060   5.252   9.232   6.718 -0.1047 -0.2999 -0.1781
  209POPC   C4B 3061   5.570   9.047   6.979  0.5282  0.0138  0.3194
  210POPC   NC3 3062   6.976   0.749   4.578  0.1378 -0.1771  0.0307
  210POPC   PO4 3063   6.804   0.683   4.944 -0.1298 -0.1777  0.0554
  210POPC   GL1 3064   6.661   0.688   5.423  0.0025 -0.0076 -0.1288
  210POPC   GL2 3065   6.949   0.522   5.587 -0.0016  0.0575  0.0972
  210POPC   C1A 3066   6.533   0.778   5.813 -0.1193 -0.0036  0.1249
  210POPC   D2A 3067   6.680   0.782   6.269  0.0274  0.2043  0.1991
  210POPC   C3A 3068   6.588   1.066   6.683  0.0331 -0.0460  0.0941
  210POPC   C4A 3069   6.659   1.187   7.042 -0.0004  0.3462  0.1755
  210POPC   C1B 3070   6.674   0.299   5.965 -0.0257  0.1199 -0.1860
  210POPC   C2B 3071   6.726   0.323   6.350  0.1280 -0.0683  0.0234
  210POPC   C3B 3072   7.063   0.453   6.628 -0.2555 -0.0869  0.0157
  210POPC   C4B 3073   7.385   0.329   6.814 -0.3744  0.0632  0.1037
  211POPC   NC3 3074   3.096   5.959   3.509  0.1813 -0.3124 -0.1681
  211POPC   PO4 3075   3.515   6.195   3.657  0.0186 -0.1865  0.0120
  211POPC   GL1 3076   3.541   6.166   4.056 -0.2572 -0.0056  0.3024
  211POPC   GL2 3077   3.818   6.164   4.142  0.1419  0.1022  0.1204
  211POPC   C1A 3078   3.470   6.194   4.475 -0.1070 -0.3407  0.2960
  211POPC   D2A 3079   3.699   6.399   4.783 -0.2575  0.4520 -0.1697
  211POPC   C3A 3080   3.864   6.362   5.134  0.2422  0.2778  0.2941
  211POPC   C4A 3081   4.164   6.185   5.407 -0.2485 -0.1917  0.1180
  211POPC   C1B 3082   3.951   5.991   4.608 -0.1572  0.1547  0.3018
  211POPC   C2B 3083   3.978   5.896   4.987 -0.1410 -0.0616  0.1768
  211POPC   C3B 3084   4.091   5.693   5.323 -0.0651  0.1234  0.0919
  211POPC   C4B 3085   4.167   5.298   5.479 -0.0399 -0.1315  0.0378
  212POPC   NC3 3086   1.039   2.420   3.980 -0.1677  0.1706  0.2812
  212POPC   PO4 3087   0.926   2.146   4.365 -0.2963 -0.1065  0.2424
  212POPC   GL1 3088   1.129   2.319   4.717 -0.0013 -0.2968  0.2850
  212POPC   GL2 3089   1.530   2.233   4.935 -0.1626  0.2623 -0.1131
  212POPC   C1A 3090   1.321   2.690   4.889 -0.0681 -0.2369 -0.1391
  212POPC   D2A 3091   1.436   3.090   4.984 -0.1230  0.1267 -0.1328
  212POPC   C3A 3092   1.766   3.061   5.352 -0.0139 -0.3375  0.0529
  212POPC   C4A 3093   2.136   2.844   5.493 -0.4754 -0.0166  0.1386
  212POPC   C1B 3094   1.411   2.062   5.321 -0.4097 -0.2463  0.3795
  212POPC   C2B 3095   1.726   2.014   5.609  0.0656  0.0696  0.0144
  212POPC   C3B 3096   2.061   2.017   5.903 -0.1592  0.1081 -0.3724
  212POPC   C4B 3097   2.127   1.802   6.291 -0.0277 -0.0977  0.2015
  213POPC   NC3 3098   7.177   5.803   5.202  0.1163 -0.1696 -0.1639
  213POPC   PO4 3099   7.556   6.077   5.280 -0.0660  0.1449 -0.3528
  213POPC   GL1 3100   7.692   6.055   5.667 -0.1785 -0.0021  0.1702
  213POPC   GL2 3101   7.818   6.281   5.818  0.1095 -0.0642 -0.0810
  213POPC   C1A 3102   7.734   6.000   6.148  0.0292  0.0481  0.0883
  213POPC   D2A 3103   8.040   5.963   6.419  0.1232  0.1231 -0.1451
  213POPC   C3A 3104   7.886   6.076   6.712 -0.2253 -0.3171 -0.1866
  213POPC   C4A 3105   7.715   6.262   7.127  0.4076 -0.1061 -0.1394
  213POPC   C1B 3106   8.214   6.141   6.016  0.5218 -0.2216 -0.0037
  213POPC   C2B 3107   8.595   6.092   6.231  0.0132 -0.0309  0.0099
  213POPC   C3B 3108   8.996   6.015   6.284  0.2016  0.1273 -0.2057
  213POPC   C4B 3109   9.462   6.077   6.146 -0.0340 -0.0723  0.3423
  214POPC   NC3 3110   2.419   9.265   5.495 -0.0985  0.0968 -0.0245
  214POPC   PO4 3111   2.067   9.494   5.672 -0.2948 -0.1384 -0.0629
  214POPC   GL1 3112   1.968   9.381   6.032  0.0562 -0.0805  0.3280
  214POPC   GL2 3113   2.089   9.202   6.133 -0.0849 -0.0569  0.0123
  214POPC   C1A 3114   1.657   9.386   6.403 -0.0824 -0.0649 -0.2606
  214POPC   D2A 3115   1.503   9.086   6.738  0.0480 -0.1508  0.1792
  214POPC   C3A 3116   1.124   8.937   6.730  0.1094  0.0104 -0.2666
  214POPC   C4A 3117   0.970   8.476   6.666 -0.0369  0.0244  0.3198
  214POPC   C1B 3118   2.002   9.025   6.482 -0.2874 -0.0076  0.1539
  214POPC   C2B 3119   1.941   8.793   6.874  0.0644  0.0277  0.1773
  214POPC   C3B 3120   2.143   8.530   7.176 -0.3012 -0.0154 -0.0548
  214POPC   C4B 3121   2.487   8.226   7.167 -0.0888 -0.2948  0.0213
  215POPC   NC3 3122   3.948   0.429   5.362 -0.1188 -0.0569 -0.1455
  215POPC   PO4 3123   3.636   0.146   5.125 -0.0912  0.0702 -0.1149
  215POPC   GL1 3124   3.478   0.035   5.480  0.0500 -0.0139 -0.2021
  215POPC   GL2 3125   3.504   0.384   5.681 -0.1893  0.1255  0.1294
  215POPC   C1A 3126   3.446  -0.128   5.875  0.0326 -0.0642 -0.3327
  215POPC   D2A 3127   3.432  -0.083   6.298  0.2919 -0.0101 -0.3701
  215POPC   C3A 3128   3.406  -0.229   6.654 -0.2405 -0.1698 -0.0914
  215POPC   C4A 3129   3.616  -0.275   6.937 -0.3501 -0.0184 -0.2332
  215POPC   C1B 3130   3.413   0.413   6.081 -0.1445  0.0964 -0.0116
  215POPC   C2B 3131   3.026   0.227   6.303  0.5572  0.1317  0.1940
  215POPC   C3B 3132   2.674   0.194   6.591 -0.1490 -0.3298  0.1628
  215POPC   C4B 3133   2.457   0.178   6.941 -0.1613 -0.0885  0.0312
  216POPC   NC3 3134  10.178   1.545   5.026  0.1697 -0.1161 -0.0253
  216POPC   PO4 3135  10.443   1.351   5.314 -0.3306 -0.1128  0.1373
  216POPC   GL1 3136  10.655   1.314   5.697  0.5190  0.1912  0.2668
  216POPC   GL2 3137  10.688   1.237   6.100  0.2299 -0.2648 -0.1260
  216POPC   C1A 3138  11.072   1.548   5.887  0.1556  0.0601 -0.0231
  216POPC   D2A 3139  11.328   1.908   6.204 -0.1160 -0.2220 -0.0236
  216POPC   C3A 3140  11.610   2.024   6.554  0.0534 -0.4902  0.0336
  216POPC   C4A 3141  11.718   2.028   6.932  0.0390 -0.2302 -0.0519
  216POPC   C1B 3142  10.532   1.096   6.408  0.1770  0.1452  0.1875
  216POPC   C2B 3143  10.232   0.709   6.588  0.2735 -0.1690 -0.4205
  216POPC   C3B 3144  10.362   0.283   6.861 -0.2147  0.0706  0.4485
  216POPC   C4B 3145  10.524   0.125   7.136  0.1486  0.0219 -0.0632
  217POPC   NC3 3146   9.640   5.578   5.056 -0.1053 -0.1520  0.1095
  217POPC   PO4 3147   9.408   5.417   5.350 -0.0490 -0.0227 -0.1386
  217POPC   GL1 3148   9.373   5.183   5.706  0.1541  0.0902  0.3801
  217POPC   GL2 3149   9.216   4.867   5.607  0.1219  0.6612  0.1589
  217POPC   C1A 3150   9.336   5.146   6.160  0.0927 -0.0351 -0.0561
  217POPC   D2A 3151   9.604   5.070   6.469  0.0097  0.1432  0.0813
  217POPC   C3A 3152   9.708   5.315   6.825 -0.0934 -0.2051  0.1292
  217POPC   C4A 3153  10.012   5.695   6.972 -0.1115 -0.1255  0.0051
  217POPC   C1B 3154   9.058   4.541   5.894 -0.2970 -0.2030  0.1261
  217POPC   C2B 3155   8.731   4.491   6.200  0.1623 -0.0581  0.1106
  217POPC   C3B 3156   8.493   4.706   6.520 -0.1598  0.0050 -0.2526
  217POPC   C4B 3157   8.798   4.956   6.912  0.3341 -0.0921 -0.1785
  218POPC   NC3 3158   4.141   4.130   4.277  0.0842 -0.1973  0.0871
  218POPC   PO4 3159   4.408   3.795   4.495 -0.0428 -0.1500  0.0721
  218POPC   GL1 3160   4.511   3.935   4.892 -0.0273 -0.0724 -0.1884
  218POPC   GL2 3161   4.314   3.930   4.978 -0.0152 -0.3902  0.0587
  218POPC   C1A 3162   4.555   3.694   5.359 -0.2399 -0.0278 -0.0647
  218POPC   D2A 3163   4.600   3.661   5.873  0.1550  0.0353  0.1934
  218POPC   C3A 3164   4.744   3.427   6.167 -0.5069 -0.0353  0.1678
  218POPC   C4A 3165   4.589   3.451   6.511  0.1532 -0.2289 -0.1588
  218POPC   C1B 3166   4.119   3.980   5.345  0.0195 -0.2213  0.1770
  218POPC   C2B 3167   4.086   3.860   5.816 -0.0711 -0.1276 -0.0046
  218POPC   C3B 3168   4.182   3.909   6.219  0.0575  0.2074  0.1373
  218POPC   C4B 3169   4.593   3.941   6.309 -0.2976 -0.2263  0.0252
  219POPC   NC3 3170   3.220   9.150   5.429 -0.2106  0.2351  0.0503
  219POPC   PO4 3171   2.917   9.229   5.577  0.0394 -0.2430  0.1783
  219POPC   GL1 3172   3.011   9.421   5.964  0.0512 -0.0638 -0.0437
  219POPC   GL2 3173   3.346   9.406   5.852  0.0214  0.0230 -0.2266
  219POPC   C1A 3174   3.135   9.346   6.375  0.1849  0.1885 -0.1544
  219POPC   D2A 3175   3.533   9.136   6.637  0.2067 -0.0675  0.0218
  219POPC   C3A 3176   3.633   9.152   7.104  0.2874 -0.4818 -0.1897
  219POPC   C4A 3177   3.743   9.308   7.507  0.2591  0.1908 -0.0173
  219POPC   C1B 3178   3.473   9.649   6.134  0.4089 -0.0203 -0.0676
  219POPC   C2B 3179   3.596   9.572   6.438 -0.0600  0.0441  0.4397
  219POPC   C3B 3180   3.886   9.456   6.790 -0.0285  0.0089  0.2207
  219POPC   C4B 3181   3.931   9.594   7.180 -0.0898 -0.1315  0.2776
  220POPC   NC3 3182   0.545   2.475   4.509 -0.0875  0.0357 -0.1962
  220POPC   PO4 3183   0.646   2.242   4.887 -0.2510  0.2948 -0.3248
  220POPC   GL1 3184   0.426   2.136   5.343  0.1230 -0.0902  0.0396
  220POPC   GL2 3185   0.308   1.826   5.483  0.0281 -0.1547 -0.0509
  220POPC   C1A 3186   0.665   2.133   5.816 -0.2414  0.0662  0.0231
  220POPC   D2A 3187   0.855   2.262   6.325 -0.1241 -0.1428  0.0377
  220POPC   C3A 3188   0.641   2.512   6.572 -0.0963  0.0954  0.0248
  220POPC   C4A 3189   0.275   2.682   6.849 -0.0099 -0.4045 -0.1437
  220POPC   C1B 3190   0.090   2.053   5.761  0.1266 -0.2807  0.1950
  220POPC   C2B 3191  -0.191   2.297   6.178 -0.1702  0.0757  0.0477
  220POPC   C3B 3192  -0.601   2.252   6.417  0.1255 -0.1075  0.0184
  220POPC   C4B 3193  -0.518   2.275   6.810  0.1126  0.0403 -0.0570
  221POPC   NC3 3194   8.855   7.970   5.503 -0.5360  0.2809  0.0716
  221POPC   PO4 3195   9.019   8.268   5.352 -0.0295  0.0224  0.0210
  221POPC   GL1 3196   9.226   8.175   5.747  0.0092  0.1546  0.0831
  221POPC   GL2 3197   9.514   8.018   5.741  0.1892  0.0881  0.2392
  221POPC   C1A 3198   9.371   8.259   6.182 -0.0044  0.0684 -0.0177
  221POPC   D2A 3199   9.388   8.416   6.657 -0.2993 -0.2129 -0.1525
  221POPC   C3A 3200   9.782   8.595   6.611 -0.2078  0.1892  0.1115
  221POPC   C4A 3201  10.223   8.546   6.411  0.1808 -0.0587 -0.1317
  221POPC   C1B 3202   9.439   7.755   6.000 -0.2706 -0.0207 -0.2223
  221POPC   C2B 3203   9.442   7.390   6.265  0.0188  0.1208  0.0461
  221POPC   C3B 3204   9.780   7.167   6.342  0.0039  0.4490 -0.2761
  221POPC   C4B 3205  10.139   7.122   6.362 -0.2018  0.1681 -0.0539
  222POPC   NC3 3206   1.545   1.523   3.843 -0.0765 -0.0466 -0.4885
  222POPC   PO4 3207   1.821   1.586   4.266 -0.1524  0.0287  0.1189
  222POPC   GL1 3208   1.892   1.789   4.628 -0.3350  0.3000 -0.0697
  222POPC   GL2 3209   1.982   1.524   4.834  0.1308 -0.1482  0.3362
  222POPC   C1A 3210   1.884   1.924   5.052  0.1281  0.1718 -0.1130
  222POPC   D2A 3211   2.043   2.293   5.366 -0.1036 -0.0154  0.0816
  222POPC   C3A 3212   1.870   2.487   5.756  0.1115  0.0820  0.1636
  222POPC   C4A 3213   1.551   2.791   5.833 -0.0778 -0.1745  0.1434
  222POPC   C1B 3214   2.273   1.582   4.995 -0.0564 -0.0712 -0.0744
  222POPC   C2B 3215   2.487   1.788   5.213  0.3722 -0.1700 -0.0851
  222POPC   C3B 3216   2.455   2.135   5.539 -0.2551 -0.0983  0.0170
  222POPC   C4B 3217   2.460   2.460   5.895  0.1740 -0.0381 -0.0836
  223POPC   NC3 3218   0.054   3.891   4.177 -0.2738 -0.2048 -0.0887
  223POPC   PO4 3219  -0.004   3.926   4.560  0.1086  0.1770 -0.0679
  223POPC   GL1 3220   0.136   3.690   4.880 -0.3362 -0.1665 -0.2406
  223POPC   GL2 3221  -0.103   3.589   5.006 -0.2318  0.3566 -0.0767
  223POPC   C1A 3222   0.211   3.522   5.342  0.0663 -0.1818  0.3810
  223POPC   D2A 3223   0.155   3.611   5.749  0.2497  0.1285  0.0710
  223POPC   C3A 3224   0.377   3.968   5.671  0.1905 -0.0885 -0.0764
  223POPC   C4A 3225   0.368   4.336   5.914 -0.1814  0.3072  0.1027
  223POPC   C1B 3226  -0.315   3.363   5.342  0.1392  0.1343  0.0211
  223POPC   C2B 3227  -0.437   2.953   5.366  0.1559 -0.1496 -0.1713
  223POPC   C3B 3228  -0.567   2.870   5.707 -0.0586  0.0800 -0.1299
  223POPC   C4B 3229  -0.589   2.593   5.962 -0.0615  0.0198 -0.1325
  224POPC   NC3 3230   9.385   4.250   4.796 -0.2180 -0.0648 -0.0202
  224POPC   PO4 3231   9.607   3.902   4.646  0.1191  0.1135  0.2350
  224POPC   GL1 3232   9.860   4.117   5.035  0.1525 -0.1586  0.0822
  224POPC   GL2 3233   9.611   4.002   5.303 -0.1160 -0.2810 -0.0160
  224POPC   C1A 3234  10.118   3.984   5.317 -0.0875 -0.0756  0.1758
  224POPC   D2A 3235  10.110   4.234   5.624  0.0433 -0.1711  0.4157
  224POPC   C3A 3236   9.990   4.507   5.842 -0.2826  0.0521  0.0605
  224POPC   C4A 3237   9.620   4.780   5.924  0.1139  0.0299  0.3326
  224POPC   C1B 3238   9.709   3.897   5.610 -0.0658  0.2263  0.0364
  224POPC   C2B 3239  10.014   3.983   6.047  0.4668 -0.0385  0.2863
  224POPC   C3B 3240  10.385   3.892   6.200  0.1087  0.0293  0.2413
  224POPC   C4B 3241  10.806   3.820   6.116  0.2228 -0.0747  0.1255
  225POPC   NC3 3242   6.005   5.861   4.546 -0.1111 -0.1326  0.2301
  225POPC   PO4 3243   6.273   5.673   4.896  0.0233 -0.3148 -0.2600
  225POPC   GL1 3244   5.967   5.751   5.204 -0.1082 -0.2620 -0.1679
  225POPC   GL2 3245   6.005   5.880   5.383 -0.0005 -0.0048  0.0520
  225POPC   C1A 3246   5.847   5.413   5.357  0.0811  0.0779 -0.0676
  225POPC   D2A 3247   5.959   5.333   5.831 -0.0333  0.1919  0.3338
  225POPC   C3A 3248   5.512   5.241   6.090 -0.1476  0.1763  0.3021
  225POPC   C4A 3249   5.258   5.516   6.378 -0.0636 -0.2615 -0.1565
  225POPC   C1B 3250   5.842   5.864   5.798  0.1082  0.0984  0.2558
  225POPC   C2B 3251   5.832   5.630   6.124  0.2614  0.1187 -0.2565
  225POPC   C3B 3252   5.784   5.457   6.516  0.2168 -0.0302 -0.0739
  225POPC   C4B 3253   5.917   5.473   6.964 -0.1319  0.0821  0.2280
  226POPC   NC3 3254   4.772   5.511   4.470  0.0093 -0.2214  0.2013
  226POPC   PO4 3255   4.999   5.203   4.594 -0.1250 -0.1010 -0.1799
  226POPC   GL1 3256   4.852   5.076   5.017 -0.2243 -0.1553 -0.0319
  226POPC   GL2 3257   4.905   4.677   5.168 -0.0475 -0.0640 -0.2462
  226POPC   C1A 3258   4.480   5.003   5.267  0.1580 -0.1883  0.0472
  226POPC   D2A 3259   4.196   4.755   5.528 -0.2761 -0.1542 -0.4311
  226POPC   C3A 3260   4.072   4.925   5.883 -0.1701 -0.1173 -0.0307
  226POPC   C4A 3261   4.111   5.388   5.979  0.0958 -0.3479 -0.2826
  226POPC   C1B 3262   5.115   4.984   5.481 -0.0133  0.0765  0.0581
  226POPC   C2B 3263   5.159   4.876   5.874  0.1686 -0.0883  0.0657
  226POPC   C3B 3264   5.338   4.552   6.081 -0.0441  0.0084 -0.1983
  226POPC   C4B 3265   5.374   4.576   6.504  0.1305 -0.0061  0.0302
  227POPC   NC3 3266   6.239   0.805   4.773  0.2780 -0.0142  0.1872
  227POPC   PO4 3267   6.300   0.620   5.096 -0.1657  0.1148  0.3163
  227POPC   GL1 3268   6.039   0.850   5.388  0.2070  0.2388 -0.0468
  227POPC   GL2 3269   5.975   0.689   5.705 -0.1513 -0.2375  0.2939
  227POPC   C1A 3270   6.263   1.184   5.664 -0.1209 -0.3392  0.5184
  227POPC   D2A 3271   6.319   1.268   6.043  0.0372 -0.0857 -0.2354
  227POPC   C3A 3272   6.206   0.995   6.346 -0.1819  0.0171 -0.2783
  227POPC   C4A 3273   6.113   0.920   6.746 -0.4573 -0.0856 -0.0569
  227POPC   C1B 3274   5.822   0.718   6.103  0.2245 -0.0021  0.0964
  227POPC   C2B 3275   5.655   0.780   6.494 -0.1358  0.3028 -0.0826
  227POPC   C3B 3276   5.633   0.887   7.057  0.0753 -0.0822 -0.0575
  227POPC   C4B 3277   5.366   0.762   7.383  0.1656  0.1129  0.3735
  228POPC   NC3 3278   5.053   5.954   4.382 -0.4209 -0.0814  0.0785
  228POPC   PO4 3279   4.684   6.089   4.537 -0.0711 -0.0970  0.3365
  228POPC   GL1 3280   4.588   6.065   4.883  0.0180 -0.0512 -0.2444
  228POPC   GL2 3281   4.604   6.335   5.083  0.1148  0.0231 -0.0910
  228POPC   C1A 3282   4.515   5.869   5.345  0.2610 -0.2258  0.1592
  228POPC   D2A 3283   4.496   5.689   5.715  0.1098 -0.2250 -0.0022
  228POPC   C3A 3284   4.163   5.862   5.895  0.0100  0.1587 -0.0985
  228POPC   C4A 3285   4.180   6.169   6.105  0.0368  0.0834  0.3956
  228POPC   C1B 3286   4.956   6.096   5.247  0.0127 -0.1027  0.2868
  228POPC   C2B 3287   4.997   5.861   5.612  0.0524 -0.1481  0.3169
  228POPC   C3B 3288   4.964   5.386   5.802 -0.5311 -0.0952 -0.2628
  228POPC   C4B 3289   4.906   5.162   6.247 -0.0544 -0.0697  0.1740
  229POPC   NC3 3290   7.903   3.005   4.964 -0.0715 -0.1672 -0.3001
  229POPC   PO4 3291   7.791   2.692   5.208 -0.0564 -0.0988  0.0668
  229POPC   GL1 3292   7.972   2.546   5.592  0.0428  0.0380 -0.0733
  229POPC   GL2 3293   7.782   2.265   5.671  0.2331  0.0181 -0.0452
  229POPC   C1A 3294   8.207   2.587   6.012 -0.1507 -0.1649 -0.3439
  229POPC   D2A 3295   8.195   2.441   6.585  0.0308 -0.1424  0.0027
  229POPC   C3A 3296   8.126   2.471   6.999  0.0150 -0.4127  0.2804
  229POPC   C4A 3297   8.009   2.495   7.404 -0.0944  0.1919  0.3468
  229POPC   C1B 3298   7.882   2.279   6.116  0.1192 -0.0320 -0.3018
  229POPC   C2B 3299   7.816   2.102   6.549 -0.1678  0.0300 -0.0447
  229POPC   C3B 3300   7.809   1.924   6.935 -0.1772  0.0411 -0.1531
  229POPC   C4B 3301   8.107   1.632   7.199  0.0937 -0.1512 -0.2438
  230POPC   NC3 3302   2.784   3.975   3.547  0.2090  0.0800  0.1039
  230POPC   PO4 3303   2.742   3.525   3.574  0.0696  0.3138  0.0595
  230POPC   GL1 3304   2.446   3.747   3.806 -0.1636 -0.0886 -0.1649
  230POPC   GL2 3305   2.306   3.996   3.768  0.1488  0.1586  0.3382
  230POPC   C1A 3306   2.552   3.853   4.302 -0.0664  0.0877  0.2224
  230POPC   D2A 3307   2.888   3.906   4.492  0.2455 -0.0534 -0.0012
  230POPC   C3A 3308   3.021   4.227   4.727 -0.0514  0.0797 -0.2137
  230POPC   C4A 3309   2.772   4.450   5.017 -0.1294 -0.0886 -0.2228
  230POPC   C1B 3310   2.092   4.173   4.104  0.0562  0.3078 -0.0704
  230POPC   C2B 3311   1.975   4.157   4.556  0.1119  0.2444 -0.2281
  230POPC   C3B 3312   1.651   4.054   4.852  0.1269  0.1243  0.1662
  230POPC   C4B 3313   1.659   3.964   5.251 -0.1702  0.1532 -0.2419
  231POPC   NC3 3314   4.607   6.605   4.666 -0.0002 -0.1877 -0.2686
  231POPC   PO4 3315   4.931   6.816   4.890  0.0872  0.0027 -0.0206
  231POPC   GL1 3316   4.833   6.740   5.354 -0.1156 -0.1688  0.2157
  231POPC   GL2 3317   4.784   6.996   5.319 -0.2748 -0.1611 -0.0836
  231POPC   C1A 3318   4.852   6.599   5.737  0.2841 -0.4835  0.0003
  231POPC   D2A 3319   4.842   6.887   6.187 -0.0112 -0.1566  0.1732
  231POPC   C3A 3320   5.055   7.021   6.560 -0.0388  0.0587  0.2912
  231POPC   C4A 3321   5.378   7.317   6.774 -0.0986 -0.0182 -0.0209
  231POPC   C1B 3322   4.506   6.996   5.732  0.0031  0.0636 -0.3986
  231POPC   C2B 3323   4.294   6.907   6.101 -0.0704  0.0697  0.0875
  231POPC   C3B 3324   4.067   6.984   6.493 -0.3365 -0.0872  0.2522
  231POPC   C4B 3325   3.957   7.206   6.899  0.2626 -0.1382 -0.1251
  232POPC   NC3 3326   0.697   8.213   5.563 -0.1395 -0.0678 -0.1773
  232POPC   PO4 3327   0.771   7.833   5.405  0.1127 -0.0704 -0.1624
  232POPC   GL1 3328   0.653   7.781   5.924 -0.0828 -0.2401 -0.3750
  232POPC   GL2 3329   0.299   7.683   5.966  0.1030  0.1126  0.0967
  232POPC   C1A 3330   0.682   7.385   6.204 -0.2171 -0.3245  0.0616
  232POPC   D2A 3331   0.435   7.011   6.440  0.1647  0.1831 -0.0844
  232POPC   C3A 3332   0.553   6.857   6.828  0.1467 -0.3114 -0.4621
  232POPC   C4A 3333   0.701   7.127   7.228  0.2410 -0.1127  0.0735
  232POPC   C1B 3334   0.313   7.564   6.488 -0.1989 -0.0380  0.0278
  232POPC   C2B 3335   0.093   7.266   6.848 -0.2654 -0.4383 -0.1199
  232POPC   C3B 3336  -0.309   7.079   7.068  0.0733 -0.1942 -0.3080
  232POPC   C4B 3337  -0.801   7.204   6.964  0.1060 -0.1070 -0.2184
  233POPC   NC3 3338   0.868   9.988   5.473 -0.1336 -0.1957  0.1427
  233POPC   PO4 3339   0.470   9.659   5.508 -0.5464  0.3091 -0.1054
  233POPC   GL1 3340   0.674   9.570   5.771  0.1601  0.3358  0.0387
  233POPC   GL2 3341   1.014   9.680   5.949  0.0369 -0.3374 -0.1830
  233POPC   C1A 3342   0.656   9.422   6.186 -0.0441 -0.3110  0.2542
  233POPC   D2A 3343   0.614   9.422   6.646  0.0826 -0.0335  0.2893
  233POPC   C3A 3344   0.196   9.452   6.790  0.0866 -0.1156 -0.1609
  233POPC   C4A 3345  -0.100   9.452   7.156  0.0900 -0.0552  0.0800
  233POPC   C1B 3346   0.870  10.106   6.263  0.1910  0.1305  0.0324
  233POPC   C2B 3347   0.527  10.297   6.425  0.0918 -0.1814  0.0650
  233POPC   C3B 3348   0.238  10.441   6.236 -0.0832  0.2503  0.3439
  233POPC   C4B 3349  -0.093  10.613   6.181 -0.0153  0.3751  0.3742
  234POPC   NC3 3350   1.914   0.419   5.042  0.1386  0.1390  0.4021
  234POPC   PO4 3351   1.893   0.775   5.352  0.2228  0.1621 -0.2599
  234POPC   GL1 3352   1.855   0.635   5.805  0.1629  0.2676  0.0116
  234POPC   GL2 3353   1.677   0.283   5.916  0.4107 -0.1653  0.0689
  234POPC   C1A 3354   1.910   0.579   6.275 -0.1079 -0.1025  0.2504
  234POPC   D2A 3355   1.914   0.933   6.658  0.0815 -0.2287  0.0813
  234POPC   C3A 3356   1.759   1.204   7.017  0.0232  0.1571  0.0638
  234POPC   C4A 3357   1.792   1.628   7.065 -0.1256  0.0828 -0.1365
  234POPC   C1B 3358   1.579   0.212   6.293  0.3500  0.0791 -0.0551
  234POPC   C2B 3359   1.631   0.399   6.664 -0.0122  0.0842  0.1408
  234POPC   C3B 3360   1.873   0.510   7.000  0.1316  0.0407 -0.2907
  234POPC   C4B 3361   2.219   0.827   7.162 -0.1229  0.2338  0.1337
  235POPC   NC3 3362   8.781   6.130   4.823  0.1894 -0.1698 -0.3260
  235POPC   PO4 3363   9.127   5.822   4.997  0.0863 -0.1196 -0.1152
  235POPC   GL1 3364   9.348   5.966   5.336  0.2406  0.1180  0.3119
  235POPC   GL2 3365   9.422   6.280   5.592 -0.3264  0.0841  0.1618
  235POPC   C1A 3366   9.159   5.881   5.755  0.0276  0.0227  0.0116
  235POPC   D2A 3367   8.894   5.550   5.994  0.0054 -0.6125  0.2359
  235POPC   C3A 3368   9.085   5.528   6.434 -0.2630 -0.0208  0.0235
  235POPC   C4A 3369   9.204   5.364   6.848  0.1497  0.0102 -0.1007
  235POPC   C1B 3370   9.781   6.419   5.857 -0.0583 -0.1434 -0.0697
  235POPC   C2B 3371   9.680   6.612   6.291  0.1578 -0.0729  0.3323
  235POPC   C3B 3372   9.905   6.741   6.652 -0.0391 -0.1255  0.5462
  235POPC   C4B 3373  10.265   6.801   6.754 -0.2544  0.2526  0.1161
  236POPC   NC3 3374   3.181   3.407   4.306  0.2649  0.1600  0.0522
  236POPC   PO4 3375   3.487   3.284   4.601 -0.0142  0.0857  0.2878
  236POPC   GL1 3376   3.379   3.464   4.974  0.1670  0.3316  0.0218
  236POPC   GL2 3377   3.022   3.514   4.839 -0.0799 -0.0570 -0.1210
  236POPC   C1A 3378   3.604   3.501   5.433 -0.4251  0.0767  0.0458
  236POPC   D2A 3379   3.537   3.480   5.890 -0.1116  0.4314  0.0593
  236POPC   C3A 3380   3.690   3.737   6.239  0.1884  0.1472  0.0605
  236POPC   C4A 3381   3.780   4.171   6.094  0.0256 -0.0361 -0.0336
  236POPC   C1B 3382   2.986   3.360   5.304  0.2253 -0.0333  0.0043
  236POPC   C2B 3383   3.136   3.320   5.635 -0.0870  0.1059  0.0205
  236POPC   C3B 3384   3.185   3.114   6.047  0.0747  0.1621 -0.2548
  236POPC   C4B 3385   3.277   3.327   6.507 -0.1720 -0.3015 -0.0522
  237POPC   NC3 3386   6.508   8.352   5.211  0.1010 -0.4486  0.0429
  237POPC   PO4 3387   6.247   8.588   5.495 -0.2445 -0.1276  0.2599
  237POPC   GL1 3388   6.409   8.719   5.874 -0.0254  0.0016 -0.1201
  237POPC   GL2 3389   6.228   8.453   6.094 -0.3262 -0.1627 -0.1267
  237POPC   C1A 3390   6.809   8.677   6.163  0.2187  0.1806  0.3846
  237POPC   D2A 3391   7.127   8.656   6.400  0.0185  0.0502  0.0576
  237POPC   C3A 3392   7.238   8.436   6.741  0.0098 -0.1045  0.2153
  237POPC   C4A 3393   7.497   8.161   6.964 -0.1377  0.2556 -0.1359
  237POPC   C1B 3394   6.229   8.811   6.397 -0.2045 -0.4461  0.0669
  237POPC   C2B 3395   6.146   9.251   6.575  0.2144 -0.0749 -0.0264
  237POPC   C3B 3396   6.440   9.529   6.736 -0.4484 -0.1442  0.5281
  237POPC   C4B 3397   6.242   9.703   7.086 -0.0768  0.0156  0.1079
  238POPC   NC3 3398   5.252   7.171   5.177 -0.0935 -0.1441  0.2298
  238POPC   PO4 3399   5.610   7.343   5.443  0.2124 -0.0027  0.2224
  238POPC   GL1 3400   5.561   7.314   5.814  0.0933  0.0278 -0.5297
  238POPC   GL2 3401   5.874   7.147   5.982 -0.0562 -0.1239  0.1112
  238POPC   C1A 3402   5.395   7.246   6.209 -0.0918  0.0717 -0.3938
  238POPC   D2A 3403   5.592   6.981   6.439 -0.2146 -0.3093  0.1100
  238POPC   C3A 3404   5.384   6.676   6.707 -0.1571  0.0614 -0.3414
  238POPC   C4A 3405   5.477   6.359   7.007  0.3445  0.3591 -0.0915
  238POPC   C1B 3406   6.263   7.148   6.317 -0.0410 -0.0741  0.0082
  238POPC   C2B 3407   6.784   7.219   6.425 -0.2141  0.1025  0.0274
  238POPC   C3B 3408   6.786   7.056   6.878  0.1867 -0.0159  0.0704
  238POPC   C4B 3409   6.845   6.764   7.169  0.1959 -0.1100  0.3608
  239POPC   NC3 3410   0.956   1.451   4.687  0.0685  0.3423 -0.0113
  239POPC   PO4 3411   0.607   1.210   4.922 -0.1480  0.1504 -0.1357
  239POPC   GL1 3412   0.818   1.305   5.281 -0.3338  0.1299 -0.1147
  239POPC   GL2 3413   0.974   1.149   5.555  0.1779 -0.1451  0.0686
  239POPC   C1A 3414   0.823   1.749   5.446 -0.2847 -0.0061  0.2769
  239POPC   D2A 3415   0.925   2.202   5.309  0.1730 -0.0975  0.0249
  239POPC   C3A 3416   0.890   2.552   5.668  0.0840 -0.2941 -0.1505
  239POPC   C4A 3417   0.896   2.974   5.726 -0.0423  0.3217  0.2600
  239POPC   C1B 3418   1.239   1.200   5.883 -0.0421 -0.1865 -0.1977
  239POPC   C2B 3419   1.485   1.350   6.259 -0.3783  0.2552 -0.1607
  239POPC   C3B 3420   1.814   1.630   6.574  0.6372  0.4074  0.2915
  239POPC   C4B 3421   2.135   1.519   6.733 -0.2603 -0.1814  0.1193
  240POPC   NC3 3422   1.630   9.642   5.440 -0.0469  0.3939 -0.2302
  240POPC   PO4 3423   1.539   9.307   5.785 -0.2456 -0.1033  0.2094
  240POPC   GL1 3424   1.579   8.946   5.988  0.1392  0.0647  0.1913
  240POPC   GL2 3425   1.750   8.600   5.877  0.0320 -0.0643 -0.1105
  240POPC   C1A 3426   1.461   8.813   6.332  0.2452 -0.0468  0.0170
  240POPC   D2A 3427   1.496   8.573   6.658  0.2258 -0.0513  0.1517
  240POPC   C3A 3428   1.838   8.328   6.768  0.1604 -0.2182 -0.2742
  240POPC   C4A 3429   2.250   8.177   6.573  0.0009 -0.0546 -0.1096
  240POPC   C1B 3430   1.932   8.628   6.253  0.0330 -0.3778 -0.0993
  240POPC   C2B 3431   2.323   8.636   6.526  0.1532  0.0610 -0.4974
  240POPC   C3B 3432   2.521   8.671   6.928 -0.0312  0.2395 -0.0916
  240POPC   C4B 3433   2.752   8.813   7.251  0.0361 -0.0997  0.0032
  241POPC   NC3 3434   6.746   1.774   4.901  0.1408  0.1948  0.2571
  241POPC   PO4 3435   6.261   1.668   4.930  0.1343  0.2855 -0.3163
  241POPC   GL1 3436   6.608   1.524   5.333 -0.1970  0.4401 -0.3645
  241POPC   GL2 3437   6.763   1.207   5.450 -0.1749  0.0490 -0.2668
  241POPC   C1A 3438   6.670   1.641   5.771 -0.3039  0.2912 -0.1558
  241POPC   D2A 3439   6.510   2.099   5.883 -0.3066  0.1476  0.2169
  241POPC   C3A 3440   6.375   2.194   6.217 -0.2492  0.0089  0.1472
  241POPC   C4A 3441   6.531   2.250   6.636 -0.0920  0.0738 -0.1527
  241POPC   C1B 3442   6.845   1.164   5.901  0.2435 -0.1904  0.4649
  241POPC   C2B 3443   6.808   1.365   6.249  0.3839  0.1540  0.0451
  241POPC   C3B 3444   6.868   1.535   6.710 -0.5218  0.0405 -0.1597
  241POPC   C4B 3445   6.627   1.856   6.935  0.1418  0.2745  0.1711
  242POPC   NC3 3446   5.647   6.595   4.718  0.1372  0.0340  0.0754
  242POPC   PO4 3447   5.973   6.253   4.838 -0.1534 -0.0525 -0.0159
  242POPC   GL1 3448   5.840   6.378   5.291  0.0552  0.2908  0.1181
  242POPC   GL2 3449   5.594   6.291   5.511 -0.0300 -0.0945  0.1267
  242POPC   C1A 3450   6.021   6.349   5.735 -0.0602  0.1141  0.1571
  242POPC   D2A 3451   5.908   6.165   6.143  0.3209  0.1262 -0.1107
  242POPC   C3A 3452   5.751   6.447   6.495  0.2076 -0.0756  0.2761
  242POPC   C4A 3453   5.969   6.670   6.774  0.0976  0.1277  0.2463
  242POPC   C1B 3454   5.280   6.207   5.870  0.0733  0.1357 -0.1422
  242POPC   C2B 3455   5.398   6.069   6.285 -0.2002  0.0595  0.0325
  242POPC   C3B 3456   5.515   5.922   6.623 -0.2653  0.1346 -0.1370
  242POPC   C4B 3457   5.406   5.519   6.908 -0.5319  0.0789  0.2673
  243POPC   NC3 3458   5.579   8.936   5.335 -0.1991 -0.1545 -0.5349
  243POPC   PO4 3459   5.490   8.485   5.260  0.1502  0.2363  0.1681
  243POPC   GL1 3460   5.347   8.207   5.660  0.1437 -0.0894  0.0818
  243POPC   GL2 3461   5.035   8.065   5.707 -0.2219  0.2804  0.1487
  243POPC   C1A 3462   5.519   8.299   6.039  0.1345  0.1641 -0.0424
  243POPC   D2A 3463   5.766   8.462   6.346 -0.0057  0.1252 -0.3242
  243POPC   C3A 3464   5.663   8.229   6.803  0.1648  0.1477 -0.2442
  243POPC   C4A 3465   5.833   8.262   7.216 -0.0003  0.0320 -0.0512
  243POPC   C1B 3466   5.028   8.129   6.067 -0.1718  0.1224 -0.0133
  243POPC   C2B 3467   5.173   8.323   6.436  0.3013 -0.4988  0.1418
  243POPC   C3B 3468   5.219   8.491   6.908 -0.0093  0.1720 -0.0672
  243POPC   C4B 3469   5.502   8.608   7.304  0.2921 -0.2314  0.0524
  244POPC   NC3 3470   6.928   7.393   4.943 -0.0577 -0.0827 -0.2514
  244POPC   PO4 3471   6.856   7.034   5.147 -0.0080  0.3814 -0.1003
  244POPC   GL1 3472   7.069   7.243   5.535  0.0198 -0.0520 -0.2559
  244POPC   GL2 3473   7.174   7.503   5.755  0.1967  0.3244  0.0077
  244POPC   C1A 3474   7.172   7.050   5.918  0.0848  0.1515  0.0056
  244POPC   D2A 3475   7.434   7.139   6.268 -0.0487  0.2126  0.0666
  244POPC   C3A 3476   7.318   7.492   6.560 -0.1114 -0.1429  0.3536
  244POPC   C4A 3477   7.193   7.836   6.864  0.0763 -0.2049  0.1807
  244POPC   C1B 3478   7.483   7.552   5.996 -0.1975  0.1616 -0.1943
  244POPC   C2B 3479   7.792   7.607   6.360 -0.2004  0.1780 -0.1419
  244POPC   C3B 3480   8.098   7.364   6.570 -0.0416  0.2229  0.1520
  244POPC   C4B 3481   8.221   6.937   6.745 -0.0240 -0.3889  0.0910
  245POPC   NC3 3482  10.103   4.873   4.352 -0.0632 -0.2228 -0.0517
  245POPC   PO4 3483   9.838   4.987   4.666  0.1004 -0.1330  0.2911
  245POPC   GL1 3484   9.978   5.057   4.967 -0.2324 -0.2479 -0.4077
  245POPC   GL2 3485   9.752   5.035   5.247 -0.3347 -0.1785 -0.0765
  245POPC   C1A 3486  10.269   5.015   5.182  0.0334  0.1706 -0.2192
  245POPC   D2A 3487  10.757   4.930   5.201 -0.1465  0.0775  0.1093
  245POPC   C3A 3488  10.939   5.161   4.914 -0.3821 -0.0356  0.1599
  245POPC   C4A 3489  11.013   5.668   4.992  0.0371 -0.0284  0.0231
  245POPC   C1B 3490   9.943   5.266   5.712 -0.0618  0.0286 -0.0469
  245POPC   C2B 3491   9.957   5.130   6.156 -0.2130  0.1454  0.3692
  245POPC   C3B 3492   9.988   4.709   6.320 -0.1871  0.0507 -0.2243
  245POPC   C4B 3493  10.132   4.379   6.314  0.0231 -0.0944 -0.3692
  246POPC   NC3 3494   6.834   6.645   5.503 -0.1850  0.4430 -0.1310
  246POPC   PO4 3495   6.764   6.264   5.392  0.0644 -0.0495  0.2740
  246POPC   GL1 3496   6.658   6.163   5.788  0.0152  0.0172  0.0141
  246POPC   GL2 3497   6.523   6.500   5.859 -0.1523  0.2771  0.0604
  246POPC   C1A 3498   6.367   6.052   6.058  0.0849 -0.0518  0.0097
  246POPC   D2A 3499   6.219   5.831   6.474  0.1216  0.2497  0.1609
  246POPC   C3A 3500   6.033   6.005   6.906 -0.3024  0.0398 -0.1841
  246POPC   C4A 3501   6.105   6.385   7.157 -0.0073  0.1233 -0.0363
  246POPC   C1B 3502   6.632   6.717   6.281  0.0340 -0.0369  0.3235
  246POPC   C2B 3503   6.474   6.728   6.657  0.0576  0.1106  0.0893
  246POPC   C3B 3504   6.378   6.732   7.035 -0.0084  0.0894  0.1635
  246POPC   C4B 3505   6.410   6.732   7.454  0.0920  0.1575 -0.1437
  247POPC   NC3 3506   8.115   9.335   5.446  0.2000  0.0205 -0.2692
  247POPC   PO4 3507   7.657   9.128   5.385 -0.1851  0.1794  0.4915
  247POPC   GL1 3508   7.610   8.988   5.782 -0.2320  0.1664  0.4511
  247POPC   GL2 3509   7.929   8.981   5.838  0.0076  0.0654  0.2143
  247POPC   C1A 3510   7.652   8.895   6.211  0.0299 -0.0162  0.2323
  247POPC   D2A 3511   7.466   8.955   6.680  0.1079  0.0518 -0.3465
  247POPC   C3A 3512   7.421   8.687   7.123  0.0409  0.0735  0.3127
  247POPC   C4A 3513   7.437   8.749   7.608 -0.1703  0.0905 -0.2691
  247POPC   C1B 3514   7.775   9.402   6.075  0.0749  0.2181  0.1602
  247POPC   C2B 3515   7.725   9.373   6.442  0.1248 -0.1340 -0.1513
  247POPC   C3B 3516   7.619   9.378   6.884  0.2107  0.3166 -0.3561
  247POPC   C4B 3517   7.293   9.143   7.167 -0.2247 -0.0020  0.2494
  248POPC   NC3 3518   2.517   0.645   5.059  0.1591 -0.1089  0.2566
  248POPC   PO4 3519   2.329   0.192   5.079 -0.0369 -0.2980 -0.0706
  248POPC   GL1 3520   2.366   0.200   5.509  0.2003 -0.4400 -0.0144
  248POPC   GL2 3521   2.118   0.297   5.660 -0.0298 -0.3069  0.1639
  248POPC   C1A 3522   2.574   0.225   5.863  0.0604  0.1198  0.2553
  248POPC   D2A 3523   2.528   0.486   6.145  0.0698 -0.4381 -0.0625
  248POPC   C3A 3524   2.373   0.856   6.250 -0.2962  0.0675 -0.0431
  248POPC   C4A 3525   2.193   1.290   6.318  0.0196 -0.2316 -0.2160
  248POPC   C1B 3526   2.117   0.136   6.023 -0.0369  0.0182 -0.2067
  248POPC   C2B 3527   2.151   0.194   6.463 -0.2132  0.2828  0.1669
  248POPC   C3B 3528   2.254   0.587   6.660  0.2080 -0.1512  0.2670
  248POPC   C4B 3529   2.534   0.991   6.714  0.0398 -0.0685  0.1953
  249POPC   NC3 3530   8.162   8.676   5.517  0.2563 -0.3547  0.1492
  249POPC   PO4 3531   8.406   8.948   5.377 -0.0573  0.1461 -0.1605
  249POPC   GL1 3532   8.536   8.994   5.785 -0.4774  0.1423  0.0428
  249POPC   GL2 3533   8.331   9.241   5.890  0.2065  0.5407  0.0087
  249POPC   C1A 3534   8.674   8.842   6.190 -0.0806  0.0814 -0.1032
  249POPC   D2A 3535   8.538   8.899   6.617 -0.3421  0.2169  0.2713
  249POPC   C3A 3536   8.880   8.692   6.888  0.0465  0.1297  0.1141
  249POPC   C4A 3537   9.091   8.428   7.124 -0.0780  0.2050  0.0163
  249POPC   C1B 3538   8.183   9.218   6.265  0.2399 -0.1776  0.2132
  249POPC   C2B 3539   8.096   9.198   6.729  0.3093 -0.0100  0.1314
  249POPC   C3B 3540   8.273   9.178   7.095 -0.2884  0.0004 -0.2453
  249POPC   C4B 3541   8.650   9.072   7.074 -0.2804  0.2283  0.0338
  250POPC   NC3 3542   7.904   1.371   5.241 -0.0619  0.0526 -0.1336
  250POPC   PO4 3543   7.733   1.752   5.375  0.0496  0.2443 -0.0669
  250POPC   GL1 3544   7.423   1.804   5.731  0.0907 -0.2333  0.0393
  250POPC   GL2 3545   7.166   1.530   5.690 -0.0300  0.1546  0.0174
  250POPC   C1A 3546   7.585   1.780   6.174 -0.2454  0.2612 -0.1148
  250POPC   D2A 3547   7.784   1.601   6.530  0.2397 -0.1373 -0.1241
  250POPC   C3A 3548   7.829   1.384   6.902  0.0244 -0.0303  0.1235
  250POPC   C4A 3549   7.742   1.053   7.096 -0.0038 -0.1302 -0.1355
  250POPC   C1B 3550   7.278   1.370   6.026  0.1056 -0.1157  0.0140
  250POPC   C2B 3551   7.275   1.457   6.421  0.2584 -0.2209  0.0018
  250POPC   C3B 3552   7.324   1.796   6.725  0.2012 -0.1039 -0.2683
  250POPC   C4B 3553   7.226   1.968   7.073 -0.0686  0.0005 -0.1050
  251POPC   NC3 3554   8.137   4.846   5.062  0.2096 -0.1705 -0.0122
  251POPC   PO4 3555   7.965   5.223   5.260 -0.0944 -0.0314  0.4211
  251POPC   GL1 3556   7.959   5.375   5.584  0.1729  0.0026  0.0776
  251POPC   GL2 3557   7.890   5.637   5.829  0.3270 -0.0786 -0.1381
  251POPC   C1A 3558   7.979   5.199   5.980  0.1040 -0.1047  0.1283
  251POPC   D2A 3559   7.992   5.128   6.429  0.0168 -0.3503 -0.0971
  251POPC   C3A 3560   7.913   4.740   6.658 -0.1411 -0.1278  0.0445
  251POPC   C4A 3561   7.655   4.477   6.546  0.0904 -0.1853 -0.0723
  251POPC   C1B 3562   7.681   5.543   6.189  0.2480  0.0653  0.1429
  251POPC   C2B 3563   7.546   5.610   6.497  0.2654  0.0755 -0.0548
  251POPC   C3B 3564   7.216   5.495   6.855  0.0557  0.0664 -0.0610
  251POPC   C4B 3565   6.757   5.357   7.077 -0.0771 -0.5854  0.3095
  252POPC   NC3 3566   3.944   2.959   4.253  0.0062  0.1629  0.0304
  252POPC   PO4 3567   3.683   2.783   4.488  0.1427 -0.0297  0.3016
  252POPC   GL1 3568   3.617   2.940   4.918 -0.1763 -0.1449 -0.2271
  252POPC   GL2 3569   3.845   2.819   5.157  0.0199 -0.1371  0.1623
  252POPC   C1A 3570   3.394   3.024   5.308  0.0165  0.1861 -0.0771
  252POPC   D2A 3571   3.196   2.789   5.692 -0.2378 -0.2633  0.2207
  252POPC   C3A 3572   2.883   2.775   5.905 -0.1311  0.0149 -0.0741
  252POPC   C4A 3573   2.712   3.112   5.630  0.1537  0.1571 -0.2785
  252POPC   C1B 3574   3.965   3.250   5.098 -0.2824  0.0004 -0.1618
  252POPC   C2B 3575   4.105   3.416   5.548  0.0092 -0.2047  0.3137
  252POPC   C3B 3576   4.187   3.184   5.840 -0.2228 -0.0776 -0.0896
  252POPC   C4B 3577   4.230   3.445   6.183 -0.0701  0.2803  0.0231
  253POPC   NC3 3578   4.188   9.816   5.360 -0.1027 -0.0385 -0.1130
  253POPC   PO4 3579   4.378  10.280   5.403 -0.0158  0.0454 -0.0492
  253POPC   GL1 3580   4.513  10.588   5.660  0.1204 -0.0538 -0.2385
  253POPC   GL2 3581   4.231  10.541   5.846 -0.1424  0.2118  0.2695
  253POPC   C1A 3582   4.435  10.895   6.136  0.3650  0.0619 -0.1205
  253POPC   D2A 3583   4.460  10.919   6.627  0.3331  0.1645 -0.0261
  253POPC   C3A 3584   4.099  10.770   6.942  0.0888 -0.3349  0.4432
  253POPC   C4A 3585   3.885  11.175   7.128  0.0636 -0.0954 -0.1168
  253POPC   C1B 3586   4.406  10.317   6.228 -0.0265 -0.2481 -0.4196
  253POPC   C2B 3587   4.271  10.369   6.690  0.2742  0.0017  0.0406
  253POPC   C3B 3588   4.522  10.586   7.163 -0.0141 -0.1353 -0.2954
  253POPC   C4B 3589   4.419  11.022   7.294  0.4744  0.3276 -0.1345
  254POPC   NC3 3590   6.264   9.860   4.687 -0.2387 -0.0844 -0.2738
  254POPC   PO4 3591   6.474   9.874   5.013  0.3426 -0.1167 -0.3132
  254POPC   GL1 3592   6.348   9.773   5.486  0.1654  0.0543  0.0280
  254POPC   GL2 3593   6.267   9.519   5.634  0.1614  0.3160 -0.1659
  254POPC   C1A 3594   6.515   9.896   5.842  0.1052 -0.0607  0.1307
  254POPC   D2A 3595   6.381  10.107   6.184  0.0437 -0.0767 -0.2906
  254POPC   C3A 3596   6.633  10.061   6.493 -0.1624 -0.2507  0.1676
  254POPC   C4A 3597   6.803   9.827   6.875  0.1964  0.1457 -0.3195
  254POPC   C1B 3598   6.164   9.601   6.084  0.1313  0.0762  0.2797
  254POPC   C2B 3599   6.064   9.750   6.456 -0.0917  0.1065 -0.0884
  254POPC   C3B 3600   6.208  10.070   6.702 -0.2506  0.2997  0.2046
  254POPC   C4B 3601   5.789  10.005   6.858 -0.1290  0.3169  0.3015
  255POPC   NC3 3602   8.860   0.498   5.387  0.2152  0.1519  0.1241
  255POPC   PO4 3603   9.127   0.792   5.368  0.1589  0.0661 -0.0329
  255POPC   GL1 3604   9.213   0.830   5.720 -0.0429 -0.2715  0.3522
  255POPC   GL2 3605   9.549   1.052   5.755 -0.2176 -0.1532 -0.1635
  255POPC   C1A 3606   9.328   0.638   6.155 -0.0085  0.0963  0.3784
  255POPC   D2A 3607   9.490   0.688   6.481  0.0382 -0.2578 -0.1115
  255POPC   C3A 3608   9.776   0.488   6.678 -0.1228 -0.1460 -0.2764
  255POPC   C4A 3609   9.890   0.199   7.086 -0.2413 -0.0128  0.1091
  255POPC   C1B 3610   9.497   1.202   6.185  0.0726 -0.0832 -0.1775
  255POPC   C2B 3611   9.641   1.517   6.451 -0.2503  0.2133  0.0692
  255POPC   C3B 3612   9.932   1.428   6.748 -0.0733  0.0543  0.1802
  255POPC   C4B 3613  10.239   1.119   6.909 -0.0424 -0.3117 -0.0071
  256POPC   NC3 3614   8.345   1.125   5.082 -0.0813 -0.0912  0.0741
  256POPC   PO4 3615   8.001   0.919   5.033 -0.0219  0.0753 -0.2510
  256POPC   GL1 3616   7.865   0.906   5.504 -0.2407  0.0213  0.1238
  256POPC   GL2 3617   8.084   1.009   5.675  0.0429  0.0460  0.2491
  256POPC   C1A 3618   7.635   0.912   5.895  0.2346 -0.2188 -0.0100
  256POPC   D2A 3619   7.718   1.054   6.232 -0.1686 -0.1812  0.2208
  256POPC   C3A 3620   7.530   0.716   6.553  0.4291  0.0006  0.1200
  256POPC   C4A 3621   7.773   0.599   6.918 -0.1911 -0.0340 -0.1632
  256POPC   C1B 3622   8.072   1.407   5.902  0.2206  0.0658 -0.1012
  256POPC   C2B 3623   8.063   1.749   6.157 -0.2822  0.0456 -0.0465
  256POPC   C3B 3624   8.348   2.024   6.419 -0.1463 -0.0579 -0.1461
  256POPC   C4B 3625   8.749   1.876   6.665 -0.1890  0.1464  0.3240
  257POPC   NC3 3626   4.747   4.850   4.041  0.1312  0.1667  0.0380
  257POPC   PO4 3627   4.678   4.891   4.336  0.0802 -0.0661 -0.1005
  257POPC   GL1 3628   4.484   5.061   4.654  0.4528 -0.0400  0.0053
  257POPC   GL2 3629   4.506   4.728   4.818 -0.0173 -0.1344  0.0864
  257POPC   C1A 3630   4.136   5.022   4.923  0.0243  0.2613 -0.1871
  257POPC   D2A 3631   3.769   4.847   5.162  0.0997  0.0358  0.1941
  257POPC   C3A 3632   3.854   4.503   5.231 -0.0871 -0.3118  0.0811
  257POPC   C4A 3633   3.593   4.199   5.527 -0.1069  0.0354  0.1078
  257POPC   C1B 3634   4.403   4.422   5.257  0.0626 -0.1178  0.3840
  257POPC   C2B 3635   4.568   4.154   5.616  0.0846 -0.3172 -0.4156
  257POPC   C3B 3636   4.881   4.257   5.977 -0.0577  0.2790 -0.2189
  257POPC   C4B 3637   5.063   4.199   6.354  0.1873  0.2906 -0.3831
  258POPC   NC3 3638   0.004   5.654   3.890  0.2016  0.1181 -0.1173
  258POPC   PO4 3639   0.106   5.714   4.343 -0.2417  0.2114 -0.1753
  258POPC   GL1 3640   0.280   5.784   4.668  0.0604  0.4726  0.0458
  258POPC   GL2 3641   0.061   5.858   5.033  0.1988  0.2658  0.2139
  258POPC   C1A 3642   0.372   5.403   5.023 -0.1312  0.0588 -0.0566
  258POPC   D2A 3643   0.705   5.354   5.385 -0.3712 -0.2524 -0.3837
  258POPC   C3A 3644   0.935   4.902   5.606  0.0326 -0.2900  0.1993
  258POPC   C4A 3645   0.891   4.619   5.376 -0.1190 -0.0385  0.1386
  258POPC   C1B 3646   0.052   5.487   5.376  0.2866 -0.2572 -0.1701
  258POPC   C2B 3647   0.408   5.371   5.743  0.3630  0.2767  0.0448
  258POPC   C3B 3648   0.654   5.122   6.009 -0.2076 -0.2558 -0.4127
  258POPC   C4B 3649   0.944   4.988   6.087 -0.1962  0.1143  0.0012
  259POPC   NC3 3650   7.311   2.662   5.082  0.1251 -0.1865  0.1986
  259POPC   PO4 3651   7.325   3.063   4.886  0.0495  0.2216 -0.0665
  259POPC   GL1 3652   7.456   3.141   5.394 -0.2101  0.1773 -0.0117
  259POPC   GL2 3653   7.820   3.144   5.460 -0.1876 -0.1042 -0.1691
  259POPC   C1A 3654   7.345   3.217   5.735  0.0252  0.2368 -0.0882
  259POPC   D2A 3655   7.173   3.383   6.087 -0.1723  0.2080 -0.1300
  259POPC   C3A 3656   7.383   3.228   6.413 -0.1327  0.0713 -0.4311
  259POPC   C4A 3657   7.727   3.078   6.671  0.4301  0.0872  0.2618
  259POPC   C1B 3658   7.842   2.909   5.915  0.0092 -0.1874  0.0184
  259POPC   C2B 3659   7.667   2.699   6.291  0.3507 -0.6417  0.1224
  259POPC   C3B 3660   7.652   2.566   6.750 -0.4014 -0.2337 -0.1143
  259POPC   C4B 3661   7.675   2.690   7.126  0.0990  0.1417  0.1238
  260POPC   NC3 3662   6.488   5.392   5.235  0.1292 -0.0236 -0.1518
  260POPC   PO4 3663   6.740   5.560   5.022  0.1565  0.2071  0.2914
  260POPC   GL1 3664   6.784   5.765   5.458 -0.2387 -0.1393 -0.0420
  260POPC   GL2 3665   6.405   5.705   5.593 -0.1075 -0.0100  0.1884
  260POPC   C1A 3666   6.862   5.691   5.946  0.2532 -0.0172  0.2455
  260POPC   D2A 3667   7.097   5.549   6.247 -0.1887  0.1004  0.0133
  260POPC   C3A 3668   6.801   5.635   6.596  0.3251  0.0135  0.3308
  260POPC   C4A 3669   6.435   5.805   7.053 -0.0306 -0.1294 -0.4065
  260POPC   C1B 3670   6.376   5.571   6.028  0.1410 -0.1735  0.0045
  260POPC   C2B 3671   6.428   5.368   6.406 -0.0942  0.0460  0.1983
  260POPC   C3B 3672   6.407   5.192   6.795  0.1627  0.1074  0.0957
  260POPC   C4B 3673   6.237   5.198   7.199  0.0757  0.0252 -0.0834
  261POPC   NC3 3674   7.561   4.195   5.477 -0.0749 -0.1357  0.0431
  261POPC   PO4 3675   7.159   4.254   5.387 -0.3210  0.0036  0.0348
  261POPC   GL1 3676   7.153   4.418   5.849 -0.1033  0.1376 -0.1142
  261POPC   GL2 3677   6.964   4.141   5.927  0.0934 -0.1133  0.0965
  261POPC   C1A 3678   7.216   4.431   6.255  0.1004 -0.0881  0.1606
  261POPC   D2A 3679   7.123   4.627   6.614  0.0663 -0.2146  0.2880
  261POPC   C3A 3680   7.426   4.701   6.916 -0.2257 -0.0581  0.1294
  261POPC   C4A 3681   7.416   4.948   7.295 -0.0614 -0.0655  0.1526
  261POPC   C1B 3682   6.952   3.918   6.320 -0.0339  0.1880  0.0704
  261POPC   C2B 3683   7.137   3.624   6.599 -0.0824  0.4268  0.4051
  261POPC   C3B 3684   7.195   3.676   7.066  0.1753  0.1212  0.3293
  261POPC   C4B 3685   7.158   3.659   7.438  0.0846  0.0461  0.1391
  262POPC   NC3 3686   7.927   4.127   4.604  0.0200 -0.2194  0.1279
  262POPC   PO4 3687   8.183   3.774   4.911 -0.0452  0.2355 -0.0286
  262POPC   GL1 3688   8.394   3.879   5.179  0.0950 -0.1193 -0.1187
  262POPC   GL2 3689   8.766   3.916   5.287  0.0878  0.2956 -0.1920
  262POPC   C1A 3690   8.277   3.992   5.588  0.0503  0.1100  0.0140
  262POPC   D2A 3691   8.045   3.771   5.912  0.0014 -0.1356 -0.2478
  262POPC   C3A 3692   8.090   3.405   5.826 -0.2558  0.2917  0.2432
  262POPC   C4A 3693   8.278   3.098   5.735  0.1724  0.0594 -0.1715
  262POPC   C1B 3694   8.500   3.574   5.600 -0.1781  0.1807  0.2521
  262POPC   C2B 3695   8.506   3.479   6.121  0.1631 -0.1859 -0.2144
  262POPC   C3B 3696   8.587   3.286   6.585  0.3305  0.0406  0.0665
  262POPC   C4B 3697   8.720   3.302   7.060 -0.0775  0.3268 -0.1226
  263POPC   NC3 3698   5.045   2.368   4.617 -0.2217  0.2583  0.0036
  263POPC   PO4 3699   5.134   2.757   4.613  0.1801  0.0076 -0.0200
  263POPC   GL1 3700   5.130   2.684   4.989 -0.0008  0.0955  0.0956
  263POPC   GL2 3701   4.987   2.871   5.255  0.1426  0.1902 -0.1348
  263POPC   C1A 3702   5.306   2.512   5.391  0.0164  0.0058  0.0486
  263POPC   D2A 3703   5.036   2.170   5.620  0.0471  0.0080 -0.2452
  263POPC   C3A 3704   5.173   2.235   6.021 -0.0341  0.1525 -0.0234
  263POPC   C4A 3705   5.049   2.296   6.528  0.1832 -0.2268  0.0230
  263POPC   C1B 3706   4.989   2.780   5.729  0.1034 -0.0354 -0.0113
  263POPC   C2B 3707   5.068   2.669   6.206  0.0958  0.0287 -0.3522
  263POPC   C3B 3708   4.818   2.717   6.521  0.0360  0.0686 -0.4186
  263POPC   C4B 3709   4.904   2.903   6.955 -0.4476  0.1653 -0.1184
  264POPC   NC3 3710   6.931  10.027   5.037  0.1783 -0.0116 -0.0367
  264POPC   PO4 3711   7.372   9.946   5.034  0.1700 -0.0268  0.0626
  264POPC   GL1 3712   7.309   9.868   5.455 -0.1525 -0.0173  0.1500
  264POPC   GL2 3713   7.457  10.077   5.667  0.0408  0.0999 -0.1184
  264POPC   C1A 3714   7.214   9.572   5.774 -0.3124 -0.1681  0.0609
  264POPC   D2A 3715   7.475   9.764   6.116  0.1024  0.0481  0.0472
  264POPC   C3A 3716   7.453   9.741   6.603  0.1867 -0.3118 -0.0206
  264POPC   C4A 3717   7.637  10.001   6.999  0.0319  0.0770  0.0419
  264POPC   C1B 3718   7.826  10.176   5.886 -0.0736 -0.2887 -0.1177
  264POPC   C2B 3719   8.205  10.222   6.150 -0.0488  0.0745  0.0235
  264POPC   C3B 3720   8.467   9.996   6.493  0.1719  0.2089 -0.0432
  264POPC   C4B 3721   8.717   9.910   6.757 -0.0242 -0.0311 -0.0093
  265POPC   NC3 3722   3.653   9.869   5.203 -0.0504 -0.1776  0.0447
  265POPC   PO4 3723   3.633   9.563   5.484  0.0774  0.1423 -0.2645
  265POPC   GL1 3724   3.885   9.858   5.773  0.3667 -0.0656 -0.2029
  265POPC   GL2 3725   3.920  10.169   5.616 -0.1246  0.0407  0.3899
  265POPC   C1A 3726   4.008   9.741   6.175  0.0134  0.3733 -0.0068
  265POPC   D2A 3727   4.054   9.303   6.368 -0.2770  0.0826  0.1896
  265POPC   C3A 3728   4.333   9.254   6.751 -0.0214  0.2319 -0.0412
  265POPC   C4A 3729   4.144   9.039   7.091 -0.0838 -0.0084  0.3416
  265POPC   C1B 3730   3.857  10.273   6.055  0.0900  0.2248 -0.0743
  265POPC   C2B 3731   3.882  10.053   6.574  0.0467 -0.1052 -0.1215
  265POPC   C3B 3732   4.076  10.059   7.062 -0.3444  0.0413  0.0804
  265POPC   C4B 3733   4.278  10.138   7.476 -0.1472 -0.0191  0.1786
  266POPC   NC3 3734   0.784   5.937   4.425  0.3452  0.0010 -0.1500
  266POPC   PO4 3735   0.791   6.355   4.521 -0.0327  0.0319  0.3388
  266POPC   GL1 3736   0.699   6.191   4.880  0.2396 -0.0826  0.0193
  266POPC   GL2 3737   0.463   6.154   5.003 -0.0105  0.0614  0.1121
  266POPC   C1A 3738   0.864   6.077   5.344  0.0170  0.1011  0.1078
  266POPC   D2A 3739   1.117   6.191   5.608 -0.2546 -0.2622 -0.0303
  266POPC   C3A 3740   1.407   6.143   5.974 -0.1059 -0.3573 -0.2568
  266POPC   C4A 3741   1.720   6.026   6.352 -0.0428 -0.1700 -0.1021
  266POPC   C1B 3742   0.450   5.821   5.283 -0.2055 -0.0108 -0.0710
  266POPC   C2B 3743   0.695   5.795   5.713  0.5141 -0.1830 -0.2276
  266POPC   C3B 3744   0.995   5.561   5.732 -0.0028  0.1286 -0.0873
  266POPC   C4B 3745   1.277   5.302   5.876  0.1053  0.0757  0.0175
  267POPC   NC3 3746   4.784   1.935   4.757  0.1222 -0.1693 -0.1985
  267POPC   PO4 3747   5.198   1.921   4.845 -0.3344  0.0467  0.3332
  267POPC   GL1 3748   5.393   1.942   5.230 -0.1661  0.1503 -0.4983
  267POPC   GL2 3749   5.558   1.735   5.371 -0.1428  0.0515  0.0985
  267POPC   C1A 3750   5.511   2.143   5.666 -0.2568  0.1019  0.0044
  267POPC   D2A 3751   5.719   2.086   6.147 -0.2226  0.1079  0.1406
  267POPC   C3A 3752   5.517   2.136   6.570 -0.3014 -0.2528  0.0213
  267POPC   C4A 3753   5.430   1.881   7.013  0.2846  0.2004 -0.2084
  267POPC   C1B 3754   5.487   1.622   5.752  0.0096  0.2794 -0.0994
  267POPC   C2B 3755   5.514   1.613   6.248  0.0648  0.2551  0.0304
  267POPC   C3B 3756   5.645   1.670   6.625  0.2986  0.3296 -0.1424
  267POPC   C4B 3757   5.670   1.416   7.029  0.4524 -0.0176 -0.1916
  268POPC   NC3 3758   4.034   1.426   4.374 -0.0586 -0.3016 -0.1812
  268POPC   PO4 3759   3.975   1.427   4.803  0.1547  0.1502  0.0845
  268POPC   GL1 3760   4.080   1.468   5.278  0.1413 -0.1448  0.3702
  268POPC   GL2 3761   4.277   1.339   5.419 -0.0002  0.0442 -0.0488
  268POPC   C1A 3762   4.170   1.771   5.603 -0.0328  0.2007  0.1283
  268POPC   D2A 3763   4.563   1.803   5.597 -0.0868  0.2866  0.1367
  268POPC   C3A 3764   4.796   1.493   5.696  0.2384  0.2064 -0.1373
  268POPC   C4A 3765   5.132   1.311   5.670  0.1236 -0.0833  0.1286
  268POPC   C1B 3766   4.113   1.284   5.838  0.5663  0.0609 -0.1648
  268POPC   C2B 3767   4.034   1.051   6.202  0.1798 -0.2886  0.3158
  268POPC   C3B 3768   3.977   0.903   6.577  0.1633 -0.3383 -0.1066
  268POPC   C4B 3769   4.302   1.132   6.867 -0.1885  0.1542 -0.2556
  269POPC   NC3 3770   8.668   4.299   4.977  0.0677  0.2597  0.0150
  269POPC   PO4 3771   8.922   4.127   4.698  0.1595  0.0712 -0.4289
  269POPC   GL1 3772   9.156   4.191   5.244 -0.1856  0.2059 -0.0655
  269POPC   GL2 3773   9.005   4.383   5.454  0.1691  0.2606  0.0725
  269POPC   C1A 3774   9.185   3.913   5.642 -0.0887  0.1232 -0.1711
  269POPC   D2A 3775   9.393   3.873   6.018 -0.0856 -0.0326  0.0834
  269POPC   C3A 3776   9.379   3.612   6.308 -0.3543 -0.3442  0.0411
  269POPC   C4A 3777   9.543   3.226   6.538  0.0872 -0.1081 -0.0805
  269POPC   C1B 3778   8.723   4.108   5.782 -0.3583 -0.0426  0.1048
  269POPC   C2B 3779   8.881   3.924   6.104 -0.0118  0.1280  0.3009
  269POPC   C3B 3780   8.889   3.698   6.463  0.0317  0.0974  0.3246
  269POPC   C4B 3781   9.113   3.578   6.879  0.3534 -0.2436 -0.2026
  270POPC   NC3 3782   9.274   8.701   5.408  0.0824  0.2001 -0.0325
  270POPC   PO4 3783   9.529   8.403   5.424  0.0172  0.2001  0.3221
  270POPC   GL1 3784   9.648   8.519   5.793 -0.4520  0.0669  0.0402
  270POPC   GL2 3785   9.942   8.439   5.981  0.2908 -0.0698 -0.2767
  270POPC   C1A 3786   9.565   8.803   6.153  0.2654 -0.1393 -0.1005
  270POPC   D2A 3787   9.096   8.919   6.414 -0.0747  0.1518 -0.1159
  270POPC   C3A 3788   9.046   9.186   6.759  0.0426 -0.1423  0.2199
  270POPC   C4A 3789   8.974   9.434   7.121  0.0949  0.0442  0.0028
  270POPC   C1B 3790   9.770   8.150   6.383  0.1780  0.5247  0.1195
  270POPC   C2B 3791  10.066   8.148   6.747 -0.2735  0.1436 -0.1344
  270POPC   C3B 3792  10.141   7.792   6.949 -0.2088  0.1200 -0.3313
  270POPC   C4B 3793  10.145   7.507   7.320 -0.1380  0.4504  0.2156
  271POPC   NC3 3794   4.662   8.269   4.928  0.0236  0.1945 -0.0327
  271POPC   PO4 3795   4.379   8.259   5.285 -0.0695  0.1205 -0.3086
  271POPC   GL1 3796   4.549   8.365   5.696 -0.1025  0.2002 -0.1111
  271POPC   GL2 3797   4.300   8.482   5.857  0.3165 -0.0778 -0.2799
  271POPC   C1A 3798   4.914   8.641   5.892 -0.1043 -0.1345  0.1575
  271POPC   D2A 3799   5.318   8.752   5.727 -0.0595  0.0438 -0.3027
  271POPC   C3A 3800   5.571   8.863   6.081  0.1838 -0.0356  0.1066
  271POPC   C4A 3801   5.480   8.842   6.492  0.0488 -0.0107 -0.2133
  271POPC   C1B 3802   4.116   8.320   6.208 -0.0369  0.2483 -0.1537
  271POPC   C2B 3803   4.375   8.182   6.552  0.0984 -0.0692  0.1431
  271POPC   C3B 3804   4.495   8.095   6.955  0.0137 -0.1990 -0.2569
  271POPC   C4B 3805   4.770   7.956   7.239 -0.2261 -0.0693 -0.0614
  272POPC   NC3 3806   1.566   0.400   5.443 -0.1780 -0.1291  0.0885
  272POPC   PO4 3807   1.225   0.158   5.422 -0.2388 -0.0724 -0.2523
  272POPC   GL1 3808   1.368  -0.179   5.799  0.0058 -0.2206  0.0925
  272POPC   GL2 3809   1.776  -0.236   5.936 -0.0665 -0.1587  0.1224
  272POPC   C1A 3810   1.387  -0.363   6.226 -0.2805  0.2725  0.1030
  272POPC   D2A 3811   1.558  -0.532   6.750 -0.2687  0.0702  0.0605
  272POPC   C3A 3812   1.203  -0.711   6.970  0.1201  0.1321 -0.1531
  272POPC   C4A 3813   0.857  -0.655   7.078  0.0900  0.0469 -0.1353
  272POPC   C1B 3814   1.818  -0.234   6.371  0.0520 -0.1712 -0.3311
  272POPC   C2B 3815   1.729  -0.064   6.720 -0.2098  0.1082 -0.0426
  272POPC   C3B 3816   2.007  -0.145   7.053 -0.0365 -0.1066  0.1218
  272POPC   C4B 3817   2.156   0.054   7.365  0.1859 -0.5012 -0.3425
  273POPC   NC3 3818   8.827   8.706   5.143 -0.1470 -0.0488  0.0439
  273POPC   PO4 3819   8.923   9.045   5.419 -0.0125  0.1766  0.1171
  273POPC   GL1 3820   8.898   9.342   5.664  0.1396 -0.0976 -0.1741
  273POPC   GL2 3821   9.127   9.563   5.711 -0.0103  0.0727 -0.2783
  273POPC   C1A 3822   8.805   9.349   6.024 -0.1057 -0.2986 -0.0960
  273POPC   D2A 3823   8.739   9.429   6.351 -0.2363  0.1629 -0.3058
  273POPC   C3A 3824   8.478   9.490   6.670  0.3992 -0.2455 -0.2168
  273POPC   C4A 3825   8.513   9.643   7.142  0.1546 -0.0638 -0.0113
  273POPC   C1B 3826   8.994   9.836   5.992 -0.3221 -0.2699 -0.1882
  273POPC   C2B 3827   9.161  10.071   6.301  0.0703  0.1881  0.1490
  273POPC   C3B 3828   9.241  10.408   6.583  0.1275 -0.1040  0.1430
  273POPC   C4B 3829   9.314  10.422   7.020 -0.0241 -0.3882 -0.3190
  274POPC   NC3 3830   4.931   4.352   4.773  0.0251 -0.4272  0.0529
  274POPC   PO4 3831   5.257   3.996   4.820 -0.1063 -0.2170  0.3108
  274POPC   GL1 3832   5.352   3.841   5.178 -0.0308 -0.4747 -0.1299
  274POPC   GL2 3833   5.584   4.025   5.357  0.1634 -0.1371  0.0797
  274POPC   C1A 3834   5.131   3.678   5.504  0.0713 -0.0992  0.0532
  274POPC   D2A 3835   5.228   3.342   5.792 -0.0339 -0.0429  0.1155
  274POPC   C3A 3836   5.125   3.106   6.059  0.1109 -0.1841  0.1363
  274POPC   C4A 3837   4.989   3.155   6.559  0.2226 -0.1115  0.0048
  274POPC   C1B 3838   5.343   4.080   5.748  0.1168  0.1631  0.0104
  274POPC   C2B 3839   5.064   3.786   5.998 -0.2931  0.6588 -0.2660
  274POPC   C3B 3840   5.131   3.620   6.406 -0.2123 -0.4042 -0.0990
  274POPC   C4B 3841   4.968   3.725   6.761 -0.0141 -0.0493  0.1054
  275POPC   NC3 3842   3.253   7.446   4.673  0.0431  0.1817  0.2434
  275POPC   PO4 3843   3.150   7.149   4.681  0.0426  0.0198 -0.0762
  275POPC   GL1 3844   3.047   6.833   4.934  0.0733  0.0534  0.2359
  275POPC   GL2 3845   3.122   6.587   4.772  0.0488  0.1661 -0.3646
  275POPC   C1A 3846   2.971   6.878   5.313  0.0423  0.2484 -0.2463
  275POPC   D2A 3847   2.977   6.994   5.729  0.0821 -0.1535  0.1673
  275POPC   C3A 3848   2.858   6.633   6.053  0.1054 -0.0957 -0.1396
  275POPC   C4A 3849   2.450   6.594   6.202 -0.0669  0.2203 -0.0603
  275POPC   C1B 3850   2.889   6.389   5.112  0.0575  0.0171  0.1310
  275POPC   C2B 3851   3.086   6.474   5.589  0.0467  0.0476 -0.2180
  275POPC   C3B 3852   3.214   6.231   5.848 -0.0302  0.1382  0.2478
  275POPC   C4B 3853   3.611   6.168   6.075 -0.2837  0.3093 -0.1762
  276POPC   NC3 3854   2.679   7.964   5.089 -0.0247 -0.1539 -0.0187
  276POPC   PO4 3855   2.514   8.244   5.445 -0.0080  0.0954 -0.0160
  276POPC   GL1 3856   2.572   8.168   5.838 -0.2659 -0.0943  0.1947
  276POPC   GL2 3857   2.486   8.300   6.171  0.0535 -0.1161  0.2463
  276POPC   C1A 3858   2.839   7.936   6.190  0.5398  0.1390 -0.5084
  276POPC   D2A 3859   2.927   7.599   6.319 -0.0165 -0.0505  0.2573
  276POPC   C3A 3860   2.832   7.315   6.705  0.1636 -0.1700  0.0121
  276POPC   C4A 3861   2.642   6.959   6.909 -0.4031 -0.2110  0.0501
  276POPC   C1B 3862   2.702   8.308   6.585 -0.0588 -0.1439 -0.3325
  276POPC   C2B 3863   2.783   7.948   6.758 -0.0451  0.0298 -0.1228
  276POPC   C3B 3864   2.579   7.656   6.940 -0.3165  0.2597  0.3018
  276POPC   C4B 3865   2.455   7.349   7.160 -0.0581 -0.1008  0.2160
  277POPC   NC3 3866   0.867   0.806   5.129 -0.1286  0.1839 -0.0205
  277POPC   PO4 3867   1.011   0.608   5.416 -0.0366 -0.1454 -0.0954
  277POPC   GL1 3868   1.186   0.539   5.826 -0.2352 -0.0048  0.2060
  277POPC   GL2 3869   1.155   0.195   5.993  0.1760  0.1008  0.0113
  277POPC   C1A 3870   1.447   0.697   6.109  0.0772  0.1632  0.2311
  277POPC   D2A 3871   1.434   0.875   6.466 -0.1218 -0.2783 -0.3165
  277POPC   C3A 3872   1.424   0.816   6.954  0.2204 -0.0131  0.0154
  277POPC   C4A 3873   1.311   1.132   7.286 -0.1448  0.1080  0.1450
  277POPC   C1B 3874   1.074   0.450   6.361 -0.0733  0.0885 -0.2139
  277POPC   C2B 3875   1.182   0.445   6.798  0.1226 -0.0354  0.1293
  277POPC   C3B 3876   0.968   0.649   7.143  0.1601  0.1790  0.0437
  277POPC   C4B 3877   0.643   0.514   7.330 -0.0898 -0.1018 -0.1825
  278POPC   NC3 3878   1.255   8.626   4.751 -0.1504 -0.1191 -0.0371
  278POPC   PO4 3879   1.319   8.666   5.165 -0.0066 -0.0261  0.1585
  278POPC   GL1 3880   1.285   8.692   5.630  0.2049  0.1435  0.1263
  278POPC   GL2 3881   1.136   8.980   5.710  0.1691 -0.0324  0.0578
  278POPC   C1A 3882   1.237   8.555   5.948  0.1472 -0.0069  0.1555
  278POPC   D2A 3883   1.448   8.273   6.214 -0.1793 -0.0635  0.0832
  278POPC   C3A 3884   1.349   8.103   6.641  0.0558 -0.0206 -0.1989
  278POPC   C4A 3885   1.505   8.150   7.102 -0.1514  0.2914  0.2083
  278POPC   C1B 3886   1.080   9.018   6.081 -0.0156 -0.0834  0.0483
  278POPC   C2B 3887   1.099   9.297   6.396  0.1341 -0.0344 -0.5797
  278POPC   C3B 3888   1.049   9.715   6.614  0.1234 -0.1514 -0.0993
  278POPC   C4B 3889   1.235  10.188   6.632 -0.2471  0.1838  0.0029
  279POPC   NC3 3890   1.102   4.638   4.113 -0.0718  0.2836 -0.1983
  279POPC   PO4 3891   1.355   4.443   3.800 -0.0191  0.2290 -0.2769
  279POPC   GL1 3892   1.621   4.505   4.067 -0.2084  0.0801  0.1442
  279POPC   GL2 3893   1.663   4.890   3.938  0.0370  0.2990 -0.2129
  279POPC   C1A 3894   1.959   4.679   4.330  0.2594  0.2819 -0.0702
  279POPC   D2A 3895   2.014   4.956   4.653 -0.0196  0.2217  0.2144
  279POPC   C3A 3896   1.898   5.320   4.808  0.3504 -0.1485 -0.3912
  279POPC   C4A 3897   1.763   5.572   5.143 -0.0568 -0.1016  0.0682
  279POPC   C1B 3898   1.673   5.091   4.317 -0.0757  0.0227  0.1850
  279POPC   C2B 3899   1.487   4.956   4.710 -0.1002  0.1861 -0.0554
  279POPC   C3B 3900   1.570   5.024   5.090  0.1966 -0.2358 -0.2065
  279POPC   C4B 3901   1.616   5.225   5.487 -0.4195  0.1235 -0.1556
  280POPC   NC3 3902   3.019   8.299   5.331  0.4719  0.2090  0.2554
  280POPC   PO4 3903   3.359   8.512   5.417 -0.0777 -0.1215 -0.2263
  280POPC   GL1 3904   3.315   8.377   5.850  0.1623  0.0625  0.1220
  280POPC   GL2 3905   3.112   8.242   5.922 -0.1583  0.0014  0.1259
  280POPC   C1A 3906   3.605   8.229   6.229  0.2853  0.0882  0.0306
  280POPC   D2A 3907   3.655   8.254   6.596  0.1504  0.0566  0.0606
  280POPC   C3A 3908   3.354   8.522   6.822 -0.1490 -0.3482 -0.2346
  280POPC   C4A 3909   3.328   8.784   7.156  0.2037 -0.3357  0.4011
  280POPC   C1B 3910   3.147   8.276   6.385  0.0342 -0.0131  0.2259
  280POPC   C2B 3911   3.220   8.048   6.808 -0.1323 -0.2480  0.0199
  280POPC   C3B 3912   3.015   7.858   7.233  0.0485  0.0427  0.0870
  280POPC   C4B 3913   3.129   7.967   7.618 -0.0829 -0.1843 -0.1663
  281POPC   NC3 3914   8.394   7.504   4.798  0.0714 -0.2223 -0.1916
  281POPC   PO4 3915   8.466   7.334   5.119 -0.0728  0.1808 -0.3851
  281POPC   GL1 3916   8.419   7.170   5.533  0.1579  0.0137 -0.1595
  281POPC   GL2 3917   8.088   7.147   5.614  0.2446 -0.0715 -0.0299
  281POPC   C1A 3918   8.509   7.111   5.982 -0.1469  0.1166 -0.2167
  281POPC   D2A 3919   8.481   6.967   6.305  0.0024  0.1862 -0.0364
  281POPC   C3A 3920   8.665   7.164   6.632  0.1548  0.1736  0.0567
  281POPC   C4A 3921   8.935   7.075   7.129  0.0082 -0.1676 -0.0700
  281POPC   C1B 3922   8.080   7.316   6.069 -0.0628  0.1539  0.3041
  281POPC   C2B 3923   7.924   6.946   6.318 -0.3303 -0.1694 -0.1941
  281POPC   C3B 3924   7.784   6.778   6.673  0.1998 -0.0220  0.0171
  281POPC   C4B 3925   7.416   6.551   6.889 -0.3989 -0.1311 -0.0195
  282POPC   NC3 3926   6.028   4.300   4.440 -0.0752 -0.1460  0.1749
  282POPC   PO4 3927   6.291   4.089   4.756 -0.2004 -0.0329  0.0318
  282POPC   GL1 3928   6.270   3.971   5.183  0.0186  0.0159  0.1178
  282POPC   GL2 3929   6.122   3.948   5.409 -0.2559 -0.2263  0.0344
  282POPC   C1A 3930   6.557   3.668   5.495  0.1640 -0.2590 -0.1918
  282POPC   D2A 3931   6.857   3.311   5.611  0.1328 -0.2604 -0.2322
  282POPC   C3A 3932   6.758   3.124   5.992  0.0045  0.0421  0.0951
  282POPC   C4A 3933   6.842   3.099   6.490 -0.2076  0.2882  0.2297
  282POPC   C1B 3934   6.091   3.774   5.833 -0.1117 -0.2605  0.1575
  282POPC   C2B 3935   6.070   3.790   6.129 -0.3931  0.1693  0.0787
  282POPC   C3B 3936   6.252   3.911   6.457  0.2416 -0.5848 -0.1930
  282POPC   C4B 3937   6.401   4.173   6.863  0.1442  0.0640 -0.0672
  283POPC   NC3 3938   1.673   1.161   5.034  0.0519  0.2331 -0.1023
  283POPC   PO4 3939   1.213   1.178   5.032 -0.1092  0.1009 -0.1746
  283POPC   GL1 3940   1.303   1.532   5.338  0.0310 -0.0218 -0.0273
  283POPC   GL2 3941   1.510   1.602   5.251  0.3436  0.3458 -0.4020
  283POPC   C1A 3942   1.349   1.666   5.701 -0.0860  0.1520 -0.0788
  283POPC   D2A 3943   1.164   2.057   5.750  0.0031  0.1472  0.0031
  283POPC   C3A 3944   1.230   2.368   6.004  0.1438 -0.2632 -0.2330
  283POPC   C4A 3945   1.287   2.517   6.428  0.0351  0.1336 -0.1794
  283POPC   C1B 3946   1.983   1.629   5.447 -0.2010  0.2048  0.3278
  283POPC   C2B 3947   2.427   1.621   5.665 -0.0898 -0.0859  0.1848
  283POPC   C3B 3948   2.737   1.417   5.872 -0.0142  0.3043 -0.0650
  283POPC   C4B 3949   2.849   1.114   6.234 -0.1509  0.1481 -0.0385
  284POPC   NC3 3950   0.121   2.672   4.482  0.3553  0.0101 -0.1828
  284POPC   PO4 3951   0.290   2.698   4.903  0.2409  0.2083  0.0079
  284POPC   GL1 3952   0.327   2.692   5.296  0.0908 -0.0747 -0.1032
  284POPC   GL2 3953   0.751   2.719   5.166  0.0881  0.0276  0.0833
  284POPC   C1A 3954   0.359   2.535   5.709 -0.1525 -0.1627  0.1260
  284POPC   D2A 3955   0.512   2.491   6.084  0.1476 -0.1951 -0.0469
  284POPC   C3A 3956   0.936   2.751   6.167 -0.2018 -0.4404  0.1512
  284POPC   C4A 3957   1.270   3.078   6.127 -0.0772 -0.0195  0.0709
  284POPC   C1B 3958   0.584   3.149   5.415  0.4701 -0.2398  0.1754
  284POPC   C2B 3959   0.498   3.277   5.872  0.1997  0.2985 -0.0934
  284POPC   C3B 3960   0.296   3.375   6.237 -0.0875  0.2726  0.0893
  284POPC   C4B 3961  -0.017   3.215   6.479 -0.1767 -0.2667  0.2498
  285POPC   NC3 3962   4.726   3.013   4.843 -0.0069 -0.0537 -0.0217
  285POPC   PO4 3963   4.580   2.552   4.766 -0.4159  0.1041 -0.2575
  285POPC   GL1 3964   4.484   2.434   5.146 -0.2209 -0.2035 -0.1422
  285POPC   GL2 3965   4.248   2.104   5.251 -0.3145  0.0091  0.1730
  285POPC   C1A 3966   4.567   2.615   5.561 -0.1984 -0.2250  0.2182
  285POPC   D2A 3967   4.684   2.401   5.975 -0.5172  0.1880 -0.2673
  285POPC   C3A 3968   4.450   2.340   6.396 -0.0551 -0.1277 -0.2076
  285POPC   C4A 3969   4.381   2.181   6.782 -0.0324 -0.0075  0.1353
  285POPC   C1B 3970   4.167   2.363   5.503  0.0464  0.1010  0.2337
  285POPC   C2B 3971   4.056   2.614   5.681  0.2076  0.3393  0.0613
  285POPC   C3B 3972   3.703   2.933   5.816 -0.0203  0.1472 -0.1675
  285POPC   C4B 3973   3.744   3.239   6.267 -0.1850 -0.1603  0.1264
  286POPC   NC3 3974   0.427   9.120   5.654  0.1572 -0.0899  0.3340
  286POPC   PO4 3975   0.640   8.706   5.473  0.0365 -0.1054  0.0244
  286POPC   GL1 3976   0.764   8.662   5.850 -0.0516  0.1143  0.2179
  286POPC   GL2 3977   0.534   8.680   6.011 -0.4082 -0.0768  0.0444
  286POPC   C1A 3978   0.916   8.282   6.166  0.0724 -0.2803  0.0667
  286POPC   D2A 3979   1.043   7.853   6.290  0.3519 -0.3481 -0.4479
  286POPC   C3A 3980   0.900   7.927   6.736 -0.0613 -0.2863 -0.0729
  286POPC   C4A 3981   1.110   7.890   7.198  0.1414  0.0247 -0.2195
  286POPC   C1B 3982   0.544   8.559   6.472 -0.2017 -0.0767  0.0303
  286POPC   C2B 3983   0.266   8.540   6.827 -0.1344  0.0523 -0.0751
  286POPC   C3B 3984  -0.079   8.608   7.051 -0.1917  0.3268  0.0902
  286POPC   C4B 3985  -0.112   8.598   7.466 -0.0893 -0.1206 -0.1098
  287POPC   NC3 3986   2.701   8.206   4.561 -0.2125 -0.1309 -0.2501
  287POPC   PO4 3987   2.858   7.720   4.647 -0.1045 -0.0188  0.3283
  287POPC   GL1 3988   2.835   7.453   4.949  0.2099 -0.3150  0.1047
  287POPC   GL2 3989   2.670   7.192   4.825  0.0576 -0.4132  0.1346
  287POPC   C1A 3990   2.899   7.413   5.375  0.0321  0.1029 -0.0793
  287POPC   D2A 3991   3.057   7.473   5.775  0.2299  0.0356 -0.0745
  287POPC   C3A 3992   3.397   7.324   5.984 -0.0961  0.0564  0.3243
  287POPC   C4A 3993   3.758   7.069   6.102 -0.0207  0.3169 -0.0972
  287POPC   C1B 3994   2.441   6.995   5.135 -0.0123 -0.0688 -0.0887
  287POPC   C2B 3995   2.520   6.669   5.399  0.1868  0.1332  0.1160
  287POPC   C3B 3996   2.576   6.341   5.674  0.1580  0.3251 -0.3070
  287POPC   C4B 3997   2.749   6.065   5.408 -0.1736  0.0995 -0.0446
  288POPC   NC3 3998   9.141   3.676   4.522 -0.3737  0.3308  0.0237
  288POPC   PO4 3999   9.193   3.793   4.991  0.1334 -0.2095 -0.0104
  288POPC   GL1 4000   9.253   3.535   5.327 -0.0479 -0.0543  0.2426
  288POPC   GL2 4001   9.231   3.147   5.437  0.0900 -0.1106 -0.1397
  288POPC   C1A 4002   9.518   3.448   5.690 -0.0749 -0.1136  0.2062
  288POPC   D2A 4003   9.438   3.198   6.051 -0.4080 -0.1593 -0.0637
  288POPC   C3A 4004   9.767   2.885   6.287 -0.1251 -0.1107 -0.2232
  288POPC   C4A 4005  10.015   2.682   6.597  0.1688 -0.1218 -0.0737
  288POPC   C1B 4006   8.975   3.274   5.676 -0.2922 -0.2320  0.1977
  288POPC   C2B 4007   8.960   3.433   5.972 -0.0922  0.0676  0.2203
  288POPC   C3B 4008   9.006   3.194   6.352  0.1099 -0.1321 -0.0409
  288POPC   C4B 4009   9.067   3.009   6.748  0.2529 -0.0647  0.2447
  289POPC   NC3 4010   2.484   7.121   4.025 -0.1390  0.0769 -0.1216
  289POPC   PO4 4011   2.110   7.052   4.175  0.3413  0.1417 -0.2874
  289POPC   GL1 4012   2.301   6.936   4.465 -0.0707  0.4600 -0.1629
  289POPC   GL2 4013   2.097   6.915   4.769 -0.0596 -0.0272  0.1388
  289POPC   C1A 4014   2.568   6.643   4.757  0.3145  0.1742 -0.1106
  289POPC   D2A 4015   2.572   6.104   4.799  0.0124  0.1633 -0.1559
  289POPC   C3A 4016   3.040   5.962   4.876 -0.0092 -0.1493 -0.2557
  289POPC   C4A 4017   3.459   5.820   4.840  0.0029  0.1219  0.1392
  289POPC   C1B 4018   1.972   6.773   5.168 -0.0029  0.1850 -0.3312
  289POPC   C2B 4019   2.016   6.610   5.597 -0.1313  0.0370 -0.2685
  289POPC   C3B 4020   2.142   6.341   5.920 -0.1313  0.2517 -0.0009
  289POPC   C4B 4021   2.507   6.051   6.053 -0.1631  0.2529 -0.1604
  290POPC   NC3 4022   1.191   6.627   4.326  0.0893 -0.0544 -0.1593
  290POPC   PO4 4023   1.731   6.804   4.379  0.1884 -0.2262 -0.5922
  290POPC   GL1 4024   1.505   6.555   4.744 -0.2165  0.2294 -0.1644
  290POPC   GL2 4025   1.390   6.268   4.687 -0.0831  0.1671 -0.0062
  290POPC   C1A 4026   1.423   6.505   5.175  0.0525  0.1340  0.1260
  290POPC   D2A 4027   1.493   6.530   5.611 -0.0463  0.1925  0.2933
  290POPC   C3A 4028   1.191   6.552   6.017 -0.6077 -0.0280  0.1833
  290POPC   C4A 4029   1.343   6.770   6.331  0.2627  0.0734  0.2430
  290POPC   C1B 4030   1.248   5.983   4.990  0.2702 -0.1419  0.0675
  290POPC   C2B 4031   1.294   5.731   5.348 -0.1234  0.1947 -0.1422
  290POPC   C3B 4032   1.519   5.683   5.716 -0.0013 -0.0250  0.0152
  290POPC   C4B 4033   1.603   5.673   6.087 -0.0235  0.0479 -0.1081
  291POPC   NC3 4034   9.467   5.011   4.281 -0.1843 -0.0041 -0.0768
  291POPC   PO4 4035   9.353   4.721   4.592  0.3191 -0.0226 -0.0040
  291POPC   GL1 4036   9.647   4.645   4.970  0.0646  0.1024  0.1172
  291POPC   GL2 4037   9.575   4.489   5.297 -0.2361  0.1049  0.2576
  291POPC   C1A 4038  10.037   4.549   5.266 -0.2576  0.0249  0.1432
  291POPC   D2A 4039  10.529   4.529   5.348  0.0960  0.1331 -0.4290
  291POPC   C3A 4040  10.601   4.736   5.641 -0.2045  0.1268 -0.1029
  291POPC   C4A 4041  10.272   4.887   5.932 -0.0863  0.1652 -0.1268
  291POPC   C1B 4042   9.563   4.307   5.707  0.1970 -0.0374 -0.4605
  291POPC   C2B 4043   9.625   4.327   6.202 -0.0814  0.0256 -0.0144
  291POPC   C3B 4044   9.371   4.640   6.414  0.1568 -0.2446  0.1149
  291POPC   C4B 4045   9.317   4.829   6.856 -0.1712 -0.0495 -0.0357
  292POPC   NC3 4046   3.849   8.528   5.303 -0.3105 -0.0329  0.3743
  292POPC   PO4 4047   3.627   8.944   5.488  0.0496 -0.0498  0.2737
  292POPC   GL1 4048   3.752   8.619   5.788  0.2584  0.3032 -0.3483
  292POPC   GL2 4049   3.776   8.282   5.761 -0.1272  0.1161 -0.0607
  292POPC   C1A 4050   3.967   8.764   6.173  0.0737 -0.0516 -0.1692
  292POPC   D2A 4051   4.069   8.610   6.573  0.0974  0.3152  0.1967
  292POPC   C3A 4052   3.783   8.726   6.864  0.0180  0.4044 -0.0096
  292POPC   C4A 4053   3.816   8.688   7.321 -0.1425  0.1516 -0.0745
  292POPC   C1B 4054   3.875   7.885   6.049 -0.0392 -0.2241  0.1154
  292POPC   C2B 4055   3.767   7.510   6.218 -0.0737 -0.1086  0.1959
  292POPC   C3B 4056   3.607   7.296   6.555  0.1567  0.1561  0.3800
  292POPC   C4B 4057   3.303   7.534   6.914 -0.1710  0.1678  0.1181
  293POPC   NC3 4058   0.130   2.187   4.947  0.1989 -0.1769  0.0726
  293POPC   PO4 4059  -0.152   2.472   4.819  0.3277  0.3753 -0.0610
  293POPC   GL1 4060  -0.326   2.404   5.246 -0.0859  0.1034  0.4962
  293POPC   GL2 4061  -0.023   2.385   5.383  0.0623 -0.1346 -0.2122
  293POPC   C1A 4062  -0.381   2.154   5.688 -0.0171 -0.3021 -0.0492
  293POPC   D2A 4063  -0.640   2.039   5.936  0.3497  0.1403 -0.1333
  293POPC   C3A 4064  -0.785   1.664   6.024 -0.0473 -0.1179 -0.0286
  293POPC   C4A 4065  -1.084   1.532   6.283 -0.0497 -0.1947  0.0120
  293POPC   C1B 4066  -0.160   2.581   5.779 -0.5519  0.0419 -0.3148
  293POPC   C2B 4067   0.058   2.705   6.139  0.0658 -0.1513  0.1030
  293POPC   C3B 4068   0.436   2.924   6.328  0.2197  0.0293 -0.1075
  293POPC   C4B 4069   0.744   3.231   6.338 -0.0742  0.2869 -0.1316
  294POPC   NC3 4070   5.705   7.997   5.222  0.1262 -0.0634 -0.1382
  294POPC   PO4 4071   5.431   7.631   5.065  0.0578 -0.1582 -0.2942
  294POPC   GL1 4072   5.087   7.589   5.432 -0.1335  0.0358  0.2048
  294POPC   GL2 4073   5.233   7.629   5.649 -0.2392 -0.2700  0.1686
  294POPC   C1A 4074   4.704   7.691   5.719 -0.0803  0.1363 -0.1382
  294POPC   D2A 4075   4.483   7.851   6.194 -0.0622  0.2015 -0.0736
  294POPC   C3A 4076   4.796   7.989   6.480 -0.2089 -0.2118  0.0322
  294POPC   C4A 4077   5.023   8.013   6.838  0.0718  0.0852 -0.0320
  294POPC   C1B 4078   5.224   7.666   6.031  0.0625  0.0916 -0.0282
  294POPC   C2B 4079   5.118   7.623   6.527  0.0075 -0.1335 -0.0608
  294POPC   C3B 4080   4.987   7.521   6.999 -0.0243  0.1251  0.4172
  294POPC   C4B 4081   4.617   7.488   7.282 -0.0497 -0.1150 -0.1328
  295POPC   NC3 4082   7.552   0.997   4.857 -0.0454  0.1059  0.1849
  295POPC   PO4 4083   7.462   1.162   5.258  0.2641  0.1614 -0.0089
  295POPC   GL1 4084   7.393   0.796   5.386  0.0144  0.1429 -0.0485
  295POPC   GL2 4085   7.206   0.950   5.700  0.2776  0.2110  0.0908
  295POPC   C1A 4086   7.456   0.462   5.775  0.1178  0.1886  0.2628
  295POPC   D2A 4087   7.122   0.181   6.002 -0.3600  0.1686 -0.0594
  295POPC   C3A 4088   7.041  -0.223   6.055  0.0576  0.1266  0.0763
  295POPC   C4A 4089   6.696  -0.615   6.270 -0.0673  0.0779 -0.0286
  295POPC   C1B 4090   7.209   0.871   6.226  0.1270  0.0447  0.1350
  295POPC   C2B 4091   7.069   1.040   6.634 -0.1625 -0.0072 -0.0555
  295POPC   C3B 4092   7.253   1.330   7.006  0.0882 -0.0054  0.2687
  295POPC   C4B 4093   7.529   1.597   7.217 -0.0448  0.1401  0.0014
  296POPC   NC3 4094   5.981   4.386   5.232 -0.3941  0.0459  0.0535
  296POPC   PO4 4095   6.280   4.597   5.445  0.1442  0.1524 -0.4354
  296POPC   GL1 4096   6.075   4.483   5.763  0.2973 -0.2061 -0.3160
  296POPC   GL2 4097   6.350   4.249   5.873 -0.1736 -0.1048  0.2779
  296POPC   C1A 4098   5.837   4.221   5.939  0.1393 -0.0198 -0.0023
  296POPC   D2A 4099   5.582   4.158   6.321  0.1814 -0.0303 -0.2318
  296POPC   C3A 4100   5.783   4.402   6.713  0.2943  0.0218  0.0265
  296POPC   C4A 4101   5.857   4.626   7.031 -0.0585 -0.0151 -0.0321
  296POPC   C1B 4102   6.572   3.791   6.069  0.1503  0.2322  0.0856
  296POPC   C2B 4103   6.605   3.609   6.557 -0.0604  0.4700 -0.1513
  296POPC   C3B 4104   6.406   3.394   7.074  0.1631 -0.2279  0.1846
  296POPC   C4B 4105   6.476   3.011   7.276  0.0682  0.1194 -0.2429
  297POPC   NC3 4106   1.397   2.795   3.966  0.1457 -0.0298  0.0805
  297POPC   PO4 4107   1.625   3.155   4.052  0.3639  0.1035  0.0533
  297POPC   GL1 4108   1.728   3.542   4.294  0.1628 -0.1732 -0.1648
  297POPC   GL2 4109   2.073   3.541   4.167  0.0170 -0.2810 -0.2350
  297POPC   C1A 4110   1.522   3.481   4.689  0.1853  0.1785  0.3011
  297POPC   D2A 4111   1.249   3.726   4.973 -0.0379 -0.2147  0.1423
  297POPC   C3A 4112   1.442   3.544   5.395 -0.2431 -0.0429  0.2273
  297POPC   C4A 4113   1.357   3.194   5.662  0.0258  0.2877  0.2814
  297POPC   C1B 4114   2.140   3.705   4.459  0.2238 -0.3215  0.6254
  297POPC   C2B 4115   2.438   3.502   4.652  0.1329 -0.1563 -0.1442
  297POPC   C3B 4116   2.610   3.602   5.099 -0.3218 -0.0139 -0.0538
  297POPC   C4B 4117   2.887   3.905   5.092 -0.0862 -0.1064 -0.3929
  298POPC   NC3 4118   5.654   5.055   4.696 -0.0724  0.0066 -0.1517
  298POPC   PO4 4119   5.721   4.817   5.099 -0.0143 -0.0530  0.1179
  298POPC   GL1 4120   5.684   4.781   5.536  0.1840 -0.1910 -0.0478
  298POPC   GL2 4121   5.558   4.499   5.582 -0.1175 -0.1395  0.2816
  298POPC   C1A 4122   5.809   4.839   5.956  0.0514 -0.0074  0.4426
  298POPC   D2A 4123   5.795   4.564   6.263 -0.2146 -0.1557 -0.2641
  298POPC   C3A 4124   6.160   4.390   6.331 -0.1760  0.2238  0.0410
  298POPC   C4A 4125   6.676   4.364   6.397  0.1274 -0.0461 -0.0895
  298POPC   C1B 4126   5.052   4.495   5.598 -0.1922 -0.2193  0.0986
  298POPC   C2B 4127   4.679   4.676   5.714 -0.0694  0.0370 -0.1588
  298POPC   C3B 4128   4.591   5.112   5.793 -0.0815  0.0778 -0.2846
  298POPC   C4B 4129   4.538   5.469   6.174 -0.2467  0.0661  0.0465
  299POPC   NC3 4130   2.204   2.520   4.245 -0.2494  0.3035 -0.1653
  299POPC   PO4 4131   1.846   2.612   4.064 -0.2742  0.0742  0.3733
  299POPC   GL1 4132   2.005   2.984   4.275 -0.1749  0.0794 -0.2856
  299POPC   GL2 4133   2.363   2.989   4.287 -0.2111  0.3456 -0.0976
  299POPC   C1A 4134   1.897   3.197   4.735  0.1339 -0.0579 -0.1040
  299POPC   D2A 4135   1.857   3.522   5.033 -0.0078 -0.1347 -0.3107
  299POPC   C3A 4136   2.146   3.754   5.039 -0.0723 -0.2175  0.2516
  299POPC   C4A 4137   2.479   3.997   4.795 -0.1375  0.2308  0.1600
  299POPC   C1B 4138   2.301   2.961   4.687 -0.1098 -0.0859 -0.1501
  299POPC   C2B 4139   2.268   3.169   5.040  0.0832  0.0436 -0.1548
  299POPC   C3B 4140   2.229   3.354   5.389 -0.2875 -0.0351 -0.4717
  299POPC   C4B 4141   2.463   3.626   5.563  0.4245 -0.0100 -0.2304
  300POPC   NC3 4142   3.402   3.615   3.416 -0.2717  0.0895 -0.3199
  300POPC   PO4 4143   3.672   3.630   3.736 -0.1549  0.2068  0.0416
  300POPC   GL1 4144   3.519   3.742   4.121 -0.0481  0.0182 -0.1654
  300POPC   GL2 4145   3.668   3.755   4.403  0.0973 -0.2813 -0.1026
  300POPC   C1A 4146   3.310   4.018   4.221  0.1125  0.0894 -0.0049
  300POPC   D2A 4147   3.337   4.404   4.375 -0.1027 -0.1109 -0.1447
  300POPC   C3A 4148   3.388   4.614   4.787  0.0643  0.0921 -0.2946
  300POPC   C4A 4149   3.265   4.373   5.215 -0.2449  0.4390 -0.0965
  300POPC   C1B 4150   3.364   3.905   4.781 -0.0293 -0.0759  0.3509
  300POPC   C2B 4151   3.397   3.909   5.185  0.0100 -0.1865 -0.1620
  300POPC   C3B 4152   3.227   3.891   5.637 -0.1471 -0.0123 -0.0001
  300POPC   C4B 4153   3.221   3.837   6.094  0.0686 -0.1020 -0.1250
  301POPC   NC3 4154   9.892   3.515   4.506 -0.1058  0.3068 -0.0443
  301POPC   PO4 4155   9.978   3.122   4.406 -0.3535  0.0367 -0.0737
  301POPC   GL1 4156  10.292   3.161   4.770  0.1362 -0.0207 -0.0480
  301POPC   GL2 4157  10.247   3.098   5.103  0.1713  0.0755 -0.1593
  301POPC   C1A 4158  10.677   3.295   4.924  0.2937 -0.0832 -0.0324
  301POPC   D2A 4159  10.988   3.617   5.188  0.1224  0.2393 -0.1110
  301POPC   C3A 4160  11.076   3.500   5.601 -0.0834  0.0019  0.0083
  301POPC   C4A 4161  11.140   3.422   5.943 -0.0125 -0.3746 -0.2585
  301POPC   C1B 4162  10.257   3.016   5.620 -0.1139 -0.3675  0.1587
  301POPC   C2B 4163   9.953   3.207   5.920  0.3515  0.0536 -0.0518
  301POPC   C3B 4164   9.873   3.554   6.239  0.2366  0.2094  0.3404
  301POPC   C4B 4165   9.761   3.863   6.513  0.0408  0.0693  0.1139
  302POPC   NC3 4166   8.158   0.339   4.973 -0.0684  0.2277 -0.0718
  302POPC   PO4 4167   8.421   0.614   5.097 -0.0517 -0.2053  0.1257
  302POPC   GL1 4168   8.323   0.582   5.521 -0.2892 -0.0764  0.1487
  302POPC   GL2 4169   8.544   0.568   5.815  0.0166  0.2112  0.3441
  302POPC   C1A 4170   8.074   0.461   5.888  0.0307 -0.1724  0.1702
  302POPC   D2A 4171   7.719   0.408   6.213  0.1555  0.0506  0.2180
  302POPC   C3A 4172   7.388   0.055   6.383 -0.3413  0.0713 -0.2020
  302POPC   C4A 4173   7.111  -0.081   6.669  0.0905  0.0262 -0.0325
  302POPC   C1B 4174   8.362   0.929   6.080 -0.0951 -0.2976 -0.2884
  302POPC   C2B 4175   8.202   1.306   6.397  0.0846 -0.0742 -0.5056
  302POPC   C3B 4176   8.257   1.660   6.721  0.0336 -0.2120 -0.0346
  302POPC   C4B 4177   8.349   2.059   6.956  0.0485 -0.1631 -0.1997
  303POPC   NC3 4178   2.061   8.190   5.249  0.0481 -0.0693 -0.0751
  303POPC   PO4 4179   2.216   8.101   4.859 -0.0849 -0.0375 -0.2688
  303POPC   GL1 4180   2.209   7.736   5.273  0.0236  0.2465 -0.2029
  303POPC   GL2 4181   2.169   7.893   5.644  0.0492 -0.3190 -0.0930
  303POPC   C1A 4182   2.432   7.465   5.577 -0.1175 -0.1125 -0.1138
  303POPC   D2A 4183   2.596   7.479   5.922 -0.0924 -0.1583 -0.4114
  303POPC   C3A 4184   2.429   7.607   6.304 -0.2334 -0.0176 -0.1648
  303POPC   C4A 4185   2.325   7.197   6.591 -0.2635  0.0523  0.3043
  303POPC   C1B 4186   2.000   7.678   5.943 -0.3112 -0.1735 -0.0165
  303POPC   C2B 4187   2.092   7.288   6.028 -0.2440 -0.0536  0.1012
  303POPC   C3B 4188   2.074   6.848   6.096  0.2943 -0.0299  0.3093
  303POPC   C4B 4189   1.840   6.512   6.256  0.2535 -0.1602  0.0539
  304POPC   NC3 4190   4.221   1.021   4.967  0.0003 -0.3930  0.0529
  304POPC   PO4 4191   3.848   0.998   5.239  0.4633 -0.1085  0.0468
  304POPC   GL1 4192   3.713   0.901   5.578  0.2156 -0.1880 -0.0663
  304POPC   GL2 4193   3.916   0.730   5.809 -0.0222 -0.4745  0.2277
  304POPC   C1A 4194   3.431   1.005   5.930 -0.0107 -0.0654  0.0406
  304POPC   D2A 4195   3.537   0.915   6.354 -0.3482  0.0715 -0.1426
  304POPC   C3A 4196   3.506   0.626   6.828 -0.0109  0.1416 -0.3881
  304POPC   C4A 4197   3.661   0.257   7.062  0.1752 -0.0300  0.0665
  304POPC   C1B 4198   4.002   0.522   6.270  0.2902 -0.2027  0.0784
  304POPC   C2B 4199   3.644   0.308   6.467  0.4999  0.0766 -0.1858
  304POPC   C3B 4200   3.205   0.244   6.783  0.4498  0.2124  0.0374
  304POPC   C4B 4201   2.960  -0.094   6.844 -0.1501 -0.1450  0.1171
  305POPC   NC3 4202   2.766   1.046   5.372 -0.2501  0.0443 -0.0959
  305POPC   PO4 4203   2.962   1.314   4.935  0.1554  0.2437  0.0976
  305POPC   GL1 4204   3.118   1.535   5.327  0.1515 -0.3360  0.2044
  305POPC   GL2 4205   3.182   1.417   5.610 -0.0874 -0.0786 -0.3169
  305POPC   C1A 4206   2.884   1.882   5.590 -0.1795  0.1242 -0.1885
  305POPC   D2A 4207   2.641   2.010   5.993  0.2980  0.3248 -0.1300
  305POPC   C3A 4208   2.601   1.607   6.315  0.1239  0.2675 -0.2275
  305POPC   C4A 4209   2.725   1.415   6.688  0.0937  0.1586  0.0840
  305POPC   C1B 4210   3.579   1.417   5.738 -0.1050  0.1984  0.1549
  305POPC   C2B 4211   3.758   1.607   6.084 -0.0017  0.0890  0.3634
  305POPC   C3B 4212   3.765   1.406   6.434  0.0575 -0.1229 -0.2330
  305POPC   C4B 4213   3.964   1.567   6.810  0.1175  0.2344 -0.0844
  306POPC   NC3 4214   7.797  10.045   5.278 -0.2706 -0.0744  0.1728
  306POPC   PO4 4215   8.181   9.823   5.329 -0.1108  0.1281  0.0015
  306POPC   GL1 4216   8.176   9.811   5.770 -0.1614 -0.1028 -0.1178
  306POPC   GL2 4217   8.497   9.806   5.872  0.3820  0.0757 -0.0863
  306POPC   C1A 4218   8.054   9.758   6.236  0.0119 -0.0159  0.5718
  306POPC   D2A 4219   7.882   9.976   6.533 -0.3159 -0.1156  0.2000
  306POPC   C3A 4220   7.992  10.419   6.653  0.0392 -0.2120 -0.0116
  306POPC   C4A 4221   8.236  10.654   6.868 -0.0268  0.0909 -0.2369
  306POPC   C1B 4222   8.683  10.222   5.769  0.1052  0.3262  0.4245
  306POPC   C2B 4223   8.741  10.298   6.223 -0.1917  0.1792  0.0040
  306POPC   C3B 4224   8.712  10.453   6.586 -0.1166 -0.1881 -0.1926
  306POPC   C4B 4225   8.959  10.773   6.764 -0.0363  0.0206 -0.1759
  307POPC   NC3 4226   8.590   2.439   4.950 -0.0579 -0.0206 -0.1797
  307POPC   PO4 4227   8.525   2.016   5.096 -0.0403 -0.0923 -0.0128
  307POPC   GL1 4228   8.562   1.678   5.400  0.0174 -0.1191 -0.1932
  307POPC   GL2 4229   8.175   1.720   5.538 -0.1488 -0.3909 -0.0312
  307POPC   C1A 4230   8.609   1.682   5.880  0.5741 -0.0774  0.1375
  307POPC   D2A 4231   8.564   1.642   6.243 -0.0818 -0.0205 -0.0763
  307POPC   C3A 4232   8.679   1.379   6.547  0.3080 -0.1865  0.2979
  307POPC   C4A 4233   8.470   0.938   6.529 -0.1056 -0.0507  0.3472
  307POPC   C1B 4234   8.269   2.082   5.741  0.1472  0.0361  0.1358
  307POPC   C2B 4235   8.631   2.319   5.933  0.0307 -0.1522 -0.1961
  307POPC   C3B 4236   8.658   2.443   6.438 -0.1915  0.0034  0.1950
  307POPC   C4B 4237   8.627   2.747   6.857 -0.0890  0.3076 -0.0375
  308POPC   NC3 4238   0.410  10.119   5.620 -0.0768 -0.0648  0.3435
  308POPC   PO4 4239   0.741  10.426   5.726  0.2671  0.1559  0.3530
  308POPC   GL1 4240   0.742  10.705   6.002  0.0397 -0.0092 -0.1182
  308POPC   GL2 4241   0.447  10.837   6.088 -0.0157 -0.3105  0.1147
  308POPC   C1A 4242   0.864  11.054   6.218  0.0074  0.1450 -0.2903
  308POPC   D2A 4243   0.913  11.061   6.694 -0.0334 -0.0900  0.1495
  308POPC   C3A 4244   0.576  11.155   6.862  0.0767 -0.1218  0.0690
  308POPC   C4A 4245   0.310  10.880   7.033 -0.1931 -0.2278  0.1768
  308POPC   C1B 4246   0.550  10.799   6.481  0.1434  0.3217 -0.1649
  308POPC   C2B 4247   0.679  10.599   6.817 -0.0977 -0.0321  0.2857
  308POPC   C3B 4248   0.952  10.342   7.043  0.2111  0.0850 -0.0064
  308POPC   C4B 4249   1.104  10.457   7.515  0.1016 -0.0694 -0.0849
  309POPC   NC3 4250   5.951  10.010   5.310  0.0451  0.0967  0.3452
  309POPC   PO4 4251   5.586  10.308   5.173  0.0844 -0.2672 -0.4385
  309POPC   GL1 4252   5.570  10.335   5.635 -0.1681  0.1586  0.1483
  309POPC   GL2 4253   5.765  10.442   5.781 -0.2775  0.4025  0.2257
  309POPC   C1A 4254   5.371  10.180   6.073 -0.0736  0.0889  0.1972
  309POPC   D2A 4255   5.117  10.135   6.460  0.1264 -0.2301  0.1804
  309POPC   C3A 4256   4.751   9.932   6.479  0.1143  0.2310  0.0072
  309POPC   C4A 4257   4.335   9.878   6.603  0.0944  0.0210  0.1135
  309POPC   C1B 4258   5.358  10.657   6.033  0.0091 -0.2550  0.1295
  309POPC   C2B 4259   5.348  10.599   6.492 -0.0431 -0.3225 -0.1857
  309POPC   C3B 4260   5.242  10.818   6.874  0.1002 -0.0218 -0.3806
  309POPC   C4B 4261   5.013  10.571   7.247 -0.0249  0.1802  0.0501
  310POPC   NC3 4262   3.196   8.834   5.074  0.1063 -0.1069 -0.0461
  310POPC   PO4 4263   2.852   8.740   5.338 -0.2401 -0.0416  0.0989
  310POPC   GL1 4264   2.701   8.644   5.781  0.1523 -0.2854  0.1716
  310POPC   GL2 4265   2.498   8.898   5.970  0.1146  0.3486 -0.2941
  310POPC   C1A 4266   2.867   8.672   6.211 -0.3357  0.3133 -0.1750
  310POPC   D2A 4267   2.966   8.864   6.607  0.0522 -0.0011  0.0762
  310POPC   C3A 4268   3.059   9.137   6.849  0.2052 -0.2323 -0.2232
  310POPC   C4A 4269   3.257   9.518   6.889  0.1955  0.0495  0.0034
  310POPC   C1B 4270   2.601   9.112   6.314  0.2518 -0.0603  0.3555
  310POPC   C2B 4271   2.490   9.148   6.735 -0.0725  0.1791 -0.1715
  310POPC   C3B 4272   2.688   9.318   7.170  0.0394  0.3501  0.3971
  310POPC   C4B 4273   2.794   9.648   7.267 -0.1649 -0.2197 -0.1367
  311POPC   NC3 4274   9.808   0.209   5.235 -0.1560  0.1396 -0.2936
  311POPC   PO4 4275   9.650   0.631   5.426  0.0160  0.4575 -0.2647
  311POPC   GL1 4276   9.668   0.237   5.730 -0.1664 -0.0209  0.0690
  311POPC   GL2 4277   9.830  -0.117   5.641 -0.0308 -0.0164  0.2622
  311POPC   C1A 4278   9.623   0.233   6.082  0.0466 -0.0269 -0.0130
  311POPC   D2A 4279   9.768   0.096   6.426 -0.2244 -0.0506 -0.0904
  311POPC   C3A 4280   9.536  -0.225   6.775  0.2654  0.0243 -0.1334
  311POPC   C4A 4281   9.171  -0.339   6.882  0.0098 -0.0068  0.0538
  311POPC   C1B 4282  10.003  -0.127   6.015 -0.1810 -0.0883 -0.0510
  311POPC   C2B 4283  10.181  -0.196   6.274  0.0343  0.0597  0.1596
  311POPC   C3B 4284  10.552  -0.368   6.434 -0.0325  0.0584 -0.2419
  311POPC   C4B 4285  10.814  -0.214   6.857 -0.0848  0.1832  0.0943
  312POPC   NC3 4286   7.954   6.332   5.150 -0.0305 -0.1894 -0.2227
  312POPC   PO4 4287   8.473   6.403   5.122 -0.1253 -0.0313 -0.2578
  312POPC   GL1 4288   8.557   6.616   5.553  0.0479 -0.1881 -0.1891
  312POPC   GL2 4289   8.277   6.625   5.578  0.0174  0.2562  0.6003
  312POPC   C1A 4290   8.660   6.594   5.988  0.0747 -0.0046  0.0036
  312POPC   D2A 4291   8.798   6.639   6.443 -0.1200  0.0111  0.4053
  312POPC   C3A 4292   8.692   6.340   6.652 -0.0097  0.2902 -0.3227
  312POPC   C4A 4293   8.972   5.931   6.750  0.1968  0.0063  0.0322
  312POPC   C1B 4294   8.141   6.655   5.948  0.2061  0.1488 -0.5159
  312POPC   C2B 4295   8.131   6.493   6.357  0.3144  0.0189  0.1893
  312POPC   C3B 4296   8.215   6.417   6.899  0.0818 -0.2753  0.1754
  312POPC   C4B 4297   8.174   6.413   7.287 -0.1944  0.1657  0.0302
  313POPC   NC3 4298   9.690   6.458   5.212 -0.3329  0.1763 -0.5243
  313POPC   PO4 4299   9.723   6.122   5.026  0.1011  0.0109  0.2138
  313POPC   GL1 4300   9.833   6.023   5.376  0.2031  0.4867 -0.0247
  313POPC   GL2 4301  10.051   6.277   5.515 -0.2375  0.0019 -0.2238
  313POPC   C1A 4302   9.875   5.769   5.686 -0.3114  0.0784  0.1724
  313POPC   D2A 4303   9.625   5.523   5.988  0.1065  0.3360 -0.0304
  313POPC   C3A 4304   9.829   5.543   6.329 -0.1387  0.0119 -0.0724
  313POPC   C4A 4305  10.197   5.475   6.568  0.2176  0.0256 -0.0341
  313POPC   C1B 4306  10.325   6.278   5.959  0.0423  0.4603 -0.0819
  313POPC   C2B 4307  10.770   6.242   6.035  0.3412  0.2518  0.4121
  313POPC   C3B 4308  11.083   6.056   6.102  0.1769  0.0195  0.0662
  313POPC   C4B 4309  11.347   5.894   6.336 -0.2357  0.0607 -0.0082
  314POPC   NC3 4310   2.751  10.066   5.275 -0.1338  0.1152  0.0156
  314POPC   PO4 4311   2.636   9.704   5.569 -0.1642 -0.2375  0.0843
  314POPC   GL1 4312   2.539   9.605   5.985  0.1527  0.0781  0.1722
  314POPC   GL2 4313   2.341   9.898   5.970 -0.2857  0.1271  0.0373
  314POPC   C1A 4314   2.270   9.563   6.364 -0.1491  0.2283 -0.0076
  314POPC   D2A 4315   2.056   9.638   6.662 -0.0834 -0.0283 -0.0649
  314POPC   C3A 4316   1.874   9.310   6.867 -0.1273  0.0398  0.2573
  314POPC   C4A 4317   2.268   9.012   7.151  0.0422 -0.1950  0.0512
  314POPC   C1B 4318   2.482  10.038   6.305 -0.3189  0.2559 -0.3522
  314POPC   C2B 4319   2.477   9.903   6.792  0.2917  0.0683 -0.0320
  314POPC   C3B 4320   2.350   9.637   7.052 -0.3947 -0.1615 -0.0584
  314POPC   C4B 4321   2.012   9.404   7.335 -0.0982 -0.0111  0.1111
  315POPC   NC3 4322   1.650   6.283   3.219  0.1821  0.0591 -0.1537
  315POPC   PO4 4323   1.395   6.212   3.620  0.1328 -0.0548 -0.0336
  315POPC   GL1 4324   1.654   5.944   3.930 -0.0443  0.0586 -0.0730
  315POPC   GL2 4325   1.734   6.205   4.147  0.0792 -0.2323 -0.0778
  315POPC   C1A 4326   1.443   5.751   4.262  0.0287  0.1477 -0.0586
  315POPC   D2A 4327   1.229   5.622   4.620 -0.0208  0.3793  0.1335
  315POPC   C3A 4328   1.316   5.431   4.931 -0.1094 -0.0762  0.0969
  315POPC   C4A 4329   1.149   5.228   5.316 -0.1670 -0.2540  0.4216
  315POPC   C1B 4330   1.965   6.035   4.445  0.2564 -0.1035 -0.0333
  315POPC   C2B 4331   2.216   5.781   4.710 -0.0372 -0.2752  0.0346
  315POPC   C3B 4332   2.198   5.854   5.204 -0.3182  0.1678  0.3895
  315POPC   C4B 4333   2.233   5.862   5.678  0.2490  0.2744 -0.2010
  316POPC   NC3 4334   2.287   5.026   3.195 -0.0527  0.0948  0.1179
  316POPC   PO4 4335   2.731   5.254   3.164 -0.0038 -0.0626  0.1249
  316POPC   GL1 4336   2.603   5.164   3.565 -0.1038  0.0957  0.0341
  316POPC   GL2 4337   2.522   5.388   3.768  0.0736  0.2232  0.0247
  316POPC   C1A 4338   2.719   4.998   4.027  0.0628  0.1296  0.2521
  316POPC   D2A 4339   2.530   4.896   4.441 -0.0272 -0.1731  0.0907
  316POPC   C3A 4340   2.611   4.943   4.938 -0.2048  0.2016 -0.0354
  316POPC   C4A 4341   2.790   5.207   5.261  0.2213  0.0471 -0.0666
  316POPC   C1B 4342   2.648   5.470   4.247  0.1405  0.2572 -0.0179
  316POPC   C2B 4343   2.753   5.721   4.589  0.1098 -0.1101  0.1736
  316POPC   C3B 4344   2.697   5.715   5.102 -0.1243 -0.0798  0.0241
  316POPC   C4B 4345   2.638   5.599   5.468 -0.1120 -0.2588 -0.0683
  317POPC   NC3 4346   3.963   2.339   4.788 -0.0977 -0.0914  0.2352
  317POPC   PO4 4347   3.818   1.903   4.970  0.2577  0.1499  0.2635
  317POPC   GL1 4348   3.788   2.021   5.376 -0.0230  0.1021 -0.0681
  317POPC   GL2 4349   3.430   1.926   5.367 -0.1821 -0.4036 -0.1478
  317POPC   C1A 4350   3.783   1.991   5.769 -0.2290  0.2178 -0.1771
  317POPC   D2A 4351   4.186   2.155   5.984  0.2058  0.0953  0.5692
  317POPC   C3A 4352   4.494   1.870   6.107  0.0712  0.0561  0.0018
  317POPC   C4A 4353   4.698   1.903   6.515  0.0022 -0.0521  0.3203
  317POPC   C1B 4354   3.318   1.843   5.830  0.0625  0.2815  0.0920
  317POPC   C2B 4355   3.241   1.516   6.125 -0.0425 -0.0889  0.0512
  317POPC   C3B 4356   3.296   1.482   6.543  0.0823  0.1620 -0.2818
  317POPC   C4B 4357   3.112   1.380   6.999 -0.1201  0.1097  0.1348
  318POPC   NC3 4358   7.265   3.638   4.677 -0.0982 -0.1464 -0.0750
  318POPC   PO4 4359   7.203   3.907   5.000 -0.1186  0.0227  0.0743
  318POPC   GL1 4360   7.279   3.664   5.334  0.0925  0.0122 -0.1225
  318POPC   GL2 4361   7.128   3.777   5.594  0.0529  0.0887  0.0227
  318POPC   C1A 4362   7.629   3.592   5.738 -0.1286 -0.0025  0.1321
  318POPC   D2A 4363   7.719   3.361   6.148 -0.0895  0.0477 -0.2171
  318POPC   C3A 4364   8.059   3.385   6.365 -0.1643 -0.1288  0.0013
  318POPC   C4A 4365   8.190   3.487   6.795 -0.0090  0.1708 -0.4072
  318POPC   C1B 4366   7.377   3.850   6.041  0.4378 -0.0537  0.2609
  318POPC   C2B 4367   7.391   4.048   6.529  0.2378  0.2408  0.1130
  318POPC   C3B 4368   7.426   4.142   6.992  0.1745 -0.2684  0.0205
  318POPC   C4B 4369   7.100   4.201   7.244  0.3416 -0.0412 -0.2241
  319W        W 4370   2.874   7.939  12.455  0.0534 -0.0608  0.0772
  320W        W 4371   3.969   9.043  12.106  0.3504  0.2326 -0.0602
  321W        W 4372   8.259   5.301   9.357 -0.0556 -0.1497 -0.6495
  322W        W 4373   0.059   7.719   0.326 -0.0061  0.0146  0.1271
  323W        W 4374   4.020   8.808   1.465  0.2069  0.1241  0.1622
  324W        W 4375   3.837   6.883   9.544  0.2579 -0.1436  0.3209
  325W        W 4376   6.827   9.122  13.657  0.0426 -0.1512 -0.0355
  326W        W 4377   2.371   3.371  11.511  0.1412  0.3199 -0.3701
  327W        W 4378   5.865   1.811   3.770  0.1243 -0.3117  0.0613
  328W        W 4379   0.017   6.039  12.410 -0.0994  0.0638 -0.0274
  329W        W 4380   0.036   7.811  12.053 -0.0713 -0.0523  0.0687
  330W        W 4381   2.320   2.221   3.766 -0.0822 -0.1245 -0.0336
  331W        W 4382   9.932   2.297  13.189 -0.0386  0.0655 -0.0783
  332W        W 4383   6.517   6.440   0.699  0.2502  0.1431  0.1816
  333W        W 4384   3.940   5.215   1.380  0.1822  0.2314  0.2572
  334W        W 4385   3.250   2.635   0.071 -0.2113  0.0870 -0.0451
  335W        W 4386   4.220   5.924  11.611  0.0868  0.2801 -0.4385
  336W        W 4387   1.655   2.094   1.455 -0.1534 -0.2568  0.2621
  337W        W 4388   7.646   3.429   4.953  0.1030 -0.0946 -0.1770
  338W        W 4389   7.281   9.477  10.875  0.1564 -0.5292  0.1198
  339W        W 4390   1.373   0.242  13.052 -0.3150 -0.0650  0.0236
  340W        W 4391   2.598   0.175   0.045 -0.0826 -0.0115  0.0995
  341W        W 4392   9.342  10.153  11.330 -0.2997  0.0058  0.3865
  342W        W 4393   9.681   2.212   2.177  0.0283  0.3232  0.1458
  343W        W 4394   6.936   4.360  13.398  0.0619 -0.1486 -0.0463
  344W        W 4395   0.848   2.712  13.875 -0.1357 -0.0810  0.3223
  345W        W 4396   7.225   5.980  12.045  0.0517  0.1981 -0.0836
  346W        W 4397   8.529   5.221   3.921 -0.0396  0.2207 -0.3188
  347W        W 4398   1.961   7.746   9.838  0.0773 -0.2182  0.0713
  348W        W 4399   3.729   1.806   3.506  0.0728 -0.2488 -0.4543
  349W        W 4400   0.164   3.655  12.102 -0.1731  0.0045  0.3116
  350W        W 4401   4.621   4.568   3.605  0.0685 -0.1304  0.0986
  351W        W 4402   7.847   6.233   1.437 -0.2196 -0.0554 -0.5324
  352W        W 4403   6.937   9.562  10.504 -0.0043 -0.0904 -0.2109
  353W        W 4404   3.898  10.062   0.461 -0.0676  0.2205  0.1213
  354W        W 4405   7.023   8.716   9.260 -0.2286  0.2945  0.0965
  355W        W 4406   2.054   5.740   1.567  0.0073  0.0392 -0.1818
  356W        W 4407   8.764   1.450  11.475  0.3003 -0.2222  0.2382
  357W        W 4408   8.591   1.566   1.899 -0.2506 -0.1596  0.0681
  358W        W 4409   1.082   4.909  11.182 -0.0164  0.0987 -0.0434
  359W        W 4410   0.304   0.905   4.204  0.1374 -0.0600  0.3560
  360W        W 4411   4.136   4.886   9.668 -0.0314 -0.0919 -0.3425
  361W        W 4412   2.399   9.648   4.410 -0.1030  0.0303 -0.1551
  362W        W 4413   3.172   1.676  11.552  0.0733  0.3715  0.2952
  363W        W 4414   9.961   5.241  11.746  0.0212 -0.2843 -0.1418
  364W        W 4415   2.394   8.049  13.666  0.3072 -0.0433 -0.2569
  365W        W 4416   5.538   1.466  13.766  0.0182 -0.0011 -0.0287
  366W        W 4417   4.019   8.198   3.041  0.0856 -0.1919  0.5331
  367W        W 4418   6.337   6.467  13.555 -0.4141  0.1581  0.0353
  368W        W 4419   4.466   4.148  11.529  0.0596 -0.2755 -0.2058
  369W        W 4420   9.467   5.950   2.483 -0.0268  0.0002 -0.0643
  370W        W 4421   8.334   1.452   9.250  0.0781  0.0879 -0.0590
  371W        W 4422   5.751   3.706  13.921 -0.0199 -0.0171 -0.0934
  372W        W 4423   4.130   3.417  11.887 -0.2765 -0.1083 -0.0017
  373W        W 4424   8.007   5.784   1.578 -0.0507  0.0468  0.0260
  374W        W 4425   8.674   5.770  11.934  0.1409 -0.1585 -0.0306
  375W        W 4426   3.893   3.941  12.363  0.3510  0.3948 -0.2341
  376W        W 4427   9.651   3.883   0.089  0.1130 -0.0379  0.3398
  377W        W 4428   5.243   5.438  10.671  0.1406  0.0148  0.1389
  378W        W 4429   3.467   1.375  12.279 -0.0394 -0.2009 -0.2735
  379W        W 4430   1.112   6.089   4.052  0.1002 -0.2005  0.0694
  380W        W 4431   0.223   3.290   9.585 -0.2975  0.1331 -0.1509
  381W        W 4432   8.040   8.100  11.999  0.3362 -0.1873 -0.0681
  382W        W 4433   3.149   4.211  10.854  0.0429 -0.0292  0.1995
  383W        W 4434   4.364   1.953   3.620  0.0370 -0.0524  0.0102
  384W        W 4435  10.034   9.172  10.918  0.1250  0.1350 -0.1553
  385W        W 4436   6.341   4.173   9.709  0.0040  0.1458 -0.2512
  386W        W 4437   9.820   6.884   2.674  0.1291 -0.1830 -0.0104
  387W        W 4438   7.382   5.408   4.366 -0.0904  0.1804 -0.0498
  388W        W 4439   4.327   4.488  11.845  0.1224  0.1742  0.1608
  389W        W 4440   2.473   7.067   3.551  0.1186  0.2168  0.1701
  390W        W 4441   8.435   5.639   9.757 -0.2266 -0.5690  0.0479
  391W        W 4442   6.641   6.879   2.818 -0.0733 -0.0706  0.1553
  392W        W 4443   5.185  10.159  13.328 -0.0664 -0.1692 -0.1103
  393W        W 4444   4.206   6.008  12.526  0.0352 -0.0247  0.0300
  394W        W 4445   0.722   4.112  10.970  0.0740  0.1892  0.0727
  395W        W 4446   5.133   1.761   1.536 -0.1245 -0.0215  0.1401
  396W        W 4447   3.950   0.681  11.403 -0.0986 -0.2914 -0.1040
  397W        W 4448   2.553   4.977   0.860  0.1029  0.0429 -0.0694
  398W        W 4449   9.888   5.120  13.078 -0.1754  0.0440 -0.2475
  399W        W 4450   0.809   1.623   4.153  0.0352 -0.0711 -0.1083
  400W        W 4451   7.731   2.257   4.929 -0.1490 -0.1343  0.0204
  401W        W 4452   7.364   1.496  11.229  0.1820  0.0874 -0.0545
  402W        W 4453   9.181   6.070   9.412 -0.1345 -0.3732 -0.0813
  403W        W 4454   1.822   7.727   3.110 -0.1821 -0.0049  0.0143
  404W        W 4455   0.633   9.054   0.793 -0.0039 -0.2397 -0.0858
  405W        W 4456   3.049   5.972  13.884 -0.1802  0.2745 -0.1708
  406W        W 4457   9.703   8.490  10.081 -0.0347  0.1188 -0.0807
  407W        W 4458   4.440   1.945  13.549  0.3040 -0.4015 -0.3119
  408W        W 4459   6.494   5.789   1.659 -0.1444 -0.5735  0.3785
  409W        W 4460   5.424   7.055  13.319 -0.0335  0.1456  0.1691
  410W        W 4461   7.052   3.204  11.631 -0.2832 -0.1916 -0.0688
  411W        W 4462   7.859   2.353   9.701 -0.1897 -0.1317  0.1677
  412W        W 4463   0.343   5.806  13.267  0.0737  0.0119 -0.0664
  413W        W 4464   9.019   0.258   9.097  0.0041 -0.0478 -0.1414
  414W        W 4465   5.869   0.301   2.664 -0.1621 -0.0496 -0.2001
  415W        W 4466   8.466   3.584  13.367 -0.1759  0.0212  0.0235
  416W        W 4467   5.989   4.232   9.351 -0.2413 -0.1750  0.1441
  417W        W 4468   0.281   0.684   2.126  0.0172 -0.0188  0.0710
  418W        W 4469   7.784   1.498   9.454 -0.3291  0.3121  0.2073
  419W        W 4470   2.444   0.175  12.390 -0.0112  0.0950  0.0614
  420W        W 4471   5.966   9.902  11.503 -0.1784 -0.2570 -0.1420
  421W        W 4472   7.524   4.414  13.443  0.1417 -0.2675  0.3869
  422W        W 4473   9.913   3.333   0.169 -0.0614 -0.0025  0.1226
  423W        W 4474   9.178   8.736  12.042  0.2553  0.3242 -0.0024
  424W        W 4475   8.010   0.941   2.399  0.0482  0.2065  0.2217
  425W        W 4476   7.760   8.754  13.824  0.1023  0.0800 -0.3022
  426W        W 4477   4.741   5.010   0.845  0.0577  0.0628 -0.2867
  427W        W 4478   3.427   3.843  11.561 -0.2615  0.1798  0.0302
  428W        W 4479   4.161   4.190   3.021 -0.2503 -0.0224 -0.0133
  429W        W 4480   8.975  10.120   4.509 -0.3115  0.2544 -0.0144
  430W        W 4481   9.089   4.951   9.781 -0.5353  0.7084  0.0638
  431W        W 4482   9.099   0.159   9.582  0.5581  0.0135  0.3552
  432W        W 4483   2.765   3.016  13.735  0.0789 -0.1045  0.0705
  433W        W 4484   6.222   7.607   0.112 -0.0652  0.2638 -0.3403
  434W        W 4485   0.516   7.446   4.508  0.2932  0.1947  0.0142
  435W        W 4486   6.355   2.598   1.947  0.2851 -0.3613  0.0900
  436W        W 4487   6.508   3.063  12.429 -0.0834 -0.0884  0.0184
  437W        W 4488   9.324   4.992   3.327 -0.1937 -0.1159  0.4830
  438W        W 4489   6.211   7.806  11.193  0.0439  0.3467 -0.0804
  439W        W 4490   1.006   9.412   4.433  0.1408  0.2435  0.0395
  440W        W 4491   0.462   0.003   1.071 -0.1976  0.1396  0.1480
  441W        W 4492   0.990   2.527   2.093  0.2506  0.0549 -0.2082
  442W        W 4493   6.831   9.227   5.068 -0.0850 -0.1412  0.2519
  443W        W 4494   6.933   6.109   9.894 -0.1937  0.0634 -0.0986
  444W        W 4495   9.538   8.472   3.352  0.0623  0.1835 -0.1925
  445W        W 4496   6.235   6.732  11.176  0.2099 -0.1196 -0.1830
  446W        W 4497   7.088   8.688  13.487 -0.0051  0.5169 -0.0518
  447W        W 4498   7.856   7.997   1.264  0.0160 -0.0375 -0.3256
  448W        W 4499   4.691   2.713  13.736  0.1335  0.1398 -0.1444
  449W        W 4500  10.026   5.567  12.210 -0.1390 -0.3651  0.1343
  450W        W 4501   8.686   7.377  10.303 -0.1866  0.0481  0.1812
  451W        W 4502   7.398   1.222   2.974 -0.4819  0.3468 -0.1405
  452W        W 4503   5.520   9.840   5.127  0.0546 -0.3611 -0.0898
  453W        W 4504   2.049   2.602  11.814 -0.4893  0.1033  0.0170
  454W        W 4505   1.140   5.877   1.024  0.0299  0.1285  0.2003
  455W        W 4506   2.247   2.944  12.591  0.1004 -0.2097  0.0019
  456W        W 4507   6.528   4.332   2.826  0.3238  0.1585 -0.0366
  457W        W 4508   1.442   6.491   1.676  0.1292 -0.0029 -0.0031
  458W        W 4509   6.376   1.227   1.105  0.0100 -0.0965  0.0928
  459W        W 4510   1.550   7.029   4.929  0.1860  0.3515 -0.0726
  460W        W 4511   3.171   8.850   5.813 -0.1563  0.1782 -0.1008
  461W        W 4512   7.465   8.189   5.051  0.1540 -0.0701 -0.0301
  462W        W 4513   0.789   4.724  12.777  0.0746 -0.3491 -0.3036
  463W        W 4514   1.895   9.568   9.601  0.0405  0.3525  0.0276
  464W        W 4515   1.570   0.471   4.524  0.2365  0.2287 -0.1827
  465W        W 4516   1.521   5.676   1.796  0.1094 -0.0548 -0.5913
  466W        W 4517   2.971   8.918  11.980  0.1808 -0.1120  0.1853
  467W        W 4518   2.180   6.277   2.281 -0.1027  0.1650  0.0814
  468W        W 4519   9.809   0.279  12.623 -0.2871  0.0130 -0.0255
  469W        W 4520   0.869   3.269   2.614 -0.3394 -0.1078  0.2806
  470W        W 4521   1.603   8.286   4.982 -0.2923  0.1600 -0.1025
  471W        W 4522   1.565   0.027   3.220  0.1781  0.1733 -0.0147
  472W        W 4523   5.438   9.594   9.676 -0.2561  0.0898  0.1621
  473W        W 4524   6.791   6.569  13.713 -0.2347 -0.0918  0.2267
  474W        W 4525   5.189   1.299  11.853  0.0433 -0.0216 -0.0638
  475W        W 4526   0.966   5.580   4.043  0.2004  0.0782 -0.3452
  476W        W 4527   4.426   5.992   1.889 -0.2723  0.1098 -0.0269
  477W        W 4528   9.325   7.585  13.820  0.0413  0.0934  0.4537
  478W        W 4529   1.426   0.950   5.408 -0.1664 -0.0529  0.1086
  479W        W 4530   2.533   2.341   2.874 -0.0332  0.0341 -0.3379
  480W        W 4531   1.284   6.823   0.115 -0.1678  0.1775 -0.4343
  481W        W 4532   1.835   0.131   2.020 -0.0896  0.1428  0.0247
  482W        W 4533   9.968   9.365   3.783 -0.3452  0.0085 -0.2339
  483W        W 4534   9.181   2.108  12.937  0.1439  0.0067 -0.0515
  484W        W 4535   5.335   5.877   3.401 -0.2138 -0.3493 -0.1658
  485W        W 4536   7.452   3.965   4.351  0.1569  0.3750 -0.4065
  486W        W 4537   0.481   3.593  10.830 -0.0733  0.2181 -0.3828
  487W        W 4538   6.662   6.877   4.207  0.2110  0.2444 -0.1911
  488W        W 4539   4.144   9.861   9.803 -0.4107 -0.0380 -0.0321
  489W        W 4540   8.330   6.864   5.055  0.2403  0.0943 -0.3750
  490W        W 4541   5.375   0.644   4.676 -0.0207  0.3929  0.0327
  491W        W 4542   1.856   2.279   4.542 -0.0427  0.2851  0.2133
  492W        W 4543   1.522   2.911  12.051 -0.1771 -0.1330 -0.1175
  493W        W 4544   8.714   7.909  12.125 -0.2253 -0.2350  0.1074
  494W        W 4545   7.880   3.248   1.788  0.1680 -0.1449  0.2590
  495W        W 4546   5.885   9.797   9.920  0.1047  0.0289  0.0319
  496W        W 4547   6.858  10.050   4.084  0.1024  0.3251 -0.3866
  497W        W 4548   0.337   2.692  10.206 -0.2338 -0.3279  0.1102
  498W        W 4549   2.653   7.355  11.302  0.1150 -0.0789 -0.0413
  499W        W 4550   4.299   8.799   0.533  0.0736  0.1075 -0.2071
  500W        W 4551   6.741   1.389  10.553  0.2820 -0.4722  0.4349
  501W        W 4552   7.386   0.128   3.821  0.1150 -0.0688 -0.4631
  502W        W 4553   0.848   2.271  11.383 -0.2205  0.2668 -0.0371
  503W        W 4554   8.385  10.122  11.230  0.3641 -0.1583  0.1398
  504W        W 4555   8.282   3.419  12.589 -0.2992 -0.0179 -0.1389
  505W        W 4556   8.017   3.789   8.602 -0.0499 -0.1178 -0.0799
  506W        W 4557   9.828   9.062  12.236 -0.0505  0.0664  0.1533
  507W        W 4558   1.110   3.073  11.830 -0.1867 -0.1226 -0.0505
  508W        W 4559   7.050   5.699   4.160  0.0231 -0.0781 -0.2458
  509W        W 4560   0.168   2.804   3.636  0.3958  0.3711 -0.1902
  510W        W 4561   0.078   8.225  11.074  0.4176  0.2659  0.4023
  511W        W 4562   5.333   8.196   3.808 -0.1860 -0.1504  0.0033
  512W        W 4563   7.216   1.968   4.872 -0.2352 -0.0417 -0.1037
  513W        W 4564   3.186   1.416  10.262  0.2407 -0.0212  0.0408
  514W        W 4565   7.603   1.996   0.449  0.0263  0.0548  0.1827
  515W        W 4566   3.950   2.985   1.682  0.1255 -0.0743  0.1691
  516W        W 4567   7.090   8.443   0.546  0.0532 -0.0600 -0.2188
  517W        W 4568  10.178   1.529   2.573 -0.1116 -0.2326 -0.0333
  518W        W 4569   4.355   5.397  10.396 -0.6154 -0.0326 -0.2080
  519W        W 4570   1.074   5.924   2.448 -0.3142  0.0919 -0.1153
  520W        W 4571   6.531   0.444   4.600  0.1364  0.0949  0.0406
  521W        W 4572   4.765   3.767  12.590  0.0655  0.4105  0.0598
  522W        W 4573   0.585   6.356   0.202 -0.0130 -0.0373  0.1736
  523W        W 4574   1.867   3.041  11.693 -0.0533  0.0457 -0.2170
  524W        W 4575   7.778   5.278   0.940 -0.3283  0.1404 -0.2275
  525W        W 4576   1.839   8.111  13.666 -0.1026  0.1270  0.1364
  526W        W 4577   4.329   2.662   0.789 -0.1409 -0.2388  0.0425
  527W        W 4578   1.874   8.769   8.951 -0.0320  0.1337  0.1569
  528W        W 4579   2.507   2.667   2.436 -0.0205  0.0563  0.0094
  529W        W 4580   8.482   7.173   1.327  0.0141 -0.1470 -0.0586
  530W        W 4581   5.056   6.273  11.684 -0.0624 -0.0857 -0.2546
  531W        W 4582   8.891   4.849   8.174 -0.1813  0.0883 -0.3514
  532W        W 4583   7.568   9.598  13.316  0.0526  0.0008 -0.2616
  533W        W 4584   8.845   7.173  12.667  0.1275  0.2756 -0.1560
  534W        W 4585   3.482   0.169   3.408 -0.2384  0.1524  0.0231
  535W        W 4586   2.245   1.497  13.105 -0.0747  0.0534  0.1938
  536W        W 4587   6.555   9.486   1.408  0.0270  0.0484  0.0494
  537W        W 4588   8.621   7.593  12.490 -0.0107 -0.2095 -0.0985
  538W        W 4589   0.729   2.995   2.106 -0.1012 -0.1200 -0.2243
  539W        W 4590   2.603   7.691  12.807  0.0706 -0.2724 -0.2262
  540W        W 4591   9.450   4.929   1.027 -0.0396  0.0748 -0.0546
  541W        W 4592   3.797   8.435  11.890  0.0555  0.0873  0.1071
  542W        W 4593   4.248   1.453   2.383  0.1577  0.2820  0.0607
  543W        W 4594   8.928   4.278  13.429  0.2156 -0.1069 -0.1848
  544W        W 4595   5.820   3.857  10.294  0.1594 -0.1638  0.1693
  545W        W 4596   2.761   6.433  10.522  0.2873  0.2601  0.1263
  546W        W 4597   2.524   9.638   5.054  0.3098  0.0084  0.2762
  547W        W 4598   6.561   8.069  13.705  0.2037  0.2643  0.0291
  548W        W 4599   2.063   4.815   2.769  0.1440  0.0086  0.0026
  549W        W 4600   4.941   6.781   2.072 -0.3824 -0.2569 -0.5269
  550W        W 4601   1.494   5.651   2.296 -0.1768 -0.2018 -0.3478
  551W        W 4602   5.797   4.233   0.746  0.2932 -0.0785 -0.0103
  552W        W 4603   7.295   3.979  11.325  0.1143 -0.0660 -0.0302
  553W        W 4604   8.905   6.524  13.113  0.0988 -0.5333  0.1938
  554W        W 4605   5.582   7.705   9.927  0.0721  0.1073  0.0857
  555W        W 4606   9.229   8.227   4.916  0.0153  0.3561 -0.1801
  556W        W 4607   7.836   6.033   0.365 -0.5364 -0.0588 -0.1628
  557W        W 4608   0.273   7.677  13.451 -0.0299  0.0731 -0.1695
  558W        W 4609   9.996   9.275  13.946  0.0521  0.2801 -0.0289
  559W        W 4610   9.718   7.756  12.065  0.0757  0.0064  0.1981
  560W        W 4611   6.023   6.124   9.597 -0.0241  0.0745  0.2407
  561W        W 4612   6.892   9.386   0.108  0.4834  0.3279 -0.0683
  562W        W 4613   6.462   5.933   0.722 -0.1011  0.0885  0.1615
  563W        W 4614   9.183   8.092   2.479  0.2503  0.1764  0.0207
  564W        W 4615   4.641   9.297  13.544 -0.2406 -0.0624 -0.0477
  565W        W 4616   7.175   1.611  11.903 -0.3971 -0.1533 -0.0287
  566W        W 4617   3.879   7.483   1.056 -0.0669 -0.2702 -0.0442
  567W        W 4618   8.726   6.836  11.904  0.0012 -0.2378  0.3512
  568W        W 4619   3.090   9.730   2.327 -0.2659  0.0197  0.1884
  569W        W 4620   7.546   7.255  13.599 -0.4293  0.4223 -0.2925
  570W        W 4621   4.468   8.978  10.549  0.3151  0.2412 -0.0333
  571W        W 4622   8.516   5.052   0.160 -0.2080  0.1929  0.0403
  572W        W 4623   9.253   7.618  11.888 -0.1072 -0.2479  0.2676
  573W        W 4624   7.737   3.179   0.286 -0.0629 -0.0913  0.4544
  574W        W 4625   0.278  10.066   0.608  0.0901  0.0762 -0.0274
  575W        W 4626   0.337   6.501   1.221 -0.1525  0.2035  0.1359
  576W        W 4627   3.209   9.678   4.498 -0.1443 -0.1625 -0.2411
  577W        W 4628   1.546  10.079  11.845  0.1936 -0.1043  0.1843
  578W        W 4629   9.323   8.664   4.122  0.1488  0.0822  0.0387
  579W        W 4630   1.355  10.098  10.989  0.0064  0.2274  0.0809
  580W        W 4631   2.541   8.169  10.825  0.0198  0.1109 -0.3169
  581W        W 4632   8.892   7.973  10.862 -0.2258 -0.0417 -0.0059
  582W        W 4633   7.333   2.425   3.050 -0.2450 -0.2604  0.0808
  583W        W 4634   3.642   0.435   2.929  0.1054  0.2219 -0.1263
  584W        W 4635   3.838   1.333   3.623 -0.1602  0.1136 -0.1009
  585W        W 4636   6.409   1.978   0.553  0.2923 -0.1384  0.0199
  586W        W 4637   9.899   2.349  11.899  0.2572 -0.1548 -0.0145
  587W        W 4638   3.293   5.386   0.757 -0.2199 -0.0838  0.1491
  588W        W 4639   3.174   0.164   1.329  0.0513 -0.0648 -0.1745
  589W        W 4640   0.952   3.485   3.621  0.0156  0.1725 -0.3123
  590W        W 4641   9.028   4.234   1.433  0.2855  0.0959 -0.1965
  591W        W 4642   7.571   8.028   3.365 -0.2882  0.0126 -0.1338
  592W        W 4643   0.201   8.485   0.073  0.1821  0.1858 -0.2919
  593W        W 4644   0.213   5.200   4.098  0.4265  0.4103 -0.1767
  594W        W 4645   6.031   6.200   2.637 -0.3160  0.1915  0.0946
  595W        W 4646   3.713   0.958  12.947  0.2844 -0.2983 -0.3286
  596W        W 4647   9.392   1.242  10.102  0.3329 -0.0061 -0.1293
  597W        W 4648   7.370   3.588  12.667  0.0221  0.2941 -0.0606
  598W        W 4649   9.873   2.858  11.844 -0.0431  0.2295 -0.0339
  599W        W 4650   7.618   6.176  11.641 -0.0466  0.2865 -0.0768
  600W        W 4651   9.419   1.078  11.542 -0.1019  0.0937 -0.0708
  601W        W 4652   7.325   4.940   4.555 -0.1207 -0.0643 -0.3944
  602W        W 4653   7.397   0.746  10.321  0.2866  0.0354  0.1853
  603W        W 4654   0.195   4.442  11.133  0.0315  0.2517 -0.1317
  604W        W 4655   9.678   2.528   3.220  0.2467  0.0401  0.2081
  605W        W 4656   0.016   4.419   3.444 -0.0131  0.0142 -0.2408
  606W        W 4657   8.808   1.675  12.859 -0.1144  0.2733  0.3092
  607W        W 4658   5.000   3.132   3.227 -0.2187 -0.1449 -0.3438
  608W        W 4659   2.546   3.999   1.926  0.3493  0.0400 -0.2225
  609W        W 4660   6.495   3.776   9.365  0.0353 -0.2523  0.0444
  610W        W 4661   3.525  10.116  13.959 -0.0691 -0.1971  0.5683
  611W        W 4662  10.131   0.962   3.770 -0.1839  0.3901  0.0288
  612W        W 4663   4.307   3.852   1.800  0.0293 -0.3748  0.1298
  613W        W 4664   2.664   5.092   2.029  0.0215 -0.1585 -0.2251
  614W        W 4665   5.219   8.244   2.929  0.3843 -0.1785  0.1945
  615W        W 4666   1.811   5.221  12.648 -0.3937 -0.1388 -0.3069
  616W        W 4667   5.778   8.519  10.682  0.2852  0.1424 -0.0244
  617W        W 4668   7.985   1.391  13.611  0.2678  0.2674  0.2845
  618W        W 4669   0.533   7.168   4.937 -0.1963 -0.0467 -0.1960
  619W        W 4670   8.646   6.018   4.245 -0.1326  0.0649  0.1102
  620W        W 4671   1.931   5.474   2.571 -0.2814  0.1631 -0.1852
  621W        W 4672   9.992   1.091   2.401 -0.3355  0.1241 -0.1956
  622W        W 4673   4.952   1.409  13.068 -0.2669 -0.0172 -0.2197
  623W        W 4674   4.699   1.566   2.589  0.3207 -0.3206  0.2259
  624W        W 4675   0.392   2.400   4.028 -0.1889  0.4003  0.1982
  625W        W 4676   2.977   2.013  13.561  0.0370 -0.1787 -0.0611
  626W        W 4677   5.854   6.883   3.526 -0.1026 -0.2076  0.2788
  627W        W 4678   3.914   7.010  10.932  0.2393  0.0714 -0.2698
  628W        W 4679  10.111   9.416  13.039  0.0597 -0.2541  0.0450
  629W        W 4680   5.716   5.933   2.941  0.0543  0.1579 -0.3174
  630W        W 4681   6.558   0.978   0.115 -0.3009 -0.2974 -0.2716
  631W        W 4682   6.102   5.408  12.168  0.0373  0.0917  0.1416
  632W        W 4683   2.664   9.336   3.472 -0.0016  0.1253  0.0082
  633W        W 4684   4.791   9.319   1.037  0.2409  0.0347  0.0526
  634W        W 4685   0.474   7.474   5.446  0.1843 -0.2694 -0.0203
  635W        W 4686   7.620   9.670  11.549 -0.3067  0.2913  0.1116
  636W        W 4687   8.079   7.419   3.046 -0.2812 -0.0621  0.0006
  637W        W 4688   6.648   9.262  11.484 -0.1100  0.1269  0.0059
  638W        W 4689   8.131   4.684   8.652 -0.3328 -0.0463  0.1307
  639W        W 4690   1.411   5.446   0.282  0.0288  0.3791  0.0435
  640W        W 4691   3.027   6.373   3.837 -0.0560  0.1483 -0.0857
  641W        W 4692   1.898   6.155  10.570  0.0913 -0.2752  0.0721
  642W        W 4693   0.071   0.251   0.884 -0.1028 -0.2820 -0.1449
  643W        W 4694   3.136   4.407   3.448  0.0887 -0.0239  0.3797
  644W        W 4695   4.252   2.409  11.777  0.2289  0.1452 -0.0323
  645W        W 4696   9.607   3.945   0.603  0.0142 -0.2813  0.2073
  646W        W 4697   2.645   3.665  13.465 -0.0649 -0.1378 -0.1846
  647W        W 4698   5.413   5.228   5.091 -0.1171  0.0946  0.1493
  648W        W 4699   7.689   9.505   0.367 -0.1646  0.1391  0.1304
  649W        W 4700   7.110   2.830   3.829 -0.0279  0.1765 -0.3841
  650W        W 4701   4.025   2.869   3.462  0.0628  0.0026 -0.0245
  651W        W 4702   5.934   6.606   3.072  0.0603 -0.0078  0.0634
  652W        W 4703   2.721   5.426   1.585  0.0074 -0.1589  0.0292
  653W        W 4704   7.694   8.902  10.091 -0.3127  0.0672  0.1470
  654W        W 4705   5.651   6.545  12.350 -0.0562 -0.2630  0.0052
  655W        W 4706   8.480   9.557   1.079 -0.0777 -0.1233 -0.1085
  656W        W 4707   3.404   2.842  12.851  0.3447 -0.1152 -0.1186
  657W        W 4708   6.263   4.308  12.728 -0.0634 -0.2046  0.0440
  658W        W 4709   5.277   9.694  12.416  0.2400  0.3146 -0.2689
  659W        W 4710   1.950   0.654   2.870  0.1627 -0.0581 -0.3280
  660W        W 4711   7.278   3.682   1.224  0.2415  0.1095  0.2497
  661W        W 4712  10.027   4.344  11.553  0.3583 -0.0015  0.0470
  662W        W 4713   2.966   5.201   2.745  0.2945  0.0142 -0.1573
  663W        W 4714   3.928   0.069   9.630 -0.3033 -0.3212  0.1114
  664W        W 4715   9.647   8.701   5.049 -0.0424  0.2354 -0.0198
  665W        W 4716   5.050   6.310   0.764  0.2945 -0.3423 -0.1747
  666W        W 4717   9.484   2.500  10.749  0.0906  0.2912 -0.0377
  667W        W 4718   4.795   1.807   0.404 -0.2183 -0.0674  0.0692
  668W        W 4719   6.381   2.990   2.834 -0.0015 -0.0474 -0.1682
  669W        W 4720   9.288   0.290   5.368  0.2039  0.0401 -0.0457
  670W        W 4721   0.987   1.322  13.860  0.1141 -0.0922  0.0651
  671W        W 4722   4.558   6.861  13.081 -0.2791  0.0192 -0.0372
  672W        W 4723   4.107   9.246   0.228 -0.3720  0.2209  0.2687
  673W        W 4724   2.853   9.665   1.042 -0.1303  0.2769 -0.0531
  674W        W 4725   1.512   7.979   0.440  0.1035 -0.0087 -0.1576
  675W        W 4726   2.859   5.283  12.838  0.0181 -0.0455  0.1570
  676W        W 4727   0.403   5.718   0.121  0.1941  0.1310  0.0617
  677W        W 4728   8.195   3.062  13.486  0.1485 -0.5093 -0.0240
  678W        W 4729   0.343   9.175   3.810 -0.1062  0.2046 -0.0282
  679W        W 4730   2.852   3.724   0.867 -0.0982 -0.1682  0.0639
  680W        W 4731   0.707   3.798  13.284  0.2925  0.1928 -0.3392
  681W        W 4732   6.654   3.586   9.867  0.1306  0.1310 -0.0189
  682W        W 4733   6.541   7.252  12.507 -0.2368  0.2950 -0.2410
  683W        W 4734   8.410   8.359  11.689  0.2953 -0.0563 -0.1262
  684W        W 4735   7.802   9.730  12.338  0.0371  0.1702 -0.0674
  685W        W 4736   2.619   2.615   3.952  0.0676 -0.1421 -0.0746
  686W        W 4737   7.403   7.937   0.131 -0.0606  0.0579  0.1776
  687W        W 4738   3.363   1.164   3.709 -0.1220  0.0089  0.0376
  688W        W 4739   7.126   7.319   1.092 -0.1322 -0.0959 -0.0587
  689W        W 4740   2.535   9.304   1.895  0.2069  0.1356  0.0492
  690W        W 4741   0.154   4.945  10.339  0.2410  0.2760  0.1038
  691W        W 4742   3.363   5.280  10.739  0.0775 -0.0763 -0.1094
  692W        W 4743   4.446   8.016   0.022  0.1200 -0.1566 -0.0532
  693W        W 4744   7.542   4.164  10.973 -0.0771  0.0244  0.1356
  694W        W 4745   8.475   4.511   2.997 -0.0339 -0.0672 -0.0717
  695W        W 4746   7.385   8.449   2.658 -0.0381 -0.1773  0.0173
  696W        W 4747   8.191   8.426  10.760 -0.0017 -0.2003  0.0919
  697W        W 4748   7.032   9.148   9.528  0.1390 -0.0150 -0.0204
  698W        W 4749   6.996   1.218   3.329  0.3329 -0.1764 -0.0162
  699W        W 4750   4.754   6.234  10.845  0.1992 -0.1139 -0.0759
  700W        W 4751   5.413   9.550   0.153 -0.0607  0.0162 -0.1925
  701W        W 4752   5.658   2.312  10.489  0.0427 -0.2344  0.1126
  702W        W 4753   0.622   4.206  13.797  0.1848 -0.0185  0.1773
  703W        W 4754   5.312   8.244   9.276  0.1078  0.2372  0.0619
  704W        W 4755   5.782   6.059  12.325  0.1342 -0.0141  0.3261
  705W        W 4756   4.494   0.144   9.662 -0.0195 -0.1290 -0.0011
  706W        W 4757   3.850   5.668   2.220  0.0131  0.0535  0.0952
  707W        W 4758   5.587   7.594  12.469  0.1272 -0.0550  0.0097
  708W        W 4759  10.015   3.625   0.530 -0.0845  0.0900 -0.0561
  709W        W 4760   3.918   2.064  11.576  0.1512  0.1296  0.0069
  710W        W 4761   7.879   8.082  13.908 -0.3001  0.1079  0.0661
  711W        W 4762   5.935   4.656  11.539  0.4098 -0.2776 -0.2211
  712W        W 4763   6.236   9.315   4.707  0.1441 -0.0997 -0.1158
  713W        W 4764   4.600   4.169   2.154  0.2427  0.0690 -0.0920
  714W        W 4765   8.662   3.439   3.126  0.0970  0.2524  0.0982
  715W        W 4766   1.309   9.476  13.579  0.0808  0.2215 -0.2994
  716W        W 4767   6.055   1.105  11.119 -0.0495  0.1827 -0.1663
  717W        W 4768   8.601   5.918  11.447 -0.1052 -0.2045 -0.1472
  718W        W 4769   6.278   0.478  11.566  0.5042 -0.1347  0.1737
  719W        W 4770   2.612   6.504   2.063 -0.2818  0.1969 -0.0719
  720W        W 4771   3.287   6.229  11.206 -0.3741 -0.1002 -0.0327
  721W        W 4772   4.152   9.318   1.445  0.0616  0.0537  0.0178
  722W        W 4773   5.075   2.293   4.080  0.0908 -0.0380 -0.4610
  723W        W 4774  10.155   2.939   1.568 -0.2512  0.0258 -0.0703
  724W        W 4775   9.802   4.760   3.953 -0.0341 -0.6978  0.1500
  725W        W 4776   1.663   2.801  11.287 -0.2372 -0.3608  0.1343
  726W        W 4777   6.403   8.895  13.382  0.0863 -0.1485  0.2680
  727W        W 4778   0.842   7.231  12.718  0.0031  0.0135 -0.3716
  728W        W 4779   9.537   7.277   4.156 -0.2396 -0.2087 -0.0258
  729W        W 4780   2.322   9.961   3.481  0.2174  0.3380  0.1587
  730W        W 4781   7.265   7.394   2.715 -0.0824 -0.2176 -0.2026
  731W        W 4782  10.136   1.151  10.990 -0.0265  0.0003  0.0145
  732W        W 4783   7.577   2.867   0.983  0.2064  0.2044  0.1814
  733W        W 4784   6.772   4.597  11.676  0.0445 -0.0214 -0.0647
  734W        W 4785   2.038   6.890   2.759  0.0465  0.1835  0.1797
  735W        W 4786   3.081   0.406  11.121 -0.0542  0.2640  0.2240
  736W        W 4787   6.193   6.100   3.150  0.0998  0.0006  0.0143
  737W        W 4788   5.292   3.355   2.781  0.3997  0.3602 -0.1616
  738W        W 4789   8.357   9.045   2.999 -0.0420 -0.0470 -0.0184
  739W        W 4790   8.926   1.107   2.147 -0.2223  0.0545  0.0191
  740W        W 4791   8.405   7.885   0.946  0.2468  0.6507  0.1054
  741W        W 4792   3.162   2.412   9.587 -0.1790  0.1438 -0.1310
  742W        W 4793   6.103   7.301  11.230  0.0087  0.0381  0.1170
  743W        W 4794   7.596   3.350   9.213 -0.1070  0.0912  0.2943
  744W        W 4795   4.193   2.948   2.177 -0.2698 -0.1892 -0.0993
  745W        W 4796   5.531   8.844  13.811 -0.2392  0.2593 -0.2630
  746W        W 4797   1.833   7.733  10.334  0.0613 -0.0363  0.1026
  747W        W 4798   1.706   9.437   1.050 -0.1686  0.1858 -0.2327
  748W        W 4799   5.223   6.216  11.163  0.4496 -0.0703  0.0446
  749W        W 4800  10.009   2.517   1.308  0.1298  0.2461  0.2458
  750W        W 4801   4.398   9.260   3.271 -0.0081 -0.0646 -0.0530
  751W        W 4802   8.522   9.993  13.699  0.1053 -0.0817  0.1558
  752W        W 4803   0.712   7.164  10.563 -0.2336  0.0327  0.3271
  753W        W 4804   8.952   1.995   9.560  0.0538 -0.0154  0.4040
  754W        W 4805   5.146   2.505  12.885 -0.3018  0.2715 -0.1247
  755W        W 4806   5.345   5.437   1.027 -0.1351 -0.1972  0.2319
  756W        W 4807   8.223   6.912   3.789 -0.0083  0.5128  0.2719
  757W        W 4808   5.841   2.508   1.795  0.2155 -0.5451 -0.2113
  758W        W 4809   4.290   2.613   1.804  0.1559  0.1183  0.2263
  759W        W 4810   6.673   2.921   9.149  0.0755 -0.2039  0.3033
  760W        W 4811   4.246   1.149  11.087  0.0618 -0.0876  0.0661
  761W        W 4812   7.283  10.077  11.586  0.0736  0.2402  0.1484
  762W        W 4813   4.169   0.533  10.541  0.2245 -0.1710 -0.1760
  763W        W 4814   5.047   2.734  12.103  0.1926 -0.0905  0.0191
  764W        W 4815   5.248   3.546  11.712 -0.0307  0.2576  0.0384
  765W        W 4816   1.399   0.121   4.926  0.0921 -0.3844 -0.2035
  766W        W 4817   0.109   2.535   8.396 -0.2001  0.1932 -0.1077
  767W        W 4818   6.562   7.789   3.129 -0.1948 -0.1731  0.2183
  768W        W 4819   6.060   3.076   5.066 -0.1054  0.2251 -0.0618
  769W        W 4820   3.978   0.553   4.178 -0.1102  0.0593 -0.0183
  770W        W 4821   7.365   4.822   3.064 -0.1193 -0.3885  0.0265
  771W        W 4822   4.258   1.834   1.614  0.3539 -0.5229 -0.1751
  772W        W 4823   2.664   7.782  13.353  0.0230  0.0421 -0.1531
  773W        W 4824   8.656   9.832   4.273 -0.0981 -0.0994 -0.0250
  774W        W 4825   4.133   5.013   3.627  0.2865 -0.0741  0.3197
  775W        W 4826   8.680  10.112   3.873 -0.0159  0.0693 -0.1402
  776W        W 4827   5.119   7.905  13.714 -0.1753 -0.1185  0.0998
  777W        W 4828   5.539   4.035   0.362  0.0672  0.2492 -0.2875
  778W        W 4829   7.076   8.672   4.393 -0.2234  0.0957 -0.1498
  779W        W 4830   7.605   1.245   1.014 -0.1065  0.0062  0.2709
  780W        W 4831   4.815   5.080   1.799  0.0282 -0.2001 -0.0654
  781W        W 4832   1.246   5.287   1.110 -0.2650 -0.2703  0.1311
  782W        W 4833   1.008   0.835  10.768  0.3705  0.0567 -0.0026
  783W        W 4834   7.527   6.803   9.626  0.2364 -0.3222  0.0200
  784W        W 4835   8.360   4.039   0.109 -0.0190  0.4145  0.0288
  785W        W 4836   7.239   9.213   2.701 -0.1444 -0.0662  0.1378
  786W        W 4837   5.089   3.064  13.046  0.1212  0.0162  0.2516
  787W        W 4838   2.361   4.225   1.493 -0.2562 -0.1658 -0.1284
  788W        W 4839   3.785   3.724  10.593  0.1068 -0.2458 -0.0573
  789W        W 4840   2.982   0.385  10.275  0.2386  0.0588  0.2688
  790W        W 4841   4.115   2.611   3.034 -0.2473  0.0298  0.0443
  791W        W 4842   5.094   8.021  11.726  0.2339  0.0196  0.1996
  792W        W 4843   4.042   3.939   1.347  0.0268 -0.2681 -0.0769
  793W        W 4844   0.339   0.423  12.135  0.3868  0.2649  0.1937
  794W        W 4845   2.187   1.230   4.393  0.0970  0.1845 -0.4366
  795W        W 4846   2.126   9.333   4.688  0.1190 -0.0084 -0.3001
  796W        W 4847   1.272   6.918   0.625 -0.2997 -0.0011  0.0302
  797W        W 4848   9.207   0.648   4.043 -0.0728 -0.0118 -0.1359
  798W        W 4849   4.565   8.644   3.710  0.2031  0.1833 -0.1714
  799W        W 4850   8.988   9.106   1.405 -0.1519 -0.1846  0.1690
  800W        W 4851  10.167   1.222   2.971  0.2092 -0.2685  0.0422
  801W        W 4852   6.488   3.427  10.402  0.1179  0.0534 -0.0504
  802W        W 4853   4.604   8.769  13.547 -0.0387 -0.3103 -0.0885
  803W        W 4854   9.140   3.816  12.382 -0.0966  0.1307 -0.1989
  804W        W 4855   0.624   4.506   2.477  0.0106 -0.0603 -0.2029
  805W        W 4856   8.425   6.843  13.116 -0.0337 -0.0064 -0.1089
  806W        W 4857   3.548   9.599   0.396 -0.0536 -0.0176  0.1405
  807W        W 4858   5.356   9.920  13.736  0.2067 -0.0104  0.0303
  808W        W 4859   0.175   0.042  13.063 -0.0102 -0.0623 -0.2814
  809W        W 4860   0.732   2.036   3.839 -0.2555  0.2928  0.2020
  810W        W 4861   5.800   4.722   0.944  0.0920  0.0152  0.0696
  811W        W 4862   7.645   4.639   9.617 -0.0003  0.1752 -0.2823
  812W        W 4863   3.060   1.087   4.482 -0.0233 -0.0583  0.2359
  813W        W 4864   6.712   9.335   4.458 -0.0472 -0.3235 -0.0162
  814W        W 4865   4.359   6.024   0.218  0.0922  0.0990 -0.2822
  815W        W 4866   8.265   3.926   9.196 -0.2757  0.0311 -0.0144
  816W        W 4867   5.023   3.662   3.120  0.2695 -0.3016 -0.2367
  817W        W 4868   4.608   1.867  11.043  0.0441 -0.2344 -0.0142
  818W        W 4869   7.366   6.154   4.797 -0.3235 -0.0120 -0.0900
  819W        W 4870   0.447   4.919   4.411  0.0412  0.4985 -0.1341
  820W        W 4871   5.379   5.669  13.345  0.0700  0.0984  0.5248
  821W        W 4872   4.484   0.087  12.600  0.0073 -0.2195 -0.0691
  822W        W 4873   6.739   2.652  10.806 -0.0906  0.1230 -0.2306
  823W        W 4874   0.188   0.181  12.621 -0.0574 -0.0375  0.1535
  824W        W 4875   8.739   0.834   4.113  0.1347  0.3309  0.3994
  825W        W 4876   7.513   5.617   0.539 -0.0178 -0.2064  0.0216
  826W        W 4877   7.419   5.335   2.868  0.0011 -0.0326  0.1025
  827W        W 4878   4.697   4.803   1.325 -0.2687 -0.0249 -0.0229
  828W        W 4879   0.518   2.988   4.449  0.0481 -0.1411 -0.2810
  829W        W 4880   7.399   9.925  11.064  0.2543  0.1110 -0.2030
  830W        W 4881   0.400   6.191  12.966 -0.0352  0.1736  0.0991
  831W        W 4882   7.063   8.543  12.679  0.1812 -0.0914 -0.3908
  832W        W 4883   6.051   1.589   0.663 -0.1108 -0.3070  0.0136
  833W        W 4884   2.805   9.181   5.038  0.4483  0.1096  0.1411
  834W        W 4885   5.895   1.552  12.591  0.0473 -0.1387  0.0594
  835W        W 4886   9.464   6.192   1.600  0.2280  0.3874 -0.0687
  836W        W 4887   9.958   3.134   9.525 -0.0031 -0.0275 -0.0333
  837W        W 4888   7.907   9.173   2.598 -0.0061 -0.1688  0.1894
  838W        W 4889  10.125   1.192   1.352  0.4337  0.0928  0.0296
  839W        W 4890   6.604   5.200   1.983  0.0245 -0.0828  0.1110
  840W        W 4891   9.953   9.853  13.819 -0.0813  0.0875 -0.2370
  841W        W 4892   6.688   7.481   0.799 -0.0374  0.2515  0.0924
  842W        W 4893   3.673   7.421  10.842 -0.3652 -0.1801 -0.0404
  843W        W 4894   4.258   5.603   1.143  0.0562 -0.2778  0.0194
  844W        W 4895   7.039   8.969  11.355 -0.4341  0.1338 -0.0141
  845W        W 4896   4.902   8.372  13.568 -0.0358  0.1327 -0.0934
  846W        W 4897   6.366   0.142  13.311 -0.2559  0.0915 -0.1863
  847W        W 4898   6.002   0.689   1.546  0.0172  0.1585 -0.0411
  848W        W 4899   9.371   0.492  12.808 -0.1057 -0.0096 -0.3135
  849W        W 4900   6.354   2.019   2.389  0.0353 -0.1353 -0.1281
  850W        W 4901   2.182   1.303  11.288  0.1643 -0.2489 -0.1937
  851W        W 4902   6.232   7.704  10.433 -0.1465  0.1990 -0.1559
  852W        W 4903   1.966   0.607   0.640  0.2110 -0.2764 -0.0455
  853W        W 4904   1.144   6.469  13.275  0.0683 -0.2083  0.0262
  854W        W 4905   1.376   2.131  11.979  0.0187  0.0928 -0.2032
  855W        W 4906   1.720   8.620  10.782  0.1800 -0.0786 -0.0702
  856W        W 4907   9.363   5.531  12.494  0.2668 -0.0258  0.2168
  857W        W 4908   8.104   3.187   9.475  0.2303  0.0696  0.0891
  858W        W 4909   4.422   9.243   2.193 -0.1365 -0.0705  0.0541
  859W        W 4910   0.953   4.718   0.295  0.1142  0.0617  0.2445
  860W        W 4911   3.283   8.337   4.305 -0.3410  0.1940 -0.2097
  861W        W 4912   4.899   8.261   3.480  0.2009  0.0210 -0.2702
  862W        W 4913   6.168   7.856   2.872  0.2974 -0.2225 -0.3168
  863W        W 4914   6.415   7.219   3.771  0.0412  0.0786 -0.1329
  864W        W 4915   3.973   6.870  13.532 -0.0589 -0.0863  0.0614
  865W        W 4916   5.932   9.242   3.894  0.6037  0.1941  0.0060
  866W        W 4917   8.956   1.374   5.306 -0.2650 -0.1134 -0.2907
  867W        W 4918   9.624   7.334  12.326 -0.0154  0.1096 -0.2121
  868W        W 4919   1.448   4.324  13.782 -0.2344 -0.1092 -0.2611
  869W        W 4920   2.973   2.038   3.944  0.2956  0.5266  0.0945
  870W        W 4921   2.303   2.136  11.914  0.0959 -0.3416 -0.1787
  871W        W 4922   5.493   1.274   3.828  0.0676  0.2661 -0.1966
  872W        W 4923   4.946   4.123   0.495 -0.0416  0.2169 -0.0757
  873W        W 4924   0.839   1.577  11.322  0.0922 -0.0798 -0.2722
  874W        W 4925   7.571   9.324   2.250 -0.3486 -0.0992  0.1973
  875W        W 4926   7.030   6.033   3.680  0.0393  0.0743 -0.0481
  876W        W 4927   7.304   2.384   4.652  0.3571 -0.2584  0.1423
  877W        W 4928   0.655   4.108  12.800 -0.2850 -0.0508  0.1039
  878W        W 4929   3.440   0.057  11.575 -0.2859 -0.0651 -0.1165
  879W        W 4930   0.927   9.544  11.626 -0.0330  0.0950 -0.2167
  880W        W 4931   8.435   8.804   4.834 -0.3044 -0.3756 -0.2179
  881W        W 4932   4.190   1.484  11.782 -0.1277 -0.3009 -0.0646
  882W        W 4933   8.568   6.426  11.592  0.2737 -0.0236 -0.1768
  883W        W 4934   0.007   8.176   9.947  0.1945 -0.1858 -0.1036
  884W        W 4935   0.530   4.708  10.151  0.1431  0.1410  0.2741
  885W        W 4936   3.857   0.528   0.943 -0.2555  0.0591  0.4101
  886W        W 4937   1.944   1.879  12.126 -0.0090 -0.2577 -0.2209
  887W        W 4938   7.712   3.674  11.197 -0.0313  0.1284  0.2402
  888W        W 4939   2.922   8.157  11.905  0.1944 -0.1133 -0.0010
  889W        W 4940   0.534   3.723   1.131  0.0961 -0.1983  0.0665
  890W        W 4941   1.307   8.159   1.398 -0.3453  0.1027 -0.1367
  891W        W 4942   9.198   9.948   2.002  0.3176  0.2089  0.0600
  892W        W 4943   7.908   5.530   2.015  0.1599  0.2899 -0.0970
  893W        W 4944   5.654   0.516   2.304  0.2587  0.0594 -0.0932
  894W        W 4945   2.345   7.269   1.025  0.1608 -0.0296 -0.1025
  895W        W 4946   7.761   6.986   3.645  0.0253  0.0101 -0.0301
  896W        W 4947   1.531   3.741   1.849 -0.1579  0.1316 -0.3001
  897W        W 4948   6.350   7.795  12.057  0.2664 -0.0150 -0.1770
  898W        W 4949   7.412   5.152  13.952 -0.1841  0.3181 -0.1289
  899W        W 4950  10.103   0.082  12.233  0.1355 -0.1531 -0.2908
  900W        W 4951   3.335   2.673   0.878  0.3657 -0.2395 -0.1458
  901W        W 4952   6.274   6.956  11.633  0.2472 -0.0854  0.1085
  902W        W 4953   6.371   1.899  11.274 -0.0828  0.1345 -0.1514
  903W        W 4954   4.694   0.401  12.237 -0.1545 -0.3365  0.2387
  904W        W 4955   9.453   5.117  13.319 -0.0644 -0.0646  0.0375
  905W        W 4956   6.306   6.608   9.730  0.0033  0.1625  0.2774
  906W        W 4957   7.044   9.031  12.624  0.0137 -0.0921 -0.2248
  907W        W 4958   2.270   3.180  10.148  0.0173  0.1577 -0.1141
  908W        W 4959   8.319   9.106  13.958  0.0447 -0.0387 -0.0252
  909W        W 4960   0.089   1.606  10.721 -0.2947 -0.2940 -0.0473
  910W        W 4961   7.861   7.579  10.241 -0.0334  0.0418 -0.1007
  911W        W 4962   5.358   8.564  10.979  0.1633  0.2255  0.2351
  912W        W 4963   7.285   6.266  13.041  0.2114 -0.0239  0.0459
  913W        W 4964   9.850   2.214   9.742 -0.1422 -0.1874 -0.0509
  914W        W 4965   5.139   9.302  12.717 -0.3230  0.0947 -0.0733
  915W        W 4966   5.422   7.599  13.404  0.1927 -0.1162  0.2425
  916W        W 4967   2.490   1.948  12.339  0.5076 -0.3609 -0.0242
  917W        W 4968   1.226   7.597  13.330  0.0143 -0.1450 -0.1891
  918W        W 4969   0.912   2.108  12.838  0.1207  0.0017 -0.1407
  919W        W 4970   1.874   4.222   0.103 -0.0349  0.0578 -0.1162
  920W        W 4971   8.135   0.367  12.485  0.2148  0.0311  0.1516
  921W        W 4972   9.067   6.272  11.448 -0.0922 -0.0919  0.0007
  922W        W 4973   9.656   2.149  12.761  0.0895  0.1547 -0.1680
  923W        W 4974   8.381   5.047  11.420 -0.3235 -0.2625  0.1775
  924W        W 4975   7.605   0.180   9.544  0.3870 -0.1968 -0.1554
  925W        W 4976   7.233   3.875   0.111 -0.0346  0.1452 -0.0499
  926W        W 4977   6.901   0.753   9.547 -0.0670 -0.1910  0.3135
  927W        W 4978   1.158   9.463   5.517  0.1687  0.0306  0.1269
  928W        W 4979   3.843   1.996  12.723 -0.0707  0.1163 -0.1182
  929W        W 4980   0.118   9.201   9.432  0.1158  0.0333  0.1255
  930W        W 4981   3.533   8.418   2.962  0.0498  0.0361  0.3745
  931W        W 4982   5.601   9.578   3.743 -0.1081 -0.0456 -0.0709
  932W        W 4983   0.670   9.185   4.798 -0.2967 -0.0032  0.0507
  933W        W 4984   2.441   9.305   2.982  0.3313  0.1979  0.1515
  934W        W 4985   0.336   0.616   3.801  0.0116  0.1459 -0.1471
  935W        W 4986   1.506   8.898  10.405 -0.0520 -0.0497  0.0095
  936W        W 4987   4.435   6.285  12.993  0.0663 -0.0960 -0.2704
  937W        W 4988   2.687   6.090   0.332 -0.2507 -0.0489  0.0774
  938W        W 4989   0.556   0.278   0.651 -0.0189 -0.0968 -0.1356
  939W        W 4990   9.561   6.522   0.827 -0.0799  0.0005 -0.1981
  940W        W 4991   6.179   6.374   0.268 -0.1808  0.2823 -0.4748
  941W        W 4992   6.522   9.840  10.570 -0.0155 -0.0356 -0.1356
  942W        W 4993   8.337   5.907   4.636 -0.1461 -0.1752  0.2376
  943W        W 4994   7.115   9.091   4.593 -0.1827  0.1861 -0.0168
  944W        W 4995   4.659   3.279  12.824  0.2621 -0.2545  0.3155
  945W        W 4996   3.216   7.145  11.790  0.1269  0.0712  0.3258
  946W        W 4997   9.756   2.891  10.477 -0.1899  0.0511  0.0245
  947W        W 4998   0.830   4.294   3.887  0.2187  0.2003 -0.0618
  948W        W 4999   9.092   4.658   0.786 -0.1684 -0.0176  0.0642
  949W        W 5000   6.514   8.172   2.114  0.0263  0.4098 -0.1759
  950W        W 5001   0.235   9.432   3.397 -0.0159  0.0163 -0.0398
  951W        W 5002   7.208   2.378  11.469 -0.1877 -0.0717  0.3351
  952W        W 5003   6.238   0.758   0.956  0.0420 -0.3487  0.2444
  953W        W 5004   1.683   2.643  10.665  0.3962  0.0852  0.0362
  954W        W 5005   7.719   0.980   3.989 -0.0266 -0.2464  0.1111
  955W        W 5006   6.965   3.361  10.250 -0.0453  0.0390  0.0517
  956W        W 5007  10.045   8.645   0.678  0.0013 -0.0639 -0.0217
  957W        W 5008   4.354   1.513   9.535 -0.3769  0.2730  0.1674
  958W        W 5009   5.462   0.444  11.329 -0.1710  0.2563  0.1401
  959W        W 5010   8.060   3.416   0.626  0.2813  0.0771  0.1866
  960W        W 5011   9.225   7.751   1.668 -0.0597  0.5052  0.0393
  961W        W 5012   3.897   8.063  10.532  0.0059  0.1501 -0.1626
  962W        W 5013   6.288   8.551  13.042  0.4432  0.0959 -0.0625
  963W        W 5014   7.094   9.985   3.527  0.2371  0.0123  0.0814
  964W        W 5015   8.034   7.935   3.046 -0.0965  0.0326  0.0414
  965W        W 5016   8.595   4.914  12.898 -0.4008  0.2957  0.2939
  966W        W 5017   7.722   4.771  13.787  0.1509  0.0595  0.1748
  967W        W 5018   6.852   8.125  12.947 -0.1959 -0.1392  0.1361
  968W        W 5019   7.547   5.628   4.833 -0.2922 -0.1206  0.1111
  969W        W 5020   3.500   8.533   3.655  0.1373  0.1827 -0.1953
  970W        W 5021   1.385   0.634   5.032  0.1742  0.1254  0.5134
  971W        W 5022   8.696   2.603  12.330  0.0196  0.1029  0.0966
  972W        W 5023   9.204   3.664   0.057  0.1133  0.3619 -0.2583
  973W        W 5024   1.946   3.192   2.726  0.0439  0.0912 -0.1451
  974W        W 5025   8.977   5.915   3.333 -0.2160 -0.3568 -0.0271
  975W        W 5026   0.687   3.763  11.275 -0.2399  0.0437 -0.0349
  976W        W 5027   9.219   1.357  10.586 -0.1979 -0.0570 -0.3569
  977W        W 5028   6.311   8.333  10.646 -0.2664 -0.3193  0.0417
  978W        W 5029   8.674   9.930  12.315  0.0423 -0.4092  0.0708
  979W        W 5030   7.366   8.607   9.716  0.3301  0.2713 -0.2597
  980W        W 5031   9.863  10.087   0.842 -0.2063 -0.2496  0.1650
  981W        W 5032   6.877   9.980  12.003 -0.1812 -0.2354 -0.1357
  982W        W 5033   7.958   9.271   4.321  0.3731 -0.0943  0.2975
  983W        W 5034   5.639   8.060   4.221 -0.3053 -0.0060 -0.1102
  984W        W 5035   5.419   1.705  11.689  0.0860  0.2479  0.0135
  985W        W 5036   1.718   1.399  13.364 -0.2533  0.0013  0.3736
  986W        W 5037   8.347   0.070   0.563  0.2529  0.0572  0.5395
  987W        W 5038   1.969   0.555  12.461  0.1288  0.0386 -0.4278
  988W        W 5039   1.023   0.448   4.763  0.1107 -0.3169  0.0220
  989W        W 5040   1.102   2.533  11.913  0.1591  0.0758  0.2175
  990W        W 5041   1.650   7.324  11.972  0.0324  0.0719  0.1694
  991W        W 5042   6.503   6.850  12.086  0.1643 -0.1958 -0.1693
  992W        W 5043   7.917   5.997   3.919 -0.2115 -0.0676 -0.2275
  993W        W 5044   5.778   8.693  12.868 -0.0369  0.1925 -0.2653
  994W        W 5045   8.334   6.920   9.168 -0.0093 -0.2077 -0.0288
  995W        W 5046   9.124   8.728   1.709 -0.0347  0.1174  0.3039
  996W        W 5047   1.517   7.219   1.039  0.0674 -0.3108 -0.1124
  997W        W 5048   1.996   1.851   0.633  0.0241  0.2169 -0.0716
  998W        W 5049   7.591   0.201  13.790  0.1785  0.1048  0.1281
  999W        W 5050   8.083   6.683   0.699 -0.0227  0.2091  0.4455
 1000W        W 5051   0.241   7.193  13.865  0.2414 -0.4274  0.0808
 1001W        W 5052   2.587   4.146   0.971 -0.1986  0.2684 -0.1249
 1002W        W 5053   6.062   3.665  12.679 -0.0883 -0.3416  0.2168
 1003W        W 5054   4.558   9.092  13.074 -0.0317  0.3733 -0.1506
 1004W        W 5055   0.967   1.550   1.993  0.3141  0.2013 -0.0093
 1005W        W 5056   0.451   9.100   2.867  0.0138  0.2084  0.0637
 1006W        W 5057   9.332   3.444   1.648 -0.1265 -0.1111  0.1292
 1007W        W 5058   5.254   3.626  13.579 -0.0345  0.0499  0.0130
 1008W        W 5059   4.394   9.837  12.270  0.1508 -0.2056  0.0887
 1009W        W 5060   3.699   2.322   2.431  0.1076 -0.0261  0.1671
 1010W        W 5061   1.260   9.502   1.283 -0.1926 -0.3009  0.1100
 1011W        W 5062   1.822   4.898   3.227  0.0263  0.5232 -0.2333
 1012W        W 5063   3.658   9.074   2.240 -0.1454  0.1900 -0.0317
 1013W        W 5064   3.972   4.516   2.699 -0.0665 -0.4523 -0.4849
 1014W        W 5065   3.669   0.800  13.620  0.4028  0.1368 -0.4026
 1015W        W 5066   8.897   7.980   0.617  0.2176 -0.0730  0.0878
 1016W        W 5067   7.945   2.434   3.942 -0.0446  0.0870  0.1966
 1017W        W 5068   0.174   4.772   1.903 -0.1509  0.2854 -0.1914
 1018W        W 5069   1.393   1.765  13.130  0.1734  0.1157  0.1230
 1019W        W 5070   9.984   9.037  13.308  0.2969  0.1663 -0.2125
 1020W        W 5071   4.928   9.139   4.164  0.0432 -0.1433 -0.2633
 1021W        W 5072   1.963   0.660  11.048 -0.1863  0.0089  0.0247
 1022W        W 5073  10.026   7.890  11.538  0.2781  0.0253 -0.0719
 1023W        W 5074   9.627   7.785   0.243  0.2453 -0.0830  0.2579
 1024W        W 5075   9.905   4.825   0.267 -0.0411 -0.2104 -0.2356
 1025W        W 5076   4.947   8.625   3.072 -0.3155 -0.0412  0.2438
 1026W        W 5077   7.364   7.913   2.546 -0.0801 -0.0467  0.0120
 1027W        W 5078   7.207   1.378  10.270 -0.1160 -0.0809  0.2086
 1028W        W 5079   8.324   1.724   2.780 -0.0232  0.3042 -0.2306
 1029W        W 5080   3.669   3.589   1.242 -0.0652  0.0148  0.1868
 1030W        W 5081   3.762   8.563   2.404 -0.0346 -0.1013  0.1847
 1031W        W 5082   4.643   3.584  10.865 -0.0952  0.0138 -0.0793
 1032W        W 5083   9.212   0.116   4.028  0.0157  0.0507 -0.1989
 1033W        W 5084   6.994   0.600   2.772  0.0516 -0.2323 -0.0372
 1034W        W 5085   6.083   7.467   1.599 -0.2995  0.1086 -0.2314
 1035W        W 5086   8.774   0.853   3.108  0.0690 -0.2546 -0.2399
 1036W        W 5087   7.540   2.945  11.019 -0.0926  0.2331 -0.0666
 1037W        W 5088   3.278   0.650   1.080 -0.0303  0.0340 -0.1232
 1038W        W 5089   4.112   0.420  12.398  0.0741  0.0182  0.2817
 1039W        W 5090   0.756   9.772   2.274  0.1502  0.2075 -0.0737
 1040W        W 5091   3.505   2.865   1.320  0.0097 -0.0895  0.0874
 1041W        W 5092   5.318   7.536   3.585 -0.2369 -0.2371 -0.0666
 1042W        W 5093   4.513   4.237  10.158 -0.1358  0.3661  0.0679
 1043W        W 5094   8.962   7.689   4.895  0.0776 -0.0228 -0.2086
 1044W        W 5095   9.684   5.938   4.138 -0.0673  0.0085  0.4271
 1045W        W 5096   9.785   5.280  12.587 -0.1068 -0.0495 -0.0523
 1046W        W 5097   0.947   1.098  10.354 -0.0526 -0.0979  0.1894
 1047W        W 5098   6.609   9.380   3.064 -0.2116 -0.0543  0.0575
 1048W        W 5099   8.006   3.183   1.276  0.1518  0.2879  0.1196
 1049W        W 5100   9.787   1.670  10.096  0.1184  0.1821 -0.1851
 1050W        W 5101   3.091   8.032  10.191  0.0146  0.0192  0.1956
 1051W        W 5102   2.767   0.830   3.358  0.0944  0.1531 -0.0910
 1052W        W 5103   5.393   7.370   0.248 -0.0203  0.3991  0.3147
 1053W        W 5104   2.650   3.363   1.203  0.0626  0.0507 -0.1482
 1054W        W 5105   1.347   2.194   9.546 -0.1273 -0.0860  0.0582
 1055W        W 5106   6.497   2.198  13.599  0.0733  0.0971 -0.0461
 1056W        W 5107   4.494   3.122   3.502 -0.0018  0.0422 -0.0775
 1057W        W 5108   7.769   0.380  13.357 -0.1862  0.0862  0.4306
 1058W        W 5109   4.972   6.325   4.063  0.0869 -0.1753 -0.1223
 1059W        W 5110   7.459   3.044  11.994  0.0832  0.1159  0.2363
 1060W        W 5111   4.041   5.279  13.721 -0.1398 -0.3809 -0.5376
 1061W        W 5112   7.323   1.863   8.672 -0.0730  0.0489 -0.1077
 1062W        W 5113   3.020   6.991   1.135  0.1212 -0.1118 -0.1585
 1063W        W 5114   2.134   5.235  10.221 -0.1328  0.0579  0.2334
 1064W        W 5115   4.836   0.155   2.449  0.1233  0.0422 -0.0516
 1065W        W 5116   9.437   8.245   2.866  0.0615  0.2512 -0.3853
 1066W        W 5117   9.039  10.147  13.943 -0.2305  0.2670 -0.2126
 1067W        W 5118   4.246   0.742  12.040 -0.3858  0.2009  0.1267
 1068W        W 5119   7.821   2.256  12.574  0.2045  0.0196 -0.1245
 1069W        W 5120   2.039   8.823  13.137  0.2917 -0.1167  0.1778
 1070W        W 5121   9.395   8.076  13.731  0.2658  0.2605 -0.0452
 1071W        W 5122   7.962   1.756   4.510 -0.3120 -0.1254  0.0603
 1072W        W 5123   3.512   1.457  12.806 -0.0836 -0.0644 -0.1214
 1073W        W 5124   0.874   3.298   3.149  0.0885 -0.1853  0.1612
 1074W        W 5125   5.640   4.050  12.299 -0.0437  0.4588 -0.2553
 1075W        W 5126   3.959   9.484  12.309  0.0247 -0.0161 -0.0655
 1076W        W 5127   8.190   2.607  12.896 -0.0390 -0.1793 -0.0845
 1077W        W 5128   1.158   9.350   0.280 -0.1300 -0.0256  0.0057
 1078W        W 5129   6.259   1.658   9.468  0.2370  0.1542 -0.0026
 1079W        W 5130   7.823   4.848  12.476 -0.1908  0.0399  0.0964
 1080W        W 5131   4.217   4.986   1.842  0.3797 -0.0187  0.0564
 1081W        W 5132   5.861   3.396   4.229  0.0495  0.0887 -0.1855
 1082W        W 5133   7.231   4.198  10.435  0.0087 -0.0298 -0.0260
 1083W        W 5134   6.302   4.916   3.633  0.1052 -0.0779  0.1878
 1084W        W 5135   1.735   8.597   3.930  0.1563 -0.0283  0.4108
 1085W        W 5136   6.388  10.182  11.221  0.1338 -0.1479  0.0954
 1086W        W 5137   9.188   0.177   8.600  0.1101 -0.1003  0.3385
 1087W        W 5138   1.468   7.646   4.404  0.1265 -0.0579  0.3076
 1088W        W 5139   3.554   7.553  12.282  0.3152 -0.0085  0.0453
 1089W        W 5140   8.432   9.687   9.231 -0.1350 -0.2308  0.1288
 1090W        W 5141   7.544   4.316   8.335  0.0498 -0.0871  0.0507
 1091W        W 5142   5.225   0.445  11.821 -0.1407  0.1070  0.0600
 1092W        W 5143   2.738   5.478   7.056 -0.1225 -0.1184 -0.1944
 1093W        W 5144   0.583   0.162   3.497 -0.0431 -0.0763  0.1089
 1094W        W 5145   2.174   1.398  10.475  0.1008  0.0709 -0.1927
 1095W        W 5146   1.200   3.412  12.837 -0.1243  0.1677  0.3639
 1096W        W 5147   4.346   3.726   0.913  0.1175  0.3615  0.0094
 1097W        W 5148   9.979   7.835  12.936 -0.3170  0.2890 -0.2311
 1098W        W 5149   6.059   6.549  10.717  0.1836 -0.2810 -0.0808
 1099W        W 5150   5.749   1.371   4.186  0.1540  0.1324 -0.1480
 1100W        W 5151   2.009   0.670  10.144 -0.2009 -0.0574  0.0917
 1101W        W 5152   2.482   6.588   2.767 -0.1140 -0.3371 -0.1012
 1102W        W 5153   5.300   5.932   1.095  0.0092  0.2000  0.3665
 1103W        W 5154   9.029   7.227  11.651  0.0464  0.0736 -0.0147
 1104W        W 5155   3.684   8.199   1.657 -0.4516  0.1885 -0.2524
 1105W        W 5156   3.960   0.212  11.513  0.1146 -0.1332  0.3645
 1106W        W 5157   7.003   9.912  12.613  0.1128  0.1065  0.3854
 1107W        W 5158   6.015   7.884   0.555 -0.2534  0.0162 -0.1285
 1108W        W 5159   9.123   8.011   1.104 -0.0800 -0.1107 -0.2160
 1109W        W 5160   3.661   2.342  11.236  0.1535  0.1084  0.2799
 1110W        W 5161   1.522   4.863   1.022 -0.0916 -0.0234  0.0959
 1111W        W 5162   5.547   8.268  11.549 -0.2608  0.0194 -0.1607
 1112W        W 5163   6.127   1.750   8.955 -0.0571 -0.0830 -0.3197
 1113W        W 5164   2.089   9.548   0.353  0.2163  0.1465  0.1283
 1114W        W 5165   2.594   8.203  11.439  0.2481 -0.0895  0.1443
 1115W        W 5166   0.129   9.896   1.728  0.1957 -0.2845  0.2921
 1116W        W 5167   9.291   3.117  10.299 -0.0647 -0.5980 -0.4309
 1117W        W 5168   4.673   3.274  12.240 -0.0727  0.0068  0.0948
 1118W        W 5169   4.940   3.168  13.745 -0.1013 -0.1017  0.3221
 1119W        W 5170   6.241   7.407   3.300 -0.0187  0.0291  0.2071
 1120W        W 5171   8.995   2.323   8.809  0.0251  0.0682  0.0712
 1121W        W 5172   5.504   4.289   9.458  0.0562 -0.0517  0.4233
 1122W        W 5173   1.631   0.346  11.930  0.2262  0.1726 -0.1940
 1123W        W 5174   5.050   1.691  10.267  0.0690 -0.1795  0.1095
 1124W        W 5175   3.155   3.748  11.058 -0.5176  0.3108 -0.2043
 1125W        W 5176   1.132   7.289   0.347 -0.0402  0.0108  0.3935
 1126W        W 5177   5.536   1.897  10.181 -0.3106 -0.0596  0.1312
 1127W        W 5178   3.050   9.615   5.070 -0.0018  0.0952  0.0398
 1128W        W 5179   2.808   1.939  12.762 -0.1824 -0.2490 -0.0588
 1129W        W 5180   6.969   7.443   4.044  0.0748 -0.0315 -0.2613
 1130W        W 5181   0.554   1.717   4.985 -0.2212  0.2385  0.1185
 1131W        W 5182   9.879   4.419  10.151  0.0312 -0.1979 -0.1869
 1132W        W 5183   1.720   3.174  10.668 -0.1808  0.0393 -0.2206
 1133W        W 5184   6.285   3.891   1.254 -0.1086  0.0984  0.0463
 1134W        W 5185   4.891   5.616   3.549 -0.1572 -0.0120  0.0728
 1135W        W 5186   9.657   9.951   2.341 -0.1106  0.2327 -0.0483
 1136W        W 5187   6.193   5.489  13.102  0.0218 -0.3033  0.0900
 1137W        W 5188   1.524   6.758   2.774 -0.2757  0.2692  0.0917
 1138W        W 5189   1.013   4.510   3.358  0.0012  0.2662  0.1984
 1139W        W 5190   5.777   7.815   2.559  0.0404 -0.3872  0.0702
 1140W        W 5191   6.494   2.444   2.631 -0.1871 -0.1470  0.4345
 1141W        W 5192   9.364   1.887   2.567 -0.1720  0.0113 -0.0331
 1142W        W 5193   1.322   8.476  10.072 -0.1823 -0.0832 -0.3280
 1143W        W 5194   7.048   7.501  12.409 -0.0354  0.0716  0.0744
 1144W        W 5195   4.902   4.141   5.274 -0.1781 -0.3153  0.1683
 1145W        W 5196   8.705   2.408   9.202 -0.2873  0.1462 -0.2339
 1146W        W 5197   4.376   6.509   2.390 -0.2249 -0.0726  0.2092
 1147W        W 5198   6.438   7.054   9.867 -0.0094 -0.1571  0.2074
 1148W        W 5199   2.369   9.396  10.984  0.0159 -0.1124 -0.2051
 1149W        W 5200   5.394   9.854  11.663  0.2114  0.1398 -0.1005
 1150W        W 5201   6.052   7.739   9.533 -0.1377 -0.3008 -0.2052
 1151W        W 5202   5.660   2.253  13.075 -0.1450  0.4126 -0.1330
 1152W        W 5203   9.693   5.358   3.291 -0.0750  0.1042 -0.1106
 1153W        W 5204   0.394   0.345   4.229 -0.0012 -0.6499  0.3733
 1154W        W 5205   6.389   7.994  13.248 -0.2291  0.0900  0.3782
 1155W        W 5206   7.149   1.003   9.942 -0.1636  0.0051 -0.4768
 1156W        W 5207   5.380   8.006   3.374 -0.1058 -0.0282  0.1332
 1157W        W 5208   3.741   9.223   1.079 -0.4882  0.2622 -0.3662
 1158W        W 5209   4.643   1.813  12.922  0.1342 -0.3795  0.2426
 1159W        W 5210   7.463   1.878   2.998 -0.2107 -0.2213 -0.1763
 1160W        W 5211   1.204   8.654   1.556 -0.0387 -0.2102  0.0946
 1161W        W 5212   8.928  10.004  12.761 -0.0434  0.0713 -0.2565
 1162W        W 5213   1.305   8.424  10.546 -0.1846  0.1486 -0.2193
 1163W        W 5214   7.094   0.905   0.153  0.1984 -0.1307  0.0288
 1164W        W 5215   7.010   5.597   9.871  0.0108 -0.0054  0.2588
 1165W        W 5216   4.589   9.645   9.781 -0.2011 -0.0281  0.1782
 1166W        W 5217   9.978   2.051  11.472 -0.2248 -0.0320 -0.0534
 1167W        W 5218   5.291   6.455   1.894  0.2462 -0.1213 -0.1121
 1168W        W 5219   5.104   8.495   1.161  0.2057 -0.0624  0.0789
 1169W        W 5220   6.298   0.067   2.563  0.3380  0.1888 -0.1535
 1170W        W 5221   6.258   1.509   1.969 -0.1835 -0.0274  0.2726
 1171W        W 5222   0.539   1.778  12.613  0.1733  0.0355  0.0086
 1172W        W 5223   1.438   7.605   9.984 -0.1957  0.1017  0.1266
 1173W        W 5224   2.191   6.748   0.934  0.1747 -0.0192 -0.1942
 1174W        W 5225   6.802   4.309   3.406  0.1703 -0.1793 -0.0345
 1175W        W 5226   0.622  10.061   2.653 -0.0584 -0.3012  0.1748
 1176W        W 5227   3.793   9.925  11.356  0.1393  0.1901 -0.1317
 1177W        W 5228   2.982   8.438   1.842  0.1325 -0.1478  0.3079
 1178W        W 5229   5.735   5.584   0.717 -0.0228 -0.0187  0.0708
 1179W        W 5230   6.852   8.833   0.345 -0.4118  0.0519  0.1212
 1180W        W 5231   1.037   1.447   3.718  0.1705 -0.3926  0.0595
 1181W        W 5232   1.237   6.989   3.897 -0.1513  0.0250  0.0950
 1182W        W 5233   7.260   3.071   9.464  0.2356  0.3412 -0.0678
 1183W        W 5234   4.648   7.025  10.287 -0.1015 -0.1653  0.0281
 1184W        W 5235   8.151   5.962   1.163 -0.1977 -0.2293 -0.2776
 1185W        W 5236   3.001   4.772   1.803  0.1994  0.2177  0.1573
 1186W        W 5237   2.288   2.182   3.275 -0.1512 -0.3027  0.1605
 1187W        W 5238   9.392   5.104   4.925 -0.2157 -0.0118 -0.0691
 1188W        W 5239   2.530   6.098   3.791 -0.0119 -0.0533 -0.1576
 1189W        W 5240   7.128   0.795   2.253 -0.1616 -0.3541 -0.1088
 1190W        W 5241   8.212   0.119   8.451  0.1265  0.3645 -0.2385
 1191W        W 5242   8.949   3.474   4.100  0.2158 -0.0382 -0.1705
 1192W        W 5243   5.857   4.040  11.411 -0.0301  0.3622 -0.0020
 1193W        W 5244   4.731   1.183   1.756  0.3105  0.3546 -0.0152
 1194W        W 5245  10.023   7.392  10.487 -0.4128  0.2027  0.2454
 1195W        W 5246   9.227   4.616  12.530  0.1530  0.2896  0.1383
 1196W        W 5247   2.837   7.882   3.498 -0.1171  0.3249 -0.0024
 1197W        W 5248   6.239   1.189   2.498 -0.0864  0.1543  0.2203
 1198W        W 5249   7.808  10.138  11.377 -0.3031  0.0340  0.0774
 1199W        W 5250   4.367   8.717   1.794  0.1423  0.0202  0.0696
 1200W        W 5251   0.370   8.076   1.189  0.0358  0.0000  0.0491
 1201W        W 5252   5.167   9.075   1.838  0.0427  0.7491 -0.0103
 1202W        W 5253   9.898   2.733   2.012 -0.2830  0.2088 -0.0590
 1203W        W 5254   3.043   5.991  12.973  0.1166 -0.0959  0.0041
 1204W        W 5255   3.551  10.006   2.229 -0.0093 -0.0798  0.2580
 1205W        W 5256   1.756   6.008   2.502  0.1541 -0.4249 -0.0172
 1206W        W 5257   8.560   8.858   1.252 -0.2363 -0.1689  0.1902
 1207W        W 5258   5.340   9.724   4.166  0.2505 -0.2645 -0.1114
 1208W        W 5259   4.346   8.238  10.217  0.2299 -0.2832 -0.0694
 1209W        W 5260   5.059   4.483   3.850 -0.2190 -0.1214  0.3048
 1210W        W 5261   7.433   8.170   4.510  0.0465 -0.1157  0.4385
 1211W        W 5262   7.274   8.713   3.898  0.0207 -0.2776  0.0181
 1212W        W 5263   0.455   5.990   4.040  0.2115 -0.1405  0.0825
 1213W        W 5264   2.326   6.297   1.301  0.3046  0.0064 -0.1018
 1214W        W 5265   8.572   5.332  10.164 -0.1089 -0.1420 -0.2459
 1215W        W 5266   4.742   5.585   1.970  0.1629 -0.0362 -0.2016
 1216W        W 5267   9.263   2.005   1.950 -0.1849  0.0838  0.0672
 1217W        W 5268   3.138   8.658   2.805  0.3799  0.1091  0.0178
 1218W        W 5269   5.414   2.493   1.417  0.1527  0.3084 -0.0271
 1219W        W 5270   3.629   2.904  11.158 -0.1515  0.2461  0.0438
 1220W        W 5271   6.964   9.590   4.787  0.0253 -0.1435  0.0195
 1221W        W 5272   7.372   7.237  13.094 -0.1744 -0.2068  0.2554
 1222W        W 5273   3.707   0.319   2.303 -0.0488  0.0896 -0.0490
 1223W        W 5274   2.704   0.557  11.573 -0.2182  0.0031  0.1137
 1224W        W 5275   8.946   2.001  10.106 -0.0224  0.0311 -0.0573
 1225W        W 5276   3.880   9.797  13.127 -0.0338 -0.1063  0.0762
 1226W        W 5277   6.680   7.993  10.681 -0.0064 -0.0760  0.5718
 1227W        W 5278   3.083   3.367  13.497  0.1334  0.2503  0.0544
 1228W        W 5279   1.860   0.169   1.334 -0.1007  0.0830 -0.0252
 1229W        W 5280   7.325   1.042  12.500 -0.0650  0.0538 -0.0453
 1230W        W 5281   2.600   3.448  12.769 -0.2526 -0.1798 -0.0370
 1231W        W 5282   8.542   3.299  11.197  0.0285  0.3180 -0.0597
 1232W        W 5283   4.137   0.942  10.110 -0.0942 -0.1424  0.2039
 1233W        W 5284   4.293   2.212  11.266 -0.0767  0.2059  0.1294
 1234W        W 5285   3.575   8.239  13.063 -0.1663  0.1242  0.2454
 1235W        W 5286   2.695   9.473   9.033 -0.2301  0.2542 -0.0020
 1236W        W 5287   1.745   5.739   3.457  0.1189 -0.3625  0.0955
 1237W        W 5288   2.939   9.460   9.541 -0.0092 -0.0801 -0.0345
 1238W        W 5289   3.805   9.483  11.115  0.3284  0.2246  0.1518
 1239W        W 5290   1.030   7.604  10.588  0.1473 -0.0366  0.0498
 1240W        W 5291   6.766   4.181  13.876  0.2510  0.1414 -0.0442
 1241W        W 5292   0.268   2.991  13.862 -0.1458 -0.2026  0.3002
 1242W        W 5293   1.425   7.982  12.809 -0.1428  0.0496 -0.1777
 1243W        W 5294   5.359   4.090  10.433  0.1196 -0.3000 -0.1094
 1244W        W 5295   4.946   7.864   4.773  0.1050  0.1074 -0.3819
 1245W        W 5296   0.450   1.910   0.821  0.2920  0.0678 -0.0539
 1246W        W 5297   8.224   6.700   1.830  0.0708 -0.2342  0.1204
 1247W        W 5298   4.079   3.640   2.905 -0.1422  0.0181  0.1186
 1248W        W 5299   2.651   3.185  10.470  0.2396 -0.1587 -0.1195
 1249W        W 5300   2.793   0.639   0.229  0.0482 -0.1053  0.3210
 1250W        W 5301   6.944   5.189   2.912 -0.1167 -0.1674  0.4161
 1251W        W 5302   7.857   6.252   0.877  0.0747 -0.0052 -0.2734
 1252W        W 5303   0.518   9.699  13.562 -0.1029 -0.3083  0.1049
 1253W        W 5304   4.615   9.757   2.277  0.1104  0.2283 -0.0802
 1254W        W 5305   7.255   2.553  12.010  0.1236 -0.2087  0.1027
 1255W        W 5306   0.900   9.299  10.947  0.0846  0.0108  0.3590
 1256W        W 5307   9.051   1.230  11.919  0.0133 -0.2636 -0.1184
 1257W        W 5308   3.774   0.132  11.933 -0.0127 -0.1318 -0.0085
 1258W        W 5309   5.637   3.206  13.028 -0.0239  0.1624 -0.1303
 1259W        W 5310   5.757   9.426   1.753  0.2940  0.1495  0.1337
 1260W        W 5311   7.563   5.860  12.930  0.0199 -0.1511  0.0900
 1261W        W 5312   6.489   8.860  11.314  0.4565  0.0239  0.2235
 1262W        W 5313   1.100   2.943   9.845 -0.1024  0.2398  0.0158
 1263W        W 5314   8.000   9.617   3.279 -0.4174 -0.2925  0.0992
 1264W        W 5315   7.692   7.528   1.653  0.0385  0.2405 -0.1826
 1265W        W 5316   7.707   6.134  13.338 -0.0593  0.3106 -0.0794
 1266W        W 5317   3.925   4.774  11.908  0.2740  0.0492 -0.1190
 1267W        W 5318   8.368   2.240   9.862 -0.0025 -0.1576  0.2562
 1268W        W 5319   3.969   1.559  12.535  0.1697 -0.0687 -0.4271
 1269W        W 5320   9.971   6.949   9.074  0.0280  0.1333 -0.2098
 1270W        W 5321   3.714   5.598  10.609 -0.2038  0.1882  0.1872
 1271W        W 5322   0.247   6.263   2.404  0.0906 -0.2337 -0.0834
 1272W        W 5323  10.019   6.179   3.186 -0.1076 -0.2493  0.2101
 1273W        W 5324   6.571   4.821   2.739 -0.0620  0.3018 -0.0318
 1274W        W 5325   6.785   3.669   0.827 -0.0804  0.0959  0.1223
 1275W        W 5326   2.856   5.793   3.933  0.0612 -0.1728  0.3929
 1276W        W 5327   8.907   8.112   1.543  0.2993 -0.2391 -0.1828
 1277W        W 5328   5.233   7.315  12.874 -0.0175  0.0403 -0.0457
 1278W        W 5329   3.508   3.154   2.624  0.1524  0.0117  0.1803
 1279W        W 5330   5.108   9.941   4.821  0.0770  0.0121  0.3832
 1280W        W 5331   4.969   7.611   2.723  0.2685  0.1799 -0.3021
 1281W        W 5332   2.147   6.846  11.790  0.1762  0.1330 -0.2041
 1282W        W 5333   1.484   6.933  10.236  0.1415  0.1300  0.0003
 1283W        W 5334   5.450   3.699  13.105 -0.1486  0.0323  0.0875
 1284W        W 5335   1.072   5.586  13.828  0.3541 -0.1007 -0.0650
 1285W        W 5336   0.396   0.743   5.077  0.3353 -0.3256  0.3128
 1286W        W 5337   6.407   0.351   1.264 -0.2208 -0.1393 -0.0255
 1287W        W 5338  10.062   3.864   3.675  0.0519 -0.0159  0.0474
 1288W        W 5339   0.098   2.729  10.691 -0.0696  0.0700 -0.4529
 1289W        W 5340   4.737   6.608  12.690 -0.1716  0.1844 -0.1281
 1290W        W 5341   7.308   8.818   1.372  0.2244 -0.4875 -0.1588
 1291W        W 5342   8.531   3.361   9.285 -0.1847 -0.0809  0.2175
 1292W        W 5343   8.260   0.027   1.498  0.0173 -0.3762 -0.0072
 1293W        W 5344   5.247   1.668   9.753 -0.2271 -0.0001  0.1708
 1294W        W 5345   5.237   8.859   0.830 -0.2418 -0.2732 -0.3257
 1295W        W 5346   1.277   9.218   3.385 -0.2137 -0.0978 -0.1040
 1296W        W 5347   1.398   7.108  13.259 -0.1055  0.0999 -0.1183
 1297W        W 5348   6.130   8.020  12.530 -0.0114 -0.1661 -0.3438
 1298W        W 5349   2.377   0.885  13.070 -0.1565 -0.3107  0.1049
 1299W        W 5350   6.826   3.757  11.615  0.3200  0.0552  0.5771
 1300W        W 5351   4.093   9.146  11.353 -0.1611 -0.0094  0.2303
 1301W        W 5352   2.490   3.220   0.610 -0.2821  0.3660  0.1513
 1302W        W 5353   7.273   7.461   0.093 -0.1275  0.2307  0.1519
 1303W        W 5354   8.671   4.398   4.166 -0.3279  0.1939 -0.0821
 1304W        W 5355   0.276   2.221  11.552  0.2706  0.1066 -0.0629
 1305W        W 5356   2.390   5.497   2.890  0.0688 -0.1777 -0.1074
 1306W        W 5357   7.868   5.673  10.609 -0.0781  0.0787 -0.2157
 1307W        W 5358   9.531   3.466   4.864  0.0090 -0.0181  0.3249
 1308W        W 5359   4.446   1.219   4.533  0.3114  0.1919 -0.2041
 1309W        W 5360   7.296   0.071   9.945 -0.1681  0.1225 -0.2885
 1310W        W 5361   9.814   8.004  11.043  0.1096 -0.2516  0.1642
 1311W        W 5362   3.883   0.998   0.843  0.0551 -0.1745  0.3516
 1312W        W 5363   9.796   4.532  12.067  0.1522 -0.0758  0.3861
 1313W        W 5364   3.785   0.188  10.586 -0.2842 -0.2444 -0.1335
 1314W        W 5365   5.512   8.586  10.226  0.1948  0.2090  0.2348
 1315W        W 5366   3.143   9.433  12.785  0.0661 -0.1959 -0.0554
 1316W        W 5367   5.699   1.930   9.630 -0.0092 -0.0440 -0.0757
 1317W        W 5368   7.620   7.640  10.790  0.0044 -0.3712  0.0695
 1318W        W 5369   2.749   2.978   3.647  0.1589  0.0415  0.3949
 1319W        W 5370   3.701   0.955  11.042  0.0337 -0.1881  0.1512
 1320W        W 5371   2.501   1.828  10.473  0.0505  0.2058  0.0889
 1321W        W 5372   9.129   2.340  10.460  0.3851  0.0989  0.0854
 1322W        W 5373   8.834   4.738   1.338 -0.1420  0.1297 -0.0746
 1323W        W 5374   2.153   2.592  12.939 -0.1934  0.0032  0.1199
 1324W        W 5375   7.350   4.500   0.017  0.0694  0.1656 -0.2874
 1325W        W 5376   4.671   8.132   4.412  0.0937  0.1619  0.1485
 1326W        W 5377   4.540   9.801  11.753 -0.1523 -0.0490 -0.1421
 1327W        W 5378   3.473   7.302   0.775  0.1763 -0.4086  0.1750
 1328W        W 5379   4.737   1.305   9.999 -0.0983  0.0898  0.1138
 1329W        W 5380   6.946   8.030   9.819  0.3344  0.2517 -0.0590
 1330W        W 5381   9.713   9.605   0.235  0.0356  0.2527  0.0498
 1331W        W 5382   1.104   7.221  10.166  0.1616  0.1897  0.1602
 1332W        W 5383   8.239   4.311   2.084  0.1570 -0.0501  0.1935
 1333W        W 5384   9.361   8.423   1.421  0.3453  0.0332  0.4169
 1334W        W 5385   3.914   8.770   4.483  0.2008  0.1551 -0.0556
 1335W        W 5386   1.713   0.426   4.013  0.1502 -0.0772  0.0535
 1336W        W 5387   5.506   1.431  12.198 -0.0452  0.2345  0.1945
 1337W        W 5388   4.582   1.522  11.475 -0.3413  0.3431 -0.1569
 1338W        W 5389   7.638   0.494   3.423 -0.0069  0.4508  0.0883
 1339W        W 5390   7.421   7.947   1.885  0.1079 -0.1421  0.0339
 1340W        W 5391   9.299   1.862   4.667  0.1221  0.0582  0.1870
 1341W        W 5392   8.884   9.540  10.860  0.1117  0.1052 -0.2262
 1342W        W 5393   4.474   4.750   2.813 -0.0223  0.2172  0.2703
 1343W        W 5394   9.294   9.946   9.811  0.4192 -0.3664 -0.2369
 1344W        W 5395   6.255   0.140   4.961  0.0406 -0.2176  0.0263
 1345W        W 5396   6.399   0.552  13.574  0.1549  0.2593 -0.0219
 1346W        W 5397   8.942   8.011  13.480 -0.0542  0.0722  0.1438
 1347W        W 5398   7.121   1.595   5.201 -0.0305 -0.1673 -0.0847
 1348W        W 5399   3.637   3.150   3.571 -0.0676 -0.1160  0.1422
 1349W        W 5400   6.659   0.240   2.832  0.1842 -0.1480  0.0269
 1350W        W 5401   0.590   3.813   4.783 -0.2439  0.0795  0.1184
 1351W        W 5402   5.826   3.130   0.920 -0.1151 -0.2607  0.0132
 1352W        W 5403   6.890   6.647   1.817  0.0789 -0.0720  0.5403
 1353W        W 5404   7.416   2.796   0.073  0.0520  0.0584 -0.2491
 1354W        W 5405   4.690   3.605   1.972  0.0453 -0.0636  0.0118
 1355W        W 5406   7.622   6.935   4.775  0.1426 -0.1337 -0.1612
 1356W        W 5407   0.386   9.167  10.915 -0.5069  0.3127 -0.0430
 1357W        W 5408   5.892   1.580  10.371 -0.0206 -0.0468  0.1378
 1358W        W 5409   5.697   1.000   1.294 -0.2616  0.0783  0.1571
 1359W        W 5410   1.459   8.279  13.960  0.0719  0.4656  0.0579
 1360W        W 5411   1.636   3.627   0.594 -0.0837 -0.2076 -0.4719
 1361W        W 5412   8.703   6.261  11.144 -0.1100 -0.1403  0.1391
 1362W        W 5413   7.689   3.696   0.216 -0.0385  0.3222 -0.1734
 1363W        W 5414   9.385   3.479   2.743 -0.0932 -0.1316 -0.3406
 1364W        W 5415   3.637   3.519   2.945 -0.2996  0.0520 -0.0951
 1365W        W 5416   8.864   0.767   1.382 -0.0622  0.1041  0.0589
 1366W        W 5417   9.386   4.284  13.158  0.0883  0.0497 -0.2072
 1367W        W 5418   2.751   7.211  10.275  0.3322 -0.0264 -0.0124
 1368W        W 5419   2.337   5.436   1.159 -0.3247  0.0638  0.0349
 1369W        W 5420   5.225   7.627  10.620  0.0679 -0.0073 -0.1962
 1370W        W 5421   9.268   1.418   2.795 -0.1484  0.0292 -0.3142
 1371W        W 5422   2.308   2.755   2.891 -0.1374  0.2565  0.0762
 1372W        W 5423   8.706   5.043   1.909 -0.0225  0.3592 -0.1675
 1373W        W 5424   6.055   0.016   1.611 -0.3409  0.1168 -0.0183
 1374W        W 5425   6.824   4.383   4.225  0.1462  0.0684 -0.2243
 1375W        W 5426   8.882   3.603  11.022  0.1966  0.0310  0.0480
 1376W        W 5427   2.809   1.342   9.020 -0.0961 -0.0012  0.0366
 1377W        W 5428   7.416   4.406  12.047 -0.1784  0.0823 -0.0499
 1378W        W 5429   0.654   5.847   3.188 -0.1860  0.0969 -0.0412
 1379W        W 5430   2.655   3.424   0.021 -0.1711  0.2086  0.0932
 1380W        W 5431   7.218   4.499  11.321 -0.0713  0.2751  0.1697
 1381W        W 5432   1.024   8.268   5.192  0.2124  0.0826 -0.2356
 1382W        W 5433   0.870   6.142   2.859 -0.4431 -0.1468  0.2057
 1383W        W 5434   9.643   9.722  11.584 -0.2285  0.0453  0.3735
 1384W        W 5435   1.076   9.268   9.028 -0.0941  0.3716 -0.1898
 1385W        W 5436   8.015   4.667  13.305  0.1613 -0.1957 -0.1053
 1386W        W 5437  10.004   8.600   5.388 -0.1360 -0.1303  0.2667
 1387W        W 5438   4.968   6.051   1.715 -0.0250 -0.0481 -0.1602
 1388W        W 5439   1.160   9.093  11.373  0.3063  0.1365  0.3072
 1389W        W 5440   4.387   8.397   9.707 -0.0853  0.2200  0.0105
 1390W        W 5441   7.133   1.331   0.760  0.2187  0.1303 -0.1561
 1391W        W 5442   2.252   9.778   2.944  0.1015 -0.2085 -0.1182
 1392W        W 5443   7.879   8.888   2.159  0.0361 -0.4153 -0.2106
 1393W        W 5444   2.545   0.496   1.877  0.3731 -0.0682 -0.1192
 1394W        W 5445   9.076   4.460   2.399  0.0648  0.1306  0.0118
 1395W        W 5446   9.462   6.789   4.279  0.0009  0.1311  0.1048
 1396W        W 5447   9.681   0.316  11.293  0.1018  0.1352 -0.1549
 1397W        W 5448   5.406   6.863   9.513 -0.1755 -0.0558 -0.5910
 1398W        W 5449   1.592   7.657  12.409 -0.3035 -0.1759 -0.1401
 1399W        W 5450   8.559   0.617  12.292 -0.0889  0.1907  0.3364
 1400W        W 5451   7.455   6.489   4.497  0.0042 -0.0689 -0.1890
 1401W        W 5452   3.472   6.748  11.372 -0.0467 -0.1638 -0.0482
 1402W        W 5453   6.883   4.557  10.418 -0.0009 -0.5668  0.1539
 1403W        W 5454   7.813   3.435  12.838 -0.2560  0.0314 -0.0975
 1404W        W 5455   5.155   7.853  10.181  0.3792  0.2005  0.0141
 1405W        W 5456   0.567   7.677   3.642  0.0907  0.0232 -0.0290
 1406W        W 5457   3.469   0.333  10.128 -0.1421 -0.3969 -0.0767
 1407W        W 5458   4.196   9.768   2.709  0.0135 -0.1719  0.0794
 1408W        W 5459   6.964   2.124   9.754 -0.3253  0.0536  0.0459
 1409W        W 5460   4.748   2.249  13.816  0.0679  0.1697 -0.0906
 1410W        W 5461   4.874   4.486  11.764  0.2596  0.0653 -0.1867
 1411W        W 5462   3.113   3.764  13.866 -0.1372 -0.0488  0.2345
 1412W        W 5463   2.475   2.268   1.892 -0.0841  0.1777 -0.4202
 1413W        W 5464   5.422   0.941  10.506  0.0050  0.2637 -0.1075
 1414W        W 5465   4.161   8.890   2.358 -0.0848 -0.1033  0.0612
 1415W        W 5466   0.368   5.264  11.298 -0.0614 -0.2288 -0.0251
 1416W        W 5467   5.445   9.341   4.971  0.0251  0.2472  0.0241
 1417W        W 5468   8.362   8.212  13.650 -0.0524  0.0362  0.1916
 1418W        W 5469   1.668   2.249  12.904  0.2349 -0.2933 -0.0355
 1419W        W 5470   0.582   7.860  11.907 -0.1381  0.4374 -0.0872
 1420W        W 5471   1.373   6.198   2.810 -0.0412 -0.1989 -0.0119
 1421W        W 5472   9.289   3.718  12.858 -0.2799 -0.0433  0.0795
 1422W        W 5473   2.862   3.087   2.201 -0.2252  0.1880  0.2494
 1423W        W 5474   3.270   1.312   2.141 -0.1359 -0.0757 -0.0020
 1424W        W 5475   3.029   2.926   4.153 -0.3099  0.2028  0.0131
 1425W        W 5476   8.144   6.799   4.277  0.3211  0.0116  0.0827
 1426W        W 5477   7.785   7.656   0.168 -0.2735  0.4329 -0.2414
 1427W        W 5478   6.493   1.417  11.091 -0.2246  0.4194 -0.1814
 1428W        W 5479   8.228   4.132   9.716 -0.0665 -0.2003 -0.0702
 1429W        W 5480   3.069   8.863   0.285  0.1839 -0.1637  0.1239
 1430W        W 5481   6.522   8.428  12.609 -0.2169 -0.0597  0.0830
 1431W        W 5482   9.018   1.172  13.176 -0.0651  0.2455  0.0055
 1432W        W 5483   6.295   1.097  13.693  0.0286  0.0285  0.1560
 1433W        W 5484   9.784   4.687   0.730  0.1397 -0.2028 -0.1569
 1434W        W 5485   9.711   9.013   0.843 -0.2882  0.0711 -0.1033
 1435W        W 5486  10.182   3.743   1.068  0.2848  0.1307 -0.0735
 1436W        W 5487   5.779   1.081  10.285 -0.1174 -0.0538  0.0887
 1437W        W 5488   5.205   0.754   2.505 -0.3398 -0.2158  0.0163
 1438W        W 5489   3.329   5.625  11.942  0.0529  0.0758 -0.0512
 1439W        W 5490   3.136   0.580   9.728 -0.0246 -0.1465 -0.1042
 1440W        W 5491   5.684   3.754   2.974  0.1173  0.2327 -0.0208
 1441W        W 5492   1.078   5.727  12.717  0.0598 -0.0081 -0.2136
 1442W        W 5493   7.833   6.568  12.301 -0.0854 -0.0477  0.1346
 1443W        W 5494   9.398   5.237   8.934 -0.3246 -0.1327  0.1529
 1444W        W 5495   0.805   9.179   2.064  0.3236 -0.0972 -0.0647
 1445W        W 5496   2.101   2.520   1.544  0.2785 -0.1866  0.2761
 1446W        W 5497   1.215   7.976   9.721 -0.1005 -0.0533  0.3459
 1447W        W 5498   5.361   7.675   1.558 -0.1646 -0.1267  0.0435
 1448W        W 5499   5.703   3.908   1.091  0.1567  0.0991  0.0900
 1449W        W 5500   7.947   1.925   3.536  0.0204  0.2120  0.1873
 1450W        W 5501   2.429   9.039  11.865 -0.0682  0.2901 -0.2777
 1451W        W 5502   7.268   7.819  12.061 -0.0887 -0.0379  0.1199
 1452W        W 5503   4.464  10.113   0.631 -0.0926 -0.1440 -0.2469
 1453W        W 5504   8.409   4.034   3.962  0.0738 -0.1817  0.0784
 1454W        W 5505   6.745   2.420   1.622  0.1474  0.0245 -0.2667
 1455W        W 5506   8.519   9.375   2.688  0.1291  0.0935  0.0977
 1456W        W 5507   8.581   6.907   2.212 -0.0816 -0.1987 -0.0840
 1457W        W 5508   6.567   3.683   0.365 -0.2045  0.2049  0.3514
 1458W        W 5509   4.143   3.035  12.327  0.1797  0.3879  0.0488
 1459W        W 5510   2.768   9.782  12.227 -0.1372  0.1991 -0.5431
 1460W        W 5511   7.370   7.922   1.220 -0.0062 -0.0790 -0.1063
 1461W        W 5512   3.061   4.808  12.986  0.3220 -0.0048  0.1593
 1462W        W 5513   7.641   9.918   9.769  0.1821  0.1910  0.1384
 1463W        W 5514   2.481   5.006   2.692 -0.2220  0.2205  0.0217
 1464W        W 5515   3.385   0.783   4.356 -0.0444  0.0047  0.4465
 1465W        W 5516   1.221   0.047   0.780 -0.2207 -0.1527 -0.0822
 1466W        W 5517   8.078   6.380   2.580 -0.0864  0.0044  0.0037
 1467W        W 5518   8.180   6.045  10.433  0.0324  0.1735 -0.0329
 1468W        W 5519   4.429   2.951   5.241 -0.0917  0.2323  0.0262
 1469W        W 5520   3.187   4.850  13.968  0.0063 -0.1053  0.3510
 1470W        W 5521   9.691   2.267   4.434 -0.4174  0.3416 -0.0429
 1471W        W 5522   1.793   0.106  10.792  0.0632 -0.0277 -0.1522
 1472W        W 5523   4.385   9.644   1.815  0.1560 -0.2815 -0.0660
 1473W        W 5524   0.909   1.041   4.206 -0.1320 -0.2137  0.0914
 1474W        W 5525   7.237   2.815  10.551  0.2010 -0.3086 -0.1917
 1475W        W 5526   7.765  10.005   2.825  0.2036  0.2513 -0.0947
 1476W        W 5527   1.552   0.274  12.506 -0.2721  0.0529 -0.0639
 1477W        W 5528   4.308   0.341   1.773  0.0062  0.1045  0.0626
 1478W        W 5529   2.849   5.346   1.040  0.1320  0.2088 -0.0675
 1479W        W 5530   3.058   5.716  12.464  0.1292 -0.1005 -0.1756
 1480W        W 5531   4.433   4.188  13.612  0.2021  0.0651 -0.0133
 1481W        W 5532   0.953   0.009  10.309  0.2594 -0.2192  0.3113
 1482W        W 5533   0.121   4.391   4.356 -0.2681 -0.0714  0.0334
 1483W        W 5534   1.408   4.545   2.455  0.2735 -0.0484  0.0422
 1484W        W 5535   8.143   6.469  11.238  0.2570  0.0818 -0.1763
 1485W        W 5536   5.456   3.030  11.792 -0.1539 -0.0658  0.0284
 1486W        W 5537   7.246   8.498  13.961 -0.0022  0.0954  0.1294
 1487W        W 5538   9.520   8.424   4.516  0.2717 -0.0108  0.0993
 1488W        W 5539   7.195   3.279   4.028 -0.1647 -0.0595 -0.0948
 1489W        W 5540   1.507   2.096   0.577  0.2917 -0.2433  0.0565
 1490W        W 5541   2.682   1.281   2.735  0.0693 -0.2677 -0.0689
 1491W        W 5542   2.277   6.553  10.714  0.1038  0.0767  0.1169
 1492W        W 5543   5.210   5.774   0.587 -0.0145  0.3494  0.2321
 1493W        W 5544  10.180   6.448  10.899 -0.0658 -0.1387 -0.1620
 1494W        W 5545   5.742   2.741   0.548  0.1649  0.2074  0.2799
 1495W        W 5546   3.840   2.053  13.894  0.0041  0.0515  0.0020
 1496W        W 5547   9.488   0.646   2.595  0.2984 -0.0418  0.1186
 1497W        W 5548   9.769   0.896  10.216 -0.1824 -0.1022 -0.1943
 1498W        W 5549   6.220   3.170   3.994 -0.0671  0.1883 -0.1290
 1499W        W 5550   8.807  10.184  11.616 -0.0084 -0.0753  0.0723
 1500W        W 5551   6.919   2.867  13.653  0.0397 -0.2015  0.1441
 1501W        W 5552   7.124   9.634   1.435 -0.3239 -0.3548  0.2091
 1502W        W 5553   8.290   8.342  10.220 -0.1261  0.5092 -0.2312
 1503W        W 5554   0.665   7.333   9.992 -0.3233 -0.1375  0.0216
 1504W        W 5555   5.694   5.198  10.529 -0.1269  0.1006 -0.0754
 1505W        W 5556   1.191   1.229   9.683 -0.0993  0.3152 -0.0113
 1506W        W 5557   7.957   7.542  12.602 -0.2820  0.2038 -0.0548
 1507W        W 5558   4.396   2.177   0.319  0.2466 -0.1551  0.1540
 1508W        W 5559  10.140   4.994   0.655  0.1016  0.1448  0.0792
 1509W        W 5560   5.600   0.380   4.234 -0.0671  0.0414  0.0550
 1510W        W 5561   1.185  10.172   8.759 -0.2385  0.1401 -0.2330
 1511W        W 5562   0.634   2.975   9.615  0.1911  0.1660  0.1160
 1512W        W 5563   5.929   6.336   4.316 -0.0952  0.0360  0.2962
 1513W        W 5564   2.428   7.147   1.526 -0.3191  0.0291  0.1801
 1514W        W 5565   9.083   4.954  10.770 -0.2179 -0.0467 -0.0453
 1515W        W 5566   2.758   8.938   2.628 -0.3513  0.2245  0.2518
 1516W        W 5567   3.083   5.236   3.781 -0.1598  0.1541 -0.2486
 1517W        W 5568   2.322   0.275   3.453 -0.0401 -0.3221 -0.0670
 1518W        W 5569   1.757   7.069  10.822 -0.0061  0.1954 -0.0043
 1519W        W 5570   9.280   3.021   4.963  0.0532  0.1624  0.3802
 1520W        W 5571   5.579   8.826   1.720  0.1540  0.1234 -0.1004
 1521W        W 5572   5.239   3.706   1.961 -0.0607  0.1309  0.1681
 1522W        W 5573   0.185  10.167  11.820  0.1724 -0.0492 -0.2075
 1523W        W 5574   7.828   8.410   3.075  0.0001  0.2756 -0.2968
 1524W        W 5575   3.983   5.203  13.013  0.0105  0.0181  0.0630
 1525W        W 5576   3.592   0.387   1.460 -0.1967  0.0741  0.2258
 1526W        W 5577   5.854   4.314  13.757 -0.0765  0.0730 -0.1702
 1527W        W 5578   6.551   1.121  11.979  0.1898 -0.1495 -0.0886
 1528W        W 5579   8.386   1.540  13.896 -0.3434  0.1033 -0.3060
 1529W        W 5580   4.928   9.085  11.819 -0.0148 -0.4863 -0.2323
 1530W        W 5581   7.417   8.787  12.947 -0.0017 -0.1324 -0.2858
 1531W        W 5582   6.273   1.177   1.592  0.0172 -0.1818 -0.1238
 1532W        W 5583   1.747   2.192   2.494  0.0341  0.2875  0.1435
 1533W        W 5584   5.894   3.514  10.654 -0.2269  0.0546  0.0108
 1534W        W 5585   1.856   3.917  12.722  0.0531  0.1238 -0.0652
 1535W        W 5586   9.045   2.174  13.933 -0.2860 -0.0416 -0.1524
 1536W        W 5587   5.134   1.260  13.954  0.1000  0.0149 -0.0212
 1537W        W 5588   1.020   0.547   0.687  0.1807 -0.0850 -0.1090
 1538W        W 5589   7.759   4.220  12.481  0.2976 -0.1032  0.0968
 1539W        W 5590   5.799   1.340   1.662  0.0259 -0.1056 -0.1251
 1540W        W 5591   5.663   3.449  12.098  0.2160  0.2323  0.2254
 1541W        W 5592   2.506   4.149  13.263  0.0198 -0.0957 -0.1344
 1542W        W 5593   5.105   0.111   0.821  0.1490 -0.1976  0.3457
 1543W        W 5594   1.395   4.157   1.566  0.0770 -0.0900 -0.0458
 1544W        W 5595   4.474   7.735   8.998  0.0289  0.2958  0.0574
 1545W        W 5596   7.809  10.109   1.648  0.0530  0.1530 -0.0260
 1546W        W 5597   2.106   2.017   1.593  0.1119 -0.0658  0.0456
 1547W        W 5598   0.993   3.163  13.646 -0.0134  0.2209 -0.4177
 1548W        W 5599   0.925   2.556   9.539  0.0135 -0.0890  0.2755
 1549W        W 5600   6.467   8.271  11.133 -0.0268  0.5536  0.1918
 1550W        W 5601   0.937   2.042  11.791 -0.0055 -0.3031 -0.0310
 1551W        W 5602   9.238   7.776   2.893  0.0041  0.0216 -0.0500
 1552W        W 5603   0.031   1.033  13.057  0.0296  0.1105  0.1109
 1553W        W 5604   0.165   8.758  11.161  0.0856  0.0487 -0.2454
 1554W        W 5605   4.686  10.053  10.035  0.0027  0.1064 -0.2690
 1555W        W 5606   8.855   3.900  11.905 -0.0064 -0.1862 -0.1539
 1556W        W 5607   5.237   8.678   2.110  0.1692  0.0485  0.0997
 1557W        W 5608   8.824   1.721   3.564  0.1460  0.0927 -0.0958
 1558W        W 5609   9.129   4.645   5.046  0.0150  0.4090  0.1720
 1559W        W 5610   7.535   2.623   0.516  0.0972 -0.0327 -0.2847
 1560W        W 5611   0.025   2.153   4.414 -0.2819 -0.0355 -0.4032
 1561W        W 5612   1.575   5.844   0.064  0.3566 -0.3170  0.2329
 1562W        W 5613   0.900   3.764  13.880 -0.0185  0.1468 -0.0350
 1563W        W 5614   5.362   6.539   3.699 -0.0931  0.0936  0.0872
 1564W        W 5615   8.698   9.979   2.200 -0.4834 -0.1527 -0.1039
 1565W        W 5616   3.518   2.230   3.721  0.0342 -0.0714 -0.1127
 1566W        W 5617   9.856   9.587   1.074  0.0025 -0.1542  0.0246
 1567W        W 5618   5.484   7.196  10.667  0.1706 -0.0209  0.0101
 1568W        W 5619   0.109   0.955  12.142 -0.1511  0.0101 -0.1038
 1569W        W 5620   1.775   0.856  12.067 -0.0180  0.0438  0.2116
 1570W        W 5621   2.221   9.975   1.260 -0.2045  0.1448 -0.1160
 1571W        W 5622   4.447   9.360  12.461 -0.0602  0.0949  0.3335
 1572W        W 5623   4.173   1.033   4.098  0.0519  0.2779 -0.2008
 1573W        W 5624   0.960  10.000   3.274  0.2695 -0.0057  0.1268
 1574W        W 5625   3.601   3.996  13.865  0.0684 -0.0445  0.0604
 1575W        W 5626   7.044   9.582  11.324 -0.0151 -0.1702 -0.2110
 1576W        W 5627   1.921   2.729   2.543  0.0702 -0.1292 -0.0142
 1577W        W 5628   4.862   4.666   0.534 -0.1068 -0.2622  0.0490
 1578W        W 5629   6.718   8.657  13.813  0.0299  0.1739 -0.1526
 1579W        W 5630   2.407   2.677   0.449 -0.0132 -0.0873 -0.0696
 1580W        W 5631   0.572   3.390  13.782 -0.0933  0.2507  0.2970
 1581W        W 5632   8.724   7.414   3.061 -0.1137  0.2200  0.0092
 1582W        W 5633   5.667   5.736   1.302  0.1144  0.2518  0.1128
 1583W        W 5634   2.838   0.046   0.480  0.5432  0.1340 -0.1880
 1584W        W 5635   0.746   0.291  11.885 -0.3632 -0.0887  0.3739
 1585W        W 5636   1.935   9.374   2.977  0.0633 -0.0037 -0.1198
 1586W        W 5637   1.012   6.572   3.022  0.0452  0.1475 -0.1967
 1587W        W 5638   2.966   8.900  10.292 -0.3204 -0.0360  0.0232
 1588W        W 5639   4.651   7.643   2.355 -0.0594 -0.1183 -0.2388
 1589W        W 5640   0.640   1.280   2.818  0.0120 -0.2707 -0.0423
 1590W        W 5641   1.788   3.108  13.884  0.0537 -0.0440  0.0644
 1591W        W 5642   9.368   5.833  12.070 -0.1130 -0.0129  0.0623
 1592W        W 5643   4.462   3.281   4.420 -0.0444 -0.1756 -0.0261
 1593W        W 5644   3.190   8.376   1.288 -0.0712 -0.1987 -0.0068
 1594W        W 5645   9.381   1.097  12.799 -0.0961  0.1739  0.0345
 1595W        W 5646   0.399   3.091  10.463  0.0567  0.2815  0.1551
 1596W        W 5647   1.884   8.487   0.941 -0.1285 -0.1813  0.2424
 1597W        W 5648   3.189   1.912   9.890 -0.1889  0.1409  0.0383
 1598W        W 5649   1.501   7.388  10.473  0.0462  0.0335  0.1575
 1599W        W 5650   8.969   9.575   9.960  0.0217 -0.0668 -0.0758
 1600W        W 5651   4.827   5.657   2.468 -0.0185 -0.1936  0.2135
 1601W        W 5652   6.921   1.439  12.467 -0.1539  0.0294  0.3165
 1602W        W 5653   6.909   0.076  12.986  0.0408 -0.0255  0.0155
 1603W        W 5654   6.505   5.079   4.676  0.1151  0.2784  0.0685
 1604W        W 5655   2.334   3.921  12.773  0.0506  0.0257 -0.3030
 1605W        W 5656   4.105   9.719  10.734  0.0186 -0.0182 -0.0081
 1606W        W 5657   5.420   1.592  11.123 -0.0129 -0.0492 -0.0812
 1607W        W 5658   7.248   9.701   1.926 -0.3793 -0.0747 -0.0426
 1608W        W 5659   7.332   1.606   0.249  0.1713 -0.0267  0.1827
 1609W        W 5660   0.836   6.696   0.949  0.0684 -0.4774 -0.0875
 1610W        W 5661   8.784   3.519   0.247 -0.0596 -0.0124  0.0653
 1611W        W 5662   7.686   5.116   0.502  0.1045 -0.0742  0.1827
 1612W        W 5663   5.851   5.181   3.393  0.1392  0.0700  0.1889
 1613W        W 5664   4.128   7.683  11.067 -0.2009  0.1259  0.1797
 1614W        W 5665   3.549   9.411   3.056  0.1419 -0.0746  0.1991
 1615W        W 5666   3.793   1.923  12.216  0.1115  0.3710  0.1143
 1616W        W 5667   4.374   2.920  10.021  0.2824  0.0786  0.2933
 1617W        W 5668   3.066   6.703  12.036 -0.0007 -0.1632 -0.1335
 1618W        W 5669   7.753  10.070  13.255 -0.2218  0.1963 -0.0128
 1619W        W 5670   6.413   2.191  13.005  0.3656  0.0381  0.0845
 1620W        W 5671   7.993   6.502   3.523  0.0470 -0.0185 -0.1330
 1621W        W 5672   4.642   1.332   4.061  0.2966 -0.0327 -0.2412
 1622W        W 5673   1.838   3.978   2.208 -0.2745 -0.0931  0.3666
 1623W        W 5674   6.852   5.398   1.575  0.1076 -0.2640  0.0004
 1624W        W 5675   3.319   6.430  10.694  0.1229  0.0892 -0.0819
 1625W        W 5676   8.925   0.537  10.741 -0.0697 -0.3202 -0.3632
 1626W        W 5677   2.214   7.813  10.632 -0.1093 -0.1473  0.0946
 1627W        W 5678   0.020   0.879  13.925 -0.0124 -0.3306 -0.3562
 1628W        W 5679   9.748   0.298   0.539 -0.0565 -0.1680 -0.1062
 1629W        W 5680   4.419   9.681  13.873 -0.0129  0.0269 -0.5313
 1630W        W 5681   7.105   9.597  11.800  0.4385  0.3115  0.1780
 1631W        W 5682   6.547   0.582  10.455 -0.2515  0.1031 -0.1689
 1632W        W 5683   8.105   1.328   4.683  0.0953  0.0265 -0.1163
 1633W        W 5684   4.325   9.802   4.087 -0.2471  0.0555 -0.0175
 1634W        W 5685   7.419   8.091   9.654 -0.0976 -0.0447 -0.0472
 1635W        W 5686   3.337   6.465   2.633 -0.1328  0.0162  0.1255
 1636W        W 5687   8.446   3.736   0.565 -0.3834 -0.0678  0.1486
 1637W        W 5688   8.958   3.716  13.624 -0.0170  0.2938 -0.1352
 1638W        W 5689   9.161   3.421  13.286 -0.1337  0.0300  0.1121
 1639W        W 5690   5.597   1.531   3.411  0.2654  0.3438 -0.0100
 1640W        W 5691   8.737   3.451  12.322 -0.0281  0.0807  0.0091
 1641W        W 5692   8.786   8.741   0.774  0.0108 -0.1146  0.1040
 1642W        W 5693   4.905   5.176   3.188  0.1999  0.2100  0.1225
 1643W        W 5694   8.676   8.765  11.988 -0.0466  0.0859 -0.1167
 1644W        W 5695   5.353   8.731  11.643  0.1578  0.1737 -0.0493
 1645W        W 5696   4.740  10.125   3.559  0.0080 -0.0776 -0.0146
 1646W        W 5697   1.587   6.723  11.549  0.0171  0.1018  0.1072
 1647W        W 5698   9.662   6.780  12.909 -0.1165  0.0254 -0.0899
 1648W        W 5699   2.240   9.569  13.859 -0.0094 -0.0290  0.1213
 1649W        W 5700   1.980   8.077  10.984 -0.0238  0.1385 -0.2882
 1650W        W 5701   3.258   5.758  13.470  0.3296  0.1791  0.2671
 1651W        W 5702   6.895   6.891  12.357  0.0653  0.0415 -0.3928
 1652W        W 5703   0.600   8.638   3.136  0.4351 -0.1397  0.2031
 1653W        W 5704   7.535  10.115   0.695  0.1593 -0.4323 -0.2420
 1654W        W 5705   0.630   3.494  12.880 -0.3780 -0.0498 -0.2558
 1655W        W 5706   6.331   4.776  13.267 -0.2698  0.1237  0.4483
 1656W        W 5707   3.344   4.789  12.008  0.1982 -0.2460 -0.0143
 1657W        W 5708   7.807   8.048  12.816  0.2208  0.3163  0.1451
 1658W        W 5709   2.638   2.022  11.478 -0.0503 -0.1512  0.2215
 1659W        W 5710   5.062   9.178   9.781 -0.0487 -0.1085 -0.2968
 1660W        W 5711   3.274   8.585  13.355 -0.0346 -0.0220  0.2781
 1661W        W 5712   3.539   7.061  12.256  0.0660 -0.0676 -0.1406
 1662W        W 5713   8.097   6.393  13.915 -0.0688 -0.3383 -0.2548
 1663W        W 5714   8.510   7.033   4.626  0.1553 -0.0489 -0.0978
 1664W        W 5715   5.869   9.318   9.771  0.0987  0.0085  0.2043
 1665W        W 5716   5.987   1.187  12.247  0.2089 -0.1089 -0.0771
 1666W        W 5717   8.331   8.971   4.117  0.0787 -0.1517  0.1952
 1667W        W 5718   3.945   5.539   0.171  0.2104  0.0222 -0.0383
 1668W        W 5719   0.945   7.449   2.759 -0.0060 -0.0340  0.1160
 1669W        W 5720   8.245   9.921   1.971  0.0261 -0.0216  0.0251
 1670W        W 5721   0.624   5.427   4.441  0.3447  0.2411  0.2215
 1671W        W 5722   7.223   8.689  11.753 -0.0046  0.0013 -0.1942
 1672W        W 5723   0.248   0.053  13.628 -0.1992 -0.0076 -0.0850
 1673W        W 5724   4.949   8.471   5.374  0.0821  0.0126 -0.1234
 1674W        W 5725   4.849   6.497  13.480 -0.1219 -0.0591 -0.0642
 1675W        W 5726   9.662   3.793   1.095 -0.0163  0.2175 -0.2609
 1676W        W 5727   4.128   4.066  13.127  0.6420 -0.2972 -0.0185
 1677W        W 5728   2.561   2.243   1.346  0.1560  0.0600 -0.0295
 1678W        W 5729   6.642   7.425   1.505 -0.2527 -0.0888  0.0847
 1679W        W 5730   3.663   4.362   9.953  0.0392 -0.1723 -0.0571
 1680W        W 5731   5.581   8.152  10.421 -0.1159 -0.2054  0.1602
 1681W        W 5732   2.969   7.412  13.090 -0.1077  0.0715 -0.1398
 1682W        W 5733   3.716   3.165   2.157  0.0015 -0.0416  0.1675
 1683W        W 5734   7.733   3.616   1.367  0.1990 -0.2967  0.2410
 1684W        W 5735   6.829   4.682   1.917 -0.2698  0.3596 -0.0086
 1685W        W 5736   5.980   7.562   4.576 -0.3034  0.1753 -0.0872
 1686W        W 5737   5.772   3.228   0.334  0.4792  0.1685 -0.1289
 1687W        W 5738   4.065   1.448   9.941  0.0213  0.1630  0.0385
 1688W        W 5739   9.892   5.307   4.180 -0.0969 -0.3194 -0.0848
 1689W        W 5740   5.057   2.679  13.391 -0.1167  0.0791  0.1750
 1690W        W 5741   6.222   2.697   9.080 -0.0066 -0.0497 -0.1282
 1691W        W 5742   7.840   3.760   9.458 -0.0877  0.0948  0.3751
 1692W        W 5743   0.561   5.648   1.220  0.0070 -0.1353  0.2027
 1693W        W 5744   6.836   7.206  10.769  0.0069 -0.2694 -0.3143
 1694W        W 5745   8.380   4.340  10.996 -0.0869  0.0029 -0.0522
 1695W        W 5746   5.350   4.388   3.465  0.0125  0.1411  0.0661
 1696W        W 5747   9.294   7.112   3.727 -0.1111 -0.0916 -0.3245
 1697W        W 5748   1.281   4.288  11.969 -0.0420 -0.1122 -0.1867
 1698W        W 5749   2.085   1.950   2.078  0.0051  0.0594  0.1538
 1699W        W 5750   9.213   9.611  11.241 -0.4348  0.0363 -0.3507
 1700W        W 5751   3.045   6.062   3.014 -0.0715  0.0274 -0.0527
 1701W        W 5752   8.182   7.807  10.960  0.0172  0.0148 -0.0748
 1702W        W 5753   6.585   8.753  10.509  0.3518  0.0477  0.1075
 1703W        W 5754   5.423   5.710   5.274 -0.1963  0.2048 -0.0287
 1704W        W 5755   2.985   6.454   0.604 -0.0651 -0.0838 -0.2912
 1705W        W 5756   8.768   6.129  10.607 -0.0526  0.0833 -0.0722
 1706W        W 5757   1.510   8.723  11.266 -0.0691  0.4406  0.0104
 1707W        W 5758   1.144   6.845   5.294 -0.1129  0.0046 -0.2098
 1708W        W 5759   0.874   9.841   0.557  0.2600 -0.1299  0.2741
 1709W        W 5760   0.561   8.094  10.990 -0.0500  0.2081 -0.1379
 1710W        W 5761   4.608   4.317   1.451 -0.0901 -0.0510  0.0060
 1711W        W 5762   4.894   4.092   3.477  0.0951 -0.2192  0.1426
 1712W        W 5763   9.824   3.862  12.888  0.0937  0.0213 -0.0009
 1713W        W 5764   3.364   0.447  10.710 -0.0146 -0.0452 -0.2145
 1714W        W 5765   8.723   8.492  13.329  0.0632  0.1174  0.0873
 1715W        W 5766   7.355   6.171  10.641 -0.0717 -0.0116 -0.0104
 1716W        W 5767   1.790   4.441   1.089 -0.1134 -0.2001 -0.0415
 1717W        W 5768   6.760   9.109   2.633  0.1274  0.0023 -0.1181
 1718W        W 5769   9.437   2.422   1.371 -0.2776 -0.0150 -0.0668
 1719W        W 5770  10.157   8.736   1.149  0.2682  0.3463  0.1274
 1720W        W 5771   5.016   4.204  10.808 -0.0745 -0.4413 -0.1582
 1721W        W 5772   1.260   9.482   9.487 -0.0107  0.1759  0.2147
 1722W        W 5773   1.534  10.021  12.857  0.0332  0.0853  0.0264
 1723W        W 5774   1.137   7.501  11.997 -0.1073  0.1606  0.2164
 1724W        W 5775   5.623   2.336   3.373  0.0382 -0.2527  0.1552
 1725W        W 5776   6.551   7.804  12.666  0.0669  0.1991 -0.1212
 1726W        W 5777   2.116   1.429   2.902 -0.1233  0.1027 -0.0913
 1727W        W 5778   9.376   1.306  12.373 -0.0423 -0.1317  0.0254
 1728W        W 5779   8.167   6.589   1.287 -0.1174  0.0220  0.1474
 1729W        W 5780   5.115   9.480   0.580  0.1666  0.1013 -0.1111
 1730W        W 5781   2.840   9.181   0.659 -0.0453 -0.1184 -0.2088
 1731W        W 5782   5.537   6.204   1.509 -0.3308  0.0614 -0.0280
 1732W        W 5783   0.869   0.970   2.471  0.3553  0.1047 -0.0450
 1733W        W 5784   7.271   1.136  11.558  0.1634 -0.0805  0.0387
 1734W        W 5785   8.718   4.965   4.285  0.5178 -0.0179  0.0802
 1735W        W 5786   3.310   4.610  12.629  0.1167  0.0645  0.2006
 1736W        W 5787   5.329   0.324   9.864  0.0993  0.0218 -0.1359
 1737W        W 5788   0.427   2.301  12.679 -0.0854  0.1034 -0.3522
 1738W        W 5789   0.114   8.796   9.132 -0.0508  0.2643 -0.2281
 1739W        W 5790   3.278  10.056   1.754 -0.1662  0.1836 -0.0794
 1740W        W 5791   1.470   5.437  10.354 -0.0278  0.1633 -0.2135
 1741W        W 5792   3.227   1.053   9.893  0.0484 -0.2516 -0.1965
 1742W        W 5793   5.093   2.090   9.938  0.0098  0.1225 -0.1445
 1743W        W 5794   6.332   5.596   2.114  0.0097  0.1307  0.1667
 1744W        W 5795   5.343   5.556   4.420 -0.2539 -0.4492  0.1701
 1745W        W 5796   5.693   0.578  11.912  0.1514  0.1114 -0.1008
 1746W        W 5797   4.830   2.368  10.722 -0.2675  0.3682  0.3039
 1747W        W 5798   3.556   9.048   9.068 -0.1283  0.1675 -0.0092
 1748W        W 5799   0.216   8.899   0.443  0.3492 -0.0549  0.1536
 1749W        W 5800   0.297   0.182   2.886  0.0550  0.1035  0.1010
 1750W        W 5801   2.247   3.999  10.620 -0.0517 -0.1158 -0.0453
 1751W        W 5802   4.183   2.514  12.242 -0.0996  0.2060  0.3040
 1752W        W 5803   9.845   6.070   0.590 -0.2175  0.0209  0.3223
 1753W        W 5804   0.469   1.904  10.679 -0.1519 -0.0936  0.1563
 1754W        W 5805   6.403   1.046   4.330 -0.2091  0.0806 -0.1941
 1755W        W 5806   9.843   4.071  11.172 -0.0497 -0.2788 -0.0627
 1756W        W 5807   7.002  10.054   3.012  0.4618  0.2261 -0.2490
 1757W        W 5808   3.877   8.486  10.239 -0.1784 -0.1907 -0.1231
 1758W        W 5809   5.354   6.694   2.377 -0.0726 -0.1215 -0.1040
 1759W        W 5810   9.329   0.475   1.287 -0.1043 -0.0216 -0.1947
 1760W        W 5811   4.427   1.590  12.281  0.0578  0.1348 -0.1380
 1761W        W 5812   2.892   4.283   2.977 -0.1270 -0.1296  0.5274
 1762W        W 5813   2.045   8.015   2.190 -0.1642  0.0777  0.0131
 1763W        W 5814   4.506   7.920  12.015  0.4033  0.1196 -0.1595
 1764W        W 5815   0.628   7.403  12.096  0.0744  0.0772 -0.3380
 1765W        W 5816   0.863   7.407   1.803  0.0802  0.2208 -0.2709
 1766W        W 5817   5.556   1.157  11.303 -0.0863 -0.0375  0.2306
 1767W        W 5818   6.357   0.090  10.722  0.1008  0.0439  0.2094
 1768W        W 5819   1.377   3.122  13.286  0.2842 -0.0951 -0.1026
 1769W        W 5820   8.152   0.698  11.949  0.0314 -0.3130 -0.0560
 1770W        W 5821   9.361   7.863  10.883  0.0337 -0.2521  0.1267
 1771W        W 5822   0.016   0.586  10.136  0.0206  0.1091  0.1140
 1772W        W 5823   0.066   0.130   1.359 -0.1957  0.0515 -0.1484
 1773W        W 5824   8.002   7.293   3.965 -0.0661  0.0699  0.3017
 1774W        W 5825   0.002   5.318   9.212 -0.3491 -0.1063 -0.0088
 1775W        W 5826   5.468   4.914  12.981 -0.1488 -0.1661 -0.2054
 1776W        W 5827   5.331   7.890   0.296  0.0468  0.0276  0.4420
 1777W        W 5828   5.211   5.785  12.539  0.1139 -0.1533  0.0574
 1778W        W 5829   7.131   9.512  13.023  0.0383  0.0367 -0.1577
 1779W        W 5830   3.440   4.928   2.024 -0.1743  0.4863  0.1991
 1780W        W 5831   5.339   9.914   8.704 -0.2633  0.1628  0.0196
 1781W        W 5832   7.805   0.328  11.835  0.0300 -0.3234 -0.1586
 1782W        W 5833   1.727   3.701  10.548  0.0738 -0.0416  0.1691
 1783W        W 5834   0.967   7.803   0.009 -0.1323  0.0040 -0.0546
 1784W        W 5835   7.662   6.567   0.372 -0.0537  0.1043  0.0824
 1785W        W 5836   4.852   1.884  12.448  0.0310  0.3471 -0.0838
 1786W        W 5837   5.986   1.264   3.652 -0.0825  0.0807 -0.1705
 1787W        W 5838   6.084   3.032  11.473  0.4729 -0.3011  0.0585
 1788W        W 5839   8.508   4.537  13.257 -0.0938  0.1242 -0.0675
 1789W        W 5840   9.842   8.970   4.663  0.1491  0.1833  0.1160
 1790W        W 5841   0.802   9.117   5.317 -0.2564 -0.2652 -0.0928
 1791W        W 5842   0.152   2.794   9.727 -0.0353 -0.1760  0.2099
 1792W        W 5843   6.999   5.676   0.778 -0.0702 -0.0190  0.0069
 1793W        W 5844   5.967   1.098   9.602  0.1886  0.0230  0.3205
 1794W        W 5845   6.179   4.076   3.101 -0.0240  0.2634  0.2652
 1795W        W 5846   4.489   2.856  11.949 -0.4430 -0.1599 -0.1328
 1796W        W 5847   1.712   4.073   3.783 -0.3522 -0.2830 -0.2213
 1797W        W 5848   9.886   5.224   1.009 -0.2950 -0.1377  0.2181
 1798W        W 5849   3.931   2.566   1.390 -0.4636 -0.2691  0.1678
 1799W        W 5850   0.439   2.687   2.420 -0.0236 -0.3488  0.0934
 1800W        W 5851   6.825   7.458   3.561 -0.1405 -0.2338  0.3966
 1801W        W 5852   1.719   1.624   0.258  0.1034  0.0858  0.0565
 1802W        W 5853   9.851   4.257   3.016 -0.1616  0.0938 -0.0130
 1803W        W 5854   9.988   7.501  13.323  0.4483 -0.1869 -0.0444
 1804W        W 5855   2.762   1.052  12.769 -0.0122 -0.1728  0.1529
 1805W        W 5856   5.662   4.970  12.430 -0.1086 -0.2073 -0.1216
 1806W        W 5857   4.260   5.706  13.764  0.1679 -0.2356 -0.0158
 1807W        W 5858   2.330   4.282   0.274  0.2527 -0.0028 -0.2171
 1808W        W 5859   1.833   7.039  13.689  0.3449  0.1441 -0.3179
 1809W        W 5860   3.963   0.021   4.142  0.0490  0.3355 -0.1308
 1810W        W 5861   2.209   8.609   1.309  0.3354 -0.0897 -0.0235
 1811W        W 5862   1.777   8.611   5.397  0.0177 -0.1200  0.0241
 1812W        W 5863   3.363   0.347  13.650  0.1141 -0.0658  0.0830
 1813W        W 5864   7.376   8.783  10.534 -0.1895  0.2661  0.3413
 1814W        W 5865   6.456   7.497  11.606 -0.1448  0.1581 -0.2224
 1815W        W 5866   6.811   9.860  13.916 -0.1143  0.1584  0.0986
 1816W        W 5867   5.196   8.086   5.199  0.2853  0.3000 -0.2179
 1817W        W 5868   6.948   3.266  12.608 -0.0177 -0.0032  0.1657
 1818W        W 5869   2.403   6.904  12.824  0.0489  0.1628  0.1566
 1819W        W 5870   4.718   7.364   3.491  0.0118 -0.1001 -0.2168
 1820W        W 5871   7.753   0.400   5.410  0.1735 -0.3410  0.0134
 1821W        W 5872   6.542   4.093  13.422 -0.0522  0.0558 -0.1036
 1822W        W 5873   6.903   0.799  11.739  0.0780  0.2625  0.2871
 1823W        W 5874   8.192   7.569   0.606 -0.0626  0.0866  0.1629
 1824W        W 5875   6.082   7.171   2.041 -0.1738  0.1224  0.0719
 1825W        W 5876   2.674   6.975   1.962 -0.1986 -0.0979 -0.0047
 1826W        W 5877   2.272   2.062   9.422 -0.0362 -0.2806  0.0434
 1827W        W 5878   6.446   3.070   1.790 -0.2248  0.0814  0.2581
 1828W        W 5879   1.207   0.303  11.675  0.0127 -0.1735 -0.3397
 1829W        W 5880   8.404   1.690  13.418 -0.1088 -0.0072 -0.1758
 1830W        W 5881   8.710   1.343  10.666  0.1926  0.1150 -0.1247
 1831W        W 5882   6.201   0.335   3.076 -0.1651 -0.0691 -0.3337
 1832W        W 5883   8.013   5.058   0.079  0.2941  0.2631 -0.4083
 1833W        W 5884   1.969   5.864   2.066  0.0518 -0.1160  0.1053
 1834W        W 5885   3.591   7.173   1.513  0.1436  0.1900  0.1051
 1835W        W 5886   7.119   5.903  10.289  0.2927  0.0858 -0.0377
 1836W        W 5887   9.971   0.583  12.253  0.2635 -0.1857 -0.2660
 1837W        W 5888   4.440   5.886  11.131  0.2936 -0.0977 -0.1333
 1838W        W 5889   8.458   5.153   4.742  0.1159 -0.2393  0.0240
 1839W        W 5890   8.808   2.926  11.024 -0.1122  0.0107 -0.1163
 1840W        W 5891   6.150   7.049   2.987 -0.1691  0.1071  0.2076
 1841W        W 5892   4.860   3.737  11.310 -0.0789 -0.2538 -0.2424
 1842W        W 5893   9.886   9.190   2.382  0.2194 -0.0768 -0.2232
 1843W        W 5894   8.422   9.540  11.070  0.3969  0.1756  0.2213
 1844W        W 5895   8.190   4.118  10.354 -0.1139  0.0707  0.2461
 1845W        W 5896   9.793   6.574  10.603  0.1182 -0.1296 -0.0146
 1846W        W 5897   5.796   2.308   2.846  0.0200 -0.2537 -0.1941
 1847W        W 5898   2.224   5.874   3.445  0.2743 -0.0638  0.5647
 1848W        W 5899   0.899   7.837  12.973  0.2457 -0.1056  0.2165
 1849W        W 5900   4.356   3.606  12.395  0.2981  0.2127  0.0140
 1850W        W 5901   8.747   2.027  13.163  0.4517  0.0337  0.2977
 1851W        W 5902   0.171   4.263   2.871  0.1757 -0.0184  0.2379
 1852W        W 5903   2.590   4.142  11.572 -0.0195  0.1768  0.0782
 1853W        W 5904   2.776   8.399  12.323  0.0165  0.1171 -0.0964
 1854W        W 5905   6.979   8.315   4.719 -0.2973 -0.3201 -0.2739
 1855W        W 5906   6.887   2.799   1.907  0.0810  0.0951  0.1547
 1856W        W 5907   5.455   5.697  11.126 -0.1705  0.2254  0.2568
 1857W        W 5908   6.535   0.078  12.248  0.2407 -0.1178  0.0239
 1858W        W 5909   3.277   8.369  12.597  0.0357  0.3495 -0.0540
 1859W        W 5910   5.282   2.201  13.422  0.0980 -0.2552 -0.1758
 1860W        W 5911   9.043   1.570   0.686  0.1182  0.1581 -0.0019
 1861W        W 5912   0.964   3.888   1.903 -0.2123  0.1138 -0.0714
 1862W        W 5913   1.985   7.013   1.342 -0.0838  0.0309  0.0621
 1863W        W 5914   3.955   7.570   2.716  0.0265  0.0190 -0.0202
 1864W        W 5915   0.808   9.218   9.480  0.2868 -0.2821 -0.0240
 1865W        W 5916   4.354   7.869   4.977  0.2072  0.0849  0.1695
 1866W        W 5917   7.568   1.891   1.599 -0.1156 -0.3036  0.2922
 1867W        W 5918   1.209   3.699   2.583 -0.0348 -0.3947 -0.1080
 1868W        W 5919   6.205   0.765   2.850  0.0523 -0.1203 -0.2921
 1869W        W 5920   3.726   0.923  12.418  0.0446  0.1730 -0.0445
 1870W        W 5921   7.448   9.494  13.862 -0.0241 -0.0148 -0.1001
 1871W        W 5922   0.962   4.001  11.596  0.1209  0.0511 -0.2374
 1872W        W 5923   2.120   8.169   1.624  0.0771  0.1753 -0.2780
 1873W        W 5924   5.301   1.397  12.670 -0.1757  0.1014 -0.1232
 1874W        W 5925   4.294   6.494  12.402 -0.2170 -0.4449  0.1028
 1875W        W 5926   6.557   5.365  10.523 -0.0851  0.3131 -0.3803
 1876W        W 5927   9.571   3.069  12.241 -0.3618 -0.0384  0.3424
 1877W        W 5928   3.435   5.715   1.712  0.2503  0.0848  0.1088
 1878W        W 5929   8.459   1.428  10.235  0.4193  0.1402  0.3288
 1879W        W 5930   0.628   8.529   0.357  0.1678 -0.2020 -0.1745
 1880W        W 5931   0.281   4.038  13.167  0.0293  0.1869  0.0504
 1881W        W 5932   1.092   9.758  10.704  0.0449 -0.0270 -0.3689
 1882W        W 5933   8.489   0.192  12.061 -0.2311 -0.1264  0.0912
 1883W        W 5934   6.044   0.107   0.370  0.1402 -0.0998  0.1808
 1884W        W 5935   4.527   3.524   3.158  0.0248 -0.1332 -0.2190
 1885W        W 5936   6.984   6.659   0.576 -0.3361 -0.1709  0.0317
 1886W        W 5937   7.721   4.559  11.169  0.0073 -0.3498 -0.1324
 1887W        W 5938   0.252   3.369   0.811  0.2054  0.1134  0.1550
 1888W        W 5939   0.732   9.634   4.077 -0.1528  0.0185  0.3273
 1889W        W 5940   5.268   7.194  11.584 -0.1342 -0.0416  0.3409
 1890W        W 5941   1.466  10.066  13.402  0.0534 -0.1992 -0.1093
 1891W        W 5942   5.780   3.422  11.626 -0.2135  0.2479 -0.0962
 1892W        W 5943   0.435   6.029   9.522  0.0928  0.2133 -0.2350
 1893W        W 5944   1.866   5.709  10.219 -0.0244 -0.0002  0.1879
 1894W        W 5945   5.240   3.129   3.689 -0.4558  0.1697  0.1712
 1895W        W 5946   5.219   5.563   1.776  0.0327 -0.0092 -0.1813
 1896W        W 5947   6.120   6.991  12.414 -0.2144 -0.1241  0.0659
 1897W        W 5948   9.168   6.477   1.262 -0.1641 -0.1202  0.4430
 1898W        W 5949   2.784   9.812   9.862 -0.0947 -0.2690 -0.2167
 1899W        W 5950   9.512   3.061   0.113  0.1959  0.0703  0.3496
 1900W        W 5951   7.864   9.074  13.483 -0.2078 -0.2241 -0.0990
 1901W        W 5952   4.122   0.559  13.342 -0.0571 -0.0277  0.1059
 1902W        W 5953   4.982   9.475   4.733 -0.1244  0.1869 -0.1439
 1903W        W 5954   1.126   8.253   2.502  0.0627 -0.4370 -0.1754
 1904W        W 5955   6.406   9.007   0.088 -0.1660 -0.0684 -0.0863
 1905W        W 5956   6.908   4.067   0.498 -0.2725  0.0557  0.1027
 1906W        W 5957   9.655   1.518   3.314 -0.0061  0.2350  0.0136
 1907W        W 5958   6.007   8.225   2.425  0.0641  0.1082 -0.1144
 1908W        W 5959   6.887   4.937  11.329  0.0620  0.0134  0.2317
 1909W        W 5960   1.103   4.488   2.039 -0.3818 -0.1335  0.0804
 1910W        W 5961   7.046   6.824   9.729 -0.0484  0.1916 -0.0319
 1911W        W 5962   4.754   6.705  10.675 -0.2116  0.1137  0.2937
 1912W        W 5963   3.418   8.207  13.681  0.0377 -0.2054 -0.2012
 1913W        W 5964   1.834   7.529   2.100  0.0518 -0.1304  0.2520
 1914W        W 5965   4.966   6.793   0.704  0.0558 -0.1280  0.1504
 1915W        W 5966   6.188   3.543   2.970  0.0140  0.0484 -0.0043
 1916W        W 5967   5.467   9.118   9.442 -0.1656  0.0635  0.0288
 1917W        W 5968   2.699   3.980  10.997  0.0579  0.1684  0.4180
 1918W        W 5969   1.060   4.037  13.060 -0.3062  0.1161 -0.0614
 1919W        W 5970   5.066   1.427   1.165  0.1289  0.3222 -0.4110
 1920W        W 5971   3.506   5.350  12.521 -0.1530  0.0632  0.0303
 1921W        W 5972   3.903   0.504   4.814  0.2161  0.2003  0.1175
 1922W        W 5973   6.093   4.327  13.309  0.0195  0.0195 -0.0598
 1923W        W 5974   0.015   6.319   1.960 -0.3722  0.2030  0.0029
 1924W        W 5975   3.753   6.619  10.567 -0.1921  0.2296  0.1302
 1925W        W 5976   8.729   5.250   9.669  0.1126 -0.1019  0.2859
 1926W        W 5977   4.676   4.379   3.104 -0.1006  0.1263 -0.0658
 1927W        W 5978   6.700   9.626   3.919 -0.3548  0.5390  0.0003
 1928W        W 5979   8.798   0.384  13.589  0.1930  0.1461  0.0311
 1929W        W 5980   0.328   4.842   2.748  0.1514 -0.0731 -0.1357
 1930W        W 5981   9.553   8.193   0.537 -0.1117  0.1501 -0.0113
 1931W        W 5982   9.178   3.482   2.206 -0.2206 -0.1022 -0.0575
 1932W        W 5983   3.026   2.961  11.006  0.0331 -0.1518  0.1596
 1933W        W 5984   7.651   0.982   3.444 -0.1581 -0.1885 -0.2739
 1934W        W 5985   3.310   8.797   4.556 -0.1675 -0.0913  0.0572
 1935W        W 5986   3.482   0.702   0.610  0.1085  0.0535 -0.1879
 1936W        W 5987   8.426   7.605  11.348 -0.2403 -0.3602 -0.2578
 1937W        W 5988   7.462   0.869   2.602 -0.1224  0.3291 -0.3938
 1938W        W 5989   5.318   3.967  11.283 -0.0225  0.2116 -0.1542
 1939W        W 5990   4.189   2.874  13.916  0.1716  0.0823 -0.1703
 1940W        W 5991   9.709   9.937  13.293  0.0629 -0.0466  0.0380
 1941W        W 5992   0.500   6.918  12.961 -0.0522 -0.0114  0.2746
 1942W        W 5993  10.117   1.757   1.412  0.1284  0.0668 -0.2157
 1943W        W 5994   5.599   2.033   9.132 -0.2952  0.1314  0.2957
 1944W        W 5995   8.153   9.239   1.338 -0.2871 -0.2413  0.0077
 1945W        W 5996   7.710   3.387   2.897  0.0805 -0.0675  0.1379
 1946W        W 5997   6.635   5.729  10.156 -0.1287  0.1738  0.2690
 1947W        W 5998   9.123   6.927   2.106 -0.0300  0.1363 -0.0212
 1948W        W 5999   6.708   9.029   9.971 -0.0730 -0.0611  0.1209
 1949W        W 6000   7.001   2.108  12.076 -0.1378  0.0614 -0.0304
 1950W        W 6001   0.669   2.690  12.947 -0.0430  0.1341 -0.0784
 1951W        W 6002   1.068   9.963  13.127  0.1016  0.2528  0.0665
 1952W        W 6003   9.776   7.361   3.671  0.0508  0.1250 -0.0614
 1953W        W 6004   1.220   3.847  12.108 -0.0346 -0.0678  0.1806
 1954W        W 6005   5.590   2.818   3.052 -0.2262  0.1611  0.2872
 1955W        W 6006   1.219   7.047  10.763  0.2727  0.2632 -0.0538
 1956W        W 6007   4.336   3.687   2.335  0.4557  0.2284  0.1688
 1957W        W 6008   8.209   0.972   3.269 -0.0962 -0.2778 -0.1197
 1958W        W 6009   1.403   7.474  10.966 -0.1029 -0.0657 -0.0713
 1959W        W 6010   7.762   8.339  11.045  0.3365  0.1135  0.1598
 1960W        W 6011   2.245   0.880  12.125 -0.1632  0.1700 -0.1445
 1961W        W 6012   1.099   6.704   9.718  0.2857 -0.0393 -0.0405
 1962W        W 6013   1.596   9.921  13.877 -0.0412 -0.1197  0.0746
 1963W        W 6014   2.675   3.557   2.176  0.1707 -0.2273 -0.0938
 1964W        W 6015   1.411   6.397   0.654 -0.3135 -0.4486  0.2195
 1965W        W 6016   5.928   4.663   3.916  0.2756  0.2454  0.0653
 1966W        W 6017   0.485   8.239   3.818  0.0672 -0.0302 -0.0709
 1967W        W 6018   3.298   9.736  12.306  0.1757  0.1407  0.0699
 1968W        W 6019   3.728   7.281  11.862  0.0619 -0.0592  0.0922
 1969W        W 6020   5.238  10.026   2.934  0.2196  0.0930  0.2662
 1970W        W 6021   1.395   4.019  10.671 -0.0305 -0.0461 -0.1710
 1971W        W 6022   2.472   9.744   9.478  0.0008 -0.3337  0.0859
 1972W        W 6023   9.541   8.904  11.797 -0.1699  0.1365  0.2535
 1973W        W 6024   2.495   2.832   1.376 -0.2173  0.0852  0.0960
 1974W        W 6025   8.960   8.326  11.762 -0.2363 -0.0311 -0.1207
 1975W        W 6026   0.597   3.099   3.542  0.1830 -0.1971  0.0065
 1976W        W 6027   5.336  10.016   9.837  0.1148  0.0203  0.2125
 1977W        W 6028   5.657   7.494   0.706  0.0710 -0.0128 -0.3305
 1978W        W 6029   6.940   1.192   2.008 -0.1290  0.0410 -0.0254
 1979W        W 6030   3.335   7.289   2.823 -0.0109  0.1643  0.4070
 1980W        W 6031   9.327   9.476  13.337 -0.0350 -0.3421  0.0738
 1981W        W 6032   9.857   4.578   2.232  0.0570 -0.1645 -0.0424
 1982W        W 6033   4.251   2.823  12.808  0.0296  0.2582 -0.1441
 1983W        W 6034   7.722   6.991   4.287 -0.0206 -0.1122 -0.1888
 1984W        W 6035   4.979  10.128  11.004  0.0547 -0.0931 -0.2840
 1985W        W 6036   8.938   7.140   2.648 -0.5242 -0.4658  0.0841
 1986W        W 6037   3.616   0.966   2.444  0.0689  0.0464  0.2657
 1987W        W 6038   1.770   8.648  12.235 -0.1240  0.2333 -0.0067
 1988W        W 6039   2.356   1.947  12.953 -0.0202 -0.0143 -0.1689
 1989W        W 6040   4.484   0.337  10.159  0.1077 -0.2508  0.2623
 1990W        W 6041   1.477   1.000  10.111 -0.0886  0.2846  0.1967
 1991W        W 6042   7.733   8.818  11.312  0.3491 -0.2035  0.0806
 1992W        W 6043   9.346   9.093   2.151 -0.3817 -0.0865 -0.1572
 1993W        W 6044   9.027   2.750   4.642  0.0831  0.2547 -0.0058
 1994W        W 6045   9.644   0.474  13.590 -0.1870  0.3207 -0.2393
 1995W        W 6046   0.606  10.064   1.869 -0.0117 -0.2225  0.1411
 1996W        W 6047   8.200   6.230   9.472  0.3484 -0.0411  0.0437
 1997W        W 6048   1.212   0.146   2.807  0.1061 -0.1050 -0.2733
 1998W        W 6049   1.602   5.862   9.807 -0.2645  0.4143 -0.1430
 1999W        W 6050   0.002   2.883   0.945  0.2276  0.4253 -0.0931
 2000W        W 6051   5.937   3.829   4.497 -0.2071  0.1126  0.1960
 2001W        W 6052   0.921   0.936  13.480 -0.0920 -0.0915 -0.0652
 2002W        W 6053   5.276   9.089   0.304 -0.1384  0.0423  0.0326
 2003W        W 6054   1.561   1.890  10.345  0.5516 -0.0547 -0.1613
 2004W        W 6055   4.277   0.797   1.997  0.0440 -0.0206 -0.1282
 2005W        W 6056   1.473   7.008   1.461  0.1284  0.0348  0.3695
 2006W        W 6057   4.261   8.173   0.983 -0.3877 -0.1121 -0.3792
 2007W        W 6058   0.742   4.345  11.895 -0.0541 -0.2933 -0.2669
 2008W        W 6059   4.298   2.381  13.035  0.2086 -0.1303  0.0108
 2009W        W 6060   3.303   1.936   1.326  0.1150 -0.0925 -0.3259
 2010W        W 6061   7.831   1.243  10.953  0.0884 -0.0380  0.3182
 2011W        W 6062   7.226   2.614   2.314  0.0351  0.2833  0.1905
 2012W        W 6063   0.285   6.906   0.850 -0.1739 -0.2860  0.2180
 2013W        W 6064   7.567   8.401  12.631  0.0763  0.2693  0.0048
 2014W        W 6065   8.475   2.140   3.609  0.1848  0.0354  0.2005
 2015W        W 6066   9.085   5.629  13.330  0.1643 -0.1814 -0.0161
 2016W        W 6067   2.454   4.580  12.374 -0.1428  0.2115  0.0155
 2017W        W 6068   4.718   0.158   9.193  0.1246 -0.1876 -0.0411
 2018W        W 6069   3.110   9.671  10.439 -0.2366 -0.0803 -0.2120
 2019W        W 6070   2.858   6.143  12.496  0.1385 -0.3866 -0.1185
 2020W        W 6071   0.391   9.758   9.934  0.1946  0.4066  0.1188
 2021W        W 6072  10.026   2.001   2.543  0.0728  0.0749  0.1695
 2022W        W 6073   8.701   3.861   1.349  0.1310  0.0265 -0.0083
 2023W        W 6074   9.485   8.418   0.103  0.2147 -0.0148  0.0634
 2024W        W 6075   0.870   3.476   2.188  0.1908 -0.3518  0.0227
 2025W        W 6076   1.578   0.424  13.495  0.1604 -0.1182  0.0396
 2026W        W 6077   6.680   3.690   4.823  0.1454 -0.1562  0.0040
 2027W        W 6078   1.412   8.340  11.931  0.0091  0.0103 -0.0696
 2028W        W 6079   9.203   9.087   0.576  0.4678  0.1893 -0.0894
 2029W        W 6080   8.303   8.672   9.757 -0.0557  0.3758 -0.1328
 2030W        W 6081   6.804   7.737  13.368 -0.1773 -0.1507 -0.2234
 2031W        W 6082   7.690   9.606   1.612  0.2040  0.1349  0.1572
 2032W        W 6083   2.340   9.135   3.850 -0.1506  0.1881 -0.0889
 2033W        W 6084   8.428   2.104  11.960  0.0551  0.0954 -0.1988
 2034W        W 6085   9.092   1.168   3.992 -0.0144 -0.1532  0.2787
 2035W        W 6086   9.601   0.520   3.133 -0.0729  0.4340 -0.0788
 2036W        W 6087   9.517   6.175  13.096 -0.0016 -0.0927  0.2103
 2037W        W 6088   6.265   8.500  11.505  0.4043  0.0613 -0.1646
 2038W        W 6089  10.033   9.205   0.489  0.2305  0.0684  0.0023
 2039W        W 6090   2.689   9.391   1.439  0.4393 -0.0190  0.1621
 2040W        W 6091   9.591   0.703   0.176 -0.6184 -0.0305  0.3761
 2041W        W 6092   6.605   7.010   3.354 -0.1442  0.0224  0.0196
 2042W        W 6093   2.805  10.080  10.306 -0.2844  0.1573  0.3540
 2043W        W 6094   3.526   4.142  12.688 -0.0539 -0.0857 -0.0981
 2044W        W 6095   3.455   1.267   1.683 -0.0104 -0.0576 -0.2902
 2045W        W 6096   3.934   6.834   4.850 -0.1611 -0.0902 -0.2234
 2046W        W 6097   8.632   3.688   4.746 -0.1121 -0.2358  0.0625
 2047W        W 6098   5.272   8.668   9.765  0.0100 -0.0538 -0.2349
 2048W        W 6099   4.120   7.665   0.118  0.0391  0.2371 -0.1050
 2049W        W 6100   0.208   7.096   9.902 -0.0668 -0.3889 -0.1113
 2050W        W 6101   5.717   7.491   1.990 -0.2339  0.0573  0.0937
 2051W        W 6102   1.004   1.744   9.585  0.3142  0.0287 -0.1742
 2052W        W 6103   8.103   9.564   2.326  0.3063 -0.0485 -0.1466
 2053W        W 6104   0.827   3.268  10.773  0.0412  0.2269  0.1403
 2054W        W 6105   9.603   7.268   8.827 -0.2277 -0.0776 -0.2584
 2055W        W 6106   3.547   4.620  11.474 -0.0284  0.1619 -0.1722
 2056W        W 6107   6.193   0.569  11.053 -0.0220  0.0296 -0.0278
 2057W        W 6108   9.339   6.530   9.588  0.3367  0.1437  0.2986
 2058W        W 6109   3.185   2.901   3.439  0.2454 -0.1434 -0.0768
 2059W        W 6110  10.135   9.945  10.327 -0.3633 -0.0533 -0.0564
 2060W        W 6111   2.289   9.898  12.398  0.0849  0.0462 -0.1114
 2061W        W 6112   4.410   1.488  13.358  0.2550  0.1547 -0.3181
 2062W        W 6113   1.948   0.182  10.346 -0.0455  0.1177  0.0994
 2063W        W 6114   3.732   3.682  11.926 -0.0095  0.1382 -0.1431
 2064W        W 6115   1.202   1.883   4.008 -0.0419  0.1143 -0.1490
 2065W        W 6116   3.882   7.979   5.345  0.0963  0.0444 -0.1377
 2066W        W 6117   1.884   2.626   0.102 -0.1699 -0.2673  0.2503
 2067W        W 6118   7.556   8.238  13.541 -0.0691  0.0629  0.0085
 2068W        W 6119   9.719   8.766  10.618  0.0420  0.1558  0.1379
 2069W        W 6120   6.008   4.926   1.478 -0.3330  0.2176  0.0978
 2070W        W 6121   0.091   9.214  11.401 -0.0458 -0.0249 -0.0727
 2071W        W 6122   7.774   3.895   2.772 -0.3407 -0.2257  0.1625
 2072W        W 6123   3.763   1.483  10.959  0.2045 -0.0387  0.0057
 2073W        W 6124   5.804   7.144  11.699  0.0897 -0.3060 -0.1873
 2074W        W 6125   3.129   9.169   3.592 -0.1638  0.1806  0.1515
 2075W        W 6126   0.079   4.853  13.359 -0.0400 -0.1362 -0.0288
 2076W        W 6127   9.472   7.123  11.831 -0.0016 -0.2566  0.2455
 2077W        W 6128   0.108   5.264   4.577  0.2236  0.1254  0.0257
 2078W        W 6129   4.765   0.877   3.322  0.0459 -0.0335  0.1561
 2079W        W 6130   4.112   1.273   0.262 -0.0085 -0.1513 -0.2904
 2080W        W 6131   9.348   7.168  11.297  0.0555 -0.4054 -0.0945
 2081W        W 6132   9.755  10.064   1.831  0.2940  0.2421 -0.4541
 2082W        W 6133   7.004   2.098   3.129 -0.2264 -0.0453 -0.2124
 2083W        W 6134   2.675   5.469  13.260 -0.3383  0.0466 -0.1464
 2084W        W 6135   5.323   4.726  11.075  0.1514 -0.2639 -0.0692
 2085W        W 6136   7.330   0.072   8.869 -0.1767 -0.1918  0.0089
 2086W        W 6137   1.241   1.213  12.342 -0.2234  0.1000  0.1546
 2087W        W 6138   1.916   0.131  13.635 -0.0738  0.5616 -0.1416
 2088W        W 6139   8.033   9.088   4.976  0.0042 -0.1148  0.0963
 2089W        W 6140   0.248   3.816   2.813  0.0548 -0.0271  0.0026
 2090W        W 6141   0.145   1.794   9.066 -0.1006 -0.0429 -0.1975
 2091W        W 6142   5.277   1.098   4.574  0.0501 -0.2385  0.0826
 2092W        W 6143   8.151   3.619   2.933 -0.0050 -0.0770  0.2174
 2093W        W 6144   1.446   4.637   2.998  0.1177  0.2861 -0.2880
 2094W        W 6145   0.362   5.437   0.635 -0.0850 -0.0144 -0.0106
 2095W        W 6146   3.894   2.714  13.137  0.0414 -0.3188  0.0451
 2096W        W 6147   9.489   1.112   2.416 -0.0549  0.2026 -0.1753
 2097W        W 6148   1.470   4.904   2.036  0.1881  0.0802  0.0847
 2098W        W 6149   5.889   7.286   0.343  0.3048 -0.0980  0.2487
 2099W        W 6150   0.439   7.124   3.514  0.0006 -0.0922 -0.2427
 2100W        W 6151   6.190   0.844  13.193  0.3388  0.1748 -0.2871
 2101W        W 6152   8.910   2.703   4.073 -0.1325  0.2364 -0.2784
 2102W        W 6153   3.052   8.323   3.822 -0.1642 -0.0318  0.0640
 2103W        W 6154   4.741   1.540   0.794  0.0274 -0.0159 -0.3018
 2104W        W 6155   9.228   5.397   9.484 -0.2165  0.2896 -0.0573
 2105W        W 6156   5.368   5.066   4.204  0.0360 -0.4269 -0.2373
 2106W        W 6157   0.005   0.569  13.452  0.2515 -0.0992  0.1580
 2107W        W 6158   2.480   8.568   1.787 -0.2457  0.0688 -0.2056
 2108W        W 6159   3.511   7.265  11.316 -0.1729  0.1673 -0.1243
 2109W        W 6160   0.134   0.618   4.661 -0.1529 -0.0977 -0.0428
 2110W        W 6161   1.994   6.310   0.789  0.2461 -0.2267 -0.1270
 2111W        W 6162   5.891   5.587   9.427  0.1579  0.4079  0.2042
 2112W        W 6163   4.686   7.187   0.739 -0.2077  0.0375  0.0683
 2113W        W 6164   2.101   1.107  13.436 -0.1485 -0.1188  0.2790
 2114W        W 6165   4.111   7.599  10.577  0.0760 -0.0676  0.1631
 2115W        W 6166   6.490  10.119  12.767  0.1707 -0.1109 -0.2148
 2116W        W 6167   2.901   7.344   3.706  0.1041 -0.1082  0.2625
 2117W        W 6168   8.778   7.987  11.454  0.0901  0.2847  0.6377
 2118W        W 6169   7.668   1.354   5.677 -0.0080  0.2420  0.0626
 2119W        W 6170   2.588   5.978   9.891  0.0567 -0.2036  0.3012
 2120W        W 6171   6.558   1.155   9.635 -0.2466 -0.2738  0.1261
 2121W        W 6172   9.243   4.609   3.626 -0.3839 -0.1651 -0.0558
 2122W        W 6173   9.686   4.374   1.222  0.2071 -0.0692  0.1853
 2123W        W 6174   8.171   9.879   0.085 -0.0426  0.2673  0.2218
 2124W        W 6175   3.629   2.364   4.202  0.3675 -0.2333  0.2885
 2125W        W 6176   5.895   6.006  10.074  0.0760 -0.3518  0.0367
 2126W        W 6177   1.838   0.843  13.767  0.0704  0.0560 -0.2082
 2127W        W 6178   3.861   0.537   1.857 -0.2142 -0.2171 -0.0739
 2128W        W 6179   0.225   6.741   3.286  0.3600 -0.3014  0.3017
 2129W        W 6180   7.887   5.199  11.351  0.0672 -0.1390 -0.3341
 2130W        W 6181   6.833   1.814  10.282 -0.0643  0.0597 -0.0434
 2131W        W 6182   1.036   5.651  11.592  0.1680  0.1960  0.2472
 2132W        W 6183   1.367   4.596  11.488 -0.0303  0.0189  0.0696
 2133W        W 6184   3.432   2.711   2.364  0.1573 -0.0748  0.4137
 2134W        W 6185   4.670   2.567   1.168 -0.0346 -0.1199 -0.1697
 2135W        W 6186   8.234   2.861  12.417  0.1730  0.0819 -0.0590
 2136W        W 6187   9.938   9.405   3.267  0.1318  0.1334 -0.0945
 2137W        W 6188   6.094   2.737   0.935  0.4738  0.0707  0.0682
 2138W        W 6189   3.057   7.572   3.092  0.0450 -0.1428  0.1922
 2139W        W 6190   7.965   5.901   2.368 -0.1415  0.0336 -0.0338
 2140W        W 6191   2.025   0.581  13.268 -0.5354 -0.1064 -0.1680
 2141W        W 6192   4.290   6.035   1.389 -0.0712  0.1803 -0.2176
 2142W        W 6193   5.118   7.586   0.689  0.1433  0.1977  0.1003
 2143W        W 6194   8.082   1.956  13.900 -0.0475 -0.1642  0.3601
 2144W        W 6195   4.363   3.703  12.901 -0.0644 -0.2731  0.3234
 2145W        W 6196   7.949   5.139   8.643 -0.1852  0.1444 -0.1077
 2146W        W 6197   5.484   2.384  11.994  0.3176  0.1872  0.0654
 2147W        W 6198   5.184   0.474   5.630 -0.1251  0.1629  0.1104
 2148W        W 6199   9.244   5.117  12.759  0.0644  0.1961  0.1463
 2149W        W 6200   7.488   3.940   9.876  0.2458 -0.5031  0.2165
 2150W        W 6201   2.110   0.477   1.629 -0.1456 -0.0485 -0.0874
 2151W        W 6202   2.876   3.647  12.432 -0.1760 -0.3017 -0.0491
 2152W        W 6203   6.446   2.757  12.842 -0.1007  0.1356  0.0444
 2153W        W 6204   1.537   0.014   4.229  0.0027  0.0820 -0.1447
 2154W        W 6205  10.007   6.398  13.803  0.0276 -0.1091 -0.4483
 2155W        W 6206   6.990   2.376  10.288 -0.0566  0.0377 -0.1230
 2156W        W 6207   8.938   9.262  10.335 -0.0323 -0.1117  0.0576
 2157W        W 6208   4.296   1.256   0.746 -0.1314 -0.2230 -0.2570
 2158W        W 6209   2.014   4.605   0.428 -0.1040 -0.1218 -0.2124
 2159W        W 6210   0.157   6.007   1.009  0.0701  0.0992 -0.0881
 2160W        W 6211   9.510   9.876   2.888 -0.1017  0.0025  0.0471
 2161W        W 6212   6.772   8.603   1.379  0.3723 -0.0398 -0.0768
 2162W        W 6213   5.014   8.833  11.255  0.1653  0.0495 -0.0293
 2163W        W 6214   5.764   7.720   1.187 -0.0049  0.1441 -0.1391
 2164W        W 6215   6.137   5.303  13.578 -0.1671  0.0110 -0.3295
 2165W        W 6216   8.704  10.056   1.001 -0.0557 -0.0447 -0.0570
 2166W        W 6217   2.606   5.996   2.195  0.0934 -0.3097 -0.0235
 2167W        W 6218   7.205   4.505  13.005 -0.0226 -0.0933 -0.1720
 2168W        W 6219   8.295   0.604  13.368  0.2635  0.1340  0.1878
 2169W        W 6220   7.892   0.254   0.685  0.0971 -0.0131 -0.2187
 2170W        W 6221   0.070   6.559  12.050 -0.3108  0.0024 -0.2882
 2171W        W 6222   6.919   8.830   1.824 -0.0666  0.0686 -0.1723
 2172W        W 6223   6.223   6.722   4.511  0.0038 -0.0942 -0.0298
 2173W        W 6224   3.209   9.375  11.114 -0.1706  0.0156 -0.2032
 2174W        W 6225   6.506   3.098  10.773 -0.0685 -0.4520  0.1119
 2175W        W 6226   5.354   9.324   0.995  0.3518 -0.0272 -0.0417
 2176W        W 6227   1.370   7.367   2.481 -0.1906 -0.2605  0.0191
 2177W        W 6228   5.490   2.349   4.890 -0.1512  0.1110  0.1068
 2178W        W 6229   4.796   2.771   1.664 -0.1379  0.1349  0.3070
 2179W        W 6230   3.640   6.750   2.979  0.1601 -0.0406  0.1065
 2180W        W 6231   2.031   0.266   9.840 -0.0681 -0.0307 -0.1969
 2181W        W 6232   1.981   8.285  13.231  0.0136 -0.1000 -0.2204
 2182W        W 6233   7.329   7.422   2.141 -0.4177  0.3708 -0.1555
 2183W        W 6234   4.727   9.228   1.722 -0.0153 -0.1571 -0.0034
 2184W        W 6235   2.245   9.834  10.825  0.0564 -0.3859  0.0856
 2185W        W 6236   0.453   0.905   1.641 -0.1393 -0.0139 -0.1172
 2186W        W 6237   5.007   3.204   1.801 -0.4180 -0.1516  0.0504
 2187W        W 6238   7.487   3.848  12.216 -0.1453 -0.2624  0.1487
 2188W        W 6239   9.810   0.936  11.858 -0.2869 -0.0756 -0.1806
 2189W        W 6240   9.268   1.480   9.645 -0.1951 -0.1022  0.1637
 2190W        W 6241   5.892   8.179   5.680  0.2275 -0.1297  0.1417
 2191W        W 6242  10.067   7.241   4.148  0.0925  0.0723  0.1587
 2192W        W 6243   4.662   2.475   2.760  0.1679  0.2418  0.1536
 2193W        W 6244   9.693   3.138   9.974 -0.0391 -0.0561  0.1056
 2194W        W 6245   3.336   4.099   3.117  0.1713  0.1082 -0.0694
 2195W        W 6246   8.933   6.765   0.004  0.1104 -0.0234  0.0702
 2196W        W 6247   5.554   1.797  12.847  0.1128  0.2118  0.1113
 2197W        W 6248   6.731   9.173   3.652  0.0927  0.1358 -0.1634
 2198W        W 6249   5.555   7.027   2.873  0.1949 -0.1152  0.1482
 2199W        W 6250   1.308   8.345  12.482 -0.0022  0.5406  0.1588
 2200W        W 6251   7.054   2.321   3.804 -0.1116  0.1768 -0.0440
 2201W        W 6252   9.577   5.962   3.271 -0.2006  0.2834 -0.1719
 2202W        W 6253   5.051   6.801   2.929 -0.2848 -0.2246 -0.0148
 2203W        W 6254   1.791   9.995  11.256  0.0469  0.0143  0.1177
 2204W        W 6255   4.651   1.226  11.900 -0.0174  0.1089  0.0633
 2205W        W 6256   2.533   6.112   2.927 -0.0038  0.1305  0.4430
 2206W        W 6257   1.546   4.284  12.395  0.0007 -0.0383  0.4228
 2207W        W 6258   6.253   2.624   1.387  0.0019  0.1235  0.0656
 2208W        W 6259   6.069   7.446   2.438  0.3085  0.1723  0.3280
 2209W        W 6260   3.210   4.662   2.976  0.1131  0.0116 -0.0804
 2210W        W 6261   0.802   1.064   0.700  0.0887 -0.1983  0.1407
 2211W        W 6262   0.018   0.224  10.479 -0.1130 -0.2046 -0.0152
 2212W        W 6263   2.560   8.481  13.529 -0.0980  0.0009  0.0139
 2213W        W 6264   5.690   6.209   3.884 -0.2956  0.1274  0.0723
 2214W        W 6265   1.599   6.610  10.619  0.2833 -0.1497  0.1448
 2215W        W 6266   4.793   3.859  13.606  0.1650  0.2713  0.0899
 2216W        W 6267   1.009   6.691  10.314  0.1920  0.0795 -0.2545
 2217W        W 6268   7.643   8.461   1.293 -0.1819  0.3544 -0.2569
 2218W        W 6269   2.824   7.410   0.992 -0.0956  0.1078 -0.0804
 2219W        W 6270   2.811   9.365  10.123  0.0243  0.2788  0.3480
 2220W        W 6271   0.052   3.754  11.521  0.0806 -0.1387  0.1632
 2221W        W 6272   4.183   1.008  12.816  0.2141 -0.0661  0.1731
 2222W        W 6273   1.356   5.327  12.864 -0.0905  0.0086  0.1243
 2223W        W 6274   9.379   1.975   9.867 -0.1014 -0.2351  0.2793
 2224W        W 6275   2.177   9.337  11.487 -0.1761 -0.0920  0.2116
 2225W        W 6276   0.380   3.365  11.316 -0.1211  0.3736  0.3785
 2226W        W 6277   8.607   5.290   1.408  0.1260  0.4505 -0.2741
 2227W        W 6278   1.152   0.920   1.014  0.4556  0.4996 -0.2483
 2228W        W 6279   7.064   6.481   5.063  0.3219  0.1100 -0.1980
 2229W        W 6280   3.279  10.050   4.905 -0.0787 -0.0098 -0.0659
 2230W        W 6281   2.488   0.688   3.745  0.0778 -0.0156  0.2292
 2231W        W 6282   0.839   8.199   9.473  0.0370  0.3263  0.1212
 2232W        W 6283   3.870   7.675   3.758 -0.0042  0.3227  0.0505
 2233W        W 6284   0.016   9.404  12.121  0.1306 -0.0809  0.2907
 2234W        W 6285   0.233   6.736   2.050 -0.0998 -0.3973  0.0119
 2235W        W 6286   8.561   7.183   4.110  0.3195  0.0453 -0.0753
 2236W        W 6287   0.523   1.915  13.580  0.1631 -0.0078 -0.2750
 2237W        W 6288   8.262   2.446   1.647 -0.1223 -0.2009 -0.2738
 2238W        W 6289   4.880   6.108   3.554 -0.1171 -0.1124 -0.3446
 2239W        W 6290   1.419   0.665   2.814  0.0814  0.2569 -0.3675
 2240W        W 6291   6.412   1.412  12.438 -0.0420  0.1428 -0.2860
 2241W        W 6292   3.054  10.089   3.275 -0.3159 -0.0079  0.1824
 2242W        W 6293   4.095   4.530   3.954  0.0111 -0.0088  0.1318
 2243W        W 6294   4.875   5.495  10.251 -0.0613 -0.1519  0.0957
 2244W        W 6295   5.395   1.097   0.943 -0.0184  0.0190  0.3836
 2245W        W 6296   5.886  10.033   2.481 -0.1537 -0.1669  0.2225
 2246W        W 6297   4.909   7.349   1.162 -0.0825 -0.0388  0.4222
 2247W        W 6298   9.444   2.549   1.899 -0.1325  0.1200  0.1415
 2248W        W 6299   9.785   7.593   3.246  0.0549  0.0225 -0.1680
 2249W        W 6300   4.899   3.662   0.654 -0.2384 -0.1029 -0.3962
 2250W        W 6301   6.139   8.650  10.989 -0.1097  0.0200  0.1103
 2251W        W 6302   5.890   8.396   1.928 -0.4596  0.3387  0.0186
 2252W        W 6303   3.682   5.356   3.464  0.0596 -0.3979 -0.3364
 2253W        W 6304   5.581   5.412   2.130  0.1236  0.0973  0.3431
 2254W        W 6305   4.008   7.139  10.369  0.0017 -0.0202 -0.1060
 2255W        W 6306   5.515   8.443   0.754  0.0241  0.1846 -0.0791
 2256W        W 6307   9.396   7.681   3.791  0.0094 -0.1913  0.1395
 2257W        W 6308   3.025   0.061   4.417  0.0829  0.0520 -0.0171
 2258W        W 6309   6.625   3.783   2.171 -0.0890 -0.1089  0.2317
 2259W        W 6310   6.161   2.896   0.139 -0.0693 -0.2437 -0.0004
 2260W        W 6311   0.059   8.698  13.603  0.0187 -0.0311  0.0286
 2261W        W 6312   5.275  10.155  12.034  0.1137 -0.3439  0.0968
 2262W        W 6313   8.205   6.456  10.182  0.0220  0.0055 -0.0734
 2263W        W 6314   0.964   2.878   0.637  0.1948  0.0882  0.2941
 2264W        W 6315   0.567   7.282   1.105 -0.0315 -0.0628  0.1077
 2265W        W 6316   2.201   4.208  11.078 -0.0525  0.0688 -0.1054
 2266W        W 6317   7.791   8.115   2.661 -0.3000 -0.2813 -0.0581
 2267W        W 6318  10.184   4.730  13.869  0.1026  0.3396  0.0356
 2268W        W 6319   9.212   3.971  10.154 -0.1357 -0.1594 -0.1407
 2269W        W 6320   8.544   3.497  11.778  0.2339  0.0077  0.1105
 2270W        W 6321   0.445   7.786  12.628 -0.0784 -0.1125  0.1785
 2271W        W 6322   3.982   5.392  12.602 -0.0048  0.1810  0.3416
 2272W        W 6323   8.399   1.066  11.555 -0.0354 -0.1960 -0.2660
 2273W        W 6324   8.368   3.793   3.391  0.1635  0.3417 -0.0461
 2274W        W 6325  10.144   8.482   3.509  0.1413 -0.1370  0.0959
 2275W        W 6326  10.172   0.919   9.754 -0.0719  0.1629 -0.1133
 2276W        W 6327   2.683   8.498   4.968  0.1063  0.3234 -0.2272
 2277W        W 6328   3.571   0.557  13.198  0.2330  0.1046  0.2084
 2278W        W 6329   8.566   0.326  10.989  0.0529  0.1348  0.0982
 2279W        W 6330   0.770   1.881   1.611  0.2203 -0.0042  0.0741
 2280W        W 6331   0.442   1.720   2.773 -0.0793  0.1810  0.3548
 2281W        W 6332   9.992   0.442  13.949 -0.2262  0.0926 -0.3270
 2282W        W 6333   6.744   8.676   3.934  0.0699  0.1803 -0.0905
 2283W        W 6334  10.045   4.235  10.695 -0.2575  0.0199  0.0725
 2284W        W 6335  10.012   7.730   9.645  0.1021 -0.0585  0.2775
 2285W        W 6336   3.384   6.954  12.715  0.2187  0.2833  0.2646
 2286W        W 6337   5.096   5.190   0.582 -0.2056  0.1418  0.2278
 2287W        W 6338   6.782  10.101   2.516 -0.0701  0.3372  0.3808
 2288W        W 6339   0.196   7.660   2.293  0.1648 -0.0687 -0.0345
 2289W        W 6340   3.968   3.444   0.085 -0.0606 -0.0311 -0.2191
 2290W        W 6341   6.359   5.126   4.133 -0.0951  0.4514 -0.2528
 2291W        W 6342   1.587   0.208   8.981 -0.0971 -0.0325 -0.0708
 2292W        W 6343   3.503   6.804   4.596 -0.3230 -0.2898  0.1738
 2293W        W 6344   4.351   3.647  13.409 -0.0754 -0.5310  0.1431
 2294W        W 6345   8.779   1.492   9.452 -0.1920 -0.1721  0.5177
 2295W        W 6346   3.211   9.062  13.726 -0.0808 -0.1436 -0.3686
 2296W        W 6347   7.031   1.092   5.027 -0.2521 -0.0362  0.0653
 2297W        W 6348   5.975   1.636  13.127  0.2668  0.0378  0.0216
 2298W        W 6349   3.031   1.755  10.587 -0.0108 -0.2464 -0.2698
 2299W        W 6350   1.831   5.279  12.078  0.0497  0.0349  0.2028
 2300W        W 6351   8.308   9.544   4.093 -0.0081  0.1811 -0.1851
 2301W        W 6352   4.954   8.341   9.991  0.1746 -0.1771 -0.0785
 2302W        W 6353   9.412   9.770   4.784 -0.1259 -0.3389  0.4097
 2303W        W 6354   3.052   8.722   0.843 -0.2810 -0.2613 -0.0392
 2304W        W 6355   1.170   9.146  12.910 -0.0777 -0.3005 -0.0356
 2305W        W 6356   4.846   3.163   0.389  0.0428 -0.2597  0.1527
 2306W        W 6357   9.227   0.499  13.305 -0.1575  0.0309  0.0573
 2307W        W 6358   9.519   3.355   0.690 -0.0304 -0.0034  0.1631
 2308W        W 6359   7.077  10.113   1.631 -0.4064  0.2258  0.0817
 2309W        W 6360   3.136   8.675   8.902  0.0430 -0.2953  0.2323
 2310W        W 6361   6.492   7.622   9.901  0.2205  0.2314 -0.1366
 2311W        W 6362   4.766   8.043   1.042 -0.1230  0.0111  0.0914
 2312W        W 6363   2.426   8.650  12.846  0.2013 -0.0797  0.4789
 2313W        W 6364   0.882   3.676  12.515 -0.1815  0.1436  0.4490
 2314W        W 6365   4.503   9.765   4.767  0.1989  0.3171  0.3413
 2315W        W 6366   1.847   8.039   1.205 -0.3534  0.0658 -0.2829
 2316W        W 6367   1.220   0.786   1.850  0.1322 -0.1537  0.2921
 2317W        W 6368   7.198   5.015   1.551  0.0984 -0.0488  0.2196
 2318W        W 6369   6.391   1.563  11.653  0.0667  0.0796 -0.2139
 2319W        W 6370   8.139   8.359   1.041  0.3811 -0.0488  0.0119
 2320W        W 6371   0.462   7.989   2.606  0.2845  0.2058  0.2643
 2321W        W 6372   4.490   0.631  12.600 -0.0417 -0.0724 -0.1463
 2322W        W 6373   7.742   0.809  10.704  0.3623  0.1478  0.3022
 2323W        W 6374   6.784   6.381   0.235  0.1563 -0.0908 -0.3341
 2324W        W 6375   2.722   1.445  11.438  0.1546 -0.3589 -0.3053
 2325W        W 6376   2.605   6.706   1.246 -0.1157 -0.0117  0.0128
 2326W        W 6377   7.059   3.882  13.592 -0.1781  0.0039  0.2987
 2327W        W 6378   5.379   5.073   3.306 -0.0037 -0.1783 -0.2323
 2328W        W 6379   9.132   7.093  13.181  0.1561  0.0232  0.1084
 2329W        W 6380   6.297   3.917  13.004 -0.4226 -0.0215 -0.1271
 2330W        W 6381   4.848   8.671   8.642  0.1837  0.0542 -0.2271
 2331W        W 6382   3.536   3.485   0.294  0.0368  0.2080 -0.1597
 2332W        W 6383   4.548   6.043   3.138 -0.2032 -0.1314  0.5884
 2333W        W 6384   2.780  10.073  13.195  0.1602 -0.0685 -0.2343
 2334W        W 6385   4.270   5.735   2.836  0.0200 -0.1797 -0.1458
 2335W        W 6386   7.756   3.914  12.884 -0.2934 -0.5168 -0.4236
 2336W        W 6387   1.090   0.209   9.337 -0.0694 -0.0094  0.1894
 2337W        W 6388   7.664   4.836   3.550 -0.0234  0.1439 -0.3335
 2338W        W 6389   1.449   6.612  13.645 -0.2491  0.0178  0.1734
 2339W        W 6390   6.402   3.222   9.537  0.0203 -0.1040  0.1918
 2340W        W 6391   0.575   5.151  13.204  0.2094  0.2020  0.3724
 2341W        W 6392   9.022   6.650   8.549 -0.2976 -0.2360 -0.0161
 2342W        W 6393   4.599   6.805  12.144 -0.0505 -0.1187 -0.2892
 2343W        W 6394   9.784   6.175  12.097  0.1118 -0.1316  0.0993
 2344W        W 6395   0.816   6.637   1.455  0.0736 -0.0736  0.0484
 2345W        W 6396   3.825   6.015   2.845 -0.2221  0.3861 -0.0885
 2346W        W 6397   4.075   3.451   1.988 -0.2783 -0.1720  0.0881
 2347W        W 6398   2.498   1.812   2.309  0.0145  0.2362  0.1447
 2348W        W 6399   1.666   6.519   2.336  0.4447  0.0289  0.1245
 2349W        W 6400   3.290   4.494   0.517  0.1834 -0.4825 -0.0025
 2350W        W 6401  10.049   2.829   2.485 -0.3987 -0.1347 -0.0817
 2351W        W 6402   3.296   6.643  10.272 -0.0996 -0.0798  0.1083
 2352W        W 6403   6.069   1.295   4.587  0.1307 -0.0256 -0.0093
 2353W        W 6404   5.258   8.789  12.741  0.0113 -0.0456  0.0302
 2354W        W 6405   2.734   6.697   0.242  0.1576  0.1509  0.1289
 2355W        W 6406   4.228   2.540   4.346  0.0306  0.2111 -0.2334
 2356W        W 6407   4.317   1.802  10.174 -0.0232  0.1310 -0.1122
 2357W        W 6408   1.075   0.290   3.302 -0.0898 -0.0268 -0.1160
 2358W        W 6409   8.802   6.468  10.227 -0.1052 -0.0107 -0.2619
 2359W        W 6410   1.745   4.436  13.438 -0.2880  0.3637  0.3137
 2360W        W 6411   6.508   0.752   1.467 -0.2116 -0.2686 -0.2758
 2361W        W 6412   5.310   2.427   0.528  0.0445 -0.2561 -0.1533
 2362W        W 6413   5.534   5.994   4.549 -0.2137  0.2433  0.4821
 2363W        W 6414   3.331   4.539   1.437 -0.2238 -0.1181  0.1666
 2364W        W 6415   5.732   8.808   0.533  0.4106  0.0634 -0.5811
 2365W        W 6416   2.417   0.948  10.382 -0.0868 -0.2262 -0.1166
 2366W        W 6417   2.932   5.671   0.275  0.2286  0.4018  0.1240
 2367W        W 6418   5.658   2.481   0.968 -0.0453 -0.0531 -0.4011
 2368W        W 6419   3.498   8.692   0.416  0.3683 -0.2340  0.1775
 2369W        W 6420   3.094   8.054  11.439 -0.0393  0.0444  0.0691
 2370W        W 6421   6.342   2.379  12.452  0.1202 -0.0813 -0.2154
 2371W        W 6422   1.024   8.248   0.325 -0.0894 -0.2306  0.1289
 2372W        W 6423   0.472   0.768  11.808  0.5119  0.0912 -0.0738
 2373W        W 6424   9.311   8.483   9.494 -0.1164  0.1538  0.0164
 2374W        W 6425   1.567   4.840  13.123  0.1392 -0.1578 -0.4351
 2375W        W 6426   1.414   8.587   1.088  0.0200  0.0903 -0.2113
 2376W        W 6427   0.599   8.693  12.071 -0.4113  0.0722  0.2747
 2377W        W 6428   9.468   0.982   9.671  0.1184  0.0044  0.0078
 2378W        W 6429   0.833   8.882   4.429 -0.1454 -0.0193  0.0843
 2379W        W 6430   9.225   6.079   4.170  0.2881 -0.3160  0.2375
 2380W        W 6431   9.979   1.360   0.526  0.0612  0.0505 -0.0698
 2381W        W 6432   1.462   9.707   3.588  0.3795  0.1848 -0.0598
 2382W        W 6433   9.729   3.918   4.160 -0.0361  0.0953  0.0632
 2383W        W 6434   9.984   4.271   8.730 -0.0681 -0.1252  0.0401
 2384W        W 6435   7.400   8.834   0.439 -0.1254 -0.0451 -0.0320
 2385W        W 6436   1.215   6.482   1.150  0.1608  0.0454 -0.0123
 2386W        W 6437   4.896   6.501  10.179 -0.0965 -0.0673 -0.0439
 2387W        W 6438   6.950   6.320  10.976  0.3119 -0.1463 -0.3988
 2388W        W 6439   3.174   0.461   3.137  0.0730  0.1173  0.1844
 2389W        W 6440   7.522   6.857   9.094 -0.0869 -0.0178  0.0202
 2390W        W 6441   8.966   0.974  10.314  0.2445 -0.0630  0.0615
 2391W        W 6442   9.060   1.201  11.092 -0.2981 -0.2690  0.0376
 2392W        W 6443   3.102   4.686  11.584 -0.1913 -0.0078 -0.1556
 2393W        W 6444   3.159   5.311   1.882  0.0688 -0.1953  0.2750
 2394W        W 6445   8.590   6.887  10.158  0.5284 -0.1306  0.4536
 2395W        W 6446   3.783   4.776   1.673 -0.4205 -0.0470  0.1972
 2396W        W 6447   8.956   8.531   0.363  0.1711  0.1666  0.0175
 2397W        W 6448   3.312   0.536   2.515  0.2857 -0.3457 -0.0086
 2398W        W 6449   7.860   4.615  12.007 -0.0412  0.2217  0.2021
 2399W        W 6450   9.403   5.669   9.867  0.0481 -0.2600  0.2705
 2400W        W 6451   5.591   8.646   2.861  0.0728 -0.0557 -0.0244
 2401W        W 6452   7.336   0.223  13.273  0.4511  0.2165 -0.3590
 2402W        W 6453   8.006   3.790  12.457 -0.0784 -0.2031  0.1227
 2403W        W 6454  10.078   0.028   2.182 -0.0138  0.2834  0.0768
 2404W        W 6455   2.879   1.285   3.652 -0.0864  0.1262 -0.3546
 2405W        W 6456   5.471   5.132  13.763  0.0447  0.3133 -0.1680
 2406W        W 6457   3.244   8.510  10.417  0.0487 -0.1750 -0.0063
 2407W        W 6458   7.340   0.668   3.796 -0.0703 -0.3981 -0.2536
 2408W        W 6459   6.698   6.734  10.791  0.0929  0.1322 -0.0910
 2409W        W 6460   6.645   8.863   5.368 -0.3003  0.1598  0.0179
 2410W        W 6461   0.237   3.171   3.216 -0.2301 -0.0995  0.1936
 2411W        W 6462   8.891   3.450   2.714 -0.0872 -0.2217 -0.1084
 2412W        W 6463   1.104   4.920   1.707 -0.1514  0.1491  0.5120
 2413W        W 6464   4.450   9.352   3.980  0.1624  0.0536  0.1501
 2414W        W 6465   1.318   5.304  11.962  0.0851  0.3147  0.0325
 2415W        W 6466   3.242   4.308  13.093  0.2468 -0.3868  0.3089
 2416W        W 6467   9.302   8.732   2.995 -0.0476  0.2622  0.0270
 2417W        W 6468   0.094   8.896   5.943  0.3853 -0.1384  0.1477
 2418W        W 6469   1.260   1.474  10.212  0.1533 -0.0306  0.1107
 2419W        W 6470   1.162   8.565  13.678 -0.1717 -0.0049  0.0780
 2420W        W 6471   1.207   5.584  11.154 -0.1738 -0.1397 -0.0893
 2421W        W 6472   6.542   7.955   1.676  0.1970  0.2541  0.1461
 2422W        W 6473   6.518   1.634   1.531  0.0999  0.2124  0.0397
 2423W        W 6474   9.360   9.674  12.844  0.0544  0.0197 -0.2443
 2424W        W 6475   2.663   7.863  10.437 -0.0759  0.6312  0.0309
 2425W        W 6476   9.092   9.104  10.765  0.1295  0.2194 -0.0460
 2426W        W 6477   4.858   2.347  11.274 -0.0600 -0.0264 -0.2329
 2427W        W 6478   0.002   5.079   9.651  0.0620  0.0462 -0.0633
 2428W        W 6479   1.846   8.985   1.154 -0.2221  0.2560  0.2546
 2429W        W 6480   6.112   9.293  13.497 -0.0537 -0.2389  0.2055
 2430W        W 6481   8.617   7.665   0.390 -0.2130  0.1926 -0.1748
 2431W        W 6482   3.406   3.919   2.165  0.2588 -0.2966  0.3565
 2432W        W 6483   5.571   9.151   4.504 -0.0226 -0.1175  0.0262
 2433W        W 6484   2.551   8.953  12.364 -0.2139 -0.1498 -0.2006
 2434W        W 6485   2.111   3.534   0.828 -0.2440 -0.0238 -0.0792
 2435W        W 6486   6.628   2.436   3.099  0.0289 -0.1989  0.0439
 2436W        W 6487   1.542   0.382   0.548 -0.1883  0.1254 -0.0526
 2437W        W 6488   8.404   2.589   3.904  0.1531 -0.0155  0.2464
 2438W        W 6489   8.013   3.292  10.997  0.0923  0.2280  0.3212
 2439W        W 6490   1.333   4.061   2.233 -0.0702  0.0117  0.0897
 2440W        W 6491   1.169   2.818  12.358 -0.2817  0.0055  0.0033
 2441W        W 6492   2.778   8.833   2.121  0.1333  0.0892 -0.0290
 2442W        W 6493   6.239   0.351  12.503  0.2372 -0.1000  0.0055
 2443W        W 6494   0.259   6.285   4.524  0.0658  0.1291 -0.1172
 2444W        W 6495   4.758   8.835   2.141 -0.1197  0.0834  0.0648
 2445W        W 6496   3.926   2.584   3.870  0.0580  0.1944 -0.1568
 2446W        W 6497   1.007   9.548   1.718  0.0814  0.2424 -0.0859
 2447W        W 6498   5.399   9.745  10.274 -0.0033  0.0864 -0.2235
 2448W        W 6499   9.503   9.000  11.033  0.0984 -0.0307  0.1307
 2449W        W 6500   0.207   8.742  10.642 -0.0632 -0.0896 -0.0483
 2450W        W 6501   5.914   2.500   5.215  0.2195 -0.0447 -0.0808
 2451W        W 6502   1.134   3.421   1.705  0.2417 -0.1367  0.0712
 2452W        W 6503   0.409  10.036   3.181  0.0551  0.3446 -0.1560
 2453W        W 6504   8.649   0.966   5.468 -0.2843  0.0760 -0.0909
 2454W        W 6505   0.733   6.999   9.569  0.0333 -0.3017 -0.2098
 2455W        W 6506   4.426   7.239   4.023  0.2113 -0.2468  0.0178
 2456W        W 6507   4.543   8.664   9.287 -0.2549 -0.1976 -0.5225
 2457W        W 6508   3.641   8.746   9.557 -0.0468  0.1146  0.1217
 2458W        W 6509   5.340   1.818   0.311 -0.2991 -0.1740 -0.0903
 2459W        W 6510   1.147   1.074   2.878 -0.0324 -0.2559  0.1554
 2460W        W 6511   8.741   4.189   2.090  0.0056 -0.3459 -0.0441
 2461W        W 6512   7.278   9.986   1.140 -0.1004  0.2585  0.3546
 2462W        W 6513   1.177   0.928   4.621  0.1318  0.2064  0.0324
 2463W        W 6514   1.921   1.163   1.690  0.1714  0.2871  0.3241
 2464W        W 6515   6.079   8.376   0.540  0.1238 -0.1887  0.1767
 2465W        W 6516   6.149   4.712   4.881 -0.1882  0.0377 -0.2254
 2466W        W 6517   6.094   7.826   2.102  0.3065 -0.3224 -0.0078
 2467W        W 6518   9.361   5.901  10.686 -0.1518 -0.0987  0.2459
 2468W        W 6519   5.211   1.055  10.965 -0.0301  0.0460  0.0528
 2469W        W 6520   2.805   4.552  13.275  0.2643  0.2695 -0.0246
 2470W        W 6521   5.984   6.802   0.277  0.0318  0.1148  0.0666
 2471W        W 6522   4.886   1.786  13.388  0.4055  0.1022  0.1716
 2472W        W 6523   3.602   4.365  11.009 -0.1250  0.0350 -0.2884
 2473W        W 6524   3.240   2.263   2.616 -0.0019  0.1880  0.1787
 2474W        W 6525   6.400   0.002  11.738  0.0300  0.2712 -0.2501
 2475W        W 6526   2.822   7.810  11.074 -0.0572 -0.2384 -0.2335
 2476W        W 6527   7.080   7.256   0.484 -0.1051 -0.0139  0.3546
 2477W        W 6528   8.308   1.712  10.796  0.0935  0.2053 -0.0500
 2478W        W 6529   3.629   8.142  11.552  0.1072  0.1412  0.0885
 2479W        W 6530   1.754   9.342   3.558  0.1304 -0.1388  0.0753
 2480W        W 6531   4.090   4.072  10.971  0.2631 -0.2356 -0.1375
 2481W        W 6532   7.375   3.139  12.885  0.0127 -0.1119  0.0580
 2482W        W 6533   6.014   2.384   2.306  0.0800  0.2151 -0.2568
 2483W        W 6534   8.945   6.601   0.771  0.0538  0.0117 -0.4379
 2484W        W 6535   3.909   0.268  13.842  0.3669 -0.0116 -0.1231
 2485W        W 6536   7.676   3.556   4.085 -0.0782 -0.0232 -0.0661
 2486W        W 6537   0.868   5.171  13.592 -0.1880 -0.0489 -0.0725
 2487W        W 6538   3.413   1.735   1.900 -0.0722  0.2461  0.0002
 2488W        W 6539   7.306   9.950  13.663 -0.3331  0.1538  0.1331
 2489W        W 6540   4.200   0.546   9.766  0.0422 -0.2862  0.0902
 2490W        W 6541   1.414   0.954   2.284  0.0197  0.0838  0.0748
 2491W        W 6542   1.573   4.091  11.582  0.3616 -0.1740 -0.2984
 2492W        W 6543   3.502   1.782   2.915  0.0558  0.3201 -0.0103
 2493W        W 6544   7.036   0.012   0.690 -0.2024  0.3071 -0.1040
 2494W        W 6545   0.388   0.923  13.466  0.0915 -0.0017 -0.1447
 2495W        W 6546   6.407   4.573   4.050  0.3912 -0.0190  0.0332
 2496W        W 6547   8.150   9.381  13.241  0.1501  0.0069 -0.1195
 2497W        W 6548   4.339   8.484  11.249  0.2826 -0.0529  0.0770
 2498W        W 6549   8.335   8.571   2.061 -0.0178  0.0258 -0.0075
 2499W        W 6550   4.125   5.658  12.048 -0.2495 -0.2496  0.1384
 2500W        W 6551   7.478   3.185   1.386  0.2163  0.1515 -0.3715
 2501W        W 6552   0.239   9.624   3.901  0.0665  0.1114 -0.3696
 2502W        W 6553   8.847   4.033   0.121 -0.1471 -0.0393  0.0326
 2503W        W 6554   3.923   8.521  13.372 -0.1079 -0.1559 -0.1579
 2504W        W 6555   9.786   8.591   2.766  0.0828 -0.3153 -0.1738
 2505W        W 6556   3.213   8.822  10.879 -0.2212 -0.1232 -0.3666
 2506W        W 6557   1.678   7.822  11.788 -0.0179  0.1350 -0.1549
 2507W        W 6558   2.248   8.888   2.763  0.2388 -0.1500  0.1006
 2508W        W 6559   5.521   2.732  13.115 -0.0707  0.2943 -0.0735
 2509W        W 6560   6.396   4.855  11.325 -0.0850 -0.1969 -0.3422
 2510W        W 6561   8.144   7.773   1.831  0.0268 -0.1805 -0.1020
 2511W        W 6562   3.665   3.825  10.140  0.3391  0.3474  0.0187
 2512W        W 6563   6.888   3.740   1.749 -0.0303  0.3123 -0.1274
 2513W        W 6564   7.823   1.660   0.754  0.1783 -0.2368 -0.0724
 2514W        W 6565   2.622   8.481   2.778 -0.1446  0.1806  0.0890
 2515W        W 6566   1.232   7.505  12.860  0.1259 -0.1099  0.0141
 2516W        W 6567   9.539   4.257  11.728  0.2470 -0.1475  0.4474
 2517W        W 6568   2.094   8.650   0.518 -0.2336  0.2310  0.0595
 2518W        W 6569   2.089   4.738  12.008 -0.2281 -0.2038  0.0714
 2519W        W 6570   1.484   1.224  13.841 -0.1142 -0.0745  0.0609
 2520W        W 6571   5.816   5.301   2.610  0.0178  0.1078  0.0896
 2521W        W 6572   8.793   2.429   3.258 -0.1205 -0.0489  0.0641
 2522W        W 6573   2.656   8.331   9.594 -0.0863  0.0017 -0.0146
 2523W        W 6574   7.563   5.432   2.373 -0.2405  0.0405 -0.0854
 2524W        W 6575   4.245   0.072  10.862 -0.1585 -0.2326  0.1109
 2525W        W 6576   6.912   2.759   4.744 -0.3199  0.1748  0.0930
 2526W        W 6577   2.352   3.778   1.203 -0.0125 -0.4541  0.1790
 2527W        W 6578  10.187   8.251   2.650  0.0902 -0.0042  0.1146
 2528W        W 6579   1.657   1.100   4.488  0.2880  0.1480  0.2504
 2529W        W 6580   3.856   6.496   0.847  0.2624  0.0742 -0.1639
 2530W        W 6581   3.903   1.555   0.644  0.0050 -0.1542 -0.3182
 2531W        W 6582   9.526   5.109   3.764  0.1029 -0.0553 -0.2873
 2532W        W 6583   4.924   8.162  13.143  0.2004 -0.2213 -0.2684
 2533W        W 6584   3.982   7.969   9.999 -0.0555  0.1511  0.3186
 2534W        W 6585   6.088   9.668   3.769  0.0542  0.0788 -0.0551
 2535W        W 6586   8.403   1.189  13.240 -0.0316  0.1681 -0.1171
 2536W        W 6587   4.307   7.482  12.620 -0.2310 -0.1888  0.0321
 2537W        W 6588   5.834   4.196   3.498 -0.0522 -0.1272 -0.0104
 2538W        W 6589   0.850   8.223  10.161 -0.0191 -0.2532  0.2007
 2539W        W 6590   9.828   7.004  11.557  0.2660 -0.0503 -0.1043
 2540W        W 6591   3.875   1.870   4.442 -0.1264 -0.0692  0.1864
 2541W        W 6592   6.667  10.137   4.616 -0.2094  0.0430  0.0584
 2542W        W 6593   3.583   9.931   3.728 -0.3054 -0.1594  0.2543
 2543W        W 6594   7.375   2.501  13.635  0.0326 -0.1125 -0.3249
 2544W        W 6595   4.620   0.074   4.954 -0.1134  0.0328  0.0825
 2545W        W 6596   8.636   7.999   2.981 -0.0753 -0.1290  0.1486
 2546W        W 6597   4.382   4.071   0.501 -0.3285  0.1240 -0.2455
 2547W        W 6598   6.975   1.219  10.982 -0.1469  0.0863  0.0776
 2548W        W 6599   1.770   0.693   1.950  0.0897  0.0766 -0.0782
 2549W        W 6600   5.463   2.525   3.838 -0.0805  0.0864  0.2621
 2550W        W 6601   9.738   6.452   0.263  0.0841  0.0025 -0.0701
 2551W        W 6602   2.388   6.719  13.794 -0.2136 -0.2156  0.0007
 2552W        W 6603   9.676   5.552   3.770 -0.1466 -0.3259 -0.1219
 2553W        W 6604   7.234   2.001  12.938 -0.1826  0.2449 -0.1050
 2554W        W 6605   3.539   8.967   2.745 -0.1762 -0.0254 -0.1435
 2555W        W 6606   0.489   1.431   0.844  0.0632  0.0410  0.0957
 2556W        W 6607   5.075   3.220  10.759 -0.1668  0.3318  0.0764
 2557W        W 6608   8.262   5.882   0.042  0.0823 -0.1566  0.0223
 2558W        W 6609   6.768   8.674   2.327  0.0478  0.1173  0.1648
 2559W        W 6610   5.391   1.641   2.349  0.1047 -0.2326  0.2651
 2560W        W 6611   4.433   1.077  12.376  0.2371  0.3179 -0.3330
 2561W        W 6612   3.880   0.290   3.691 -0.0492  0.2280 -0.1022
 2562W        W 6613   0.485   2.023  12.184 -0.1734  0.2865  0.2472
 2563W        W 6614  10.124   8.578  12.597 -0.1082 -0.0966 -0.2034
 2564W        W 6615   9.288   0.261  11.721  0.2199 -0.3153  0.3487
 2565W        W 6616  10.056   3.991  12.329  0.1770  0.0804  0.1309
 2566W        W 6617   9.890   2.832  13.834  0.0569 -0.3231 -0.3547
 2567W        W 6618   0.089   7.228   1.355 -0.0994 -0.3531 -0.1511
 2568W        W 6619   9.246   3.314   3.177 -0.0339  0.0463 -0.0785
 2569W        W 6620   5.448   8.307   1.707 -0.0829  0.1148  0.2745
 2570W        W 6621   4.396   6.760  11.100  0.3092 -0.0361  0.0111
 2571W        W 6622   8.700   4.188   9.546  0.0618  0.1205  0.0070
 2572W        W 6623   2.978   0.608  12.479 -0.0518  0.0274 -0.3951
 2573W        W 6624   0.564   9.101  10.460  0.1316 -0.3193 -0.1095
 2574W        W 6625   6.807   7.330   3.042  0.2671 -0.2341 -0.1113
 2575W        W 6626   6.587   8.032  11.636  0.0304 -0.1712 -0.0093
 2576W        W 6627   5.660   5.896   1.917 -0.0019  0.0924  0.3301
 2577W        W 6628   3.467   3.999   1.413  0.1897 -0.2249  0.1041
 2578W        W 6629   4.042   3.684   4.089  0.2598  0.0051  0.0522
 2579W        W 6630   9.219   1.458   1.275 -0.1323 -0.0283  0.1112
 2580W        W 6631   3.311   0.234  12.008 -0.2311 -0.4740 -0.0820
 2581W        W 6632   7.020   2.699   0.708  0.1655 -0.2504  0.1425
 2582W        W 6633   6.763   4.217  11.320 -0.3046  0.4315 -0.2382
 2583W        W 6634   7.136   7.916  10.301  0.1121  0.3028  0.0632
 2584W        W 6635   5.056   7.255  11.120 -0.0423 -0.1826  0.2228
 2585W        W 6636   9.363   2.824  11.114 -0.1039  0.0320 -0.2749
 2586W        W 6637   6.253   2.680  10.562  0.3677 -0.0981  0.2878
 2587W        W 6638   7.953   3.357   3.406 -0.1785  0.0604  0.0849
 2588W        W 6639   9.800   6.633   1.859 -0.0355 -0.1009  0.3180
 2589W        W 6640   0.488   4.301  12.359 -0.3040 -0.0128  0.1584
 2590W        W 6641   6.046   8.567   2.757 -0.0172 -0.1707 -0.1079
 2591W        W 6642   0.095   1.649  11.344 -0.2827  0.0852  0.3289
 2592W        W 6643   1.654   0.631  12.958 -0.1615  0.0084  0.0101
 2593W        W 6644   3.000   2.737   2.601  0.1526  0.0988 -0.0716
 2594W        W 6645   1.651   6.264  12.060  0.1905 -0.3091  0.0152
 2595W        W 6646   2.074   2.083  10.413 -0.4807  0.1108  0.1829
 2596W        W 6647   1.943   2.429   2.996 -0.0431 -0.0580  0.1245
 2597W        W 6648   7.988   9.740  10.144  0.0916  0.0112  0.3388
 2598W        W 6649   6.418   7.235  10.316  0.0383  0.1084 -0.0841
 2599W        W 6650   5.859   8.865  13.432 -0.1361 -0.1287 -0.1526
 2600W        W 6651  10.160   5.639  13.718 -0.0481 -0.4349 -0.0001
 2601W        W 6652   5.393   7.723   2.995  0.0772 -0.1700 -0.3069
 2602W        W 6653   4.722   2.671   4.339 -0.1997 -0.0072  0.1970
 2603W        W 6654   2.832   5.511   2.257 -0.1595 -0.3672  0.0476
 2604W        W 6655   4.228   9.158   0.934  0.1005  0.1688 -0.5269
 2605W        W 6656   1.470   8.487   0.524 -0.1116 -0.0016 -0.1593
 2606W        W 6657   8.452   7.768   3.401  0.0828 -0.1930 -0.1485
 2607W        W 6658   5.598   5.867   9.697  0.1129  0.1260 -0.2551
 2608W        W 6659   9.984   0.824   3.304 -0.4472  0.0891  0.0486
 2609W        W 6660   8.080   3.661   3.760  0.1065 -0.0405  0.0710
 2610W        W 6661   7.943   4.371   1.616  0.2961 -0.2833  0.0537
 2611W        W 6662   0.239   8.460   1.455 -0.1070 -0.4436 -0.0999
 2612W        W 6663   4.860   0.864  12.280  0.0065  0.3261 -0.2088
 2613W        W 6664   7.006   3.255   1.682  0.0059 -0.0608  0.0703
 2614W        W 6665   7.190   0.641  10.837  0.0345 -0.3760  0.3204
 2615W        W 6666   9.524   0.253   2.176  0.0515  0.0288  0.0061
 2616W        W 6667   3.976   0.527  12.863 -0.1076  0.1788  0.2779
 2617W        W 6668   0.020   1.543   0.951 -0.2448  0.0698  0.0319
 2618W        W 6669   1.155   5.126   0.022  0.2512  0.3310 -0.0325
 2619W        W 6670   0.997   1.421   9.211 -0.1871 -0.1113 -0.2201
 2620W        W 6671   2.079   8.418  12.590 -0.0068  0.0595 -0.0265
 2621W        W 6672   6.995   9.627  13.486 -0.4230 -0.1418  0.2277
 2622W        W 6673   8.052   7.721   9.615 -0.1857  0.1362  0.1372
 2623W        W 6674   1.744   3.606   2.924  0.1346 -0.2075  0.1773
 2624W        W 6675   6.786   0.907  12.371  0.1322  0.3110  0.1013
 2625W        W 6676   3.409   8.270   9.675  0.0234 -0.1469  0.0188
 2626W        W 6677   0.441   7.660  11.211 -0.1883  0.0394  0.0855
 2627W        W 6678   9.175   3.766   0.562 -0.0462  0.2080  0.0982
 2628W        W 6679   1.791   7.464   1.577 -0.5049 -0.2330 -0.2752
 2629W        W 6680   0.322   3.741  13.640 -0.4164 -0.0628 -0.0483
 2630W        W 6681   0.924   6.882   1.874  0.1486 -0.1825  0.2830
 2631W        W 6682   4.075   3.249   3.799  0.0758  0.0922 -0.1434
 2632W        W 6683   3.416   6.505  12.518  0.1883 -0.1167  0.0925
 2633W        W 6684   9.564   9.055   0.213  0.1722 -0.1342  0.0640
 2634W        W 6685   8.538   0.112   4.583  0.2055  0.2981 -0.0513
 2635W        W 6686   9.175   2.398   2.347 -0.0005 -0.1528  0.0418
 2636W        W 6687   4.870   1.434   9.520  0.0318  0.0621  0.3413
 2637W        W 6688   6.191   7.198   9.449  0.2399  0.0627 -0.0823
 2638W        W 6689   2.986   1.496  13.689 -0.0596 -0.2724  0.3450
 2639W        W 6690   5.675   3.810   3.871  0.1714 -0.1111  0.3660
 2640W        W 6691   8.052   9.820   8.508  0.0472  0.0945 -0.2078
 2641W        W 6692   1.339   8.590   9.056  0.2240 -0.1325  0.0614
 2642W        W 6693   0.315   2.516   1.175 -0.2237  0.1845 -0.1181
 2643W        W 6694   3.181   3.418   1.252 -0.3590  0.0987 -0.0183
 2644W        W 6695   3.441   2.120   0.871  0.2892  0.0286 -0.1736
 2645W        W 6696   3.341   9.642   1.466  0.2768 -0.1694 -0.0096
 2646W        W 6697   9.045   9.582   0.774 -0.0157 -0.1790 -0.1510
 2647W        W 6698   9.742   2.184   1.653  0.2158 -0.0688  0.0359
 2648W        W 6699   6.962   7.673  11.660 -0.0174  0.0850 -0.0317
 2649W        W 6700   5.687   1.521   9.895  0.0586  0.2281  0.1022
 2650W        W 6701   3.819   7.118   2.695  0.1542  0.0369  0.0321
 2651W        W 6702   8.263   5.119  13.216 -0.0094  0.1155 -0.1994
 2652W        W 6703   1.771   1.317  12.281 -0.0920 -0.1670  0.1311
 2653W        W 6704   7.889   4.558   2.890 -0.0696 -0.0417  0.1316
 2654W        W 6705   1.989   9.012  12.521 -0.3379 -0.1760 -0.2421
 2655W        W 6706   9.916   9.470  12.511  0.0080  0.1552 -0.3301
 2656W        W 6707   3.718   5.345  11.091 -0.0618  0.1568 -0.1103
 2657W        W 6708   9.619   1.932  13.298 -0.3197 -0.0357 -0.0164
 2658W        W 6709   1.596   4.852  11.109  0.0228  0.3016 -0.0353
 2659W        W 6710  10.026   3.514   9.852  0.0340 -0.0282  0.0041
 2660W        W 6711   5.444   1.206   2.770  0.4364  0.0052 -0.0929
 2661W        W 6712   0.773   2.428   1.672  0.5702  0.0180 -0.0408
 2662W        W 6713   0.717   9.350  12.728 -0.0415  0.1596 -0.0895
 2663W        W 6714   6.859   2.169   8.731  0.2460  0.1628 -0.1754
 2664W        W 6715   6.828   6.190  11.649 -0.2251  0.0937 -0.0539
 2665W        W 6716   5.997   9.972  11.009  0.2761 -0.2678  0.3260
 2666W        W 6717   9.294   3.428   9.904  0.0141  0.0948  0.1131
 2667W        W 6718   9.452   7.389  10.785 -0.0186 -0.1038  0.0773
 2668W        W 6719   5.550   2.176  11.470  0.1644  0.0346  0.0929
 2669W        W 6720   0.768   9.112   9.974 -0.2278  0.2028 -0.2034
 2670W        W 6721   0.024   7.501   1.870  0.2340  0.0243  0.2029
 2671W        W 6722   7.060   3.191   8.975 -0.1095  0.0100  0.0582
 2672W        W 6723   5.625   4.889   0.192  0.0339 -0.2524  0.1662
 2673W        W 6724   8.165   5.605  10.223  0.0786  0.2162  0.1107
 2674W        W 6725   6.457   2.727  12.033  0.1314 -0.2263 -0.1747
 2675W        W 6726   4.156   7.797   2.310  0.0667  0.1028 -0.1832
 2676W        W 6727   2.002   0.745   1.257 -0.0702 -0.1177  0.1511
 2677W        W 6728   1.645   6.685  13.165  0.0582 -0.2278 -0.0007
 2678W        W 6729   0.603   9.050  11.362  0.0063 -0.3009 -0.1740
 2679W        W 6730   5.960   0.570   0.518 -0.0375  0.1827 -0.1327
 2680W        W 6731   8.080   9.316   3.666  0.0607 -0.0554 -0.0307
 2681W        W 6732   7.434   5.159  10.485 -0.1314  0.0063  0.0691
 2682W        W 6733   9.142   1.978  10.798 -0.4067 -0.0645 -0.1864
 2683W        W 6734   5.406   2.874   9.835  0.1086 -0.3001  0.0327
 2684W        W 6735   7.663   6.630  10.469  0.0201  0.1510 -0.1555
 2685W        W 6736   9.753   0.373  11.870  0.1395 -0.1927  0.1061
 2686W        W 6737   4.901   3.628  13.111 -0.0492 -0.0481 -0.2120
 2687W        W 6738   4.812   1.978   2.841 -0.1050  0.1851 -0.1939
 2688W        W 6739   3.150   9.045  11.476 -0.4048 -0.0528  0.1455
 2689W        W 6740   8.211   8.815  11.822 -0.2411 -0.2182  0.0821
 2690W        W 6741   2.488   1.809   0.597 -0.0261 -0.1218  0.0072
 2691W        W 6742   6.478   9.664  11.090  0.1905 -0.0829 -0.2665
 2692W        W 6743   5.454   3.089   4.498 -0.1742  0.2359 -0.2366
 2693W        W 6744   3.973   1.397  13.017 -0.2394  0.0640  0.0364
 2694W        W 6745   8.047   4.137   3.536 -0.1149 -0.0538 -0.0926
 2695W        W 6746   9.508   7.459  10.183  0.1272  0.0220 -0.0571
 2696W        W 6747   7.005   0.580   1.355  0.1025  0.1129  0.1022
 2697W        W 6748   8.478   0.656   4.575 -0.3201  0.2069  0.0309
 2698W        W 6749   0.651   3.786   0.625  0.2671  0.0696  0.0220
 2699W        W 6750   3.175   2.884  10.480 -0.1589 -0.3423  0.0850
 2700W        W 6751   0.893   0.902   9.929  0.2401  0.3555  0.1315
 2701W        W 6752   7.872   8.299   4.750  0.1869 -0.0263  0.2250
 2702W        W 6753   1.452   6.154  10.361  0.0805 -0.1058 -0.1476
 2703W        W 6754   4.303   6.872   2.760 -0.0746 -0.0105 -0.3384
 2704W        W 6755   2.793   5.831   1.334  0.0300 -0.2058 -0.0424
 2705W        W 6756   9.881   9.566   1.645 -0.1955 -0.0532 -0.1422
 2706W        W 6757   0.748   3.786   2.916 -0.1944 -0.0465  0.0874
 2707W        W 6758   8.069   0.128  13.670  0.0784 -0.2488 -0.4423
 2708W        W 6759   9.804   6.995   4.550 -0.3302 -0.0373  0.0085
 2709W        W 6760   9.993   8.053   0.048 -0.3312 -0.0634  0.0105
 2710W        W 6761   9.469   5.528  12.988  0.1837 -0.0461 -0.3331
 2711W        W 6762   6.966   9.373   2.224  0.1779  0.1038 -0.4809
 2712W        W 6763   6.085   3.145   3.259  0.3519 -0.0361  0.1686
 2713W        W 6764   2.061   3.406   3.248 -0.3403 -0.0058  0.0068
 2714W        W 6765   8.441   7.716  10.046  0.3030 -0.0507  0.2534
 2715W        W 6766   6.514   6.657   1.253  0.0950 -0.1908 -0.1153
 2716W        W 6767   0.101   8.214   0.491  0.0243 -0.0180  0.0656
 2717W        W 6768   4.809   0.106   3.063 -0.0615 -0.0875  0.1822
 2718W        W 6769   6.967   8.244  11.020  0.0557 -0.4351  0.0076
 2719W        W 6770   8.854   1.378  12.364 -0.1462  0.1309 -0.2384
 2720W        W 6771   4.539   3.428  13.835  0.1553  0.0240  0.1760
 2721W        W 6772   7.909   0.339   1.260  0.0879  0.2549 -0.0336
 2722W        W 6773   2.466   9.834   0.334 -0.0818 -0.1304 -0.1320
 2723W        W 6774   1.400   8.004  10.828 -0.0553 -0.5136  0.2166
 2724W        W 6775   6.520   3.040   0.924  0.1837  0.0794 -0.2035
 2725W        W 6776   0.825   3.133  13.163  0.0998 -0.0644 -0.1394
 2726W        W 6777   4.125   7.567  12.132 -0.1474  0.2634 -0.1450
 2727W        W 6778   7.699   6.150  10.271  0.2877 -0.2450  0.0627
 2728W        W 6779   8.583   6.300   2.813  0.1992  0.2728  0.1505
 2729W        W 6780   0.807   6.810   3.433 -0.0242 -0.0436 -0.1756
 2730W        W 6781   2.513   7.502   3.331 -0.1022  0.4108  0.0994
 2731W        W 6782  10.062   6.622   2.318 -0.1030  0.0764 -0.0693
 2732W        W 6783   6.827   1.300  11.530  0.1286  0.1655 -0.1001
 2733W        W 6784   5.832   8.370   3.452 -0.2513 -0.0650 -0.0104
 2734W        W 6785   3.642   4.125  13.306 -0.1704 -0.0605  0.3375
 2735W        W 6786   5.489   0.841   0.467 -0.0408 -0.0391  0.0112
 2736W        W 6787   9.221   3.376  12.512  0.0659  0.0431 -0.1716
 2737W        W 6788   3.309   7.573   9.984 -0.1172 -0.0038  0.1329
 2738W        W 6789   7.632   1.591  10.032 -0.1051  0.0573  0.0479
 2739W        W 6790   4.400   9.982   3.139 -0.1847  0.1255 -0.0733
 2740W        W 6791   4.170  10.108  10.359 -0.0363  0.1295 -0.0530
 2741W        W 6792   0.780   1.634  13.029 -0.0538 -0.1814 -0.0879
 2742W        W 6793   5.331   8.584   8.416  0.6606  0.2288 -0.2198
 2743W        W 6794   2.219   2.837   3.808  0.3127  0.0758  0.1736
 2744W        W 6795   7.840   1.800   2.622 -0.0716  0.3774 -0.3017
 2745W        W 6796   1.924  10.177  12.149  0.0472 -0.2138  0.1921
 2746W        W 6797   4.822   7.300  10.672  0.1004 -0.1578  0.0682
 2747W        W 6798   2.290   8.624   4.047  0.0068  0.0990  0.0444
 2748W        W 6799   2.816   4.658   2.553 -0.1979 -0.0543  0.2177
 2749W        W 6800   9.465   6.895   1.124 -0.1460  0.0285 -0.0568
 2750W        W 6801   5.068   1.385  11.403  0.3757  0.2506  0.2017
 2751W        W 6802   9.601  10.110  11.989 -0.1535 -0.0231  0.0475
 2752W        W 6803   9.619   0.312   4.190  0.0440  0.1444  0.1109
 2753W        W 6804   6.396   0.705   9.524  0.4222  0.2497 -0.4472
 2754W        W 6805   9.511   8.684   0.585 -0.1682  0.1671 -0.0321
 2755W        W 6806   3.369   2.157  11.665 -0.1394 -0.3229  0.0400
 2756W        W 6807   5.336   5.092   1.757  0.0470  0.2024  0.1115
 2757W        W 6808   4.645   9.146  10.069  0.1025 -0.0729 -0.0450
 2758W        W 6809   7.938   6.148   9.046  0.3107 -0.4546 -0.3157
 2759W        W 6810   7.894   9.254  10.412  0.0656 -0.1995 -0.0222
 2760W        W 6811   2.481   9.028  10.296  0.0557  0.0507  0.0238
 2761W        W 6812   3.717   6.741   1.717  0.2131  0.3153  0.1239
 2762W        W 6813   7.283   3.397  11.241  0.1622 -0.2621  0.1509
 2763W        W 6814   9.771   8.733   2.290  0.2868  0.1628 -0.2247
 2764W        W 6815   7.829   2.381   0.217  0.1684  0.1750  0.0361
 2765W        W 6816   4.800   0.976   0.774 -0.2387  0.3846 -0.3494
 2766W        W 6817   2.585   5.551   0.643 -0.1177 -0.2430 -0.1676
 2767W        W 6818   9.579   3.941   2.484  0.3115  0.0591  0.3986
 2768W        W 6819   8.453   5.436  12.778  0.0179  0.0286 -0.0080
 2769W        W 6820   7.161   5.009   8.892  0.1972  0.0698 -0.3745
 2770W        W 6821  10.037   9.612   2.083  0.0682  0.3177  0.3855
 2771W        W 6822   0.338   5.984   0.499  0.0504 -0.3370 -0.0274
 2772W        W 6823   4.678   3.226   2.269 -0.3362 -0.1005  0.1808
 2773W        W 6824   7.188   6.124   0.467 -0.0839  0.1764 -0.0138
 2774W        W 6825   5.482   9.823   5.655 -0.1846 -0.1318 -0.1469
 2775W        W 6826   6.944   0.420  10.194 -0.0364 -0.0277  0.0453
 2776W        W 6827   0.748   5.186   1.902  0.1590 -0.0748 -0.0415
 2777W        W 6828   7.617   1.059   2.112 -0.0153  0.2144  0.0745
 2778W        W 6829   5.721   5.718  12.910  0.0709 -0.1145 -0.1025
 2779W        W 6830   0.043   3.660   3.227 -0.0309 -0.0530 -0.0813
 2780W        W 6831   5.651   1.027   3.314 -0.1442 -0.2655  0.1903
 2781W        W 6832   2.418   1.226   3.881 -0.0849 -0.1669  0.0900
 2782W        W 6833   0.673   8.942   1.635 -0.1014 -0.0067 -0.0004
 2783W        W 6834   5.663  10.072  13.296 -0.0133  0.1630 -0.1769
 2784W        W 6835   9.757   3.802   3.292  0.0591  0.2050  0.0020
 2785W        W 6836   8.321   1.020  13.747  0.0825 -0.1200 -0.2406
 2786W        W 6837   7.343   4.563  10.745 -0.0219 -0.1108  0.2756
 2787W        W 6838   5.122   4.952   0.179 -0.1553  0.1684  0.2252
 2788W        W 6839   6.084   3.813  11.856  0.5027 -0.2165 -0.1641
 2789W        W 6840   0.302   7.425  10.384 -0.2971  0.2598  0.2598
 2790W        W 6841  10.050   2.345  12.645 -0.1417  0.1501 -0.1970
 2791W        W 6842   2.709   3.665   2.672 -0.2347 -0.1029 -0.1600
 2792W        W 6843   7.711   6.066   1.938  0.1892 -0.0303 -0.3926
 2793W        W 6844   6.218   1.440   4.079  0.1275  0.0493 -0.4057
 2794W        W 6845   3.011   4.958   0.660  0.1048  0.2605 -0.0923
 2795W        W 6846   3.891   4.974   0.094 -0.5877  0.0534 -0.0295
 2796W        W 6847   9.270   5.478   0.252  0.1066 -0.3523  0.2798
 2797W        W 6848   0.330   4.200   3.800 -0.1740 -0.1268  0.0981
 2798W        W 6849   3.662   9.799  13.540 -0.0462  0.0821 -0.1028
 2799W        W 6850   3.568   7.313   3.232  0.0302  0.4471  0.2924
 2800W        W 6851   7.209   1.150   3.782  0.1854  0.2140 -0.0804
 2801W        W 6852   4.657   1.258   0.371  0.0466 -0.1648  0.1988
 2802W        W 6853   5.708   1.268  10.785 -0.0663 -0.1215 -0.0766
 2803W        W 6854   2.822   7.566   2.646 -0.0212  0.1918  0.0014
 2804W        W 6855   4.713   8.899   5.532  0.0667  0.1159  0.1776
 2805W        W 6856   2.157  10.048   2.545 -0.0117  0.3476 -0.0591
 2806W        W 6857   0.932   4.901   3.670  0.1264 -0.0695  0.1020
 2807W        W 6858   6.673   0.437   2.364 -0.1445  0.0001  0.2442
 2808W        W 6859   1.180   8.259  11.194 -0.0301 -0.1212  0.0652
 2809W        W 6860   7.494   3.729  11.669 -0.0797  0.0315  0.1087
 2810W        W 6861   0.345   9.149  13.937  0.0756  0.0832  0.1421
 2811W        W 6862   3.700   2.909  10.654  0.0748 -0.2671 -0.0409
 2812W        W 6863   2.220   0.414  12.014  0.0239  0.2562 -0.2834
 2813W        W 6864   3.232   5.775  11.483  0.0147  0.0487  0.0263
 2814W        W 6865   3.815   2.415   9.979 -0.2813  0.0439 -0.0106
 2815W        W 6866   7.795   0.291  10.000 -0.1600  0.1259 -0.2376
 2816W        W 6867   7.738   4.390   3.835 -0.0119  0.3425  0.5085
 2817W        W 6868   9.604   8.846   1.322 -0.1806 -0.2361 -0.0767
 2818W        W 6869   0.083   4.260   1.930  0.1738  0.0989 -0.1631
 2819W        W 6870   0.874   0.562  13.949 -0.1169  0.2227 -0.1548
 2820W        W 6871   8.495   6.855   0.923  0.1036 -0.2897 -0.0459
 2821W        W 6872   7.948   6.930  12.906 -0.3546 -0.2036 -0.0293
 2822W        W 6873   6.431   3.922   3.551  0.0521 -0.0349  0.1445
 2823W        W 6874   5.160   5.719   4.843  0.0674 -0.3553 -0.1831
 2824W        W 6875   8.238   4.867   0.577  0.0072  0.0673  0.0117
 2825W        W 6876   7.338   8.016   0.642  0.1436 -0.1577  0.1068
 2826W        W 6877   3.961   2.317   3.463 -0.1103 -0.1888 -0.1414
 2827W        W 6878   7.545   9.982   9.265  0.1303 -0.1557 -0.1101
 2828W        W 6879   4.820   8.606   4.527  0.0458 -0.0427 -0.2576
 2829W        W 6880   5.851   5.756  11.940 -0.0947  0.1905  0.0603
 2830W        W 6881   6.233   1.317  10.694  0.3455  0.2996  0.1542
 2831W        W 6882   6.417   3.976   4.279  0.3233  0.1228  0.0157
 2832W        W 6883   7.611   5.289   1.432  0.1658 -0.0403  0.2210
 2833W        W 6884   6.300   1.412   0.221  0.0942 -0.3094  0.0504
 2834W        W 6885   4.907   7.915  10.838 -0.2197  0.1525 -0.1189
 2835W        W 6886   9.897   9.621  10.578  0.0908 -0.0859 -0.0851
 2836W        W 6887   7.540   5.922   4.355  0.1607  0.0352 -0.1658
 2837W        W 6888   4.921   9.583   9.451 -0.0588 -0.2155 -0.1461
 2838W        W 6889   2.595   8.050   2.503 -0.0317 -0.0885  0.0715
 2839W        W 6890   9.767   8.062   3.602  0.0312  0.3502  0.2499
 2840W        W 6891   0.072   1.854  12.458  0.1799 -0.3820  0.0606
 2841W        W 6892   0.083   9.634   0.188 -0.0715  0.1334 -0.2325
 2842W        W 6893   2.218   4.535  13.304 -0.1590 -0.0863  0.0281
 2843W        W 6894   3.627  10.097   1.287 -0.2649  0.0777 -0.4084
 2844W        W 6895   9.687   6.408   2.759 -0.0397  0.2707  0.0067
 2845W        W 6896   3.818   6.070   1.891  0.2724  0.0466 -0.1221
 2846W        W 6897   1.626   8.956   4.803 -0.3455  0.0691 -0.0243
 2847W        W 6898   8.770   9.878   9.590  0.0793  0.2082 -0.2415
 2848W        W 6899   7.695   2.436  11.270  0.0968  0.0895 -0.2780
 2849W        W 6900   9.905   2.746  12.889  0.1428  0.0063  0.1163
 2850W        W 6901   4.147   0.340   0.339  0.1408 -0.2500  0.0256
 2851W        W 6902   6.765   2.894   1.404  0.2001  0.0273  0.4661
 2852W        W 6903   2.732   1.655  11.915 -0.1664 -0.1983 -0.2183
 2853W        W 6904   5.741   2.818   3.543 -0.3495  0.0110  0.0951
 2854W        W 6905   7.238   2.591   1.644 -0.1351 -0.0117  0.1789
 2855W        W 6906   2.154   8.919  11.266 -0.0334 -0.0924 -0.2489
 2856W        W 6907   1.602   4.406   2.009  0.1610 -0.0472  0.2813
 2857W        W 6908   2.950   6.909   3.887 -0.1095  0.0815  0.0525
 2858W        W 6909   5.582   6.666  10.544  0.1545 -0.0915  0.0246
 2859W        W 6910   6.595   5.247   9.938  0.1969 -0.0603 -0.3407
 2860W        W 6911   8.623   8.187   0.109 -0.0422 -0.2670  0.1868
 2861W        W 6912   2.660   3.335   4.044  0.1041  0.0325 -0.3701
 2862W        W 6913   4.614   6.889  13.781  0.1553 -0.3567 -0.1051
 2863W        W 6914   5.402   2.850   1.769  0.0448  0.3523  0.3303
 2864W        W 6915   8.136   1.886  12.400 -0.2678  0.0050 -0.1089
 2865W        W 6916   3.796   8.119   3.570  0.4571 -0.0370  0.2465
 2866W        W 6917   3.320  10.063   0.448 -0.1061 -0.1688 -0.1170
 2867W        W 6918   5.074   5.220   2.210 -0.2536  0.0522  0.0157
 2868W        W 6919   6.629   1.150   4.728 -0.0836  0.1190 -0.1133
 2869W        W 6920   6.345   7.581   9.152  0.0284 -0.1834 -0.0271
 2870W        W 6921   5.926   0.195  11.280 -0.0976 -0.1794  0.0841
 2871W        W 6922   5.556   2.921   5.035 -0.1349 -0.1205  0.0553
 2872W        W 6923   0.520   9.783  12.890  0.2782 -0.1330 -0.0443
 2873W        W 6924   2.210   1.762   0.048 -0.1327  0.0386  0.0534
 2874W        W 6925   8.516   8.133   1.927  0.1470  0.3118  0.2199
 2875W        W 6926   6.186   9.866  13.110 -0.0513 -0.1964 -0.3536
 2876W        W 6927   6.481   8.986   1.595 -0.0131 -0.0336 -0.1079
 2877W        W 6928   2.913   5.037  10.798  0.0872 -0.1333 -0.0393
 2878W        W 6929   4.417   0.574  11.053  0.4030 -0.2349  0.0373
 2879W        W 6930   7.650   3.382   9.723  0.0230  0.0193  0.4066
 2880W        W 6931   6.761   1.693   1.957  0.1069  0.0286  0.1086
 2881W        W 6932   7.028   0.323   3.257  0.0149  0.1498  0.2090
 2882W        W 6933   2.300   5.707  11.529 -0.0565  0.0062 -0.1854
 2883W        W 6934   5.609   8.136  12.485  0.0945  0.2034  0.1146
 2884W        W 6935   8.429   0.935  10.170  0.1070 -0.0341  0.1169
 2885W        W 6936   3.722   6.032  11.334 -0.1442 -0.1872  0.0916
 2886W        W 6937   6.909   5.373  11.508 -0.3383  0.0436  0.3520
 2887W        W 6938   2.551   8.104   1.996  0.1210  0.0300 -0.0757
 2888W        W 6939   2.785   3.813   1.470  0.0150 -0.2883 -0.1050
 2889W        W 6940   3.655   7.602  10.305 -0.1556  0.1402  0.2017
 2890W        W 6941   3.852   8.767   1.914 -0.0418  0.2119  0.1420
 2891W        W 6942   8.956   9.090  11.696  0.5394 -0.0922  0.0506
 2892W        W 6943   0.724   6.950   3.927  0.1568 -0.0672  0.1100
 2893W        W 6944   9.972   1.833   4.125 -0.0133  0.1515  0.0842
 2894W        W 6945   7.518   4.095   0.511  0.3238 -0.1602 -0.0116
 2895W        W 6946   4.346   2.219  10.626 -0.1233 -0.3343 -0.1999
 2896W        W 6947   4.866   3.830   2.372 -0.2321 -0.0499  0.1450
 2897W        W 6948   6.433   7.004   1.751  0.1478 -0.2930 -0.1879
 2898W        W 6949   9.503   6.035   0.189  0.1036  0.2624  0.1982
 2899W        W 6950   9.575   0.103   0.010  0.0369  0.1346 -0.0532
 2900W        W 6951   7.890   4.041  11.990 -0.1389 -0.0880 -0.0309
 2901W        W 6952   9.556   1.174  11.023 -0.3753  0.0066 -0.0644
 2902W        W 6953   5.236   1.183   8.900  0.1094 -0.1373 -0.2076
 2903W        W 6954   9.227   1.368  13.782  0.1029 -0.1825 -0.2665
 2904W        W 6955   0.409   6.060  10.387 -0.1636  0.1279  0.1999
 2905W        W 6956   0.664   7.630   2.326 -0.1510  0.2606  0.1450
 2906W        W 6957   0.892   8.596   9.813  0.0821 -0.2598  0.0669
 2907W        W 6958   6.121   4.812  11.975 -0.2496  0.2687 -0.1752
 2908W        W 6959   2.482   0.096  10.680  0.0453 -0.0724 -0.0175
 2909W        W 6960   5.899   9.166  13.959  0.0104 -0.0353 -0.0838
 2910W        W 6961   8.486   7.270   2.522  0.1557 -0.1636 -0.1270
 2911W        W 6962   5.311   0.188   3.829 -0.1782 -0.0127  0.0260
 2912W        W 6963   5.130   1.407   4.116  0.0934  0.3018 -0.2062
 2913W        W 6964   7.728   2.814  13.475  0.0176 -0.0490 -0.1639
 2914W        W 6965   5.568   9.502  10.687  0.1664 -0.3313 -0.0709
 2915W        W 6966   9.754   5.674  13.478 -0.0830  0.2203  0.0823
 2916W        W 6967   5.176   7.466   4.486  0.2242  0.1261  0.0205
 2917W        W 6968  10.175   5.048   1.470  0.0465 -0.3330 -0.0016
 2918W        W 6969   6.845   1.405   0.256  0.0754 -0.1950  0.2270
 2919W        W 6970   5.053   4.992  10.614 -0.0348  0.1790  0.0013
 2920W        W 6971   6.337  10.061  10.086  0.1392 -0.2098  0.0374
 2921W        W 6972   4.200   8.898   9.620  0.2900  0.1616  0.2917
 2922W        W 6973   4.016   9.420   3.749  0.0185 -0.1845 -0.0833
 2923W        W 6974   1.639   1.337   9.738 -0.2281  0.3185 -0.0006
 2924W        W 6975   0.738   0.670   3.439 -0.0173  0.4580  0.2429
 2925W        W 6976   5.858   6.518  10.017 -0.1435 -0.1653  0.0328
 2926W        W 6977   0.945   1.744  10.541 -0.2785  0.0324 -0.1160
 2927W        W 6978   9.756  10.038  11.095 -0.1043 -0.1296  0.1342
 2928W        W 6979   0.450   5.083   3.640 -0.2166  0.2934 -0.3994
 2929W        W 6980   0.471   6.542   4.205  0.0997 -0.4449  0.2284
 2930W        W 6981   6.698   5.534  13.765 -0.3837 -0.0043 -0.2970
 2931W        W 6982   2.411   3.402   1.661 -0.0138  0.0168 -0.0651
 2932W        W 6983   6.503   4.897   1.605 -0.0145  0.0990  0.2245
 2933W        W 6984  10.149   0.890   1.765  0.1822 -0.0001 -0.1836
 2934W        W 6985   0.987   2.045  12.335 -0.2887 -0.1487 -0.2471
 2935W        W 6986   6.222   8.482   4.179 -0.1061 -0.2044 -0.1252
 2936W        W 6987   5.740   0.842   4.458  0.2302 -0.1291  0.1266
 2937W        W 6988   7.132   1.551   4.104 -0.2062  0.1986 -0.0707
 2938W        W 6989   9.281   8.301   3.729 -0.3014 -0.0513  0.2023
 2939W        W 6990   1.302   7.808   2.734  0.0901  0.0570  0.1320
 2940W        W 6991   6.238   7.064  10.761 -0.1176  0.1167 -0.0053
 2941W        W 6992   4.492   1.502   4.952 -0.0805  0.3208 -0.0594
 2942W        W 6993   8.936   1.487  10.145 -0.1064 -0.0625  0.0735
 2943W        W 6994   9.271   6.116   3.681 -0.1964 -0.3098  0.2416
 2944W        W 6995   3.901   8.570   3.397 -0.1948 -0.0195 -0.1558
 2945W        W 6996   9.736   8.914   3.158  0.0210 -0.4726 -0.0390
 2946W        W 6997   4.096   7.993   9.478 -0.0047  0.0246 -0.1659
 2947W        W 6998   1.894   9.788  13.517 -0.1190  0.1811 -0.1135
 2948W        W 6999   5.700   2.953   4.049 -0.1268  0.1028  0.1186
 2949W        W 7000   7.683   8.472   3.617 -0.1113 -0.1975  0.0368
 2950W        W 7001   5.293   2.074   3.666 -0.1310  0.1541  0.4371
 2951W        W 7002   8.744   2.333  12.751  0.2471 -0.3178  0.5956
 2952W        W 7003   0.550   7.473  13.053 -0.2274 -0.0043  0.5047
 2953W        W 7004   3.001   0.515   0.686  0.1096 -0.2397 -0.0216
 2954W        W 7005   5.663   0.555  10.341 -0.1704 -0.4344 -0.0661
 2955W        W 7006   6.832   8.712  10.963  0.4506  0.1962 -0.1335
 2956W        W 7007   8.975   4.309  12.228  0.0851  0.0537  0.0900
 2957W        W 7008   9.453   0.377   3.656  0.1451 -0.2736  0.0356
 2958W        W 7009   7.002   9.075   4.080  0.2244 -0.1939  0.0599
 2959W        W 7010   5.558   0.798   9.961  0.0613 -0.0394  0.0140
 2960W        W 7011   2.995   4.059  13.439 -0.0044 -0.1950  0.2020
 2961W        W 7012  10.140   1.389   3.503  0.1879  0.3035  0.1897
 2962W        W 7013   9.693   9.035   4.071 -0.3736  0.4149 -0.2886
 2963W        W 7014   0.271   8.091  11.567 -0.2354  0.0157 -0.0277
 2964W        W 7015   6.307   9.439   0.400  0.1244 -0.1317 -0.2761
 2965W        W 7016   7.119   9.639   9.242  0.3454 -0.2621 -0.3815
 2966W        W 7017   6.480   0.926  11.443  0.0034  0.2497 -0.0966
 2967W        W 7018   8.606   7.365  13.124  0.1042 -0.2273 -0.0337
 2968W        W 7019   8.262   5.864  12.909  0.2073 -0.0217  0.0430
 2969W        W 7020   5.189   2.910   9.341 -0.2456 -0.1585  0.1016
 2970W        W 7021   0.166   6.566  12.599 -0.0448  0.3718 -0.4275
 2971W        W 7022   8.703   4.433  10.552  0.0927  0.0024  0.0874
 2972W        W 7023   0.784   9.743  12.442 -0.3251  0.2353 -0.0954
 2973W        W 7024   6.499   6.801   9.284  0.0070 -0.1179  0.1606
 2974W        W 7025   0.041   2.412   2.217  0.0956 -0.0111  0.2606
 2975W        W 7026   1.618   9.355   9.163  0.0270 -0.1586 -0.3962
 2976W        W 7027   1.100   7.411   0.914  0.1694 -0.0184  0.1018
 2977W        W 7028   4.235   0.327   1.280  0.1221  0.1925  0.1957
 2978W        W 7029   6.124   9.454  10.747  0.0924 -0.2474  0.3518
 2979W        W 7030   4.973   1.086   3.744 -0.3504  0.0452 -0.0297
 2980W        W 7031   3.032   4.068   1.919  0.0950 -0.2887  0.2042
 2981W        W 7032   6.819   3.265   0.545  0.1505 -0.1024  0.2185
 2982W        W 7033   4.747   8.790   0.967  0.2865 -0.0849  0.0551
 2983W        W 7034   0.190   6.869   3.936  0.2281 -0.1832  0.0940
 2984W        W 7035   1.350   7.191  12.401  0.1424  0.2611 -0.0279
 2985W        W 7036   7.509   0.269  11.012  0.0036 -0.0310  0.1277
 2986W        W 7037   5.536   8.238   4.816 -0.0982 -0.1043  0.0338
 2987W        W 7038   9.653   9.339  13.001  0.1178  0.1285  0.0377
 2988W        W 7039   6.438   6.425   4.157  0.1397  0.0403 -0.0892
 2989W        W 7040   8.188   4.581  10.570 -0.0782  0.3695 -0.1469
 2990W        W 7041   9.183   2.664  13.842 -0.1786 -0.0436 -0.1513
 2991W        W 7042   5.204   0.302   3.338 -0.0590 -0.0455  0.3389
 2992W        W 7043   1.718   6.203  13.265 -0.1837 -0.1926  0.0523
 2993W        W 7044   2.137   1.611   9.131 -0.1126 -0.2023  0.0725
 2994W        W 7045   7.423   7.231   3.907 -0.0360  0.1151 -0.0908
 2995W        W 7046   0.259   2.304  10.507  0.2831  0.2786  0.1338
 2996W        W 7047   2.660   6.242   3.373  0.2023  0.0311  0.3297
 2997W        W 7048   7.060   6.673   1.029  0.0304  0.0436  0.1899
 2998W        W 7049   6.806   1.186   1.502 -0.3780  0.3059  0.0095
 2999W        W 7050   6.676   5.829   0.231  0.2684  0.2108 -0.2397
 3000W        W 7051   1.441   9.400   2.636 -0.1248  0.2416  0.3071
 3001W        W 7052   1.169   0.441   4.250 -0.1473  0.2374 -0.1236
 3002W        W 7053   9.980   9.609   2.665  0.1759  0.1671  0.0107
 3003W        W 7054   9.850   1.148  12.345 -0.0373 -0.0803  0.1743
 3004W        W 7055   5.495   9.061   9.990  0.2072 -0.0129 -0.0724
 3005W        W 7056   0.532   3.289   3.988  0.0276 -0.0403 -0.0822
 3006W        W 7057   0.362   1.599   3.227 -0.3530 -0.0508  0.2037
 3007W        W 7058   8.995   9.831  10.412 -0.0742  0.0081 -0.0524
 3008W        W 7059   9.655   2.154  10.217  0.0828 -0.0902  0.2671
 3009W        W 7060   7.593   9.431   9.439 -0.2260 -0.4609 -0.1768
 3010W        W 7061   2.548   2.594   3.463 -0.4074 -0.0196 -0.3209
 3011W        W 7062   2.706   2.752  12.903  0.0030  0.2073 -0.0194
 3012W        W 7063   6.423   9.029   1.091 -0.0065 -0.1984 -0.1602
 3013W        W 7064   6.714   7.400  12.055 -0.2350 -0.3088 -0.0096
 3014W        W 7065   7.118   5.773   4.636  0.0413  0.2752 -0.1276
 3015W        W 7066   4.650   0.518  13.961  0.1562  0.1505  0.0531
 3016W        W 7067   0.586   6.059   2.068 -0.0463 -0.3090 -0.1344
 3017W        W 7068   1.674   6.810  12.128 -0.0224 -0.1661 -0.1347
 3018W        W 7069   0.293   6.932  10.397 -0.0188 -0.2016  0.0202
 3019W        W 7070   6.865   9.580   1.000  0.0164  0.0361  0.2378
 3020W        W 7071   5.872   3.693   0.650 -0.3563  0.0210 -0.0414
 3021W        W 7072   8.611   1.351   4.004  0.1350 -0.0580  0.0770
 3022W        W 7073   4.106   7.583   4.163 -0.4266  0.1479 -0.1529
 3023W        W 7074   9.420   1.253   1.892 -0.1468 -0.0874  0.2573
 3024W        W 7075   6.171   5.913   3.648  0.0694  0.1461 -0.0320
 3025W        W 7076   6.931   5.807  10.799 -0.2522 -0.0946 -0.0452
 3026W        W 7077   6.060   5.994   1.590 -0.2530 -0.1300  0.0618
 3027W        W 7078   9.680   3.626  11.391  0.2156 -0.1276 -0.0403
 3028W        W 7079   7.644  10.080  10.297 -0.0537  0.1291  0.3033
 3029W        W 7080   2.913   1.486   3.168  0.0800 -0.0898  0.0735
 3030W        W 7081   6.791   9.642   5.371 -0.0993 -0.1922  0.1023
 3031W        W 7082   5.034   0.876   1.244 -0.2392  0.1181 -0.2174
 3032W        W 7083   1.870   7.354  13.010  0.2118 -0.1218  0.0701
 3033W        W 7084   7.210   9.620   9.737 -0.2785 -0.0931  0.0829
 3034W        W 7085   9.902   9.251  11.686  0.0704  0.1363 -0.2772
 3035W        W 7086   5.135   4.466   0.893  0.2425  0.0149  0.0644
 3036W        W 7087   2.471   1.761   2.804 -0.1233 -0.0381 -0.0842
 3037W        W 7088   3.541   8.033  10.173 -0.0994 -0.0200 -0.1284
 3038W        W 7089   9.999   7.729   4.892 -0.1745 -0.2784  0.0528
 3039W        W 7090   6.070   8.922  10.524  0.1280 -0.0247  0.0172
 3040W        W 7091   6.895  10.167   5.614  0.0693 -0.0357  0.1747
 3041W        W 7092   9.528   9.023   2.670  0.1359  0.2331  0.1230
 3042W        W 7093   7.380   9.184  11.622  0.3584  0.0341 -0.1732
 3043W        W 7094   9.620   0.860  13.223 -0.0471 -0.3723 -0.0571
 3044W        W 7095   7.453   1.899   9.605 -0.0885 -0.1967  0.0528
 3045W        W 7096   8.501   2.599   4.444 -0.0875 -0.2711 -0.0909
 3046W        W 7097   0.506   8.072  13.137  0.0239  0.2487  0.1195
 3047W        W 7098   0.107   1.602   4.540  0.2855  0.2705 -0.0955
 3048W        W 7099   8.206   6.167   5.540  0.1881  0.1540  0.1462
 3049W        W 7100   0.909   4.166   0.213  0.0738 -0.2026  0.2142
 3050W        W 7101  10.184   5.396   0.238  0.3039  0.3477 -0.0810
 3051W        W 7102   9.543   7.510   9.672  0.0570  0.0228  0.1516
 3052W        W 7103   2.380   1.549   0.969 -0.0899 -0.0642 -0.0219
 3053W        W 7104   9.566   9.537  10.002 -0.0832  0.0925 -0.0870
 3054W        W 7105   9.591   5.361  12.090  0.3116 -0.0742 -0.0070
 3055W        W 7106   9.020   4.343  11.676  0.1363 -0.0380  0.2633
 3056W        W 7107   4.458   3.592   3.782 -0.2506  0.2209 -0.0519
 3057W        W 7108   2.576   4.907  10.463  0.3335 -0.2376  0.0569
 3058W        W 7109   5.477   6.158   5.025 -0.0317  0.0010 -0.0804
 3059W        W 7110   6.938   5.853   9.446  0.2774  0.2428 -0.1920
 3060W        W 7111   2.844   8.562  11.650 -0.1423 -0.1496  0.3568
 3061W        W 7112   2.332   9.391  12.186 -0.0496 -0.0581  0.2204
 3062W        W 7113   2.275   2.818  10.487 -0.0579 -0.2994  0.1271
 3063W        W 7114   7.382   3.545  13.675  0.0266 -0.2228  0.1836
 3064W        W 7115   3.245   1.840  12.502  0.2699 -0.1431 -0.1995
 3065W        W 7116   4.994   3.580   3.667  0.0023  0.2554  0.1105
 3066W        W 7117   4.903   7.817   3.693  0.2431  0.0174 -0.1499
 3067W        W 7118   2.210   7.204   1.948 -0.1402  0.2322 -0.0085
 3068W        W 7119   9.171   8.277   1.959 -0.0830  0.0335 -0.2154
 3069W        W 7120   0.974   6.514   3.838  0.1703 -0.0135  0.1969
 3070W        W 7121   3.847   4.945  13.394 -0.0637  0.1322 -0.0543
 3071W        W 7122   2.091   7.263   3.250 -0.1097  0.0212 -0.4451
 3072W        W 7123   5.601   2.603   2.187  0.0549  0.0204  0.0044
 3073W        W 7124   9.499   0.830  12.374 -0.0622 -0.1405  0.0325
 3074W        W 7125   4.029   9.252   1.917 -0.0500 -0.1200  0.4182
 3075W        W 7126   9.092  10.144  12.077 -0.1096  0.3299  0.1031
 3076W        W 7127   5.716   3.418  13.524 -0.3457  0.1754  0.1455
 3077W        W 7128   0.594   5.738  10.698 -0.0265  0.0133 -0.1307
 3078W        W 7129   2.211   7.180  11.112  0.2556  0.1184  0.0455
 3079W        W 7130   1.983   3.847   1.645 -0.3623  0.3818  0.3364
 3080W        W 7131   2.345   7.612   4.851  0.1172  0.0447 -0.0445
 3081W        W 7132   6.793   1.680   9.456 -0.4401 -0.0929 -0.0386
 3082W        W 7133   0.355   2.445  11.045  0.2631 -0.1878  0.1508
 3083W        W 7134   3.557   3.263  13.161  0.0337 -0.1394 -0.0761
 3084W        W 7135   5.495   1.669   1.867  0.4969 -0.1194 -0.1142
 3085W        W 7136   9.772   0.365   1.038 -0.2992 -0.2118 -0.2418
 3086W        W 7137   8.247   4.928   2.039  0.3619 -0.0343 -0.2580
 3087W        W 7138   8.662   1.201   0.136 -0.1546 -0.3072 -0.2840
 3088W        W 7139   9.220   4.491   9.502 -0.0519 -0.2985  0.1361
 3089W        W 7140   0.874   5.271  12.611 -0.5454 -0.1232  0.1455
 3090W        W 7141   2.413   1.407  13.660  0.1426 -0.0716 -0.1999
 3091W        W 7142   9.913   0.145  10.032  0.0525  0.0860 -0.2334
 3092W        W 7143   3.758   0.891   9.032  0.0482 -0.1140  0.2514
 3093W        W 7144   5.598   5.930  11.519  0.3415 -0.1608 -0.1159
 3094W        W 7145   9.291   8.609   2.419 -0.0734 -0.0891  0.1817
 3095W        W 7146   9.409   9.299   1.128  0.1810 -0.0842  0.3299
 3096W        W 7147   8.116   6.040   9.899 -0.0159  0.1262  0.0193
 3097W        W 7148   9.823   0.007  10.650  0.1477 -0.2554  0.1183
 3098W        W 7149   1.850   9.305   8.737 -0.0288 -0.3934  0.2465
 3099W        W 7150   5.125   3.448  12.692 -0.1693  0.3780 -0.3402
 3100W        W 7151   6.411   3.915  10.260  0.0879 -0.0880 -0.2233
 3101W        W 7152   3.007   7.119  12.286 -0.3510  0.2479 -0.0431
 3102W        W 7153   3.988   4.447  12.492  0.2009 -0.0112  0.1992
 3103W        W 7154   7.695   1.207  10.338 -0.1087 -0.0988  0.0931
 3104W        W 7155   2.993   6.516  11.535  0.0497 -0.0457  0.2883
 3105W        W 7156   7.115   9.108  12.098  0.4275  0.0169  0.0431
 3106W        W 7157   5.466   4.856  11.505  0.0679  0.1000 -0.0009
 3107W        W 7158   5.624   9.126  11.460  0.0298 -0.2867 -0.1148
 3108W        W 7159   5.688   5.992   9.161 -0.2631 -0.0108  0.0243
 3109W        W 7160   2.984   2.101   5.123 -0.1569 -0.0870 -0.1124
 3110W        W 7161   3.512   8.754  12.949 -0.0570  0.1220  0.3073
 3111W        W 7162   5.792   5.822   0.302  0.0916 -0.1929  0.1207
 3112W        W 7163   6.980   4.507   2.985 -0.2842 -0.1520 -0.3240
 3113W        W 7164   5.927   5.206   1.046 -0.0052 -0.3222  0.2392
 3114W        W 7165   9.912   8.438   1.421  0.3238  0.0673 -0.2459
 3115W        W 7166   0.705   0.629  10.342 -0.0792  0.1605  0.0043
 3116W        W 7167   7.504   2.141  11.811  0.0434  0.0748 -0.1291
 3117W        W 7168   1.196   0.427  11.151 -0.0033  0.0911 -0.0181
 3118W        W 7169   9.427   8.764  12.713  0.1497 -0.1345 -0.2072
 3119W        W 7170   5.385   5.694  11.933  0.0694  0.1699 -0.0160
 3120W        W 7171   6.426   0.391   3.564 -0.1733  0.1352  0.0260
 3121W        W 7172   2.980   6.436   1.094  0.0370 -0.1670  0.0091
 3122W        W 7173   0.938   6.266   9.557  0.1137  0.0260  0.0611
 3123W        W 7174   0.492   6.388  10.900  0.1280  0.0342 -0.0430
 3124W        W 7175   6.328   7.783   4.245 -0.0887 -0.1257 -0.0163
 3125W        W 7176   1.903   7.838  12.814  0.2236 -0.0478  0.1121
 3126W        W 7177   4.827   4.997  13.100 -0.1058 -0.4092 -0.1208
 3127W        W 7178   0.150   6.464  13.438  0.0642 -0.7435  0.1110
 3128W        W 7179   1.652   1.047   3.148 -0.2396 -0.0461 -0.2479
 3129W        W 7180   0.146   1.373   4.020  0.1141 -0.2074  0.1359
 3130W        W 7181   0.892   8.727  10.317 -0.0228  0.2746 -0.1038
 3131W        W 7182   2.791   3.383  11.172  0.1715  0.1318 -0.1111
 3132W        W 7183   5.452   0.645  12.707 -0.2120 -0.1005  0.1589
 3133W        W 7184   7.263   9.790  10.186 -0.2273 -0.0290 -0.3941
 3134W        W 7185   1.279   1.281   3.336  0.1011  0.3712 -0.3643
 3135W        W 7186   4.729   0.959   4.852 -0.2075  0.0320 -0.3359
 3136W        W 7187   0.722   5.776   0.712  0.0031  0.2113  0.0796
 3137W        W 7188   5.169   2.895  12.560  0.1831  0.2344  0.1348
 3138W        W 7189   5.285   0.171   8.976  0.0061 -0.0220 -0.2644
 3139W        W 7190   1.636   2.786   0.857  0.2739 -0.0159 -0.3161
 3140W        W 7191   3.943   2.080   0.491  0.2513  0.2758 -0.0662
 3141W        W 7192   9.949   8.063   4.495 -0.1609  0.4254 -0.1437
 3142W        W 7193   5.474   3.273   1.941  0.0560 -0.0331  0.0208
 3143W        W 7194   1.048   8.523   2.956 -0.0899  0.4235  0.1230
 3144W        W 7195   8.374   3.085   0.133 -0.0338  0.1610 -0.1112
 3145W        W 7196   0.403   3.019  10.950 -0.0071 -0.1378  0.0582
 3146W        W 7197   1.948   9.193  11.931 -0.2028 -0.0876 -0.0107
 3147W        W 7198   2.556   9.117   9.407 -0.1856 -0.2200  0.0866
 3148W        W 7199   6.986   7.812  13.860 -0.0400  0.2191  0.2608
 3149W        W 7200   5.508   1.554   1.343 -0.4423  0.3246 -0.0072
 3150W        W 7201   8.302   4.956  11.905 -0.1179  0.3781  0.4431
 3151W        W 7202   3.139   8.670   9.430 -0.1916 -0.2804  0.3290
 3152W        W 7203   7.031   5.474  12.922  0.0334  0.1766  0.0267
 3153W        W 7204   2.068   8.018  11.500  0.2559 -0.1469 -0.0732
 3154W        W 7205   8.376   9.016   8.917  0.2764  0.1492  0.2549
 3155W        W 7206   5.216   6.331  12.559  0.0022  0.0964 -0.0467
 3156W        W 7207   7.100   5.141   2.027  0.0258  0.0132  0.1490
 3157W        W 7208   9.523   3.786  10.937  0.2801  0.0556 -0.0720
 3158W        W 7209   1.973   9.763   0.835  0.1979  0.2464 -0.0923
 3159W        W 7210   6.931   5.367  10.993 -0.1222  0.1502 -0.0781
 3160W        W 7211   8.083   0.302   9.477  0.0063  0.1396 -0.0862
 3161W        W 7212   5.890   1.890   3.240 -0.2254  0.1887  0.4173
 3162W        W 7213   5.772   9.840   3.299 -0.0174 -0.1393  0.1250
 3163W        W 7214   4.653   9.911   5.285  0.0864  0.0981  0.0945
 3164W        W 7215   6.046   2.771  12.361 -0.0101  0.2980  0.0047
 3165W        W 7216   1.291   6.739   2.094 -0.0039  0.2918 -0.0032
 3166W        W 7217   3.812   1.007   1.994  0.1069  0.1376  0.3306
 3167W        W 7218   0.165   4.714   3.848 -0.0015 -0.0903 -0.0057
 3168W        W 7219   3.362   3.878   0.619 -0.0808 -0.2398 -0.2588
 3169W        W 7220   2.966   6.887  10.600 -0.2177 -0.1330  0.0686
 3170W        W 7221  10.063   7.043  12.540  0.1970 -0.1616 -0.1586
 3171W        W 7222   4.588   3.160  11.063 -0.1839  0.1226 -0.0902
 3172W        W 7223   6.002   6.905   1.593 -0.2762 -0.0378  0.0732
 3173W        W 7224   0.942   3.817  10.529  0.0174  0.0114 -0.0111
 3174W        W 7225   2.558   0.056   9.505  0.3041 -0.0141 -0.0580
 3175W        W 7226   3.261   0.345   4.716 -0.1200 -0.0811  0.2261
 3176W        W 7227   3.365   7.978   4.630  0.2017 -0.0214 -0.0902
 3177W        W 7228   4.777   8.452  11.552  0.2301  0.3990 -0.2709
 3178W        W 7229   9.478   2.062   8.748  0.0826  0.3236  0.2049
 3179W        W 7230   4.406   2.282   1.454  0.1338 -0.0408 -0.1458
 3180W        W 7231   6.197   2.800   3.641  0.0345 -0.2624  0.0177
 3181W        W 7232   4.389   4.406  10.703  0.0061 -0.0464 -0.2623
 3182W        W 7233   3.303   2.980   0.491  0.0090 -0.0048 -0.1794
 3183W        W 7234   8.513   8.650  12.835  0.0883 -0.1422  0.0432
 3184W        W 7235   0.549   4.337   0.579  0.0968 -0.0280 -0.1368
 3185W        W 7236   6.378   4.996  10.828 -0.3220  0.0670  0.0381
 3186W        W 7237   1.783   4.146  10.308 -0.0539  0.3274  0.2540
 3187W        W 7238   8.766   9.143  11.140 -0.0672 -0.0531  0.1149
 3188W        W 7239   7.942   8.679   0.588  0.2108 -0.0507 -0.1432
 3189W        W 7240   9.070   1.633   1.753  0.1004 -0.0476  0.0065
 3190W        W 7241   7.700   1.098   9.095  0.0212  0.0954  0.1522
 3191W        W 7242   8.351   4.993  12.463  0.0767 -0.4770 -0.0842
 3192W        W 7243   7.407   7.008   0.789  0.0943  0.2569  0.2063
 3193W        W 7244   8.374   7.114   0.498  0.0398 -0.1869 -0.4635
 3194W        W 7245   6.897   2.043  13.278 -0.1954  0.1449  0.1251
 3195W        W 7246   9.315   2.336   2.803  0.1564 -0.0669  0.0054
 3196W        W 7247   7.330   5.493   1.789 -0.1093  0.3543 -0.0973
 3197W        W 7248   1.399   4.177   1.050 -0.0516  0.2809  0.0021
 3198W        W 7249   5.286   1.886   3.229  0.1884  0.0139  0.2848
 3199W        W 7250   9.338   4.212   0.292  0.0312 -0.0155  0.1747
 3200W        W 7251   0.483   7.168  11.368  0.2000 -0.2673 -0.2641
 3201W        W 7252   2.600   0.644   1.221  0.2105  0.1768 -0.3849
 3202W        W 7253   9.921   5.266  10.591 -0.1681  0.2010  0.0942
 3203W        W 7254   6.520   1.147   3.415 -0.0082 -0.1712 -0.4405
 3204W        W 7255   1.562   3.214   0.378 -0.0746 -0.0423  0.2738
 3205W        W 7256   7.509   9.215  11.183  0.1682 -0.1821  0.0277
 3206W        W 7257   8.843   1.875   1.022 -0.1005  0.2155  0.1700
 3207W        W 7258   4.771   3.348   2.793  0.2539 -0.2958 -0.0902
 3208W        W 7259   4.462   5.800  10.092 -0.0972 -0.1304 -0.1985
 3209W        W 7260   5.788   1.523   9.345 -0.1292 -0.1141  0.0111
 3210W        W 7261   3.454   7.699  11.782  0.2506 -0.1114 -0.0401
 3211W        W 7262   2.439   5.944   0.926  0.3910  0.1006 -0.0267
 3212W        W 7263   9.811   3.308   3.068  0.2822 -0.0291 -0.0322
 3213W        W 7264   1.612   9.075  13.206  0.3627  0.1868 -0.3477
 3214W        W 7265   0.887   6.281   3.388  0.3750  0.0609 -0.0041
 3215W        W 7266   9.803   4.750  10.587  0.1141 -0.1326 -0.1564
 3216W        W 7267   7.383   6.876  12.282 -0.0472 -0.0734 -0.0253
 3217W        W 7268   3.684   1.293  13.418  0.2466 -0.0625  0.0624
 3218W        W 7269   5.365   8.693   4.359 -0.0999  0.0795  0.1463
 3219W        W 7270   0.315   2.672   1.883  0.2544  0.0154 -0.2135
 3220W        W 7271   7.974   7.049  12.410 -0.0046 -0.0573 -0.0918
 3221W        W 7272   6.804   0.461  12.546 -0.0916  0.2586  0.3728
 3222W        W 7273   7.919   4.868   1.438 -0.1372 -0.2491 -0.4003
 3223W        W 7274   0.393   5.626   1.778 -0.0476  0.2160  0.4437
 3224W        W 7275   6.540   0.237   4.121 -0.0590  0.2462  0.0540
 3225W        W 7276   1.891   1.246   1.130  0.2454  0.0974 -0.1520
 3226W        W 7277   7.678   0.853  11.793  0.1448  0.2958  0.0585
 3227W        W 7278   3.883   3.076  13.549 -0.2846 -0.1701 -0.1949
 3228W        W 7279   2.923   2.229  12.344  0.2559 -0.1223  0.1996
 3229W        W 7280   0.450   7.567   1.543  0.1971  0.3654 -0.2531
 3230W        W 7281   2.920   1.827   0.145  0.2299  0.3735  0.2637
 3231W        W 7282   9.481   3.051  12.791 -0.1645  0.1200  0.1162
 3232W        W 7283   1.874   8.083   4.511 -0.1446 -0.0851 -0.0586
 3233W        W 7284   9.477   1.297  13.400 -0.2560 -0.3443 -0.2634
 3234W        W 7285   9.526   9.169   3.548  0.6600  0.0222  0.2012
 3235W        W 7286   7.934   3.784   1.879 -0.0733  0.2868  0.1122
 3236W        W 7287   8.224   1.184   3.695 -0.1755 -0.1565  0.0355
 3237W        W 7288   4.210   0.683  13.809  0.2112 -0.2555 -0.0534
 3238W        W 7289   8.355   0.722   9.700 -0.3477 -0.0636  0.3003
 3239W        W 7290   5.786   8.017  12.969  0.2538 -0.3953  0.0326
 3240W        W 7291   6.225   0.657   2.367  0.1477 -0.0988 -0.2123
 3241W        W 7292   2.560   2.536  11.697 -0.4729  0.3833  0.1845
 3242W        W 7293   6.875   7.068  12.855  0.0483  0.1704  0.1249
 3243W        W 7294   6.140   3.849  13.669 -0.3139 -0.2369 -0.0952
 3244W        W 7295   4.442   4.535  12.319  0.0818 -0.0072 -0.1777
 3245W        W 7296   9.778   7.895  10.057  0.3265 -0.0457  0.1763
 3246W        W 7297   4.758   4.719  10.943 -0.0013 -0.0552 -0.0978
 3247W        W 7298   0.894   9.059  11.933 -0.0544  0.0312 -0.1570
 3248W        W 7299   8.781   8.745  10.304 -0.0639 -0.1822 -0.3232
 3249W        W 7300   0.643   2.405   3.560  0.2325  0.3888  0.0329
 3250W        W 7301   0.927   6.012   0.156  0.0625  0.0091 -0.0729
 3251W        W 7302   1.247   0.757   3.292 -0.1994  0.2324  0.1886
 3252W        W 7303   5.740   6.182   3.390 -0.3833  0.3053 -0.0130
 3253W        W 7304   1.644   0.904   3.661 -0.0344  0.1553  0.0385
 3254W        W 7305   4.499   4.597  11.333 -0.0125  0.0753  0.3942
 3255W        W 7306   2.500   0.409  10.291 -0.1545  0.1929  0.1112
 3256W        W 7307   0.364   5.457   9.553 -0.0381  0.1842  0.2978
 3257W        W 7308   3.199   3.189   0.006  0.0811  0.0103  0.1134
 3258W        W 7309   5.631   0.089   3.120  0.0413 -0.0272  0.2211
 3259W        W 7310   5.377   5.869  13.951  0.2372 -0.1350 -0.1679
 3260W        W 7311   3.513   1.409   4.516  0.3021  0.1970  0.0042
 3261W        W 7312   5.260   5.338  12.272 -0.0334 -0.0912 -0.2959
 3262W        W 7313   0.342   9.214   8.661 -0.2264 -0.3635 -0.1932
 3263W        W 7314   9.751   7.373   2.821 -0.1429 -0.1431  0.2401
 3264W        W 7315   5.120   4.148   1.272  0.1472 -0.3317 -0.0622
 3265W        W 7316   7.447   2.193   2.564  0.1123  0.1762  0.1141
 3266W        W 7317   0.710   0.803  12.702 -0.0064 -0.1476  0.2205
 3267W        W 7318   3.392   4.835   1.060  0.1076 -0.3009 -0.1844
 3268W        W 7319   8.828   0.928   4.977  0.0640 -0.1900 -0.1801
 3269W        W 7320   8.212   5.258   1.661  0.0832  0.2356 -0.5644
 3270W        W 7321   0.294   7.508  11.736  0.1439 -0.1125  0.2188
 3271W        W 7322   1.333   8.448   9.545 -0.1227 -0.1258  0.2205
 3272W        W 7323   2.871   4.077  11.992 -0.4557  0.1264  0.1388
 3273W        W 7324   6.872   7.869   1.317  0.0342  0.3580 -0.2324
 3274W        W 7325   9.787   3.281   2.455  0.3929  0.0901  0.0836
 3275W        W 7326   2.869   0.456   4.035 -0.0255  0.0549  0.1299
 3276W        W 7327   9.467   9.796  13.747  0.1996 -0.1090  0.0181
 3277W        W 7328   8.751   2.366  13.614  0.1170 -0.1217  0.2878
 3278W        W 7329   4.321   0.283   2.826  0.0922 -0.0125 -0.1017
 3279W        W 7330   6.654   6.501   2.344  0.0693 -0.0536  0.0732
 3280W        W 7331   8.039   2.503  10.112 -0.1212  0.0838 -0.1330
 3281W        W 7332   2.950   1.857  11.103 -0.0779  0.1270 -0.3644
 3282W        W 7333   6.044   3.462  13.144  0.4129  0.0942  0.1114
 3283W        W 7334   4.261   8.323   2.601  0.2587 -0.0012  0.3094
 3284W        W 7335   0.365   8.388  12.774 -0.3504  0.2613  0.1776
 3285W        W 7336   8.961   0.366  11.286  0.2041  0.0393  0.0912
 3286W        W 7337   9.276   5.528   3.546  0.6108  0.0542  0.3001
 3287W        W 7338   3.374   7.731   2.602  0.4138 -0.4030  0.0518
 3288W        W 7339   5.417   6.713  10.012 -0.0634  0.1036  0.0873
 3289W        W 7340   3.900   5.082  10.633 -0.0075 -0.2264  0.0483
 3290W        W 7341   2.463   0.462   9.808 -0.3991 -0.0711 -0.0106
 3291W        W 7342   1.420   2.742  13.640 -0.1905  0.0634 -0.0588
 3292W        W 7343   1.619   6.213   1.075 -0.3636  0.0297 -0.5341
 3293W        W 7344   9.463   7.947   3.277  0.1027  0.1260  0.0010
 3294W        W 7345   8.309   7.745   0.024 -0.0346 -0.1599  0.1042
 3295W        W 7346   9.722   1.530   2.791 -0.2501 -0.0617  0.0286
 3296W        W 7347   0.223   1.452  13.498 -0.3427 -0.3033 -0.1143
 3297W        W 7348   5.022   8.974   1.364  0.2788 -0.0367  0.1526
 3298W        W 7349   1.946   9.835  11.742 -0.1431  0.1484  0.0951
 3299W        W 7350  10.097   8.509   2.030  0.0909 -0.0651  0.3162
 3300W        W 7351   5.846   0.247   9.753 -0.0770  0.0760 -0.1638
 3301W        W 7352   8.045   0.587   0.400  0.0560  0.1555  0.3009
 3302W        W 7353   9.287   5.955   1.134 -0.1920  0.0144  0.0112
 3303W        W 7354   0.854   9.617   9.755  0.0898  0.2818  0.0638
 3304W        W 7355  10.172   3.778   0.100 -0.0274 -0.3603  0.0217
 3305W        W 7356   7.746   6.517   4.027  0.4055 -0.0148  0.2294
 3306W        W 7357   4.053   8.265  13.790  0.0364  0.0352 -0.2721
 3307W        W 7358   1.016   8.972   1.231  0.3192 -0.1555 -0.0044
 3308W        W 7359   6.603   2.951  11.624 -0.2379 -0.0292 -0.0411
 3309W        W 7360   7.542   9.485  11.992 -0.4337  0.2237 -0.1445
 3310W        W 7361   6.461   8.734   3.371 -0.1250 -0.1226  0.0074
 3311W        W 7362   7.586   4.590   9.084  0.0411  0.0099  0.0537
 3312W        W 7363   8.283   1.831   0.931  0.1006 -0.0955  0.2092
 3313W        W 7364   1.891   8.565  10.280 -0.2220  0.2064  0.1994
 3314W        W 7365   7.710   7.692   4.700 -0.1072 -0.1695  0.3297
 3315W        W 7366   5.950   4.127   1.679  0.3978 -0.0977 -0.2701
 3316W        W 7367   4.699   4.084   0.943 -0.1343 -0.1172 -0.5619
 3317W        W 7368   0.508   9.536  11.248  0.0642 -0.0276 -0.1298
 3318W        W 7369   1.446   1.689  12.125  0.2525 -0.1206 -0.3218
 3319W        W 7370   2.516   4.489   0.653 -0.2259 -0.1599 -0.0199
 3320W        W 7371   1.890   5.017  13.546  0.2040  0.0214  0.0794
 3321W        W 7372   6.532   6.251   2.789  0.0887  0.0832  0.0616
 3322W        W 7373   8.718   6.189  12.703  0.1621  0.2409  0.2114
 3323W        W 7374   9.222   6.103   2.933 -0.0010  0.0490 -0.0586
 3324W        W 7375   9.083   1.302   3.239 -0.3842  0.0610 -0.1226
 3325W        W 7376   4.957   6.563   3.390 -0.2700 -0.0068 -0.1814
 3326W        W 7377   6.651   8.480  13.327  0.1790 -0.1736 -0.1018
 3327W        W 7378   8.416   7.904  10.533 -0.0096 -0.0917  0.0466
 3328W        W 7379   5.684   2.445   0.144 -0.3106  0.0903  0.1520
 3329W        W 7380   8.921   8.537  12.540  0.0467 -0.0499 -0.0955
 3330W        W 7381   2.280   4.524  11.528  0.2352  0.0950  0.1770
 3331W        W 7382   6.995   1.910   4.442  0.1122  0.0639 -0.0557
 3332W        W 7383   0.579   1.403   2.326  0.2142  0.1796  0.1001
 3333W        W 7384   3.477   1.710  13.724  0.0869  0.2629  0.0673
 3334W        W 7385   4.776   3.944  10.432 -0.0074  0.1267  0.2517
 3335W        W 7386   6.474   8.550  10.051 -0.2139 -0.0394 -0.0501
 3336W        W 7387   7.723   0.645   0.904  0.1914  0.2721 -0.0305
 3337W        W 7388  10.145   6.199   4.049  0.1219  0.2070  0.0715
 3338W        W 7389   5.680   5.298  13.308 -0.1764  0.1010 -0.1527
 3339W        W 7390   2.001   3.394  12.675  0.0971 -0.2444  0.2159
 3340W        W 7391   4.305   3.822  10.567 -0.2609  0.0790 -0.1329
 3341W        W 7392  10.054   5.386  10.121 -0.1045 -0.1687  0.6632
 3342W        W 7393   4.211   9.473  13.348  0.2152  0.1416 -0.1243
 3343W        W 7394   4.028   3.551  11.000  0.3839 -0.0121 -0.0848
 3344W        W 7395   0.680   1.441  13.458 -0.1588  0.3002 -0.4576
 3345W        W 7396   1.897   5.269   1.093 -0.3113 -0.0316 -0.4254
 3346W        W 7397   3.358   6.769  13.635  0.1158  0.3035 -0.1466
 3347W        W 7398   6.628   7.215   8.975  0.1115  0.2317 -0.2262
 3348W        W 7399   7.340   2.437   9.479  0.0966  0.0746  0.0494
 3349W        W 7400   8.276   7.938  12.393  0.0705  0.3595  0.2911
 3350W        W 7401   1.012   6.618   4.863  0.0181  0.0070  0.1815
 3351W        W 7402   8.013   8.853   4.541 -0.0184 -0.1795  0.0445
 3352W        W 7403   2.200   8.788  13.643 -0.3469  0.1524 -0.4000
 3353W        W 7404   9.664   2.000   3.126 -0.1170  0.1834 -0.0149
 3354W        W 7405   6.808   7.893   3.913  0.2616 -0.5261  0.0485
 3355W        W 7406   2.158   8.260   9.734  0.0536 -0.2622  0.0212
 3356W        W 7407   7.969   3.663   5.325  0.1375 -0.0424 -0.3009
 3357W        W 7408   8.922   7.148   4.893 -0.0148 -0.1587 -0.1073
 3358W        W 7409   4.546   4.392   4.439  0.1212  0.0747 -0.3331
 3359W        W 7410   4.052   4.040   3.723  0.0699 -0.3440  0.0096
 3360W        W 7411   3.792   6.387  13.376  0.1007  0.0435  0.0347
 3361W        W 7412   1.353   3.485  13.874  0.0396  0.1183  0.2278
 3362W        W 7413   9.978   9.482   4.650  0.1156  0.1554 -0.0881
 3363W        W 7414   9.231   6.213   9.967  0.2003 -0.5233 -0.1424
 3364W        W 7415   4.199   1.863  13.072  0.0122 -0.2081  0.3376
 3365W        W 7416   9.114   4.683   4.163  0.0521  0.2371  0.1968
 3366W        W 7417   2.838   0.183   0.994  0.1267 -0.0468  0.0294
 3367W        W 7418   1.681   7.569   9.031 -0.0725  0.2296  0.0459
 3368W        W 7419   1.076   7.819   0.612 -0.0330 -0.0689  0.3272
 3369W        W 7420   5.036   8.299   0.649 -0.4588  0.1938 -0.0555
 3370W        W 7421   5.857   9.933   2.003  0.0103  0.0366 -0.0479
 3371W        W 7422   1.026   0.856  11.780  0.3238  0.1453 -0.3103
 3372W        W 7423   0.428   8.734   4.656  0.1567  0.3464  0.0681
 3373W        W 7424   3.110   7.527  12.595  0.1534 -0.0498  0.1774
 3374W        W 7425   7.236   6.397  11.438  0.2955  0.1989  0.2303
 3375W        W 7426   9.246   5.184  11.254  0.2730  0.1003  0.1319
 3376W        W 7427   5.459   2.137   1.744 -0.0812  0.1370 -0.0127
 3377W        W 7428   1.653   7.173   0.185 -0.3160  0.2087 -0.0567
 3378W        W 7429   7.349   9.296  10.416  0.0915  0.3250 -0.1781
 3379W        W 7430   2.960   0.683  13.141 -0.0095 -0.0495 -0.0937
 3380W        W 7431   6.670   7.966   0.870 -0.2855  0.1443 -0.0613
 3381W        W 7432   9.289   7.978  10.305 -0.0737 -0.1504  0.0434
 3382W        W 7433   3.320   9.134   9.620 -0.1951 -0.0230  0.0086
 3383W        W 7434   8.855   3.220  10.071 -0.0673 -0.3504 -0.3043
 3384W        W 7435   9.559   5.177   9.831 -0.0639  0.0122 -0.0099
 3385W        W 7436   5.189   2.139  10.422 -0.0243  0.0658 -0.0646
 3386W        W 7437   9.903   5.132  13.631 -0.1495  0.0552  0.0179
 3387W        W 7438   3.972   2.567  10.871 -0.0096  0.2579  0.2845
 3388W        W 7439   6.922   2.762   0.175  0.2356 -0.0164  0.1516
 3389W        W 7440   0.604   5.521   2.267 -0.1434  0.2414 -0.3113
 3390W        W 7441  10.110   2.143   0.430 -0.5234 -0.1563  0.2352
 3391W        W 7442   3.005   1.941   0.806  0.1102  0.1076  0.2469
 3392W        W 7443   3.854   6.995   1.134 -0.2132 -0.0070 -0.2101
 3393W        W 7444   9.734   4.786  11.598 -0.2566 -0.1331  0.2029
 3394W        W 7445   4.444   0.816   0.393 -0.2587 -0.2454 -0.1894
 3395W        W 7446   4.396   8.278  13.479  0.0921 -0.2948 -0.0385
 3396W        W 7447   8.329   6.643  12.159 -0.0857  0.1262 -0.0676
 3397W        W 7448   2.807   6.704   3.453 -0.1035  0.2560  0.1362
 3398W        W 7449   0.199   5.830   3.076 -0.1329 -0.4735 -0.3267
 3399W        W 7450   3.062   4.142  11.337  0.0695  0.0467  0.1908
 3400W        W 7451   8.185   0.854  12.498  0.2208 -0.0830 -0.2374
 3401W        W 7452   1.236   1.816   0.281 -0.1482  0.0688  0.0409
 3402W        W 7453   8.517   5.380  12.104  0.0909  0.1482 -0.0022
 3403W        W 7454   2.238   9.045   9.813 -0.1615 -0.2332  0.1239
 3404W        W 7455   7.962   2.458   3.458 -0.0654 -0.2463  0.0245
 3405W        W 7456   6.464   2.792  11.183  0.0760 -0.1635  0.0873
 3406W        W 7457   7.883   2.381  13.654 -0.1988 -0.2131  0.1600
 3407W        W 7458   6.443   6.586   3.238  0.0045 -0.3990  0.0246
 3408W        W 7459   8.746   4.674   9.517  0.0611  0.0500  0.1102
 3409W        W 7460   9.035   5.051   0.150  0.0331 -0.2867  0.1100
 3410W        W 7461   8.327   2.490  13.403 -0.0404 -0.4780  0.1574
 3411W        W 7462   8.601   5.983  10.114  0.2149 -0.0154  0.0168
 3412W        W 7463  10.152   6.214  10.473 -0.0937  0.3423  0.1022
 3413W        W 7464   8.955   0.694   0.221  0.1682  0.2984 -0.0570
 3414W        W 7465   0.658   4.287   2.958  0.0582  0.0725  0.1831
 3415W        W 7466   6.006   8.103   0.967 -0.0735 -0.2636  0.0840
 3416W        W 7467   2.986   0.957   3.988  0.2936 -0.0599  0.0149
 3417W        W 7468   7.445   8.785  12.356  0.1088  0.0662 -0.1700
 3418W        W 7469   3.419   0.615  12.721  0.1088 -0.0267  0.1327
 3419W        W 7470  10.020   0.208   3.316  0.0830 -0.3694  0.0851
 3420W        W 7471   9.551   6.995  10.496 -0.1657 -0.0806  0.4276
 3421W        W 7472   2.092   0.220   9.162  0.2172  0.0867  0.0402
 3422W        W 7473   8.961   7.893   3.964 -0.1663 -0.2205  0.0118
 3423W        W 7474   7.630   7.403  12.262 -0.1546  0.2098  0.2117
 3424W        W 7475   1.890   7.539   1.012  0.1001 -0.2808  0.2224
 3425W        W 7476   2.810   0.988   1.842  0.1783  0.1077  0.1328
 3426W        W 7477   3.652   3.208  11.928 -0.0710 -0.0508  0.0811
 3427W        W 7478   0.284   8.234  12.045 -0.1214 -0.0567 -0.1265
 3428W        W 7479   5.120   7.214   1.585 -0.0163  0.0914  0.1806
 3429W        W 7480   4.987   9.618  11.911 -0.1506 -0.0506  0.1117
 3430W        W 7481   9.393   4.606   2.017  0.0263 -0.1506 -0.2549
 3431W        W 7482   7.066   5.519   3.574 -0.0758  0.1181 -0.0998
 3432W        W 7483   8.590   3.883  12.573  0.0628 -0.3132  0.0172
 3433W        W 7484   8.450   8.406  12.198 -0.0994 -0.0565 -0.1893
 3434W        W 7485   8.733   4.673   0.416  0.0665  0.0209 -0.3498
 3435W        W 7486   5.826   3.922   4.937  0.0951  0.0526 -0.2741
 3436W        W 7487   3.359   8.555  11.520  0.2359  0.3724 -0.0458
 3437W        W 7488  10.087   8.601  10.303  0.4850 -0.1512 -0.2833
 3438W        W 7489   4.146   5.909  10.474  0.1270 -0.1085  0.2176
 3439W        W 7490   7.922   8.019   4.307 -0.0261  0.0341  0.0350
 3440W        W 7491   1.851   5.608   0.469 -0.1605  0.1219 -0.1328
 3441W        W 7492   5.834   5.958  10.900 -0.0228 -0.0993  0.1936
 3442W        W 7493   7.859   1.874  13.432 -0.0463  0.0118  0.0622
 3443W        W 7494   6.799   6.229  13.176  0.0062 -0.1651  0.2797
 3444W        W 7495   1.896   8.537  13.951 -0.0131 -0.0034 -0.2496
 3445W        W 7496   7.559   0.716   1.344  0.0166  0.0617  0.2046
 3446W        W 7497   9.856   5.756  11.802 -0.2309 -0.1251  0.0766
 3447W        W 7498   0.514   0.270   4.766  0.1194 -0.2871 -0.1800
 3448W        W 7499   2.735   1.369   2.205 -0.1545  0.1436  0.1376
 3449W        W 7500   6.887   3.378   4.498 -0.0823  0.1638 -0.0131
 3450W        W 7501   3.874   0.857   2.836  0.3292  0.0741 -0.1028
 3451W        W 7502   7.978   7.506  13.689 -0.3186  0.1449 -0.0639
 3452W        W 7503   0.184   6.140   1.531  0.2453  0.1002  0.4164
 3453W        W 7504   4.824   7.086  12.636  0.0364 -0.0931  0.1566
 3454W        W 7505   5.622   4.007   2.186  0.1083 -0.1981  0.1872
 3455W        W 7506   8.250   5.523  11.504 -0.0256  0.0563  0.0498
 3456W        W 7507   1.858   7.216  12.427  0.2904 -0.2295 -0.0671
 3457W        W 7508   8.446   0.922   0.491  0.0868 -0.3772 -0.2217
 3458W        W 7509   1.083   6.618  11.499  0.1170  0.3448 -0.0970
 3459W        W 7510   0.080   8.824   2.515 -0.0741 -0.1125 -0.0802
 3460W        W 7511   3.184   9.262   4.756  0.2224 -0.0726 -0.0190
 3461W        W 7512   1.654   8.566   4.427  0.0239  0.0612 -0.1007
 3462W        W 7513   2.543   2.351  12.719  0.1586  0.1107  0.0641
 3463W        W 7514   6.696   0.433  10.904  0.2469 -0.0838  0.0694
 3464W        W 7515   6.194   4.934  12.527  0.1425  0.1665 -0.0964
 3465W        W 7516   6.338   6.067  10.491 -0.3795 -0.0759 -0.0081
 3466W        W 7517   2.533   0.466  13.359 -0.1772 -0.0574 -0.1589
 3467W        W 7518   2.916   9.687   1.841 -0.0194  0.0365  0.1235
 3468W        W 7519   0.955   5.510   0.364  0.1063 -0.2297  0.2546
 3469W        W 7520   8.849   4.911  10.227  0.1933  0.2063 -0.1480
 3470W        W 7521   8.039   7.183   4.650  0.1218  0.1457 -0.0999
 3471W        W 7522   8.574   4.482  13.894  0.3898 -0.0229  0.1085
 3472W        W 7523   5.008   1.858  11.311 -0.2942 -0.4280  0.0509
 3473W        W 7524   9.339   7.793   0.692  0.1043  0.0709  0.0219
 3474W        W 7525   9.652   7.005   2.215  0.2281 -0.0902  0.1113
 3475W        W 7526   8.947   1.561   4.352  0.1516  0.2366  0.0261
 3476W        W 7527   3.704   1.474   1.157 -0.0718  0.0073 -0.0427
 3477W        W 7528   3.305   7.816  13.365  0.1492  0.0968 -0.1176
 3478W        W 7529   0.285   9.802   2.235  0.2523 -0.2377  0.1791
 3479W        W 7530   5.665   6.348  11.832 -0.0605  0.1324  0.0743
 3480W        W 7531   5.017   8.465   4.056 -0.2349 -0.3025  0.1275
 3481W        W 7532   7.866   4.802   0.930  0.0676  0.1726 -0.0655
 3482W        W 7533   4.873   2.354   3.516  0.4433  0.1512  0.1672
 3483W        W 7534   0.195  10.074  10.813  0.0118 -0.1720 -0.3637
 3484W        W 7535   2.670   2.742   0.866  0.0048 -0.2170 -0.4462
 3485W        W 7536   8.442   7.332  13.724 -0.1119 -0.0128  0.2079
 3486W        W 7537   5.386   6.881   0.203  0.0057  0.2451 -0.1678
 3487W        W 7538   7.275   0.320   0.975  0.3012  0.0851 -0.0162
 3488W        W 7539   2.105   6.926  13.247 -0.0164 -0.0413 -0.1661
 3489W        W 7540   0.470   2.080   0.364  0.1411 -0.1055 -0.1077
 3490W        W 7541   4.122   0.012   4.963  0.1688  0.1272  0.4819
 3491W        W 7542   8.751   5.306  11.035 -0.0364 -0.0040 -0.0129
 3492W        W 7543   2.783   5.908  10.342  0.1041  0.0632 -0.0288
 3493W        W 7544   4.984   4.341  11.308 -0.0873 -0.2438 -0.0069
 3494W        W 7545   9.693   7.130   3.239  0.0806 -0.0716  0.0428
 3495W        W 7546   8.959   0.299  12.893 -0.1704 -0.0875 -0.0891
 3496W        W 7547   2.806   8.539   4.236 -0.1023  0.0651  0.2671
 3497W        W 7548   2.757   0.613  10.696 -0.1065  0.0183 -0.3289
 3498W        W 7549   5.721   0.412   3.477 -0.0513 -0.3933 -0.0329
 3499W        W 7550   3.270   9.277  10.127 -0.5315  0.0041  0.0288
 3500W        W 7551   0.942   6.121  10.392  0.2539  0.1723 -0.2903
 3501W        W 7552   6.103   7.143   4.780 -0.2087  0.0653  0.1010
 3502W        W 7553   9.794   6.544   9.349 -0.0940  0.3050  0.0172
 3503W        W 7554   7.274   9.122  13.375  0.0840  0.4370  0.2516
 3504W        W 7555   9.922   5.693   4.672  0.0279 -0.0063 -0.1866
 3505W        W 7556   9.807   0.334   1.570  0.2259 -0.0913 -0.0645
 3506W        W 7557   4.343   5.109   3.171 -0.0919  0.1470 -0.1511
 3507W        W 7558   3.647   9.725  10.422 -0.0934 -0.1029  0.0732
 3508W        W 7559   8.645   0.472   0.504 -0.2401  0.3166  0.1057
 3509W        W 7560   7.905   5.659   4.457 -0.4621 -0.1743 -0.0623
 3510W        W 7561   9.483   2.631  10.153 -0.0611  0.0915 -0.1400
 3511W        W 7562   1.325   7.161   4.477  0.1041  0.1365 -0.1816
 3512W        W 7563   4.737   5.467  13.372 -0.0834  0.0060  0.0991
 3513W        W 7564   7.474   9.770  12.681 -0.1485  0.3200 -0.0432
 3514W        W 7565   4.732   1.972   8.853 -0.0371  0.1228 -0.0254
 3515W        W 7566   2.532   8.164   3.880 -0.0388 -0.1098 -0.0082
 3516W        W 7567   2.924   0.028  12.372 -0.1790 -0.0667 -0.0697
 3517W        W 7568   6.222   2.715   4.210  0.0841 -0.1527  0.1291
 3518W        W 7569   3.731   5.259  12.019  0.0620  0.0505 -0.1194
 3519W        W 7570   2.427   6.997  10.586 -0.2643 -0.0341 -0.2555
 3520W        W 7571   1.280  10.161   9.887  0.0676 -0.0449 -0.0444
 3521W        W 7572   3.377   1.667   0.714  0.0484  0.1227 -0.2911
 3522W        W 7573   8.939   5.549   1.232 -0.1725 -0.0825 -0.1087
 3523W        W 7574  10.140   1.988  10.378  0.3410 -0.2207  0.3739
 3524W        W 7575   8.600   0.808  11.137 -0.1639  0.2879  0.1078
 3525W        W 7576   0.157   6.924   4.455  0.1812  0.2174 -0.3967
 3526W        W 7577   8.801   2.364   1.228 -0.0302  0.2189  0.0776
 3527W        W 7578   6.648   4.925  12.234 -0.3538  0.0921  0.1660
 3528W        W 7579   5.747   3.315   3.724 -0.1678 -0.2104 -0.0047
 3529W        W 7580   5.747   6.470   8.964 -0.1715  0.1409 -0.0923
 3530W        W 7581   8.605   6.934   3.275 -0.3134  0.0996 -0.3649
 3531W        W 7582   8.893   8.908   3.964  0.2166  0.0452  0.0124
 3532W        W 7583   6.445   7.779   2.498  0.3349 -0.1938 -0.1786
 3533W        W 7584   8.719   2.943   2.458 -0.0018  0.1615 -0.4550
 3534W        W 7585   2.180   9.387   1.174 -0.1025 -0.2551  0.0404
 3535W        W 7586   8.013   1.435   4.185 -0.0028  0.3076 -0.1141
 3536W        W 7587   0.703   4.843   3.158 -0.0069  0.0696 -0.2726
 3537W        W 7588   3.241   6.490   3.373 -0.2098  0.0806  0.0425
 3538W        W 7589   3.737   0.113  13.375 -0.2527 -0.0297 -0.0143
 3539W        W 7590   8.785   3.221   1.330  0.1587 -0.0042  0.0273
 3540W        W 7591   0.489   2.756   3.246 -0.0184  0.0762 -0.3004
 3541W        W 7592   8.313   3.339   5.142  0.0668 -0.0225 -0.0596
 3542W        W 7593   0.250   6.129  13.755  0.0420  0.2233 -0.1848
 3543W        W 7594   0.043   9.837   1.172 -0.0190 -0.2716 -0.2380
 3544W        W 7595   4.679   9.185   0.554  0.0139 -0.2013  0.0386
 3545W        W 7596   2.695   7.202  11.898  0.0051  0.2812 -0.0990
 3546W        W 7597   7.075   1.879   2.381  0.0965 -0.0317 -0.1092
 3547W        W 7598   5.901   4.502  12.376  0.0168 -0.2409 -0.2103
 3548W        W 7599   8.562   0.080   5.132 -0.0004  0.2006  0.1409
 3549W        W 7600   8.246   1.408   0.529  0.2306 -0.1121 -0.0873
 3550W        W 7601   6.062   0.793   8.860 -0.0726 -0.0879  0.2474
 3551W        W 7602   7.092   5.490  12.161 -0.0386 -0.3050 -0.1213
 3552W        W 7603   1.712   1.394  10.355  0.0932  0.3238 -0.0844
 3553W        W 7604   8.403   5.825  12.405  0.1711  0.2150  0.1772
 3554W        W 7605   5.180   7.814   4.100  0.2046  0.0277 -0.1344
 3555W        W 7606   4.054   6.672  13.030 -0.2787 -0.4354 -0.2879
 3556W        W 7607   7.912   0.640  13.819  0.1881 -0.1597 -0.0922
 3557W        W 7608   9.676   1.631   1.662  0.3742  0.3858 -0.1218
 3558W        W 7609   1.772   4.776  12.457 -0.1866 -0.1981  0.2135
 3559W        W 7610   9.323   6.921   0.662  0.1987  0.0149  0.0636
 3560W        W 7611   8.600   6.679   0.402  0.2591 -0.0424 -0.0178
 3561W        W 7612   6.026   0.964   0.161  0.3667  0.1570  0.2312
 3562W        W 7613   0.290   9.784   8.953 -0.1942  0.0347 -0.0533
 3563W        W 7614   5.157   7.652   2.072  0.0075 -0.1201 -0.0862
 3564W        W 7615   9.092   2.751   9.383  0.1808 -0.0649 -0.1322
 3565W        W 7616   1.247   9.000   2.352  0.0804  0.1401 -0.2847
 3566W        W 7617   6.784   9.631   3.440  0.1302 -0.0876  0.2329
 3567W        W 7618   6.242   8.415  13.648 -0.0096  0.3764 -0.0629
 3568W        W 7619   8.158   0.129   5.493  0.2891  0.1491  0.0123
 3569W        W 7620   1.888   8.016   0.741 -0.0050 -0.0551  0.2499
 3570W        W 7621   6.522   9.978   1.654 -0.0692 -0.0970  0.1832
 3571W        W 7622   8.848   2.590   0.764 -0.0537 -0.0419  0.4606
 3572W        W 7623   0.058  10.020   2.650 -0.0771  0.2114  0.0966
 3573W        W 7624   9.196   3.748   1.306 -0.1544  0.2338  0.3622
 3574W        W 7625   2.983   8.072   2.818 -0.1575  0.0718 -0.0800
 3575W        W 7626   6.692   1.350   3.856 -0.2553  0.0224 -0.1593
 3576W        W 7627   3.071   2.551  11.513 -0.0374  0.0469  0.0282
 3577W        W 7628   3.743   4.541  13.004  0.1167 -0.0909  0.1065
 3578W        W 7629   2.065   1.196  10.078  0.0155  0.0182  0.1225
 3579W        W 7630   1.320   4.583  12.738 -0.1643 -0.1260  0.0649
 3580W        W 7631   2.237   1.076   5.178 -0.0990  0.1222 -0.4588
 3581W        W 7632   0.322   3.284  13.315 -0.0701  0.4603 -0.1265
 3582W        W 7633   8.071   9.657  11.903  0.0405  0.0020 -0.2401
 3583W        W 7634   1.775   2.334  11.152 -0.1655  0.1751  0.1796
 3584W        W 7635   8.898   7.361   2.202  0.1338  0.1826  0.1682
 3585W        W 7636   1.460   8.941  13.757 -0.0911 -0.2132  0.5258
 3586W        W 7637   3.710   1.487   2.258  0.1901  0.1156  0.0020
 3587W        W 7638   1.768   6.884   1.789 -0.1362 -0.2405 -0.2436
 3588W        W 7639   8.531   7.618   3.897 -0.2173 -0.1309  0.1260
 3589W        W 7640   0.553   5.206   0.160 -0.0082 -0.1838  0.2296
 3590W        W 7641   8.702   4.286   1.091  0.0216  0.2023  0.5850
 3591W        W 7642   7.922   5.227  12.906  0.4093  0.0043 -0.1986
 3592W        W 7643   3.478   5.697  13.938  0.1549 -0.0711 -0.2350
 3593W        W 7644   5.969   8.373  11.969 -0.0536 -0.2224  0.2733
 3594W        W 7645   9.126   8.762  11.261  0.2587 -0.1171 -0.1498
 3595W        W 7646   9.980   9.965   3.080  0.2570 -0.0959 -0.2043
 3596W        W 7647   8.196   7.567   4.343 -0.3022 -0.0079  0.1952
 3597W        W 7648   5.370   9.557   2.007  0.1554 -0.0675 -0.4138
 3598W        W 7649   2.231   4.408  12.819  0.2540  0.1834 -0.0308
 3599W        W 7650   6.251   6.656   2.663  0.2251  0.2524  0.1843
 3600W        W 7651   8.259   0.509   0.844 -0.0218  0.2560 -0.3156
 3601W        W 7652   9.617   3.411  13.664  0.0217  0.2760  0.1255
 3602W        W 7653   5.517   7.810   4.638  0.0739  0.1508  0.1528
 3603W        W 7654   2.593   9.296   0.241  0.2236  0.4340  0.0100
 3604W        W 7655   0.660   3.419  12.123 -0.0223  0.1715 -0.2467
 3605W        W 7656   8.407   3.801   1.880 -0.1953 -0.1928 -0.1559
 3606W        W 7657   4.359   8.679   3.161 -0.1602  0.1558 -0.0918
 3607W        W 7658   1.585   5.342  13.785  0.2017 -0.2364  0.2852
 3608W        W 7659   7.975   1.430  12.448 -0.0619 -0.3159  0.0853
 3609W        W 7660   1.788   2.353  12.202  0.0978 -0.0956  0.2226
 3610W        W 7661   2.716   3.896   0.208 -0.2699  0.0241 -0.0927
 3611W        W 7662   2.393   0.847  11.366  0.0664 -0.0497  0.3470
 3612W        W 7663   0.868   1.825  13.897 -0.4574  0.0309 -0.2411
 3613W        W 7664   9.983   1.839   1.994 -0.0227  0.1133  0.2781
 3614W        W 7665   6.677   2.076   3.539  0.1567 -0.1250 -0.0902
 3615W        W 7666   2.941   4.133   0.582  0.0440 -0.3959  0.0611
 3616W        W 7667   0.140   7.791   3.966 -0.1600  0.0096 -0.1467
 3617W        W 7668   3.850   7.353  13.469  0.0722 -0.1249  0.1523
 3618W        W 7669   7.480   8.448   9.229 -0.2412 -0.0937 -0.0772
 3619W        W 7670   0.034   6.399   0.336  0.0901  0.3266 -0.0479
 3620W        W 7671   6.786   2.276   0.596 -0.3036  0.1273 -0.5663
 3621W        W 7672   0.604   7.015   2.530 -0.0895  0.1666  0.1660
 3622W        W 7673   6.211   6.395   9.201  0.3133  0.0062  0.0578
 3623W        W 7674   7.976   9.166  12.127 -0.0829 -0.2380  0.1288
 3624W        W 7675   7.378   5.222  11.639 -0.0266 -0.0319 -0.1902
 3625W        W 7676   1.001   4.650   2.781  0.2633  0.2049 -0.1705
 3626W        W 7677   8.850   1.704  11.065 -0.0647  0.0049  0.2750
 3627W        W 7678   1.974   8.045   0.183 -0.0301  0.2053  0.1845
 3628W        W 7679   6.805   7.913  12.132 -0.0407 -0.1143 -0.2709
 3629W        W 7680   8.121   5.042   4.355 -0.4128  0.2511 -0.1660
 3630W        W 7681   7.618   6.813  13.307  0.0676  0.1311  0.4093
 3631W        W 7682   2.630   8.975  13.781  0.0775  0.1953  0.0660
 3632W        W 7683   6.041   1.787   1.602 -0.1163 -0.1389  0.1438
 3633W        W 7684   7.276   1.977  10.073  0.2895 -0.0341 -0.4532
 3634W        W 7685   3.943   2.073   3.917  0.1933  0.0992 -0.0388
 3635W        W 7686   2.774   3.134   4.552 -0.1016  0.1384  0.0851
 3636W        W 7687   4.715   0.807  10.171  0.1416 -0.1989  0.0366
 3637W        W 7688   6.124   0.791  10.594 -0.0994 -0.1004 -0.0742
 3638W        W 7689   4.405   5.840   3.634 -0.2535  0.1459 -0.0526
 3639W        W 7690   2.890   0.137   9.848 -0.0945 -0.0773  0.2055
 3640W        W 7691   1.882   1.987   3.524 -0.1221  0.3353  0.0897
 3641W        W 7692   6.357   2.336  10.901 -0.1166  0.1555 -0.1938
 3642W        W 7693   9.265   9.455   9.554 -0.0385 -0.2980  0.0775
 3643W        W 7694   4.227   2.012   9.723 -0.1508 -0.0569  0.0839
 3644W        W 7695   8.589   9.811  11.863  0.1006 -0.0756  0.0570
 3645W        W 7696   9.479   6.862  12.422 -0.0487 -0.0569 -0.0386
 3646W        W 7697   8.637   5.770   8.360 -0.0284 -0.0713 -0.1125
 3647W        W 7698   8.608   1.974   3.103  0.2543  0.1886  0.1185
 3648W        W 7699   8.160   9.316  12.731  0.0347 -0.1210  0.1905
 3649W        W 7700   4.765   8.956  12.672 -0.0923 -0.1233 -0.0444
 3650W        W 7701   5.550   8.987  10.578 -0.0880 -0.1750  0.1009
 3651W        W 7702   7.197   0.121  12.467 -0.1295  0.2106  0.0532
 3652W        W 7703   7.821   9.570   5.054  0.0140  0.0270 -0.1890
 3653W        W 7704   9.840   2.488   0.757  0.0687 -0.2190  0.0466
 3654W        W 7705   2.773   9.471   2.704 -0.0483  0.0261  0.3412
 3655W        W 7706   5.344   0.396  13.132 -0.0835 -0.0665  0.1153
 3656W        W 7707   3.830   5.394   0.894 -0.0279 -0.1533 -0.3458
 3657W        W 7708   0.360   0.357  11.517  0.0236 -0.1157 -0.1855
 3658W        W 7709   8.334   1.644  12.846  0.1946  0.1429 -0.0195
 3659W        W 7710   6.415   6.262  11.029 -0.2598 -0.1359 -0.0484
 3660W        W 7711  10.081   8.208  10.582 -0.2414  0.0299 -0.0949
 3661W        W 7712   0.529  10.157  12.238 -0.2010 -0.0316  0.1646
 3662W        W 7713   3.067   5.454  13.797 -0.0451  0.2273 -0.2066
 3663W        W 7714   7.196   2.516  13.188 -0.1730  0.0869 -0.2665
 3664W        W 7715   1.948   9.794   4.460  0.3161 -0.2645  0.0035
 3665W        W 7716   2.051   4.002  13.173  0.0376 -0.0982  0.1296
 3666W        W 7717   8.443   3.336   3.590 -0.4064  0.1515 -0.1082
 3667W        W 7718   2.224   5.051  12.406  0.1495 -0.0706 -0.3362
 3668W        W 7719   0.342   8.217   3.091 -0.0886  0.0587 -0.1456
 3669W        W 7720   1.650   1.258   2.669 -0.0820 -0.2224 -0.2795
 3670W        W 7721   3.847   4.410   1.373 -0.1747 -0.1084 -0.0711
 3671W        W 7722   8.028   8.646   1.598 -0.0249 -0.0053 -0.1269
 3672W        W 7723   4.904   1.456   4.613 -0.0191  0.2421 -0.0357
 3673W        W 7724   2.757   5.040  12.012  0.2896 -0.0230  0.0056
 3674W        W 7725   4.852   5.405  12.633  0.0368  0.1882 -0.2823
 3675W        W 7726   0.274   3.797   9.912  0.1425  0.1906  0.3102
 3676W        W 7727   1.666   1.565   3.096 -0.1745  0.2721  0.0265
 3677W        W 7728   4.405   3.975   3.424 -0.2653 -0.0118  0.0212
 3678W        W 7729   1.741   6.844  12.724  0.2765  0.1884  0.0077
 3679W        W 7730   9.234   9.796   4.103  0.0118 -0.0091  0.3381
 3680W        W 7731   5.144   2.091   9.446  0.0431  0.0990  0.0326
 3681W        W 7732   5.916   7.040  10.344  0.2502 -0.3750 -0.0783
 3682W        W 7733   5.100   0.050  11.515  0.1232 -0.4838 -0.0695
 3683W        W 7734   7.439   6.604  10.918 -0.0906  0.0178 -0.3803
 3684W        W 7735   2.930   2.488   3.097 -0.1165 -0.3195 -0.2849
 3685W        W 7736   1.401   7.126   9.689  0.2231 -0.1731  0.3665
 3686W        W 7737   0.285   4.506  10.558  0.4408 -0.0190  0.0780
 3687W        W 7738   9.666   8.083  12.494 -0.3925  0.1546  0.2557
 3688W        W 7739   7.484   0.039   1.961  0.4562  0.1662 -0.4033
 3689W        W 7740   6.318   1.720  12.800 -0.2498 -0.1669  0.1918
 3690W        W 7741   2.567   2.785   1.956 -0.0119 -0.2964 -0.1271
 3691W        W 7742   7.709   8.413   2.214 -0.0789 -0.2691  0.2197
 3692W        W 7743   8.202   1.454   1.562  0.3065 -0.1430  0.0237
 3693W        W 7744   5.142   0.366   0.106  0.0366 -0.0826 -0.2304
 3694W        W 7745   4.716   2.779  12.945  0.1712 -0.0211  0.0530
 3695W        W 7746   1.006   3.541  11.745 -0.1141 -0.1133 -0.2294
 3696W        W 7747   4.731   0.010  13.037  0.0059 -0.1034 -0.1108
 3697W        W 7748   5.873   0.751  11.421  0.1677  0.1287 -0.1310
 3698W        W 7749   2.171   3.522  13.137  0.1751  0.2481  0.0685
 3699W        W 7750   8.002   0.137   0.177  0.0152 -0.2028 -0.1847
 3700W        W 7751   4.939   9.614   3.857  0.0238 -0.1606 -0.0060
 3701W        W 7752   3.999   1.849   2.058 -0.1658  0.1010  0.1026
 3702W        W 7753   0.292   5.540   3.485 -0.0248  0.3716  0.0587
 3703W        W 7754   2.960   2.004   2.960  0.3047  0.2270  0.1275
 3704W        W 7755   3.645   7.764   9.668  0.0946 -0.0395  0.0662
 3705W        W 7756   5.657   0.609   2.995 -0.0476 -0.2490  0.0625
 3706W        W 7757   8.056   3.072  11.997 -0.3111  0.1277  0.0759
 3707W        W 7758   8.187   9.607  10.629 -0.1501 -0.4694  0.0198
 3708W        W 7759   1.324   2.360  12.546  0.2281 -0.3559  0.2300
 3709W        W 7760   7.848   8.433  11.673 -0.1545  0.0733  0.0105
 3710W        W 7761   0.154   5.307   2.084  0.0406  0.1097  0.0058
 3711W        W 7762   5.295   6.984   4.551  0.0586 -0.1570  0.1166
 3712W        W 7763   4.148   8.341   1.576  0.3412  0.0968  0.0654
 3713W        W 7764   9.698   8.394   0.961 -0.0114  0.1749  0.1079
 3714W        W 7765   4.062   7.288   3.121 -0.2215  0.2120 -0.2333
 3715W        W 7766   3.921   8.102   4.850  0.2810  0.3546  0.1524
 3716W        W 7767   1.029   4.819  13.225 -0.2598  0.3001  0.0982
 3717W        W 7768   2.237   2.155   9.957 -0.0340  0.0085  0.0975
 3718W        W 7769   8.994   9.581   1.281 -0.1612  0.0800 -0.2992
 3719W        W 7770   0.825   8.989   0.373 -0.1904 -0.0927  0.2510
 3720W        W 7771   8.713   8.045   4.314 -0.0229  0.1164 -0.4985
 3721W        W 7772   1.992   3.039  12.216  0.0526 -0.1705  0.3705
 3722W        W 7773   9.217   6.590  12.751 -0.0504 -0.2024  0.3451
 3723W        W 7774   5.071   4.567   4.354 -0.3165  0.0795 -0.1527
 3724W        W 7775   1.258   5.026  10.661  0.1159  0.0807  0.1206
 3725W        W 7776   8.922   4.602   1.802  0.1304  0.0271 -0.4628
 3726W        W 7777   9.747   9.083   8.652 -0.2046 -0.2354 -0.1944
 3727W        W 7778   0.132   0.235   5.077  0.1195  0.0464  0.0855
 3728W        W 7779   3.474   2.314  12.390 -0.2411  0.1818 -0.3352
 3729W        W 7780   4.857   0.523   3.739 -0.0627  0.0180  0.1212
 3730W        W 7781   4.213   3.942  11.910  0.1488 -0.1982 -0.1561
 3731W        W 7782   9.911   7.458  10.940  0.2277  0.1425  0.0987
 3732W        W 7783   4.917   1.368  12.316 -0.1279 -0.3991 -0.2393
 3733W        W 7784   7.636   2.314   1.846 -0.3820 -0.2120  0.0903
 3734W        W 7785   4.262   4.117  12.615 -0.3348  0.0602 -0.3632
 3735W        W 7786   9.072   9.342   3.332  0.1735 -0.4302 -0.1972
 3736W        W 7787   7.355   9.471   5.177  0.0991 -0.3058  0.0963
 3737W        W 7788   0.588   8.407   1.790  0.1767 -0.0026  0.0340
 3738W        W 7789   4.599   7.532  11.120  0.1678 -0.0639  0.3313
 3739W        W 7790   0.991   6.182  12.466  0.0241  0.1235 -0.4567
 3740W        W 7791   4.123   5.066  10.136  0.3684  0.2230 -0.2556
 3741W        W 7792   2.277   1.516  12.221 -0.0482  0.3508  0.0381
 3742W        W 7793   1.356   9.069   4.404  0.1549  0.1840 -0.2092
 3743W        W 7794   3.375   6.819   0.791  0.3468  0.0757  0.1898
 3744W        W 7795   8.286   2.365  12.432 -0.2118  0.0994 -0.1404
 3745W        W 7796   4.049   7.779   3.269 -0.1076  0.1001  0.1510
 3746W        W 7797   0.031   6.774  13.045  0.1977 -0.4063 -0.1132
 3747W        W 7798   2.993   1.617   4.489 -0.1385 -0.1136 -0.3698
 3748W        W 7799   4.570   6.395   0.524 -0.0209 -0.1288  0.2517
 3749W        W 7800   3.781   4.518   2.232  0.0697 -0.0716  0.0820
 3750W        W 7801   9.925   7.777   0.683  0.0647 -0.3122  0.0473
 3751W        W 7802   5.071   7.466  12.415  0.2140  0.0835 -0.0796
 3752W        W 7803   4.665   6.235  12.038  0.0576 -0.5069  0.1419
 3753W        W 7804   7.748   5.196   4.659 -0.2381  0.1387  0.1474
 3754W        W 7805   2.146   6.490  12.972 -0.0200 -0.1282  0.0042
 3755W        W 7806   8.119   0.864  11.070  0.0066  0.0582 -0.0276
 3756W        W 7807   7.642   2.828  10.272  0.0641 -0.1070 -0.2254
 3757W        W 7808   4.393   8.556  13.065  0.1167 -0.1801  0.0004
 3758W        W 7809   5.507   9.662   4.604 -0.1454  0.0061 -0.1765
 3759W        W 7810   7.447   4.009   2.399 -0.2167 -0.1910 -0.1203
 3760W        W 7811   1.650   2.140   0.091 -0.1520  0.0537  0.0915
 3761W        W 7812   4.581   3.741   1.432 -0.0929  0.2677 -0.2351
 3762W        W 7813   2.001   9.410   1.686 -0.1156 -0.1481  0.0291
 3763W        W 7814   5.940   2.990   1.802 -0.4167  0.1314 -0.2731
 3764W        W 7815   1.510   0.868  11.081  0.1765  0.0522 -0.3189
 3765W        W 7816   0.206   9.832  12.421  0.0068  0.2961  0.1620
 3766W        W 7817   9.555   4.926   2.401  0.2432  0.4645 -0.2382
 3767W        W 7818   4.799   9.722  12.535 -0.0195  0.1283 -0.2152
 3768W        W 7819   9.884   2.639   3.715 -0.1807 -0.0262 -0.1220
 3769W        W 7820   5.396   9.216  12.229 -0.4136 -0.1303 -0.0301
 3770W        W 7821   5.542   7.371   4.186 -0.1897  0.0678  0.3318
 3771W        W 7822   9.285   0.179   0.848 -0.2005 -0.1437 -0.1267
 3772W        W 7823   4.168   5.383  11.448  0.2439 -0.5310 -0.1951
 3773W        W 7824   7.795   4.847  10.550 -0.2495  0.2575  0.3073
 3774W        W 7825   4.890   6.722   0.229  0.1255 -0.0242 -0.2119
 3775W        W 7826   1.736   8.135  12.406 -0.1633  0.1583  0.2954
 3776W        W 7827   2.705   1.015  11.763  0.1413 -0.1915  0.2900
 3777W        W 7828   8.342   0.209   3.644 -0.1305 -0.0061  0.2174
 3778W        W 7829   3.266   7.548   0.261 -0.0123 -0.0177 -0.0923
 3779W        W 7830   8.520   0.920   0.963  0.2223 -0.0578 -0.1313
 3780W        W 7831   6.031   7.858  11.652 -0.2237 -0.3376 -0.0343
 3781W        W 7832   3.090   6.719   2.128  0.1687  0.0867  0.0647
 3782W        W 7833   1.783   9.063   2.594 -0.1061 -0.1638 -0.0890
 3783W        W 7834   6.038   4.859   4.414  0.2667 -0.0215  0.1891
 3784W        W 7835   7.467   5.423  13.175 -0.1984 -0.0007 -0.0670
 3785W        W 7836   6.165   3.467   0.154  0.1584  0.0541 -0.2165
 3786W        W 7837   9.578   0.051   3.292  0.0382  0.1055  0.2622
 3787W        W 7838   7.037   3.200  10.827 -0.1469  0.0036 -0.0714
 3788W        W 7839   8.625   7.307   9.766  0.1253 -0.2666 -0.0604
 3789W        W 7840   7.754   0.674   9.613  0.0053  0.0137  0.0005
 3790W        W 7841   4.124   7.203  13.862  0.1054  0.1165  0.2761
 3791W        W 7842   9.392   9.351   9.070 -0.1781 -0.2900 -0.0572
 3792W        W 7843   0.273   7.320  10.896  0.0906 -0.0219  0.0812
 3793W        W 7844   4.645   6.986   3.124  0.3099 -0.0478  0.0227
 3794W        W 7845   9.023   8.371  13.810  0.1769 -0.4463 -0.1645
 3795W        W 7846   8.869  10.041  13.318 -0.0278  0.1945 -0.1265
 3796W        W 7847  10.141   0.603  11.505 -0.2339  0.1380 -0.0501
 3797W        W 7848   0.749   2.639  10.021 -0.4587  0.0364 -0.1687
 3798W        W 7849   3.998   9.231   2.764 -0.3565 -0.4061  0.0227
 3799W        W 7850   0.166   2.935   4.087 -0.0296  0.0599 -0.0685
 3800W        W 7851   4.046   8.038   3.997 -0.0601  0.0323 -0.3109
 3801W        W 7852   5.621   4.612   4.386  0.1975 -0.4432 -0.3035
 3802W        W 7853   2.386   9.271  13.493 -0.0233 -0.0361  0.0281
 3803W        W 7854   8.606   1.688   0.514 -0.2365 -0.1417 -0.0273
 3804W        W 7855   5.973   4.299   2.597  0.3413 -0.1919  0.0249
 3805W        W 7856   0.613   2.391   0.769 -0.0618  0.0230 -0.3538
 3806W        W 7857   9.026   9.373   2.768 -0.1865  0.0820 -0.1132
 3807W        W 7858   8.461   0.227   1.998  0.1545  0.1493 -0.1113
 3808W        W 7859   3.606   7.818   0.535  0.1591 -0.3581  0.0305
 3809W        W 7860   5.322   3.937   2.601  0.1978  0.0643  0.0818
 3810W        W 7861   8.405   7.892  11.762 -0.0899 -0.0336  0.0448
 3811W        W 7862   9.986   1.904   5.330 -0.0393  0.1709  0.0507
 3812W        W 7863   0.512   5.501   3.887  0.1669  0.2753 -0.0780
 3813W        W 7864   4.566   9.858  10.951 -0.1114 -0.2802 -0.0050
 3814W        W 7865   0.585   3.133  11.717  0.3166  0.1514  0.1183
 3815W        W 7866   9.617   6.364   4.003  0.0589 -0.2762  0.3034
 3816W        W 7867   1.145   3.323  12.273  0.0266 -0.0036  0.1139
 3817W        W 7868   6.722   6.611  10.091 -0.4562  0.3038  0.0473
 3818W        W 7869   7.794   6.101  12.054  0.1152  0.3553  0.3288
 3819W        W 7870  10.090   3.094  12.583  0.1417  0.3129  0.0306
 3820W        W 7871   3.756   4.767  10.226  0.2579 -0.1617 -0.1956
 3821W        W 7872   7.067   4.780   9.666 -0.2857 -0.1298 -0.1503
 3822W        W 7873   6.591   8.640   8.811  0.0214 -0.0175 -0.2812
 3823W        W 7874   8.817   7.713  13.898 -0.0763  0.0460 -0.0252
 3824W        W 7875   8.771   9.217   0.943  0.0301  0.2678 -0.2622
 3825W        W 7876   6.747   4.567   0.661  0.1262  0.2489  0.1075
 3826W        W 7877   9.969   0.789   2.808  0.2417 -0.1044  0.0277
 3827W        W 7878   0.346   3.213   1.806 -0.1828  0.0502  0.1814
 3828W        W 7879   7.083   2.014   9.240  0.2600 -0.0696 -0.1428
 3829W        W 7880   5.967   3.706   3.408 -0.1307 -0.1700 -0.0973
 3830W        W 7881   1.005   4.764  11.776 -0.0972 -0.1224  0.2159
 3831W        W 7882   6.115   0.803  10.000  0.2330  0.1104 -0.1192
 3832W        W 7883   2.884   0.084  13.625 -0.1898  0.1526 -0.2816
 3833W        W 7884   2.324   8.669   9.341  0.2888 -0.0950 -0.1092
 3834W        W 7885   2.961   9.319   2.144  0.0685  0.1381  0.1917
 3835W        W 7886   1.453   5.551   0.754 -0.0950  0.1055 -0.0662
 3836W        W 7887   7.463   2.062  13.907 -0.0839  0.0812 -0.2416
 3837W        W 7888   6.467   0.594   0.494  0.2457 -0.0374 -0.0371
 3838W        W 7889   8.664   8.262   1.026 -0.1740  0.3474 -0.0334
 3839W        W 7890   2.467   8.651   9.948  0.4390  0.0493 -0.2160
 3840W        W 7891   5.300   5.721  10.273  0.1407 -0.2299 -0.1527
 3841W        W 7892   6.992   3.252   3.542  0.1224  0.0762 -0.0005
 3842W        W 7893   8.998   8.315  11.163 -0.1909  0.2796  0.2037
 3843W        W 7894   5.971   5.122  11.232  0.2797  0.1234 -0.2157
 3844W        W 7895   9.268   0.292   0.366  0.0764  0.0997  0.1303
 3845W        W 7896   6.847   0.963  13.566  0.1382  0.4312 -0.1202
 3846W        W 7897   3.897   9.768   0.031 -0.0012 -0.0799 -0.0267
 3847W        W 7898   2.047   1.816  13.540  0.0225  0.2047  0.0539
 3848W        W 7899   4.051   4.475  11.341  0.2141 -0.0907  0.1715
 3849W        W 7900   5.123   2.453   1.977 -0.1293  0.1793  0.1984
 3850W        W 7901   5.232   4.211  12.099  0.0288 -0.2563 -0.1385
 3851W        W 7902   9.467   0.124   4.897 -0.0365  0.2044  0.1020
 3852W        W 7903   8.739   5.505   0.099 -0.4043 -0.0101  0.0606
 3853W        W 7904   0.539   8.059   0.255 -0.1267  0.0614 -0.1596
 3854W        W 7905   2.983   0.795   4.977 -0.0843  0.0918 -0.2828
 3855W        W 7906   4.339   7.859   2.788 -0.0298 -0.1037 -0.2084
 3856W        W 7907   6.034   4.876  13.922 -0.1921 -0.1859  0.1035
 3857W        W 7908   9.136   8.010   0.171  0.2570  0.0669  0.1017
 3858W        W 7909   6.343   1.078   0.559 -0.0093  0.0052 -0.0694
 3859W        W 7910   5.569   6.173  13.586 -0.0679 -0.1366 -0.0855
 3860W        W 7911   9.287   0.732  11.115  0.2809 -0.0336 -0.2037
 3861W        W 7912   5.301   2.573  10.679 -0.1306 -0.0808  0.1344
 3862W        W 7913   4.959   7.682  13.072 -0.0864  0.1683  0.3353
 3863W        W 7914   7.250   8.348  13.116 -0.3765 -0.3004 -0.1174
 3864W        W 7915   8.700   3.529  12.900 -0.0056 -0.2194 -0.0197
 3865W        W 7916   6.052   1.935   9.997  0.2097  0.0958  0.1886
 3866W        W 7917   5.587   8.024   2.098  0.0905 -0.2630  0.1267
 3867W        W 7918   6.272   3.190   0.536  0.4298  0.0926 -0.1905
 3868W        W 7919   3.031   2.058   1.689 -0.0232 -0.0667  0.0460
 3869W        W 7920   9.164   7.533   0.295 -0.0513 -0.1467 -0.3085
 3870W        W 7921   0.727  10.126   9.797 -0.0178 -0.2328  0.0509
 3871W        W 7922   0.510   4.948   2.300 -0.0124 -0.0941 -0.2236
 3872W        W 7923   5.121   9.267  10.430  0.1031 -0.0730 -0.0373
 3873W        W 7924   6.321   8.821   0.552  0.2398 -0.1587 -0.0609
 3874W        W 7925   8.156   9.649   2.806 -0.1471 -0.3971  0.1100
 3875W        W 7926   0.692   3.890  12.137 -0.3250 -0.5557 -0.0714
 3876W        W 7927   2.971   2.254  10.442  0.0771 -0.2521  0.3595
 3877W        W 7928   0.254   2.241   2.747  0.4713  0.1563  0.2227
 3878W        W 7929   5.005   6.406   2.585  0.0684  0.3545 -0.0077
 3879W        W 7930   8.165   0.055  10.426 -0.0753  0.2791  0.0434
 3880W        W 7931   1.461   2.633   3.440 -0.0799 -0.3241 -0.1543
 3881W        W 7932   1.657   5.270  10.842  0.1432  0.1172 -0.4444
 3882W        W 7933   7.679   0.527   4.124 -0.0321  0.2330 -0.3338
 3883W        W 7934   0.479   5.068   1.546 -0.2002 -0.0784  0.1007
 3884W        W 7935   6.158   2.304   3.509 -0.1538  0.0497 -0.0730
 3885W        W 7936   9.052   6.924  10.413 -0.0048  0.2021 -0.4949
 3886W        W 7937   2.039   8.910   3.555  0.0843  0.0144 -0.2885
 3887W        W 7938   8.954   0.039  10.728 -0.1322 -0.2810  0.0139
 3888W        W 7939   9.661   5.201   0.463  0.2223 -0.0342  0.0480
 3889W        W 7940   1.436   0.097  10.389  0.2078  0.2047 -0.2277
 3890W        W 7941   5.552   8.795   1.241 -0.0392  0.2252  0.2273
 3891W        W 7942   3.185   3.290   3.795  0.1951  0.1737  0.0722
 3892W        W 7943   0.911   1.803   2.562 -0.0951 -0.1190 -0.0772
 3893W        W 7944   6.649   7.492  13.864  0.1302 -0.1750 -0.0482
 3894W        W 7945   6.585   1.519   0.690  0.1088  0.1863 -0.1136
 3895W        W 7946   4.219   7.932   5.687 -0.1789 -0.2903 -0.0069
 3896W        W 7947   7.839   2.706   9.290 -0.1875  0.2202 -0.0075
 3897W        W 7948   2.526   1.548  12.698  0.0346  0.2169 -0.4510
 3898W        W 7949   5.562   3.294   3.242 -0.0165  0.0173  0.1231
 3899W        W 7950   2.550   9.601  11.785 -0.0905 -0.2217 -0.2438
 3900W        W 7951   0.402   6.437   0.695  0.1318 -0.0668 -0.0953
 3901W        W 7952   2.147   2.973   1.747  0.0340  0.0342 -0.0631
 3902W        W 7953   4.078   3.179  10.374  0.0889 -0.0730 -0.2806
 3903W        W 7954   8.498   9.930  10.200  0.5290 -0.0700  0.2653
 3904W        W 7955   6.075   4.768   2.582  0.0833 -0.0986  0.2345
 3905W        W 7956   4.102   7.151  13.070 -0.3844 -0.0420  0.0275
 3906W        W 7957   3.699   8.219   0.194 -0.1003 -0.1014 -0.0567
 3907W        W 7958   8.694   2.858  13.774  0.2408 -0.0483 -0.1703
 3908W        W 7959   7.977   8.604  12.201 -0.2809  0.0472 -0.2953
 3909W        W 7960   4.165   6.838   3.844 -0.1506  0.0607  0.0830
 3910W        W 7961   0.220   2.524  13.055  0.0918  0.0852  0.1186
 3911W        W 7962   3.804   4.269  11.772 -0.0815  0.0891  0.0264
 3912W        W 7963   8.882   3.236   4.563 -0.0257 -0.0920  0.0910
 3913W        W 7964   2.076   1.198  11.792 -0.2313  0.2916  0.1644
 3914W        W 7965   3.613   2.433   0.398  0.5060 -0.2580 -0.0299
 3915W        W 7966   8.346   2.131   4.200 -0.1607 -0.1070 -0.0991
 3916W        W 7967   8.513   8.646   2.513 -0.0963  0.0551 -0.1185
 3917W        W 7968   1.334   0.186  13.966 -0.1973 -0.0520 -0.0261
 3918W        W 7969   7.934   5.647  13.186 -0.1586  0.0081 -0.0786
 3919W        W 7970   4.508   8.915   2.733  0.0721 -0.2241 -0.0225
 3920W        W 7971   3.405   2.905  13.653  0.3925 -0.2218  0.1319
 3921W        W 7972   8.696   1.920  12.385  0.3914 -0.1800 -0.0252
 3922W        W 7973   7.397  10.014   2.426  0.1591 -0.1426 -0.2851
 3923W        W 7974  10.062   6.257  12.883 -0.0820 -0.0839 -0.1381
 3924W        W 7975   9.994   6.604   4.220  0.1266 -0.0093 -0.0780
 3925W        W 7976   7.642   3.933   3.678  0.1662  0.1168 -0.0377
 3926W        W 7977   5.173   4.999  12.580 -0.2538 -0.2799 -0.0344
 3927W        W 7978   7.454   3.485  10.165 -0.0632  0.3907 -0.0693
 3928W        W 7979   8.621   5.486  13.434  0.0900  0.1913  0.0044
 3929W        W 7980   6.028   7.409  10.003  0.3001  0.1791  0.4659
 3930W        W 7981   6.085   7.111  12.915  0.0057  0.3064 -0.0174
 3931W        W 7982   5.509  10.091  11.223  0.3371  0.1663  0.0975
 3932W        W 7983   9.100   3.189  13.775 -0.0532 -0.1474 -0.0537
 3933W        W 7984   7.567   7.646   9.456 -0.1482 -0.0841  0.2280
 3934W        W 7985   4.456   6.905   0.391 -0.0500  0.0582  0.0179
 3935W        W 7986   8.069   5.977   3.475  0.0163 -0.1635  0.1951
 3936W        W 7987   3.031   3.330  12.963 -0.0616  0.0096 -0.2102
 3937W        W 7988   2.372   8.969   4.862 -0.0277 -0.1513  0.1810
 3938W        W 7989   1.854   5.350  13.159  0.3007  0.2097 -0.0809
 3939W        W 7990   7.937   4.018   4.116 -0.4641 -0.1085 -0.0859
 3940W        W 7991   2.223   3.518   2.467  0.0065 -0.1388 -0.0391
 3941W        W 7992   2.224   5.894   0.501 -0.3419 -0.2677 -0.0040
 3942W        W 7993   0.867   3.223  11.280  0.0759  0.4754 -0.0054
 3943W        W 7994   5.195   5.238  13.302 -0.1564 -0.2119 -0.3960
 3944W        W 7995   0.562   7.889   4.204  0.1942 -0.1189  0.0769
 3945W        W 7996   5.984   0.197  13.741  0.1616  0.2416  0.0570
 3946W        W 7997   7.258   6.322   9.530 -0.2372 -0.1526 -0.2167
 3947W        W 7998   1.212   3.121   2.224 -0.1335  0.0261  0.0957
 3948W        W 7999   4.875   6.667  11.173 -0.0233  0.0098  0.1305
 3949W        W 8000   3.789   5.725  12.849  0.0074  0.0111 -0.2229
 3950W        W 8001   8.456  10.023  10.709 -0.1458 -0.2485  0.0512
 3951W        W 8002   5.306   7.874  12.747  0.2832 -0.0752 -0.1012
 3952W        W 8003   5.488   3.506   0.914  0.1496  0.0754  0.1625
 3953W        W 8004   5.801   0.749   3.853 -0.0608 -0.0734  0.2594
 3954W        W 8005   8.912  10.184  10.078 -0.0367  0.0215 -0.0195
 3955W        W 8006   5.437   3.856   3.383 -0.3141 -0.1782 -0.2332
 3956W        W 8007   7.851   2.298   4.418  0.4209  0.1127  0.3091
 3957W        W 8008   3.210   8.083   0.171 -0.0569  0.0418 -0.1273
 3958W        W 8009   4.201   3.278  13.029  0.2003 -0.1440 -0.0553
 3959W        W 8010   4.799   3.708   4.141 -0.3772 -0.1132 -0.1409
 3960W        W 8011   5.472   0.304   0.577 -0.0235 -0.0094 -0.0608
 3961W        W 8012   1.150   4.610   1.228  0.2668  0.0086 -0.2209
 3962W        W 8013   2.606   4.577  11.848 -0.0692 -0.1842 -0.2564
 3963W        W 8014   5.703   9.282   3.313 -0.1499  0.0575 -0.1411
 3964W        W 8015   2.349   7.345  12.534 -0.0423  0.1553 -0.2390
 3965W        W 8016   6.187   6.413  12.365  0.1007 -0.3837 -0.2798
 3966W        W 8017   4.211   1.580   3.911 -0.0924  0.1406  0.0314
 3967W        W 8018   5.123   4.196   3.037 -0.1352  0.1455  0.2504
 3968W        W 8019   3.496   0.179   0.807 -0.3182 -0.0764 -0.0218
 3969W        W 8020   3.159   5.225  12.210  0.0918 -0.2331 -0.0271
 3970W        W 8021   0.631   8.149   0.732 -0.1250  0.1755 -0.2243
 3971W        W 8022   5.618   9.616  11.257 -0.2226  0.0769 -0.2070
 3972W        W 8023   8.397   6.816   2.722 -0.0811 -0.2591 -0.2239
 3973W        W 8024   9.307   0.151   2.715  0.0920  0.1109 -0.2514
 3974W        W 8025   8.822   4.160  11.146 -0.1784 -0.2614  0.0179
 3975W        W 8026   9.933   6.790   9.732 -0.0803  0.0689 -0.1615
 3976W        W 8027   6.209   9.523  12.770 -0.1611 -0.0100 -0.2322
 3977W        W 8028   2.484   8.623   0.824  0.0936 -0.0847  0.2167
 3978W        W 8029   3.952   6.431   3.721  0.0811 -0.1052  0.1726
 3979W        W 8030   4.406   4.971  10.695  0.1263 -0.0341  0.2360
 3980W        W 8031   0.619   2.432  11.888  0.1090 -0.0548 -0.1757
 3981W        W 8032   3.860   5.857   3.730 -0.1833  0.0275  0.1793
 3982W        W 8033   6.249   7.259  12.003 -0.1149  0.3542  0.0650
 3983W        W 8034   6.940   7.381   9.933 -0.0234 -0.2947  0.2786
 3984W        W 8035   9.923   9.977   4.753 -0.1825 -0.0739  0.0861
 3985W        W 8036   8.958   5.701   4.457  0.0600  0.0740  0.4054
 3986W        W 8037   6.144   5.351  10.285  0.0482 -0.1895  0.0278
 3987W        W 8038  10.030   6.424   0.941 -0.0293  0.1505 -0.0236
 3988W        W 8039   9.937   2.699  12.270  0.1259 -0.0661 -0.0948
 3989W        W 8040   5.434   3.569  10.446 -0.1482 -0.0969 -0.2733
 3990W        W 8041  10.159   6.959  13.507 -0.0771 -0.0063 -0.1156
 3991W        W 8042   8.250   0.465   4.124 -0.2330  0.2596 -0.4483
 3992W        W 8043   9.368   6.846   4.907  0.2024  0.2862  0.0246
 3993W        W 8044   1.657   2.381  10.227  0.1732 -0.0876 -0.2220
 3994W        W 8045   2.379   9.726   1.717 -0.0422  0.0059  0.3295
 3995W        W 8046   1.428   7.647   0.071 -0.0619 -0.0773 -0.0750
 3996W        W 8047   4.804   8.327  12.143 -0.0049  0.0120  0.0837
 3997W        W 8048   9.918   5.723  10.540  0.5704  0.1269 -0.0701
 3998W        W 8049   4.613   9.069   0.055  0.0020  0.2641  0.0420
 3999W        W 8050   9.998   0.463   3.755  0.0903  0.1156 -0.0686
 4000W        W 8051   1.742   7.160  11.294  0.0265 -0.2776 -0.1468
 4001W        W 8052   6.002   3.047  11.937  0.0248 -0.2041 -0.0102
 4002W        W 8053   4.415   7.756   3.651  0.2939 -0.3553 -0.0672
 4003W        W 8054   5.614   0.873  13.304  0.0394 -0.0253  0.3410
 4004W        W 8055   8.037   6.910   2.360  0.0149  0.2922  0.0061
 4005W        W 8056   0.315   1.165   0.404  0.1789  0.0685 -0.0224
 4006W        W 8057   9.420   9.274  12.514  0.1256 -0.1046  0.0638
 4007W        W 8058   3.881   8.379   9.783 -0.0182 -0.0686  0.2229
 4008W        W 8059   4.151   2.417   2.208  0.0512  0.3611  0.2081
 4009W        W 8060   1.750   5.684  12.833  0.2390  0.0494 -0.1782
 4010W        W 8061   1.774   9.581  10.135  0.0460  0.0154  0.0637
 4011W        W 8062   5.877   9.446   2.263  0.2810  0.0630  0.0113
 4012W        W 8063   2.001   9.067   5.160  0.2463  0.0328 -0.1949
 4013W        W 8064   5.148   1.938   0.776  0.1436 -0.2018  0.4225
 4014W        W 8065   8.185   4.329   5.022  0.3202  0.0826 -0.1716
 4015W        W 8066   0.674   2.245   2.415 -0.0366  0.1948  0.3310
 4016W        W 8067   6.729   4.806   3.787  0.0529  0.2268 -0.5022
 4017W        W 8068   9.929   3.343   1.028  0.3701 -0.2601  0.2438
 4018W        W 8069   0.921   8.255  11.926  0.3166  0.0698  0.1195
 4019W        W 8070   5.457   6.754   3.264  0.1195  0.0679  0.0812
 4020W        W 8071  10.073  10.036   9.699 -0.0113 -0.3829 -0.0419
 4021W        W 8072   8.583   3.956   2.907 -0.1398  0.3278  0.3396
 4022W        W 8073   3.801   3.456  12.370 -0.0750 -0.0518  0.0106
 4023W        W 8074   8.156  10.038  12.206 -0.0864 -0.0719  0.1183
 4024W        W 8075   4.502  10.135   8.335 -0.2061 -0.0453  0.1737
 4025W        W 8076   5.578   7.320   4.763  0.1761  0.0852 -0.0755
 4026W        W 8077   9.286   7.935  11.491  0.0263 -0.0800  0.1249
 4027W        W 8078  10.087   6.999   3.549 -0.2728 -0.2739 -0.2029
 4028W        W 8079   8.449   5.505   0.900 -0.0279  0.1012  0.0447
 4029W        W 8080   6.925   2.644   9.596  0.0614  0.4044 -0.1426
 4030W        W 8081   1.019   0.998  11.253  0.1089 -0.2182  0.1285
 4031W        W 8082   1.007   5.771   1.962  0.0704 -0.2615  0.2972
 4032W        W 8083   6.688   4.611  10.962  0.0824  0.2116  0.0647
 4033W        W 8084   2.691   5.376  12.365  0.1659 -0.0131  0.0859
 4034W        W 8085   4.610  10.181   2.018  0.1716  0.1190 -0.1691
 4035W        W 8086   2.628   8.875  13.239 -0.2389  0.3053  0.3053
 4036W        W 8087   8.641   2.174  10.794  0.3270 -0.0496 -0.0379
 4037W        W 8088   9.898   2.678   4.196  0.1373  0.1273  0.1331
 4038W        W 8089   6.049   2.273   4.388 -0.3985 -0.0590 -0.0061
 4039W        W 8090   4.139   4.903  12.643 -0.1073 -0.0689  0.0228
 4040W        W 8091   8.358   9.931  13.167  0.1936  0.1303 -0.1965
 4041W        W 8092   4.678   6.893   3.727 -0.4265 -0.0927  0.0165
 4042W        W 8093   4.205   7.744  13.543  0.0251 -0.1788 -0.1888
 4043W        W 8094   8.231   7.429  10.569 -0.1537 -0.3022  0.4572
 4044W        W 8095   6.790   5.261   3.949  0.0641 -0.2283  0.3005
 4045W        W 8096   7.984   6.257   4.383  0.2557  0.1567 -0.0253
 4046W        W 8097  10.156   2.059  10.999 -0.1502 -0.1577  0.2315
 4047W        W 8098   0.884   8.358  12.847 -0.2313 -0.1296 -0.3027
 4048W        W 8099   8.771   1.907  13.650 -0.1479 -0.2314  0.2291
 4049W        W 8100   1.866   1.846  13.040  0.0052  0.0187  0.1651
 4050W        W 8101   9.200   4.093   9.188  0.3400 -0.1969 -0.0205
 4051W        W 8102   5.124   8.508   4.913 -0.1777  0.1457 -0.1157
 4052W        W 8103   0.004   3.301  11.652 -0.4760 -0.0609  0.1381
 4053W        W 8104   0.867   8.281   3.429 -0.0461  0.0169 -0.1174
 4054W        W 8105   0.929   8.085  10.655 -0.1670 -0.2295 -0.0835
 4055W        W 8106   4.554   8.836  11.012  0.0518  0.3201  0.5174
 4056W        W 8107   5.180   4.105  13.185 -0.0071 -0.0217  0.0929
 4057W        W 8108   5.755   5.619   3.582  0.0144 -0.3567  0.1529
 4058W        W 8109   1.238   5.197   4.274 -0.0386  0.3617  0.1866
 4059W        W 8110   6.499   6.043   9.500  0.0525 -0.0533  0.1915
 4060W        W 8111   3.090   9.112   1.183 -0.0045 -0.2024 -0.2437
 4061W        W 8112   2.536   8.775   0.317  0.1036 -0.2315 -0.2684
 4062W        W 8113   6.809   0.703   1.832 -0.2519 -0.1206  0.1965
 4063W        W 8114   5.696  10.016  12.216 -0.1591  0.2527 -0.1161
 4064W        W 8115   9.331  10.172  12.516  0.0117 -0.0160 -0.0198
 4065W        W 8116   0.045   7.702   4.467 -0.0216 -0.1609 -0.1767
 4066W        W 8117   7.833   3.416  13.321  0.0843  0.2731  0.2713
 4067W        W 8118   9.235   6.289  10.999  0.2010  0.0372 -0.2408
 4068W        W 8119   8.656   2.909   2.932 -0.0904  0.2347  0.0266
 4069W        W 8120   4.386   1.350  10.328  0.0878  0.1535 -0.4025
 4070W        W 8121   2.724   4.612   3.652  0.2685 -0.3032  0.3910
 4071W        W 8122   2.431   7.692   3.949 -0.0893 -0.3136 -0.2476
 4072W        W 8123   6.556   2.908   3.305 -0.1210  0.1803 -0.1299
 4073W        W 8124   7.180   5.422  13.616  0.0960  0.3102 -0.1226
 4074W        W 8125   9.729   1.524   4.586 -0.0790  0.1998  0.3184
 4075W        W 8126   4.344   1.775   2.868 -0.1395 -0.0158 -0.0756
 4076W        W 8127   1.960   6.236  11.656 -0.0262 -0.0184  0.1110
 4077W        W 8128   7.447   8.595   1.771 -0.0951  0.1280 -0.0582
 4078W        W 8129   7.335   4.650  12.476  0.0527 -0.0758 -0.1667
 4079W        W 8130   9.532   6.704  13.800 -0.0600 -0.3265 -0.0637
 4080W        W 8131   7.105   7.698   9.416 -0.1284 -0.1740  0.2570
 4081W        W 8132   0.903   4.343   1.566  0.1329 -0.1547 -0.3796
 4082W        W 8133   2.272   6.786   3.211  0.0139  0.0711  0.1082
 4083W        W 8134   5.117   6.902  10.423  0.1067 -0.0540  0.1834
 4084W        W 8135   6.025   5.911  13.309  0.0277 -0.2826 -0.0794
 4085W        W 8136   5.143   7.771   1.137  0.1281 -0.1394 -0.1593
 4086W        W 8137   7.615   7.746   2.964 -0.0738  0.4834 -0.0597
 4087W        W 8138   7.180   3.737   3.833 -0.0326 -0.1484 -0.0638
 4088W        W 8139   3.683   2.351   2.931  0.1051 -0.0549  0.1118
 4089W        W 8140   5.864   7.524  11.996 -0.3056 -0.1339  0.1313
 4090W        W 8141   9.404   0.965   2.982  0.2072 -0.0469  0.1056
 4091W        W 8142   6.108   3.995  10.724 -0.0369 -0.0983  0.0286
 4092W        W 8143   7.370   1.664   1.071 -0.1695  0.3646 -0.2023
 4093W        W 8144   4.722   4.145  12.143 -0.2232 -0.1658  0.3547
 4094W        W 8145   8.044   3.975   0.505  0.0101 -0.1967 -0.1210
 4095W        W 8146   2.483   7.752   0.801  0.3121  0.0220  0.0388
 4096W        W 8147   7.414   0.403   2.961 -0.1566 -0.0329 -0.3973
 4097W        W 8148   1.924   7.176   0.675 -0.2335 -0.1071 -0.0075
 4098W        W 8149   2.412   8.496   2.271 -0.2749 -0.0823  0.0136
 4099W        W 8150   2.271   0.981   1.996 -0.2552 -0.2578  0.1323
 4100W        W 8151   6.032   8.009   9.948  0.0525 -0.0802 -0.5014
 4101W        W 8152   0.907  10.169   4.970 -0.1056 -0.0688  0.0179
 4102W        W 8153   6.886   3.366  13.603 -0.1986 -0.3310 -0.2590
 4103W        W 8154  10.128   9.644   9.432  0.1799  0.3512 -0.4314
 4104W        W 8155  10.041   3.729  10.690 -0.0677 -0.1266 -0.0002
 4105W        W 8156   4.247   8.926  12.640 -0.1521  0.0308  0.3912
 4106W        W 8157   0.224   0.287   9.123 -0.2195 -0.0644 -0.0038
 4107W        W 8158   6.389   2.933  10.022 -0.0273  0.0439  0.2477
 4108W        W 8159   0.329   6.082  11.297 -0.0958  0.0081  0.1606
 4109W        W 8160   1.603   9.263   2.145 -0.2889 -0.1673 -0.2054
 4110W        W 8161   5.684   5.507  10.071  0.0792 -0.2939  0.0597
 4111W        W 8162   3.272  10.012  13.513 -0.3374  0.0331 -0.2382
 4112W        W 8163   5.083   6.829   4.097  0.1916 -0.2635  0.0447
 4113W        W 8164   1.974   7.572  13.908 -0.1491  0.1768  0.1487
 4114W        W 8165   2.326   8.579  11.619  0.3270  0.2570  0.0163
 4115W        W 8166   6.791   2.858   2.409  0.2692 -0.0595 -0.1591
 4116W        W 8167   6.610   7.052   4.715 -0.1629  0.0284 -0.3334
 4117W        W 8168   7.268   7.295   4.489  0.2135  0.0019  0.0151
 4118W        W 8169   9.049   2.771   1.210  0.2947 -0.1110 -0.0475
 4119W        W 8170   3.529   5.200  13.765  0.0389  0.1047 -0.2330
 4120W        W 8171   0.860   6.724   0.468  0.1274 -0.2052  0.1236
 4121W        W 8172   1.687   8.203   9.978  0.0790  0.1266 -0.0715
 4122W        W 8173   7.526   9.616   2.635 -0.1930 -0.0004 -0.0463
 4123W        W 8174   1.172   0.282   1.909  0.4626  0.2457 -0.1204
 4124W        W 8175   4.085   6.424   2.876 -0.2835 -0.3667 -0.0394
 4125W        W 8176   6.859   8.824   0.938  0.1746 -0.1332  0.0830
 4126W        W 8177   1.690   0.298  11.264  0.1711  0.0052 -0.0506
 4127W        W 8178   1.687   8.219   2.864  0.3490 -0.1675  0.1102
 4128W        W 8179   5.010   4.254  10.020  0.1208  0.1528 -0.1143
 4129W        W 8180   0.135   5.332  13.327  0.0222 -0.1024 -0.3559
 4130W        W 8181  10.015   2.498  11.266  0.0815 -0.0352 -0.0520
 4131W        W 8182   8.475   1.075  12.097  0.1186 -0.2630  0.0301
 4132W        W 8183   6.297  10.025   1.145  0.0202  0.0131 -0.0023
 4133W        W 8184   5.165   1.818  13.762 -0.1689 -0.1635 -0.1454
 4134W        W 8185   8.809   5.217  12.492 -0.0663 -0.0549  0.2169
 4135W        W 8186   2.749   3.327  11.863 -0.0493 -0.1567 -0.0136
 4136W        W 8187   8.919   6.272  11.948  0.2174  0.3376 -0.1969
 4137W        W 8188   6.909   4.215   2.036 -0.1169 -0.3765 -0.2199
 4138W        W 8189   6.376   7.422   2.823  0.0958 -0.0635 -0.1822
 4139W        W 8190   7.747   3.106  12.448 -0.1065 -0.1032 -0.0788
 4140W        W 8191   6.767   3.855   1.283 -0.2103 -0.1829 -0.6260
 4141W        W 8192   7.063   7.312  13.554 -0.0128  0.2603 -0.0938
 4142W        W 8193   5.879   6.706   9.431 -0.1813 -0.0982  0.4008
 4143W        W 8194   5.080   0.825  13.037  0.0899 -0.0603  0.0772
 4144W        W 8195   1.119   5.078   2.997  0.0995 -0.1894  0.0536
 4145W        W 8196   9.259   5.027  12.256  0.3773  0.2292  0.2673
 4146W        W 8197   5.402   4.667   0.568 -0.1023 -0.1303 -0.1158
 4147W        W 8198   9.145   9.738  11.851  0.0075  0.2311  0.0094
 4148W        W 8199   9.749   7.008  11.070  0.2433 -0.1276  0.3938
 4149W        W 8200   0.158   4.652  11.900  0.1513  0.0086  0.0283
 4150W        W 8201   4.065  10.136   0.959 -0.0469  0.1398  0.1206
 4151W        W 8202   5.916   1.412   1.140 -0.1981  0.1675 -0.2865
 4152W        W 8203   9.671   2.807   1.109  0.0360  0.1783  0.0540
 4153W        W 8204   9.922   7.616   5.813  0.0313  0.0379  0.1105
 4154W        W 8205   0.504   7.446   8.801  0.0368 -0.0555  0.1137
 4155W        W 8206   5.187   4.767  13.385  0.2161  0.0388 -0.0636
 4156W        W 8207   7.306   3.741   9.338 -0.0188  0.0999 -0.0601
 4157W        W 8208   6.343   0.873   3.781 -0.1288 -0.3127  0.2747
 4158W        W 8209   1.543   5.987  12.491 -0.2181 -0.2859  0.0625
 4159W        W 8210   9.779   0.814  11.323 -0.1588 -0.0585 -0.0364
 4160W        W 8211   1.403   6.146  11.635 -0.1972 -0.0526  0.1043
 4161W        W 8212   8.828   5.626   2.250 -0.1600 -0.2028  0.1522
 4162W        W 8213   3.120   8.402   4.786  0.1003  0.1209  0.2162
 4163W        W 8214   0.397   7.310   4.043  0.2791 -0.1923  0.1884
 4164W        W 8215   3.510   9.275  10.730  0.0458  0.0532 -0.1513
 4165W        W 8216   0.488   9.528   1.811 -0.1267 -0.2174  0.1734
 4166W        W 8217   4.204   5.123  12.107 -0.1498 -0.1926  0.3671
 4167W        W 8218   3.364   9.112   0.687  0.1476  0.0762  0.5030
 4168W        W 8219   7.470   7.587  12.754  0.2404  0.3457  0.3554
 4169W        W 8220   9.823   6.528  13.396 -0.1488  0.2110  0.3327
 4170W        W 8221   5.272   0.324  10.884 -0.1953 -0.0259  0.0230
 4171W        W 8222   7.559   5.562   5.362  0.2361  0.1642 -0.1218
 4172W        W 8223   8.764   9.350  12.079 -0.0249  0.1286 -0.2591
 4173W        W 8224   8.908   4.214   3.783  0.0090  0.0002  0.0785
 4174W        W 8225   8.645   2.397  10.295  0.0038 -0.1997  0.0552
 4175W        W 8226   0.479   2.887   0.773  0.2406 -0.0192 -0.0331
 4176W        W 8227   8.600   0.151   0.106  0.1487  0.0971  0.0978
 4177W        W 8228   8.037   2.736   4.334  0.2612  0.0136  0.1444
 4178W        W 8229   1.218   3.947   3.677  0.0862  0.1841 -0.3170
 4179W        W 8230   8.439   5.487   4.387 -0.0702  0.1872 -0.1870
 4180W        W 8231   9.291   9.312  13.806 -0.1038  0.1456  0.3076
 4181W        W 8232   0.157   8.217   4.197  0.1637 -0.2735  0.0543
 4182W        W 8233   7.541   8.998   3.563 -0.1083  0.2358 -0.2888
 4183W        W 8234   5.573   4.420  13.235 -0.0020 -0.0975 -0.0398
 4184W        W 8235   2.067   3.360   0.356 -0.2548 -0.0991 -0.0131
 4185W        W 8236   2.185   1.137  12.570 -0.0796  0.0122  0.1403
 4186W        W 8237   4.093   6.410   0.408 -0.0359  0.0282 -0.0457
 4187W        W 8238   5.987   8.388  10.249 -0.2462 -0.1814  0.1037
 4188W        W 8239   9.164   2.150  13.400 -0.2218  0.3252 -0.1746
 4189W        W 8240   2.799   7.316  13.517 -0.1808  0.0605  0.0563
 4190W        W 8241   8.871   3.383   5.108  0.1369  0.0313 -0.0108
 4191W        W 8242   9.296   7.464   3.309 -0.1235 -0.3824 -0.0019
 4192W        W 8243   4.653   2.175   4.353  0.1498  0.0246 -0.0425
 4193W        W 8244   5.175   0.379   2.105  0.0464  0.1214 -0.0983
 4194W        W 8245   7.495   4.180   1.930  0.0425  0.2545 -0.1227
 4195W        W 8246   7.994   0.992   0.752  0.0238 -0.0287  0.0075
 4196W        W 8247   5.395   3.248   1.354  0.3534  0.0755 -0.2659
 4197W        W 8248   6.669   5.678   1.190 -0.0297  0.0190  0.0349
 4198W        W 8249   7.057   5.969  13.758  0.2768 -0.3456 -0.0578
 4199W        W 8250   7.767   1.146  12.807 -0.1354 -0.1997 -0.0178
 4200W        W 8251   2.781   9.832   3.663  0.1501  0.0313 -0.1505
 4201W        W 8252   8.071   6.056  11.444 -0.1837  0.0727  0.2203
 4202W        W 8253   0.196   4.708   4.778  0.0156 -0.0043 -0.4015
 4203W        W 8254   6.878   4.440  12.182  0.2161 -0.2570  0.1464
 4204W        W 8255   5.034   6.072  13.440  0.1435  0.1401 -0.2244
 4205W        W 8256   7.836   1.485   1.919 -0.0474  0.0972 -0.2057
 4206W        W 8257   5.340   6.505  13.330  0.1020  0.1647  0.1005
 4207W        W 8258   5.162   4.010   3.875 -0.0390  0.0063  0.0504
 4208W        W 8259   5.505   6.672   1.498 -0.2459 -0.1899  0.0122
 4209W        W 8260   0.746   8.413   1.313 -0.1412  0.1864  0.0694
 4210W        W 8261   4.635   2.376  12.672  0.0998  0.0028  0.2826
 4211W        W 8262   8.864   1.992   2.602  0.0781 -0.2697 -0.2333
 4212W        W 8263   3.883   0.501  10.972  0.0319  0.1097 -0.0437
 4213W        W 8264   2.310   5.267  12.894  0.2745  0.1724 -0.2093
 4214W        W 8265   8.399   6.180  11.964  0.4251  0.2606  0.1659
 4215W        W 8266   2.817   7.136  12.701  0.0902  0.3371 -0.1143
 4216W        W 8267   9.650   8.139   1.703 -0.2234 -0.2339 -0.0413
 4217W        W 8268   1.995   7.513   3.695 -0.2971 -0.1603  0.1030
 4218W        W 8269   6.548   1.710   3.196  0.1031 -0.1094 -0.1039
 4219W        W 8270   3.035   0.052   2.284  0.4007 -0.0037 -0.1194
 4220W        W 8271   8.424   1.649   4.394 -0.1206 -0.2103  0.1154
 4221W        W 8272   3.606   8.485   4.771 -0.2524 -0.1409  0.0002
 4222W        W 8273   2.553   1.083   4.688 -0.1266  0.0388  0.0473
 4223W        W 8274   2.759   8.674  10.717 -0.0995  0.0505 -0.0325
 4224W        W 8275   0.986   9.525   3.617  0.0712 -0.0129 -0.1192
 4225W        W 8276   7.497   1.576  13.736 -0.1097 -0.1288 -0.2879
 4226W        W 8277   8.496   7.716   2.219 -0.0287  0.2084  0.1103
 4227W        W 8278   8.706   9.564  13.209  0.1040 -0.1297  0.0445
 4228W        W 8279   1.409   2.448   4.320 -0.2954 -0.1904  0.3671
 4229W        W 8280   2.746   5.360  11.692  0.0629  0.0117  0.0077
 4230W        W 8281   8.120   2.080  13.066 -0.1513  0.0055 -0.2020
 4231W        W 8282   3.627   0.284   0.341 -0.1629  0.0023 -0.0628
 4232W        W 8283   4.402   5.874   9.535  0.3926 -0.2584  0.3279
 4233W        W 8284   4.533   3.299  11.672  0.1151 -0.0791  0.0298
 4234W        W 8285   0.836   9.105   3.918 -0.0226 -0.2687 -0.0517
 4235W        W 8286   0.800   2.286  10.880 -0.0546 -0.3986  0.0406
 4236W        W 8287   3.805   0.680  11.905  0.0195 -0.2061  0.1186
 4237W        W 8288   3.972   7.935   1.267  0.0914  0.1653 -0.1223
 4238W        W 8289   3.990   1.160   3.206 -0.2801  0.1428  0.1403
 4239W        W 8290   6.961   2.071  10.778 -0.0936  0.0426  0.0620
 4240W        W 8291   7.541   1.800  10.454  0.1797  0.0489 -0.2492
 4241W        W 8292   4.051   9.510   4.938  0.2715  0.3920 -0.1593
 4242W        W 8293   2.761   9.370   4.023  0.0039 -0.2714  0.1761
 4243W        W 8294   6.640   1.162  12.800  0.2588 -0.1627 -0.2478
 4244W        W 8295   9.882   7.492   2.290 -0.0801 -0.1998 -0.1116
 4245W        W 8296   2.306   5.488  12.033 -0.4129  0.0182 -0.0872
 4246W        W 8297   1.651   3.493   2.383  0.2195  0.0278  0.4288
 4247W        W 8298   9.125   3.333  11.975  0.1719 -0.2086 -0.1628
 4248W        W 8299   4.743   6.021  12.552  0.0786 -0.0816  0.0840
 4249W        W 8300  10.181   7.692   2.912 -0.0900 -0.1889 -0.0344
 4250W        W 8301   8.798   6.689  12.417 -0.1045 -0.2190 -0.1792
 4251W        W 8302   6.720   4.460   1.472  0.0285 -0.5215 -0.0341
 4252W        W 8303   4.885   2.821  10.581 -0.0132 -0.0694 -0.1304
 4253W        W 8304   7.735   8.274   0.786 -0.2586  0.1187 -0.2937
 4254W        W 8305   6.773   1.311  10.043  0.2374  0.1859 -0.1682
 4255W        W 8306   2.690   8.732   3.764 -0.0537  0.2513  0.2066
 4256W        W 8307   3.228   4.671  10.180  0.0465  0.0569  0.1263
 4257W        W 8308   4.516   7.451   5.262 -0.1545  0.0105  0.2093
 4258W        W 8309   7.424   2.928   3.285 -0.0697  0.3480  0.0007
 4259W        W 8310   7.511   6.383   9.102 -0.1961  0.1784 -0.1399
 4260W        W 8311   5.654   5.140  11.935 -0.1148  0.1506 -0.0991
 4261W        W 8312   3.882   1.211  11.484 -0.2228 -0.0105  0.1530
 4262W        W 8313   8.495   1.230  12.685 -0.1182  0.0156 -0.2053
 4263W        W 8314   4.903   2.780   0.724 -0.1842  0.0785  0.1479
 4264W        W 8315   5.980   2.081  12.745 -0.2527 -0.4877  0.1348
 4265W        W 8316   3.822   9.637   1.721 -0.0382 -0.3252 -0.1676
 4266W        W 8317   9.470   3.479   4.219 -0.0239 -0.0979  0.3286
 4267W        W 8318   2.536   5.383  11.162 -0.0860 -0.1971  0.0131
 4268W        W 8319   5.478   0.045   2.285  0.2169 -0.0007 -0.1134
 4269W        W 8320   8.993   8.693  12.994 -0.1212 -0.0324 -0.1239
 4270W        W 8321   7.353   6.908   1.334 -0.1504 -0.0449  0.0631
 4271W        W 8322   7.030   9.080   3.166 -0.0489 -0.1130  0.0882
 4272W        W 8323   8.318   5.903  13.420  0.2046 -0.1288 -0.3309
 4273W        W 8324   8.363   8.071   3.957 -0.3794 -0.1625 -0.1308
 4274W        W 8325   9.291   6.810   1.602 -0.0418  0.0038 -0.2661
 4275W        W 8326   6.314   8.913   5.014 -0.0376 -0.2186  0.2370
 4276W        W 8327   8.230   4.190  12.744  0.3588 -0.0854 -0.0104
 4277W        W 8328   4.482   0.894  10.678  0.0561 -0.0253  0.0868
 4278W        W 8329   7.512   0.467   4.559  0.1157 -0.0725 -0.0534
 4279W        W 8330   9.149   2.863   2.224 -0.0703 -0.0029  0.3089
 4280W        W 8331   5.649   5.187   9.694 -0.0553 -0.0790 -0.0138
 4281W        W 8332   7.089   5.575   2.592 -0.1004 -0.1082  0.0832
 4282W        W 8333   1.704   7.781   2.485 -0.2036 -0.0071 -0.1317
 4283W        W 8334   4.000   1.170  12.114 -0.1214 -0.1583  0.3528
 4284W        W 8335   0.559   2.294  13.904  0.0152  0.1521  0.1299
 4285W        W 8336   2.360   7.417   4.428 -0.0860 -0.0646 -0.1071
 4286W        W 8337   5.653   7.831   3.792 -0.0286  0.1610 -0.2197
 4287W        W 8338   4.467   1.031   9.698  0.3381 -0.2359  0.0251
 4288W        W 8339   8.519   4.302   1.619  0.0719  0.1789  0.3212
 4289W        W 8340   6.881   6.344   1.410 -0.1077  0.2785  0.2402
 4290W        W 8341   8.820   0.364   4.273  0.3876 -0.1361  0.0458
 4291W        W 8342   7.916  10.080   3.322  0.1320  0.0760  0.0450
 4292W        W 8343   9.833   6.519  12.481 -0.0188  0.1418 -0.0567
 4293W        W 8344   5.571   5.222  11.008  0.1106  0.3083 -0.2483
 4294W        W 8345   0.461   6.486   1.735 -0.1402 -0.0597  0.3071
 4295W        W 8346   2.826   3.125   1.669 -0.3406  0.0427 -0.1863
 4296W        W 8347   7.313   8.774   2.258 -0.0247 -0.5634  0.2618
 4297W        W 8348   5.109   8.960   4.656  0.1133 -0.0451  0.0248
 4298W        W 8349   7.128   2.581   1.173  0.2693 -0.0670 -0.1654
 4299W        W 8350   4.007   9.561   0.683 -0.3744 -0.0110  0.0577
 4300W        W 8351   0.658   4.702   1.113  0.0470 -0.5435 -0.3915
 4301W        W 8352   9.806   8.207   9.636 -0.0404 -0.1895  0.0670
 4302W        W 8353   3.866   6.998   2.123  0.3262  0.2163  0.0788
 4303W        W 8354   0.450   5.626  11.658 -0.3140 -0.1230  0.0907
 4304W        W 8355   9.045   4.002   2.464 -0.0447  0.5755  0.0493
 4305W        W 8356   2.268   7.920   3.442  0.0859 -0.2009 -0.2207
 4306W        W 8357   7.360   9.851   3.993 -0.2005 -0.1178 -0.1429
 4307W        W 8358   5.791   3.251   2.774 -0.0044 -0.2818  0.3689
 4308W        W 8359   6.173   4.574   3.035 -0.0931  0.0164  0.1223
 4309W        W 8360   4.885   9.645   3.260  0.0735 -0.1499 -0.2008
 4310W        W 8361   5.012   8.845  10.670 -0.1803  0.0048  0.0835
 4311W        W 8362   1.162   1.554   2.979 -0.2059 -0.0191 -0.2606
 4312W        W 8363   4.358   2.816   3.940 -0.2513 -0.0962  0.3447
 4313W        W 8364   6.407   3.955   8.888 -0.0837  0.0658  0.1873
 4314W        W 8365   4.775   2.226   0.652 -0.1202 -0.0291 -0.0017
 4315W        W 8366   2.172   0.150  11.092 -0.2658 -0.1482  0.2866
 4316W        W 8367   4.692   1.854   9.331  0.4656  0.2635 -0.1708
 4317W        W 8368   7.738   9.045   1.631  0.1364 -0.2769  0.1333
 4318W        W 8369   8.317   2.507  10.628  0.1586  0.0229 -0.1641
 4319W        W 8370   0.962   8.149   3.941  0.1392 -0.2678 -0.4002
 4320W        W 8371   0.322   9.221   9.950 -0.3183 -0.0797  0.1759
 4321W        W 8372   2.406   2.580  13.850  0.1017 -0.1400  0.3504
 4322W        W 8373   9.991   6.039  11.424 -0.0003 -0.2550  0.2849
 4323W        W 8374   3.718   0.677  10.373  0.4088  0.1489  0.1997
 4324W        W 8375   5.297   4.609   2.903  0.0265 -0.2021  0.1776
 4325W        W 8376   6.343   6.466  11.685  0.2074  0.2251 -0.1128
 4326W        W 8377   3.209   6.626   4.223  0.0121 -0.0129 -0.0650
 4327W        W 8378   5.006   6.128   0.285 -0.1415 -0.0106 -0.2611
 4328W        W 8379   4.790   8.055   2.596  0.0488 -0.4712 -0.0653
 4329W        W 8380   1.765   1.037   0.318  0.0804 -0.0818 -0.1365
 4330W        W 8381   8.305   8.167  13.021 -0.0017  0.1592 -0.2606
 4331W        W 8382   8.695   5.154   0.595  0.4575 -0.4047  0.4928
 4332W        W 8383   1.076   6.889   2.587 -0.0611 -0.1240  0.1282
 4333W        W 8384   9.467   3.060   4.490 -0.0414 -0.2618 -0.0948
 4334W        W 8385   4.254   9.685  11.304 -0.1298 -0.1363  0.4747
 4335W        W 8386   0.077   6.731   1.506  0.2884 -0.0128 -0.0136
 4336W        W 8387   5.427   8.394   2.487  0.0118 -0.0448  0.0302
 4337W        W 8388   4.695   9.580  13.053  0.1664 -0.0160  0.0404
 4338W        W 8389   1.411   7.261   1.921  0.0478 -0.2858 -0.2319
 4339W        W 8390   2.234   5.849   2.585 -0.2996  0.0251  0.1749
 4340W        W 8391   4.503   5.776  12.977 -0.0485 -0.0978 -0.1923
 4341W        W 8392   8.701   0.182   2.726  0.1643  0.0536  0.3365
 4342W        W 8393   2.957   5.795   1.836 -0.0726 -0.0019 -0.1185
 4343W        W 8394   4.088   1.021  13.305 -0.0417  0.0950 -0.0633
 4344W        W 8395   6.376   7.813   3.589  0.0098 -0.2123 -0.2022
 4345W        W 8396   8.162   5.900   2.842  0.1515 -0.0817 -0.1469
 4346W        W 8397   9.627   8.565  12.271 -0.2186  0.0873  0.0340
 4347W        W 8398   2.333   0.357   4.127  0.3484  0.0529 -0.0009
 4348W        W 8399   1.872   6.405  12.499  0.1089  0.0953  0.1218
 4349W        W 8400   7.542   3.262  10.660  0.1463  0.0367 -0.1174
 4350W        W 8401   8.338   2.606  11.966  0.1531  0.3036 -0.0105
 4351W        W 8402   7.875   8.183   1.787  0.3739 -0.0240 -0.2996
 4352W        W 8403   1.079   1.482   0.831  0.0108  0.0012 -0.4947
 4353W        W 8404   1.819   6.364  11.117 -0.0013 -0.1074  0.0623
 4354W        W 8405   7.445   5.302   3.355 -0.1531  0.2454 -0.2204
 4355W        W 8406   7.805   0.587  11.341 -0.3825  0.3383 -0.0824
 4356W        W 8407   8.898   4.763   3.282  0.2126 -0.1636  0.2051
 4357W        W 8408   1.989   9.482  10.602  0.0443  0.3945  0.1136
 4358W        W 8409   2.010   6.372   2.712 -0.0541 -0.1038 -0.3912
 4359W        W 8410   7.256   8.995  13.926 -0.0950  0.0273 -0.2657
 4360W        W 8411   7.392   2.840  11.479  0.2038 -0.2198 -0.2092
 4361W        W 8412   8.298   7.974   4.662  0.0317  0.0710 -0.1201
 4362W        W 8413  10.096   9.664   0.641  0.0282 -0.1036 -0.2801
 4363W        W 8414   8.045   3.172   9.983  0.0419 -0.0605 -0.2947
 4364W        W 8415   0.241   1.233  12.603  0.0630 -0.1420  0.0477
 4365W        W 8416   7.554   3.378   0.963 -0.0969 -0.0780  0.2106
 4366W        W 8417   5.398   3.288  13.907 -0.0330  0.4125 -0.2570
 4367W        W 8418   5.456   6.475   2.850  0.2118 -0.0665 -0.1446
 4368W        W 8419   7.217   4.030   3.329 -0.0425  0.0473 -0.2449
 4369W        W 8420   4.552   8.852  12.167 -0.0785  0.1235 -0.0216
 4370W        W 8421   2.563   0.934  13.562 -0.1166  0.0414  0.5906
 4371W        W 8422   2.829   2.940   0.337 -0.0584  0.2719  0.0140
 4372W        W 8423   8.686   3.027  12.620 -0.0089  0.2676 -0.0008
 4373W        W 8424   9.741   0.860   1.444 -0.0390  0.1098  0.1626
 4374W        W 8425   6.212   1.419   9.925  0.1035 -0.2005 -0.5444
 4375W        W 8426   4.531   1.062  13.114 -0.1902  0.0526 -0.1016
 4376W        W 8427   8.329   6.680  12.653  0.1039  0.0666 -0.0604
 4377W        W 8428   8.286   4.484  12.338 -0.2173 -0.1208  0.2952
 4378W        W 8429   9.455   0.684   0.620  0.3658 -0.0412 -0.2198
 4379W        W 8430   6.407   6.203   4.614  0.0963 -0.2294  0.0408
 4380W        W 8431   9.518   5.466  11.577 -0.0990 -0.1870 -0.2878
 4381W        W 8432   5.163  10.179   1.821  0.2585  0.1093 -0.0442
 4382W        W 8433   3.405   5.243  11.663  0.3841  0.1299 -0.0485
 4383W        W 8434   1.742  10.026   9.932 -0.0793  0.1190  0.1764
 4384W        W 8435   8.240   5.428  11.013 -0.0445 -0.0899  0.0870
 4385W        W 8436   0.968   3.859   1.428  0.3033  0.0420  0.5554
 4386W        W 8437   7.759   7.766   2.201 -0.1176  0.1178 -0.0182
 4387W        W 8438   6.206   6.829   0.810 -0.1463  0.2906 -0.0820
 4388W        W 8439   1.155   6.374  10.706 -0.2978  0.1204  0.3056
 4389W        W 8440   2.424   4.863   0.314  0.0808  0.0772 -0.2056
 4390W        W 8441   7.890   1.780   1.264  0.0489  0.1384 -0.1975
 4391W        W 8442   0.991   7.708  10.089  0.1493  0.1649  0.2039
 4392W        W 8443   2.788   3.844  12.993 -0.2670  0.2595  0.2105
 4393W        W 8444   7.872   9.265  11.608 -0.0228  0.2726 -0.0860
 4394W        W 8445   8.361   1.952  10.291 -0.2735  0.1567  0.1631
 4395W        W 8446   4.898   7.700   0.172  0.3041  0.0027  0.0155
 4396W        W 8447   9.359   0.889  13.655  0.0585 -0.0587  0.0529
 4397W        W 8448   4.952   3.507  10.301  0.0002 -0.2828  0.1894
 4398W        W 8449   0.517   6.407   3.706  0.2335 -0.0912  0.0370
 4399W        W 8450   2.972   2.881  13.266  0.0885  0.0145  0.0093
 4400W        W 8451   3.339   0.041   2.767  0.0851  0.0204  0.2287
 4401W        W 8452   9.936   1.330   1.982  0.1150  0.1106  0.1333
 4402W        W 8453   0.173   5.979  10.876  0.4623 -0.1788  0.2216
 4403W        W 8454   0.157   1.938  13.941 -0.1440 -0.0118  0.0426
 4404W        W 8455   7.068   4.571   1.121 -0.0360  0.0700  0.1139
 4405W        W 8456   7.555   2.040  10.901 -0.0307  0.0275  0.0940
 4406W        W 8457   5.093   4.591  12.956 -0.0809 -0.0742 -0.0388
 4407W        W 8458   8.299   2.878  10.931 -0.0573 -0.0415  0.3862
 4408W        W 8459   8.920   5.784   2.703  0.0629  0.3133 -0.2215
 4409W        W 8460   7.069   6.717  13.198  0.2184  0.2037 -0.1246
 4410W        W 8461   3.067   2.463   3.613  0.6323  0.1956  0.2270
 4411W        W 8462   2.309   2.999   3.325 -0.0548 -0.3167 -0.0560
 4412W        W 8463   5.891   8.646   0.082 -0.4981 -0.2471  0.1116
 4413W        W 8464  10.023   9.831  11.926  0.0966 -0.1712  0.4370
 4414W        W 8465   6.420   8.146   9.726  0.1652 -0.2566 -0.1789
 4415W        W 8466   1.708   9.910   4.931 -0.1428 -0.2439  0.0920
 4416W        W 8467   9.756   6.569   1.337 -0.1443 -0.1905 -0.2050
 4417W        W 8468   4.432   7.867  13.037  0.0910  0.1056  0.0657
 4418W        W 8469   3.123   0.027   3.774 -0.0846 -0.1683  0.2527
 4419W        W 8470   4.692   7.806  13.478 -0.1217 -0.0013  0.1059
 4420W        W 8471   5.518   0.767   1.837 -0.1833 -0.0434 -0.0273
 4421W        W 8472   0.493   2.690  11.484 -0.3435  0.0896  0.5697
 4422W        W 8473   8.100   9.435   1.821 -0.0136 -0.0614 -0.0653
 4423W        W 8474   4.491   9.693   0.972  0.2759 -0.0898  0.1673
 4424W        W 8475   9.313   1.811   3.602  0.0941 -0.3380 -0.0995
 4425W        W 8476   5.930   0.732  13.695 -0.0411  0.2619  0.2654
 4426W        W 8477   1.138   9.865   2.579 -0.1795 -0.1186  0.4547
 4427W        W 8478   5.933   7.385   3.842  0.0473  0.1356 -0.2501
 4428W        W 8479   0.934   7.213  13.195 -0.0472  0.0379 -0.3484
 4429W        W 8480   4.889   4.297   2.599 -0.0642  0.1898  0.1952
 4430W        W 8481   0.437   7.238   2.107 -0.1673 -0.1315  0.2631
 4431W        W 8482   1.211   9.807   4.066 -0.4720 -0.3778  0.1818
 4432W        W 8483   7.671   4.899   4.192 -0.1133 -0.1271 -0.1280
 4433W        W 8484   9.150   1.670  13.267  0.0689  0.2888 -0.2627
 4434W        W 8485   5.496   9.883   1.641 -0.0601 -0.0442 -0.1424
 4435W        W 8486   9.717   1.373   1.167  0.0120  0.1847  0.0326
 4436W        W 8487   6.230   5.926   4.123 -0.1237  0.1116  0.0639
 4437W        W 8488   9.895   6.665   3.136  0.0080 -0.0182  0.0410
 4438W        W 8489   2.214   8.489   5.740  0.1738 -0.0854  0.0310
 4439W        W 8490   6.585   3.437   1.370 -0.0829  0.1557  0.0204
 4440W        W 8491   1.005   9.451   0.846  0.2894  0.1302 -0.2018
 4441W        W 8492   8.188   3.080   3.024 -0.0117 -0.2523 -0.1482
 4442W        W 8493   8.698   6.666   1.757  0.0402 -0.3450 -0.4472
 4443W        W 8494   8.241   5.203   9.823 -0.0647  0.4098  0.3907
 4444W        W 8495   6.281   6.569  10.277 -0.1288 -0.1604  0.1077
 4445W        W 8496   1.139   6.415   2.406  0.2682 -0.2734 -0.1818
 4446W        W 8497   0.982   6.418  11.970 -0.1337  0.0963  0.1997
 4447W        W 8498   6.532   8.810   4.406  0.0954  0.2151  0.0304
 4448W        W 8499   1.555   4.498   0.658 -0.1927  0.0228 -0.0312
 4449W        W 8500   3.634   9.727   2.661  0.1176  0.1033 -0.3975
 4450W        W 8501   3.282   9.768   9.964  0.3666 -0.3326 -0.1887
 4451W        W 8502   6.861   1.681  12.937 -0.0632 -0.1098 -0.0266
 4452W        W 8503   7.422   6.647  12.769 -0.0901 -0.1821  0.0367
 4453W        W 8504   2.546   7.880   3.004  0.0610  0.2399 -0.1893
 4454W        W 8505   8.016   7.948   5.064 -0.2244 -0.2234  0.2814
 4455W        W 8506   1.258   9.854   5.157 -0.0024  0.0495  0.3686
 4456W        W 8507   8.920   5.088   1.032 -0.0345 -0.1151 -0.4104
 4457W        W 8508   5.401   4.550  12.529  0.0022  0.0310 -0.0014
 4458W        W 8509   3.743   1.634   0.193  0.0140  0.2149 -0.0950
 4459W        W 8510   0.452   6.705  13.794 -0.2709  0.0188  0.0726
 4460W        W 8511   5.079   5.680   3.049 -0.0845 -0.0292 -0.0259
 4461W        W 8512   9.800   2.532   0.234  0.0334 -0.0038 -0.4116
 4462W        W 8513   0.679   6.148   1.124 -0.2879  0.0904 -0.1671
 4463W        W 8514   1.572   9.921   9.451 -0.1262  0.4097 -0.0569
 4464W        W 8515   3.715   7.760   4.323  0.3195 -0.0511  0.0504
 4465W        W 8516   0.171   1.021   0.929 -0.1701 -0.0387 -0.0808
 4466W        W 8517   8.983   8.127   9.395 -0.0921  0.0929 -0.1836
 4467W        W 8518   9.097   5.083   1.581  0.1091 -0.1846  0.0836
 4468W        W 8519   8.742   3.159  13.360  0.1878 -0.3339 -0.2931
 4469W        W 8520   6.615   5.721  12.884  0.0263 -0.0348 -0.2317
 4470W        W 8521   8.114   0.176  13.087 -0.1665 -0.2580 -0.2262
 4471W        W 8522   9.033   5.920   0.246 -0.2979  0.1155  0.2436
 4472W        W 8523   5.467   7.768   9.344  0.2513 -0.1656 -0.2488
 4473W        W 8524   5.783  10.021   4.206 -0.3554  0.0104 -0.1437
 4474W        W 8525   1.835   2.837  10.212  0.1243  0.0470 -0.0800
 4475W        W 8526   5.575   0.585   5.299  0.0306  0.1647 -0.1566
 4476W        W 8527   9.096  10.120   1.324 -0.1619  0.3685  0.2551
 4477W        W 8528   1.922   1.748  10.738  0.0251  0.0467 -0.0131
 4478W        W 8529   0.784   3.871  10.014  0.2187  0.1239  0.0311
 4479W        W 8530   0.057   0.304   9.631  0.0285  0.0409 -0.2213
 4480W        W 8531   8.445   4.967   3.401 -0.3698 -0.1477 -0.2525
 4481W        W 8532   2.254   2.031   1.008  0.2366 -0.3164  0.0884
 4482W        W 8533   7.943   7.055   1.446 -0.0534 -0.0436  0.0930
 4483W        W 8534   5.380   0.333   2.699 -0.0961  0.2214  0.4121
 4484W        W 8535   7.450   4.929   1.132 -0.1760  0.3764 -0.2860
 4485W        W 8536   8.011   2.622   1.170 -0.0271 -0.2542  0.1027
 4486W        W 8537   7.752   9.877   1.167 -0.0156 -0.1861 -0.1723
 4487W        W 8538   6.679   9.224   0.606 -0.1719  0.1662  0.0053
 4488W        W 8539   8.973   0.141   2.332  0.1828  0.2079 -0.1768
 4489W        W 8540   3.157   9.800   2.909 -0.0866 -0.2581  0.1247
 4490W        W 8541   8.998   0.372   4.945  0.0636 -0.3578 -0.2312
 4491W        W 8542   3.916   4.990   2.251 -0.0049  0.2457 -0.5430
 4492W        W 8543   7.130   6.908   4.765 -0.0562 -0.2319  0.1535
 4493W        W 8544   4.591   7.506  13.852  0.0285  0.1465 -0.2516
 4494W        W 8545   8.501   6.004   3.266  0.3046  0.4201 -0.3671
 4495W        W 8546   4.690   2.298  12.156 -0.2277  0.1308 -0.1413
 4496W        W 8547   3.403   4.756  10.617  0.1656  0.0986  0.0910
 4497W        W 8548   6.754   5.864  12.049  0.2191 -0.4458  0.0697
 4498W        W 8549   3.807   6.280  12.310  0.1094  0.2668 -0.3069
 4499W        W 8550   4.639   1.170   1.201 -0.1854 -0.1697  0.1034
 4500W        W 8551   4.148   7.073   4.485 -0.3442 -0.1137  0.1019
 4501W        W 8552   4.125   6.558   9.963 -0.2697  0.1521 -0.1404
 4502W        W 8553   9.416   6.621  11.373 -0.1280 -0.0341 -0.0037
 4503W        W 8554   3.810   8.068   2.596 -0.2299  0.1271  0.1898
 4504W        W 8555   9.806   3.498  10.277  0.0960 -0.2123 -0.0138
 4505W        W 8556   2.869   2.103  11.862 -0.2459 -0.0782 -0.0801
 4506W        W 8557   6.350   5.354   1.436  0.0768  0.4152  0.1692
 4507W        W 8558   4.944   9.296   2.249 -0.0554 -0.2195  0.2809
 4508W        W 8559   1.479   3.402  11.047 -0.0815  0.0415 -0.3475
 4509W        W 8560   8.296   4.838  13.660 -0.0752 -0.0755  0.1805
 4510W        W 8561   3.630   4.258   1.813 -0.0872 -0.0535 -0.1011
 4511W        W 8562   4.598   4.097   3.977  0.2623 -0.1589  0.1315
 4512W        W 8563   4.248  10.040   1.520  0.1946 -0.1421 -0.0317
 4513W        W 8564   1.747   0.083   0.858  0.2468  0.3957 -0.4861
 4514W        W 8565  10.165   0.856  10.546 -0.2910 -0.0009 -0.1532
 4515W        W 8566   5.611   8.931   3.632 -0.2192 -0.1793  0.2537
 4516W        W 8567   4.560   2.196   1.942  0.0573  0.1041  0.1445
 4517W        W 8568   0.902   0.038   3.857 -0.1503 -0.3776  0.0282
 4518W        W 8569   4.478   3.132   0.914 -0.0966 -0.1767  0.0733
 4519W        W 8570   0.035   9.627  10.946 -0.1725  0.2408 -0.0838
 4520W        W 8571   4.497   3.410  10.105  0.1666 -0.1705  0.1737
 4521W        W 8572   9.343   3.591  10.465 -0.3019  0.0241 -0.0022
 4522W        W 8573   0.510   3.005   2.789 -0.3852 -0.1779  0.0412
 4523W        W 8574   4.087   4.392   1.834 -0.2438  0.0137  0.0462
 4524W        W 8575   4.684   5.879  11.715 -0.0038  0.0356 -0.0709
 4525W        W 8576   6.288   6.576   5.429  0.2194  0.1862  0.0949
 4526W        W 8577   7.407   2.159   5.356 -0.0303  0.1136 -0.1199
 4527W        W 8578   3.260   0.839  10.330 -0.0591 -0.2421  0.0238
 4528W        W 8579   8.498   2.497  11.174 -0.1742 -0.1814  0.2772
 4529W        W 8580   0.044   7.941   3.472 -0.0768  0.2257  0.2681
 4530W        W 8581   4.020  10.097   8.575  0.2679  0.0706 -0.1574
 4531W        W 8582   8.935   4.216   0.592 -0.4368 -0.0091 -0.2063
 4532W        W 8583   8.156   6.232  12.519  0.1166 -0.3085  0.3926
 4533W        W 8584   3.377   0.334   1.922 -0.0862 -0.0649 -0.0734
 4534W        W 8585   8.556   3.964  10.608  0.2780  0.0392 -0.1454
 4535W        W 8586   2.279   1.297   2.429 -0.4450 -0.0610 -0.0029
 4536W        W 8587   6.536  10.158   3.235  0.1508  0.4549 -0.1413
 4537W        W 8588   2.361   5.319   2.349  0.1017  0.1263 -0.3048
 4538W        W 8589   7.885  10.085  10.854 -0.0800  0.1119 -0.0556
 4539W        W 8590   6.567   3.619  13.337  0.0414  0.2808  0.1647
 4540W        W 8591   2.441   2.747  13.362  0.0294  0.0826 -0.0643
 4541W        W 8592   2.288   4.204  11.993 -0.1432  0.2945 -0.0257
 4542W        W 8593   4.861   8.765   0.421 -0.2582 -0.1154 -0.1895
 4543W        W 8594   6.443   4.568   4.550  0.2145  0.4997  0.1340
 4544W        W 8595   5.332   8.382  12.010 -0.1495  0.1372  0.1289
 4545W        W 8596   6.242   6.117   2.167  0.2016 -0.1567 -0.3944
 4546W        W 8597   8.266   9.093   0.825  0.0494  0.0859  0.1873
 4547W        W 8598   9.525   2.065   0.207 -0.1455  0.2898 -0.2284
 4548W        W 8599   1.670   0.511   3.342 -0.2440 -0.0692  0.1399
 4549W        W 8600   8.407   9.026   1.841 -0.1357  0.2636 -0.1933
 4550W        W 8601   7.744   4.350  10.460 -0.0940 -0.0960  0.1259
 4551W        W 8602  10.122   0.051   4.223  0.0115  0.5490 -0.0417
 4552W        W 8603   0.376   3.793  12.539 -0.2919 -0.0056  0.1260
 4553W        W 8604   6.931   7.825   0.391 -0.0129  0.1756 -0.1887
 4554W        W 8605  10.124   1.396  11.933 -0.1192  0.0586 -0.1539
 4555W        W 8606   1.744   3.028   2.095  0.0982 -0.3954 -0.2004
 4556W        W 8607   5.714   5.561   4.813  0.2161  0.0092  0.0352
 4557W        W 8608   7.627   4.207  11.572 -0.0701  0.1890 -0.0219
 4558W        W 8609   4.647   0.619   9.448  0.2846 -0.0766 -0.4066
 4559W        W 8610   2.569   0.010   3.910 -0.2502 -0.2073 -0.0631
 4560W        W 8611   6.057   8.088   3.913 -0.2136 -0.0061 -0.0389
 4561W        W 8612   3.143   7.014   3.196  0.0649  0.3368 -0.5089
 4562W        W 8613  10.141   4.951  10.915 -0.1683  0.5184 -0.1003
 4563W        W 8614   2.711   0.453  12.086  0.2719 -0.0628  0.1743
 4564W        W 8615   8.707   6.231   8.593 -0.0394 -0.0756  0.1343
 4565W        W 8616   0.391   4.190  11.514 -0.1860  0.1557 -0.2284
 4566W        W 8617   9.107   2.928   1.713 -0.0008  0.0701  0.0286
 4567W        W 8618   7.619   8.420   0.291 -0.2023  0.0494  0.0159
 4568W        W 8619   6.988   5.908  11.264  0.0099  0.0390  0.1754
 4569W        W 8620   7.044   5.439  10.347  0.0664  0.2020 -0.0605
 4570W        W 8621   6.438   7.025   2.349 -0.0726  0.1870  0.2086
 4571W        W 8622   1.802   3.864  12.004 -0.1198 -0.0015 -0.0347
 4572W        W 8623   8.210   9.900   3.686  0.0980 -0.1093  0.0879
 4573W        W 8624   5.580   7.243  11.244 -0.1394  0.1370 -0.1712
 4574W        W 8625   1.272   5.023   0.485 -0.2096 -0.1725  0.1725
 4575W        W 8626   5.370   3.050  13.473  0.1308 -0.0735  0.0488
 4576W        W 8627   1.873   2.879   1.279  0.2838  0.1247  0.1799
 4577W        W 8628   2.082   7.609   0.491 -0.1447 -0.3376 -0.2387
 4578W        W 8629   4.956   8.107   1.536 -0.0832 -0.1383 -0.1608
 4579W        W 8630   8.663   9.716   5.323  0.0936  0.0646  0.1921
 4580W        W 8631   6.952   9.640   2.669  0.1857  0.0498  0.0858
 4581W        W 8632   9.387   9.833  10.725 -0.1339 -0.3812  0.1515
 4582W        W 8633   4.345   3.082   0.381  0.1587 -0.0276 -0.3783
 4583W        W 8634   5.715   1.068  12.657 -0.0782 -0.0145 -0.0132
 4584W        W 8635   6.548   4.039  11.966  0.2297  0.2244  0.1074
 4585W        W 8636   0.537   1.385  10.469 -0.0934 -0.1545  0.1812
 4586W        W 8637   9.618   7.534  11.471  0.0433  0.0784  0.0121
 4587W        W 8638   1.471   9.821   0.957 -0.1444 -0.2669  0.1840
 4588W        W 8639   8.961   0.980   0.602 -0.2269  0.1610 -0.0318
 4589W        W 8640   1.158   0.835   0.286 -0.0333  0.1057  0.1007
 4590W        W 8641   9.223   6.470   0.290 -0.1275  0.3540  0.1715
 4591W        W 8642   6.957   2.765  12.801 -0.1223  0.0634 -0.2375
 4592W        W 8643   4.596   8.866  11.522 -0.0777  0.1182  0.1216
 4593W        W 8644   0.536   7.815  10.224  0.3472  0.0839  0.0964
 4594W        W 8645   6.367   1.678   3.665  0.0781  0.0822  0.3728
 4595W        W 8646   0.021   2.385   3.339  0.0910  0.1504  0.3770
 4596W        W 8647   6.225   8.299   3.172 -0.4205 -0.3492 -0.2125
 4597W        W 8648   3.083   1.717   9.384  0.1161  0.2337 -0.1971
 4598W        W 8649   3.838   9.358  13.646  0.0474  0.1206 -0.4078
 4599W        W 8650   8.436   6.426   4.555  0.3199 -0.0943  0.4803
 4600W        W 8651   9.190   8.462   9.986 -0.4244 -0.1307  0.1057
 4601W        W 8652   9.118   2.054  11.282 -0.0857  0.1147  0.0415
 4602W        W 8653   9.776   5.197   2.788 -0.0491  0.2256 -0.1709
 4603W        W 8654   4.199   5.522  13.333 -0.2405 -0.0671 -0.0097
 4604W        W 8655   8.090   8.888  13.049 -0.0240  0.2190  0.1289
 4605W        W 8656   5.473   3.484  11.143 -0.3482 -0.3482  0.1567
 4606W        W 8657   9.907   1.953   4.788  0.0160 -0.1418 -0.0294
 4607W        W 8658   6.243   3.485   0.937 -0.1372  0.0814  0.2550
 4608W        W 8659   6.783   5.216   2.453  0.0140  0.3115 -0.0866
 4609W        W 8660   7.430   7.009  10.075  0.1068  0.1137 -0.3029
 4610W        W 8661   7.691   6.676   1.628 -0.3109 -0.2643  0.1182
 4611W        W 8662   6.638   5.351   3.459  0.1495  0.1968  0.1197
 4612W        W 8663   8.139   6.453   3.063 -0.0338 -0.3547 -0.0002
 4613W        W 8664   8.031   5.786   0.720  0.0328  0.3723  0.1443
 4614W        W 8665   0.051   7.118   2.345  0.1947  0.1590 -0.1023
 4615W        W 8666   3.518   9.444  11.523 -0.2132  0.3249 -0.6587
 4616W        W 8667   5.951   2.974   9.776  0.1558  0.1423  0.0229
 4617W        W 8668   7.204   1.046   1.167  0.2356 -0.1632  0.2574
 4618W        W 8669   8.445   3.538   4.219 -0.4410  0.0327  0.3175
 4619W        W 8670   8.458   6.385   0.931  0.2173  0.2817  0.0669
 4620W        W 8671   4.637   6.364  13.911 -0.0933  0.0406  0.0249
 4621W        W 8672   0.417   1.433   1.429  0.0405 -0.0020 -0.3025
 4622W        W 8673   4.283   4.640   2.242  0.3608 -0.1123  0.1035
 4623W        W 8674   0.718   8.917  12.966 -0.4856  0.4304 -0.0449
 4624W        W 8675   2.769   1.010  12.253  0.2338 -0.1861 -0.2036
 4625W        W 8676   3.561   1.150  11.868 -0.1663 -0.2142 -0.1889
 4626W        W 8677   2.643   2.208  10.890 -0.1709  0.0192 -0.2355
 4627W        W 8678   6.988   3.940  12.170 -0.0236  0.1046 -0.1052
 4628W        W 8679   4.707   5.896   4.008 -0.0910 -0.1176  0.2647
 4629W        W 8680   4.349   2.873   1.356  0.0268 -0.1825 -0.0318
 4630W        W 8681   2.041  10.119   4.089  0.1345 -0.2234  0.1322
 4631W        W 8682   6.432   7.211   0.329  0.0325 -0.0044 -0.2085
 4632W        W 8683   7.039   1.856  13.720  0.1159 -0.2113 -0.1062
 4633W        W 8684  10.073   5.240   3.635 -0.1045 -0.2309 -0.0600
 4634W        W 8685   2.316   0.994   0.964 -0.0924  0.0812  0.1554
 4635W        W 8686   4.337   6.568  13.468 -0.1592 -0.1242 -0.0295
 4636W        W 8687   6.518   4.343   0.313  0.2120 -0.1355  0.1494
 4637W        W 8688   4.616   1.813  10.576  0.1805 -0.0730 -0.0510
 4638W        W 8689   7.963   1.456  13.137  0.0891  0.2264 -0.2137
 4639W        W 8690   5.007   7.000   9.953  0.1081  0.0746 -0.0576
 4640W        W 8691   6.925   2.939  12.037 -0.2939 -0.0718  0.1566
 4641W        W 8692   7.420   3.030   1.986 -0.1820  0.1878  0.1437
 4642W        W 8693   6.780   3.972   5.211  0.1344 -0.1580 -0.0610
 4643W        W 8694   0.693   6.003  12.004 -0.0043  0.3278 -0.1994
 4644W        W 8695   7.806   7.072   1.960 -0.0799  0.0098 -0.0779
 4645W        W 8696   1.447   4.154   0.325  0.3494  0.1472 -0.1261
 4646W        W 8697   6.910   6.980   0.077 -0.0242  0.2067 -0.0205
 4647W        W 8698   8.718   1.868   4.027  0.1003 -0.1080  0.3191
 4648W        W 8699   9.598   9.689   3.824 -0.0566 -0.1498  0.1809
 4649W        W 8700   1.626   8.259  11.495  0.0817  0.0247 -0.3541
 4650W        W 8701   7.121  10.066   9.519 -0.1726  0.2773 -0.0258
 4651W        W 8702   2.173   3.045   2.275 -0.2244 -0.0216  0.1452
 4652W        W 8703   2.217   7.269  12.012  0.3552  0.1126  0.1503
 4653W        W 8704   8.852   4.753   2.731  0.1141  0.2283 -0.0686
 4654W        W 8705   5.513   9.090  13.180  0.2918  0.3382  0.1202
 4655W        W 8706   4.355   2.175   0.983  0.2468  0.2563 -0.0891
 4656W        W 8707   5.369   6.086  12.991 -0.0504  0.1715  0.0361
 4657W        W 8708   0.716   9.413   1.290 -0.1799  0.2061  0.2407
 4658W        W 8709   9.698   8.917  13.688 -0.1225 -0.0885 -0.0181
 4659W        W 8710   7.128   1.822   0.678  0.0253 -0.0018  0.0363
 4660W        W 8711   6.911   6.476  12.734  0.2915 -0.3777  0.2708
 4661W        W 8712   2.285   5.744  10.429  0.0538  0.2618 -0.2295
 4662W        W 8713   2.595   2.135   4.222 -0.0512  0.0826 -0.3459
 4663W        W 8714   2.312   7.712  11.152  0.2858  0.2748 -0.0479
 4664W        W 8715   7.873   9.026   0.258  0.0063  0.1135  0.3370
 4665W        W 8716   6.698   9.805  13.071 -0.0244 -0.4105  0.0527
 4666W        W 8717   7.930   4.282   9.348  0.0870  0.0735  0.0797
 4667W        W 8718   2.449   9.219   2.437  0.5699 -0.2208  0.1622
 4668W        W 8719   9.017   8.410   4.428 -0.2223 -0.1345 -0.1425
 4669W        W 8720   0.480   9.565   0.857  0.3559 -0.0379  0.0489
 4670W        W 8721   1.311   0.531   3.754 -0.1106  0.3735 -0.1525
 4671W        W 8722   9.784   1.402   3.896  0.1669  0.0862  0.1547
 4672W        W 8723   9.073   5.446  12.074  0.0278 -0.3286  0.1525
 4673W        W 8724   2.871   8.923   9.776  0.0998  0.2507 -0.0369
 4674W        W 8725   5.291   0.429   1.268 -0.0143 -0.0381 -0.2428
 4675W        W 8726   6.945   2.338  13.782  0.3176  0.1089  0.0125
 4676W        W 8727   8.782   9.599  11.440  0.0514 -0.0215  0.3997
 4677W        W 8728   6.361   3.824  11.345  0.0305  0.2605 -0.1460
 4678W        W 8729   3.772   4.054   2.705 -0.0098  0.0325  0.1661
 4679W        W 8730   7.372   3.520   3.392  0.0188  0.2676  0.2103
 4680W        W 8731   8.565   6.419   2.269 -0.0659 -0.0808  0.1694
 4681W        W 8732   2.473   8.577  11.128 -0.2103  0.0261 -0.1324
 4682W        W 8733   8.277   2.711   2.635 -0.1003  0.0166  0.0228
 4683W        W 8734   2.217   2.613  10.912  0.0191 -0.1266  0.0356
 4684W        W 8735   8.264   0.446  10.127  0.0997  0.4016  0.4246
 4685W        W 8736   1.200   7.968  11.632  0.1285 -0.2726  0.2140
 4686W        W 8737   2.805   6.902   4.400  0.3210 -0.0291  0.0773
 4687W        W 8738   8.555   2.225   0.772  0.0620 -0.0826 -0.0846
 4688W        W 8739   0.177   1.087   8.915  0.0208  0.1602 -0.0112
 4689W        W 8740   9.034   6.451   4.450 -0.2912 -0.4659  0.1731
 4690W        W 8741   8.192   7.225  10.139  0.0407 -0.0266  0.1320
 4691W        W 8742   6.605   6.116  13.827  0.1727 -0.0239  0.0578
 4692W        W 8743   3.218   7.784   0.843  0.1035  0.5242 -0.0272
 4693W        W 8744   7.493   4.758  11.605  0.2165  0.3595  0.0204
 4694W        W 8745   2.651   4.724   3.097  0.0740  0.2300  0.0790
 4695W        W 8746   7.636   1.611  11.722  0.3438  0.1031  0.0010
 4696W        W 8747   9.712  10.007   1.317 -0.0288 -0.1077 -0.0284
 4697W        W 8748   1.451   2.637   2.798 -0.1854 -0.0650  0.1344
 4698W        W 8749   0.314   4.071   2.359  0.0608 -0.3241  0.3303
 4699W        W 8750   2.291   0.958   2.785  0.0903 -0.2005 -0.0878
 4700W        W 8751   0.462   8.340   9.774  0.3274  0.3526 -0.0366
 4701W        W 8752   0.114   6.984  11.744 -0.2403 -0.2433  0.1117
 4702W        W 8753   3.132   1.005   2.941 -0.1134 -0.1430  0.0846
 4703W        W 8754   5.494   7.946   0.758 -0.0503 -0.1658 -0.0436
 4704W        W 8755   2.845   9.851  12.728 -0.2079  0.1318  0.0196
 4705W        W 8756   4.716   1.156   5.294 -0.1380 -0.0851  0.0854
 4706W        W 8757   3.666   9.144   1.563  0.1031  0.1606 -0.1939
 4707W        W 8758   7.307   3.527  13.198  0.2179 -0.0142  0.1807
 4708W        W 8759   2.667   1.302   4.256 -0.2090  0.0600  0.0299
 4709W        W 8760   3.146   6.460  13.962 -0.5421 -0.2129  0.0034
 4710W        W 8761   9.349   0.728   1.766  0.0038 -0.0824  0.1219
 4711W        W 8762   8.973   7.843   2.115 -0.0918  0.0171 -0.2402
 4712W        W 8763   6.900   5.352   4.476 -0.1454  0.1155  0.0526
 4713W        W 8764   4.797   7.613   1.618 -0.4132 -0.3102 -0.1617
 4714W        W 8765   2.156   5.689   9.859 -0.0115  0.0953  0.3522
 4715W        W 8766   9.439   4.021   2.929  0.3150  0.1588 -0.1156
 4716W        W 8767   2.597   8.112   1.470  0.0961 -0.1846  0.0733
 4717W        W 8768   6.107   4.160   3.916 -0.0797 -0.1646  0.1037
 4718W        W 8769   0.083   1.908  11.928  0.0273  0.1852  0.0367
 4719W        W 8770   2.819   7.588   0.473 -0.1492  0.3624  0.4701
 4720W        W 8771   0.879   6.262   0.685 -0.0013 -0.3358  0.1060
 4721W        W 8772   5.998   2.291  12.122 -0.1680  0.0855  0.1334
 4722W        W 8773   1.106   0.546   2.385  0.1602 -0.2541  0.4244
 4723W        W 8774   2.939   3.750   4.011 -0.3634 -0.0530  0.0744
 4724W        W 8775   6.466   1.269  13.297  0.0361  0.4563 -0.2375
 4725W        W 8776   7.912   9.681  12.949  0.3024 -0.0343  0.1349
 4726W        W 8777   1.812   1.597  11.664  0.3322  0.1363  0.1164
 4727W        W 8778   2.119   5.787  13.158 -0.4289  0.0850 -0.4520
 4728W        W 8779   7.493   6.998   0.203  0.1080 -0.0184 -0.0028
 4729W        W 8780   4.208   6.319  10.791 -0.1453 -0.0453 -0.2330
 4730W        W 8781   0.387   8.837   4.129 -0.0441  0.0603 -0.2649
 4731W        W 8782   7.991   4.159  11.275  0.0608  0.1141  0.0039
 4732W        W 8783   6.799   7.567  10.391  0.2271 -0.6262  0.0530
 4733W        W 8784   3.364   1.989   0.326  0.0757 -0.0183  0.1607
 4734W        W 8785   0.743   7.070   0.128 -0.1101  0.1372 -0.0042
 4735W        W 8786   5.520   4.139   4.412 -0.2444  0.1187 -0.1286
 4736W        W 8787   0.178   4.301   0.074 -0.1225  0.1168  0.1243
 4737W        W 8788   9.394   4.736   0.412  0.0438  0.1286  0.2753
 4738W        W 8789   3.116   0.723  11.722 -0.1767  0.0240 -0.0452
 4739W        W 8790   5.001   4.335  13.669  0.0973 -0.0448 -0.1402
 4740W        W 8791   1.213   2.869   1.794  0.1625  0.1994  0.2067
 4741W        W 8792   2.634   4.466  11.162 -0.1511  0.2979  0.2466
 4742W        W 8793   8.906   2.780   5.233 -0.0349 -0.1312  0.2013
 4743W        W 8794   3.400   2.433   1.502  0.0449 -0.2496  0.1453
 4744W        W 8795   9.659   3.924   9.949 -0.1322  0.1403  0.4044
 4745W        W 8796   0.837   9.612   5.102  0.2167  0.0320 -0.3575
 4746W        W 8797   7.644   2.204   1.167 -0.0381  0.0678 -0.3756
 4747W        W 8798   1.543   9.919  12.363 -0.2222 -0.5113 -0.0592
 4748W        W 8799   0.342   7.648   4.961  0.0304 -0.0403 -0.1741
 4749W        W 8800   5.303   7.904   2.498  0.4358  0.0065  0.1759
 4750W        W 8801   7.615   7.343   1.097  0.1033  0.0325  0.0306
 4751W        W 8802   3.137   2.403   4.204  0.0932 -0.1243  0.0354
 4752W        W 8803   4.892   5.533   0.931  0.0642 -0.0925  0.1346
 4753W        W 8804   9.330   2.367   0.872 -0.0313  0.0316  0.1022
 4754W        W 8805   1.323   1.298   0.404 -0.1223 -0.3247 -0.3930
 4755W        W 8806   0.151   6.542  10.112 -0.0703 -0.5614 -0.0307
 4756W        W 8807   8.986   3.718  11.498  0.0127  0.1474 -0.0046
 4757W        W 8808   2.432   3.401  12.326  0.1087  0.0385 -0.1012
 4758W        W 8809   6.671   6.952   0.811  0.0566  0.2426  0.0553
 4759W        W 8810   2.333   8.708   5.276  0.1372 -0.1380  0.2002
 4760W        W 8811   6.013   2.046  11.608 -0.0462  0.0736  0.2086
 4761W        W 8812   0.990   2.789   3.606  0.0121 -0.1034  0.1332
 4762W        W 8813   4.528   7.508   3.082 -0.0658  0.1088  0.0262
 4763W        W 8814   5.962   8.423   5.060 -0.0433  0.2106  0.1894
 4764W        W 8815   4.026   7.119  12.228 -0.1768 -0.3493  0.2726
 4765W        W 8816   1.293   1.816   1.634  0.0695 -0.1060 -0.1372
 4766W        W 8817   1.619   9.744   2.315  0.2476 -0.1296  0.0206
 4767W        W 8818   9.610   2.908   1.554  0.1866 -0.1916 -0.3574
 4768W        W 8819   9.004   7.193  10.869  0.2484  0.1958  0.1133
 4769W        W 8820   3.279   7.396   1.213  0.0258 -0.1510 -0.1071
 4770W        W 8821   0.022   0.298   5.724 -0.1303 -0.2124 -0.2159
 4771W        W 8822   9.945   5.057   1.996 -0.0335 -0.3129  0.3384
 4772W        W 8823   4.703   3.255  13.328 -0.0587  0.0401  0.2044
 4773W        W 8824   6.746   4.682  12.670 -0.1237 -0.0649 -0.1603
 4774W        W 8825   8.283   1.692  11.525 -0.0876  0.0037 -0.1014
 4775W        W 8826   4.654   7.098   1.625  0.0374 -0.2278  0.2689
 4776W        W 8827   1.717   4.926  10.474 -0.3370 -0.1338  0.1955
 4777W        W 8828   1.960   5.816   0.975  0.1829 -0.2258 -0.0251
 4778W        W 8829   1.413   1.803   9.845  0.0051  0.1481  0.2702
 4779W        W 8830   8.623   2.069   1.597  0.2328 -0.3047 -0.0254
 4780W        W 8831   6.799   1.942   0.212 -0.2439  0.0623  0.0327
 4781W        W 8832   7.972   0.726   4.596  0.0857  0.1556 -0.3460
 4782W        W 8833   4.850   2.795   3.795 -0.3313  0.1183  0.1749
 4783W        W 8834   9.946   8.237  12.005 -0.2280  0.3755  0.0952
 4784W        W 8835   8.404   9.805  12.694  0.0812  0.1760 -0.1417
 4785W        W 8836   1.435   1.213  11.910  0.0765 -0.0000  0.0963
 4786W        W 8837   2.136   6.288   3.217  0.2254 -0.4247  0.2282
 4787W        W 8838   7.962   5.817   5.208 -0.1133  0.1435  0.1487
 4788W        W 8839   2.111   9.917  10.337 -0.0495 -0.0173  0.4062
 4789W        W 8840   6.908   6.144   0.931 -0.1187 -0.1119 -0.1079
 4790W        W 8841   2.976   8.660   3.318  0.0166  0.0383 -0.0220
 4791W        W 8842   3.975   8.294   2.054 -0.0386 -0.0911 -0.0166
 4792W        W 8843   1.180   6.082   1.442 -0.1778 -0.2103 -0.0187
 4793W        W 8844   9.426   5.979   4.612 -0.0509  0.2667 -0.1884
 4794W        W 8845   9.297   2.899   9.784  0.2966 -0.2359  0.0840
 4795W        W 8846   4.647   6.279  11.385 -0.1097  0.4944  0.2742
 4796W        W 8847   2.325   8.582  12.180 -0.0319  0.1389 -0.2169
 4797W        W 8848   8.187   4.932   5.585 -0.5095  0.1931 -0.0168
 4798W        W 8849   1.827   4.431  11.376 -0.0508  0.0416 -0.1459
 4799W        W 8850   2.592   7.633  12.208  0.1249  0.1952  0.2050
 4800W        W 8851   1.817   2.091  11.684 -0.0847  0.1542 -0.0396
 4801W        W 8852   8.164   9.739   1.418  0.1120  0.0714  0.0198
 4802W        W 8853   3.830   8.409   1.212 -0.1197 -0.0014  0.1298
 4803W        W 8854   0.854   9.453  13.242  0.1295  0.2020 -0.0305
 4804W        W 8855   2.038   9.552   5.134  0.1272  0.1246  0.0880
 4805W        W 8856   4.975   6.719   1.606  0.1238 -0.2916  0.2648
 4806W        W 8857   3.436   5.076   1.471  0.0154  0.3702 -0.3938
 4807W        W 8858   4.758   4.589   1.915 -0.0223 -0.2622 -0.0345
 4808W        W 8859  10.060   4.320   3.945  0.2127  0.3242 -0.0028
 4809W        W 8860   9.788   8.233   4.949  0.2001 -0.0355 -0.2698
 4810W        W 8861   9.145   8.792   0.023  0.0501 -0.0620 -0.0001
 4811W        W 8862   3.161   7.968   1.714  0.0960  0.1007 -0.1228
 4812W        W 8863   7.108   3.389   0.173  0.5142 -0.0569  0.0595
 4813W        W 8864   8.698   3.650   2.292  0.1421  0.0723  0.0322
 4814W        W 8865   8.103   4.614   3.364 -0.1251  0.2002  0.0959
 4815W        W 8866   3.772   6.293   1.466 -0.1872  0.1605 -0.3578
 4816W        W 8867   5.633   2.587   4.337 -0.1973 -0.2966 -0.2126
 4817W        W 8868   2.134   4.284   0.807  0.2813  0.0164  0.0491
 4818W        W 8869   3.571   7.902   3.075 -0.0568  0.0630  0.0878
 4819W        W 8870   1.196   9.406   9.987 -0.2586  0.0048 -0.4015
 4820W        W 8871   3.287   8.978   1.875  0.2285 -0.0305  0.2422
 4821W        W 8872   8.846   6.481   9.315  0.0886 -0.1933  0.0317
 4822W        W 8873   8.241   3.727  11.184 -0.0280  0.4707 -0.0912
 4823W        W 8874   8.754   9.391   9.535 -0.2211  0.1964 -0.1290
 4824W        W 8875   1.899   5.053   0.107 -0.5043  0.2124 -0.2245
 4825W        W 8876   8.625   1.755   9.851 -0.0411  0.0086  0.0890
 4826W        W 8877   0.075   2.912  11.314 -0.0247 -0.0815  0.0206
 4827W        W 8878   3.520   2.704  11.595  0.1282  0.1369  0.3274
 4828W        W 8879   5.287   4.026  13.888  0.0178  0.1237 -0.1210
 4829W        W 8880   6.170   8.784   3.817 -0.1154 -0.1388  0.1128
 4830W        W 8881   6.924   3.938   2.943 -0.2950 -0.0160 -0.0032
 4831W        W 8882   0.237   8.794   5.246 -0.2256  0.0342 -0.1122
 4832W        W 8883   5.733   4.606   1.705  0.1340  0.0525 -0.3380
 4833W        W 8884   5.202   1.203  10.041 -0.0494 -0.1915 -0.1175
 4834W        W 8885   4.655   5.684   1.447 -0.0309 -0.2649 -0.1719
 4835W        W 8886   4.830   5.472   0.284 -0.1227  0.1545  0.1000
 4836W        W 8887   4.897   6.000  10.309  0.1622  0.3094  0.0460
 4837W        W 8888   3.960   5.873  10.955 -0.1607  0.3147  0.2093
 4838W        W 8889   6.317   5.254   2.652 -0.1779  0.1328  0.2039
 4839W        W 8890  10.166   6.421   2.775  0.0973  0.0782 -0.0494
 4840W        W 8891   9.266   2.280   3.326 -0.1726  0.1904  0.0063
 4841W        W 8892   8.311   9.093   2.339 -0.1901  0.4218 -0.0210
 4842W        W 8893   6.225   3.339  13.626  0.1122  0.1916 -0.0342
 4843W        W 8894   5.739   7.698  10.399  0.1896 -0.1953 -0.0358
 4844W        W 8895   8.321   2.939   1.616 -0.0005  0.2651  0.0144
 4845W        W 8896   7.807   4.285   9.981 -0.2105  0.1243 -0.0695
 4846W        W 8897   8.533   5.569  10.621  0.1845  0.1991  0.1331
 4847W        W 8898   3.778   7.983  13.446 -0.0455 -0.0671  0.0945
 4848W        W 8899   4.668   7.677   4.172 -0.1942  0.0418  0.3772
 4849W        W 8900   3.979   1.673  13.608  0.0276 -0.0920 -0.2267
 4850W        W 8901   8.951   0.621   9.629  0.2312 -0.1541  0.0888
 4851W        W 8902   6.072   3.982   0.176  0.2137 -0.0774 -0.1079
 4852W        W 8903   3.855   7.992  12.082 -0.0995 -0.2552 -0.1408
 4853W        W 8904   4.552   0.528   4.212 -0.3276  0.2353 -0.0838
 4854W        W 8905   0.399   8.684   3.609  0.0155  0.0861  0.1439
 4855W        W 8906   2.965   8.479  11.146 -0.3161 -0.1583  0.1542
 4856W        W 8907   0.794   8.744   4.966  0.3338  0.1337  0.1680
 4857W        W 8908   6.294   4.851   1.096 -0.0767 -0.2990  0.1389
 4858W        W 8909   9.909   8.144   3.080  0.1641 -0.0966 -0.2788
 4859W        W 8910   3.217   8.220   3.285 -0.3061  0.0724 -0.2759
 4860W        W 8911   6.977   5.848  12.566  0.0105 -0.0851  0.0593
 4861W        W 8912   0.089   2.663  11.788  0.2355 -0.1128  0.0762
 4862W        W 8913   8.558   0.536   9.303 -0.1126 -0.0842 -0.0682
 4863W        W 8914   6.204   5.445   3.741  0.1302  0.0032 -0.0725
 4864W        W 8915   2.561   9.098   1.053  0.1181  0.1868 -0.1799
 4865W        W 8916   7.609   9.099   4.817  0.0969  0.2367 -0.2727
 4866W        W 8917   8.014   0.646   3.718  0.2632 -0.0521  0.1986
 4867W        W 8918   7.044   8.240   9.366 -0.0531  0.0209 -0.1001
 4868W        W 8919   5.131   9.194  13.686 -0.1081  0.0881 -0.2562
 4869W        W 8920   7.919   9.888   0.526  0.0537 -0.1344  0.0803
 4870W        W 8921   9.366   6.655  13.318 -0.2226  0.0264 -0.1964
 4871W        W 8922   5.560   7.913  11.943  0.0538 -0.1838 -0.0585
 4872W        W 8923   5.570   4.336   3.900 -0.2481 -0.0255 -0.7008
 4873W        W 8924   2.960   8.571  12.965 -0.0401 -0.2132  0.1976
 4874W        W 8925   8.415   6.826  11.153 -0.3061  0.0998  0.1190
 4875W        W 8926   5.447   9.135   2.397  0.3064  0.2375 -0.0703
 4876W        W 8927   8.315   0.712   2.886 -0.4355 -0.1354  0.4453
 4877W        W 8928   5.858   6.364   1.883 -0.1370  0.2190  0.0226
 4878W        W 8929   1.449   0.735  11.620 -0.0400 -0.0243 -0.0225
 4879W        W 8930   8.508   0.905   2.375 -0.0473 -0.1952 -0.3072
 4880W        W 8931   0.715   7.135   0.675 -0.1636  0.0409  0.1074
 4881W        W 8932   8.303   0.393   2.427  0.2416 -0.1624 -0.1981
 4882W        W 8933  10.180   4.856  11.464 -0.1031  0.1953  0.0159
 4883W        W 8934   4.608   8.460   1.349  0.0009  0.2282 -0.1808
 4884W        W 8935   0.688   0.801   4.601  0.0463  0.2163 -0.0795
 4885W        W 8936   2.023   7.770  12.186  0.2155 -0.0337 -0.3210
 4886W        W 8937   2.874   6.290   2.526 -0.2874 -0.3012 -0.3302
 4887W        W 8938   4.102   0.846   1.545 -0.1984 -0.4130  0.0493
 4888W        W 8939   5.598   5.136   0.626 -0.0419  0.0919  0.1960
 4889W        W 8940   5.759   6.632  13.692 -0.0901  0.1709 -0.0211
 4890W        W 8941   1.323   7.906  13.656 -0.1963 -0.2829  0.1852
 4891W        W 8942   8.908   3.633  10.341  0.0255  0.1719  0.0646
 4892W        W 8943   6.605   6.676   8.824  0.1722  0.0290  0.1914
 4893W        W 8944   9.000   7.387   4.053 -0.1920  0.2235  0.1527
 4894W        W 8945   0.197   1.654   0.410 -0.2460  0.2109 -0.3436
 4895W        W 8946   2.570  10.020   0.811 -0.1897  0.0479  0.0850
 4896W        W 8947   9.786   9.619   5.122  0.1186 -0.3014  0.0560
 4897W        W 8948   9.356   7.057   2.869 -0.1580 -0.2910 -0.0835
 4898W        W 8949   4.460   4.548   0.936  0.1215 -0.1256  0.0125
 4899W        W 8950   6.581   4.993  13.642  0.1828 -0.0216 -0.2126
 4900W        W 8951   9.593  10.053   4.396 -0.0450 -0.1220  0.1576
 4901W        W 8952   9.268   7.105  13.648  0.5051 -0.0656 -0.2158
 4902W        W 8953   4.746   5.384  10.785  0.1610  0.1017 -0.1931
 4903W        W 8954   3.640   6.080  10.663 -0.1662 -0.2286 -0.1085
 4904W        W 8955   3.247   0.577   3.632 -0.0839 -0.2091 -0.0500
 4905W        W 8956   5.807   6.899  10.999  0.2992 -0.2831 -0.1397
 4906W        W 8957   3.486   0.874   3.238 -0.2997  0.2019  0.0039
 4907W        W 8958   1.605   7.902  13.250  0.1207  0.1127  0.0722
 4908W        W 8959   7.355   0.622  12.701  0.0901  0.0804 -0.1359
 4909W        W 8960   0.831   0.611   3.905  0.0231  0.1605 -0.2122
 4910W        W 8961   0.635   3.561   1.622  0.1890  0.1819  0.0383
 4911W        W 8962   5.073   0.404   4.197 -0.2091  0.4343  0.1561
 4912W        W 8963   8.643   4.027  10.081 -0.0611  0.2227 -0.1970
 4913W        W 8964   2.961   2.097   4.661  0.4093 -0.1683  0.1090
 4914W        W 8965   9.847   1.292   9.793  0.0245  0.1494 -0.0652
 4915W        W 8966   1.521   3.454  11.921  0.1619 -0.0996  0.1904
 4916W        W 8967  10.090   3.705  13.306  0.0233  0.2101  0.1499
 4917W        W 8968   8.029   0.704   8.692 -0.1157  0.1364 -0.0656
 4918W        W 8969   8.817   4.593   4.611  0.3037 -0.0126 -0.1878
 4919W        W 8970   8.998   5.214   3.860  0.3027  0.0773  0.1144
 4920W        W 8971   2.747   2.699  10.704 -0.0518  0.0047  0.0510
 4921W        W 8972   9.735   4.110   1.992 -0.2013  0.1934  0.2274
 4922W        W 8973   2.024   1.339   0.622 -0.2632  0.0498 -0.0834
 4923W        W 8974   4.657   8.468  10.446  0.0396 -0.0970  0.1225
 4924W        W 8975   2.130   1.692   3.825 -0.0111 -0.2272 -0.0230
 4925W        W 8976   2.326  10.176  13.454 -0.3539  0.0251  0.1285
 4926W        W 8977   6.944   3.832   4.298  0.0751 -0.1391  0.1141
 4927W        W 8978   5.852   4.450   2.169 -0.0208 -0.2328  0.1373
 4928W        W 8979   1.850   9.820   3.334 -0.1027 -0.2253  0.1048
 4929W        W 8980   8.917   8.433   2.777  0.2045  0.2484 -0.2633
 4930W        W 8981   0.218   2.928   9.226  0.1559  0.1288  0.2884
 4931W        W 8982   5.253   6.918  12.555  0.1764  0.2498  0.2186
 4932W        W 8983   5.846   7.482   2.943  0.1300 -0.1195  0.3015
 4933W        W 8984   4.032   2.629   0.339 -0.3024  0.0620 -0.2085
 4934W        W 8985   8.390   7.126  11.711 -0.1682 -0.1106  0.0409
 4935W        W 8986   7.065   4.620   8.608 -0.2004 -0.3860  0.0965
 4936W        W 8987   4.585   7.393  12.980 -0.0736 -0.3919 -0.2630
 4937W        W 8988   7.693   9.286   1.208  0.2705 -0.0371  0.1891
 4938W        W 8989   5.878   1.923   2.046 -0.0440  0.1603  0.1120
 4939W        W 8990   5.549   5.409  11.544  0.1364 -0.1017 -0.2281
 4940W        W 8991   4.246   6.607   1.359 -0.2552 -0.2345 -0.1055
 4941W        W 8992   3.639   8.705  12.363  0.0058  0.0196  0.2494
 4942W        W 8993   0.447   4.927   0.603 -0.0367 -0.2436 -0.1898
 4943W        W 8994   6.124   2.406   0.388  0.1011 -0.3796  0.1855
 4944W        W 8995   9.908   8.585  11.026 -0.1761  0.2363 -0.1605
 4945W        W 8996   5.919   0.920   2.050  0.0718 -0.1534 -0.1115
 4946W        W 8997   2.921   1.447   9.798 -0.1053 -0.2319 -0.3353
 4947W        W 8998  10.039   5.571   0.660 -0.0082 -0.0447 -0.1219
 4948W        W 8999   8.629   1.507   2.375 -0.1483 -0.0369 -0.0538
 4949W        W 9000   1.907   0.034   8.659 -0.2915 -0.1502 -0.0692
 4950W        W 9001   3.380   7.253   9.615 -0.0136 -0.0486  0.2250
 4951W        W 9002   9.812   4.500   9.653 -0.2129 -0.0212  0.1269
 4952W        W 9003   0.749   1.292  12.569  0.0515 -0.1294  0.2476
 4953W        W 9004   2.726   7.558   2.009 -0.2843 -0.3189 -0.1984
 4954W        W 9005   0.839   6.503  12.840  0.1251  0.0486  0.0343
 4955W        W 9006   7.277   7.263   9.564 -0.0895  0.3848 -0.1882
 4956W        W 9007   8.678   2.595   9.739 -0.0223  0.3559  0.1305
 4957W        W 9008   0.090   7.454   3.573  0.1919  0.0173 -0.0827
 4958W        W 9009   6.736   2.553  13.316  0.0532 -0.1142  0.0488
 4959W        W 9010   3.102   2.438  12.788 -0.1531  0.0375 -0.3881
 4960W        W 9011   8.949   2.631  11.412  0.0059 -0.1091 -0.0417
 4961W        W 9012   9.410   3.229   1.172 -0.1438 -0.0312  0.0821
 4962W        W 9013   3.675   1.673   4.032  0.0792  0.0669  0.0273
 4963W        W 9014   5.303   0.767   3.563 -0.0197  0.1608  0.1449
 4964W        W 9015   9.904   6.028   1.555  0.3421  0.0480  0.0845
 4965W        W 9016   9.456   3.147   8.766 -0.0974 -0.0416 -0.3263
 4966W        W 9017   8.260   8.848  10.333  0.1461  0.0498 -0.2926
 4967W        W 9018   1.214   3.720   3.092 -0.0642  0.0001 -0.0196
 4968W        W 9019   7.065   1.204   2.618  0.1646 -0.0115 -0.0450
 4969W        W 9020   6.599   9.369  13.240  0.1215 -0.1469  0.4741
 4970W        W 9021   7.349   3.694   2.888  0.1269 -0.0973 -0.2527
 4971W        W 9022   6.494   1.037   2.094  0.1485  0.1443  0.0406
 4972W        W 9023   0.548   6.521  10.437  0.0227 -0.0185  0.1646
 4973W        W 9024   7.657   3.262  11.573  0.1291 -0.3159  0.0364
 4974W        W 9025   0.092   2.627   0.130 -0.1014  0.1226  0.0571
 4975W        W 9026   2.045   3.399   1.375 -0.1842 -0.1649  0.0318
 4976W        W 9027   1.224   7.525   3.889 -0.0760 -0.2646 -0.0697
 4977W        W 9028   8.911   8.997   2.450 -0.2253  0.2254  0.0144
 4978W        W 9029   2.028   6.533  13.501  0.4910 -0.0888 -0.1585
 4979W        W 9030   3.145   7.452   8.986 -0.2583 -0.2324 -0.2031
 4980W        W 9031   9.965   1.112   4.342 -0.1847 -0.0234 -0.3549
 4981W        W 9032   6.064   3.380   2.136  0.2186 -0.0162  0.3624
 4982W        W 9033   1.642   4.046   2.667 -0.1089  0.1414 -0.1563
 4983W        W 9034   3.460   1.880   2.412  0.1970  0.0066 -0.0155
 4984W        W 9035   6.238   1.806  12.117 -0.0325  0.2101  0.0616
 4985W        W 9036   6.316   6.227  13.062  0.2136  0.1013  0.1604
 4986W        W 9037   8.934   6.972   1.091 -0.2616 -0.2748 -0.0588
 4987W        W 9038   5.189   6.409  13.885  0.0453  0.2420 -0.3636
 4988W        W 9039   8.987   5.156   4.642 -0.1784  0.0979  0.0592
 4989W        W 9040   9.157   7.423   5.789 -0.1591 -0.0091  0.0552
 4990W        W 9041   2.864   0.335   2.652 -0.2919 -0.2087  0.0370
 4991W        W 9042   9.074   8.044  12.522  0.0729 -0.2065  0.0581
 4992W        W 9043   8.092   2.068   3.073 -0.1817  0.0988  0.3177
 4993W        W 9044   0.366   3.290  12.488 -0.2093 -0.0738 -0.1912
 4994W        W 9045   9.537   3.029   3.458  0.3599 -0.0210  0.3135
 4995W        W 9046   9.458   0.645   4.951  0.0652 -0.1378 -0.1659
 4996W        W 9047   3.938   9.043   3.259  0.0901  0.0212 -0.2060
 4997W        W 9048   5.900   1.544  11.394  0.0623  0.2590 -0.0499
 4998W        W 9049   6.062   6.646  12.759  0.2062 -0.0121 -0.0855
 4999W        W 9050   4.537   0.220  13.525  0.0745  0.1309  0.5417
 5000W        W 9051   3.455   8.809   3.232  0.2334 -0.0331 -0.0636
 5001W        W 9052   7.176   9.591   3.134 -0.2772 -0.2079 -0.1622
 5002W        W 9053   1.945   5.836  12.197 -0.1174 -0.2177  0.2230
 5003W        W 9054   7.542   8.723  13.420  0.2278  0.2094 -0.0612
 5004W        W 9055   7.411   6.408   0.807 -0.0399  0.1530  0.2060
 5005W        W 9056   6.771   2.882  10.369  0.1712  0.0967 -0.5714
 5006W        W 9057   4.568   5.559   3.156 -0.5592  0.0678 -0.0251
 5007W        W 9058   9.290   6.677   2.511  0.1683  0.2292  0.1845
 5008W        W 9059   0.646   0.094  12.834  0.1548 -0.1114  0.1406
 5009W        W 9060   3.427   6.962  10.924 -0.0413 -0.3772 -0.0848
 5010W        W 9061   0.890   0.596   2.868 -0.0307  0.4625 -0.1036
 5011W        W 9062   8.920   9.067   1.979 -0.1630  0.1690 -0.2154
 5012W        W 9063   3.338   3.247  12.488 -0.4201  0.0788  0.2964
 5013W        W 9064   1.683   3.478  13.055 -0.1037  0.0557  0.0505
 5014W        W 9065   0.895   6.693  10.984  0.1353 -0.2691  0.1500
 5015W        W 9066   0.599   9.861   3.643  0.1181 -0.2265 -0.3446
 5016W        W 9067   7.312   4.110   8.976 -0.2706  0.0194  0.1813
 5017W        W 9068   2.081   3.442  11.905 -0.0078 -0.1073  0.0161
 5018W        W 9069   1.295   1.409   4.306 -0.0231  0.0294 -0.0729
 5019W        W 9070   6.218   5.654   9.910  0.1493  0.2509  0.0904
 5020W        W 9071   4.682   4.890  12.623 -0.0778  0.0109 -0.1167
 5021W        W 9072   4.156   7.312   2.331  0.0671 -0.1549 -0.2631
 5022W        W 9073   7.075   0.147  11.126 -0.0463 -0.0203  0.0212
 5023W        W 9074   5.935   3.769   2.564  0.3019  0.1459 -0.1439
 5024W        W 9075   7.314   4.291   9.452 -0.0747  0.1289 -0.4245
 5025W        W 9076   3.167   5.462   3.342  0.0930 -0.2421  0.0871
 5026W        W 9077   9.688   5.889   1.937  0.2580  0.3926 -0.2626
 5027W        W 9078   7.953   2.338   2.602  0.2833  0.0597 -0.0156
 5028W        W 9079   8.004   4.362   0.792  0.1887 -0.1077  0.0065
 5029W        W 9080   9.347   8.296  12.875  0.0838  0.0407  0.0736
 5030W        W 9081   0.764   0.899  12.240  0.0664 -0.0146 -0.0311
 5031W        W 9082  10.094   0.497   2.380 -0.2719 -0.3627  0.1328
 5032W        W 9083   8.968   0.599   2.344 -0.4173 -0.4540 -0.0130
 5033W        W 9084   2.813   1.237  13.227 -0.2743 -0.0988  0.1706
 5034W        W 9085   8.945   2.702  11.900  0.2024  0.1080 -0.2448
 5035W        W 9086   6.533   5.186  12.848 -0.1418 -0.0267  0.2109
 5036W        W 9087   1.405   3.254   3.143  0.0794  0.0709  0.1296
 5037W        W 9088   3.038   6.904  13.121  0.0105 -0.0511  0.1599
 5038W        W 9089   8.091   4.129  13.226  0.0243 -0.0947 -0.1625
 5039W        W 9090   6.568   6.660  13.144 -0.1743 -0.0001 -0.1095
 5040W        W 9091   6.152   5.054   5.480  0.0758 -0.3659  0.1219
 5041W        W 9092   1.348   7.523   3.187 -0.2770  0.0824 -0.1941
 5042W        W 9093   2.570   9.840  13.676 -0.4793  0.2532 -0.2970
 5043W        W 9094   8.401   4.176   4.559 -0.3923  0.0863 -0.2058
 5044W        W 9095   0.355   5.163   1.036  0.0303  0.0408  0.3154
 5045W        W 9096   8.812   8.219  10.334 -0.1497  0.2927  0.3372
 5046W        W 9097   3.959   3.448   4.634  0.1310  0.2491  0.1047
 5047W        W 9098   5.742  10.048   1.235  0.2377 -0.1100 -0.1406
 5048W        W 9099   7.276   4.988   2.524 -0.0609  0.5986 -0.2578
 5049W        W 9100   9.707   4.787  12.482 -0.1352 -0.1733 -0.3753
 5050W        W 9101   5.950   3.558  11.176  0.2807  0.2826 -0.1713
 5051W        W 9102   4.199   6.817   3.288 -0.2638  0.0284  0.0140
 5052W        W 9103   1.429   4.837  13.643  0.3513 -0.0312  0.1501
 5053W        W 9104   6.525   5.840  13.348 -0.4809  0.1582 -0.0310
 5054W        W 9105   4.614   8.477  12.567 -0.0083  0.0953  0.0353
 5055W        W 9106   4.175   6.026   2.343  0.0577 -0.0578 -0.0469
 5056W        W 9107   4.776   0.521   4.615  0.0441  0.0697 -0.2351
 5057W        W 9108   9.107   5.785  11.579 -0.4358 -0.1113 -0.3603
 5058W        W 9109   6.274   4.511   1.829 -0.2277 -0.0750  0.1524
 5059W        W 9110   5.751   9.528  11.773  0.0028 -0.1642  0.0516
 5060W        W 9111   0.043   8.150  13.338  0.1629  0.1433 -0.3915
 5061W        W 9112   7.971   6.929  11.484 -0.0782 -0.0152 -0.0710
 5062W        W 9113   9.383   9.819   1.035  0.0105  0.1334  0.0503
 5063W        W 9114   0.380   2.014   1.337 -0.2126 -0.2035  0.3767
 5064W        W 9115   0.914   0.245   1.073 -0.0976  0.0412  0.1440
 5065W        W 9116   8.012   1.255  11.932  0.0573 -0.1636  0.2802
 5066W        W 9117   4.582   7.990   1.882 -0.2633  0.2110  0.2653
 5067W        W 9118   8.162   3.593   0.136  0.1706 -0.3521 -0.1729
 5068W        W 9119   3.433   1.335   2.692  0.0387 -0.1500  0.1186
 5069W        W 9120   1.609   0.515   1.067  0.3362 -0.2665  0.3144
 5070W        W 9121   3.333   0.552   9.073 -0.0456 -0.1010  0.1209
 5071W        W 9122   4.881   8.225   0.150  0.0660  0.0224 -0.2119
 5072W        W 9123   4.201   7.506   1.486 -0.1648  0.2027 -0.1622
 5073W        W 9124   9.379   0.328  10.888 -0.2000 -0.1822  0.5300
 5074W        W 9125   2.419  10.144   9.992  0.0821  0.1430 -0.0859
 5075W        W 9126   8.485   8.519   3.199 -0.0054  0.2551  0.0722
 5076W        W 9127   1.522   9.663  11.469  0.0859  0.0161 -0.3256
 5077W        W 9128   6.926   9.099   1.337 -0.1168 -0.2643 -0.1003
 5078W        W 9129   1.158   8.718   0.159  0.2857 -0.2902 -0.1839
 5079W        W 9130   9.152   9.385   3.820 -0.1676 -0.1295 -0.1633
 5080W        W 9131   3.226   8.878   2.361  0.3284 -0.2891  0.0920
 5081W        W 9132   4.733   9.604   4.356  0.1576  0.0352 -0.1757
 5082W        W 9133   2.165   6.023  12.676 -0.0601 -0.2971  0.0818
 5083W        W 9134   8.100   3.488   9.007  0.3367 -0.0458 -0.0908
 5084W        W 9135   8.628   4.541  11.960  0.0198 -0.0749  0.1464
 5085W        W 9136   5.560  10.083  10.722  0.0593  0.3931  0.3784
 5086W        W 9137   0.660   8.521  11.283 -0.2351 -0.2297  0.0169
 5087W        W 9138   3.589   2.268  12.966 -0.0865 -0.0037  0.0353
 5088W        W 9139   0.282   9.640   2.891 -0.1031 -0.2213  0.2365
 5089W        W 9140   6.892   8.988  13.131 -0.0114 -0.1276 -0.0465
 5090W        W 9141   1.106   2.262  13.693 -0.0869 -0.4141 -0.2020
 5091W        W 9142   0.986   9.848  13.635  0.4008 -0.0365 -0.1901
 5092W        W 9143   7.947   1.337   2.864  0.0175  0.1087  0.3253
 5093W        W 9144   3.070   8.539  13.901  0.3663 -0.2472 -0.0351
 5094W        W 9145   4.693   6.520   1.069 -0.0802  0.3140  0.3802
 5095W        W 9146   7.418   5.937   9.802  0.0478 -0.0068 -0.0813
 5096W        W 9147   4.166   7.290   3.584 -0.0909  0.2351 -0.0355
 5097W        W 9148   9.973   1.128  13.500 -0.1185  0.3458 -0.1421
 5098W        W 9149   3.532   3.215   9.738 -0.0529  0.2028  0.0119
 5099W        W 9150   8.698   1.543   4.856 -0.1835  0.2074 -0.2089
 5100W        W 9151   7.256   3.691   0.692  0.4375 -0.1990  0.1420
 5101W        W 9152   6.859   0.411  12.085  0.1683 -0.1511  0.2707
 5102W        W 9153   1.328   0.669  12.162 -0.1007 -0.3153 -0.1917
 5103W        W 9154   9.816   7.872  13.574 -0.0194  0.0108  0.0782
 5104W        W 9155   8.690   2.708   0.265 -0.0302  0.0361 -0.2202
 5105W        W 9156   3.069   5.167  10.316 -0.0385 -0.2906 -0.2606
 5106W        W 9157   5.946   5.413   1.764  0.0435  0.0233  0.1019
 5107W        W 9158   2.889   2.526  13.623  0.3061 -0.0062  0.1190
 5108W        W 9159   7.310   6.501  10.007  0.0016  0.0946 -0.0285
 5109W        W 9160   2.844   6.687  12.461  0.0849  0.5148 -0.3157
 5110W        W 9161   0.960   7.256   2.248  0.1140 -0.2163  0.0225
 5111W        W 9162   3.925   7.773  12.590 -0.1668  0.2922 -0.0608
 5112W        W 9163   5.569   8.215   9.821  0.1663 -0.0124  0.1574
 5113W        W 9164   8.131   7.247   1.001  0.0616  0.3213  0.1976
 5114W        W 9165   8.914   2.397   1.802  0.3222 -0.1949  0.1842
 5115W        W 9166   6.580   4.648   9.836 -0.1405  0.1137 -0.3266
 5116W        W 9167   0.631   7.112   3.017  0.1927  0.4982  0.0413
 5117W        W 9168   5.543   2.778  12.197  0.3754  0.0494 -0.1607
 5118W        W 9169   2.989   6.121  10.803  0.0303  0.3040 -0.2325
 5119W        W 9170   3.600   9.002  13.445  0.0189 -0.1537 -0.1105
 5120W        W 9171   6.111   2.632   3.096 -0.0540  0.0164  0.0003
 5121W        W 9172   0.062   8.994   3.327 -0.1594  0.3241  0.0957
 5122W        W 9173   2.570   0.683   2.487  0.1049  0.2213 -0.0499
 5123W        W 9174   8.161   8.536  11.253 -0.0006 -0.0209 -0.0283
 5124W        W 9175   4.282   0.216   4.502 -0.0853 -0.0026  0.0468
 5125W        W 9176   8.049   8.698   2.665 -0.0370  0.2581  0.1338
 5126W        W 9177   5.200   1.176   5.048 -0.1826  0.0632  0.2167
 5127W        W 9178   0.912   7.667  12.442 -0.1711 -0.1447  0.0542
 5128W        W 9179   5.426   9.170   4.012 -0.0192  0.3066  0.3428
 5129W        W 9180   1.289   6.092  13.675  0.2266  0.1083  0.1729
 5130W        W 9181   7.857   5.053   3.091  0.3915 -0.1069  0.2011
 5131W        W 9182   1.923   5.373   2.055  0.2020 -0.2728 -0.1156
 5132W        W 9183   8.570   1.137   4.551  0.3835 -0.1791  0.1225
 5133W        W 9184   4.621   5.259   2.719  0.2327  0.1837 -0.2005
 5134W        W 9185   1.128   2.298   3.491 -0.1990 -0.1276 -0.1542
 5135W        W 9186   3.479   3.381  10.323  0.1698  0.2079 -0.2168
 5136W        W 9187   0.028   9.900  13.388  0.0954  0.0684  0.0195
 5137W        W 9188   4.040   8.145  12.905  0.0794 -0.1203 -0.0534
 5138W        W 9189   3.139   1.002   0.473 -0.0263  0.4805 -0.0221
 5139W        W 9190   3.803   9.125  12.600 -0.1952  0.4678 -0.0223
 5140W        W 9191   9.298  10.152  13.017 -0.0848 -0.0638 -0.0823
 5141W        W 9192   7.358   2.332   8.907 -0.1000 -0.1685  0.0931
 5142W        W 9193   4.665   0.011   1.078 -0.2492  0.2933  0.3971
 5143W        W 9194   4.331   0.832   1.055 -0.2765  0.1998  0.1262
 5144W        W 9195   1.954   2.555   3.494  0.1243 -0.1148 -0.0801
 5145W        W 9196   4.694   0.738   2.472 -0.0951 -0.1655 -0.0027
 5146W        W 9197   2.870   0.591   4.504 -0.0374 -0.0084 -0.2865
 5147W        W 9198   7.082   5.811  13.289 -0.1404  0.1655  0.4608
 5148W        W 9199   9.271   3.895   3.966  0.0564  0.1999 -0.1786
 5149W        W 9200   4.278   9.014   3.655 -0.1121 -0.1455  0.0982
 5150W        W 9201   1.040   2.010   0.682  0.6002 -0.3098 -0.2007
 5151W        W 9202   7.334   1.521  12.685  0.1961 -0.1897 -0.3090
 5152W        W 9203   7.382   5.232   9.905 -0.0135  0.0371  0.1293
 5153W        W 9204   9.212   4.503  10.427  0.3486 -0.0832 -0.1006
 5154W        W 9205   1.605   3.574   3.563  0.1731 -0.2820 -0.1595
 5155W        W 9206   7.510   4.775  10.135  0.0874  0.2625 -0.1631
 5156W        W 9207   3.154   0.247   0.089 -0.1765 -0.1034 -0.0519
 5157W        W 9208   5.988   8.993   9.300 -0.0647  0.1388 -0.1580
 5158W        W 9209   3.541   9.371  13.089 -0.1886 -0.2489 -0.0681
 5159W        W 9210   3.800   8.926   8.640 -0.1531 -0.2589  0.1689
 5160W        W 9211   5.014   4.088   4.347  0.4273  0.0171  0.0226
 5161W        W 9212   1.878   6.673   0.018 -0.0380  0.0229  0.0180
 5162W        W 9213   6.815   3.800  10.546 -0.2129  0.0162  0.2716
 5163W        W 9214   2.495   6.622  13.345  0.2252 -0.0372  0.0179
 5164W        W 9215   5.732   5.635  13.721  0.0048  0.0727  0.1767
 5165W        W 9216   8.288   1.685   3.843 -0.0036 -0.6813  0.4887
 5166W        W 9217  10.081   3.349   3.579  0.0301  0.1720  0.2839
 5167W        W 9218   1.588   5.674   1.247 -0.0921 -0.2069 -0.0188
 5168W        W 9219   7.528   5.939  12.460  0.1063  0.0265 -0.0635
 5169W        W 9220   5.469   7.221  10.134  0.0144 -0.2466 -0.0688
 5170W        W 9221   5.996   6.206  11.367  0.2016  0.0061 -0.0193
 5171W        W 9222   1.545   8.861  12.722  0.1134 -0.2373 -0.0423
 5172W        W 9223   8.788   1.542   2.919  0.1474 -0.0642 -0.1277
 5173W        W 9224   3.933   4.567  10.689  0.0243 -0.1337  0.1546
 5174W        W 9225   5.070   0.368   9.439 -0.1016  0.1872  0.2706
 5175W        W 9226   7.267   9.114   9.927  0.0932  0.3166 -0.1661
 5176W        W 9227   4.122   3.265   2.553 -0.0237 -0.2601  0.1927
 5177W        W 9228   5.053   4.029  11.691  0.0824  0.0294 -0.4593
 5178W        W 9229   5.035   9.647  13.429  0.0509 -0.1727 -0.0950
 5179W        W 9230   8.213   7.718   2.650  0.1100  0.1148 -0.0778
 5180W        W 9231   3.265   3.471  11.921  0.1742  0.0025 -0.0030
 5181W        W 9232   3.982   8.692   2.845  0.3749  0.1351  0.0005
 5182W        W 9233   5.230   9.348   3.538 -0.0306  0.1121  0.1380
 5183W        W 9234   0.815   5.258  11.503 -0.1362  0.1030 -0.1540
 5184W        W 9235   8.516   5.957   2.469 -0.0764 -0.3981 -0.1173
 5185W        W 9236   8.763   8.210   4.857 -0.2333 -0.1998  0.1705
 5186W        W 9237   3.591   7.698   1.499 -0.1562  0.0639  0.2891
 5187W        W 9238   5.278   8.123   8.679  0.2355  0.2130 -0.0581
 5188W        W 9239   3.544   6.640  11.910  0.1555 -0.1169 -0.2202
 5189W        W 9240   3.557   3.261   1.616 -0.0273 -0.1165 -0.1826
 5190W        W 9241   7.012   3.108   1.032 -0.1458  0.0511  0.0223
 5191W        W 9242   8.967   7.881   3.447  0.1460 -0.0488  0.1257
 5192W        W 9243   3.895   0.834   0.203 -0.4115  0.1542  0.0460
 5193W        W 9244   2.825   8.115   0.934  0.3603  0.1964  0.0529
 5194W        W 9245   6.126   4.973   9.824 -0.0322  0.0106 -0.1075
 5195W        W 9246   5.858   8.479   4.519 -0.1089 -0.1482 -0.1812
 5196W        W 9247   9.854   3.816  11.889  0.1779  0.0550 -0.1098
 5197W        W 9248   5.122   4.200   2.196 -0.3080 -0.0836  0.1914
 5198W        W 9249   9.057   4.973   9.218 -0.3017 -0.1107 -0.3307
 5199W        W 9250   6.561   2.417   0.134  0.0817  0.0516  0.0244
 5200W        W 9251   1.909   4.800   1.801 -0.0079 -0.1332 -0.1066
 5201W        W 9252   7.925   0.770  10.165 -0.0100 -0.0647 -0.2891
 5202W        W 9253   3.928  10.169   2.633  0.1663 -0.1802 -0.1592
 5203W        W 9254   0.929   8.703   2.061 -0.0667 -0.0665 -0.0773
 5204W        W 9255   6.903   2.837   2.897  0.5063  0.4630  0.1761
 5205W        W 9256   8.034   3.185   4.092  0.2118  0.0141  0.0348
 5206W        W 9257   9.264   8.822   1.000  0.0470 -0.1362  0.1044
 5207W        W 9258   2.836   5.952  13.462  0.0479 -0.1888  0.0388
 5208W        W 9259   5.628   9.748  12.702 -0.1411  0.1700 -0.0783
 5209W        W 9260   2.414   5.611   1.934  0.3169  0.1718 -0.0395
 5210W        W 9261   2.327   8.020  12.527 -0.1195  0.2817 -0.5215
 5211W        W 9262   7.524   1.431   4.407 -0.1590  0.0015 -0.1771
 5212W        W 9263   9.441   9.201   1.659  0.1137 -0.0358 -0.0663
 5213W        W 9264   2.718   5.764   3.257 -0.0897  0.1038 -0.4038
 5214W        W 9265   7.341   0.524   9.837  0.0235  0.2333  0.2377
 5215W        W 9266   9.837   1.646  11.123  0.0269  0.2061  0.0644
 5216W        W 9267   1.695   7.477  13.469 -0.2897 -0.3347  0.0569
 5217W        W 9268   1.035   1.863   4.945  0.0288  0.1208  0.0305
 5218W        W 9269   7.330   7.131  10.791  0.2377  0.1468 -0.1500
 5219W        W 9270   3.001   3.276   2.674 -0.1067  0.1429 -0.0419
 5220W        W 9271   1.706   7.212   2.946 -0.2672 -0.0708  0.4409
 5221W        W 9272   4.686   5.034  10.254 -0.0030  0.0342  0.0866
 5222W        W 9273   3.684   1.219  13.914  0.0376 -0.1963 -0.1987
 5223W        W 9274   0.879   5.208   0.765 -0.1324  0.4359  0.1865
 5224W        W 9275   5.689   0.641   0.911  0.2186 -0.0851  0.1449
 5225W        W 9276   5.877   9.081   4.944  0.3430 -0.4845 -0.3473
 5226W        W 9277   8.664   9.841   4.789 -0.6609  0.1494 -0.2386
 5227W        W 9278   3.043   7.241   2.261 -0.3311 -0.1992 -0.1196
 5228W        W 9279   0.940   3.336   1.262 -0.1344 -0.1457 -0.0409
 5229W        W 9280   6.789   6.096   4.897  0.0260 -0.0377 -0.0083
 5230W        W 9281   1.201   2.451   0.881 -0.2249 -0.3078 -0.2389
 5231W        W 9282   9.478   7.850   2.075  0.0924 -0.0481  0.0897
 5232W        W 9283  10.051   3.459   4.050 -0.1384 -0.0517  0.0133
 5233W        W 9284   5.146   2.395   0.963  0.1495  0.0043 -0.0160
 5234W        W 9285   1.978   0.125  11.670  0.1178  0.4101  0.1810
 5235W        W 9286   4.881   0.395   9.885  0.0177  0.0439 -0.2573
 5236W        W 9287   4.958   2.200   2.443 -0.0193 -0.0357 -0.0186
 5237W        W 9288   3.506   0.604   5.136 -0.0099  0.2947  0.2567
 5238W        W 9289   8.882   5.628   5.435 -0.2896  0.0440  0.5824
 5239W        W 9290   6.394   1.654  10.357 -0.3783 -0.0885 -0.0569
 5240W        W 9291   2.763   2.636  12.202  0.0704  0.0343 -0.0981
 5241W        W 9292   2.803   5.695   2.723  0.2129  0.2522  0.0063
 5242W        W 9293   8.480   8.150  11.126  0.0135  0.0687  0.0905
 5243W        W 9294   8.648   5.995   5.759 -0.0500 -0.1282 -0.1512
 5244W        W 9295   2.910   1.143  10.644 -0.0887  0.1435 -0.1302
 5245W        W 9296   2.041   0.585   3.733  0.0129  0.0054  0.1694
 5246W        W 9297   7.235   8.096   3.005 -0.2472  0.1224  0.0189
 5247W        W 9298   2.276   7.693   1.829  0.2397 -0.0559 -0.0626
 5248W        W 9299   1.651   7.017   2.246 -0.2451 -0.0770 -0.0963
 5249W        W 9300   1.527   2.625   2.306  0.3993 -0.0266 -0.1121
 5250W        W 9301   6.249   0.289   0.792  0.5163 -0.1113  0.0707
 5251W        W 9302   9.623   3.628   2.026 -0.0396  0.1122 -0.1620
 5252W        W 9303   0.543   1.921   4.526 -0.2332  0.2484  0.4000
 5253W        W 9304   0.387   9.166  11.831  0.3861  0.0211  0.3236
 5254W        W 9305   8.979   2.254   3.769  0.0295  0.1052 -0.1022
 5255W        W 9306   4.360   0.959  11.573  0.1659 -0.2437  0.3234
 5256W        W 9307   8.130   8.518   0.146 -0.1169 -0.0158  0.2762
 5257W        W 9308   2.364   0.969   1.482 -0.0248 -0.1492  0.0704
 5258W        W 9309   8.061   1.981   1.722  0.1679 -0.1139  0.1648
 5259W        W 9310   6.246   5.997  12.148 -0.3358  0.2845  0.0927
 5260W        W 9311   5.026   6.574  12.181  0.0329 -0.2619 -0.2863
 5261W        W 9312   9.006   3.337   0.844  0.0532  0.2790  0.2307
 5262W        W 9313   8.647   6.233   0.111 -0.1354  0.0007  0.0012
 5263W        W 9314  10.097   4.995   2.438 -0.1165 -0.2229  0.1283
 5264W        W 9315   9.361   5.395   1.092 -0.0713  0.2125  0.1494
 5265W        W 9316   5.754   2.865   1.363  0.2429  0.0526 -0.1877
 5266W        W 9317   4.629   2.816  12.436  0.0693 -0.2676  0.0090
 5267W        W 9318   8.858   4.450   9.124  0.1996  0.0721 -0.1558
 5268W        W 9319   5.370   8.516   3.375  0.2863  0.1897 -0.3457
 5269W        W 9320   6.074  10.073   2.980  0.0107 -0.1999  0.0759
 5270W        W 9321   9.948   5.440   2.403 -0.3142 -0.0333  0.1213
 5271W        W 9322  10.094   3.829   1.793  0.3576 -0.1146 -0.1125
 5272W        W 9323   8.111   7.384   2.217 -0.0238 -0.5022  0.0625
 5273W        W 9324   0.412   0.987  10.157  0.1710 -0.1900  0.4897
 5274W        W 9325   9.747   3.069   3.926 -0.2442 -0.1315 -0.0835
 5275W        W 9326   3.764   3.754   1.748  0.0622 -0.2032 -0.2031
 5276W        W 9327   0.392   0.224  10.056 -0.3650 -0.1564  0.1243
 5277W        W 9328   1.396   1.051  10.613  0.2870 -0.5462 -0.2147
 5278W        W 9329   8.190   2.748   9.648 -0.0947  0.3467 -0.2048
 5279W        W 9330   0.788   3.080  12.612 -0.0151  0.1923  0.1129
 5280W        W 9331   5.816   4.830  13.427  0.1260  0.2972 -0.1886
 5281W        W 9332   9.510   6.367   2.156  0.0338 -0.3759  0.2504
 5282W        W 9333   1.156   2.310   0.223 -0.1182 -0.2279 -0.4286
 5283W        W 9334   9.252   4.181   0.979  0.0838  0.1012  0.1440
 5284W        W 9335   5.583   6.075   0.730 -0.2662 -0.3576  0.2956
 5285W        W 9336   1.077   2.803   3.114 -0.1246  0.0540  0.0920
 5286W        W 9337   7.208   4.234   3.887  0.2027  0.1121  0.0051
 5287W        W 9338   5.452   1.564   4.557  0.1427  0.0611  0.0377
 5288W        W 9339   8.243   2.184   1.250 -0.2675 -0.1547  0.1183
 5289W        W 9340   5.772   9.560  13.161  0.0634 -0.1100 -0.0958
 5290W        W 9341   2.666   8.286   3.267 -0.1965 -0.1064 -0.0256
 5291W        W 9342   9.952   7.351  11.921 -0.0472 -0.0712  0.1492
 5292W        W 9343   1.522   8.110   4.136 -0.1675 -0.1749 -0.2275
 5293W        W 9344   9.382   0.253   9.947  0.0311  0.1689 -0.1255
 5294W        W 9345   2.494   0.152  11.492 -0.2499 -0.1668 -0.1311
 5295W        W 9346   1.493   3.114   2.633  0.3706  0.2136 -0.0354
 5296W        W 9347   7.550   6.245   3.603  0.2839 -0.0768 -0.0558
 5297W        W 9348   5.241   5.876   3.908  0.0561 -0.1742 -0.0707
 5298W        W 9349   9.733   6.892   3.856  0.1398 -0.1875 -0.0457
 5299W        W 9350   4.855   1.092   2.830 -0.0425 -0.3834 -0.1889
 5300W        W 9351   6.924   1.671   3.576 -0.1576 -0.3217 -0.0361
 5301W        W 9352   2.102   3.689  11.115  0.1877 -0.0754 -0.0586
 5302W        W 9353   7.619   1.391   1.499 -0.1433  0.1480 -0.3689
 5303W        W 9354   7.683   7.318   9.838 -0.3898 -0.0177 -0.0366
 5304W        W 9355  10.051   0.579   4.231 -0.0484 -0.1765 -0.1680
 5305W        W 9356   5.680   5.738   4.050 -0.0290 -0.1689  0.0387
 5306W        W 9357   3.478   7.111  10.433  0.3176  0.1685  0.1120
 5307W        W 9358   7.151   2.214   1.972  0.1642  0.1479  0.0811
 5308W        W 9359   6.529   1.632   4.435  0.2411 -0.0422 -0.2221
 5309W        W 9360   3.992   9.421  11.733 -0.0015 -0.1118 -0.1249
 5310W        W 9361   0.474   0.567   1.102  0.0514  0.0947 -0.2117
 5311W        W 9362   2.681   6.938  11.002 -0.1194  0.2515 -0.0884
 5312W        W 9363   4.815   1.896   3.379 -0.2477 -0.1514 -0.2154
 5313W        W 9364   1.578   4.705   0.158 -0.3732  0.1218  0.2439
 5314W        W 9365   6.794   4.989   1.190  0.1183 -0.0887  0.2109
 5315W        W 9366   1.751   4.377  12.930  0.1649 -0.1821  0.1341
 5316W        W 9367   4.168   9.438   4.373  0.0069 -0.1030 -0.3066
 5317W        W 9368   3.900   7.647  11.495  0.1403 -0.1844 -0.2302
 5318W        W 9369   7.657   4.173   1.278  0.1622 -0.2580 -0.1062
 5319W        W 9370   8.718   5.551   4.871  0.2958 -0.0186 -0.1220
 5320W        W 9371   7.390   5.467  12.548  0.2458 -0.0197 -0.0246
 5321W        W 9372   6.411   5.397  11.224 -0.3271  0.1754  0.3238
 5322W        W 9373   4.647   3.762  11.833  0.2482 -0.0526  0.1795
 5323W        W 9374   4.768   5.840  13.858  0.2134  0.0169 -0.3205
 5324W        W 9375   5.134   4.624   1.533 -0.1068 -0.0025  0.2035
 5325W        W 9376   2.244   3.317   3.702  0.0527  0.4758  0.0646
 5326W        W 9377   1.576   9.501   4.373  0.3561  0.0339  0.0778
 5327W        W 9378   5.570   9.085   8.928 -0.5043  0.1024  0.0778
 5328W        W 9379   2.281   8.161   0.989 -0.2732  0.2012  0.0042
 5329W        W 9380   0.019   9.908   5.377  0.3104  0.3379 -0.0157
 5330W        W 9381   5.891   1.797   0.256 -0.1639 -0.1775  0.0928
 5331W        W 9382   4.633   1.208   2.260  0.3274  0.2346 -0.0594
 5332W        W 9383   8.626   3.043  12.034  0.1656  0.0022  0.0448
 5333W        W 9384   0.638  10.137  13.311 -0.2643 -0.1801 -0.0247
 5334W        W 9385   1.240   1.600  11.627 -0.1593 -0.2103  0.0235
 5335W        W 9386   9.006   9.493   1.783  0.0414 -0.6031 -0.0863
 5336W        W 9387   4.944   8.430   9.465 -0.0799 -0.0831 -0.2293
 5337W        W 9388   9.288   7.744   5.341 -0.0584  0.1296  0.2041
 5338W        W 9389   1.166   8.900  10.794  0.0681  0.0573  0.1498
 5339W        W 9390   1.874   9.211  13.651 -0.1638 -0.2568 -0.0794
 5340W        W 9391   7.581   5.814   2.775 -0.4342  0.0678  0.0706
 5341W        W 9392   8.848   7.222   0.035 -0.1167 -0.6303 -0.1334
 5342W        W 9393   5.673   2.402  12.530  0.1048  0.1846  0.2216
 5343W        W 9394   7.565   1.644   4.831 -0.2357 -0.0670  0.1584
 5344W        W 9395   8.656   8.706  13.830  0.2344  0.2936  0.0023
 5345W        W 9396   1.797   7.765   4.955 -0.0162  0.2911  0.2331
 5346W        W 9397   5.693  10.097   3.714 -0.1896  0.0185 -0.0772
 5347W        W 9398   1.689   6.738   1.022  0.1010  0.0628 -0.0930
 5348W        W 9399   7.950   3.742   9.975 -0.1513 -0.0572 -0.0237
 5349W        W 9400   2.897   0.530   2.155 -0.0517  0.2956  0.1426
 5350W        W 9401   8.135   2.313   2.110  0.2298  0.0710 -0.6289
 5351W        W 9402   9.957   2.383  10.691 -0.3031  0.0056 -0.1105
 5352W        W 9403   5.477   1.762  13.384  0.1785  0.0282 -0.0598
 5353W        W 9404   0.759   9.557   3.147  0.3434  0.1227  0.2929
 5354W        W 9405   8.751   8.176   9.835  0.0909  0.1799  0.1601
 5355W        W 9406   4.132   7.844   0.640 -0.1175  0.0994  0.3905
 5356W        W 9407   0.068   8.634   2.993 -0.1147  0.0011 -0.0815
 5357W        W 9408   8.704   6.581   1.282  0.2025 -0.0829 -0.2053
 5358W        W 9409   9.084   2.137   4.285  0.0095  0.1295 -0.1642
 5359W        W 9410   7.794   6.834   1.046 -0.1453 -0.1617  0.1802
 5360W        W 9411   6.087  10.045  12.491  0.1775 -0.0886 -0.0205
 5361W        W 9412   2.976   3.220   0.799  0.0515 -0.0836 -0.0186
 5362W        W 9413   5.020   2.102  11.751 -0.4026 -0.0500 -0.4324
 5363W        W 9414   0.532   0.456  10.957 -0.0860  0.0825 -0.0722
 5364W        W 9415   8.955   2.957   3.591  0.1285 -0.1229 -0.0021
 5365W        W 9416   5.010   7.091  12.082  0.3320  0.1197 -0.4098
 5366W        W 9417   9.380   7.253   1.884 -0.2655  0.0730 -0.3587
 5367W        W 9418   7.000   8.758   3.525  0.0810  0.1500 -0.0207
 5368W        W 9419   2.700   4.297  12.804 -0.0005 -0.4296  0.5020
 5369W        W 9420   9.142   2.813  10.627 -0.1691 -0.0888 -0.0098
 5370W        W 9421   6.763   8.586   9.704 -0.0471  0.1817  0.1065
 5371W        W 9422   4.644   2.710   2.269 -0.0336  0.2136 -0.2787
 5372W        W 9423   1.516   9.020   3.006  0.0668 -0.1763  0.1253
 5373W        W 9424   7.400   3.602   1.714 -0.1371 -0.2211  0.1824
 5374W        W 9425   0.675   8.674  10.750  0.2103 -0.0001 -0.0727
 5375W        W 9426   1.792   1.235   5.561  0.0279  0.3153  0.2175
 5376W        W 9427   9.640   6.521   4.672 -0.1711 -0.1487  0.1074
 5377W        W 9428   5.368   2.538   2.625  0.0230  0.1658  0.1050
 5378W        W 9429   7.603   1.130   9.771  0.1906  0.1408  0.0563
 5379W        W 9430   9.747   5.958  12.530 -0.1114  0.1308 -0.0603
 5380W        W 9431   2.284   0.025   1.851 -0.1476  0.1268  0.0693
 5381W        W 9432   8.511   4.526  11.448 -0.0039 -0.0039  0.2674
 5382W        W 9433   2.242   5.193   1.628 -0.0159 -0.0128 -0.0601
 5383W        W 9434   0.044   8.019   1.565  0.1644  0.1122  0.5248
 5384W        W 9435   8.545   7.069  10.742  0.2494 -0.2342 -0.1269
 5385W        W 9436   1.168   9.135   4.983  0.1156  0.1975  0.0776
 5386W        W 9437   5.010   7.328   3.911  0.0688  0.0707 -0.0988
 5387W        W 9438   9.083   7.569  10.490 -0.0908  0.2092 -0.0837
 5388W        W 9439   5.164   1.281   0.513  0.0911 -0.0085  0.0464
 5389W        W 9440   9.380   4.957  10.291 -0.0742 -0.1839  0.3359
 5390W        W 9441   9.366   1.615  11.070  0.2298  0.0867  0.2408
 5391W        W 9442   6.896   3.962   9.631 -0.2233 -0.0350  0.3194
 5392W        W 9443   0.561   0.542   2.512  0.0843 -0.0573 -0.2002
 5393W        W 9444   9.544   5.451  10.290 -0.2320 -0.2883 -0.3296
 5394W        W 9445   4.726   0.727  11.783 -0.1653  0.0133  0.0358
 5395W        W 9446   6.622   2.571   3.761 -0.2098  0.0589  0.1349
 5396W        W 9447   6.775   7.369   2.439 -0.0738 -0.0166 -0.5855
 5397W        W 9448   4.642   6.519   9.368 -0.1044  0.2640  0.2197
 5398W        W 9449   4.767   9.897   2.800  0.3066  0.0946  0.1712
 5399W        W 9450   2.935   0.566  13.683  0.2020 -0.1775 -0.1924
 5400W        W 9451   3.484   7.896  10.750 -0.3556 -0.0538 -0.3420
 5401W        W 9452   0.388   8.800   2.099 -0.2408  0.0219 -0.0152
 5402W        W 9453   5.747   4.167  12.856 -0.1634  0.3429 -0.2571
 5403W        W 9454   7.626   8.543   4.293 -0.0690  0.2474 -0.1716
 5404W        W 9455   5.619   1.311  13.062 -0.2236 -0.1041 -0.1211
 5405W        W 9456   3.728   5.922  11.893 -0.0411 -0.1192 -0.0914
 5406W        W 9457   7.252   5.204   0.796  0.3090 -0.2757 -0.0043
 5407W        W 9458   7.331   6.892   1.963  0.1342  0.2164 -0.0536
 5408W        W 9459   9.621   3.693  12.388  0.1197 -0.4079  0.0817
 5409W        W 9460   7.687   9.618   5.635 -0.0902  0.1375  0.1212
 5410W        W 9461   0.837   5.571  12.215 -0.1187  0.1631  0.1286
 5411W        W 9462   7.591   2.868   4.066 -0.2127  0.1288  0.0709
 5412W        W 9463   6.093   2.471  13.873 -0.5786  0.2959 -0.1716
 5413W        W 9464   9.289   8.800  10.301  0.0213  0.0774  0.0707
 5414W        W 9465   3.074   6.659  11.037 -0.0802 -0.1185 -0.0091
 5415W        W 9466   5.809   2.679  10.758  0.2621 -0.2402  0.0615
 5416W        W 9467   2.714   1.316   1.328  0.1183 -0.1381 -0.1184
 5417W        W 9468   0.688   3.817   3.946 -0.4079 -0.1427  0.1483
 5418W        W 9469   8.675   7.219  11.269 -0.0754  0.1339  0.0540
 5419W        W 9470   4.747   6.263   2.161 -0.1434  0.0749  0.2567
 5420W        W 9471   4.586   6.693   4.185 -0.2223 -0.1569 -0.0059
 5421W        W 9472   7.257   0.987   1.731 -0.5045 -0.2255  0.2868
 5422W        W 9473   6.158   9.149   3.003 -0.1419 -0.0900  0.0630
 5423W        W 9474   8.894   6.225   5.346 -0.0299  0.0049  0.0185
 5424W        W 9475   5.092   7.011   3.506 -0.0844  0.3328 -0.1665
 5425W        W 9476   5.120   2.891   2.197 -0.4307 -0.1735 -0.2107
 5426W        W 9477   8.112   3.795  13.629  0.1896  0.3110 -0.0532
 5427W        W 9478   4.118   5.851   0.602 -0.1334 -0.0475  0.2001
 5428W        W 9479   8.587   9.500   3.135  0.1632 -0.4258  0.0404
 5429W        W 9480   5.939   7.994  10.742  0.0266 -0.3007  0.0109
 5430W        W 9481   7.985   7.440  11.656  0.0248 -0.0019 -0.1449
 5431W        W 9482   9.569   2.761   2.396 -0.1197 -0.1323  0.2026
 5432W        W 9483   7.896   4.229   2.438 -0.0261 -0.3738  0.1801
 5433W        W 9484   3.560   6.019  13.186  0.0504  0.0397 -0.1368
 5434W        W 9485   3.319   3.725  13.191 -0.2348 -0.3139 -0.3500
 5435W        W 9486   1.272   7.934  12.127 -0.0448  0.2436  0.1045
 5436W        W 9487   1.724   8.859   0.334 -0.2901  0.3286 -0.0080
 5437W        W 9488   5.404   9.829   0.735 -0.2410 -0.0103  0.2866
 5438W        W 9489   3.305   9.490   1.003  0.0542 -0.2649 -0.0481
 5439W        W 9490   5.617   3.464   2.358 -0.1068 -0.4079  0.0374
 5440W        W 9491   2.823   9.840   4.220  0.0618 -0.0313 -0.0559
 5441W        W 9492   9.112   6.986   3.250  0.2978  0.1001 -0.1842
 5442W        W 9493   7.333   5.236   3.896  0.0637 -0.3637  0.2472
 5443W        W 9494   2.528   8.134  13.013 -0.0041 -0.1643  0.0934
 5444W        W 9495   2.605   0.996   0.565  0.2695  0.2389 -0.0264
 5445W        W 9496   7.521   2.534   3.643 -0.0407  0.1562  0.6933
 5446W        W 9497   8.189   5.531   4.883 -0.1459  0.2052  0.0042
 5447W        W 9498   6.920   9.874  10.889  0.3112  0.1098  0.0633
 5448W        W 9499   8.026   9.757  13.545 -0.1507 -0.1316  0.0265
 5449W        W 9500   7.799   7.974   9.965 -0.0892  0.0231  0.2980
 5450W        W 9501   3.138   9.796   5.518 -0.0578  0.0346 -0.0602
 5451W        W 9502   1.099   9.920   0.150  0.2900 -0.2801  0.3682
 5452W        W 9503   6.740   6.326  10.522 -0.0596  0.1342  0.0466
 5453W        W 9504   3.001   6.460  13.352 -0.4141  0.1730 -0.0584
 5454W        W 9505   9.575   7.073   9.897  0.0351  0.2413  0.2482
 5455W        W 9506  10.111   3.232   2.034  0.2963  0.2458 -0.0241
 5456W        W 9507   5.872   2.121  11.077  0.1151 -0.1771 -0.1611
 5457W        W 9508   8.955   1.168   1.622  0.0437  0.1533 -0.1262
 5458W        W 9509   3.966   4.743   0.890  0.0279  0.1158 -0.0358
 5459W        W 9510   5.086   5.228  11.118 -0.0411  0.1939 -0.1260
 5460W        W 9511   6.107   9.087  12.977 -0.3982 -0.3306 -0.2432
 5461W        W 9512   7.941   0.967  13.304  0.1597  0.1566 -0.0455
 5462W        W 9513   5.905   5.268  12.801  0.0166  0.1429  0.1994
 5463W        W 9514   4.260   5.914   4.184  0.0677 -0.1358  0.2394
 5464W        W 9515   2.479   7.714  11.666  0.0012 -0.0222 -0.1033
 5465W        W 9516  10.141   0.204  11.114  0.2430  0.0538 -0.1899
 5466W        W 9517   6.860   2.541  11.734 -0.0407  0.1728 -0.4400
 5467W        W 9518   1.783   8.334   3.433 -0.4272  0.0207  0.0760
 5468W        W 9519   4.580   7.360  12.213 -0.0620 -0.0851 -0.1431
 5469W        W 9520   3.445   1.844  10.294 -0.1116 -0.1358  0.2740
 5470W        W 9521   9.603   0.019   9.501  0.0471 -0.0462 -0.0784
 5471W        W 9522   5.092   0.824  13.799  0.2340  0.3098  0.1336
 5472W        W 9523   3.087   0.249   5.233 -0.1351 -0.0417  0.0872
 5473W        W 9524   3.295   3.955   3.739  0.0616  0.0689 -0.2624
 5474W        W 9525   3.232   2.496  11.992  0.2864  0.0894 -0.2498
 5475W        W 9526   1.902   7.568  10.910 -0.3426  0.1963  0.1430
 5476W        W 9527   6.029   8.633   1.002 -0.1996 -0.0834  0.1478
 5477W        W 9528   7.748   5.979   9.441 -0.0615  0.0485 -0.0510
 5478W        W 9529  10.184   9.682  11.502 -0.1981  0.1095 -0.1460
 5479W        W 9530   7.504   0.932  11.199  0.2652 -0.1068 -0.2192
 5480W        W 9531   1.482   0.470   1.568 -0.2044  0.0169 -0.1939
 5481W        W 9532   1.573   4.065   3.272 -0.0198 -0.3312 -0.0351
 5482W        W 9533   6.318   9.890   2.221  0.0461 -0.1493 -0.2773
 5483W        W 9534   8.462   6.619   9.701  0.3653  0.1061  0.2808
 5484W        W 9535   9.945   4.247  13.145 -0.0912 -0.0660 -0.2270
 5485W        W 9536   8.605   0.253  10.424  0.2068  0.0784 -0.1166
 5486W        W 9537   8.869   7.110   0.560 -0.1249  0.1081 -0.1500
 5487W        W 9538   2.980   6.532   2.958  0.1105 -0.1053 -0.2315
 5488W        W 9539   8.312   8.717   3.665 -0.0654  0.1530 -0.0839
 5489W        W 9540   9.166   9.693   0.245 -0.0142 -0.0729  0.1336
 5490W        W 9541   8.256   0.975   4.165  0.1777 -0.4761 -0.1498
 5491W        W 9542   6.614   4.286   1.035 -0.2348 -0.3032  0.0026
 5492W        W 9543   2.580   5.487  10.053  0.2514  0.0219 -0.2140
 5493W        W 9544   3.720   4.237   4.073 -0.0209 -0.0129  0.0757
 5494W        W 9545   6.426   9.264  12.416 -0.2362 -0.0388  0.1192
 5495W        W 9546   7.396   2.071  13.405 -0.1616  0.2015  0.1417
 5496W        W 9547   6.050   5.390  10.804  0.0338  0.3826  0.1664
 5497W        W 9548   0.471   1.392  11.030 -0.0958 -0.0404 -0.1803
 5498W        W 9549   4.615   7.968   0.558  0.3657  0.0870  0.1164
 5499W        W 9550   7.217   7.825   4.832 -0.0317  0.1416  0.0824
 5500W        W 9551   3.301   5.583  12.945 -0.0040  0.0287  0.2580
 5501W        W 9552   2.676   4.455   2.021 -0.0553 -0.0475 -0.0822
 5502W        W 9553   2.561   4.067  12.385 -0.0760  0.0993  0.0719
 5503W        W 9554   3.111   1.258  11.940 -0.0451 -0.0250 -0.1372
 5504W        W 9555   8.476   0.600   0.034  0.2443 -0.1410 -0.1530
 5505W        W 9556   6.201   7.363   0.725  0.3260  0.4262  0.1553
 5506W        W 9557   1.489   8.601   2.612 -0.1084  0.0515  0.0019
 5507W        W 9558   1.420   1.646  10.741  0.0675  0.0264  0.1736
 5508W        W 9559   0.407   3.033   1.221 -0.3112 -0.1154 -0.0650
 5509W        W 9560   4.066   3.828  13.800  0.2254 -0.1130  0.2293
 5510W        W 9561  10.029   8.680  11.935 -0.0661 -0.3923 -0.0563
 5511W        W 9562   9.080   5.363  10.027 -0.0680  0.0244 -0.2190
 5512W        W 9563   0.381   4.799  12.499  0.1163 -0.2999  0.0059
 5513W        W 9564   6.038   8.988   4.365 -0.1476  0.1520  0.0970
 5514W        W 9565   3.410   8.706   9.976  0.0077  0.1374 -0.3012
 5515W        W 9566   8.109   8.061   0.368 -0.0319 -0.0640 -0.2156
 5516W        W 9567   0.890   6.043  13.044  0.1332  0.0143  0.3332
 5517W        W 9568   6.599   1.270   2.895  0.1567 -0.2190  0.2830
 5518W        W 9569   6.757   4.055   3.874 -0.1560  0.1491  0.0259
 5519W        W 9570   7.986   4.493   4.227  0.1135 -0.1243  0.3249
 5520W        W 9571   2.290   1.712  11.660 -0.0409  0.0281 -0.0790
 5521W        W 9572   6.467   3.378  12.869 -0.0336 -0.2244  0.3026
 5522W        W 9573   6.858   0.474  13.354  0.1067  0.2755 -0.1714
 5523W        W 9574   8.131   4.737  12.833 -0.1194 -0.0766 -0.0479
 5524W        W 9575   5.958   9.701   0.872  0.2039 -0.0734  0.1755
 5525W        W 9576   5.853   9.801   0.358  0.1313  0.1515  0.0211
 5526W        W 9577   9.223   0.299  10.408 -0.1730 -0.0871  0.0226
 5527W        W 9578  10.108   2.987  10.194  0.1018  0.0492  0.0895
 5528W        W 9579   7.071   0.139  13.861  0.1262 -0.1268  0.0859
 5529W        W 9580   3.905   5.729   1.474 -0.0221 -0.0025  0.0060
 5530W        W 9581  10.186   7.282   4.804 -0.1283  0.3444 -0.3762
 5531W        W 9582   0.970   2.752   4.354  0.0692  0.0647 -0.0638
 5532W        W 9583   9.533  10.010   0.453 -0.0153  0.1533 -0.1331
 5533W        W 9584   7.032   4.996  11.945 -0.4266 -0.0060  0.0078
 5534W        W 9585   5.045   3.662   1.204  0.2314  0.1971 -0.1076
 5535W        W 9586   1.217   6.981  11.820  0.0535  0.0087 -0.2079
 5536W        W 9587   4.966   0.418  13.478  0.0922 -0.0907 -0.0675
 5537W        W 9588   0.580   6.799   9.984  0.0916  0.4102  0.0349
 5538W        W 9589   9.153   9.090   9.848  0.2160 -0.3843  0.2358
 5539W        W 9590   6.823   1.485   1.142 -0.3226 -0.0671  0.0236
 5540W        W 9591   4.742   6.818   2.483 -0.1959 -0.2158 -0.2499
 5541W        W 9592   5.634   0.250   1.735 -0.0129  0.0451  0.0703
 5542W        W 9593   0.897   4.083   2.438 -0.0455 -0.2796 -0.3860
 5543W        W 9594   9.594   7.446   1.103 -0.0230 -0.1203  0.1721
 5544W        W 9595   3.682   9.522   9.129  0.5226 -0.0021  0.2566
 5545W        W 9596   5.242   9.895   3.627  0.2794  0.0139 -0.0589
 5546W        W 9597   1.772   8.189  10.558 -0.3351  0.0671  0.0478
 5547W        W 9598   6.388   5.231   0.067 -0.3445  0.1449 -0.3580
 5548W        W 9599   9.845   2.372   2.727 -0.1192  0.2356  0.0284
 5549W        W 9600   4.087  10.063  13.665 -0.0523  0.2351  0.2290
 5550W        W 9601   0.708   2.878  12.145 -0.0606  0.2114  0.2015
 5551W        W 9602   0.998   7.151   1.334  0.3846 -0.3511 -0.0538
 5552W        W 9603   0.484   0.284   1.575 -0.1388 -0.1241  0.1152
 5553W        W 9604   0.516   1.306   4.405 -0.1148 -0.0279  0.1697
 5554W        W 9605   2.987   3.728   3.159  0.3529 -0.1378 -0.0412
 5555W        W 9606   2.598  10.186   3.073 -0.0072 -0.4074  0.1269
 5556W        W 9607   8.328   8.378   5.107  0.3243  0.0275  0.2624
 5557W        W 9608   6.486   9.835   2.810  0.1458 -0.0636 -0.0439
 5558W        W 9609   3.591   3.356  10.879  0.1049  0.1779  0.2280
 5559W        W 9610   7.212   9.987   4.569  0.2394  0.0814 -0.0632
 5560W        W 9611   0.366   9.282  13.113 -0.1343 -0.0480  0.1301
 5561W        W 9612   9.485   9.287  10.473  0.2520 -0.0120 -0.0889
 5562W        W 9613   3.490   0.544  11.372 -0.0570  0.0274  0.0177
 5563W        W 9614   8.524   8.366   9.361 -0.1087  0.1874 -0.1000
 5564W        W 9615   8.733   6.025   1.978 -0.0487 -0.1247  0.0868
 5565W        W 9616   8.116   0.623   2.034  0.2008 -0.0656  0.1942
 5566W        W 9617   5.135   5.715  11.488 -0.1287  0.1688 -0.0025
 5567W        W 9618   0.928   7.300   4.175  0.0344  0.0990 -0.2857
 5568W        W 9619   7.753   0.690  12.357 -0.3087 -0.1488  0.1566
 5569W        W 9620   9.004   3.232   9.522  0.1971  0.0902  0.2771
 5570W        W 9621   0.234   5.165  13.760 -0.1711 -0.2295 -0.0654
 5571W        W 9622   4.038   9.218   5.337 -0.0020 -0.2746  0.0649
 5572W        W 9623  10.082   7.506  12.502  0.0172 -0.1237 -0.1933
 5573W        W 9624   9.507   4.387  10.834 -0.2126  0.1583  0.3338
 5574W        W 9625   5.115   6.339   1.319  0.1419  0.1181  0.1517
 5575W        W 9626   6.906   3.555   2.605  0.0321 -0.0664  0.1404
 5576W        W 9627   3.384   8.066  12.186  0.0630  0.2203 -0.1100
 5577W        W 9628   6.735   2.901   4.335 -0.1439  0.1270  0.1752
 5578W        W 9629   2.421   3.057  10.893  0.3248 -0.3407 -0.0077
 5579W        W 9630   4.416   5.529  12.410  0.1367 -0.1758 -0.1749
 5580W        W 9631   6.902   6.491   3.964 -0.1429 -0.0133  0.0625
 5581W        W 9632   8.260   5.933  10.898 -0.3543  0.0161  0.0852
 5582W        W 9633   5.673   7.658  13.841  0.0157  0.0048  0.0671
 5583W        W 9634   1.331   6.344   0.134  0.0944  0.3659  0.0498
 5584W        W 9635   0.781   4.207   1.093 -0.1099  0.2561  0.3125
 5585W        W 9636   1.595   0.880  12.529  0.3421  0.0516  0.1260
 5586W        W 9637   4.867   7.552  11.857  0.0326 -0.1488  0.1065
 5587W        W 9638   4.347   5.568   2.353  0.1362  0.0420  0.1564
 5588W        W 9639   9.959   0.644   4.998  0.2814 -0.1111 -0.1421
 5589W        W 9640   7.038   4.711   5.425  0.0512  0.0490 -0.1822
 5590W        W 9641   1.515   2.584   1.352  0.2736  0.0175 -0.1623
 5591W        W 9642   6.030   8.662   1.505 -0.0635  0.0736 -0.0585
 5592W        W 9643   5.619   2.018  13.821  0.3040 -0.0711  0.4190
 5593W        W 9644   5.104   7.411  13.743  0.0953 -0.0729  0.2511
 5594W        W 9645   5.027   1.442   1.984 -0.0544 -0.3259 -0.3591
 5595W        W 9646   5.965   9.084   0.883  0.1309  0.0086 -0.0532
 5596W        W 9647   6.349   4.355  11.552 -0.0316 -0.0554 -0.0547
 5597W        W 9648   0.984   8.978  12.498  0.5331 -0.2148  0.1632
 5598W        W 9649   6.775   9.781   2.026  0.0437  0.0118 -0.2483
 5599W        W 9650   1.116   3.717   0.943  0.0170 -0.1687  0.0296
 5600W        W 9651   4.305   6.698   0.806 -0.1797  0.1231 -0.1984
 5601W        W 9652   1.086   9.178  10.392  0.1611 -0.1253 -0.0189
 5602W        W 9653   8.922   1.722   0.137 -0.1708  0.3268  0.1861
 5603W        W 9654   4.750   0.375   0.512 -0.0247  0.1590 -0.0375
 5604W        W 9655   1.902   5.887   2.984  0.0677  0.0161 -0.1787
 5605W        W 9656   0.135   5.176  12.815 -0.0266 -0.3182  0.1269
 5606W        W 9657   7.607   9.458   9.990 -0.0850 -0.2166 -0.5965
 5607W        W 9658  10.028   7.022   1.882 -0.1832  0.1310 -0.3089
 5608W        W 9659   2.307   8.183   0.484  0.1476  0.0316  0.2376
 5609W        W 9660   7.925   7.991  13.313  0.0614 -0.0413  0.1093
 5610W        W 9661   3.575   2.717   9.627  0.1385  0.2182 -0.0253
 5611W        W 9662   3.146   1.990  13.117  0.0583 -0.0710  0.3435
 5612W        W 9663   1.631   9.480   0.566 -0.0329 -0.1995 -0.1808
 5613W        W 9664   5.900   2.275   1.339 -0.0255 -0.1854 -0.1047
 5614W        W 9665   1.685   0.237   2.780 -0.3707 -0.0749 -0.2664
 5615W        W 9666   3.760   2.383  11.937  0.0523  0.3599  0.0119
 5616W        W 9667   8.639   8.233   3.598  0.2246  0.2435  0.4483
 5617W        W 9668   3.151   0.993   1.412  0.1527 -0.2015 -0.1086
 5618W        W 9669   2.727   4.186   4.010 -0.2130  0.1992  0.1744
 5619W        W 9670   6.756   8.369   3.157 -0.0248 -0.0306 -0.2019
 5620W        W 9671   9.575   3.267  10.737 -0.1411 -0.0261 -0.0204
 5621W        W 9672   4.748   3.227   3.954  0.1584 -0.2412 -0.2003
 5622W        W 9673   2.786   3.085  12.406  0.3603  0.1263  0.2225
 5623W        W 9674   4.346   0.639   3.788  0.2128  0.1279  0.0739
 5624W        W 9675   6.315   3.994   0.751 -0.2482 -0.1109  0.3598
 5625W        W 9676   0.458   8.848  12.599  0.0745 -0.0274 -0.1874
 5626W        W 9677   6.553   2.210  10.448 -0.0191  0.4704 -0.1707
 5627W        W 9678   0.950   6.447  13.810  0.0437  0.0282  0.1492
 5628W        W 9679   7.017   8.732   2.814  0.1568  0.1814  0.3776
 5629W        W 9680   0.612   1.111   3.839  0.0759 -0.0512 -0.0232
 5630W        W 9681   6.975   2.329   2.667  0.1996  0.1200 -0.1368
 5631W        W 9682   6.753   1.962  12.460 -0.1402 -0.1030  0.0181
 5632W        W 9683   1.725   6.768   3.228  0.0364  0.1776 -0.1908
 5633W        W 9684   3.656   1.779  13.241 -0.0769  0.1418  0.0730
 5634W        W 9685   2.196   0.377  12.845 -0.0194  0.0021 -0.1118
 5635W        W 9686   8.778   1.380  13.572 -0.0520  0.1763 -0.1057
 5636W        W 9687   7.044   7.871   4.359  0.1581  0.0579 -0.0500
 5637W        W 9688   0.294   8.623  11.640  0.1252 -0.0995 -0.1093
 5638W        W 9689   2.252   2.682   9.992  0.2050  0.3221  0.0541
 5639W        W 9690   6.180   7.177  13.852  0.0022 -0.1717 -0.1543
 5640W        W 9691   3.000   9.865   0.019 -0.1911  0.1186 -0.1995
 5641W        W 9692   0.821   7.315  11.032  0.0713  0.0484  0.2004
 5642W        W 9693   6.365   8.430   4.699 -0.0405 -0.0183  0.0746
 5643W        W 9694   1.205   1.358  13.329  0.2249  0.1854  0.1341
 5644W        W 9695   9.652   8.256   2.327 -0.1392  0.0643  0.0214
 5645W        W 9696   7.558   9.738   3.495 -0.1317 -0.0691  0.2190
 5646W        W 9697   9.095   5.829  10.260 -0.1850 -0.5073 -0.0095
 5647W        W 9698   4.679   1.461   3.098 -0.0353 -0.0425 -0.2996
 5648W        W 9699   7.843   0.649  12.884  0.0690 -0.0954 -0.0417
 5649W        W 9700   5.676   9.344   0.490  0.1561 -0.0570  0.0303
 5650W        W 9701   2.240   7.642   1.350  0.0204 -0.1762  0.0771
 5651W        W 9702   5.536   0.949  13.948  0.3263  0.0778 -0.2734
 5652W        W 9703   7.826   0.968   1.640 -0.1898 -0.1325 -0.1985
 5653W        W 9704   1.793   3.856   1.017 -0.1461 -0.2913 -0.1124
 5654W        W 9705   6.535   9.688   8.755  0.0433  0.1536  0.2943
 5655W        W 9706   8.722   7.471  11.894  0.0141  0.1215 -0.5192
 5656W        W 9707   3.685   0.058   4.589  0.2412 -0.0401 -0.2367
 5657W        W 9708   2.328   7.587  10.156 -0.2418  0.2126  0.1005
 5658W        W 9709   6.868   5.123   0.258 -0.0029  0.0399 -0.0729
 5659W        W 9710   2.450   9.546   0.724 -0.0938 -0.2780 -0.0620
 5660W        W 9711   4.255   4.665   0.480 -0.0179 -0.0554 -0.0980
 5661W        W 9712   8.153   1.333   1.119  0.0871 -0.0571 -0.0712
 5662W        W 9713   2.789   9.491  11.305  0.1978  0.0810 -0.0965
 5663W        W 9714   5.670   7.157  13.792  0.0430 -0.0238 -0.1145
 5664W        W 9715  10.086   6.064   9.228  0.1717  0.0935 -0.0291
 5665W        W 9716   3.040   5.021   2.307 -0.0084  0.1607  0.0808
 5666W        W 9717   1.730   8.709   9.840  0.1992 -0.3206 -0.0463
 5667W        W 9718   7.183   8.301   4.116  0.2237  0.3988 -0.1064
 5668W        W 9719   3.952   6.826  11.519 -0.2987  0.2506 -0.1225
 5669W        W 9720   7.444   5.084  12.180 -0.0139  0.3239 -0.1722
 5670W        W 9721   8.013   5.427   2.633  0.0885  0.3098 -0.3369
 5671W        W 9722   2.758   8.926   1.576 -0.1462 -0.0807  0.2718
 5672W        W 9723   4.959   5.388   4.008  0.1384 -0.0098  0.2107
 5673W        W 9724   8.939   2.831   8.933 -0.0135  0.0065  0.0922
 5674W        W 9725   9.806   8.415  13.651 -0.0400  0.1924  0.3121
 5675W        W 9726   0.187   2.507   0.634  0.1130 -0.1590  0.0367
 5676W        W 9727   5.552   0.227   9.382 -0.0963 -0.1190  0.0849
 5677W        W 9728   5.593   6.387  10.943 -0.1190 -0.2274  0.0598
 5678W        W 9729   9.488   9.988   5.296 -0.0509  0.0221 -0.3483
 5679W        W 9730   6.036   0.210  12.047 -0.1952 -0.0876  0.2241
 5680W        W 9731   3.728   6.472  11.061 -0.0375 -0.2816 -0.0074
 5681W        W 9732   2.717   9.730   3.113 -0.0600 -0.2338  0.0291
 5682W        W 9733   4.774   1.262  13.507 -0.0927 -0.0408  0.1295
 5683W        W 9734   0.921   9.772  11.197  0.0951 -0.2734 -0.0769
 5684W        W 9735   1.909   7.174   9.556 -0.3139  0.0965 -0.1681
 5685W        W 9736   1.743   9.162   4.038  0.1466  0.1292 -0.2624
 5686W        W 9737   0.157   1.118   4.765  0.1329  0.1658  0.1086
 5687W        W 9738   1.766   5.885  11.270 -0.1621 -0.0797 -0.1145
 5688W        W 9739   1.186   0.137  12.193  0.0093 -0.0880  0.0918
 5689W        W 9740   0.208   4.299  13.566  0.0147 -0.2356  0.0714
 5690W        W 9741   9.176   3.049   2.667  0.0610  0.1398 -0.0652
 5691W        W 9742   3.581   6.958  13.222 -0.0543  0.1664 -0.4469
 5692W        W 9743   1.337   1.871   1.099 -0.2825  0.2013 -0.0019
 5693W        W 9744   4.594   5.195  11.301 -0.3373 -0.0398  0.1152
 5694W        W 9745   5.561   8.167   1.258  0.1594  0.1896 -0.1892
 5695W        W 9746   4.347   1.064   3.527  0.0032  0.1092 -0.1074
 5696W        W 9747   8.900   4.444   9.935 -0.0303  0.0295  0.1774
 5697W        W 9748   3.656   9.019   3.695 -0.0818 -0.1092  0.0421
 5698W        W 9749   6.551   4.879  10.253  0.0835  0.0997 -0.1878
 5699W        W 9750   0.031   5.563   1.327  0.0200 -0.1938  0.0371
 5700W        W 9751   7.969   0.139   2.069 -0.1958 -0.0276  0.1373
 5701W        W 9752   0.152   9.676   4.931  0.1370  0.0038  0.3293
 5702W        W 9753   5.059   8.799  10.197  0.2275  0.0751 -0.3106
 5703W        W 9754   4.201   6.639  13.931  0.0597  0.3244 -0.2777
 5704W        W 9755   1.335   2.137  11.379 -0.0086 -0.1795  0.1609
 5705W        W 9756   6.488   0.120   2.065  0.2384 -0.2132  0.2826
 5706W        W 9757  10.011  10.070   0.266 -0.1282  0.0192  0.0356
 5707W        W 9758   7.197   3.446  12.192 -0.1179  0.0279 -0.1781
 5708W        W 9759   6.938   4.104   2.469 -0.2609 -0.4057 -0.4244
 5709W        W 9760   1.356   9.023  11.817 -0.2766  0.1229  0.1036
 5710W        W 9761   9.957   0.815   0.489  0.1533 -0.2684 -0.1383
 5711W        W 9762   4.950   5.800  11.000  0.1115 -0.0009  0.0786
 5712W        W 9763   4.442   5.277  12.884  0.0064 -0.2508  0.2007
 5713W        W 9764   6.315   7.757   1.189 -0.2511  0.1752  0.3160
 5714W        W 9765   8.205  10.025   4.849  0.0240  0.2904 -0.3513
 5715W        W 9766   1.383   5.158  11.461  0.0305  0.3617 -0.2875
 5716W        W 9767   1.007   9.058   2.978 -0.0181  0.3232 -0.0249
 5717W        W 9768   3.146   9.072  13.139 -0.0371  0.0269 -0.0293
 5718W        W 9769   2.893   1.485   0.545  0.1606 -0.0045  0.1173
 5719W        W 9770   7.466   9.599   0.824 -0.1858 -0.1070 -0.2814
 5720W        W 9771   2.207   4.577  13.813  0.1895 -0.0316  0.1085
 5721W        W 9772   0.297   7.953   5.524 -0.2066 -0.2641 -0.0484
 5722W        W 9773   4.983   9.808  10.583 -0.1197  0.1183 -0.0915
 5723W        W 9774   1.368   3.952  12.707  0.0931  0.1206 -0.1389
 5724W        W 9775   6.781   7.080  11.704  0.0985 -0.3763  0.1957
 5725W        W 9776   4.754   0.257   1.548  0.1650  0.2282 -0.0617
 5726W        W 9777   6.830   0.762   3.548 -0.0782  0.0867  0.2846
 5727W        W 9778   1.005   4.670  12.271 -0.2188  0.0155  0.1073
 5728W        W 9779   2.387   1.704   4.472  0.0211 -0.5939  0.1545
 5729W        W 9780   2.853   9.949   1.413 -0.0554  0.1093 -0.2045
 5730W        W 9781   9.934   0.087  13.635 -0.0117 -0.0337  0.2351
 5731W        W 9782   2.552   0.437  11.107 -0.4392 -0.0379 -0.0407
 5732W        W 9783   7.781   6.102   3.132  0.3425  0.0976  0.1398
 5733W        W 9784   6.333   6.171   1.233  0.0719 -0.0183 -0.0182
 5734W        W 9785   7.584   1.373   2.484  0.0867  0.1267  0.1947
 5735W        W 9786   5.556   6.215   2.269 -0.3487  0.0602  0.2411
 5736W        W 9787   7.320   0.188  11.961  0.2406  0.0372  0.0604
 5737W        W 9788   5.922   0.709  12.348  0.2813 -0.0074  0.2352
 5738W        W 9789   7.198   6.585   0.097  0.2373 -0.0342 -0.1640
 5739W        W 9790   5.838   9.987   9.491  0.2278 -0.3191  0.0742
 5740W        W 9791   1.774   3.543  11.510 -0.0015  0.2271  0.3572
 5741W        W 9792   3.540   4.799   2.570  0.0132 -0.0902 -0.1636
 5742W        W 9793   8.904   0.853  12.739  0.1437  0.2423 -0.0794
 5743W        W 9794   4.992   3.636   0.133 -0.0881 -0.0372  0.1686
 5744W        W 9795   4.205   8.506   4.848  0.0118 -0.1943  0.0132
 5745W        W 9796   0.687   6.968  11.762 -0.0712 -0.1821 -0.1994
 5746W        W 9797   6.233   4.490   0.699 -0.0327 -0.0117  0.0904
 5747W        W 9798   8.916   0.332   3.660 -0.1360 -0.1780 -0.2305
 5748W        W 9799   7.312   9.191   1.803 -0.2069 -0.0566  0.0957
 5749W        W 9800   8.947   9.001  12.477 -0.5465  0.1424 -0.0106
 5750W        W 9801   6.936   9.059  10.490 -0.0504  0.1642  0.1657
 5751W        W 9802   5.061   1.850   4.349 -0.0304  0.1694  0.0991
 5752W        W 9803   0.968   7.741   4.418  0.2881 -0.0381  0.0840
 5753W        W 9804   8.435   1.296  11.095 -0.4190 -0.1957  0.4025
 5754W        W 9805   2.248   2.802  11.372  0.1949  0.1870 -0.0148
 5755W        W 9806   4.222   6.370   9.535 -0.0942  0.1676  0.1447
 5756W        W 9807   8.602   0.292   9.746 -0.3731  0.0758 -0.2580
 5757W        W 9808   5.027   3.251   0.861  0.0201  0.4565 -0.4219
 5758W        W 9809   2.652   9.033  11.333  0.5220 -0.0283 -0.0131
 5759W        W 9810   1.723   6.721   0.492  0.0880 -0.0383 -0.1086
 5760W        W 9811   3.620   7.682  13.838  0.0148  0.0698  0.1075
 5761W        W 9812   9.739   7.795  10.546 -0.0347 -0.0764  0.1267
 5762W        W 9813   0.430   7.885   1.899 -0.2779 -0.0634  0.2030
 5763W        W 9814   4.335   4.726  13.704  0.1900  0.1751 -0.0278
 5764W        W 9815   2.791   5.030  13.593  0.0255  0.0769 -0.0296
 5765W        W 9816   4.574   8.156   9.345 -0.2153 -0.1464  0.0474
 5766W        W 9817   4.977   9.001   2.627 -0.3049 -0.0671 -0.0143
 5767W        W 9818   4.461   2.018   2.427 -0.1126  0.2789  0.0661
 5768W        W 9819   7.845   0.160   3.811 -0.2786  0.0523  0.0304
 5769W        W 9820   1.253   2.301   1.670 -0.1190 -0.3200  0.2699
 5770W        W 9821   6.860   2.290  12.837 -0.3542  0.0562  0.1642
 5771W        W 9822   8.865   8.908   3.035  0.2358 -0.5287  0.3475
 5772W        W 9823   3.739   7.377   0.366  0.1243 -0.0785 -0.2585
 5773W        W 9824   2.571   7.420  10.820  0.3749 -0.4740  0.0652
 5774W        W 9825   1.820   9.693   3.961  0.0139 -0.1165  0.0240
 5775W        W 9826   3.547   4.540   0.081 -0.1748 -0.0192  0.1803
 5776W        W 9827   9.739   3.103  11.405  0.0102 -0.4556 -0.1576
 5777W        W 9828   7.664   7.263  11.307  0.4284  0.1883  0.1710
 5778W        W 9829   5.032   9.189  13.245 -0.1860  0.1807 -0.1583
 5779W        W 9830   6.414   6.162   9.996  0.0169  0.0995 -0.1374
 5780W        W 9831   0.492   4.873  11.048  0.1163  0.2211  0.1781
 5781W        W 9832   8.694   2.681  13.105 -0.1263 -0.2510 -0.0530
 5782W        W 9833   5.587   0.090  10.225 -0.0032 -0.0122 -0.0903
 5783W        W 9834   7.089   9.505  12.363 -0.1686 -0.0151 -0.2555
 5784W        W 9835   8.157   4.823   3.898 -0.0624  0.0853  0.1669
 5785W        W 9836   8.257   3.890   2.407 -0.0648  0.0584 -0.1421
 5786W        W 9837   1.049   8.684  11.616  0.1195  0.0382 -0.0141
 5787W        W 9838   3.867   4.892   3.032  0.1354  0.2498  0.4044
 5788W        W 9839   7.352   6.287   8.653 -0.0924  0.3043 -0.1310
 5789W        W 9840   9.780   7.821   5.341  0.1573 -0.3093 -0.2308
 5790W        W 9841   1.611   3.619  12.451  0.1250 -0.3670 -0.0748
 5791W        W 9842   8.375   1.424   3.227  0.1347 -0.3796  0.1107
 5792W        W 9843   6.965   7.631   1.868 -0.0955  0.0838 -0.2442
 5793W        W 9844   8.083   8.482   4.074 -0.1320 -0.1074 -0.0870
 5794W        W 9845   3.549   2.363  10.472 -0.4802  0.0396 -0.0551
 5795W        W 9846   1.162   7.735   2.209  0.0597 -0.1656  0.5447
 5796W        W 9847   2.915   9.315  12.366  0.1207  0.1670 -0.1145
 5797W        W 9848   7.152   1.603   1.542 -0.1904 -0.1588 -0.0387
 5798W        W 9849   8.572   0.108  12.575 -0.1123 -0.2164 -0.1179
 5799W        W 9850   6.302   8.707   9.619 -0.0079  0.1794 -0.3096
 5800W        W 9851   9.936   1.933   3.608 -0.0476  0.0960  0.2575
 5801W        W 9852   4.579   4.107  11.046  0.0750  0.0767 -0.1420
 5802W        W 9853   5.781   6.991   9.883 -0.2905 -0.0140  0.0196
 5803W        W 9854   3.838   7.208   3.926  0.1306 -0.1532 -0.0030
 5804W        W 9855   7.843   0.482   2.672  0.4555  0.0992  0.1965
 5805W        W 9856   2.822   9.900   4.702 -0.1267  0.1357  0.0485
 5806W        W 9857   4.356   1.797   0.652  0.1420 -0.1015  0.0132
 5807W        W 9858   9.364   6.633  11.915  0.0445 -0.4643 -0.0724
 5808W        W 9859   1.476   2.690   0.423  0.3189 -0.0583  0.5637
 5809W        W 9860   9.489   7.724  12.831 -0.4490  0.1452  0.1099
 5810W        W 9861   4.948   9.723   1.864 -0.1135  0.2539 -0.1639
 5811W        W 9862   7.217   6.927   2.834  0.2106 -0.1219  0.0651
 5812W        W 9863   0.803   7.498  11.587 -0.2912  0.0163 -0.2597
 5813W        W 9864   7.443   8.211  10.661  0.0677 -0.0252  0.0909
 5814W        W 9865   7.153   7.689  10.780  0.0300 -0.1546  0.2119
 5815W        W 9866   6.274   5.778   2.599 -0.0363  0.0824  0.1370
 5816W        W 9867   4.486   5.397   0.669 -0.2228 -0.1556  0.2020
 5817W        W 9868   0.994   9.129  13.862 -0.1320  0.4010 -0.0207
 5818W        W 9869   6.890   7.903   2.282  0.1015  0.0338 -0.1737
 5819W        W 9870   0.682   6.954   4.438 -0.0713  0.0167  0.0225
 5820W        W 9871   3.012   0.981   2.433 -0.4153 -0.2547  0.0987
 5821W        W 9872   9.864   4.612  11.133 -0.3827  0.0595  0.2338
 5822W        W 9873   3.188   1.017  13.611 -0.0664 -0.4003 -0.3518
 5823W        W 9874   9.101   9.251  12.929 -0.2394 -0.1058 -0.0555
 5824W        W 9875   3.546   3.502  13.700 -0.1305  0.1702 -0.1393
 5825W        W 9876   6.591   7.043  13.587 -0.0791  0.1471 -0.1519
 5826W        W 9877   1.032   1.221   1.538 -0.3692  0.1232 -0.0308
 5827W        W 9878   5.361   0.825   4.107  0.0538  0.1073 -0.0312
 5828W        W 9879   3.545   9.377   5.055 -0.1995 -0.0883 -0.1542
 5829W        W 9880   9.306   1.772  10.391 -0.0294  0.0556  0.0100
 5830W        W 9881   4.605   7.231   2.649  0.0169  0.0518 -0.0995
 5831W        W 9882   9.298   4.194   3.385  0.0325  0.1245 -0.1968
 5832W        W 9883   0.808   8.050   2.906 -0.1102  0.0030 -0.1593
 5833W        W 9884   5.684   7.134  12.356  0.0799 -0.1290  0.1175
 5834W        W 9885   6.298   9.381   5.191 -0.1059 -0.1604  0.1042
 5835W        W 9886   1.933   3.982   0.504  0.3002  0.3530 -0.0011
 5836W        W 9887   6.934   3.272  13.103 -0.1270 -0.0949  0.1252
 5837W        W 9888   6.670   3.091   3.863 -0.1632 -0.2532  0.3094
 5838W        W 9889   7.912   2.214  12.087 -0.0203  0.2255  0.0894
 5839W        W 9890   0.430  10.047   4.102 -0.1876  0.2858 -0.4462
 5840W        W 9891   4.232   1.570  10.782 -0.1313  0.0266 -0.1847
 5841W        W 9892   7.116   4.593   9.132 -0.1690 -0.0313  0.1178
 5842W        W 9893   5.019   4.618   9.316 -0.0800  0.1247  0.2865
 5843W        W 9894   8.942   5.282   2.579  0.0076 -0.0473  0.2060
 5844W        W 9895   4.936   7.742   3.221 -0.2360  0.3235  0.2079
 5845W        W 9896   5.033   8.716  13.875 -0.4403 -0.0856 -0.2736
 5846W        W 9897   3.308   3.869  12.189 -0.0127 -0.4204 -0.0500
 5847W        W 9898   0.252   3.041  12.053  0.1906  0.1430 -0.0665
 5848W        W 9899   4.893   9.533  13.965 -0.0712 -0.0437  0.0459
 5849W        W 9900   6.736   1.986  11.630  0.0805  0.0918 -0.1333
 5850W        W 9901   0.787   1.095   1.951 -0.1285  0.0570 -0.0536
 5851W        W 9902   5.894   4.291  11.876  0.1502  0.1076  0.0147
 5852W        W 9903   6.336   8.257   1.320 -0.1306 -0.1576  0.0430
 5853W        W 9904   3.805   5.897  13.650  0.1494  0.1109 -0.2848
 5854W        W 9905   7.382   5.686  10.632 -0.1337  0.0694 -0.3122
 5855W        W 9906   5.487   6.937   8.469 -0.1867  0.2389  0.1862
 5856W        W 9907   2.326   3.019   0.086  0.0651 -0.1571 -0.0339
 5857W        W 9908   4.197   6.160  12.040 -0.1159  0.0905 -0.0570
 5858W        W 9909   3.856   6.878   0.473  0.0374 -0.3894  0.0955
 5859W        W 9910   0.439  10.044   5.048  0.0744  0.1799  0.1676
 5860W        W 9911   7.361   1.579   2.005  0.0974  0.2911  0.0562
 5861W        W 9912   2.826   9.440  13.786 -0.1154 -0.1573  0.0078
 5862W        W 9913   2.817   9.221  10.748  0.2495 -0.1488 -0.0670
 5863W        W 9914   4.783   1.940   1.154  0.0858  0.0810 -0.0334
 5864W        W 9915   0.911   7.331   5.362 -0.1961  0.0830  0.1920
 5865W        W 9916   5.840   5.233   4.057  0.0377  0.1503 -0.1392
 5866W        W 9917   6.919   0.286   3.839 -0.1824 -0.0800  0.1062
 5867W        W 9918   9.161   6.026  12.791  0.0337 -0.2492 -0.0983
 5868W        W 9919   9.932   5.742  12.993  0.1749 -0.0639 -0.2979
 5869W        W 9920   7.329   7.468  10.328  0.0032 -0.1273 -0.1431
 5870W        W 9921   6.375   3.583  10.886 -0.1056 -0.1358  0.1576
 5871W        W 9922   7.038   0.238   4.710 -0.2342  0.0576  0.0506
 5872W        W 9923   8.750   2.030   2.108 -0.2310  0.0929 -0.0483
 5873W        W 9924   3.898   1.352   2.779 -0.1141  0.3377  0.0429
 5874W        W 9925   2.015   9.791   2.028  0.0186 -0.0868  0.0176
 5875W        W 9926   3.319   4.793  13.426  0.0867  0.0453 -0.1844
 5876W        W 9927   5.412   2.009   1.196 -0.0255 -0.1351  0.5536
 5877W        W 9928   0.045   3.293   2.783 -0.3175  0.1237  0.3525
 5878W        W 9929   4.696   1.770   9.857 -0.1246  0.1036 -0.0724
 5879W        W 9930   8.896  10.000  11.150  0.2300  0.1975  0.0481
 5880W        W 9931   6.482   6.749   0.114 -0.1479 -0.2431 -0.0612
 5881W        W 9932   5.639   1.314   0.281 -0.1929  0.0483  0.0564
 5882W        W 9933   8.753   0.736  13.208 -0.0718 -0.0649  0.0195
 5883W        W 9934   8.224   4.694   9.552 -0.1972 -0.3138  0.0139
 5884W        W 9935   8.921   6.765  11.337  0.2396  0.1036 -0.0749
 5885W        W 9936   8.349   9.550  12.265 -0.0273 -0.3556 -0.0378
 5886W        W 9937   1.791   0.344   0.069  0.0473 -0.2606 -0.3996
 5887W        W 9938   8.623   8.191   2.391  0.1453 -0.1063 -0.0963
 5888W        W 9939   2.016   4.318  12.349  0.0922 -0.1960  0.1826
 5889W        W 9940   6.339   7.120   1.218 -0.1310  0.1540  0.0296
 5890W        W 9941   4.296   8.198   3.525  0.1600 -0.2542 -0.0360
 5891W        W 9942   0.011   6.517   9.059 -0.2980 -0.2286  0.0851
 5892W        W 9943   1.251   9.933   4.577  0.4412  0.0091 -0.0483
 5893W        W 9944   2.871   6.286   9.572 -0.0342  0.0362  0.1816
 5894W        W 9945   7.630   0.465   2.230  0.0085 -0.2093 -0.0345
 5895W        W 9946   8.364   5.611   2.020  0.2635  0.0272 -0.3769
 5896W        W 9947   3.578   9.481   3.591 -0.0087  0.0784 -0.1276
 5897W        W 9948   6.972   4.623   4.643 -0.1741 -0.1093  0.1044
 5898W        W 9949   1.228   5.710   3.658 -0.1105 -0.1033  0.2790
 5899W        W 9950   6.074   5.156   2.178  0.0462  0.3104  0.0817
 5900W        W 9951   6.135   3.072   4.569 -0.5131  0.2011  0.1354
 5901W        W 9952   8.257   1.136   1.983 -0.1125  0.1416  0.1233
 5902W        W 9953   0.129   4.930   3.188  0.3516  0.0475  0.3833
 5903W        W 9954   0.324   1.068   3.425 -0.1156  0.0108  0.0515
 5904W        W 9955   3.413   6.338   0.927  0.1062  0.1746 -0.0400
 5905W        W 9956   0.152   1.949   9.569 -0.0641 -0.1196 -0.0262
 5906W        W 9957   3.010   2.408   2.094  0.2948 -0.1083 -0.2455
 5907W        W 9958   7.853   2.701   2.968 -0.1362  0.2942 -0.0591
 5908W        W 9959   8.898   3.660   1.821 -0.2433 -0.3215 -0.0455
 5909W        W 9960   5.206   3.193  12.179  0.2561 -0.2485 -0.0841
 5910W        W 9961   2.870   2.519   1.603 -0.5550  0.0172 -0.0677
 5911W        W 9962   8.362   5.740   3.894 -0.3067 -0.2589 -0.0540
 5912W        W 9963   2.883   6.848  13.636 -0.2096  0.1250 -0.1328
 5913W        W 9964   4.852   1.086  12.708  0.1482  0.3791  0.2431
 5914W        W 9965   8.807   4.831  13.588 -0.0279  0.2515 -0.2429
 5915W        W 9966   6.611   5.593   2.920 -0.1901  0.4245  0.0184
 5916W        W 9967   9.906   9.816  12.900 -0.2145  0.0246 -0.3021
 5917W        W 9968   0.411   8.321  10.396 -0.1663  0.3342 -0.0758
 5918W        W 9969   1.707   8.237   9.016  0.3166  0.2420 -0.0522
 5919W        W 9970   0.036   8.427   9.473 -0.0513 -0.2138  0.0275
 5920W        W 9971   9.396   7.488  13.334  0.2109  0.3554  0.1158
 5921W        W 9972   6.502   2.719   0.519  0.2350  0.3303  0.0311
 5922W        W 9973   1.310   5.781  13.200 -0.2228 -0.0267 -0.0042
 5923W        W 9974  10.149   3.934  10.250  0.0755  0.4723 -0.0413
 5924W        W 9975   9.012   2.710  10.144 -0.0727  0.2874  0.0568
 5925W        W 9976   3.940   2.056  10.433  0.3429 -0.2922  0.0958
 5926W        W 9977   0.361   6.779   0.340 -0.1673 -0.1689 -0.2933
 5927W        W 9978   2.121   4.788  11.046  0.0923  0.2637  0.0879
 5928W        W 9979   4.795   0.469   1.073  0.1222 -0.1860 -0.1908
 5929W        W 9980   8.148   8.241   3.505  0.1185 -0.1065  0.0993
 5930W        W 9981   8.460   2.852  11.522  0.3129 -0.0850  0.2111
 5931W        W 9982   2.227   6.271   0.099  0.1212  0.0086 -0.4268
 5932W        W 9983   1.362   4.844   3.464 -0.1206 -0.0735 -0.0064
 5933W        W 9984   0.485   7.071  13.436 -0.0130 -0.0780  0.2181
 5934W        W 9985   0.449   4.705   0.060  0.1813 -0.2751 -0.0008
 5935W        W 9986   2.405  10.081  11.916  0.1243  0.4056 -0.0580
 5936W        W 9987   0.058   8.604  13.090 -0.0692 -0.0221  0.4312
 5937W        W 9988   2.081   2.489   2.025 -0.2295  0.0882 -0.0091
 5938W        W 9989   5.421   4.805   3.751  0.3510 -0.1413 -0.1573
 5939W        W 9990   2.247   6.674   0.475  0.1150  0.0242  0.0108
 5940W        W 9991   4.033   4.183  10.361 -0.0696  0.1118  0.1261
 5941W        W 9992   6.130   4.432  10.114  0.1253 -0.1913  0.3189
 5942W        W 9993   3.645   2.868  12.274 -0.0320  0.0194  0.1643
 5943W        W 9994   4.914   4.653  12.312  0.1396 -0.1572  0.1095
 5944W        W 9995   3.853   6.009   1.015 -0.3696 -0.0042 -0.0270
 5945W        W 9996   6.700   4.391   9.418 -0.1495 -0.1367  0.0361
 5946W        W 9997   0.827   0.057   4.412  0.0215 -0.1793 -0.0751
 5947W        W 9998   2.995   1.472   1.748 -0.0913  0.3095 -0.0471
 5948W        W 9999   4.230   1.940  11.984 -0.0455 -0.3626  0.3102
 5949W        W10000   1.292   5.250  13.355  0.0968 -0.0430 -0.5568
 5950W        W10001   4.446   7.939   1.441 -0.0366  0.1367  0.0325
 5951W        W10002   5.377   5.376   3.754 -0.2878 -0.1477 -0.3480
 5952W        W10003   8.925  10.147   0.544  0.0852  0.2116  0.1287
 5953W        W10004   6.513   8.088  10.231  0.0517  0.0681  0.0495
 5954W        W10005   8.332   4.505   9.123  0.3089 -0.0169 -0.1353
 5955W        W10006   4.229   7.049   9.973 -0.0638  0.2185  0.1898
 5956W        W10007   7.836   5.553   9.712  0.1028 -0.1231 -0.0549
 5957W        W10008   3.365   4.351  13.652  0.3976 -0.1307  0.3084
 5958W        W10009   8.549   0.050   9.350 -0.3492 -0.1304 -0.0587
 5959W        W10010   5.782  10.118   4.766 -0.3537  0.0751 -0.0982
 5960W        W10011   2.193   9.016  10.725 -0.1669 -0.0176 -0.0203
 5961W        W10012   3.661   8.960  11.687  0.0737 -0.0945 -0.3800
 5962W        W10013   7.577   8.006  11.664  0.0529 -0.2462  0.0138
 5963W        W10014   5.729   8.567   8.785 -0.1868 -0.0888 -0.3967
 5964W        W10015   4.990   1.681   5.230 -0.1977  0.5716 -0.0104
 5965W        W10016   6.608   1.519   2.398 -0.5237  0.2262  0.2669
 5966W        W10017   0.662   5.687  11.192 -0.1171 -0.0241 -0.0172
 5967W        W10018   6.097   1.218  12.915  0.2074  0.0640 -0.1817
 5968W        W10019   0.452   0.672   9.762 -0.0850  0.2893  0.0123
 5969W        W10020   4.204   7.230  11.299  0.0705 -0.0030 -0.1606
 5970W        W10021   2.769   2.028   3.514  0.0217 -0.0745 -0.0248
 5971W        W10022   3.442   5.179   3.009 -0.2481 -0.3905  0.1815
 5972W        W10023   0.892   6.035  10.917  0.0997  0.1350 -0.0356
 5973W        W10024   2.559   0.831   4.218 -0.0102 -0.1766 -0.0148
 5974W        W10025   6.447   9.447   2.447  0.1957  0.1325  0.3675
 5975W        W10026   1.348   8.400   3.703  0.0457 -0.1631 -0.1343
 5976W        W10027   9.585   3.863  13.368 -0.0654  0.0922  0.0501
 5977W        W10028   2.109   0.093   0.457 -0.0393  0.0511 -0.2169
 5978W        W10029   7.871   8.808  10.853  0.0607 -0.1805 -0.0058
 5979W        W10030   7.846   8.538  10.421  0.0054  0.1941 -0.0252
 5980W        W10031   4.585   9.883  13.491 -0.0985 -0.0540  0.0287
 5981W        W10032   0.248   5.382  10.830 -0.3182  0.1985  0.0009
 5982W        W10033   8.867   0.544  10.116 -0.3628  0.0954  0.0208
 5983W        W10034   2.612   6.552   4.125  0.1574  0.0744  0.2121
 5984W        W10035   1.973   8.512  11.259  0.2020 -0.1100 -0.0958
 5985W        W10036   1.092  10.177  12.655 -0.2992  0.0227  0.3447
 5986W        W10037   7.181   6.091   5.603  0.1955 -0.2155  0.0275
 5987W        W10038   3.595   1.814  11.275 -0.0442 -0.1698  0.2845
 5988W        W10039   6.820   0.934   0.539  0.1935  0.0809 -0.3031
 5989W        W10040   2.438   1.407   0.329  0.2918 -0.1366  0.0322
 5990W        W10041   6.446   3.385   3.508 -0.0497 -0.0251 -0.5021
 5991W        W10042   8.774   3.748   3.617  0.0243 -0.0487  0.0870
 5992W        W10043   5.781   8.438  13.288  0.2191  0.0613  0.0956
 5993W        W10044   7.593   0.135  12.814 -0.0137  0.1370 -0.2069
 5994W        W10045   8.033   5.327  12.289  0.2234  0.2035 -0.1538
 5995W        W10046   4.143   4.929  11.133 -0.2239  0.0986 -0.4717
 5996W        W10047   0.527   4.801  11.530  0.0583  0.0876 -0.0084
 5997W        W10048   5.023   6.146   3.057 -0.0471  0.2975 -0.0246
 5998W        W10049   8.215   5.490  13.738 -0.0578 -0.2604  0.3021
 5999W        W10050   1.962   2.936   0.542 -0.3217 -0.0200 -0.1546
 6000W        W10051   7.266   5.940   2.287 -0.0532  0.0563  0.1381
 6001W        W10052   8.358   3.452   1.546  0.0665 -0.0077  0.0841
 6002W        W10053   5.814   7.903   1.655  0.0024  0.0216  0.0403
 6003W        W10054   5.487   0.019  12.841 -0.0024 -0.1150  0.3786
 6004W        W10055   6.153   4.012  12.296 -0.2574  0.1927  0.1696
 6005W        W10056   5.454   8.092  13.386 -0.1653  0.0476 -0.1579
 6006W        W10057   0.548   5.792   2.684 -0.1474  0.2329  0.0166
 6007W        W10058   9.925   6.135   4.517  0.2717  0.0539 -0.0763
 6008W        W10059   6.459   8.272   2.622 -0.0490 -0.0067  0.1247
 6009W        W10060   5.516   1.141   2.247  0.0464  0.0782 -0.0537
 6010W        W10061   6.737   1.898   2.754  0.0873 -0.3292 -0.2652
 6011W        W10062   4.928   6.293  12.992  0.0139  0.0206 -0.3851
 6012W        W10063   6.813   9.273  10.931 -0.3377 -0.1677  0.0711
 6013W        W10064   6.615   1.603  13.796  0.1955  0.0792  0.0846
 6014W        W10065   1.679   3.969  11.072 -0.0668  0.2824  0.1379
 6015W        W10066   8.168   1.124  10.567 -0.1179  0.0896 -0.1171
 6016W        W10067   6.430   0.496  12.961 -0.3906  0.3785 -0.0438
 6017W        W10068   1.103   1.087  12.909  0.0486 -0.3072 -0.2004
 6018W        W10069   7.819   9.612  11.076 -0.1744  0.1368  0.2184
 6019W        W10070   6.396   9.713  11.598 -0.1078  0.2349  0.0555
 6020W        W10071   7.523   5.883   8.965 -0.4991 -0.0585  0.2631
 6021W        W10072   2.938   6.914   2.638 -0.3016  0.1478 -0.1021
 6022W        W10073   3.104   2.959  11.874  0.0218 -0.0592  0.0667
 6023W        W10074   2.314   1.652   3.359 -0.0276  0.0267 -0.3083
 6024W        W10075   6.837   6.560   4.529  0.1557  0.1098 -0.0916
 6025W        W10076   9.137   9.991   3.587  0.0239  0.0272  0.0881
 6026W        W10077   3.782   0.774   3.777  0.0637  0.0322  0.1152
 6027W        W10078   2.521   4.785  12.883  0.1877  0.0807  0.0052
 6028W        W10079   0.634   6.542  13.316  0.2086  0.0556  0.1181
 6029W        W10080   5.822  10.158   0.762  0.1470  0.1950 -0.1100
 6030W        W10081   6.329   4.420   3.544 -0.1553 -0.0424 -0.1311
 6031W        W10082   8.364   3.310   2.618 -0.2418 -0.0381 -0.2790
 6032W        W10083   8.862   5.017  11.915  0.3031 -0.1357 -0.1776
 6033W        W10084   7.694   7.918  12.351  0.0456  0.0216  0.1714
 6034W        W10085   4.210   8.259   0.378  0.2234 -0.2434 -0.2083
 6035W        W10086   9.261   6.348   4.967  0.1504 -0.0137 -0.0908
 6036W        W10087   4.760   6.034   1.106 -0.0148  0.1790  0.1404
 6037W        W10088   8.808   8.703   9.698  0.4169 -0.0592  0.0997
 6038W        W10089   5.167   8.142   4.444  0.0157  0.1382  0.0725
 6039W        W10090   6.083   6.727   3.978 -0.0041  0.1160 -0.0784
 6040W        W10091   7.656   2.727   4.663  0.0202 -0.0419 -0.2134
 6041W        W10092   3.894   1.822   2.582  0.0714  0.1170  0.1647
 6042W        W10093   2.923   4.954   1.350 -0.0294  0.0385  0.1394
 6043W        W10094   6.731   0.913   1.021 -0.0020  0.0202 -0.1142
 6044W        W10095   6.411   3.478   4.348 -0.0431 -0.1514  0.0267
 6045W        W10096   3.387   2.442  13.364  0.0901 -0.1065  0.0091
 6046W        W10097   0.742   8.939   2.541  0.0159  0.0330 -0.0388
 6047W        W10098   4.217   4.711   1.326 -0.0415  0.0414  0.1170
 6048W        W10099   1.147   8.228   0.877 -0.2142  0.0036  0.1051
 6049W        W10100   6.213   9.287  11.920 -0.0881 -0.2333  0.2461
 6050W        W10101   7.266   0.567   5.000  0.0540  0.0416 -0.3057
 6051W        W10102   9.303   2.876   0.783 -0.5022  0.0420 -0.0825
 6052W        W10103   4.453   2.669  10.455 -0.4458  0.1578  0.2058
 6053W        W10104   5.266   1.180  13.438 -0.2698  0.0820 -0.1199
 6054W        W10105   4.431   7.472   1.949 -0.0488 -0.2167  0.2094
 6055W        W10106   1.772   1.295  10.905 -0.1483  0.2471  0.1140
 6056W        W10107   3.202   0.251  13.121 -0.3695  0.0035  0.0503
 6057W        W10108   0.826   7.803   4.889 -0.1040  0.0414  0.1385
 6058W        W10109   6.756   2.255  11.248 -0.2456 -0.1660 -0.3186
 6059W        W10110   3.429   6.024  12.678  0.0457  0.0859 -0.2543
 6060W        W10111   5.074   7.981   9.686 -0.3305 -0.2547 -0.1286
 6061W        W10112   7.368   5.037   9.322 -0.1336  0.0906 -0.1914
 6062W        W10113   1.661   5.167   1.569 -0.0937 -0.1850  0.0533
 6063W        W10114   8.980   0.865  12.261 -0.1189  0.0101  0.1533
 6064W        W10115   0.679   4.735   1.823 -0.0104  0.1111 -0.0306
 6065W        W10116   9.322   6.553   3.074  0.1348 -0.4461 -0.2008
 6066W        W10117   8.583   4.009  13.630  0.0405 -0.0551  0.1237
 6067W        W10118   1.608   5.823  10.733 -0.1418 -0.2821 -0.0118
 6068W        W10119   9.513   2.582  12.542  0.1040  0.2255 -0.0209
 6069W        W10120   8.207   4.520   0.241 -0.2521 -0.0551 -0.0395
 6070W        W10121   8.122   8.632  13.472 -0.1743  0.1247 -0.0828
 6071W        W10122   8.933   8.619   9.165 -0.0423  0.0958  0.0568
 6072W        W10123   2.043  10.010   9.471 -0.0355 -0.2068 -0.1210
 6073W        W10124   3.584   1.211   0.476 -0.2465  0.5167 -0.0344
 6074W        W10125   9.062   9.775   3.117  0.2304  0.0017 -0.0037
 6075W        W10126   6.381   9.527   0.896 -0.2973  0.2029 -0.1641
 6076W        W10127   2.528   1.470  10.871  0.4095 -0.0415 -0.0114
 6077W        W10128   8.605   1.620   1.362 -0.0823 -0.3880  0.1559
 6078W        W10129   6.219   2.245   0.931  0.0107  0.1332 -0.1590
 6079W        W10130   1.127   7.071   3.121 -0.1186 -0.1464 -0.0568
 6080W        W10131   8.621   6.316  13.486  0.0622 -0.0728  0.0226
 6081W        W10132   2.056   9.029   2.123 -0.0345 -0.1872 -0.1221
 6082W        W10133   6.861   4.672   0.040  0.0925  0.0347  0.1356
 6083W        W10134   6.713   0.067   0.310 -0.1675  0.5060  0.0506
 6084W        W10135   2.219   5.536  12.513 -0.2331 -0.0562 -0.3630
 6085W        W10136   6.079   1.675  13.673  0.0312 -0.1194  0.1026
 6086W        W10137   4.336   0.747   2.990  0.0126  0.3670  0.1313
 6087W        W10138   9.274   0.405   4.539  0.1559  0.3562  0.0965
 6088W        W10139   7.319   6.993  11.574  0.1680 -0.0322 -0.1106
 6089W        W10140   3.425   7.847  12.740 -0.1979  0.1856  0.1013
 6090W        W10141   8.175   5.405   3.187 -0.1232  0.0218 -0.1659
 6091W        W10142   3.144   6.714   9.742 -0.0844 -0.0552  0.1059
 6092W        W10143   8.117   1.681   8.636 -0.3471 -0.1293 -0.2797
 6093W        W10144   8.483   1.243   9.754 -0.0744  0.0232 -0.4523
 6094W        W10145   0.968   0.702   9.432 -0.2490 -0.3191 -0.0585
 6095W        W10146   1.488   5.511  12.381  0.1016 -0.2350  0.3073
 6096W        W10147   1.078   8.751   3.409 -0.2227  0.2064 -0.1149
 6097W        W10148   1.312   3.166   3.600  0.0522  0.1865  0.0511
 6098W        W10149   7.749   4.686   4.695 -0.0567 -0.1151 -0.0277
 6099W        W10150   4.589   8.425   0.663 -0.2457  0.2251 -0.1016
 6100W        W10151   3.051   4.101  12.575  0.0087  0.1502  0.0657
 6101W        W10152   9.086   6.374   1.886 -0.2565 -0.1094  0.1087
 6102W        W10153   3.306   6.189  11.713  0.0693 -0.1288 -0.1199
 6103W        W10154   9.445   9.201   4.802 -0.0239 -0.1699  0.0302
 6104W        W10155   9.169   6.582   3.914  0.1499  0.0994 -0.0515
 6105W        W10156   5.132   4.434   0.194 -0.1460 -0.1071  0.2736
 6106W        W10157   1.192   9.098   1.744 -0.1695 -0.3253  0.0332
 6107W        W10158   6.205   5.484   0.526 -0.0463 -0.1734 -0.1583
 6108W        W10159   0.698   8.292  12.376 -0.1919  0.0638  0.2730
 6109W        W10160   4.068   9.652   3.342  0.1305 -0.0171  0.2968
 6110W        W10161   6.568   3.180   4.825 -0.1389  0.1718  0.0887
 6111W        W10162   7.933   7.452   5.059 -0.3308  0.0048  0.2183
 6112W        W10163   4.163   8.957   5.742 -0.1066  0.0287  0.1055
 6113W        W10164   9.086   2.888  12.325  0.0735 -0.2110 -0.0022
 6114W        W10165   7.323   7.711   3.796 -0.2455  0.0191  0.1465
 6115W        W10166   1.837   3.037   3.576 -0.1422 -0.2281  0.1115
 6116W        W10167   0.402   0.511  13.004  0.1213 -0.1206  0.0233
 6117W        W10168   1.817   0.728   9.196 -0.3706  0.0976  0.2174
 6118W        W10169   1.023   7.775  11.074  0.0423 -0.2437  0.3472
 6119W        W10170   8.774   9.363   4.144  0.1418 -0.0291 -0.0196
 6120W        W10171   7.513   1.066  13.906 -0.0570 -0.0918 -0.1142
 6121W        W10172   7.403   1.592   3.385 -0.2285  0.0059  0.0432
 6122W        W10173   0.360   3.991  10.529  0.2197 -0.2703  0.4506
 6123W        W10174  10.085   4.975  12.220  0.3840  0.0209  0.1803
 6124W        W10175   9.501   9.530   2.004  0.0317  0.1625  0.1294
 6125W        W10176   5.228  10.012   1.256 -0.1171 -0.0769  0.1315
 6126W        W10177   7.787   1.787  12.764  0.1018  0.0599  0.0972
 6127W        W10178   2.467   4.047   3.203  0.3176 -0.2467  0.0169
 6128W        W10179   8.396   8.056   1.416 -0.0975 -0.2429 -0.0173
 6129W        W10180   8.149   9.389   0.423 -0.0044 -0.1715 -0.1406
 6130W        W10181   1.589   8.493  13.463 -0.1104 -0.0298  0.0886
 6131W        W10182   3.769   6.669   4.210 -0.0565 -0.1980 -0.1117
 6132W        W10183   2.462   9.549  12.695 -0.1360  0.0357 -0.2617
 6133W        W10184   8.428   4.464  10.085 -0.0890  0.0885  0.0099
 6134W        W10185   2.882   4.563   0.994 -0.0596 -0.0567 -0.0074
 6135W        W10186   2.365   4.405   2.807  0.1275 -0.0722 -0.2236
 6136W        W10187   8.930   0.962  11.500  0.0659 -0.2557  0.0096
 6137W        W10188   9.498   8.322  11.240 -0.1832 -0.1882 -0.0340
 6138W        W10189   1.979   2.449   0.560  0.2022 -0.2228  0.1201
 6139W        W10190   0.276   2.729  12.506  0.1771  0.0425  0.2036
 6140W        W10191   9.481   2.036  11.635 -0.0348 -0.0616  0.2351
 6141W        W10192   2.999   7.538  11.589  0.3967 -0.2161  0.1056
 6142W        W10193   4.911   5.643  12.140 -0.0793  0.0275  0.0082
 6143W        W10194   5.823   5.699  10.500  0.1010  0.1376  0.0400
 6144W        W10195   9.313   0.735  10.098  0.0149 -0.3040  0.1709
 6145W        W10196   6.433   3.411   2.515  0.2202  0.4896 -0.2823
 6146W        W10197   9.803   9.934  12.409  0.0010 -0.2791 -0.1136
 6147W        W10198   5.501   6.868  11.964  0.1617 -0.1416  0.0708
 6148W        W10199   3.761   3.599   2.485 -0.1957  0.0208  0.0615
 6149W        W10200   0.373   4.496   1.498 -0.0127 -0.0279 -0.3819
 6150W        W10201   9.360   1.808  13.728 -0.0063 -0.4532 -0.0884
 6151W        W10202   7.932   8.024  10.618  0.3087 -0.1241 -0.0310
 6152W        W10203   4.588   1.676   2.064  0.0266 -0.1199 -0.0150
 6153W        W10204   4.747   1.856   3.943 -0.3048  0.0581  0.1262
 6154W        W10205   1.329   9.788  10.261  0.3683  0.1710  0.0469
 6155W        W10206   9.929   5.487   1.709 -0.4285 -0.0105 -0.0335
 6156W        W10207   4.013   6.666  12.049 -0.0096  0.0772 -0.0718
 6157W        W10208   9.380   9.761   1.566  0.0597 -0.2410  0.1688
 6158W        W10209   1.369   6.631  11.094  0.0891  0.0054  0.1169
 6159W        W10210   6.812  10.125  13.427 -0.1822 -0.1459 -0.1105
 6160W        W10211   9.200   0.433  13.880 -0.2581  0.0377  0.1567
 6161W        W10212   9.769   2.964   4.882 -0.1442 -0.0871  0.1016
 6162W        W10213   7.381   2.847   2.801 -0.1582  0.1032 -0.1197
 6163W        W10214   1.084   3.668  10.978 -0.0170  0.0590 -0.1421
 6164W        W10215   7.082   1.293  13.823  0.1349  0.0206 -0.1288
 6165W        W10216   3.993   2.621  10.378 -0.0852 -0.0394 -0.2493
 6166W        W10217   4.171   9.047   4.830 -0.1077 -0.2067 -0.3269
 6167W        W10218   1.607   5.621  11.753  0.1866  0.1065  0.1905
 6168W        W10219   6.148   6.997  13.399  0.0642  0.0856 -0.0826
 6169W        W10220   6.280   9.568  10.058  0.1292 -0.2576 -0.1091
 6170W        W10221   1.535   4.045   4.244  0.0480  0.3796 -0.1443
 6171W        W10222   8.865   5.275   3.126 -0.3396 -0.2362 -0.0007
 6172W        W10223   7.914   5.667  12.626 -0.0687 -0.3388  0.0586
 6173W        W10224   3.460   5.755  11.002 -0.1557 -0.2038  0.3454
 6174W        W10225   7.705   4.285   3.251 -0.0844  0.0491 -0.3363
 6175W        W10226   4.261   1.740   0.101  0.1892  0.2483 -0.0210
 6176W        W10227   8.784   6.673   4.826  0.0831  0.1828 -0.1211
 6177W        W10228   7.877   9.813   4.114 -0.3681 -0.1725 -0.1146
 6178W        W10229   4.694   8.381  10.916 -0.3377  0.0476 -0.0320
 6179W        W10230   6.533   3.035  13.302 -0.1560 -0.2949  0.2288
 6180W        W10231   3.848   3.886   0.357 -0.4319  0.1761 -0.0975
 6181W        W10232   5.223   1.892  12.178  0.0098  0.0329  0.1700
 6182W        W10233   6.620   3.187   0.050  0.3266  0.0035 -0.1836
 6183W        W10234   4.613   6.361   1.589  0.2516 -0.0641  0.0154
 6184W        W10235   6.516   1.844   9.880 -0.2255 -0.1188 -0.3106
 6185W        W10236   6.912   5.344   9.383  0.3817  0.0805  0.0080
 6186W        W10237   0.822   9.451   2.604 -0.0593  0.0176 -0.3336
 6187W        W10238   9.130   8.833   3.505  0.0241 -0.1846  0.0965
 6188W        W10239   3.513   6.431   9.852  0.3364  0.1858  0.1430
 6189W        W10240   0.053   8.057  12.514 -0.1098  0.1289  0.1313
 6190W        W10241   5.847   1.884   1.012  0.0075 -0.2345 -0.1880
 6191W        W10242   4.888   8.658  13.074 -0.0458  0.0350  0.0531
 6192W        W10243   7.423   1.623  13.195  0.0622 -0.0977  0.0844
 6193W        W10244   6.333   0.560   1.926  0.0124  0.1341  0.2306
 6194W        W10245   8.864   7.372   3.555  0.0634 -0.1230 -0.1860
 6195W        W10246   8.385   3.935  12.010  0.1208 -0.2151  0.1130
 6196W        W10247   2.850  10.153  11.257 -0.1111 -0.0718 -0.2103
 6197W        W10248   3.191   1.461   1.219 -0.1840  0.0576  0.1862
 6198W        W10249   8.032   3.753  11.641  0.0786  0.1437  0.0953
 6199W        W10250   6.819   0.309   9.716 -0.2694 -0.1534  0.2352
 6200W        W10251   2.098   1.400   9.620 -0.0364 -0.3186  0.1012
 6201W        W10252   7.289   9.986  13.107  0.1538  0.5438  0.1513
 6202W        W10253   8.120   2.374  11.597  0.1580  0.1976  0.3092
 6203W        W10254   7.943   4.934   9.157  0.3305 -0.0224 -0.1907
 6204W        W10255   2.697   6.345  13.779 -0.1871 -0.3021  0.4361
 6205W        W10256   8.356   2.502   3.140  0.2590 -0.3590  0.1394
 6206W        W10257  10.021   9.064   5.116 -0.2196  0.1678  0.2505
 6207W        W10258   4.788   1.379  10.948 -0.0403 -0.0011  0.1608
 6208W        W10259   5.714   1.586   2.844  0.3352  0.0948  0.0767
 6209W        W10260   7.726   2.396  13.125 -0.2919  0.2491 -0.1286
 6210W        W10261   8.358   6.408  10.760  0.0211  0.2338  0.2871
 6211W        W10262   4.131   8.101  11.593  0.1032  0.1260 -0.0226
 6212W        W10263   8.243   5.104   1.095 -0.1130  0.3540  0.3058
 6213W        W10264   4.923  10.132  13.800 -0.1218 -0.0652 -0.0659
 6214W        W10265   8.719   9.218   0.415  0.0251 -0.3290  0.1323
 6215W        W10266   5.206   2.868   4.114  0.2351 -0.0675 -0.3758
 6216W        W10267   7.458   0.175   1.388 -0.0871  0.0170 -0.2221
 6217W        W10268   7.276   0.722  13.188  0.1754 -0.1102 -0.2789
 6218W        W10269   0.546   8.207   5.077  0.0511 -0.3090  0.1652
 6219W        W10270   1.251   3.414  10.572 -0.0422 -0.0794  0.1592
 6220W        W10271   7.040   4.926  10.119 -0.3314 -0.2801 -0.1440
 6221W        W10272   3.589   4.919   9.684 -0.1712  0.2139 -0.0702
 6222W        W10273   6.758   7.798  11.150  0.1495 -0.0982  0.1649
 6223W        W10274   5.576   3.158  12.497 -0.1972 -0.0537  0.2818
 6224W        W10275   9.687   9.012  10.095 -0.1838 -0.2208  0.0699
 6225W        W10276   7.922   1.905   4.057  0.0655  0.0534 -0.0169
 6226W        W10277   5.853   9.766  13.827  0.1831  0.3655 -0.3445
 6227W        W10278   9.651   8.653   1.794  0.0106  0.0803 -0.1939
 6228W        W10279  10.172   8.627   4.869  0.1894  0.4454  0.3108
 6229W        W10280   9.359   7.999  13.242 -0.0723  0.1055  0.2816
 6230W        W10281   9.090   7.298  10.035 -0.0292 -0.0506 -0.2331
 6231W        W10282   4.871   6.763  11.722  0.3291  0.0977  0.0345
 6232W        W10283   0.534   2.820  13.459 -0.2175  0.4139 -0.0860
 6233W        W10284   4.337   0.317   3.351 -0.0787 -0.0959 -0.0274
 6234W        W10285   0.783   1.212   3.288  0.0642  0.0981  0.3941
 6235W        W10286   1.933   1.921   2.934  0.2835 -0.1524 -0.4371
 6236W        W10287   9.193   1.770  12.552 -0.2743  0.1457 -0.1317
 6237W        W10288   3.621   7.418   2.348 -0.1308  0.2934  0.0646
 6238W        W10289   8.938   9.647  13.675  0.1197 -0.0908  0.2012
 6239W        W10290   5.875   1.241  13.486 -0.0830 -0.0211 -0.2562
 6240W        W10291   6.319   2.962   2.331 -0.0500 -0.1982 -0.0324
 6241W        W10292   5.073   1.732  10.756  0.2141 -0.1961  0.3197
 6242W        W10293   5.803   4.348  10.541 -0.2210  0.0265 -0.0731
 6243W        W10294   8.533   3.059   0.691  0.0860  0.2979 -0.1547
 6244W        W10295   2.514   2.005  13.712  0.2612  0.1159  0.2589
 6245W        W10296   0.289   8.479   0.877  0.0515 -0.2645  0.1728
 6246W        W10297   7.377   5.595  11.126  0.1968  0.1135  0.0315
 6247W        W10298   5.261   2.127  10.972  0.0009 -0.0012 -0.0140
 6248W        W10299   6.686   3.329   2.986  0.1096 -0.1552  0.0264
 6249W        W10300   9.756   7.528   4.509 -0.3242  0.0898 -0.1944
 6250W        W10301   5.365   1.974   2.722 -0.2073  0.0051 -0.1217
 6251W        W10302   2.027   9.350  13.201 -0.1703  0.2148  0.4425
 6252W        W10303   7.235   6.875  13.667 -0.2283  0.0986  0.4859
 6253W        W10304   6.414   2.110   5.219 -0.1033 -0.0234  0.1332
 6254W        W10305   9.815   0.653  10.813 -0.2644 -0.3375  0.1458
 6255W        W10306   7.397   6.367   1.281  0.0367 -0.3579  0.1962
 6256W        W10307   7.866   8.913  12.589  0.0978  0.4015 -0.1323
 6257W        W10308   8.603   1.369   0.918 -0.3184  0.0442 -0.2888
 6258W        W10309   9.710   7.055  13.286  0.1627  0.1391  0.3123
 6259W        W10310   1.485   9.044   0.776 -0.1410  0.1102 -0.1621
 6260W        W10311   6.673   4.182  12.521  0.3073 -0.3929 -0.2162
 6261W        W10312   1.509   9.383  10.471  0.2326 -0.0971  0.0583
 6262W        W10313   1.991   8.184   3.920  0.1795  0.1540  0.0511
 6263W        W10314   0.653   2.789   3.958 -0.4629  0.4115 -0.1061
 6264W        W10315   6.935   0.737  11.269 -0.2354  0.0878  0.5811
 6265W        W10316   1.168  10.061  11.484  0.2475  0.0848  0.1082
 6266W        W10317   8.255  10.160   4.120 -0.0020  0.1248  0.2106
 6267W        W10318   7.224   3.644   2.177 -0.1461 -0.2485 -0.0443
 6268W        W10319   8.029   2.520   8.878 -0.0025  0.3216 -0.1415
 6269W        W10320   5.888   1.557  11.902  0.1416 -0.3593 -0.1834
 6270W        W10321   6.780   6.158   1.918 -0.0461 -0.0431  0.1925
 6271W        W10322   6.831   4.121   4.690  0.3546  0.0443  0.0191
 6272W        W10323   8.243   2.123   4.706 -0.0483 -0.0107 -0.0305
 6273W        W10324   6.362   8.449   0.126  0.2376 -0.0842 -0.1872
 6274W        W10325   6.113   4.385   1.261 -0.1649 -0.2193  0.1165
 6275W        W10326   4.140   8.585  12.293  0.0748 -0.0725 -0.2480
 6276W        W10327   4.078   8.450   9.254  0.1043  0.1421 -0.1411
 6277W        W10328  10.047   2.309  13.830 -0.2404 -0.2581  0.1956
 6278W        W10329   3.965   3.891  11.444 -0.0263  0.1530 -0.2903
 6279W        W10330   1.986   8.615   4.889  0.3802 -0.1961  0.4736
 6280W        W10331   0.829   5.389   3.414  0.1625 -0.1272 -0.1589
 6281W        W10332   7.654   4.689   8.612  0.0480  0.5485  0.2141
 6282W        W10333   7.437   2.449   9.996  0.0592 -0.1794 -0.0043
 6283W        W10334   8.936   8.558   1.254  0.0229  0.1496 -0.3025
 6284W        W10335   7.191   5.585   0.182 -0.1765  0.1919 -0.2094
 6285W        W10336   3.220   2.773   1.887 -0.1235  0.2228  0.2185
 6286W        W10337  10.152   4.669   1.152  0.2868  0.0619 -0.1202
 6287W        W10338   5.061   5.452  13.783  0.2212 -0.0184  0.0109
 6288W        W10339   7.840   1.983  11.488  0.1669 -0.2713  0.0467
 6289W        W10340   4.711   4.133  13.083  0.4189  0.0450  0.0941
 6290W        W10341   7.476   5.756   3.883  0.1339 -0.1161  0.0368
 6291W        W10342   3.567   1.420   5.184 -0.0532  0.1954  0.1526
 6292W        W10343   3.638   3.880  11.065  0.0936  0.0702  0.0764
 6293W        W10344   0.740   5.160   2.705 -0.0774 -0.3586  0.0243
 6294W        W10345   0.509   9.830   1.442 -0.1932 -0.0851  0.1467
 6295W        W10346   0.281   9.526  10.383  0.0308 -0.1698 -0.0642
 6296W        W10347   5.680   0.477   0.094 -0.0294 -0.1656 -0.0009
 6297W        W10348   7.239   0.483   1.809  0.0245  0.2170  0.0609
 6298W        W10349   4.784   2.267  13.251 -0.2298 -0.1911 -0.1709
 6299W        W10350   3.426   9.580   1.957  0.2748 -0.3124 -0.3963
 6300W        W10351   7.260   0.785   3.236  0.1856  0.2680  0.2288
 6301W        W10352   3.480   2.679   3.878  0.2480  0.0480  0.0758
 6302W        W10353   7.136   1.483   4.696 -0.1331  0.0543 -0.1786
 6303W        W10354   2.987   6.003   0.889  0.3530  0.0190  0.3672
 6304W        W10355   7.240   2.883   4.424  0.2471  0.0078 -0.0449
 6305W        W10356   8.030   0.759   9.235  0.0569  0.0954 -0.1173
 6306W        W10357   9.631   6.108   9.612  0.3341  0.1249 -0.0587
 6307W        W10358   0.435   6.267   3.165  0.0074 -0.4772  0.2314
 6308W        W10359   5.559   6.513  12.868  0.2834  0.0682 -0.2397
 6309W        W10360   9.682   1.604   2.308 -0.2483  0.0176  0.0146
 6310W        W10361   8.820   6.614  10.788  0.0387 -0.0014 -0.0290
 6311W        W10362   2.239   0.286   1.052 -0.0894  0.0437 -0.2050
 6312W        W10363   1.428   3.647   1.350  0.3143 -0.2178  0.1372
 6313W        W10364  10.033   7.980   2.116 -0.0203 -0.2115 -0.1298
 6314W        W10365   4.266   0.321   2.288 -0.1114  0.1398 -0.0361
 6315W        W10366   4.101   3.187  11.438  0.0503  0.1503  0.0571
 6316W        W10367   8.106   5.241  10.588  0.1076 -0.2228  0.0655
 6317W        W10368   1.513   9.056  12.269  0.1242 -0.2404  0.0535
 6318W        W10369   9.341   8.002   9.763  0.0249  0.3871 -0.0206
 6319W        W10370   5.363   9.520   3.096  0.1516 -0.2960 -0.1011
 6320W        W10371   3.810   2.577  13.599 -0.0895  0.1799 -0.2251
 6321W        W10372   2.853   6.282  12.003 -0.4472  0.0446 -0.0919
 6322W        W10373   1.443   9.581   3.102 -0.0799 -0.0323  0.3212
 6323W        W10374   8.836   6.825  13.502 -0.1263 -0.0808  0.1637
 6324W        W10375   7.305   3.014  13.349 -0.0141 -0.0783  0.2293
 6325W        W10376   5.708   8.201   0.298  0.1743  0.3193  0.0678
 6326W        W10377   8.632   9.913   2.695  0.1597 -0.1189  0.1556
 6327W        W10378   7.824   8.669   5.086  0.3306 -0.0515 -0.1242
 6328W        W10379   4.006   7.628  13.085  0.0531  0.2098 -0.0573
 6329W        W10380   2.015   1.651  12.593 -0.0583 -0.1055 -0.0445
 6330W        W10381   1.556   7.927   3.675  0.1403  0.2861  0.0717
 6331W        W10382   2.006   0.171   4.597 -0.3660 -0.0855 -0.1114
 6332W        W10383   8.180   2.034   0.439 -0.0362  0.0420  0.0246
 6333W        W10384   5.306   8.983   3.171  0.0513 -0.2252 -0.0617
 6334W        W10385   5.447   6.934   0.681  0.2573  0.1167  0.0626
 6335W        W10386   0.683   6.039  13.514 -0.2011 -0.2944  0.1753
 6336W        W10387   5.342   8.558   0.290 -0.1983  0.0853 -0.0021
 6337W        W10388   0.511   1.986  11.153 -0.0744  0.1057  0.2314
 6338W        W10389   0.347   7.388   2.695  0.1492 -0.0995  0.3435
 6339W        W10390   6.980   0.023   2.066  0.0600  0.0644  0.2018
 6340W        W10391   8.642   2.064  11.412 -0.0905 -0.1711 -0.3754
 6341W        W10392   3.569   5.773   0.469  0.1640  0.1165 -0.5063
 6342W        W10393   0.665   9.069   3.402  0.0043 -0.0844  0.0721
 6343W        W10394   0.472   5.345   3.074 -0.0983 -0.0583  0.1210
 6344W        W10395   4.392   1.195   2.754 -0.0114  0.1204  0.1355
 6345W        W10396   7.264   1.888  11.465 -0.1233 -0.0218 -0.1269
 6346W        W10397   9.314   8.185  12.131  0.2360  0.2210 -0.0982
 6347W        W10398   2.479   9.554  10.425 -0.1799  0.0182  0.1338
 6348W        W10399   6.531   9.774  12.400  0.1585  0.1595 -0.2535
 6349W        W10400   2.458   0.705  12.577 -0.5565  0.0916  0.0082
 6350W        W10401   4.598   0.743  13.524  0.1918 -0.1237  0.1024
 6351W        W10402   8.734   1.137   3.561  0.0506  0.3111  0.4234
 6352W        W10403   3.739   8.255  12.483  0.1186  0.0863 -0.2183
 6353W        W10404   7.737   3.479  12.030  0.0495  0.0571  0.0506
 6354W        W10405   9.758   1.459  10.615  0.3742 -0.0853  0.1575
 6355W        W10406   7.643   6.513   2.134  0.0308 -0.1980 -0.3212
 6356W        W10407   0.602   8.415   4.241  0.2482 -0.0746  0.0079
 6357W        W10408   7.746   7.022  11.965 -0.1058  0.1738  0.1908
 6358W        W10409   8.903   6.715   9.794 -0.3794  0.1633  0.1851
 6359W        W10410   2.914   8.408   2.307  0.0960 -0.0022  0.0536
 6360W        W10411   8.280   8.251   2.759 -0.1826 -0.3384  0.1247
 6361W        W10412   9.305   6.815  10.888 -0.2638  0.3360  0.1844
 6362W        W10413   4.388   7.624  11.564 -0.0004 -0.0677  0.1561
 6363W        W10414   5.862   0.448  13.308 -0.2794 -0.0433  0.1253
 6364W        W10415   1.054   4.637   0.782  0.0409 -0.0748 -0.0072
 6365W        W10416   0.214   2.996  12.938  0.1520  0.0113  0.1874
 6366W        W10417   9.300   2.525   0.369 -0.0007 -0.2614  0.2172
 6367W        W10418   7.054   8.221  11.773 -0.0030 -0.0101 -0.3102
 6368W        W10419   6.213   6.648   2.121  0.0939  0.3537  0.1094
 6369W        W10420   9.167   7.302   1.371 -0.1878 -0.0693 -0.1492
 6370W        W10421   4.744   7.938   5.309 -0.1584 -0.2202  0.1510
 6371W        W10422   0.006   8.828   9.766  0.2787 -0.0848 -0.3869
 6372W        W10423   0.385   4.508  12.922 -0.1176 -0.2115  0.1090
 6373W        W10424   0.616   0.433  13.465  0.1413 -0.1264  0.0069
 6374W        W10425   7.466   8.997   4.282 -0.1204 -0.1910 -0.3373
 6375W        W10426   7.803   7.781   0.825 -0.3383  0.3502  0.1484
 6376W        W10427   3.514   8.064   3.928 -0.1676 -0.1137 -0.1597
 6377W        W10428   7.837   5.168  10.111 -0.0768 -0.1335 -0.0700
 6378W        W10429   0.549   5.521  12.823  0.1533 -0.1815  0.4316
 6379W        W10430   5.131   2.598  10.178 -0.4109 -0.0383  0.3272
 6380W        W10431  10.037   5.958   0.125  0.1682  0.0146  0.4211
 6381W        W10432   4.508   9.696   3.615 -0.1708 -0.0520  0.2849
 6382W        W10433   6.923   1.725  11.201  0.2238 -0.0090  0.1341
 6383W        W10434   8.970   7.628  12.898 -0.2672  0.2716 -0.2304
 6384W        W10435   6.522   8.441   0.852 -0.0922 -0.4430 -0.1259
 6385W        W10436   0.825   5.589  13.252 -0.1183  0.0134  0.0499
 6386W        W10437   7.409   8.296  10.093 -0.2296 -0.3803  0.1329
 6387W        W10438   5.877   0.509   4.832  0.2684  0.2288 -0.0968
 6388W        W10439   2.512   9.691   2.264 -0.3083  0.1633  0.0481
 6389W        W10440   9.810   2.991   0.566 -0.4114  0.1386 -0.0726
 6390W        W10441  10.180   5.798   2.619  0.0112 -0.2100 -0.0022
 6391W        W10442   0.799   2.687   1.109  0.0829  0.1014  0.0799
 6392W        W10443   7.577   1.794  12.231  0.2356  0.0936  0.1952
 6393W        W10444   7.074   5.104  12.484  0.1702 -0.1695 -0.0109
 6394W        W10445   4.203   9.295   9.897  0.0922  0.1291 -0.0397
 6395W        W10446   7.075   9.785   8.741 -0.1117  0.1238  0.2758
 6396W        W10447   7.973   1.583  10.423 -0.1448  0.0431  0.4215
 6397W        W10448   3.171   5.493   1.357 -0.0937  0.1330  0.0029
 6398W        W10449   4.008   3.454   3.358  0.0649  0.0932  0.1918
 6399W        W10450   9.995   9.762   4.184  0.1074 -0.0841  0.2034
 6400W        W10451   0.240   9.621   4.370  0.0130 -0.1326 -0.2578
 6401W        W10452   7.313   0.191   5.301  0.1439  0.4495 -0.2030
 6402W        W10453   9.361   4.161  13.700  0.3154 -0.0417 -0.1164
 6403W        W10454   1.297   5.026  12.490  0.2016  0.5142 -0.3362
 6404W        W10455   2.753   1.921  10.083 -0.3266 -0.0216 -0.1874
 6405W        W10456   8.569   2.103   0.128 -0.0805  0.0474 -0.2423
 6406W        W10457   7.781   2.931  13.008 -0.2569  0.2872  0.3558
 6407W        W10458   1.461   5.663   2.844  0.1904  0.0233  0.0469
 6408W        W10459   4.186   6.359   4.404 -0.0572  0.1679  0.1916
 6409W        W10460   5.699   0.774  10.921  0.2093 -0.0358 -0.0776
 6410W        W10461   7.251   5.696  11.648  0.0933 -0.1788  0.0490
 6411W        W10462   2.669   2.615   4.466  0.0378 -0.1603 -0.1692
 6412W        W10463   2.921   0.029  11.791  0.1783  0.1311  0.0842
 6413W        W10464   1.478   1.495   4.779  0.3157 -0.0936 -0.0175
 6414W        W10465   6.460   7.490   4.918  0.3429  0.0760 -0.2102
 6415W        W10466   9.033   5.651   0.688 -0.1374 -0.0868 -0.1214
 6416W        W10467   1.955   1.375  13.853  0.1912 -0.1128  0.2894
 6417W        W10468   4.674   1.583   1.484 -0.1021  0.1798  0.0703
 6418W        W10469   9.889   8.880  11.414  0.1811 -0.0459 -0.2674
 6419W        W10470   9.656   9.507  12.040  0.0465 -0.1362  0.1357
 6420W        W10471   3.917   1.915   1.246  0.0372 -0.3781 -0.0555
 6421W        W10472   5.587   1.843  10.691  0.0821  0.0991  0.1390
 6422W        W10473   5.882   6.452  13.284  0.0268  0.2615  0.0241
 6423W        W10474   4.721   0.275  10.573 -0.0836 -0.0240 -0.2598
 6424W        W10475   5.810   1.951   2.560 -0.3360  0.2094  0.1881
 6425W        W10476  10.145   9.155   2.863  0.2270 -0.0050  0.2146
 6426W        W10477   3.808   1.606   1.644  0.3293 -0.0844 -0.2053
 6427W        W10478   4.030   9.887  11.881 -0.4655 -0.2175  0.1360
 6428W        W10479   9.787   5.855   1.073  0.1540 -0.0516 -0.1895
 6429W        W10480   7.612   9.352   3.914 -0.1281 -0.0081 -0.0975
 6430W        W10481   1.273   8.136   4.619 -0.1705  0.1892 -0.3279
 6431W        W10482   3.855   1.097   9.577  0.2148  0.0222 -0.0409
 6432W        W10483   3.574   9.907   3.195 -0.0888 -0.2501 -0.2106
 6433W        W10484   6.718   0.262   1.661 -0.0452  0.2388 -0.1178
 6434W        W10485   2.991   1.806   2.182  0.3062 -0.0352 -0.2400
 6435W        W10486   7.666   1.925   2.150 -0.0236 -0.0450  0.0529
 6436W        W10487   6.958   6.613   3.411 -0.0513 -0.0705 -0.0648
 6437W        W10488   3.680   6.334   3.175 -0.1975  0.2080  0.1615
 6438W        W10489   7.310   6.381   1.757  0.1563  0.1643 -0.0708
 6439W        W10490   3.723   3.044   3.107  0.0713 -0.1802 -0.1436
 6440W        W10491   3.691   2.648   1.920  0.0303 -0.4055 -0.1333
 6441W        W10492   9.014   4.673  13.072  0.1538  0.2023  0.1092
 6442W        W10493   5.126   9.331  11.416 -0.0694 -0.0432 -0.0034
 6443W        W10494   7.163   0.274   2.455  0.1388 -0.0579 -0.2750
 6444W        W10495   5.975   8.951  12.480  0.0727  0.3719  0.0641
 6445W        W10496   9.274   8.552  10.805 -0.1935 -0.1461 -0.0707
 6446W        W10497   3.259   8.254   0.649 -0.5553 -0.2271  0.1534
 6447W        W10498   9.325   0.735  11.916  0.0401 -0.3682 -0.2499
 6448W        W10499   3.820   5.006  11.488 -0.2182  0.1180  0.3352
 6449W        W10500   8.483   9.023  13.396  0.4021  0.1806 -0.0826
 6450W        W10501   5.798   8.742   2.377  0.2215 -0.0171  0.0837
 6451W        W10502   0.748   5.102  12.071  0.2760  0.0877 -0.0203
 6452W        W10503   4.048   7.518   5.273 -0.3807 -0.0486  0.4882
 6453W        W10504   2.616   2.286   0.746 -0.1055  0.2878  0.3700
 6454W        W10505   2.184   1.849  11.149  0.2282  0.3814 -0.0557
 6455W        W10506   1.272   5.933   0.508  0.1021  0.0927 -0.0528
 6456W        W10507   1.860   1.732  10.016 -0.1165 -0.0007  0.1588
 6457W        W10508   8.285   0.475  11.541 -0.0360  0.0410  0.2004
 6458W        W10509   1.566   9.424   4.955  0.0481 -0.2535  0.1854
 6459W        W10510   8.027   1.092   0.190 -0.2416  0.0263  0.1208
 6460W        W10511   3.728   5.769  12.372 -0.0958  0.3281  0.2212
 6461W        W10512   8.636   9.707   0.129 -0.0001 -0.2607 -0.1812
 6462W        W10513   8.299   2.804   5.282 -0.2432  0.0279 -0.1363
 6463W        W10514   6.180   9.022   2.469 -0.3980 -0.4561  0.2383
 6464W        W10515   9.021   2.116   0.498 -0.2627  0.1623  0.2414
 6465W        W10516   9.491   9.508   2.501  0.0879 -0.0594  0.0099
 6466W        W10517   5.213   5.110   9.402 -0.0882 -0.2071 -0.0283
 6467W        W10518   0.572   4.760  13.554 -0.1039 -0.4406  0.0262
 6468W        W10519   6.696   7.398   9.430 -0.1498 -0.0959 -0.0949
 6469W        W10520   8.924   6.487   3.343  0.1272  0.3411 -0.1451
 6470W        W10521   4.333   0.402   0.816 -0.2496 -0.1763 -0.0835
 6471W        W10522   5.987   0.092  12.909  0.0611  0.3571  0.2737
 6472W        W10523   3.434   9.586  13.889  0.1363  0.1894 -0.2038
 6473W        W10524   0.440   6.889  12.209  0.1449 -0.0480  0.1929
 6474W        W10525   6.146   3.341  12.300  0.3136  0.0402  0.0530
 6475W        W10526   1.797   4.378  11.865  0.0115  0.0541 -0.1839
 6476W        W10527   1.273   9.336   3.944 -0.2175  0.3679  0.0995
 6477W        W10528   6.095   2.417  10.118 -0.3166  0.3447  0.0252
 6478W        W10529   1.788   6.235  13.783  0.0472  0.0991 -0.1378
 6479W        W10530   5.608   7.249   3.311  0.3915  0.3825 -0.0934
 6480W        W10531   7.072   8.283   1.596  0.0253 -0.2531  0.0510
 6481W        W10532   6.826   3.681   3.369 -0.0022  0.0351 -0.0795
 6482W        W10533   2.123   6.389  12.093  0.1215  0.1237 -0.5383
 6483W        W10534   8.496   2.844   1.127 -0.4417  0.1228 -0.0473
 6484W        W10535   3.275   6.300   1.681 -0.3220  0.0631 -0.0160
 6485W        W10536   6.967   2.810  11.231 -0.0392  0.0508 -0.3133
 6486W        W10537   0.523   7.681   3.084 -0.0574  0.2209  0.0187
 6487W        W10538   3.976   2.020  10.950 -0.0103 -0.0309  0.1298
 6488W        W10539   7.054   1.555   3.011 -0.1353  0.0232 -0.5318
 6489W        W10540   9.134   1.284   4.821 -0.3322 -0.0210 -0.0627
 6490W        W10541   4.917   7.233  13.275 -0.2364 -0.2095  0.2893
 6491W        W10542   7.889   2.542  10.852  0.2711 -0.1748  0.2603
 6492W        W10543   5.917   9.587   4.932 -0.2277 -0.0142 -0.2654
 6493W        W10544   6.469   8.528   1.775 -0.1108 -0.0731  0.1958
 6494W        W10545   2.214   2.306  11.419 -0.0627  0.2060 -0.1260
 6495W        W10546   4.460   7.443   0.404  0.1085 -0.0842 -0.2275
 6496W        W10547   2.139   6.808  12.353  0.0367  0.0059  0.0125
 6497W        W10548   7.386   1.200  13.419 -0.0662  0.1704 -0.0460
 6498W        W10549   8.883   7.791  10.130  0.2152 -0.2500  0.0887
 6499W        W10550   6.041   5.264  11.675  0.0746 -0.1057  0.2076
 6500W        W10551   1.754   2.296   1.027 -0.1379 -0.2785 -0.1349
 6501W        W10552   2.025   3.067  13.071  0.0267  0.2821  0.0120
 6502W        W10553   4.407   0.518   5.025  0.1475  0.1302 -0.0156
 6503W        W10554   6.789   2.049   1.026  0.0194  0.2072 -0.1640
 6504W        W10555   4.330   6.174   0.935 -0.1765  0.0585 -0.1180
 6505W        W10556   3.798   3.964   3.259 -0.1924 -0.0568  0.0183
 6506W        W10557   5.854   9.383  10.292  0.0538  0.3326 -0.1709
 6507W        W10558   6.559  10.070   3.713 -0.1618  0.0063 -0.0210
 6508W        W10559   4.985   5.267  11.647 -0.0419  0.0363  0.4383
 6509W        W10560   1.654   2.632   1.837 -0.0941  0.0402 -0.1734
 6510W        W10561   8.041   1.288   9.990 -0.2543 -0.1849 -0.1127
 6511W        W10562   4.990   8.609   1.688 -0.1350  0.0389  0.0504
 6512W        W10563   6.308   4.459  13.822 -0.1750  0.0374  0.0376
 6513W        W10564   7.742   6.716  13.792 -0.1363  0.2399  0.0429
 6514W        W10565   7.024   8.192  13.578 -0.2007 -0.0000  0.0671
 6515W        W10566   3.307   2.754   2.964  0.0398 -0.0630 -0.2236
 6516W        W10567   4.881   7.208   0.285 -0.0580  0.2326  0.4021
 6517W        W10568   9.872   7.702   4.016  0.1376 -0.0750  0.1375
 6518W        W10569   8.433   9.449  10.229  0.0916 -0.2032  0.2407
 6519W        W10570   9.061   0.596   2.846 -0.0239 -0.0598  0.0153
 6520W        W10571   2.336   8.592   4.556  0.0939 -0.0566 -0.2132
 6521W        W10572   9.745   5.572   0.110 -0.0067  0.3412  0.2481
 6522W        W10573   8.290   5.758   9.220  0.0580  0.2886  0.2681
 6523W        W10574   7.713  10.070  11.926 -0.0088 -0.0935 -0.0327
 6524W        W10575   2.769   9.381   4.564 -0.0362 -0.1678  0.3775
 6525W        W10576   6.194   0.595   4.189 -0.1655  0.1614 -0.2884
 6526W        W10577   3.583   8.933  10.397  0.2900 -0.1165 -0.1300
 6527W        W10578   1.164   0.560  12.688 -0.0893 -0.2671 -0.0946
 6528W        W10579   0.808   2.757  11.049 -0.0051 -0.1252 -0.2313
 6529W        W10580   9.850   4.863   3.385  0.0395  0.0288  0.5041
 6530W        W10581   9.925   8.701   0.106 -0.0541  0.1797  0.0394
 6531W        W10582   8.543   9.460   2.066  0.1916  0.2443 -0.0395
 6532W        W10583   5.927   0.318   1.217  0.0769  0.2731  0.5137
 6533W        W10584   9.756   4.233   3.556  0.3502  0.0507  0.0875
 6534W        W10585   8.886   3.148  11.574 -0.3019  0.1797  0.0542
 6535W        W10586   4.174   3.468   1.490 -0.2884 -0.0436  0.1241
 6536W        W10587   8.428   6.303  13.048  0.0655 -0.0821  0.1028
 6537W        W10588   2.197   8.304   3.045 -0.0512  0.0189 -0.1216
 6538W        W10589   1.826   1.355   2.176  0.0699  0.0111 -0.4043
 6539W        W10590   1.989   3.474   2.034  0.3525 -0.2117  0.0279
 6540W        W10591  10.160   7.358   0.781 -0.0481 -0.0432 -0.1731
 6541W        W10592  10.053   3.207  10.686  0.2469 -0.0436  0.0946
 6542W        W10593   9.913   6.126   2.400 -0.1040 -0.0350  0.0512
 6543W        W10594   0.427   6.871  10.925  0.1416  0.0126 -0.1146
 6544W        W10595   3.831   3.119  12.774 -0.0487  0.2539  0.1432
 6545W        W10596   7.610   1.532   3.911  0.1599 -0.2286  0.1176
 6546W        W10597   6.060   6.122  13.725  0.2589  0.2476 -0.3972
 6547W        W10598   9.735   1.644  12.369  0.0050  0.2839  0.2489
 6548W        W10599   7.697   8.868  11.896  0.3086  0.0840  0.0154
 6549W        W10600   2.768   9.480  13.200 -0.0855  0.1238  0.0380
 6550W        W10601   7.722   9.124   0.716  0.2278 -0.1457 -0.2173
 6551W        W10602   6.498   7.937   4.711 -0.0831 -0.1907  0.0976
 6552W        W10603   9.593   4.545  13.904 -0.2456 -0.2553  0.2349
 6553W        W10604   0.823   7.332  13.689  0.2585 -0.4395  0.2898
 6554W        W10605   3.831   2.836   2.606 -0.1993 -0.1074  0.3066
 6555W        W10606   8.908   0.522   0.913 -0.0022 -0.3154 -0.2901
 6556W        W10607   4.280   7.562  10.068 -0.0647 -0.0791 -0.1553
 6557W        W10608   9.293   5.519   4.091  0.0020  0.2983 -0.1685
 6558W        W10609   3.203   1.070  12.582 -0.0153 -0.0184  0.3918
 6559W        W10610   6.909   2.417   4.339 -0.0314 -0.1259  0.2712
 6560W        W10611   5.915   7.919  13.446  0.1229 -0.0908  0.0728
 6561W        W10612   2.557   6.406   0.801 -0.1314 -0.1149 -0.0580
 6562W        W10613   5.710   4.404   4.833 -0.0333 -0.0827  0.3408
 6563W        W10614   7.034   8.701  10.114 -0.0079 -0.2930 -0.0889
 6564W        W10615   1.787   8.550   9.386  0.0092 -0.3040 -0.0920
 6565W        W10616   5.615   4.955   2.330 -0.3782  0.2180  0.1290
 6566W        W10617   7.549   5.652  10.150 -0.0866  0.0125  0.1876
 6567W        W10618   7.616   6.187  13.912 -0.2190  0.2072 -0.4139
 6568W        W10619   6.941   8.284   2.595 -0.3217  0.0084  0.1422
 6569W        W10620   3.352   9.852  13.075 -0.1890 -0.1763  0.1892
 6570W        W10621   4.764   9.866   1.412  0.4593  0.3708  0.0311
 6571W        W10622   5.402   7.328   1.122 -0.0132  0.2559 -0.0581
 6572W        W10623   2.762   3.851  10.508  0.1144 -0.0280  0.0366
 6573W        W10624   4.707   2.130  10.259 -0.0915 -0.0719 -0.1124
 6574W        W10625   7.135   6.019   2.762  0.0027  0.2303  0.2163
 6575W        W10626   2.198   8.189  10.294  0.1873  0.4289 -0.1028
 6576W        W10627   6.505   0.938  10.962  0.0082  0.3393 -0.0988
 6577W        W10628   6.036   5.003   0.590  0.1674 -0.0399 -0.0678
 6578W        W10629   4.450   9.580   0.393 -0.0402 -0.0670 -0.0927
 6579W        W10630   8.560   7.796   9.578 -0.1278  0.3361 -0.3458
 6580W        W10631   1.509   1.821   2.684 -0.1816 -0.1008  0.1920
 6581W        W10632   8.572   2.542   2.160  0.0433 -0.3380 -0.2095
 6582W        W10633   0.375   3.976   1.493 -0.1200 -0.0326  0.4507
 6583W        W10634   3.310   7.523   1.945 -0.0464  0.0461  0.2233
 6584W        W10635   5.170   6.364  10.617  0.0750 -0.0213  0.1653
 6585W        W10636   1.324   3.790  10.222  0.1177  0.3605  0.2731
 6586W        W10637   2.982   8.486   9.965 -0.1529 -0.1709 -0.0540
 6587W        W10638   6.422   9.145   4.037  0.4372  0.0832 -0.2661
 6588W        W10639   6.472   3.252   5.287 -0.0403 -0.0529  0.2442
 6589W        W10640   4.097  10.029   3.655  0.0518  0.2619 -0.0860
 6590W        W10641   8.679   4.440  12.705  0.1869  0.0496 -0.1102
 6591W        W10642   6.357   2.076   1.883 -0.2794 -0.1100 -0.2141
 6592W        W10643   8.094   4.323  13.672 -0.3372  0.0168 -0.2506
 6593W        W10644   9.252   5.715   8.568  0.1576 -0.1984 -0.3953
 6594W        W10645   7.979   3.552  10.502 -0.0625 -0.1550  0.0998
 6595W        W10646   4.683   0.156  11.763 -0.3095 -0.1591 -0.0578
 6596W        W10647   5.985   0.228   2.073  0.1562 -0.0124 -0.3033
 6597W        W10648   8.576   9.347   1.568  0.1605 -0.1276 -0.2693
 6598W        W10649   5.425   3.771   1.483 -0.0183  0.0071 -0.3224
 6599W        W10650   6.651   7.912   9.345 -0.3015 -0.1471  0.2567
 6600W        W10651   8.085   1.403   2.396 -0.0769 -0.1418 -0.2074
 6601W        W10652   8.044   9.020   8.294  0.4001  0.2412  0.4003
 6602W        W10653   5.940   6.977   2.479  0.3262  0.0986  0.2048
 6603W        W10654   0.512   0.950  10.713 -0.0385  0.2018  0.1919
 6604W        W10655   6.874   8.231   0.118 -0.2048  0.0312  0.1185
 6605W        W10656   8.265   7.537  12.062  0.1960 -0.0399 -0.0884
 6606W        W10657   9.576   2.360  13.653 -0.0672 -0.0708 -0.1183
 6607W        W10658   9.357   5.025  11.779  0.0794 -0.3177  0.0780
 6608W        W10659   9.367   4.590   1.527  0.1356 -0.2863 -0.0793
 6609W        W10660   9.647   7.842   2.623 -0.4525 -0.3251  0.0484
 6610W        W10661   7.158   4.439  10.025  0.2361 -0.0824  0.1532
 6611W        W10662   3.923   4.318  13.711 -0.2282  0.0561 -0.0294
 6612W        W10663   4.320   9.677  10.255 -0.2600  0.1100 -0.1984
 6613W        W10664   9.444   0.367  12.219 -0.1283  0.1535  0.0388
 6614W        W10665   8.141   3.953   1.410 -0.1153  0.0010 -0.2233
 6615W        W10666   0.167   3.499   1.467  0.2636 -0.1219 -0.1758
 6616W        W10667   6.210   0.522   0.056  0.1338  0.2975 -0.3287
 6617W        W10668   0.706   4.341  13.273 -0.0415  0.2445  0.0882
 6618W        W10669   8.195   3.332   4.646 -0.0765  0.0660 -0.2359
 6619W        W10670   4.754   8.527   2.522 -0.0996  0.1088  0.0363
 6620W        W10671   2.056   9.170   0.705  0.1505  0.0069 -0.0861
 6621W        W10672   8.460   2.850   3.454  0.1971 -0.0814  0.2584
 6622W        W10673   8.406   5.005   2.916  0.0813 -0.0684  0.0885
 6623W        W10674   7.733   7.767  11.246 -0.0580  0.1179 -0.0297
 6624W        W10675   5.357   5.675   2.590  0.1578  0.0592 -0.0572
 6625W        W10676   8.791   1.797  11.877 -0.2079  0.1123  0.2201
 6626W        W10677   3.453   7.573   3.963 -0.3305 -0.0166 -0.0102
 6627W        W10678   1.610   2.108  13.514  0.1084  0.1895  0.3365
 6628W        W10679   7.417   2.415   4.132  0.1156 -0.3018 -0.4646
 6629W        W10680   7.480   5.807   3.392 -0.1568 -0.1334  0.1660
 6630W        W10681   1.997   7.497  11.605  0.0541  0.0087  0.1705
 6631W        W10682   7.165   0.343   9.347 -0.0301 -0.0197  0.0264
 6632W        W10683   9.333   7.086   0.182  0.0585  0.2789  0.1516
 6633W        W10684   6.776   0.453   0.861 -0.2590 -0.0019 -0.3032
 6634W        W10685   5.444  10.141   0.219 -0.2339  0.2501  0.4373
 6635W        W10686   2.336   1.660   9.936 -0.2412 -0.1109  0.1863
 6636W        W10687   1.377   1.385   1.201 -0.0632  0.1084  0.1171
 6637W        W10688   1.609   0.577  10.656  0.1890  0.0766 -0.2773
 6638W        W10689   5.373   0.721   9.235  0.2582  0.1321  0.0594
 6639W        W10690   1.636   1.548   0.777 -0.2021  0.1222 -0.0008
 6640W        W10691   5.063   0.049  10.270  0.5705  0.1769 -0.0411
 6641W        W10692   2.558   5.800  10.840 -0.2368 -0.2011 -0.2371
 6642W        W10693   9.384   2.576   4.209  0.0423  0.4320 -0.1333
 6643W        W10694   2.962   7.354   4.208  0.0734  0.2704  0.1403
 6644W        W10695   4.164   5.106   2.677  0.0473  0.3065 -0.0334
 6645W        W10696   3.236   5.156  11.190 -0.0464  0.1351 -0.3231
 6646W        W10697   7.523   5.892   0.970  0.2020 -0.1989  0.3247
 6647W        W10698   1.094   9.415  12.295 -0.2010  0.1584 -0.1229
 6648W        W10699   5.917   2.765   2.645  0.2607  0.1117 -0.0309
 6649W        W10700   0.397   0.157   2.220  0.0086 -0.0299  0.3103
 6650W        W10701   3.960   9.301  10.399 -0.0836 -0.0642 -0.2189
 6651W        W10702   4.507  10.174   0.086  0.2372  0.0510 -0.1221
 6652W        W10703   2.432   3.901   0.613  0.0168 -0.0849  0.3198
 6653W        W10704   1.970   0.023  12.635 -0.4570 -0.2280  0.2538
 6654W        W10705   3.882   1.512  10.395  0.2014  0.0653 -0.1437
 6655W        W10706   2.409  10.151  12.891  0.2667  0.2530  0.1403
 6656W        W10707   3.330   2.043   3.310  0.0114 -0.0928  0.1131
 6657W        W10708   9.219   1.586  11.554  0.0567  0.1025  0.0060
 6658W        W10709   7.474   9.385   8.925  0.1535  0.1446 -0.1775
 6659W        W10710   2.736   6.295   1.566 -0.0588  0.2083  0.0896
 6660W        W10711   2.693   8.369  10.383 -0.1523  0.1156 -0.0926
 6661W        W10712   6.223   5.773   0.116  0.0348 -0.1317 -0.0420
 6662W        W10713   5.351   6.198  10.053 -0.1343 -0.4073 -0.1416
 6663W        W10714   6.492   9.315  10.425  0.3306 -0.1866 -0.1580
 6664W        W10715   9.909   6.862   0.602  0.0502  0.3008 -0.0368
 6665W        W10716   1.641   2.710  13.086 -0.3883 -0.0128 -0.2095
 6666W        W10717   7.789   4.557   2.087  0.0316 -0.4075 -0.1071
 6667W        W10718   4.214   9.890  12.789 -0.1810 -0.0529  0.0336
 6668W        W10719   7.367   7.695   9.870  0.1261 -0.4037 -0.4903
 6669W        W10720   0.409  10.018   0.124 -0.3184 -0.5374 -0.3571
 6670W        W10721  10.152   1.311   9.295  0.0113  0.0912  0.1852
 6671W        W10722   8.746   2.040   4.612  0.0837  0.0965  0.1559
 6672W        W10723   7.380   0.961   4.343  0.1070  0.0309 -0.1907
 6673W        W10724   9.828   4.391   4.518 -0.0330  0.1922 -0.0172
 6674W        W10725   7.166   9.293   0.511  0.1408  0.1534  0.2820
 6675W        W10726   8.369   3.487   1.067  0.0838 -0.0640 -0.0259
 6676W        W10727   1.549   2.213   3.181 -0.1924  0.0269  0.2215
 6677W        W10728   8.469   4.253   0.575 -0.2369  0.2566 -0.0465
 6678W        W10729   6.697   4.236  10.064 -0.2948 -0.0499 -0.1393
 6679W        W10730   1.557   0.916   1.424  0.1364 -0.1675  0.1416
 6680W        W10731   3.868   8.578  11.302  0.1308 -0.2738 -0.0677
 6681W        W10732   3.855   8.441   0.668 -0.2595  0.1808 -0.2286
 6682W        W10733   8.575   8.532   1.646 -0.1589  0.1283  0.1111
 6683W        W10734   4.623   9.355  11.344  0.2878  0.1632 -0.2185
 6684W        W10735   5.312   3.987   0.830 -0.2210 -0.3796  0.0926
 6685W        W10736   1.475   1.984   4.429 -0.1641 -0.0683 -0.0146
 6686W        W10737   0.755   0.128  11.315  0.0717 -0.0235  0.0369
 6687W        W10738   9.367   1.835   0.901 -0.1924 -0.0472 -0.1060
 6688W        W10739   5.867   6.697  11.509  0.1710 -0.0275 -0.0166
 6689W        W10740   5.089   2.860   1.223 -0.2399 -0.0430 -0.3032
 6690W        W10741   7.691   5.026   1.858  0.0921 -0.2589 -0.2405
 6691W        W10742   9.227   1.989   1.340  0.1150 -0.0192  0.2749
 6692W        W10743   0.577   5.921  12.487 -0.1822  0.3875  0.1083
 6693W        W10744   4.614   1.052  13.916  0.0102 -0.0729  0.1586
 6694W        W10745   0.282   7.769   0.745 -0.2732 -0.0392 -0.0738
 6695W        W10746   6.875   2.575  12.342  0.0389  0.0970  0.4364
 6696W        W10747   3.098   7.591  12.089  0.0845  0.0952  0.2782
 6697W        W10748   1.745   8.693  11.694 -0.1598 -0.2058  0.1310
 6698W        W10749   9.251   3.859   9.637 -0.0830  0.0145  0.3220
 6699W        W10750   5.606   6.942   3.964 -0.0517  0.1580 -0.2189
 6700W        W10751   2.881   3.746  11.591  0.4614  0.0110  0.2128
 6701W        W10752   7.597   7.592   4.177 -0.0693 -0.1378  0.0845
 6702W        W10753   7.987   2.833  13.909 -0.0180  0.2310 -0.2571
 6703W        W10754   2.292   6.688   1.686 -0.1777 -0.2155  0.2201
 6704W        W10755   3.459   9.209  12.198 -0.0024 -0.1757 -0.2185
 6705W        W10756   9.386   2.505   5.303  0.3118  0.1804 -0.1700
 6706W        W10757   4.302   2.040  12.503  0.0855  0.3358 -0.2268
 6707W        W10758   9.329   0.030  13.520 -0.1696 -0.0628  0.0578
 6708W        W10759   0.299   1.232  11.677  0.0174 -0.2374 -0.0340
 6709W        W10760   1.016   1.888  10.070  0.0289 -0.0046  0.2426
 6710W        W10761   8.530   3.396  13.793  0.0064  0.3082 -0.2511
 6711W        W10762   8.264   4.005   0.963  0.0270  0.3736  0.3015
 6712W        W10763   5.128   1.219   3.274 -0.3426  0.2004 -0.1334
 6713W        W10764   9.197   5.684   9.065 -0.0246  0.0712 -0.0816
 6714W        W10765   5.211   0.898  11.596 -0.0397 -0.0029  0.0755
 6715W        W10766   8.189   1.690   4.978  0.0005  0.6246 -0.0295
 6716W        W10767   8.821   4.644  11.017  0.1191 -0.0039 -0.1759
 6717W        W10768   9.360   5.634   1.572  0.2550 -0.2714 -0.1038
 6718W        W10769   0.604   1.039  13.859 -0.0086 -0.1223  0.0025
 6719W        W10770   6.983   4.581   2.393 -0.3304  0.3792 -0.0054
 6720W        W10771   4.175   2.995  10.869 -0.1763 -0.0475 -0.0942
 6721W        W10772   4.780   0.971   8.698  0.2840 -0.1720 -0.0137
 6722W        W10773   4.361   0.460  11.572  0.0412 -0.0360 -0.0853
 6723W        W10774   2.487   1.212   3.219 -0.1814 -0.0605  0.0299
 6724W        W10775   8.806   1.774  10.511  0.0700  0.1436  0.0101
 6725W        W10776   7.343   5.525   9.467  0.0243  0.1538 -0.3749
 6726W        W10777   9.339   7.327   2.451 -0.4173  0.2528 -0.1081
 6727W        W10778   6.770   0.035   1.153  0.1539 -0.0658 -0.2080
 6728W        W10779   8.993   6.941   4.360  0.1110 -0.0147  0.1427
 6729W        W10780   8.923   5.783  12.402  0.2732 -0.4471 -0.0870
 6730W        W10781   0.303   1.026   2.551  0.2774 -0.3259  0.0167
 6731W        W10782   4.594   9.213   9.573  0.1156  0.2867  0.2394
 6732W        W10783   6.315   7.575  13.538  0.2417  0.1920  0.2842
 6733W        W10784   5.136   0.743   3.042 -0.0909 -0.0561  0.0024
 6734W        W10785   7.631   7.171   3.034  0.1638 -0.4257  0.4291
 6735W        W10786   7.595   8.095   3.926 -0.0734 -0.0190 -0.3215
 6736W        W10787   6.916   7.033  10.293  0.0229  0.1421 -0.0707
 6737W        W10788   9.300   4.071  11.341 -0.1146  0.1942 -0.3046
 6738W        W10789   9.125   2.839  13.388 -0.0859 -0.2090 -0.0475
 6739W        W10790   2.528   3.131   2.657  0.1849  0.1355 -0.1879
 6740W        W10791   5.957   2.939  13.379 -0.1740 -0.2187  0.0928
 6741W        W10792   6.526   2.109   4.441 -0.0110 -0.1609  0.1297
 6742W        W10793   9.976   9.018  12.699 -0.0903  0.3859  0.0628
 6743W        W10794   5.822   7.776   8.439 -0.0791  0.0022 -0.3325
 6744W        W10795   0.119   9.236   1.992 -0.0586 -0.0732  0.0471
 6745W        W10796   6.466   8.789   2.804 -0.0713 -0.0047  0.0959
 6746W        W10797   2.387   7.340  13.098 -0.0605  0.1013 -0.0812
 6747W        W10798   8.552   2.950   4.873 -0.6142 -0.1217 -0.1823
 6748W        W10799   4.232   7.974   4.477  0.0419 -0.2473  0.0713
 6749W        W10800   3.080   2.441   0.516  0.1503  0.0010  0.2337
 6750W        W10801   6.728   1.842   4.005 -0.0465  0.1280 -0.0372
 6751W        W10802   3.696   5.430  13.321  0.2153  0.0385 -0.2953
 6752W        W10803   6.347   9.270   9.606  0.0616 -0.0620  0.1860
 6753W        W10804   0.519   5.569  13.664 -0.3824  0.3309  0.0659
 6754W        W10805   8.921   5.508   1.745  0.0678 -0.0159 -0.2045
 6755W        W10806   5.530   3.047  10.655 -0.3184  0.2276  0.2129
 6756W        W10807   7.833   8.897   3.980 -0.1995 -0.2321  0.0426
 6757W        W10808   1.024   0.616  13.134  0.0847 -0.1506 -0.1637
 6758W        W10809   0.957   9.901   1.128  0.2180 -0.0846  0.4460
 6759W        W10810   2.133   6.158  10.105  0.0186  0.0632  0.1438
 6760W        W10811  10.123   7.370  11.392  0.1280  0.0776  0.0460
 6761W        W10812   9.754   3.367  13.083  0.0521 -0.1342 -0.0486
 6762W        W10813   1.958   6.893  10.371  0.2288  0.1064  0.2359
 6763W        W10814   0.696   9.498   0.122 -0.2238  0.0694 -0.0575
 6764W        W10815   4.449   0.090   3.994  0.1045 -0.3963 -0.1192
 6765W        W10816   2.655   5.761  12.759  0.3666 -0.0682 -0.2479
 6766W        W10817   5.011   8.246   2.168  0.0512 -0.0603  0.1511
 6767W        W10818   6.610   4.408  13.045 -0.0666 -0.3100  0.2306
 6768W        W10819   6.566   3.712  13.834  0.1474 -0.0592 -0.0181
 6769W        W10820   6.731   5.356  13.307 -0.4776  0.2273  0.0030
 6770W        W10821   5.977   6.482   1.313 -0.1477  0.1252 -0.0906
 6771W        W10822   6.665   0.865   2.575  0.2057 -0.3662  0.0274
 6772W        W10823   1.683   9.192   9.834 -0.3125 -0.0896  0.0879
 6773W        W10824   5.357   9.109  11.025 -0.1372  0.1426 -0.0691
 6774W        W10825   2.866   8.846   4.671  0.2068  0.0714  0.0499
 6775W        W10826   8.898   5.761   3.885 -0.2787 -0.0545 -0.2243
 6776W        W10827   8.675   3.264   1.948 -0.1111  0.0030 -0.1464
 6777W        W10828   8.271   7.249   1.774  0.0264  0.1066 -0.1892
 6778W        W10829   5.088  10.130  12.598 -0.2734  0.1427  0.1747
 6779W        W10830   4.117   8.794  11.702 -0.3781 -0.1150 -0.3389
 6780W        W10831   5.808   7.019   4.444 -0.0534  0.1464 -0.2166
 6781W        W10832   4.288   8.769  10.126  0.3334  0.1768  0.0405
 6782W        W10833   9.974   7.411   9.995 -0.3357  0.0557 -0.3594
 6783W        W10834  10.183   5.593  11.433  0.1543  0.2067  0.2002
 6784W        W10835   9.454   2.517  12.016  0.2813  0.2748  0.0978
 6785W        W10836   4.514   3.915   0.043  0.0533  0.1434 -0.0881
 6786W        W10837   9.407   1.574   0.287 -0.0036 -0.2321 -0.0541
 6787W        W10838   8.053   3.024  10.501 -0.3485 -0.2209  0.0303
 6788W        W10839   0.733   1.410   9.974 -0.0163 -0.2543 -0.3460
 6789W        W10840   1.180   2.970   0.111  0.2007 -0.0515  0.1609
 6790W        W10841   3.519   8.081   1.111 -0.1607  0.2414  0.1319
 6791W        W10842   5.884   8.216   9.429 -0.1570 -0.0676  0.0325
 6792W        W10843   1.628   4.988   2.689  0.1353 -0.2504 -0.1627
 6793W        W10844   4.366   5.064  13.316 -0.2596  0.3675 -0.1790
 6794W        W10845   1.023   4.161  12.416 -0.0917  0.0865  0.2760
 6795W        W10846   2.138   9.046   0.124 -0.2227 -0.3215  0.1236
 6796W        W10847   9.457   9.661   3.369 -0.2121 -0.1302 -0.0235
 6797W        W10848   9.055   3.294  10.745 -0.1149 -0.2450  0.3149
 6798W        W10849   5.648   4.891  10.094  0.0554  0.1323 -0.5201
 6799W        W10850   0.595   0.324   9.464 -0.2280  0.0606 -0.0065
 6800W        W10851   8.829   3.767   9.320  0.2094 -0.1257  0.1637
 6801W        W10852   3.011   7.015  11.396 -0.0469 -0.1750 -0.0707
 6802W        W10853   8.423   8.826   0.422  0.2352 -0.1045  0.1032
 6803W        W10854   8.202  10.166   9.869 -0.1786  0.1260 -0.2397
 6804W        W10855   4.944   3.048  11.708 -0.0642  0.4371  0.3051
 6805W        W10856   3.325   0.023   9.169  0.2240 -0.1692  0.3844
 6806W        W10857   4.545   5.979  13.433  0.3530  0.0859 -0.2514
 6807W        W10858   4.086   8.829  13.658  0.3611 -0.1163  0.0690
 6808W        W10859   2.321   6.111  13.547  0.2755  0.1314 -0.0289
 6809W        W10860   2.374   4.718   2.257 -0.1305  0.0332 -0.2985
 6810W        W10861   1.202   5.321   1.968 -0.0152 -0.3107 -0.2260
 6811W        W10862   0.777   7.792  13.490 -0.2599 -0.5926 -0.0969
 6812W        W10863   8.321   9.695   9.731 -0.4499  0.0017  0.0279
 6813W        W10864   2.438   9.053   4.371  0.0104  0.1653  0.2517
 6814W        W10865   0.855   7.260   9.164  0.0771 -0.2504 -0.0962
 6815W        W10866   1.710   8.033   9.471 -0.4644  0.0127 -0.0240
 6816W        W10867   8.109   2.566   4.811 -0.0614 -0.0276  0.0037
 6817W        W10868   3.382   1.200  11.416  0.0723  0.0489  0.2222
 6818W        W10869   0.031   2.853  13.435 -0.0509  0.0622  0.0042
 6819W        W10870   9.493   1.558  12.959 -0.1063 -0.0692  0.1185
 6820W        W10871   3.489   1.525   9.788  0.2082 -0.0563  0.0121
 6821W        W10872   9.748   7.218  13.802 -0.2056  0.0378  0.2432
 6822W        W10873   6.007   3.047  12.782  0.0621 -0.2096 -0.2028
 6823W        W10874   5.937   2.409   3.968  0.3086  0.1321  0.1675
 6824W        W10875   9.239   6.262  12.347 -0.0724  0.2328 -0.0273
 6825W        W10876   4.361   4.201   2.547  0.1404 -0.0596  0.1517
 6826W        W10877   7.377   8.367  11.372 -0.1354 -0.5120 -0.2580
 6827W        W10878   3.553   8.694  13.817 -0.1421  0.2325  0.2625
 6828W        W10879   0.222   4.192   1.004 -0.3788  0.2273  0.2767
 6829W        W10880   5.851   9.154  10.999  0.1610  0.2053 -0.0109
 6830W        W10881  10.016   4.082   1.376 -0.0586 -0.2422  0.0148
 6831W        W10882   8.544   3.037   4.075 -0.1695 -0.2749 -0.3350
 6832W        W10883   9.727  10.179   3.807 -0.2757  0.1840  0.2588
 6833W        W10884   0.275   5.165  11.843 -0.0890 -0.0645 -0.0725
 6834W        W10885   4.405   2.190   3.153  0.5114  0.0845 -0.2816
 6835W        W10886   1.117   0.183  13.484 -0.0837 -0.1046  0.0571
 6836W        W10887   7.775   3.669   4.547 -0.0212 -0.0262 -0.0466
 6837W        W10888   0.031   1.390   0.010 -0.0180  0.0161 -0.2519
 6838W        W10889   1.937   6.296   3.688 -0.2214 -0.1754 -0.1883
 6839W        W10890   6.106   8.584   9.128  0.2726  0.0618  0.1409
 6840W        W10891   9.012   2.246  11.719  0.1202 -0.1225  0.0806
 6841W        W10892   7.798   5.132   9.586  0.5024 -0.0264  0.2196
 6842W        W10893   7.184   7.997  12.570 -0.1391  0.3557  0.0397
 6843W        W10894   0.326   9.304   2.445 -0.0741 -0.2390  0.0037
 6844W        W10895   9.652   9.751   9.417  0.1234  0.1012 -0.0696
 6845W        W10896   9.587   9.506   4.309  0.0854 -0.0114 -0.0306
 6846W        W10897   6.811   9.726   0.484  0.0090 -0.3451  0.4685
 6847W        W10898   3.246   1.536  13.306  0.5605  0.2119  0.2449
 6848W        W10899   3.871   6.566   2.462 -0.1907  0.0756 -0.1772
 6849W        W10900   2.464   5.934  12.264 -0.5085 -0.0010  0.4221
 6850W        W10901   5.497   9.673   2.519  0.2512  0.2960  0.0739
 6851W        W10902   5.717   8.649  11.308 -0.1793 -0.1933  0.1234
 6852W        W10903   5.298   6.785  10.933  0.2755 -0.0342 -0.0581
 6853W        W10904   7.740   7.200   9.344 -0.0485  0.0342  0.4708
 6854W        W10905   1.268   2.518  11.112  0.1658 -0.2395 -0.1820
 6855W        W10906   8.102   1.723   9.844  0.1578  0.3255  0.1361
 6856W        W10907   8.430   9.344  11.633  0.2657  0.0905 -0.1677
 6857W        W10908   1.519   7.482   0.601 -0.0882 -0.1439 -0.0891
 6858W        W10909   6.751   6.444   9.526 -0.0102  0.1862 -0.0086
 6859W        W10910   8.624   8.768  10.797  0.3337 -0.0736 -0.0546
 6860W        W10911   9.298   0.975   1.280 -0.1149  0.1092  0.0864
 6861W        W10912   3.311   2.567  10.935  0.1911 -0.1228 -0.0941
 6862W        W10913   0.121   7.805  10.784  0.1301  0.0858 -0.0805
 6863W        W10914   4.970   5.049   3.652 -0.0835 -0.0847  0.1797
 6864W        W10915   5.533   6.510   1.014  0.1732  0.1497 -0.0494
 6865W        W10916   1.892   1.174   3.995  0.1548  0.1578  0.3435
 6866W        W10917   6.006   0.218   3.932  0.2832  0.0352 -0.0905
 6867W        W10918   6.652   2.492   1.121  0.0222 -0.0461  0.4840
 6868W        W10919   9.314   4.632  11.320  0.3036  0.1261 -0.2494
 6869W        W10920   1.418   8.996   8.814 -0.2469  0.2115  0.3564
 6870W        W10921   7.046   1.149  12.044 -0.1632  0.1705 -0.0093
 6871W        W10922   6.074   0.211   9.266  0.1290  0.2304  0.0512
 6872W        W10923  10.105   6.867  13.968  0.4059  0.1135 -0.0551
 6873W        W10924   0.976   1.531  12.072 -0.1795  0.0702  0.0610
 6874W        W10925   2.251   9.573   9.954  0.0036  0.0588 -0.1505
 6875W        W10926   8.431   6.847  13.963 -0.2670 -0.0496  0.0879
 6876W        W10927   1.602   3.173   1.533 -0.1633  0.0243 -0.0212
 6877W        W10928   4.787   3.256   1.358 -0.1451  0.1919  0.0584
 6878W        W10929   9.786   8.435   9.180 -0.1562  0.3665  0.3583
 6879W        W10930   8.104   8.050  11.398  0.0244 -0.0982  0.2143
 6880W        W10931   2.579   5.570  13.816  0.1733 -0.2726 -0.0619
 6881W        W10932   1.733  10.132   5.402 -0.1566 -0.0681  0.2161
 6882W        W10933   4.327   7.120  11.813  0.0524  0.1972 -0.0024
 6883W        W10934   0.992   1.864  13.400  0.0549  0.0819  0.0038
 6884W        W10935   3.078   7.921   2.245  0.1495  0.2019  0.1521
 6885W        W10936   6.085   7.485  12.442 -0.5941 -0.2261 -0.2129
 6886W        W10937   3.009   8.200  10.728 -0.3085 -0.0735  0.1818
 6887W        W10938   4.184   7.185   0.788 -0.1256 -0.1074  0.2153
 6888W        W10939   1.927   1.357   3.470 -0.0016 -0.1082  0.1501
 6889W        W10940   4.271   5.145   0.990  0.1206 -0.0043 -0.1897
 6890W        W10941   8.679   8.459   4.027  0.2874 -0.1093  0.2222
 6891W        W10942   1.374   1.675  13.689  0.0815 -0.2969 -0.1311
 6892W        W10943   4.066   4.273   0.905  0.0144  0.2246 -0.1475
 6893W        W10944   6.112   9.689   1.460  0.0194  0.0982 -0.1314
 6894W        W10945   8.400   4.762   1.599  0.0245  0.1540 -0.0083
 6895W        W10946   2.190   9.935   5.433  0.0945 -0.1442  0.0006
 6896W        W10947   8.740   7.541   4.468  0.1952 -0.0697 -0.0791
 6897W        W10948   3.599   1.202  10.145  0.1282  0.1046  0.1189
 6898W        W10949   7.996   6.610   4.715 -0.1038  0.0380 -0.0563
 6899W        W10950  10.107   4.139   9.782 -0.1840  0.0050  0.0781
 6900W        W10951   0.627   8.710  13.854 -0.0415  0.1455  0.1630
 6901W        W10952   5.541   5.489   3.073 -0.2283 -0.0801  0.1786
 6902W        W10953   4.821   7.248   2.122 -0.1599 -0.0412 -0.1573
 6903W        W10954   3.077   7.579  10.478 -0.2517 -0.0403 -0.2738
 6904W        W10955   9.337   1.815   9.282 -0.0324 -0.1096 -0.1075
 6905W        W10956   9.458   5.314   1.930 -0.2699 -0.0019 -0.0909
 6906W        W10957   9.975   5.679  10.992  0.0237  0.1208 -0.2122
 6907W        W10958   0.205   9.783   5.933 -0.2449  0.2640 -0.3372
 6908W        W10959   0.799   0.414  12.399 -0.3599 -0.1645 -0.3414
 6909W        W10960   6.271   9.671   3.210  0.3071  0.4612 -0.0730
 6910W        W10961   0.244   5.355   2.600  0.0097 -0.1978  0.1302
 6911W        W10962   6.677   7.512   5.364  0.1985  0.0389  0.0669
 6912W        W10963   9.679   3.360  11.854 -0.2241 -0.0376 -0.1892
 6913W        W10964   9.148   1.524   2.285  0.0006 -0.1393  0.0250
 6914W        W10965   9.334   0.782  10.592 -0.0190 -0.1750 -0.1973
 6915W        W10966   2.502   0.532   0.750 -0.0305  0.1719  0.2735
 6916W        W10967   0.123   9.397  13.569  0.2049 -0.1109 -0.2127
 6917W        W10968   8.066   1.106   9.541 -0.0007 -0.1259  0.1565
 6918W        W10969   3.643   3.013   0.133 -0.1524  0.0230  0.2082
 6919W        W10970   5.894   8.213  11.181  0.0247  0.1360  0.1861
 6920W        W10971   7.816   7.432   2.627 -0.3586  0.1111 -0.0229
 6921W        W10972   5.721   6.825   2.044  0.0597  0.6223  0.3553
 6922W        W10973   3.439   6.191  13.670  0.0333 -0.0318 -0.0692
 6923W        W10974   3.961   8.724   0.166  0.2898  0.0325  0.1256
 6924W        W10975   3.102   6.156   2.128 -0.0638  0.1888 -0.1354
 6925W        W10976   3.936   1.939   3.105  0.2341 -0.2638 -0.1253
 6926W        W10977   0.250   1.756   1.788 -0.0307 -0.0415  0.3871
 6927W        W10978   1.768   4.458  10.867  0.2820 -0.2329  0.0726
 6928W        W10979   7.933   8.955   9.588 -0.1390  0.5719  0.2026
 6929W        W10980   5.639   3.372  10.013 -0.3504 -0.0409  0.0952
 6930W        W10981   4.174   4.277   0.156  0.2937  0.1762  0.2018
 6931W        W10982   0.934   7.332   3.499 -0.3350 -0.2661 -0.0505
 6932W        W10983   8.999   5.452  10.593  0.0552 -0.0709  0.0131
 6933W        W10984   1.024   4.887   2.338  0.3639 -0.1254  0.0853
 6934W        W10985   2.141   4.497  10.514 -0.1453  0.1071 -0.2971
 6935W        W10986   7.478   8.291  12.026  0.0934 -0.2838  0.1207
 6936W        W10987   0.754   2.791  10.532 -0.1640 -0.1765  0.1633
 6937W        W10988   3.538   5.004  12.981  0.1994 -0.1905  0.0951
 6938W        W10989   5.266   4.027  12.604  0.1639 -0.0933  0.1855
 6939W        W10990   3.251   9.368   2.661 -0.1384 -0.0437  0.1913
 6940W        W10991   3.326   5.644   2.735  0.0415  0.0546  0.1131
 6941W        W10992   8.061   7.015  13.441  0.0730  0.2011  0.0311
 6942W        W10993   7.665   4.512  12.884  0.0340  0.1820 -0.0754
 6943W        W10994   8.146   9.100  11.202  0.1190 -0.0870  0.0429
 6944W        W10995  10.016   5.651   9.605 -0.1404  0.1464 -0.1116
 6945W        W10996   5.382   0.936  12.270  0.1931  0.1873  0.3882
 6946W        W10997   7.204   5.492   1.229  0.1034 -0.0273 -0.1394
 6947W        W10998   5.712   2.490  13.576 -0.1004 -0.2356 -0.1274
 6948W        W10999   4.099   4.538   3.430 -0.0942  0.3429 -0.0102
 6949W        W11000   3.755   8.897   5.003  0.0453 -0.0008 -0.0709
 6950W        W11001   1.509   9.077   5.379  0.0916  0.0064  0.3364
 6951W        W11002   5.322   8.618  13.382  0.1390  0.0860 -0.1465
 6952W        W11003   7.238   9.915   0.309  0.2749 -0.5640 -0.0102
 6953W        W11004   3.950   8.117  11.134 -0.2196  0.3603 -0.0620
 6954W        W11005   9.924   1.530  13.217 -0.1731  0.1049  0.1602
 6955W        W11006   7.861   5.987   4.778 -0.1632  0.1137 -0.1321
 6956W        W11007   6.091   3.579   9.906 -0.1520 -0.0593  0.0779
 6957W        W11008   9.826   0.870   0.950 -0.1721  0.1151  0.0854
 6958W        W11009   6.122   2.190   9.241 -0.5829  0.3067  0.0034
 6959W        W11010   3.604   9.841   9.521 -0.0083  0.3112 -0.0783
 6960W        W11011   3.581   2.622   3.332  0.2554  0.1492 -0.3681
 6961W        W11012   4.408   6.957   2.072 -0.0429  0.1348  0.3410
 6962W        W11013   9.474   4.340   3.944  0.1112 -0.3370 -0.0217
 6963W        W11014   6.421   1.794  13.272 -0.2638 -0.1570  0.2765
 6964W        W11015   4.046   8.575   3.861 -0.1329 -0.2408  0.2479
 6965W        W11016   1.094   5.404   2.474 -0.1800 -0.0579 -0.0484
 6966W        W11017   9.065   4.159  12.749 -0.4052  0.1597 -0.1376
 6967W        W11018   6.101   6.445   3.597 -0.1107 -0.2564 -0.0564
 6968W        W11019   9.242   6.452  10.496 -0.1023  0.0074 -0.0031
 6969W        W11020   2.998   6.733   1.612  0.3344 -0.0784 -0.2836
 6970W        W11021   0.291   3.170   2.333 -0.3435 -0.1724  0.0190
 6971W        W11022   2.104   6.790   2.251 -0.4827 -0.0676  0.2098
 6972W        W11023   5.464   6.510   4.227  0.0214 -0.2440  0.3808
 6973W        W11024   8.444   1.216   2.719  0.1263 -0.3274  0.1979
 6974W        W11025   9.575   2.548  11.481 -0.1853  0.2529 -0.0529
 6975W        W11026   0.650   1.077   9.470  0.0314  0.1890 -0.3686
 6976W        W11027   7.648   3.936  13.448 -0.0873 -0.3022  0.0386
 6977W        W11028   4.198  10.024   2.231 -0.0382  0.2314  0.1794
 6978W        W11029   4.298   6.963  12.649 -0.5333 -0.1690 -0.0523
 6979W        W11030   0.821   2.141   1.122 -0.2288 -0.0624 -0.1281
 6980W        W11031   1.604   7.192   3.493 -0.0264  0.1574 -0.1353
 6981W        W11032   3.095   9.122   9.190 -0.2820  0.0355 -0.3490
 6982W        W11033   8.552   9.219  10.648 -0.1659  0.0528 -0.1355
 6983W        W11034   9.987   7.233   0.326  0.3041  0.0720  0.2954
 6984W        W11035   9.142   1.859   3.079 -0.3775  0.0107 -0.0843
 6985W        W11036   9.178   9.136   4.319 -0.1150 -0.0519 -0.0190
 6986W        W11037   6.677   9.480  12.025 -0.0334 -0.0982  0.0576
 6987W        W11038   9.629   7.377   0.607 -0.0234  0.2853  0.0285
 6988W        W11039   4.503   1.697   4.386  0.4916 -0.2033  0.3422
 6989W        W11040   6.776   5.989   2.400  0.2193 -0.2150  0.2772
 6990W        W11041   3.661   1.171   4.103 -0.1120 -0.2021  0.1000
 6991W        W11042   7.884   5.237  11.834 -0.0368 -0.0177  0.1383
 6992W        W11043   5.089   2.404   3.034  0.3285  0.2541 -0.3227
 6993W        W11044   4.446   5.238   1.468 -0.2157  0.0106  0.3158
 6994W        W11045   4.923   0.375  12.758 -0.0956  0.0318  0.0014
 6995W        W11046   3.067   7.172   0.623  0.2861  0.2554 -0.0704
 6996W        W11047   2.330   1.011  10.879  0.1645  0.6047  0.1441
 6997W        W11048   5.846   0.683   9.383  0.0251  0.1248  0.1821
 6998W        W11049   6.793   2.267   4.820 -0.0074  0.2118  0.2321
 6999W        W11050   4.970   9.811   0.943  0.0978 -0.0201  0.1147
 7000W        W11051   5.642   1.105  11.823  0.0908  0.1345 -0.0084
 7001W        W11052   4.488   7.908   9.796 -0.2941  0.0120  0.1697
 7002W        W11053   6.501   5.126  11.742 -0.2259  0.1181  0.3386
 7003W        W11054   9.901   4.187  13.714 -0.0231  0.1202  0.1398
 7004W        W11055   3.894  10.016  12.376 -0.0557 -0.0865 -0.1194
 7005W        W11056   6.219   3.106   1.345 -0.2079  0.0955  0.0447
 7006W        W11057   8.030   9.546   0.886 -0.0212 -0.1066 -0.3444
 7007W        W11058   6.432   9.840  13.540  0.2840 -0.0541 -0.1256
 7008W        W11059   6.919   1.431  13.380  0.1759 -0.2642  0.1100
 7009W        W11060   7.300   4.699   2.044 -0.2987  0.0099  0.3636
 7010W        W11061   9.898   4.556   1.620 -0.1021  0.1626  0.0823
 7011W        W11062   7.565   0.691   0.326  0.1101 -0.1658 -0.0392
 7012W        W11063   9.229   2.395   9.777  0.2285 -0.0352 -0.2874
 7013W        W11064   3.457   0.348   4.039  0.0149  0.0551 -0.0000
 7014W        W11065   3.830   3.802   0.851 -0.1630 -0.2139 -0.2273
 7015W        W11066   6.737   0.338  11.556 -0.0314 -0.3253  0.1400
 7016W        W11067   9.110   9.687  12.371 -0.1235  0.0784  0.0515
 7017W        W11068   6.714   5.979   3.275 -0.0209 -0.0195  0.0236
 7018W        W11069   1.240   2.312  13.168 -0.0134 -0.1625  0.0414
 7019W        W11070   0.623   1.432   8.868 -0.0942 -0.1962  0.2424
 7020W        W11071   0.232   3.450   4.343 -0.0270  0.2000 -0.0646
 7021W        W11072   7.718   3.816   9.011  0.0209 -0.1512  0.0012
 7022W        W11073   1.904   9.612  12.251 -0.0376 -0.2058  0.1313
 7023W        W11074   7.329   3.235   2.490 -0.1711 -0.1801  0.0118
 7024W        W11075   6.781   4.858   4.280  0.0548  0.0518  0.1922
 7025W        W11076   3.725   5.577  11.512 -0.0700 -0.1287  0.0706
 7026W        W11077   7.711   5.520   0.116  0.0233  0.2492  0.1104
 7027W        W11078   8.054   0.845   1.208  0.3008  0.0450  0.2178
 7028W        W11079   1.662   8.392  12.849 -0.1863 -0.2445 -0.1673
 7029W        W11080   9.775   8.540   3.878 -0.1339  0.1244 -0.0213
 7030W        W11081  10.178   1.911  13.457 -0.0420 -0.0557 -0.2026
 7031W        W11082   3.422   1.116   0.961 -0.2785 -0.0711 -0.3889
 7032W        W11083   4.568   5.102   2.260 -0.1037 -0.1587 -0.1581
 7033W        W11084   7.318   8.562   3.183 -0.1435  0.1741 -0.0308
 7034W        W11085   0.762   0.107  13.818 -0.0178  0.1474  0.3763
 7035W        W11086   1.654  10.009   0.414 -0.1444  0.1919 -0.1471
 7036W        W11087   7.826   8.103   9.384 -0.1840 -0.1216 -0.0198
 7037W        W11088  10.173   5.398   3.052  0.2621  0.2327 -0.0270
 7038W        W11089   9.588   8.232  10.539 -0.1506 -0.3062 -0.0547
 7039W        W11090   7.153   8.290   2.132  0.2465 -0.0529  0.1334
 7040W        W11091   0.751   5.869   3.671 -0.3122  0.2962  0.1308
 7041W        W11092   8.797   4.735   3.751 -0.0920  0.0559  0.2395
 7042W        W11093   9.560   8.095   4.138 -0.0949 -0.2960  0.1321
 7043W        W11094   3.693   0.942   1.350 -0.0012  0.0213  0.0283
 7044W        W11095   3.264   1.767  12.020  0.1133  0.0957  0.1349
 7045W        W11096   7.643   9.291   3.111 -0.0658 -0.1919 -0.1594
 7046W        W11097   6.045   1.673  10.962  0.1082  0.0752  0.0882
 7047W        W11098   1.876   2.113   4.064 -0.0643  0.0260  0.1592
 7048W        W11099   7.612   3.174   4.474 -0.1850 -0.2256  0.0558
 7049W        W11100   3.964   0.065   3.163  0.0811 -0.0448 -0.3087
 7050W        W11101   7.779   5.356   4.016  0.1135 -0.1736  0.0839
 7051W        W11102   9.018   7.593   9.626 -0.0181 -0.0396  0.3159
 7052W        W11103   6.404   5.749  10.857  0.2110  0.0428 -0.3253
 7053W        W11104   7.802   2.754   1.638  0.0502  0.1688  0.2243
 7054W        W11105   3.167   7.103  10.043 -0.2783 -0.4013 -0.2554
 7055W        W11106   6.899   0.752  12.888  0.1849 -0.3388  0.3626
 7056W        W11107   0.395   8.134  13.683 -0.0713  0.1000  0.0175
 7057W        W11108   7.800   0.464   1.713  0.0893  0.2607  0.2497
 7058W        W11109   0.157   7.286  12.163  0.1917  0.0282 -0.3078
 7059W        W11110   9.731   2.019   1.154 -0.0323 -0.1077  0.1274
 7060W        W11111   0.206   5.992   3.619  0.2343 -0.1934 -0.0731
 7061W        W11112   4.159   6.293  11.286 -0.1097 -0.0682  0.2009
 7062W        W11113   8.756   4.155   3.313 -0.2824  0.0012 -0.0242
 7063W        W11114   3.539   5.821   3.262  0.3604  0.2096 -0.5074
 7064W        W11115   2.741   9.985   2.640 -0.2032  0.2448  0.0679
 7065W        W11116   2.674   1.724  13.339  0.0288  0.1395 -0.0129
 7066W        W11117   8.576   4.725   0.881  0.0965  0.5851  0.2270
 7067W        W11118   8.551   1.006   9.310 -0.1504 -0.1090  0.2530
 7068W        W11119   5.329   3.781   9.998 -0.0613  0.0591  0.2306
 7069W        W11120   8.604   0.878  10.633 -0.4000  0.0095  0.1376
 7070W        W11121   9.998   2.911   3.301 -0.1163  0.1884  0.3791
 7071W        W11122   4.290   2.670  13.403 -0.2143  0.0565 -0.1994
 7072W        W11123   8.139   7.063   9.680 -0.1443  0.0180 -0.1491
 7073W        W11124   4.471   7.073   1.178 -0.2755 -0.1165 -0.0961
 7074W        W11125   3.323   1.920   4.277 -0.0732 -0.1168 -0.2253
 7075W        W11126   4.514   5.454  11.814 -0.0845  0.3159 -0.4217
 7076W        W11127   1.918   8.745   3.068 -0.2757  0.0235  0.1846
 7077W        W11128   8.412   1.007   1.459 -0.2622  0.1080 -0.3419
 7078W        W11129   7.177   2.329   0.308  0.1043  0.1422  0.1464
 7079W        W11130   1.900   1.056  13.003  0.0326 -0.0545 -0.2918
 7080W        W11131   3.680   1.642  11.743  0.3505 -0.3677  0.1756
 7081W        W11132   9.551   5.836  11.174 -0.2970 -0.1253  0.1419
 7082W        W11133   7.758   9.829   2.137 -0.1359 -0.2611  0.1964
 7083W        W11134   6.737   9.555   9.590 -0.1332  0.3278  0.1586
 7084W        W11135   0.272   3.655   3.741  0.0028 -0.0431  0.0420
 7085W        W11136   9.026   5.987   1.567 -0.1162  0.0588  0.0022
 7086W        W11137   6.564   2.436  10.025 -0.1437  0.2325 -0.2530
 7087W        W11138   6.521   1.849  10.802  0.0405  0.2309 -0.1184
 7088W        W11139   3.937   9.689   1.219  0.3445  0.0384  0.1923
 7089W        W11140   7.736   9.951   4.629  0.2140 -0.2259 -0.3468
 7090W        W11141   2.545   0.520   3.068  0.2414  0.3587 -0.4727
 7091W        W11142   7.177   6.664  10.469  0.1201  0.3658 -0.3319
 7092W        W11143   1.967   0.655  11.658 -0.0598  0.3877 -0.2158
 7093W        W11144   7.867   6.281  10.789  0.3277  0.0165  0.0717
 7094W        W11145  10.020   2.518  10.247 -0.1027 -0.0530 -0.1093
 7095W        W11146   9.721   0.225  13.107 -0.2175 -0.0273  0.1706
 7096W        W11147   7.470   6.503  11.958 -0.2364 -0.2157  0.1368
 7097W        W11148   1.887   6.414   1.892 -0.0938 -0.3391  0.1167
 7098W        W11149   3.403   6.496  13.064  0.1924  0.0365  0.1766
 7099W        W11150   5.559   4.667  12.010 -0.3916 -0.1478  0.1624
 7100W        W11151   2.862   4.420   1.460  0.0302 -0.4230 -0.0579
 7101W        W11152   3.466   2.208   1.997 -0.0525 -0.2556  0.1626
 7102W        W11153   3.526   6.458   0.461 -0.0263  0.2584  0.2152
 7103W        W11154   0.496   8.858   9.578  0.0445  0.4931 -0.0543
 7104W        W11155  10.110   6.464   3.604  0.2063 -0.1095 -0.1823
 7105W        W11156   4.992   3.238   4.449  0.0285 -0.0318  0.0265
 7106W        W11157   4.629   7.986  11.357 -0.1438 -0.3175 -0.0051
 7107W        W11158   0.113   0.302   0.361  0.0429 -0.1567  0.2920
 7108W        W11159   8.834   9.224  13.924  0.1933 -0.0721  0.1313
 7109W        W11160   2.309   0.767   5.756  0.0851  0.0974 -0.0555
 7110W        W11161   2.134   3.537  13.867 -0.0929  0.1715 -0.1101
 7111W        W11162   2.788   2.315   0.103  0.3945  0.0228  0.1712
 7112W        W11163   8.970   5.132  13.178  0.0616 -0.1245  0.0568
 7113W        W11164   4.530   5.285  13.794 -0.1005  0.0552 -0.0108
 7114W        W11165   3.776   7.278  12.683  0.0540  0.0820 -0.1827
 7115W        W11166   3.681   7.009  13.967  0.2032 -0.0883  0.1633
 7116W        W11167   0.769   1.636   1.177 -0.1606  0.0740  0.0454
 7117W        W11168   6.370   1.084  10.276 -0.0156 -0.1313  0.1485
 7118W        W11169   6.734   3.568   3.923 -0.1095 -0.1185 -0.3693
 7119W        W11170   4.232   2.394  13.796 -0.1935  0.1188 -0.2514
 7120W        W11171   9.293   3.336  11.223  0.1015 -0.2326  0.0966
 7121W        W11172   5.565   3.254   9.521  0.1240 -0.1568 -0.0778
 7122W        W11173   2.501   3.751  11.930  0.2876  0.3085  0.0269
 7123W        W11174   1.493   0.980  13.405  0.2519 -0.0822 -0.0359
 7124W        W11175   1.487   6.089   2.058 -0.0844  0.2766 -0.0237
 7125W        W11176   0.327   4.079   3.299 -0.3896  0.1380 -0.0475
 7126W        W11177   3.873   2.189   1.640  0.0590 -0.0730 -0.2311
 7127W        W11178   1.404   0.075   2.311  0.4288  0.0291  0.1099
 7128W        W11179   7.235   2.258  12.473 -0.0514  0.1568  0.0444
 7129W        W11180   5.472   2.116   2.238 -0.1695 -0.0292  0.2664
 7130W        W11181   6.514   6.751  12.633  0.2277 -0.0180  0.1881
 7131W        W11182   5.850   8.802   3.207 -0.2493 -0.1115  0.2250
 7132W        W11183   1.192   2.891  12.856 -0.1008 -0.0103 -0.0580
 7133W        W11184   2.290   8.412   3.542  0.1848 -0.2754  0.0834
 7134W        W11185   5.130   9.498   1.376  0.2118 -0.3841  0.1050
 7135W        W11186   5.178   9.336   9.081  0.1037 -0.0684  0.0029
 7136W        W11187   6.094   5.390   4.498 -0.2553  0.0914 -0.0942
 7137W        W11188   0.136   4.142  11.960  0.0099 -0.1075 -0.1556
 7138W        W11189   8.540   0.677   3.702 -0.3491 -0.3495  0.2103
 7139W        W11190   7.621   1.269   0.482  0.0591  0.1393 -0.2603
 7140W        W11191   8.184   4.493   1.230  0.1645  0.1258 -0.1847
 7141W        W11192   1.908   6.494   1.408  0.3541  0.2608  0.1021
 7142W        W11193   2.733   2.784  10.183 -0.3167  0.0039  0.3423
 7143W        W11194   1.190   8.724  12.183 -0.0680  0.0480 -0.0304
 7144W        W11195   6.080   8.922  11.574  0.3464 -0.2770  0.3019
 7145W        W11196   8.477   3.490  10.704  0.0609 -0.2550 -0.0880
 7146W        W11197   7.098   7.274   8.596  0.0963  0.0498 -0.1358
 7147W        W11198   4.638   3.932   2.884  0.0445 -0.0912  0.0224
 7148W        W11199   6.504   4.060   1.715 -0.0711  0.0482  0.3201
 7149W        W11200   2.837   7.298   0.011  0.1337  0.1668  0.0640
 7150W        W11201   3.335   4.297   2.683  0.1395 -0.0469  0.4220
 7151W        W11202   8.375   8.694   8.438 -0.0740  0.0556 -0.2861
 7152W        W11203   5.138   8.249  10.565 -0.1974 -0.2121  0.1532
 7153W        W11204   3.313   2.379  10.060 -0.2983 -0.1185 -0.1839
 7154W        W11205   2.853   4.552   0.285  0.1682  0.0145 -0.0661
 7155W        W11206   1.238   3.283   0.744 -0.1622 -0.0430 -0.2716
 7156W        W11207   0.508   7.005   1.662  0.0157 -0.3797 -0.0029
 7157W        W11208   1.670   9.071  10.894  0.2031 -0.1310 -0.0213
 7158W        W11209   0.535   4.540   3.511 -0.1524 -0.0605  0.1436
 7159W        W11210   2.163   1.532   1.456  0.1575 -0.0609  0.1735
 7160W        W11211   5.040   1.947   2.028 -0.3649  0.0805  0.1659
 7161W        W11212   8.940   1.103   9.790 -0.0551  0.0017 -0.0147
 7162W        W11213   6.023   6.312   0.794  0.1978  0.0990 -0.2352
 7163W        W11214   7.108   1.178  12.970 -0.2297 -0.2714 -0.0244
 7164W        W11215   3.266   3.399   2.241 -0.0444 -0.1255  0.2135
 7165W        W11216   6.576   7.337  13.138  0.0888  0.4410 -0.2922
 7166W        W11217   9.486   2.479  13.165  0.0826 -0.3661  0.2432
 7167W        W11218   2.221   0.488  13.735  0.1126 -0.0557 -0.1146
 7168W        W11219   7.523   7.123  12.679 -0.0243  0.0416 -0.0338
 7169W        W11220   6.149   2.490  13.310  0.3351  0.1161 -0.0404
 7170W        W11221   7.302   6.234   4.044  0.1743  0.0437 -0.0254
 7171W        W11222   6.882   3.754  12.867 -0.1528 -0.2112  0.0872
 7172W        W11223   0.097   4.181  12.752  0.0351  0.2672  0.1429
 7173W        W11224   6.828   9.490  10.075  0.2491  0.2555 -0.2228
 7174W        W11225   4.941   0.704  10.739 -0.0607 -0.3185 -0.1015
 7175W        W11226  10.097   4.689  12.909 -0.2548 -0.1740  0.0313
 7176W        W11227   6.043   5.220   4.980 -0.0616 -0.0135  0.2434
 7177W        W11228   3.765   6.957   3.511 -0.0231 -0.1544 -0.1697
 7178W        W11229   5.849   5.794   2.368 -0.0859 -0.0109 -0.3346
 7179W        W11230   8.284   6.290   0.472  0.3818 -0.1023  0.2251
 7180W        W11231   6.327   3.433  11.717  0.0678  0.1763  0.2545
 7181W        W11232   9.994  10.161  11.523  0.0540  0.1760  0.0816
 7182W        W11233   5.678   9.248  12.711  0.0377  0.1247 -0.1538
 7183W        W11234   8.746   9.485  12.609  0.3352  0.2446  0.0582
 7184W        W11235   9.855   4.607  13.467 -0.1883 -0.0727 -0.0570
 7185W        W11236   9.791   0.600   9.825 -0.0938 -0.1070 -0.0030
 7186W        W11237   8.889   5.376  11.592  0.1670 -0.1749 -0.2516
 7187W        W11238   0.034   0.382   1.844 -0.0322 -0.0965  0.1927
 7188W        W11239   0.041   5.889   9.994 -0.4252  0.0908 -0.0627
 7189W        W11240   0.810   6.141  11.515 -0.1915 -0.0413  0.0110
 7190W        W11241   2.773   8.434   0.473 -0.2582 -0.4505 -0.3142
 7191W        W11242   1.188   7.046  11.261  0.1518 -0.2533  0.1471
 7192W        W11243   0.342   5.274  12.344  0.1463  0.0519  0.0843
 7193W        W11244   3.229   3.758   2.638 -0.1589 -0.2657  0.2384
 7194W        W11245  10.181   2.182   0.960 -0.0477 -0.2039  0.4133
 7195W        W11246   6.113   9.372  11.370  0.4416  0.2341  0.2008
 7196W        W11247   0.392   7.303  12.601  0.0864 -0.0509  0.0572
 7197W        W11248   8.164  10.161   0.989 -0.0762  0.4697 -0.3470
 7198W        W11249   3.372   8.244   2.504 -0.2335 -0.1882  0.2920
 7199W        W11250   8.201   3.682  12.969 -0.0537 -0.3827 -0.0720
 7200W        W11251   8.819   7.131   1.709 -0.0152 -0.3286 -0.0147
 7201W        W11252   5.180   1.601   3.665 -0.0017 -0.2261  0.1431
 7202W        W11253   4.137   0.956   2.430 -0.0856  0.1318  0.1071
 7203W        W11254   2.237   2.221   2.462  0.0891  0.0524  0.0849
 7204W        W11255   5.767   4.807  10.826 -0.2178  0.0483  0.1572
 7205W        W11256   4.405   3.608  11.305 -0.2171  0.1784  0.1198
 7206W        W11257   8.670   6.001   9.403 -0.0510  0.0637 -0.1786
 7207W        W11258   4.865   0.490  11.218  0.0360 -0.1055  0.2578
 7208W        W11259   6.905   1.200   4.285  0.0493  0.4000  0.0737
 7209W        W11260  10.145   3.692   2.367 -0.2267 -0.0646  0.1153
 7210W        W11261   3.425   8.524   2.033 -0.0904  0.0481  0.1264
 7211W        W11262   0.267   2.023   3.622  0.1928  0.2367 -0.4937
 7212W        W11263   5.369   4.611  10.541 -0.0934 -0.0080 -0.0143
 7213W        W11264   5.267   5.150   2.751  0.0437 -0.0671 -0.1912
 7214W        W11265   4.838   1.236  10.497 -0.0031  0.4321  0.3538
 7215W        W11266   7.417   1.960   3.915 -0.0750  0.1199 -0.0101
 7216W        W11267   6.791   3.303   2.160 -0.0931  0.0951 -0.0748
 7217W        W11268   9.482   1.305   0.759 -0.2754  0.1139 -0.3114
 7218W        W11269   2.297   9.054   1.524 -0.0521  0.1048  0.2360
 7219W        W11270   5.390   5.389   0.225  0.4983  0.0372 -0.1856
 7220W        W11271   9.931   9.182   1.305  0.1124 -0.0470  0.0468
 7221W        W11272   1.729   5.725  13.520 -0.0173 -0.0182  0.2432
 7222W        W11273   9.661   3.608   3.739  0.0767  0.1984 -0.0989
 7223W        W11274   9.298   1.703   4.082 -0.0648  0.0784 -0.2164
 7224W        W11275   3.045   9.995   9.514  0.0019 -0.0916 -0.1555
 7225W        W11276   0.544   6.434  12.318  0.3779  0.0127  0.1487
 7226W        W11277   5.067   0.619   1.658 -0.0586  0.2012 -0.0976
 7227W        W11278   1.413   1.683   2.148 -0.5040  0.0984 -0.1019
 7228W        W11279   2.317   0.601   9.366  0.0580  0.1575 -0.2248
 7229W        W11280   1.376   6.470  12.437 -0.1647 -0.0555  0.0559
 7230W        W11281   5.876   7.842   3.326  0.1311  0.0231 -0.0812
 7231W        W11282   6.292   2.012   0.038 -0.2398 -0.1266 -0.2346
 7232W        W11283   1.081   9.889  12.007 -0.0616 -0.1965 -0.0392
 7233W        W11284   5.689   4.384   3.034 -0.0405  0.2351  0.4090
 7234W        W11285   5.508   4.471   1.243  0.0764  0.2584  0.0758
 7235W        W11286   9.802   1.766   0.710  0.2195 -0.1175 -0.0829
 7236W        W11287   3.282   0.827   2.067  0.1235 -0.0880  0.0368
 7237W        W11288   6.622   7.153  11.237  0.0444  0.0773  0.1367
 7238W        W11289   0.870   7.997   1.546 -0.0817  0.1377  0.0591
 7239W        W11290   7.680   0.261   4.932 -0.0576  0.0158  0.0468
 7240W        W11291   6.706   0.724   4.098  0.3481  0.3142 -0.0348
 7241W        W11292   4.766   9.161   3.619 -0.0847  0.1763 -0.1558
 7242W        W11293   9.619   1.409  11.848  0.1112 -0.0196 -0.1123
 7243W        W11294   0.589   6.536   2.726  0.3508  0.2816 -0.0383
 7244W        W11295   5.839   8.692   5.737 -0.0070  0.0741 -0.0045
 7245W        W11296   4.772  10.156   4.515  0.2631  0.0352 -0.1611
 7246W        W11297   0.476   6.676   4.787  0.0407  0.1824  0.1149
 7247W        W11298   9.174   2.765   3.183  0.0495  0.3012  0.1139
 7248W        W11299   9.525   5.054   0.020  0.0849 -0.0132 -0.1015
 7249W        W11300   7.874   7.382  13.186  0.1957  0.3196  0.1648
 7250W        W11301   5.228   2.700   3.406 -0.0824 -0.1458 -0.1265
 7251W        W11302   2.064   2.236  13.762  0.1176 -0.3751  0.1480
 7252W        W11303   5.138   5.971   2.229 -0.1880  0.0621 -0.1034
 7253W        W11304   5.380   7.174   2.040 -0.0721  0.0913 -0.2277
 7254W        W11305   5.719   9.145   2.816  0.0490  0.0961 -0.1988
 7255W        W11306   1.085   4.062  13.573 -0.3301 -0.3669 -0.6398
 7256W        W11307   7.729   6.398   9.784 -0.1110  0.1012 -0.0847
 7257W        W11308   3.332   7.678   3.512 -0.0362 -0.1157  0.0476
 7258W        W11309   4.984   4.688   3.291  0.0015 -0.1804  0.3062
 7259W        W11310   4.149   2.942   4.733 -0.0814  0.2965  0.0171
 7260W        W11311   5.369   3.477   0.447  0.1644 -0.1618  0.1905
 7261W        W11312   4.072   5.107   0.558  0.1361  0.1633  0.0227
 7262W        W11313   1.211   4.265  10.303  0.1207  0.0586 -0.3135
 7263W        W11314   5.584   2.377  10.003 -0.1097  0.1935  0.2484
 7264W        W11315   3.543   3.171   4.073  0.0386  0.0156  0.2438
 7265W        W11316   7.283   2.491  10.965 -0.4138  0.0233 -0.0773
 7266W        W11317   0.859   8.642   3.834  0.1534  0.0865  0.2483
 7267W        W11318   5.106   8.378  12.521  0.0825  0.2251 -0.0339
 7268W        W11319   5.073   3.267  11.287  0.0269 -0.0150  0.0467
 7269W        W11320   0.163   4.536   2.394  0.1994  0.0431 -0.3056
 7270W        W11321   2.230   0.501  10.673 -0.1139 -0.0539  0.3772
 7271W        W11322   6.441   4.793   2.174  0.1351 -0.1553 -0.0544
 7272W        W11323   4.204   6.587   1.844  0.0374 -0.0306  0.1538
 7273W        W11324   3.366   3.638  12.727  0.3662 -0.0345 -0.0700
 7274W        W11325   0.203   3.940  11.120  0.3209 -0.1796 -0.0767
 7275W        W11326   6.498   3.869   2.624  0.0614 -0.0956  0.0953
 7276W        W11327   9.690   3.602   9.554  0.1092  0.2673 -0.5722
 7277W        W11328   2.378   7.929   4.403  0.1235  0.1700  0.1725
 7278W        W11329   4.335   0.092  12.083 -0.0379  0.1464 -0.0363
 7279W        W11330   7.900   6.572   8.792  0.1003  0.2038 -0.1054
 7280W        W11331   5.316   6.600   5.128 -0.0803 -0.2563 -0.1124
 7281W        W11332   7.723   3.310   8.723  0.0270  0.1247  0.0213
 7282W        W11333   7.255   2.939  12.434  0.0921 -0.1661  0.3355
 7283W        W11334   4.981   0.832   0.333 -0.1726 -0.2409  0.1722
 7284W        W11335   2.684   4.336  13.743  0.2701 -0.0826 -0.0343
 7285W        W11336   5.301   3.416   4.065  0.1095 -0.1401  0.0430
 7286W        W11337   8.134   5.679  11.979  0.0556  0.1154  0.0956
 7287W        W11338   0.620   0.301   5.266 -0.2182  0.0643  0.1871
 7288W        W11339   9.309   7.319   4.578  0.2409  0.0808 -0.0553
 7289W        W11340   0.432   0.954  11.329  0.1602 -0.0423 -0.0309
 7290W        W11341   9.017   0.138   3.203  0.1342  0.1884  0.0272
 7291W        W11342   1.618   9.346  12.677  0.2666  0.3459 -0.0677
 7292W        W11343   5.262   4.891   1.028 -0.2145 -0.1944 -0.0750
 7293W        W11344   1.161   8.547   4.250  0.0836 -0.3324 -0.1234
 7294W        W11345   1.562   8.792   3.488 -0.0546 -0.1532  0.1190
 7295W        W11346   0.239   2.304  13.442  0.0605 -0.3345 -0.4012
 7296W        W11347   1.304   2.974  10.925 -0.1416 -0.0528 -0.1014
 7297W        W11348   1.902   7.283  10.025  0.1536 -0.1979  0.1306
 7298W        W11349   1.307   3.665  11.413  0.0143 -0.0853 -0.0571
 7299W        W11350   3.398   5.962   1.272 -0.1720 -0.3141 -0.0824
 7300W        W11351   7.180   6.435  12.295 -0.0984  0.1603 -0.0855
 7301W        W11352   5.485   2.107   4.449  0.0726  0.1078  0.2573
 7302W        W11353   6.939   5.017  10.616 -0.0149  0.0129  0.0910
 7303W        W11354   2.291   8.552  10.632  0.1654  0.3127 -0.2958
 7304W        W11355   9.427   5.482   2.422 -0.0529  0.1927  0.0071
 7305W        W11356   6.725   8.843  12.307  0.3318  0.0864  0.0103
 7306W        W11357   5.111   9.951   2.345  0.2335  0.3514  0.0705
 7307W        W11358   3.396   5.728   3.853 -0.0938 -0.1955 -0.0573
 7308W        W11359   0.351   1.440  12.126 -0.3803  0.1473 -0.3067
 7309W        W11360   7.449   6.434   2.740 -0.3628 -0.3139 -0.1144
 7310W        W11361   3.450   8.252  11.097 -0.1469  0.0388 -0.1676
 7311W        W11362   1.348   8.968   9.371  0.3355 -0.0273  0.1576
 7312W        W11363   4.335   8.024  10.773  0.0138 -0.0760  0.0525
 7313W        W11364   5.349   9.945   9.278 -0.2193  0.0422 -0.1918
 7314W        W11365   9.180   5.883   2.028  0.1164 -0.3128 -0.1774
 7315W        W11366   3.480   7.753  11.226  0.0613 -0.1011 -0.0829
 7316W        W11367   7.192   4.069   1.553  0.0006  0.0237  0.1572
 7317W        W11368   6.081   4.877  10.393 -0.0124 -0.0513  0.1327
 7318W        W11369   9.510   9.527   0.671 -0.1956  0.1023  0.0471
 7319W        W11370   0.457   3.908   0.167 -0.0649  0.1879 -0.3467
 7320W        W11371   2.941   4.873  12.495  0.0937  0.0796 -0.1341
 7321W        W11372   4.693   2.625   0.292  0.1284 -0.0108  0.0342
 7322W        W11373   2.599   1.740   3.884  0.0634  0.2388  0.1237
 7323W        W11374   2.718   8.544   1.240 -0.4189  0.0690  0.0623
 7324W        W11375   7.443   7.512  11.649  0.2109  0.2435 -0.0499
 7325W        W11376   2.268   2.567  12.291 -0.0956 -0.2314  0.1069
 7326W        W11377   7.931   7.116   8.857 -0.2113  0.1422 -0.0439
 7327W        W11378   3.765   2.911   0.634 -0.1349 -0.0016 -0.1797
 7328W        W11379   6.012   2.635  11.220  0.3932 -0.4819 -0.0146
 7329W        W11380   6.222   1.634   2.722 -0.0257  0.0118 -0.0179
 7330W        W11381   7.460   8.712   0.903 -0.1235 -0.2014 -0.1506
 7331W        W11382   0.216   9.412   1.333  0.0256  0.1083 -0.0902
 7332W        W11383   9.401   1.200   4.358 -0.1360  0.2538 -0.0654
 7333W        W11384   5.564   5.113   1.325  0.1096  0.0830 -0.0132
 7334W        W11385   2.800   0.826  10.074 -0.0259  0.2075 -0.3639
 7335W        W11386   2.225   9.945   4.841  0.1648 -0.1358  0.3214
 7336W        W11387   8.446   6.469   3.433 -0.1753 -0.2586 -0.0617
 7337W        W11388   2.759   1.157   0.034  0.1997  0.0810 -0.2508
 7338W        W11389   2.043   0.900   4.716 -0.0668  0.0747 -0.1367
 7339W        W11390   7.128   1.601   9.833 -0.1427 -0.1965  0.0544
 7340W        W11391   8.500   5.234   2.364 -0.0201  0.2318  0.1062
 7341W        W11392   7.458   8.606   5.485  0.3017  0.0144 -0.2132
 7342W        W11393   8.576  10.096   3.334 -0.1718  0.1415 -0.2723
 7343W        W11394   3.548   9.864  11.895  0.3840  0.2527  0.0822
 7344W        W11395   1.173   1.356   2.434  0.1289  0.1863  0.0828
 7345W        W11396   7.443  10.171   3.204  0.1443  0.0370 -0.3864
 7346W        W11397   0.721  10.124  10.854 -0.0062  0.0154 -0.2245
 7347W        W11398   3.511   7.451  13.055 -0.4004 -0.1706  0.3096
 7348W        W11399   3.965   9.551   2.296  0.0954  0.0237  0.2019
 7349W        W11400   8.546   3.098   9.681 -0.1204 -0.1200 -0.1067
 7350W        W11401   6.059   8.045  13.951 -0.1058 -0.1951 -0.3419
 7351W        W11402   0.050   5.837   2.087 -0.0932 -0.1590  0.0376
 7352W        W11403  10.056   6.055  13.386  0.0001 -0.0122  0.0322
 7353W        W11404   7.356   4.183   2.886  0.0690 -0.1702 -0.0002
 7354W        W11405   9.249   8.491  13.426  0.0069 -0.3324 -0.3517
 7355W        W11406   0.044   2.323   1.724  0.2209 -0.2629 -0.0515
 7356W        W11407   6.478   8.355  12.017 -0.0713 -0.3513 -0.1616
 7357W        W11408   3.395   0.142   9.649 -0.2595 -0.2097 -0.0925
 7358W        W11409   5.418   1.417  10.436 -0.2054  0.0967  0.0104
 7359W        W11410   0.481   0.820   2.986  0.2212  0.1317  0.0425
 7360W        W11411   1.322   6.297  12.871 -0.2140 -0.1571 -0.0543
 7361W        W11412   5.753   3.637   1.796  0.1411 -0.4451  0.0370
 7362W        W11413   8.491   7.156  12.252  0.0098 -0.1659  0.2005
 7363W        W11414   1.517   6.602   3.968  0.0302  0.1811 -0.2845
 7364W        W11415   4.582   0.530  13.099  0.0650  0.0121 -0.2081
 7365W        W11416   4.139   8.498  10.692 -0.1702  0.1388  0.0639
 7366W        W11417   0.606   9.970  11.712 -0.0886  0.0392 -0.0684
 7367W        W11418   1.314   6.066  11.154 -0.0029 -0.0947  0.1253
 7368W        W11419   5.236   6.104  12.121 -0.0939 -0.2880 -0.1913
 7369W        W11420   6.399   3.063   8.741 -0.0701  0.0950  0.2378
 7370W        W11421   6.240   9.257   3.492 -0.0609  0.2128  0.0103
 7371W        W11422   5.150   3.708  10.842  0.2682  0.0576 -0.1010
 7372W        W11423   1.684   6.056   1.543 -0.1073 -0.2387  0.0258
 7373W        W11424   3.028   7.247   1.627  0.3685  0.0849  0.0429
 7374W        W11425   3.227   4.182   0.135  0.0526 -0.1502  0.0014
 7375W        W11426   3.902   2.496  12.662 -0.0715  0.2193  0.3414
 7376W        W11427   9.784   6.437  10.079  0.0302  0.0024  0.1005
 7377W        W11428   9.303   6.119   0.629 -0.0318 -0.0356  0.2303
 7378W        W11429   7.246   7.274   1.660  0.1008 -0.0600  0.1577
 7379W        W11430   3.809   8.244   4.353 -0.0765 -0.0220 -0.3140
 7380W        W11431   7.271   0.615  13.714  0.1395  0.0449 -0.0591
 7381W        W11432   3.398   6.663   1.315  0.0204 -0.1264  0.1961
 7382W        W11433   9.637   0.827   3.902 -0.0116  0.5100 -0.0403
 7383W        W11434  10.063   8.020   9.214  0.4982  0.1117  0.1051
 7384W        W11435   0.534   3.584  10.375  0.0258  0.1821 -0.0865
 7385W        W11436   2.856   0.963  11.289  0.0420  0.0404 -0.0180
 7386W        W11437   6.711   1.603  12.060  0.2361 -0.0667  0.1070
 7387W        W11438   1.179   0.571  10.289 -0.0333  0.2373  0.3080
 7388W        W11439  10.075   3.435  11.120  0.0594  0.3189  0.0464
 7389W        W11440   7.227   7.256  12.014  0.0381 -0.0642 -0.5282
 7390W        W11441   5.753   9.011  11.961 -0.0578 -0.1003  0.0995
 7391W        W11442   0.830   5.131   1.264  0.0799  0.0847  0.3093
 7392W        W11443   9.804   7.346  12.889  0.1370  0.0303 -0.0296
 7393W        W11444   2.115   3.907   2.885  0.0581 -0.1517 -0.0122
 7394W        W11445   9.455   9.372   2.993 -0.1293  0.2364  0.1589
 7395W        W11446   0.709   0.547   1.982 -0.4533  0.1566 -0.0526
 7396W        W11447   8.902   0.749   8.937  0.2627 -0.1338 -0.1216
 7397W        W11448   9.214   5.189   0.646  0.3879  0.1946  0.2367
 7398W        W11449   8.550   9.053   9.922  0.1016 -0.6830 -0.0765
 7399W        W11450   2.041   4.826   1.335  0.1921  0.2481 -0.2308
 7400W        W11451   8.748   8.829   4.438 -0.0400  0.0623 -0.1790
 7401W        W11452   1.020   7.844   3.489 -0.0859  0.0277 -0.0712
 7402W        W11453   6.613   0.667   3.118 -0.1717  0.2433  0.0371
 7403W        W11454   1.634   1.807  11.175 -0.1971 -0.2688  0.3308
 7404W        W11455   5.968   2.562  12.847 -0.0310 -0.0996  0.1595
 7405W        W11456   8.639   8.718  11.399 -0.1574  0.0920 -0.0102
 7406W        W11457   8.551   0.378   3.229 -0.2104 -0.1779 -0.0517
 7407W        W11458   7.967  10.071  12.659 -0.0085  0.4136  0.1475
 7408W        W11459  10.140   1.890  12.954 -0.0517 -0.1333  0.1069
 7409W        W11460   1.931   7.333   2.515  0.0742 -0.1385 -0.0683
 7410W        W11461   8.202  10.108  11.724 -0.2249  0.1842  0.1147
 7411W        W11462   5.798   4.012   9.821  0.0242 -0.2351  0.1037
 7412W        W11463   1.144   6.240   9.977 -0.1721  0.1751  0.0327
 7413W        W11464   9.185   3.375   3.691  0.2828 -0.2408  0.0087
 7414W        W11465   2.356   8.054  11.950 -0.1914 -0.0725  0.0374
 7415W        W11466   3.872   6.233  12.840 -0.0021 -0.2140  0.0549
 7416W        W11467   6.793  10.182  10.388 -0.1282 -0.2344 -0.2214
 7417W        W11468   5.567   3.907  11.791  0.2549  0.3041 -0.1158
 7418W        W11469   8.009   3.944  10.801  0.2764  0.3203  0.0074
 7419W        W11470   8.043   0.315  11.041 -0.2793 -0.4726 -0.1916
 7420W        W11471   8.757   0.613  11.759 -0.1312 -0.1141 -0.0060
 7421W        W11472   7.332   2.294   0.794  0.0217  0.1533 -0.1529
 7422W        W11473  10.099   2.268   3.936 -0.3948  0.1433 -0.0121
 7423W        W11474   4.867   1.658  11.928 -0.2975 -0.2847 -0.0623
 7424W        W11475   8.122   9.642   4.615  0.4791  0.5538  0.0432
 7425W        W11476   5.559   7.377   2.445 -0.3049 -0.1567  0.0789
 7426W        W11477   4.638   9.408  10.517  0.1892  0.1197 -0.2026
 7427W        W11478   8.514   4.930  10.719  0.2534 -0.4983 -0.0513
 7428W        W11479   7.455   0.217   0.291  0.0906  0.0305 -0.2169
 7429W        W11480   4.102   5.531   3.338  0.0740  0.2579  0.1806
 7430W        W11481  10.122   8.169   1.007 -0.3193  0.1747 -0.0419
 7431W        W11482  10.187   9.239   4.215  0.3830  0.0485  0.0063
 7432W        W11483   2.084   2.199  12.541 -0.0927  0.0127 -0.4913
 7433W        W11484   3.215   9.487  13.456  0.1324  0.0139 -0.2438
 7434W        W11485   5.466   1.813   4.048  0.0461 -0.1072 -0.1421
 7435W        W11486   3.032   7.858   4.197  0.0937 -0.1113 -0.2172
 7436W        W11487   6.465   0.503   9.106  0.0543 -0.0679 -0.1562
 7437W        W11488   7.834   2.736  11.744  0.0449 -0.0350  0.3227
 7438W        W11489   3.478   6.669   3.817  0.2037  0.0825  0.3201
 7439W        W11490   9.761   1.157  13.951  0.0121  0.2378 -0.1145
 7440W        W11491   6.352   5.143   3.129  0.1188 -0.1121 -0.1247
 7441W        W11492   3.611   9.748  12.684  0.3577  0.0916 -0.0465
 7442W        W11493   2.101   7.329  10.515  0.2742 -0.0007 -0.1221
 7443W        W11494   2.734   5.856  11.338  0.0653  0.1084 -0.1765
 7444W        W11495   6.518   5.668   4.464 -0.1601  0.1169 -0.1429
 7445W        W11496   5.500   4.392  10.095  0.3216 -0.2030 -0.0713
 7446W        W11497   6.533   4.062  10.939  0.3663 -0.1514  0.2707
 7447W        W11498   4.914   2.269   1.533  0.0217 -0.0400  0.0273
 7448W        W11499   3.525   5.283   2.344 -0.0957 -0.1695 -0.0901
 7449W        W11500   5.113   7.139   2.572 -0.0294 -0.1943 -0.0253
 7450W        W11501   5.596   4.359  11.115 -0.2456  0.0382  0.2869
 7451W        W11502   8.156   9.735  11.420  0.0630  0.3245  0.2415
 7452W        W11503   8.781   6.098   1.089 -0.2827  0.1965 -0.1501
 7453W        W11504   2.970   9.136   3.122 -0.1892  0.2333 -0.0584
 7454W        W11505   0.502  10.017  10.377 -0.1195 -0.4423  0.3022
 7455W        W11506   1.753   2.865   3.158 -0.4602  0.2769  0.0391
 7456W        W11507   2.402   6.428  12.506  0.0076  0.1492 -0.3747
 7457W        W11508   5.733   6.238  10.461 -0.1551  0.5730 -0.1980
 7458W        W11509   5.938   1.810   4.286  0.1951  0.1134  0.0707
 7459W        W11510   8.211   2.888   2.113  0.4533 -0.0598  0.0866
 7460W        W11511   1.178   6.856  12.903  0.0676 -0.1338  0.0559
 7461W        W11512   1.501   2.279   3.785 -0.2504  0.0770 -0.3887
 7462W        W11513   8.620   5.528   3.501 -0.0918  0.4982 -0.3396
 7463W        W11514   7.153   4.836  13.583  0.0724 -0.1262 -0.0203
 7464W        W11515   0.031   9.118  10.373 -0.0903 -0.0547  0.0457
 7465W        W11516   7.292   4.011  13.136  0.2665 -0.5179 -0.0508
 7466W        W11517   5.264   4.682   2.041 -0.1393  0.1703 -0.1856
 7467W        W11518   4.675   5.843   0.582  0.1537  0.1139  0.1078
 7468W        W11519   6.547   8.928  12.755  0.1463 -0.2548  0.1300
 7469W        W11520   3.024   9.413  11.771  0.1755  0.2359 -0.1940
 7470W        W11521   2.763   3.000  11.493 -0.1037 -0.1035  0.0854
 7471W        W11522   7.211   7.627   3.242 -0.2581 -0.1734  0.1378
 7472W        W11523   2.973   0.545   1.595 -0.0098 -0.5348  0.0351
 7473W        W11524   0.466   1.574  13.961  0.1931 -0.0388 -0.0880
 7474W        W11525   2.334   5.015  13.355  0.3079  0.1195 -0.2778
 7475W        W11526   8.188   4.658   2.479 -0.0612  0.0801  0.1701
 7476W        W11527   9.209   7.794   4.371  0.1952 -0.3328  0.1471
 7477W        W11528   6.829   9.353   1.758  0.0235  0.1185 -0.0669
 7478W        W11529   3.994   9.062   4.101 -0.1632 -0.0483  0.0023
 7479W        W11530   1.141   2.118   2.989  0.1324 -0.1681  0.0470
 7480W        W11531   8.156   7.252  11.129  0.0530  0.0373 -0.2867
 7481W        W11532   9.766   2.868  13.314 -0.2789  0.3120 -0.0483
 7482W        W11533   4.965   8.937   9.355  0.1119 -0.0577  0.0322
 7483W        W11534   0.510   3.635  11.711 -0.1095 -0.0123  0.0328
 7484W        W11535   8.502   8.330   0.543 -0.1090 -0.2100 -0.4620
 7485W        W11536   6.120   0.753   3.364  0.3624  0.2788 -0.4349
 7486W        W11537   5.152   4.936  11.956 -0.2854  0.1344  0.1590
 7487W        W11538   6.433   2.756   9.522  0.0901  0.1544 -0.0596
 7488W        W11539   9.437   4.581   3.110  0.0044  0.0296  0.1789
 7489W        W11540   1.279   2.987   1.157  0.1579  0.0728  0.2948
 7490W        W11541   0.632   6.562   5.235 -0.0365 -0.1909  0.2288
 7491W        W11542   3.993   1.019  10.624  0.2454  0.2060  0.0607
 7492W        W11543   9.015   9.539   4.540 -0.1984 -0.0910  0.0587
 7493W        W11544   2.263   3.069   1.013  0.1917  0.1737  0.1525
 7494W        W11545   1.170   8.027   5.718 -0.0501  0.0200 -0.0730
 7495W        W11546   2.173   0.854   3.288  0.4483 -0.2601  0.0472
 7496W        W11547   1.363   7.479  11.540  0.3384  0.0373 -0.2745
 7497W        W11548   8.229   6.178   2.061  0.5616  0.1314  0.0135
 7498W        W11549   4.121   7.038   1.594 -0.1331  0.1667 -0.0539
 7499W        W11550   9.069   0.835   4.499 -0.1788 -0.0875 -0.1937
 7500W        W11551   1.115   1.906  11.003 -0.0247  0.1260  0.1952
 7501W        W11552   2.756   9.088  12.807 -0.2074  0.0699  0.1653
 7502W        W11553   1.727   8.492   1.461  0.2385 -0.0536 -0.1606
 7503W        W11554   9.058   5.262  13.676  0.2699  0.0600  0.1066
 7504W        W11555   5.835   6.996   1.128 -0.0484  0.2456  0.0936
 7505W        W11556   5.014   2.236   5.122 -0.2887  0.1532  0.4373
 7506W        W11557   0.253   0.692  12.591  0.0692  0.0502  0.5300
 7507W        W11558   8.486   4.396   3.626 -0.3470  0.0100 -0.0702
 7508W        W11559   0.060   3.491  12.846  0.2336 -0.2294  0.0321
 7509W        W11560   7.736   0.315  10.536  0.0964  0.1159 -0.1330
 7510W        W11561   9.888   2.724   9.843  0.4646  0.1011 -0.0488
 7511W        W11562   9.604   5.027   1.487 -0.2372 -0.2389  0.2171
 7512W        W11563   1.334   1.411  11.173  0.4053  0.5918 -0.1926
 7513W        W11564   0.236   1.440   9.876  0.2210 -0.0260  0.1083
 7514W        W11565   7.923   1.689  11.110  0.2163  0.0717 -0.0827
 7515W        W11566   7.472   4.480   0.848 -0.0542  0.0617 -0.1049
 7516W        W11567   2.173   4.335   2.074  0.0241  0.4006 -0.0646
 7517W        W11568  10.179   7.218   3.076  0.2676  0.1198  0.1021
 7518W        W11569   6.341   9.961   4.161  0.0607  0.3763  0.0259
 7519W        W11570   3.853  10.173   1.785  0.1594  0.1627 -0.2329
 7520W        W11571   7.331   3.129   8.486  0.0985 -0.2834 -0.0063
 7521W        W11572   3.292   5.720   2.187  0.0459 -0.0194 -0.1459
 7522W        W11573   7.844   8.254   5.398  0.0143  0.0006  0.0011
 7523W        W11574   7.455   2.075   3.438 -0.3602 -0.2744  0.2471
 7524W        W11575  10.180   0.679   1.251  0.2833 -0.1417  0.0106
 7525W        W11576   9.801   5.712   2.897  0.2121  0.0149 -0.0240
 7526W        W11577   6.078   2.011  10.592  0.1503 -0.0573 -0.1102
 7527W        W11578   7.956   2.871  11.293  0.1644  0.2840 -0.1603
 7528W        W11579   9.466   5.418  10.867  0.0481  0.0585  0.0747
 7529W        W11580   9.264   5.033   2.850  0.0646  0.4170  0.1081
 7530W        W11581   7.720   4.025   5.035  0.2021 -0.0924  0.0448
 7531W        W11582   9.257   2.303   9.227 -0.1031 -0.3655 -0.2968
 7532W        W11583   4.585   8.143   3.903 -0.2747  0.3001  0.0146
 7533W        W11584   9.372   2.628   3.706  0.3303 -0.1411 -0.2539
 7534W        W11585   2.447   2.972  12.007 -0.2470 -0.1069 -0.1283
 7535W        W11586   6.102   0.968  11.791 -0.2099 -0.0408  0.1184
 7536W        W11587   9.960   4.736   2.867 -0.1402  0.0837 -0.2348
 7537W        W11588   6.682   5.740   3.885  0.3564  0.4165 -0.0828
 7538W        W11589   9.545   6.111  13.608 -0.3199 -0.2700  0.1787
 7539W        W11590   1.356   1.818   3.450 -0.0400 -0.0188  0.0617
 7540W        W11591   7.722   2.637  12.224 -0.0679  0.2602  0.0053
 7541W        W11592   0.842   1.751   3.393 -0.0678 -0.0313  0.1356
 7542W        W11593   8.174   4.347  11.719  0.1469 -0.1192  0.1658
 7543W        W11594   4.918   4.063   1.749 -0.1046  0.0076 -0.1416
 7544W        W11595   2.802   7.669   1.458  0.1444  0.0773  0.0105
 7545W        W11596   7.486   4.468   4.320 -0.1430  0.1360 -0.1285
 7546W        W11597   7.794   3.825   0.898 -0.0025 -0.0725  0.0450
 7547W        W11598   7.836   4.152   0.100  0.1300 -0.0944 -0.1812
 7548W        W11599   4.358   9.346  10.943 -0.1315  0.0599 -0.2565
 7549W        W11600   9.829   6.480  11.185  0.1839 -0.4341  0.2604
 7550W        W11601   8.734   0.253   1.358  0.1914 -0.1877 -0.0131
 7551W        W11602   7.289   0.848   0.752 -0.3979  0.1043  0.0574
 7552W        W11603   2.825   7.604   9.950 -0.0404 -0.0744  0.3500
 7553W        W11604   0.172   6.096  11.801 -0.0109 -0.2663  0.0878
 7554W        W11605   0.570   9.246   4.292  0.0559 -0.1562 -0.1121
 7555W        W11606   4.296   8.426   4.317 -0.0171 -0.3525  0.2160
 7556W        W11607   8.647   7.616   1.777 -0.0792 -0.0822  0.1325
 7557W        W11608   6.485   5.895  11.381 -0.0321 -0.0534 -0.3519
 7558W        W11609   8.692   9.651   3.682  0.0163  0.2224 -0.1492
 7559W        W11610   8.897   9.561   9.018 -0.1161  0.0135  0.1858
 7560W        W11611   7.817   0.813   3.008  0.2091  0.0768 -0.2968
 7561W        W11612   9.356   3.786  11.816  0.0602  0.2087 -0.0175
 7562W        W11613   1.173   1.672  12.628 -0.2260  0.1941 -0.2276
 7563W        W11614   7.871   1.320  11.425 -0.1107  0.3138  0.2039
 7564W        W11615   0.407   2.003  13.081 -0.3677 -0.0430 -0.3116
 7565W        W11616   3.009   2.368   1.160  0.0472 -0.1862  0.3447
 7566W        W11617   1.120   5.528   1.506  0.1750  0.0051  0.0921
 7567W        W11618   1.363   0.689  13.831  0.4768  0.3641 -0.1295
 7568W        W11619   8.513   5.765   1.470 -0.1637 -0.3545  0.0591
 7569W        W11620   7.418   7.722  13.601 -0.1692 -0.3862  0.0380
 7570W        W11621   4.312   1.890   4.779  0.0895  0.1666  0.1680
 7571W        W11622   2.963   9.726   0.532 -0.4621  0.4484 -0.4742
 7572W        W11623   1.902   0.038  13.131  0.1990 -0.1030  0.2839
 7573W        W11624   5.846   0.271  10.783 -0.4079  0.0710 -0.2087
 7574W        W11625   8.034   7.790   3.777 -0.1618  0.1495  0.0615
 7575W        W11626   5.777   7.540  10.918  0.1213 -0.2093  0.0764
 7576W        W11627   3.195   6.050   0.436  0.1578  0.1586  0.1308
 7577W        W11628   7.667   9.933   0.065 -0.2686  0.2722 -0.2875
 7578W        W11629   3.881   1.001   4.561 -0.0914  0.2705 -0.0543
 7579W        W11630   7.342   6.884   5.265  0.0381  0.1550  0.2036
 7580W        W11631   3.656   2.901  10.107 -0.1096 -0.2891 -0.0519
 7581W        W11632   5.864   7.489   9.136  0.0553 -0.1120 -0.1970
 7582W        W11633   1.229   8.308   2.028  0.0467  0.1100  0.1571
 7583W        W11634   1.597   2.113   1.954  0.0462 -0.1760 -0.3745
 7584W        W11635   7.184   3.453   9.776  0.0297 -0.1413  0.2605
 7585W        W11636   0.527   9.674  10.744  0.0087 -0.0770  0.0013
 7586W        W11637   6.976   8.430  12.180 -0.2235 -0.1673 -0.3105
 7587W        W11638   5.811   8.652   9.790 -0.4055 -0.0987 -0.0556
 7588W        W11639   3.010   5.550  11.012 -0.2241 -0.2409  0.0866
 7589W        W11640   5.165   7.923  12.260  0.5474  0.0275 -0.1712
 7590W        W11641   8.353   7.231  12.700  0.0739  0.3391 -0.1218
 7591W        W11642   8.627   4.011  13.094  0.1455  0.1500  0.2349
 7592W        W11643   4.185   4.566  13.224  0.0601  0.2533  0.2654
 7593W        W11644   9.455   8.939  13.228 -0.1624 -0.2182 -0.2457
 7594W        W11645   8.874   0.062   1.807 -0.1093 -0.3751 -0.1605
 7595W        W11646   3.127   3.019   4.910 -0.3316  0.1524  0.1184
 7596W        W11647   0.937   5.340  10.089 -0.1293 -0.2214 -0.3013
 7597W        W11648   4.158   2.282   2.685 -0.0695 -0.0043 -0.0054
 7598W        W11649   3.091   4.101   1.091 -0.3046 -0.1866  0.1315
 7599W        W11650   3.532   9.304   4.141 -0.1306  0.0716 -0.3217
 7600W        W11651   7.169   6.225   3.249  0.1146  0.0951  0.1531
 7601W        W11652   9.106   2.237  12.270  0.4591 -0.1634 -0.0181
 7602W        W11653   6.406   0.396   9.980  0.0773  0.0560 -0.2709
 7603W        W11654   8.347   3.660   9.695  0.0632  0.0129  0.1105
 7604W        W11655   7.830   3.388  13.803  0.0217 -0.0722  0.0215
 7605W        W11656   9.707   1.930  10.660  0.0042 -0.2535 -0.2848
 7606W        W11657   4.258   3.086   3.067  0.1816 -0.1612  0.1128
 7607W        W11658   2.354   9.710  13.169  0.3986 -0.0947 -0.0968
 7608W        W11659   7.257   4.551   3.484  0.1115  0.2595 -0.0359
 7609W        W11660   3.610   5.285  10.227  0.0482  0.4591  0.0668
 7610W        W11661   7.018   4.193  10.904 -0.1502 -0.2624  0.1536
 7611W        W11662   2.958   0.040  10.766 -0.2065 -0.1621  0.2200
 7612W        W11663   2.020   9.561   2.508 -0.2907  0.3523 -0.1040
 7613W        W11664   6.806   9.976  11.477  0.3293 -0.7261 -0.3107
 7614W        W11665   1.197   2.337  10.022 -0.0808 -0.1035  0.0565
 7615W        W11666   9.238   4.164   1.913 -0.0336 -0.1167 -0.2138
 7616W        W11667   4.806  10.051  12.161 -0.1352 -0.2632  0.2892
 7617W        W11668   6.431   2.112   1.396 -0.1618  0.0581 -0.3471
 7618W        W11669   1.967   8.964   4.457 -0.0123  0.0574  0.2677
 7619W        W11670   9.781   1.752   9.571 -0.0145 -0.2213 -0.0383
 7620W        W11671   1.264   8.964   9.881 -0.0105 -0.0679 -0.0471
 7621W        W11672   6.512   3.336  11.269 -0.1351  0.2399 -0.1408
 7622W        W11673   3.022   4.454  12.213 -0.1713 -0.0765 -0.2004
 7623W        W11674   8.806   6.896   3.785  0.1972  0.0974 -0.2908
 7624W        W11675  10.062   8.408  11.541 -0.0102  0.2969  0.3670
 7625W        W11676   9.550   5.625   0.627 -0.0067 -0.2761  0.0169
 7626W        W11677   4.389   3.435   4.897 -0.0655 -0.0010 -0.2891
 7627W        W11678  10.039   9.819   3.577 -0.0729 -0.0845  0.1214
 7628W        W11679   6.308   9.905   9.599 -0.0120  0.1067 -0.1866
 7629W        W11680   2.552   0.110   2.284 -0.1294  0.1525  0.0030
 7630W        W11681   4.054   9.894   4.596  0.0187  0.0982 -0.0803
 7631W        W11682   8.884   8.144  12.980  0.2862 -0.2182  0.1196
 7632W        W11683   8.857   8.569   2.192 -0.2456  0.1836  0.0645
 7633W        W11684   0.285   8.250   2.236  0.1374 -0.3166 -0.0688
 7634W        W11685   3.728   9.231   4.594 -0.0907 -0.0050  0.1779
 7635W        W11686   4.109   6.005  13.224  0.0012  0.0781 -0.0262
 7636W        W11687   1.526   2.141  10.774  0.0459  0.1255  0.1004
 7637W        W11688   8.398   1.531  12.229 -0.1000  0.3493  0.0365
 7638W        W11689   9.845   8.917   9.276  0.1867  0.0806  0.0264
 7639W        W11690   0.626   6.280   9.979 -0.1327  0.1503 -0.3146
 7640W        W11691   7.144   2.091   1.446 -0.1642  0.1761  0.2884
 7641W        W11692   7.895   8.851   1.145  0.2623  0.0247  0.2016
 7642W        W11693   1.529   4.803  12.013 -0.0952 -0.2756 -0.3029
 7643W        W11694   0.918   2.783   2.527  0.0543  0.2303 -0.2177
 7644W        W11695   7.738   4.571   0.429  0.1956  0.0570  0.0114
 7645W        W11696   0.221   9.328  12.653  0.1828  0.4813 -0.2290
 7646W        W11697   1.160   9.469   2.214 -0.1183 -0.0684 -0.0728
 7647W        W11698   3.327  10.169  10.443 -0.0998 -0.2081  0.3501
 7648W        W11699   5.869   7.436  13.394 -0.3665 -0.2119  0.2459
 7649W        W11700   2.292   9.678   3.952 -0.1868 -0.0406 -0.2249
 7650W        W11701   0.077   4.524   0.530 -0.0182 -0.1922  0.4172
 7651W        W11702  10.151   8.873   3.818  0.2972 -0.1670 -0.1691
 7652W        W11703   4.013   2.849  11.870 -0.0224  0.0054 -0.0699
 7653W        W11704   4.219   5.395  10.890  0.0053 -0.0666 -0.0970
 7654W        W11705   3.838   6.037   0.162  0.0532 -0.3208 -0.1518
 7655W        W11706   0.819   1.420   0.311 -0.0690 -0.4227 -0.2859
 7656W        W11707   1.602   3.099  12.679 -0.1231 -0.0385 -0.1315
 7657W        W11708   4.488  10.136  11.370 -0.0624 -0.1594 -0.0394
 7658W        W11709   6.095   0.177   4.494  0.1344  0.0128 -0.3786
 7659W        W11710   6.231   2.110   2.937 -0.1060  0.1671  0.1220
 7660W        W11711   7.087   6.840  11.121 -0.0773  0.0400  0.0744
 7661W        W11712   4.934  10.025   0.462 -0.1462  0.0850  0.0543
 7662W        W11713   6.569   6.614   5.002  0.1807  0.0277 -0.0868
 7663W        W11714   7.427   8.966   9.324 -0.5236 -0.0131 -0.2360
 7664W        W11715   3.264   1.073  13.069 -0.0831  0.0075 -0.1413
 7665W        W11716   8.896   7.454  13.497  0.0918  0.1176 -0.0654
 7666W        W11717   9.060   7.593  11.232  0.0149  0.0085 -0.3456
 7667W        W11718   2.767   5.451  10.525 -0.3172 -0.2298  0.1620
 7668W        W11719   7.835   6.766   2.761  0.0991  0.0446  0.1294
 7669W        W11720   4.263   8.779   5.284  0.0556 -0.0910 -0.0225
 7670W        W11721   2.740   8.060   0.106  0.1509 -0.0463 -0.0201
 7671W        W11722   2.105   7.761  13.354  0.2030  0.1061 -0.4326
 7672W        W11723   5.592   3.980  13.489 -0.2165  0.1207  0.2898
 7673W        W11724   9.589   2.113  11.159  0.0598  0.1600 -0.1110
 7674W        W11725   2.462   0.031   4.480  0.2268  0.1115 -0.2024
 7675W        W11726   4.570   5.792  10.618 -0.0298 -0.3697 -0.3314
 7676W        W11727   3.804   5.472   2.703 -0.3478 -0.2105  0.4738
 7677W        W11728   2.231   9.514   3.371  0.1955 -0.1233 -0.2799
 7678W        W11729   8.241   7.692  12.968 -0.0082 -0.1424 -0.0784
 7679W        W11730   3.259   1.486   0.144  0.3295  0.1916 -0.2654
 7680W        W11731   3.954   8.616  12.775  0.0495  0.1274  0.3405
 7681W        W11732   8.794   6.268   9.774 -0.0063  0.1278 -0.0922
 7682W        W11733   0.745   3.337   0.815 -0.0458 -0.0428  0.0324
 7683W        W11734   6.013   9.129   1.409 -0.1651 -0.0947 -0.0229
 7684W        W11735   8.722   7.646   1.299  0.0576  0.3792  0.0606
 7685W        W11736   9.776   1.091   4.869 -0.4198 -0.0041  0.0438
 7686W        W11737   8.434   3.610  10.224  0.0090 -0.1439 -0.1892
 7687W        W11738   1.494   8.727   1.975  0.2474  0.3284  0.3691
 7688W        W11739   7.972   8.938   3.360  0.3298  0.2060 -0.5172
 7689W        W11740   9.820   9.428  13.505 -0.1184 -0.1088 -0.2392
 7690W        W11741   8.016   7.075   0.052 -0.0335 -0.3044  0.0737
 7691W        W11742   1.239   5.935  12.069  0.0542  0.1476  0.0151
 7692W        W11743   4.438   6.313  10.338 -0.3875 -0.0711  0.0644
 7693W        W11744   7.869   5.013   2.428  0.1017 -0.1823 -0.0914
 7694W        W11745   6.314   1.186   5.084  0.2378 -0.0550 -0.0049
 7695W        W11746   8.470   9.752   0.582  0.0703 -0.0156  0.1060
 7696W        W11747   9.465   2.578   4.802 -0.2119  0.1292  0.3058
 7697W        W11748   0.874   0.559   1.511 -0.0081  0.4546  0.1541
 7698W        W11749   1.641   9.350   0.047 -0.0324 -0.2728  0.1063
 7699W        W11750   6.317   9.988   0.598  0.1127 -0.2101  0.0599
 7700W        W11751   2.381   5.080  13.837  0.1186 -0.0255 -0.1166
 7701W        W11752   8.012   2.880   3.664 -0.1238  0.0153 -0.0688
 7702W        W11753   4.937   9.917   8.382 -0.1823 -0.3167  0.2580
 7703W        W11754   0.804   2.471  12.476  0.2192  0.0456  0.0523
 7704W        W11755   2.104   3.762  12.320 -0.1044 -0.0202 -0.2672
 7705W        W11756   3.532   8.667   0.954  0.1045 -0.0364  0.0089
 7706W        W11757   6.538   6.127  12.606 -0.0354  0.1255 -0.2009
 7707W        W11758   7.199   2.939  10.077 -0.1573 -0.1654 -0.1186
 7708W        W11759   2.956   1.503  12.346 -0.3579  0.2509 -0.1539
 7709W        W11760   7.052   3.884  10.078  0.0160 -0.1638  0.0137
 7710W        W11761   5.008   9.624  10.011  0.1415  0.5015 -0.1253
 7711W        W11762   3.570   8.987  11.223 -0.0194  0.0713 -0.0815
 7712W        W11763   0.523   3.610   3.339 -0.2603 -0.1022  0.2455
 7713W        W11764   3.559   4.361  12.243  0.3006 -0.0816 -0.3180
 7714W        W11765   1.388   9.460  10.927 -0.1609 -0.1480  0.2178
 7715W        W11766   7.663   9.682  10.594  0.1109 -0.3437  0.1153
 7716W        W11767   7.180   6.773   4.226 -0.6215 -0.0250  0.0963
 7717W        W11768   3.045   1.643   2.637 -0.0568  0.5153 -0.1736
 7718W        W11769   1.925   8.263  11.953  0.0535 -0.1041 -0.1249
 7719W        W11770   5.410   8.317  12.922  0.1654 -0.1993  0.0535
 7720W        W11771   7.702   5.253  10.943  0.0687 -0.1422  0.2961
 7721W        W11772   9.972   3.396  12.240  0.2654  0.0549  0.0775
 7722W        W11773   2.248   0.310   2.705 -0.1937 -0.3171 -0.0476
 7723W        W11774   0.986   0.334  10.712  0.2490  0.0295  0.2285
 7724W        W11775   6.577   5.527  12.384  0.0958  0.5187 -0.0999
 7725W        W11776   5.765   4.866   2.975  0.1278 -0.1511  0.0934
 7726W        W11777   4.359   7.651   1.022 -0.1449 -0.0955 -0.0462
 7727W        W11778   7.727   2.659   2.276  0.0870  0.1270 -0.1047
 7728W        W11779   7.868   2.048  10.109 -0.2365  0.0262  0.1988
 7729W        W11780   7.397   4.563   1.574 -0.2667 -0.2405  0.2315
 7730W        W11781   4.573   6.082   2.618 -0.2044 -0.0310 -0.1044
 7731W        W11782   9.597   2.099  12.272  0.0778  0.0621  0.0503
 7732W        W11783   5.399   2.914   0.803 -0.1494  0.0840 -0.4534
 7733W        W11784   0.600   0.764   0.321  0.0252  0.1233  0.3608
 7734W        W11785   9.126   2.632  12.812 -0.1156  0.1772  0.0242
 7735W        W11786   8.051   5.202   3.613 -0.0634 -0.1812 -0.0970
 7736W        W11787   7.314   9.903  12.152 -0.3487 -0.0016  0.1151
 7737W        W11788   0.253   1.856   2.274  0.3654 -0.2177 -0.0477
 7738W        W11789   9.505   6.574   3.531 -0.2248  0.0106  0.3977
 7739W        W11790   7.898   1.611   0.221  0.0421 -0.1335  0.2400
 7740W        W11791   3.195   9.643   3.899  0.0673 -0.1114  0.3715
 7741W        W11792   5.571   9.403  13.596 -0.1524  0.0861  0.4478
 7742W        W11793   2.189   5.296   0.683  0.2310 -0.1960  0.3679
 7743W        W11794   5.667   8.592   4.012 -0.0568 -0.2384  0.1827
 7744W        W11795  10.141   7.414   5.325 -0.2651 -0.1438 -0.1705
 7745W        W11796   0.490   9.610  12.050 -0.0714  0.1488 -0.0334
 7746W        W11797   5.601   3.008  11.234 -0.0925  0.3698 -0.1819
 7747W        W11798   0.101   3.037   0.365  0.1902 -0.2964 -0.2643
 7748W        W11799   0.230   1.228   1.998 -0.0496  0.0114 -0.2116
 7749W        W11800   2.672   7.082   3.063  0.1443 -0.1477 -0.2589
 7750W        W11801   5.156   0.542  10.333  0.1042  0.1028  0.1373
 7751W        W11802   8.155   5.391   0.426  0.2044 -0.0859  0.3163
 7752W        W11803   8.222   3.400   2.109 -0.0221  0.0497  0.0688
 7753W        W11804   6.260   4.637   9.275  0.3619 -0.1324  0.1101
 7754W        W11805   8.505   2.559   8.759  0.3664 -0.1905  0.3918
 7755W        W11806   4.094   7.883   1.779  0.1315 -0.0348 -0.1247
 7756W        W11807   0.946   1.001   8.960  0.2206 -0.4497  0.2246
 7757W        W11808   6.839   3.756  11.111 -0.1057  0.0836  0.0177
 7758W        W11809   0.963   6.865  13.604 -0.0025  0.0916  0.0384
 7759W        W11810   0.730   9.806   4.609  0.0546 -0.0693 -0.4266
 7760W        W11811   0.508   6.502  11.823  0.0209 -0.4195 -0.1518
 7761W        W11812   7.000   8.367  10.493 -0.0300  0.1032  0.1133
 7762W        W11813   8.406   7.773  13.465 -0.3122  0.1096 -0.1945
 7763W        W11814   1.892   0.904   9.752 -0.0358 -0.0625  0.1175
 7764W        W11815   3.701   4.926  12.400 -0.1637  0.0273  0.0148
 7765W        W11816   3.134   8.805   3.949  0.0600  0.3741 -0.1709
 7766W        W11817   0.759   8.004  11.433  0.0159  0.1453 -0.1036
 7767W        W11818   0.966   0.159   0.319  0.3883  0.1231 -0.0855
 7768W        W11819   6.550   6.192   3.764  0.1197 -0.0615 -0.1316
 7769W        W11820   9.258   1.092   0.213  0.0984 -0.1572  0.0789
 7770W        W11821   6.242   7.176   4.321  0.1505  0.1550 -0.0990
 7771W        W11822   7.410   4.945  11.154  0.2172  0.1905  0.2542
 7772W        W11823   5.974   4.505   0.312  0.4415  0.3104  0.2297
 7773W        W11824   7.919   6.632   9.338 -0.1895 -0.0227 -0.0058
 7774W        W11825   1.594   9.585  13.185  0.2118 -0.1025 -0.2114
 7775W        W11826   6.382   1.732   1.039  0.2944 -0.3367 -0.2141
 7776W        W11827   1.703   1.177  11.404  0.0140  0.3685  0.3584
 7777W        W11828   1.334   5.412   3.297  0.1122  0.2582  0.2161
 7778W        W11829   8.786   4.779  12.322  0.0762 -0.0423  0.2323
 7779W        W11830   0.195   5.656  10.424  0.0633 -0.1794  0.0730
 7780W        W11831   9.747   4.297  12.625  0.1599 -0.1794 -0.1336
 7781W        W11832   0.943   6.772  12.358 -0.2402  0.0685 -0.1930
 7782W        W11833   9.778   6.117  10.802 -0.0858 -0.0874 -0.2019
 7783W        W11834   4.636   6.520   2.906  0.3357  0.0469  0.1951
 7784W        W11835   7.449   7.367   4.967 -0.0709  0.2130  0.1082
 7785W        W11836   3.974   0.642   3.344  0.2050 -0.0313 -0.0687
 7786W        W11837   9.832   0.795  12.755 -0.2775  0.0742  0.1468
 7787W        W11838   5.684   0.278  12.463 -0.1529 -0.3149  0.2722
 7788W        W11839   8.333   7.283   3.519 -0.0668  0.1550 -0.1507
 7789W        W11840   7.368   8.799  11.015  0.0270  0.0441  0.3887
 7790W        W11841   5.607   3.943  10.810 -0.0778 -0.1437 -0.4643
 7791W        W11842   6.062   8.948   1.904 -0.2552  0.0548 -0.3572
 7792W        W11843   1.435   3.166  11.489 -0.2151 -0.0515 -0.0561
 7793W        W11844   5.250   2.624  11.549 -0.4337 -0.1661 -0.2054
 7794W        W11845   2.715   2.284  13.242 -0.2409 -0.2139  0.0553
 7795W        W11846   4.437   1.425  12.745 -0.2259  0.4147  0.1259
 7796W        W11847   0.396   0.421  13.913  0.3168 -0.1940 -0.2154
 7797W        W11848   4.826   9.165   3.059  0.1105 -0.0927 -0.3391
 7798W        W11849   4.434   8.424   2.159  0.1661  0.0707  0.1055
 7799W        W11850   2.869   7.849   5.598  0.3481 -0.2307 -0.0796
 7800W        W11851   7.153   3.232   3.019  0.2456 -0.0887  0.1548
 7801W        W11852   7.523   5.097   5.583  0.0075 -0.0059  0.1499
 7802W        W11853   8.524   0.568  12.784  0.3301  0.1239  0.0392
 7803W        W11854   7.534   2.359  10.533 -0.2325  0.1837  0.0887
 7804W        W11855   7.906   1.407   3.388  0.1848  0.0310  0.1552
 7805W        W11856   0.091   8.307   8.874 -0.0214  0.2351 -0.0791
 7806W        W11857   6.723   6.652  11.435 -0.2000  0.0557 -0.0341
 7807W        W11858   7.167   8.281   3.631  0.2375 -0.2046 -0.1765
 7808W        W11859   3.631   0.222  12.434 -0.3458 -0.0195 -0.3151
 7809W        W11860   9.940   1.409  12.749 -0.2433  0.1753  0.0529
 7810W        W11861   4.764   7.058   4.428 -0.3055  0.0910 -0.0235
 7811W        W11862   1.633   8.243   2.330  0.1757  0.0711  0.0965
 7812W        W11863   8.115   7.559   1.377  0.1958 -0.1674  0.1001
 7813W        W11864   6.372   2.219   3.961  0.0569  0.0892 -0.2575
 7814W        W11865   5.422   4.368  11.602  0.0280  0.4673 -0.0268
 7815W        W11866   9.532   4.442   2.601 -0.0266  0.0236  0.2238
 7816W        W11867   3.665   9.876   0.826  0.0927  0.1037 -0.2021
 7817W        W11868   1.913   4.352   3.006  0.1892 -0.1528 -0.3288
 7818W        W11869   5.188   6.881   1.179 -0.1967  0.1383  0.0923
 7819W        W11870   1.149   4.148   2.870 -0.1710 -0.1559 -0.1761
 7820W        W11871   4.252   2.153   9.263 -0.1054  0.3010  0.1026
 7821W        W11872   5.685   1.907  12.259  0.0906  0.0214 -0.1421
 7822W        W11873   8.965   5.555  12.811  0.3391 -0.1622 -0.1150
 7823W        W11874   9.399   9.239  11.484 -0.1446 -0.0668  0.1859
 7824W        W11875   3.662   8.549  10.763  0.1646 -0.0394  0.0525
 7825W        W11876   8.677   4.744   2.289  0.0910  0.1573 -0.3488
 7826W        W11877   9.827   6.977   5.072  0.1189  0.2762  0.1800
 7827W        W11878   7.171   1.607  10.753  0.1891 -0.2236  0.1632
 7828W        W11879   2.249   2.235   0.215  0.1232 -0.2221 -0.2117
 7829W        W11880   0.585   2.617   0.319 -0.0441 -0.4297 -0.1109
 7830W        W11881   2.529   4.736   1.645 -0.0000 -0.1738 -0.0662
 7831W        W11882   2.162   0.430   2.230 -0.1249  0.0823  0.1285
 7832W        W11883   5.631   6.981  12.845  0.4040 -0.3196  0.3023
 7833W        W11884   0.683   7.593   0.408 -0.2674  0.0726  0.2513
 7834W        W11885   0.664   7.820   9.764  0.0488  0.2592 -0.0192
 7835W        W11886   1.441   0.731   9.647  0.2139  0.4035 -0.0327
 7836W        W11887   4.193   1.222  13.723 -0.0847 -0.1334  0.3453
 7837W        W11888   5.044   9.491   2.712 -0.1878 -0.3533 -0.3619
 7838W        W11889   2.017   0.790   4.251 -0.3184  0.1481  0.0659
 7839W        W11890   2.251   0.565   0.262 -0.2357  0.0173  0.1103
 7840W        W11891   4.908   9.946   9.031  0.0363 -0.0761 -0.1993
 7841W        W11892   0.598   2.522   2.859  0.2110 -0.2830  0.1171
 7842W        W11893   9.716   7.114   1.477  0.1489 -0.2830  0.0366
 7843W        W11894   8.483   5.848   0.469  0.2169  0.2940 -0.0292
 7844W        W11895   4.975  10.093   4.042  0.2840 -0.0161  0.0203
 7845W        W11896   3.420   6.934   2.459 -0.0348  0.3339  0.1181
 7846W        W11897   7.359   0.420  11.485  0.1442 -0.2587 -0.1198
 7847W        W11898   7.862   9.136   9.157 -0.2341  0.4136  0.3461
 7848W        W11899   0.835   7.793   1.086  0.1101  0.2241 -0.2662
 7849W        W11900   7.871   6.859  10.986 -0.3893 -0.0321  0.1834
 7850W        W11901   0.999   0.012   1.549 -0.0166 -0.1474 -0.0435
 7851W        W11902   5.726   8.167   2.935 -0.0741 -0.2740  0.0030
 7852W        W11903   8.952   0.335  12.408  0.2842 -0.0312 -0.2486
 7853W        W11904   1.356   7.552   1.457  0.1305  0.0102 -0.0163
 7854W        W11905   8.197   0.595  10.626  0.0884  0.1021  0.2201
 7855W        W11906   4.427   8.919   4.233  0.1326  0.0190 -0.1458
 7856W        W11907   5.940   0.550  12.826  0.1494 -0.3258  0.0709
 7857W        W11908   0.989   8.628   0.682 -0.1075 -0.1242 -0.0257
 7858W        W11909   2.333   5.260  10.684 -0.1035 -0.0844  0.2386
 7859W        W11910   1.905   0.104   3.615  0.2202  0.2326  0.2407
 7860W        W11911   4.987   0.868   9.754 -0.1732  0.1482 -0.0068
 7861W        W11912   5.355   0.019   4.455  0.5273  0.0745  0.1094
 7862W        W11913   1.021   6.309   1.935 -0.0168  0.4067  0.0503
 7863W        W11914   2.229   4.060  13.718 -0.1114  0.1531  0.2083
 7864W        W11915   7.510   5.885   1.463  0.3674 -0.1057 -0.0991
 7865W        W11916   6.148   9.819  12.028  0.0738 -0.1796  0.5248
 7866W        W11917   4.201   6.191  13.737 -0.0186 -0.1141  0.2583
 7867W        W11918   0.131   0.686  10.994  0.0658 -0.3277  0.0109
 7868W        W11919   9.309   4.583  11.983 -0.0539 -0.0634 -0.1637
 7869W        W11920   9.523   7.008   9.394 -0.0988 -0.3241 -0.2268
 7870W        W11921   9.580   9.987  10.214  0.2857  0.1708 -0.2098
 7871W        W11922   1.159   9.976   1.996 -0.1064 -0.2070  0.1096
 7872W        W11923   2.066   5.600  10.928 -0.0553  0.1766 -0.0116
 7873W        W11924   0.702   6.585   2.193 -0.5066  0.1706  0.0750
 7874W        W11925   5.772   2.142   0.638  0.3287  0.0520  0.0038
 7875W        W11926   6.389   9.460  13.869 -0.2661 -0.0024  0.0939
 7876W        W11927   9.962   5.687   3.405 -0.1886 -0.1133 -0.2720
 7877W        W11928   0.116   2.355  12.192 -0.0688  0.1084 -0.2205
 7878W        W11929   3.404  10.029   4.169 -0.0867  0.0436 -0.0499
 7879W        W11930   7.637   8.830   2.858 -0.1745  0.1737 -0.0893
 7880W        W11931   9.718   7.578   1.675 -0.0996 -0.2208  0.3486
 7881W        W11932   8.306   4.689   4.636 -0.2643  0.1225 -0.0368
 7882W        W11933   8.622   6.617   4.128  0.1262 -0.2381 -0.0785
 7883W        W11934   8.448   9.507  13.624  0.1198  0.4540  0.3202
 7884W        W11935   6.313   0.882  12.567 -0.0161 -0.0702  0.3532
 7885W        W11936   1.743   3.726   0.123 -0.0854  0.1504 -0.2469
 7886W        W11937   4.325   1.695   1.105 -0.0094  0.1344 -0.1404
 7887W        W11938   8.393   6.240   1.538 -0.2603  0.0356 -0.3744
 7888W        W11939   6.994   7.557  12.882  0.0963  0.0599 -0.1215
 7889W        W11940   8.630   9.134   3.582  0.0638  0.2051 -0.1231
 7890W        W11941   8.580   0.204  13.159  0.0643 -0.1110  0.0550
 7891W        W11942   0.740   4.330  10.438  0.4222  0.3124 -0.0326
 7892W        W11943   7.281   3.719  10.722  0.0519  0.2175 -0.0762
 7893W        W11944   3.590   8.739   4.112  0.1021  0.0502 -0.1266
 7894W        W11945   4.561   2.013  11.631 -0.3607  0.0510 -0.0850
 7895W        W11946   4.460   3.554   0.367 -0.0988  0.1771 -0.3272
 7896W        W11947   5.853   4.718   3.446 -0.0344  0.2807 -0.0260
 7897W        W11948   8.145   3.283  11.533  0.1639 -0.1936  0.0632
 7898W        W11949   6.744   2.353   2.179 -0.0886 -0.0723 -0.3304
 7899W        W11950   6.693   8.261   4.217  0.0759  0.0847  0.1184
 7900W        W11951   2.165  10.047   0.024 -0.1469 -0.0177 -0.0384
 7901W        W11952   4.345   4.983  11.649  0.0997  0.2342 -0.1043
 7902W        W11953   5.145   7.278   3.091  0.1543 -0.2870 -0.0653
 7903W        W11954   6.370   9.091  10.908 -0.0741  0.2331 -0.2369
 7904W        W11955   4.647   2.780   3.165  0.0802  0.0228 -0.2888
 7905W        W11956   2.258   1.495   1.953  0.0138  0.2320 -0.0964
 7906W        W11957   5.554   8.756   4.817  0.0568  0.1279 -0.1472
 7907W        W11958   7.403   1.163  10.676  0.2366  0.0328 -0.1906
 7908W        W11959   5.018   5.706  13.014 -0.1816  0.3164 -0.1817
 7909W        W11960   5.094   8.175  11.241  0.1898 -0.0971 -0.0460
 7910W        W11961   4.231   6.742  10.462 -0.2008  0.0981  0.0646
 7911W        W11962   2.920   1.052   0.990 -0.4261 -0.4120  0.0182
 7912W        W11963   2.795   4.186   2.396 -0.0496 -0.0244 -0.3509
 7913W        W11964   6.466   7.516   2.038 -0.0114 -0.0090  0.0551
 7914W        W11965   2.814   0.368   3.520  0.1077  0.3458 -0.2176
 7915W        W11966   3.658   4.868  11.037  0.2354 -0.0045  0.1811
 7916W        W11967   8.829   3.802   0.897  0.0999 -0.1042  0.3020
 7917W        W11968   9.409   4.737   8.935 -0.1689  0.3625 -0.1169
 7918W        W11969   8.300   4.938  10.252 -0.0080  0.1556 -0.1981
 7919W        W11970   8.179   2.160  11.084 -0.1273 -0.0822 -0.1321
 7920W        W11971   1.278   8.013  10.310 -0.6091  0.2127  0.1933
 7921W        W11972   3.693   6.873  10.042 -0.1667 -0.0310  0.0093
 7922W        W11973   7.206   4.695   0.445  0.1726  0.1797 -0.1655
 7923W        W11974   7.593   9.301  12.971 -0.2574  0.0319 -0.0163
 7924W        W11975   6.364   0.630  12.065 -0.3257  0.0348  0.0227
 7925W        W11976   1.330   6.716   3.488  0.1660  0.2313  0.0600
 7926W        W11977   2.566   8.832   3.132 -0.3166 -0.0973  0.1578
 7927W        W11978   5.131   3.362   2.300 -0.1112  0.0731  0.1494
 7928W        W11979   0.738   9.562  10.249 -0.0478 -0.1457  0.1651
 7929W        W11980   9.001   4.330   2.947 -0.1347  0.1893  0.1064
 7930W        W11981   6.648   7.459   4.420  0.3296 -0.0416 -0.2264
 7931W        W11982   6.094   0.355  10.357 -0.1211  0.0582 -0.0365
 7932W        W11983   7.805   8.458  13.077  0.2254 -0.1623 -0.1280
 7933W        W11984   5.823   1.091   0.734 -0.0229  0.2604  0.1319
 7934W        W11985   7.098   5.668   3.089  0.0296  0.2027  0.0189
 7935W        W11986   1.568   1.361  12.768  0.0781 -0.1813 -0.2649
 7936W        W11987   6.947   0.877  10.466 -0.0994 -0.2767 -0.0946
 7937W        W11988   2.017   1.722   2.514 -0.3032 -0.1178  0.3099
 7938W        W11989   2.014   3.865   3.335  0.1420  0.2088 -0.3028
 7939W        W11990   2.499   7.166   2.408 -0.0546 -0.1105  0.1923
 7940W        W11991   2.280   6.689  11.243 -0.2605  0.2051  0.0326
 7941W        W11992   4.947   4.840  11.381 -0.1436 -0.2513  0.0608
 7942W        W11993   9.426   5.472   4.611  0.0173  0.3308 -0.1231
 7943W        W11994   1.560   1.928  12.510 -0.1595  0.2093 -0.0338
 7944W        W11995   8.469   4.426   5.405  0.1480 -0.1148 -0.0235
 7945W        W11996   3.030   8.066  12.939 -0.2107 -0.0683  0.1176
 7946W        W11997   9.101   7.111  12.164 -0.2434  0.1853  0.0739
 7947W        W11998   0.288   4.180   4.889 -0.1457 -0.0998 -0.1704
 7948W        W11999   7.187   4.072   0.951 -0.0219  0.0897 -0.2152
 7949W        W12000   4.870   0.957   4.358 -0.0141 -0.0092  0.0325
 7950W        W12001   4.644   1.476   3.573  0.2789  0.0516 -0.3632
 7951W        W12002   3.251   3.301  11.299 -0.1225  0.1695  0.0399
 7952W        W12003   4.563   3.189  10.523 -0.0883 -0.0575  0.1157
 7953W        W12004   4.535   7.567   4.612  0.1427  0.0702 -0.1964
 7954W        W12005   6.917   6.968   3.791  0.2263  0.2042 -0.1833
 7955W        W12006   8.381   9.491   4.980  0.0606  0.0308 -0.3177
 7956W        W12007   6.091   5.645   3.101 -0.1809 -0.0914  0.0148
 7957W        W12008   9.121   7.423   0.862 -0.1502 -0.0725 -0.2094
 7958W        W12009   6.682   4.776   3.279  0.1013 -0.0074  0.1282
 7959W        W12010   9.883   4.898  10.146  0.0105 -0.0034  0.1440
 7960W        W12011   9.040   3.780   3.093 -0.1651  0.4635  0.3688
 7961W        W12012   0.144   2.281   9.928  0.0862  0.0277  0.1327
 7962W        W12013   6.983   4.960  13.094  0.2804 -0.1477 -0.0341
 7963W        W12014   6.933   7.754   2.773 -0.1512  0.0930  0.0593
 7964W        W12015   2.745   9.799  10.893 -0.1706 -0.1850  0.2244
 7965W        W12016   5.646   7.815  11.356  0.1301  0.1402  0.1328
 7966W        W12017   7.950   2.304   0.782  0.3287  0.0812 -0.1736
 7967W        W12018   4.215   4.968   4.127  0.2130  0.2368 -0.3237
 7968W        W12019   0.346   3.656   2.023  0.1144 -0.1429 -0.0096
 7969W        W12020   1.898   9.531  11.079  0.2047  0.0664 -0.1161
 7970W        W12021   9.744   2.888   2.863  0.3227  0.1335 -0.2017
 7971W        W12022   3.261   0.845  10.983 -0.1013 -0.1463  0.2534
 7972W        W12023   1.637   0.491   2.364 -0.2081  0.3981  0.0332
 7973W        W12024   2.377   0.498   4.577  0.0612 -0.1286 -0.3214
 7974W        W12025   7.539   9.454   4.513 -0.0160  0.0050  0.1510
 7975W        W12026   2.682   2.597  11.176  0.3137 -0.4759 -0.0598
 7976W        W12027   4.856   4.315  12.635  0.1458  0.1007  0.2503
 7977W        W12028   0.319   9.271   5.127 -0.0241 -0.0333 -0.1119
 7978W        W12029   0.559   2.094   3.140  0.0180  0.1127 -0.0523
 7979W        W12030   7.852   8.152   8.833  0.0762 -0.0529  0.0221
 7980W        W12031   7.426   5.032  12.809  0.1035  0.0321  0.4918
 7981W        W12032   4.044   8.916  10.894  0.0228 -0.5539 -0.2233
 7982W        W12033   6.372   4.469  12.216 -0.0482 -0.3007 -0.0405
 7983W        W12034   8.768   5.883  13.725  0.0025 -0.1713  0.0791
 7984W        W12035   1.950   9.748  12.846  0.4946 -0.0461  0.1550
 7985W        W12036   9.114   9.037   9.353 -0.1256  0.0922  0.1918
 7986W        W12037   0.291   5.719  12.137  0.0394  0.1103 -0.1118
 7987W        W12038   5.184   0.262   4.908 -0.2694 -0.2479  0.0528
 7988W        W12039   6.378   4.433  10.531 -0.1267 -0.1989  0.3842
 7989W        W12040   1.794   5.373   3.033 -0.0825 -0.0457 -0.2233
 7990W        W12041   4.688   7.141  11.413  0.0120 -0.0472 -0.1011
 7991W        W12042   2.461   2.348  10.372  0.0582  0.0341  0.5280
 7992W        W12043   9.680   9.548  11.092  0.2464  0.1065 -0.0352
 7993W        W12044   0.290   7.259   0.404  0.3860 -0.1767  0.2454
 7994W        W12045   3.340   4.322  11.829  0.4698  0.1554  0.0461
 7995W        W12046   5.402   5.387  12.795  0.1353  0.2409 -0.2165
 7996W        W12047   5.626   7.195   1.566  0.0277 -0.0176  0.0275
 7997W        W12048   3.759   6.497  13.921  0.0468 -0.2893  0.4703
 7998W        W12049   8.909   5.726   9.770 -0.0483  0.1855  0.2852
 7999W        W12050   4.819   4.880  13.712 -0.0536  0.1154  0.0871
 8000W        W12051   9.945   2.824   9.152 -0.1504  0.0726 -0.2966
 8001W        W12052   5.066   6.828  13.007  0.3081 -0.2710  0.2374
 8002W        W12053   6.146   8.995  10.039 -0.1121 -0.1670 -0.0570
 8003W        W12054   0.809   4.046   3.397 -0.0915  0.0542  0.0983
 8004W        W12055   8.723   2.473   2.702  0.0689 -0.0595 -0.1143
 8005W        W12056   2.527   6.762  12.069  0.6272  0.2013  0.1850
 8006W        W12057   4.618   8.254   3.025 -0.1527  0.0603  0.1190
 8007W        W12058   4.977   5.208   1.296 -0.0352  0.0256  0.1838
 8008W        W12059   0.606   4.241   1.950  0.1246  0.2025 -0.0465
 8009W        W12060   5.478   2.992   2.467 -0.1476 -0.0166 -0.0066
 8010W        W12061   4.725   8.745   9.751 -0.0341 -0.0273 -0.2635
 8011W        W12062   0.783   8.104   2.182  0.1710 -0.3114 -0.0460
 8012W        W12063   6.553   3.647  12.381 -0.1112 -0.1911 -0.2678
 8013W        W12064   9.071   4.563  13.911  0.0500  0.1661 -0.0916
 8014W        W12065   0.666   1.021   1.153  0.1675  0.2525  0.0844
 8015W        W12066   7.129   6.432   2.260  0.0470  0.1700 -0.2823
 8016W        W12067   4.958   2.855   2.662  0.1293 -0.1772  0.2288
 8017W        W12068   7.003   2.665   3.360  0.1415 -0.1465 -0.1892
 8018W        W12069   3.137   7.791   5.096 -0.1680 -0.0188 -0.1398
 8019W        W12070   9.652   7.962   1.210 -0.2695  0.0044  0.0560
 8020W        W12071   9.326   0.179   1.711 -0.1183  0.0197  0.1960
 8021W        W12072   7.559   5.565  12.074 -0.0021  0.1460 -0.0091
 8022W        W12073   2.464   7.621   0.017 -0.2514  0.0805 -0.4841
 8023W        W12074   3.635   9.732   4.701  0.4133 -0.0627 -0.1844
 8024W        W12075   4.434   8.549   0.041 -0.0886  0.0195  0.3772
 8025W        W12076   1.771   1.699   1.761 -0.5769  0.2366 -0.4053
 8026W        W12077   6.003   8.024   4.658  0.1130  0.2239  0.0880
 8027W        W12078   2.269   6.122  11.259 -0.0439 -0.2304  0.2997
 8028W        W12079   7.309   0.711  12.125 -0.1845 -0.3368 -0.1781
 8029W        W12080   7.990   4.702   9.977  0.0951 -0.1737 -0.1133
 8030W        W12081   1.064   2.727  11.485  0.1075 -0.0923 -0.1689
 8031W        W12082   9.590   6.019  10.281 -0.2373 -0.2962 -0.0607
 8032W        W12083   2.594   6.842  11.563  0.0828 -0.1943 -0.1304
 8033W        W12084   5.859   5.320   0.164 -0.1500  0.0916  0.0310
 8034W        W12085   6.727   3.375  11.990  0.3225  0.3504 -0.0734
 8035W        W12086   8.784   6.234   3.753 -0.1932 -0.1979 -0.3122
 8036W        W12087   3.942   3.969   2.166  0.0997 -0.0775  0.0985
 8037W        W12088   3.054   3.383  10.635 -0.0930  0.1081 -0.2665
 8038W        W12089   3.275   9.905  10.938 -0.1255 -0.5424 -0.2476
 8039W        W12090   8.069   2.104   5.246  0.2059  0.1293  0.0911
 8040W        W12091   0.094   7.346  12.975  0.1666  0.0954 -0.0094
 8041W        W12092   0.782   0.597  11.438 -0.0555  0.1635  0.0590
 8042W        W12093   7.628   3.911  10.354  0.2094 -0.0452  0.0487
 8043W        W12094   8.569   4.956   9.085  0.3274 -0.0117  0.0463
 8044W        W12095   4.891   9.777  11.337  0.1637 -0.1035  0.1579
 8045W        W12096   5.167   9.780  12.934 -0.1078  0.0836  0.0364
 8046W        W12097   7.389   6.697   3.725  0.0920 -0.0495  0.1051
 8047W        W12098   9.906   3.764   2.827  0.0419  0.5183 -0.3050
 8048W        W12099   7.982   4.759  11.535  0.1283  0.0664 -0.4649
 8049W        W12100   5.721   2.892  13.908  0.0196 -0.2211  0.0785
 8050W        W12101   1.408   7.840   1.057  0.0595 -0.0213  0.2599
 8051W        W12102   9.369   2.958  11.752  0.3040  0.3312  0.0971
 8052W        W12103   1.226   3.563  13.368 -0.0646 -0.2716 -0.0422
 8053W        W12104   2.821   0.094   1.847  0.0538 -0.1006 -0.0927
 8054W        W12105   9.183   8.384   0.805 -0.0448 -0.1430  0.3754
 8055W        W12106   5.358   7.447  11.997 -0.1317  0.0752  0.4020
 8056W        W12107   8.619   4.324   2.574 -0.0242  0.1012  0.1926
 8057W        W12108   2.355   4.009   2.472  0.0949 -0.1007  0.1753
 8058W        W12109   3.190   2.742  12.432  0.0843  0.1650 -0.3693
 8059W        W12110   2.791   1.805   1.260  0.1116 -0.0216  0.3135
 8060W        W12111   6.016   3.088  10.936  0.5134  0.0416  0.0199
 8061W        W12112   9.616   4.031  10.460  0.1585  0.1547 -0.0888
 8062W        W12113   4.221   1.547   3.391  0.1357 -0.1302 -0.0275
 8063W        W12114   5.118   1.986  12.985 -0.2808 -0.0463 -0.0607
 8064W        W12115   7.673   0.183  12.325  0.0179  0.2461 -0.1152
 8065W        W12116   6.659   8.804  11.833 -0.0541 -0.2767 -0.0863
 8066W        W12117   2.499   8.034   9.969 -0.4732 -0.2489  0.1504
 8067W        W12118   1.523   4.687   1.548  0.1404  0.1325  0.1028
 8068W        W12119   0.874   0.120   2.288  0.1901 -0.0096  0.0701
 8069W        W12120   2.492   6.123  13.092 -0.0807  0.2022  0.2473
 8070W        W12121   6.516   6.700   3.707  0.2324 -0.0431  0.0885
 8071W        W12122   0.442   1.902  10.170  0.0950  0.1182  0.2605
 8072W        W12123   7.107   9.500   4.211 -0.1656  0.1533  0.1500
 8073W        W12124   3.184   9.815  11.468 -0.0799  0.0367  0.0801
 8074W        W12125   5.952   4.642  12.921  0.2190  0.1392  0.0814
 8075W        W12126   2.197   2.546   1.034 -0.2547  0.1099  0.0769
 8076W        W12127   8.326   5.381   8.879 -0.1589  0.0424  0.0159
 8077W        W12128   3.473   1.401   3.269 -0.1001  0.2260 -0.3305
 8078W        W12129   1.784   3.456  13.561 -0.3081  0.2956  0.0958
 8079W        W12130   6.176   5.720  12.578  0.0703  0.3101  0.3006
 8080W        W12131   8.051   1.754  11.949  0.1858 -0.3050 -0.2485
 8081W        W12132   3.974   0.328  10.137  0.0895 -0.1026 -0.4426
 8082W        W12133   8.645   7.534  10.853 -0.1188  0.3558  0.1524
 8083W        W12134   4.485   8.984   1.338 -0.1796 -0.0235  0.0222
 8084W        W12135   3.158   8.866  12.524 -0.1233 -0.1806  0.2111
 8085W        W12136   9.453   0.480   9.501  0.3744  0.0159  0.0683
 8086W        W12137   9.554   8.333  11.720  0.3858 -0.1150 -0.1197
 8087W        W12138   0.495   8.464   9.223  0.1349  0.1399  0.0174
 8088W        W12139   0.167   9.140   4.681  0.0103  0.0726 -0.0120
 8089W        W12140   5.137   1.573   2.892  0.1888 -0.3194  0.2942
 8090W        W12141   5.205   0.425  12.308  0.2517 -0.0592  0.1075
 8091W        W12142   7.944   9.422  13.878 -0.1386  0.1680  0.2323
 8092W        W12143   2.995   1.465  12.851 -0.1326  0.0900  0.1767
 8093W        W12144   1.696   9.176  11.476 -0.1003 -0.1647 -0.1833
 8094W        W12145   3.256   8.523  12.043  0.0472 -0.3419  0.1731
 8095W        W12146   7.955   2.055  10.638  0.1808 -0.0513 -0.2387
 8096W        W12147   6.460   4.302   2.298 -0.0873  0.0440 -0.0346
 8097W        W12148   6.450   2.748  13.684 -0.0626  0.0562 -0.2429
 8098W        W12149   7.509   1.938   4.403 -0.0628 -0.1735 -0.1682
 8099W        W12150  10.149   1.796   3.092  0.3483 -0.0400  0.2775
 8100W        W12151   2.315   5.416   0.229 -0.1862  0.0186 -0.1201
 8101W        W12152   5.914   2.634   4.738  0.1016 -0.0659  0.3217
 8102W        W12153   8.821   9.169   4.840  0.0090  0.3151  0.3640
 8103W        W12154   4.617   4.450   0.057 -0.1931  0.2426  0.4288
 8104W        W12155   9.296   1.734  12.053  0.1045 -0.1265 -0.0570
 8105W        W12156   3.810   4.409   0.451 -0.0651  0.2472 -0.0781
 8106W        W12157   8.530   7.905   5.123  0.1217 -0.0751  0.0853
 8107W        W12158   9.008   8.332   3.251 -0.2372  0.0151  0.0670
 8108W        W12159   6.835   6.083   4.330 -0.0168 -0.1253  0.0374
 8109W        W12160   4.247   5.543   1.862  0.0661 -0.0729 -0.2020
 8110W        W12161   5.157   7.659  11.427 -0.0855 -0.2012  0.0235
 8111W        W12162   0.558   2.092   1.968  0.1504  0.0177 -0.2221
 8112W        W12163   9.993   6.962   1.097 -0.1457 -0.2633  0.1318
 8113W        W12164   9.493   0.095   8.952 -0.0756  0.1042  0.0179
 8114W        W12165   8.871   4.851  11.473  0.0700  0.3691 -0.2396
 8115W        W12166   7.054   5.001   3.512 -0.0222 -0.2160 -0.0496
 8116W        W12167   8.358   8.421   4.545  0.1430 -0.0668 -0.0601
 8117W        W12168   1.286   8.642  13.048 -0.2447  0.1266  0.1251
 8118W        W12169   7.818   8.486   9.802  0.1156  0.2398 -0.3166
 8119W        W12170   4.148   1.689  11.332 -0.1088  0.0296 -0.0470
 8120W        W12171   5.510   2.537  11.089 -0.2932 -0.2799  0.2616
 8121W        W12172   1.625   7.880   1.774  0.1225  0.0814 -0.0744
 8122W        W12173   6.162   7.620  12.987 -0.1527 -0.0736 -0.0779
 8123W        W12174   4.859   4.770   2.502  0.1686 -0.2118  0.2190
 8124W        W12175   8.900   6.698   2.841 -0.2436 -0.0762 -0.2203
 8125W        W12176   0.935   5.562   2.933  0.0767  0.0986 -0.0263
 8126W        W12177   7.313   3.159   0.599  0.3009 -0.0095  0.0923
 8127W        W12178   0.226   6.869   2.812  0.2095 -0.3082 -0.1617
 8128W        W12179  10.129   1.288  10.300  0.0748  0.1075 -0.1502
 8129W        W12180   4.894   8.306   8.971 -0.1888 -0.0356  0.0218
 8130W        W12181   9.754   0.760   2.077 -0.0690  0.1920 -0.1281
 8131W        W12182   9.743   0.441  10.355  0.3536  0.1372 -0.0467
 8132W        W12183   4.904  10.030   9.599 -0.0245 -0.2688 -0.2857
 8133W        W12184   1.979   2.682  13.570 -0.3207  0.1169 -0.3204
 8134W        W12185   9.925   1.728   0.239 -0.1171 -0.1400  0.0365
 8135W        W12186   6.249   8.846  12.100  0.0278  0.1158 -0.0409
 8136W        W12187   7.716   3.600   2.381 -0.0286 -0.2050 -0.0897
 8137W        W12188   6.762   9.442  12.715 -0.0783 -0.2055  0.0265
 8138W        W12189   0.773   1.279  11.676 -0.1224  0.0787 -0.1075
 8139W        W12190   0.763   2.254  10.391 -0.4352 -0.0997  0.3276
 8140W        W12191   2.770   0.233   4.851 -0.0602 -0.1323 -0.0633
 8141W        W12192   0.149   0.069   3.745  0.1820  0.2417  0.2400
 8142W        W12193   1.818   5.391  11.383 -0.2575 -0.1140 -0.0155
 8143W        W12194   2.760   2.166   2.478  0.2014 -0.1324 -0.3511
 8144W        W12195   4.260   1.308   1.895  0.1645  0.0613  0.2112
 8145W        W12196   0.842   4.430  11.381  0.1525  0.0510  0.2424
 8146W        W12197   5.120   6.883  13.696 -0.0899 -0.2243 -0.1014
 8147W        W12198   7.253   9.187   0.980 -0.0905  0.0858  0.0406
 8148W        W12199   8.139   8.135   2.257  0.1197  0.0376  0.0789
 8149W        W12200   5.951   9.545   4.368  0.3220  0.1250 -0.1160
 8150W        W12201   1.960   8.483   2.023 -0.1866 -0.0097 -0.0519
 8151W        W12202   7.044   8.351   1.063  0.0272 -0.2174 -0.1064
 8152W        W12203   7.720   5.652  11.606  0.1378 -0.0655 -0.0989
 8153W        W12204   6.188   4.440  11.034  0.1198 -0.0601 -0.2451
 8154W        W12205   1.936   7.666   4.220 -0.0004  0.2952 -0.1377
 8155W        W12206   8.705   5.508   9.234  0.2838 -0.2453 -0.3168
 8156W        W12207   3.342   5.307   0.265  0.2392 -0.1516  0.3845
 8157W        W12208   2.289   0.981   0.006 -0.6485  0.1272 -0.1900
 8158W        W12209   8.772   3.917   4.301 -0.2011  0.0381 -0.0881
 8159W        W12210   9.756   9.266   9.597 -0.0637 -0.0822 -0.3418
 8160W        W12211   3.127   7.377  11.005 -0.1251  0.1574  0.2414
 8161W        W12212   9.026   8.899  13.542  0.0118 -0.2563  0.0080
 8162W        W12213   9.340   5.634  13.789  0.3128 -0.1044  0.1663
 8163W        W12214   0.577   7.700  10.704 -0.1048 -0.3481  0.1677
 8164W        W12215   9.817   3.445   1.547 -0.0948 -0.1927  0.0269
 8165W        W12216   2.404   2.151   4.771 -0.0131  0.2912 -0.1430
 8166W        W12217   1.752   9.016   1.652 -0.0594  0.1480 -0.0557
 8167W        W12218   7.869   7.149   0.528  0.2885  0.3149 -0.0197
 8168W        W12219   4.975   2.789  11.107  0.0755  0.0613  0.2190
 8169W        W12220   5.945   9.467  12.296 -0.1690  0.0203 -0.0039
 8170W        W12221   0.557   8.504   2.594 -0.0824  0.1835 -0.0415
 8171W        W12222   5.428   8.342  13.825  0.0778  0.0591  0.1646
 8172W        W12223   5.327   4.465   5.127 -0.3932 -0.0142  0.0435
 8173W        W12224   9.582   2.141   3.887 -0.0592  0.0387  0.0595
 8174W        W12225   7.902   3.050   2.518 -0.0772  0.1391 -0.0596
 8175W        W12226   2.238   5.240  11.643 -0.0490 -0.1757 -0.0218
 8176W        W12227   5.128   2.314  12.430 -0.2986  0.1690 -0.1607
 8177W        W12228   9.539   4.932  10.944 -0.0405  0.1725 -0.0599
 8178W        W12229   0.005   6.915  11.259 -0.0768 -0.1753  0.0275
 8179W        W12230   5.970   9.840  10.438  0.0626 -0.0835 -0.4087
 8180W        W12231   3.741   5.341   1.838 -0.2566 -0.2178  0.2075
 8181W        W12232   4.711   0.489   2.008 -0.1892 -0.0863  0.0982
 8182W        W12233   1.438  10.173   3.746  0.1075  0.1613  0.0800
 8183W        W12234   6.346   6.394   1.679  0.1403  0.1709 -0.2732
 8184W        W12235   3.345   0.821  12.135 -0.3369  0.1987  0.5109
 8185W        W12236   2.268   7.344  13.636  0.1596  0.1268  0.0474
 8186W        W12237   5.648   7.550  12.948  0.0836  0.0814  0.2125
 8187W        W12238   6.124   1.295   3.125 -0.1319  0.1184 -0.1711
 8188W        W12239   0.207   0.541   3.312 -0.8265  0.0502  0.1033
 8189W        W12240   8.027   2.891   0.755  0.0269 -0.1598  0.1454
 8190W        W12241   1.496   9.491  11.956  0.0487  0.0484  0.0478
 8191W        W12242   3.894   6.368  11.697 -0.3949 -0.0485 -0.0554
 8192W        W12243   1.201   2.249   2.479 -0.2445  0.0711 -0.0179
 8193W        W12244   3.995   9.006  13.136  0.0495 -0.0675  0.3192
 8194W        W12245  10.135   3.304  13.708 -0.2662 -0.1963  0.1649
 8195W        W12246   2.058   0.044   3.093 -0.2328 -0.0124 -0.1919
 8196W        W12247  10.084   9.560   9.940  0.1452  0.1182  0.0588
 8197W        W12248   3.823   1.880   9.988  0.1734  0.0856 -0.0160
 8198W        W12249   5.101   8.816   3.722  0.0690 -0.2006 -0.1901
 8199W        W12250   8.987   6.252   2.446 -0.1671 -0.2987 -0.0820
 8200W        W12251   6.525   2.210  11.996  0.2486 -0.2085  0.0702
 8201W        W12252   0.248   1.541  13.042  0.0869  0.1929  0.1687
 8202W        W12253   7.395   4.338   4.858  0.0700 -0.0572  0.0749
 8203W        W12254   4.056   6.033   3.294  0.0115  0.1770  0.0800
 8204W        W12255   1.666   9.869  10.621 -0.2146  0.0697 -0.0602
 8205W        W12256   7.711   2.873   9.763  0.1272  0.1489  0.0828
 8206W        W12257   5.641   9.569   1.330 -0.2083 -0.0500 -0.0330
 8207W        W12258   1.231   9.718  12.663  0.0875 -0.2681 -0.0298
 8208W        W12259   9.097   6.238  13.766 -0.3449  0.1376  0.2523
 8209W        W12260   2.036   4.876  12.979 -0.0222 -0.3343 -0.2652
 8210W        W12261   1.535   9.590   1.745 -0.1167 -0.3072  0.0852
 8211W        W12262   8.500   5.872   5.163  0.3911 -0.4933  0.0582
 8212W        W12263   1.854   4.936  11.619 -0.2105  0.1393  0.1555
 8213W        W12264   8.861   7.633   2.592 -0.1013 -0.2790  0.2209
 8214W        W12265   1.053   9.936   9.455 -0.3101  0.1703  0.0254
 8215W        W12266   8.948   5.848  11.022 -0.2660 -0.1214  0.3240
 8216W        W12267   8.804   6.147   0.618  0.1931 -0.2023  0.0983
 8217W        W12268   8.103   9.281   9.896  0.0224 -0.1243 -0.1459
 8218W        W12269   0.778   5.268  10.941  0.2361  0.0120  0.0530
 8219W        W12270   9.444   4.240   8.704 -0.1958  0.0521  0.0390
 8220W        W12271   0.048   2.675   2.955  0.3044 -0.1313 -0.0065
 8221W        W12272   8.368   2.486  13.889  0.1394 -0.1284 -0.0688
 8222W        W12273   1.395   0.039   1.289  0.0479  0.0985  0.3859
 8223W        W12274   4.397   6.324   3.924  0.3764  0.4659  0.0026
 8224W        W12275   2.003   6.862   3.722 -0.1211 -0.1055 -0.0561
 8225W        W12276   2.299   9.814  11.313  0.0198 -0.1581  0.0661
 8226W        W12277   5.849   1.482   2.345 -0.0831 -0.0240  0.0185
 8227W        W12278   9.062   2.429  10.974  0.2885 -0.1527  0.1607
 8228W        W12279   2.343   6.093   1.816 -0.0612 -0.3056 -0.0317
 8229W        W12280   0.730   6.039   1.562  0.0743 -0.1124  0.0410
 8230W        W12281   6.316   9.502   1.879 -0.2405  0.0833 -0.2760
 8231W        W12282   7.506   9.271  12.490 -0.2030  0.1323  0.2904
 8232W        W12283   1.710   3.250   1.002 -0.3388  0.0283 -0.0864
 8233W        W12284   9.418   4.534   9.979  0.1302  0.1509  0.0184
 8234W        W12285   4.479   6.451   3.476 -0.2654  0.1216 -0.1005
 8235W        W12286   4.164   9.384  12.867  0.0165  0.0768 -0.3217
 8236W        W12287   9.493   4.161  12.216 -0.0191  0.0050  0.0518
 8237W        W12288   5.671   6.254   0.118  0.1330  0.0741  0.0438
 8238W        W12289   6.867   8.510  11.443  0.0121  0.2504 -0.2172
 8239W        W12290   4.644   9.155   4.605  0.2259  0.0823 -0.0821
 8240W        W12291   7.093   7.162   9.104 -0.1372 -0.2861 -0.1871
 8241W        W12292   5.547   1.618   0.727 -0.2373  0.0900 -0.1725
 8242W        W12293   9.528   3.973   1.537  0.1601 -0.1425  0.1772
 8243W        W12294   6.892   7.967   3.419  0.2261 -0.2331 -0.3045
 8244W        W12295   4.426   6.645  11.626  0.2886  0.1070  0.0679
 8245W        W12296   2.654   1.367  10.247 -0.1617 -0.1677 -0.1850
 8246W        W12297   1.927   0.911   2.416  0.0088  0.2444 -0.0793
 8247W        W12298   6.374   2.471  11.586  0.0846  0.1477 -0.1343
 8248W        W12299   4.750   7.824  12.544  0.7582  0.2207 -0.0434
 8249W        W12300   0.126   6.489  11.490 -0.0801 -0.0881  0.0707
 8250W        W12301   3.518   6.486   2.084 -0.1266 -0.1391 -0.3739
 8251W        W12302   0.930   1.324  10.829  0.0783 -0.0327  0.4449
 8252W        W12303   0.370   9.354   0.465  0.0104 -0.2289  0.0040
 8253W        W12304   4.497   3.212   1.782  0.2165  0.0073 -0.0606
 8254W        W12305   8.124   6.487  13.416 -0.0872  0.1483 -0.3143
 8255W        W12306   9.867   4.322   0.316  0.0578 -0.0115  0.1021
 8256W        W12307   1.937   0.953  10.595  0.0031 -0.0315  0.0405
 8257W        W12308   9.324   5.538   2.933  0.2223  0.1285 -0.2946
 8258W        W12309   3.524   8.650   1.501 -0.0345  0.1939 -0.0568
 8259W        W12310   3.806   9.732   4.115  0.0375  0.1938  0.2416
 8260W        W12311   3.360   2.220  13.836 -0.1245  0.2842  0.0062
 8261W        W12312   9.130   5.040   2.176  0.2986 -0.4379  0.2571
 8262W        W12313   1.905   4.310   1.579 -0.2341 -0.3286  0.2791
 8263W        W12314   1.560  10.088   1.712 -0.1019 -0.2800 -0.0266
 8264W        W12315   7.010   6.694  11.865  0.2096 -0.0652 -0.1640
 8265W        W12316   5.944   9.600   2.803  0.2524 -0.1039  0.3197
 8266W        W12317   7.216   4.735   3.944  0.1036 -0.4340 -0.0625
 8267W        W12318   4.216   0.105  13.140  0.3032 -0.0657 -0.4769
 8268W        W12319  10.188   4.496  12.378  0.0298 -0.0761  0.6565
 8269W        W12320   3.474   3.387   0.819 -0.1692  0.1462 -0.2112
 8270W        W12321   3.174   5.287  13.317  0.1120  0.2106 -0.0928
 8271W        W12322   4.594   0.743   1.502 -0.1513 -0.1787 -0.1592
 8272W        W12323   8.484   5.528   2.755  0.1514 -0.2275 -0.1831
 8273W        W12324   5.102   6.381   4.693  0.0416  0.0496  0.3937
 8274W        W12325   9.080   4.072  10.655 -0.2165  0.0334 -0.0785
 8275W        W12326   6.100   3.138  10.440 -0.2220 -0.2143  0.0492
 8276W        W12327   7.526   7.016   2.445 -0.3683 -0.1696  0.0152
 8277W        W12328   8.846   3.656   9.808 -0.0877  0.4458  0.1486
 8278W        W12329   8.205   2.650   0.394  0.0823  0.1700 -0.0710
 8279W        W12330   0.030   8.183   5.169  0.0610  0.0640 -0.0627
 8280W        W12331   5.920   6.150  12.764  0.1535  0.0975 -0.0675
 8281W        W12332   3.256   6.862   0.255 -0.2495 -0.2340 -0.3848
 8282W        W12333   9.619   8.766   9.687  0.3024 -0.1139 -0.1304
 8283W        W12334   4.606   5.001   0.248  0.0671 -0.1153 -0.2820
 8284W        W12335   7.206   4.126  12.628  0.0347  0.0651  0.1313
 8285W        W12336   2.345   7.474   2.826 -0.2974 -0.1447  0.0789
 8286W        W12337   6.464   4.816   0.367  0.1952 -0.1312  0.1333
 8287W        W12338   7.033   5.859   1.517 -0.0056 -0.0802 -0.1032
 8288W        W12339   8.064   0.420   3.181 -0.0491  0.0618  0.1399
 8289W        W12340   7.549   1.267  12.076  0.0024  0.1369 -0.0905
 8290W        W12341   9.125   0.751   3.453 -0.0735 -0.1727  0.1084
 8291W        W12342   7.485   4.517   2.517  0.1783  0.0013 -0.1037
 8292W        W12343   5.253   2.477  13.874  0.0549  0.1411 -0.2525
 8293W        W12344   5.486   0.438  13.611  0.0450  0.2593 -0.0909
 8294W        W12345   3.168   4.644  11.072 -0.1877 -0.0576  0.0118
 8295W        W12346   5.482   8.023  10.948 -0.2254 -0.1733  0.1361
 8296W        W12347   7.517   2.642  12.729  0.2157 -0.1497 -0.2112
 8297W        W12348   0.787   8.316   4.675  0.0194  0.2310  0.2386
 8298W        W12349   4.027   2.607  11.353 -0.3074 -0.0253 -0.2157
 8299W        W12350   1.296   5.910   3.211  0.2786  0.1016  0.0489
 8300W        W12351   8.102   8.443  12.634  0.1418  0.0388 -0.1888
 8301W        W12352   6.586   8.399   9.264 -0.0223 -0.3484 -0.1330
 8302W        W12353   0.097   5.629  12.615 -0.2518  0.3139 -0.0293
 8303W        W12354   2.495   6.358  11.699  0.2363  0.0106 -0.0888
 8304W        W12355   5.188   0.667   0.822  0.0184  0.0929  0.1041
 8305W        W12356   3.208   9.981   0.943  0.1417  0.1903  0.0354
 8306W        W12357   9.009   3.088   0.356 -0.1280  0.1790  0.3473
 8307W        W12358   1.657   7.171   4.063 -0.0527  0.0970  0.0717
 8308W        W12359   4.369   7.115  10.754 -0.1929 -0.1172  0.0682
 8309W        W12360   1.365   8.041   3.210 -0.4212  0.0065  0.2786
 8310W        W12361   1.011   4.570  13.770 -0.2439 -0.1871 -0.2608
 8311W        W12362   5.967   5.682  11.320  0.0636 -0.2094  0.0987
 8312W        W12363   5.413   4.223   1.715 -0.1211  0.0149  0.1573
 8313W        W12364   6.509   4.987   9.509  0.0023  0.1037  0.0497
 8314W        W12365   9.549   3.087   2.042  0.1204 -0.2517  0.0119
 8315W        W12366   3.945   3.147   1.149 -0.2579 -0.0926 -0.1599
 8316W        W12367   9.322   4.636  13.505 -0.2436 -0.0703  0.2305
 8317W        W12368   3.868   3.681  12.786 -0.0127  0.1580 -0.3006
 8318W        W12369   3.271   5.728  10.490  0.1228  0.0618  0.0983
 8319W        W12370   3.174   4.545   2.257 -0.2489 -0.1789  0.1171
 8320W        W12371   2.093   3.995  11.520  0.2197  0.1174 -0.0727
 8321W        W12372   1.471   0.866   4.131  0.0289 -0.0009  0.3539
 8322W        W12373   2.743   0.312  12.824  0.2073  0.3267  0.2697
 8323W        W12374   2.530   3.440   3.074 -0.2027 -0.0459 -0.1628
 8324W        W12375   4.006   2.982   9.700 -0.0014  0.1275  0.1305
 8325W        W12376   1.101   8.189  13.305 -0.0327  0.1814  0.0033
 8326W        W12377   9.798   0.229   2.767  0.0085  0.1039  0.0276
 8327W        W12378   5.588   0.138  11.701 -0.0733  0.1325  0.0339
 8328W        W12379   6.017   2.049  13.408  0.2215 -0.1176 -0.4640
 8329W        W12380   2.669   6.868   0.731 -0.1904  0.0890  0.0461
 8330W        W12381   8.429   2.137   2.517 -0.2158 -0.0320 -0.1232
 8331W        W12382   3.632   7.922   2.045 -0.2053 -0.0034  0.0269
 8332W        W12383   0.427   7.662  13.957  0.0660  0.0345  0.1468
 8333W        W12384   5.528   6.479   0.494 -0.0087  0.2242 -0.0738
 8334W        W12385   3.559   4.252   0.934 -0.1448 -0.1551  0.3202
 8335W        W12386   3.171   9.612   3.364  0.0343 -0.0708 -0.3672
 8336W        W12387   1.285   7.262  13.772  0.1618 -0.1526  0.0464
 8337W        W12388   1.044   8.919  13.361  0.1362 -0.1591 -0.1174
 8338W        W12389   6.438   8.017   0.324 -0.1071  0.1194 -0.0175
 8339W        W12390   1.944   4.944   2.290  0.0980 -0.0074  0.0822
 8340W        W12391   5.577   3.652  12.564 -0.3404  0.0750 -0.0489
 8341W        W12392   0.117   9.172   0.898 -0.0297 -0.0230 -0.0360
 8342W        W12393   2.214   3.127  13.574  0.0320  0.2851  0.0256
 8343W        W12394   8.834   0.883  13.733 -0.2698 -0.0391  0.1769
 8344W        W12395   9.792   6.462   8.787 -0.2484 -0.1299 -0.0045
 8345W        W12396   6.118   5.677   1.092 -0.0836 -0.1036 -0.0807
 8346W        W12397   3.856   6.722  12.586  0.2057 -0.1507  0.0334
 8347W        W12398   1.982   9.122  10.265  0.1134 -0.0801  0.0994
 8348W        W12399   7.058   4.175  11.717 -0.0904 -0.1301  0.1716
 8349W        W12400   7.902   6.447  12.985 -0.1562 -0.2790 -0.0009
 8350W        W12401  10.154   7.642  13.816  0.1130  0.0645 -0.1535
 8351W        W12402   2.797   5.168   0.136 -0.3469 -0.1944 -0.3259
 8352W        W12403   8.222   6.354   3.914 -0.3803 -0.0296 -0.1664
 8353W        W12404   0.526   1.575   3.722 -0.2417  0.3693  0.2010
 8354W        W12405   6.796   8.754   4.832  0.1566  0.0530  0.0836
 8355W        W12406  10.052   7.671   1.246  0.1860 -0.0136 -0.1107
 8356W        W12407   0.808   8.249  13.832  0.1600  0.1181  0.2725
 8357W        W12408   0.887   0.394   9.879  0.2521  0.1137  0.0478
 8358W        W12409   8.678   8.477   5.673 -0.1094 -0.1855  0.0415
 8359W        W12410   1.116   3.708   0.429 -0.2460 -0.0343  0.1717
 8360W        W12411   6.650   5.266   0.763  0.0512  0.3507 -0.1494
 8361W        W12412   6.140   3.678   3.899  0.1548  0.0557  0.1872
 8362W        W12413   2.765   5.821  11.885  0.0194 -0.0080  0.2376
 8363W        W12414   4.423   9.228  11.811 -0.0541  0.2653 -0.3228
 8364W        W12415   7.056   0.461   0.459  0.0798  0.0190  0.0977
 8365W        W12416   3.526   4.942   0.574 -0.0318 -0.0837  0.1864
 8366W        W12417   3.235   1.714   3.662  0.0858  0.0772  0.2794
 8367W        W12418   5.463   4.596  13.739  0.0734  0.4382  0.2027
 8368W        W12419   7.795   7.155  10.565 -0.0813 -0.1431 -0.1596
 8369W        W12420   1.772   9.857   1.367  0.0414  0.0789  0.2299
 8370W        W12421   1.576   0.441  10.018 -0.0306  0.1435  0.0198
 8371W        W12422   1.586   0.927   0.784 -0.2232 -0.2128  0.2360
 8372W        W12423   4.580   9.405   2.692 -0.1185  0.1360  0.2003
 8373W        W12424   8.489   4.020  11.525 -0.3931  0.0600 -0.1964
 8374W        W12425   2.144   5.495  13.613 -0.3577 -0.0266 -0.2185
 8375W        W12426   1.070   5.569  10.660  0.0471 -0.0049 -0.3331
 8376W        W12427   8.423   9.258   4.560 -0.2432  0.2794 -0.1741
 8377W        W12428   1.557   2.521  11.690  0.1674  0.1837  0.0157
 8378W        W12429   1.043   2.045   2.053  0.0911 -0.0873  0.0461
 8379W        W12430   1.987   3.225  11.137 -0.0066 -0.0644  0.2454
 8380W        W12431   2.814   6.438  12.886  0.1970  0.1391 -0.1529
 8381W        W12432   1.143   0.997   3.720  0.1416  0.2629  0.0203
 8382W        W12433   9.767   8.221  13.174  0.1837 -0.3329  0.3945
 8383W        W12434   0.359  10.013  11.277  0.1011  0.1651 -0.2451
 8384W        W12435   0.275  10.075   4.597 -0.1324 -0.1631 -0.0280
 8385W        W12436   4.123   1.321   1.393 -0.1615 -0.1308 -0.2334
 8386W        W12437   5.320   5.219  10.168  0.0181 -0.0122 -0.2267
 8387W        W12438  10.032   4.175   2.503 -0.0853 -0.0640  0.2262
 8388W        W12439   4.667   1.578  13.902 -0.1060 -0.0888 -0.2250
 8389W        W12440   9.249   9.239  12.034 -0.0057  0.2178 -0.1171
 8390W        W12441   3.011   2.890   1.254  0.1446  0.1382 -0.0596
 8391W        W12442   5.372   5.935  10.718 -0.1162 -0.0770 -0.0345
 8392W        W12443   5.315   2.884   0.324  0.2686  0.3001  0.0588
 8393W        W12444   7.404   7.548   0.611  0.0745  0.2369 -0.1269
 8394W        W12445   9.210   8.732   4.802 -0.1063  0.0320  0.2630
 8395W        W12446   5.820   0.897   2.582 -0.2288 -0.1056  0.1128
 8396W        W12447   1.955   8.583   2.517  0.3205  0.0442  0.0539
 8397W        W12448   5.453   4.452   2.472 -0.1950 -0.0494 -0.0019
 8398W        W12449   3.917   2.187  13.381 -0.0159  0.0886  0.2424
 8399W        W12450   1.092   4.175   0.694  0.1644 -0.1438  0.0957
 8400W        W12451   8.124  10.058   2.460 -0.2858  0.2450  0.0004
 8401W        W12452   9.856   1.640  13.717 -0.2038  0.2780  0.1416
 8402W        W12453   5.199   4.789   4.804  0.0644  0.4869  0.2715
 8403W        W12454   3.853   3.639  13.251  0.1274  0.0194 -0.1100
 8404W        W12455   3.496   8.157   5.107  0.0715 -0.0843  0.0133
 8405W        W12456   6.124  10.112   3.542 -0.1987  0.0083 -0.0159
 8406W        W12457   8.503   8.927   9.366  0.0595 -0.3987 -0.1483
 8407W        W12458   1.893   4.414   2.505 -0.2683 -0.0858 -0.0327
 8408W        W12459   5.353   6.684  11.437 -0.0424  0.0607  0.0770
 8409W        W12460   2.106   7.959   2.699 -0.1012  0.3203 -0.1647
 8410W        W12461   9.506   1.063   3.441 -0.1655 -0.0291 -0.0305
 8411W        W12462   8.719   9.915   1.531 -0.0274 -0.1121 -0.0197
 8412W        W12463   5.241   3.741  12.176 -0.1546 -0.0104  0.2059
 8413W        W12464   3.382   0.716   0.116 -0.0047 -0.0093  0.5261
 8414W        W12465   6.810   3.090   9.792 -0.0791 -0.1202 -0.1074
 8415W        W12466   7.221   0.203  10.547  0.1564 -0.2008  0.0814
 8416W        W12467   6.718   6.427  12.161 -0.1520 -0.2386  0.3118
 8417W        W12468   6.443   2.252   9.585  0.0086  0.0226  0.0282
 8418W        W12469   0.985   2.701  13.365  0.0333  0.0711 -0.2709
 8419W        W12470   4.271   8.074  12.436 -0.0930 -0.1339  0.0045
 8420W        W12471   3.031   3.510   0.405 -0.1393 -0.1523 -0.0521
 8421W        W12472   9.243   3.037   4.035  0.1889 -0.0480 -0.1455
 8422W        W12473   8.589   9.165  12.933  0.1459 -0.2064 -0.1825
 8423W        W12474   4.371   8.420  11.882 -0.5483  0.1464 -0.0642
 8424W        W12475   0.767   2.285  13.340  0.1108  0.2310 -0.0424
 8425W        W12476   6.455   7.524  10.847  0.2366  0.1944 -0.2276
 8426W        W12477   2.050   2.213  13.247  0.1022 -0.2203 -0.1265
 8427W        W12478   0.556   6.668  11.338 -0.2357  0.1000 -0.0986
 8428W        W12479   2.515   0.166   1.443 -0.1293 -0.3806 -0.1590
 8429W        W12480   1.719   9.918   2.811  0.3421  0.1375 -0.0905
 8430W        W12481   9.776   5.244  11.265 -0.3031 -0.1013  0.3556
 8431W        W12482   5.116   7.462   9.744  0.1139  0.0816  0.0065
 8432W        W12483   2.587   3.187  13.176 -0.1357 -0.0641 -0.0491
 8433W        W12484   1.808   2.672  12.607  0.1602  0.0891 -0.2612
 8434W        W12485   0.409   8.741  10.113  0.0696 -0.0913  0.0160
 8435W        W12486   9.789   2.870  10.958 -0.4044 -0.1074  0.3483
 8436W        W12487   4.539   5.289   3.621 -0.0723 -0.4023 -0.0084
 8437W        W12488   3.625   6.085   2.400  0.2988  0.2438  0.2228
 8438W        W12489   0.745   2.985   1.579 -0.1213 -0.0363  0.0618
 8439W        W12490   6.866   5.716   2.007  0.1156  0.2359  0.0178
 8440W        W12491   7.348   8.148   5.528  0.3448  0.1294  0.0001
 8441W        W12492   7.218   9.419   3.653  0.2854  0.2744 -0.3417
 8442W        W12493   2.687   6.349  11.154 -0.5150  0.1263 -0.1547
 8443W        W12494   5.984   8.457  12.435 -0.0372  0.0277  0.2036
 8444W        W12495   3.721   9.526   9.952 -0.2982  0.0525  0.1437
 8445W        W12496   0.345   7.120   9.120 -0.0217  0.2869  0.3190
 8446W        W12497   0.463   1.722  11.706 -0.0231  0.1566 -0.0712
 8447W        W12498   6.007   6.691  12.024 -0.0125 -0.1627 -0.2461
 8448ION    NA+12499   1.721   5.135   0.630  0.0508  0.0262 -0.1424
 8449ION    NA+12500   6.365   6.135   5.142 -0.1358  0.0500  0.1442
 8450ION    NA+12501   0.546   9.184  12.276 -0.2178 -0.0464 -0.3531
 8451ION    NA+12502   4.663   4.588  13.341 -0.4077 -0.1130  0.0094
 8452ION    NA+12503   3.570   0.101  11.079  0.1160 -0.0184  0.1809
 8453ION    NA+12504   7.887   6.849  10.026  0.3438 -0.1113  0.1730
 8454ION    NA+12505   3.167   1.428  10.963  0.2209 -0.0298 -0.2368
 8455ION    NA+12506   3.283  10.152  12.662 -0.0673 -0.1523 -0.1883
 8456ION    NA+12507   7.572   6.673   3.226 -0.1385  0.3617  0.0121
 8457ION    NA+12508   9.580   1.257   9.309  0.2160 -0.2000 -0.1708
 8458ION    NA+12509   7.703   6.547  11.367 -0.0412 -0.0715 -0.1446
 8459ION    NA+12510   1.843   7.302   4.588 -0.0506  0.0083 -0.1491
 8460ION    NA+12511   7.664   7.513   3.454  0.0273 -0.2285  0.2410
 8461ION    NA+12512   7.015   6.938   2.348  0.1691  0.0995 -0.0607
 8462ION    NA+12513   0.667   8.502  13.281  0.2313 -0.1962 -0.0301
 8463ION    NA+12514   7.641   7.243   5.508  0.0255 -0.2441  0.0723
 8464ION    NA+12515   2.420   4.566   1.169  0.4431 -0.0712  0.1089
 8465ION    NA+12516   3.843   9.018   0.641  0.3851  0.0827 -0.1297
 8466ION    NA+12517   3.705   3.473  11.387 -0.5489 -0.0995  0.1496
 8467ION    NA+12518   8.354   0.498   1.599 -0.0269  0.0787  0.0885
 8468ION    NA+12519   4.266   0.809   5.457  0.0371 -0.0517 -0.0040
 8469ION    NA+12520   0.525   0.772   5.579 -0.1505 -0.0204  0.3037
 8470ION    NA+12521   1.803   6.221   0.308 -0.2524 -0.1922 -0.0185
 8471ION    NA+12522   1.449   1.302   1.792  0.0001  0.1665  0.4456
 8472ION    NA+12523   9.835   6.512  11.727  0.0829 -0.1542  0.0637
 8473ION    NA+12524   4.958   0.550   8.949 -0.2409 -0.1839  0.1923
 8474ION    NA+12525   3.330   7.284  13.557  0.0280  0.1681 -0.1588
 8475ION    NA+12526   6.935   1.610   8.959 -0.0773 -0.0186 -0.0121
 8476ION    NA+12527   6.287   9.909   0.104  0.0738  0.2143  0.3524
 8477ION    NA+12528   5.050   1.296   2.457  0.0932  0.0578  0.0528
 8478ION    NA+12529   7.794   3.777   3.263 -0.1823 -0.1651  0.5804
 8479ION    NA+12530   3.862   7.439   1.865  0.0455  0.0309 -0.0000
 8480ION    NA+12531   7.026   9.173   9.015  0.0904  0.0346 -0.2167
 8481ION    NA+12532   7.246   7.856  11.273  0.1472 -0.0450  0.0248
 8482ION    NA+12533   9.548   7.949   9.267  0.1020 -0.3855  0.0903
 8483ION    NA+12534   9.203   4.254   4.358  0.1050 -0.1064 -0.1713
 8484ION    NA+12535   7.765   5.298  13.608  0.2964 -0.0932 -0.2574
 8485ION    NA+12536   6.625   8.094   8.899 -0.1931  0.1481 -0.0408
 8486ION    NA+12537   6.400   5.603  11.788  0.1694 -0.2019  0.1125
 8487ION    NA+12538   0.619   1.154  13.094  0.1674 -0.0044  0.0917
 8488ION    NA+12539   4.409   2.555   3.535  0.0264 -0.0875  0.2881
 8489ION    NA+12540   6.230   3.498   1.703 -0.1269  0.0679  0.1673
 8490ION    NA+12541   4.703   7.976  10.370 -0.1263 -0.1101  0.1244
 8491ION    NA+12542   9.151   9.875   2.539  0.1741 -0.1031  0.1526
 8492ION    NA+12543  10.030   6.928  10.211  0.0904  0.2184 -0.0329
 8493ION    NA+12544   9.868   0.273   4.648  0.2298 -0.0054 -0.0478
 8494ION    NA+12545   0.478   8.865   1.217  0.0618 -0.3115 -0.0152
 8495ION    NA+12546   6.791   0.535  13.943  0.0145 -0.0466 -0.2587
 8496ION    NA+12547   4.723   5.070  12.148  0.5662  0.0193 -0.0059
 8497ION    NA+12548   1.619   7.785  11.239 -0.2868 -0.4159  0.0231
 8498ION    NA+12549   3.695  10.061  10.021  0.3030 -0.1264 -0.1668
 8499ION    NA+12550   8.281  10.166   2.942  0.2555  0.0028 -0.0603
 8500ION    NA+12551   3.996   3.397   0.599 -0.0049  0.0664 -0.0374
 8501ION    NA+12552   9.840   9.085   1.907  0.0904 -0.2695 -0.2891
 8502ION    NA+12553   0.262   8.191   4.675  0.0867 -0.2546  0.2853
 8503ION    NA+12554   1.845   1.775   1.110 -0.4280  0.0323 -0.1235
 8504ION    NA+12555   9.185   7.547  12.408  0.0235  0.2602 -0.0387
 8505ION    NA+12556   7.853   5.738  11.133  0.1388  0.2074 -0.2224
 8506ION    NA+12557   3.132   9.324   0.225 -0.2347 -0.0267 -0.0015
 8507ION    NA+12558   0.131   3.981   0.537  0.0868 -0.3201  0.1025
 8508ION    NA+12559   3.318   1.737   4.896  0.0403  0.0659 -0.0389
 8509ION    NA+12560   6.286   8.602   2.252 -0.1903 -0.4198 -0.0820
 8510ION    NA+12561   5.202   9.661  10.991  0.0666  0.2251  0.5535
 8511ION    NA+12562   2.298   7.604   2.354 -0.2373  0.0546  0.3496
 8512ION    NA+12563   2.931   8.143  13.555 -0.2984  0.2464  0.1848
 8513ION    NA+12564   8.181   8.174   9.707 -0.1492 -0.1426 -0.0081
 8514ION    NA+12565   2.202   7.118   0.120  0.2249 -0.0910  0.0653
 8515ION    NA+12566   9.549   4.700  12.993 -0.0680  0.1975  0.0569
 8516ION    NA+12567   2.774   3.025   3.075 -0.0858 -0.0553  0.4013
 8517ION    NA+12568   7.275   6.401  13.555 -0.2353  0.3150  0.1430
 8518ION    NA+12569   8.620   7.429   0.852  0.2638  0.2616 -0.0139
 8519ION    NA+12570   0.034   7.811  10.291 -0.0424 -0.0113  0.2357
 8520ION    NA+12571   7.542   0.051   4.280 -0.2130  0.2049  0.1058
 8521ION    NA+12572   6.693   4.375   5.527 -0.0813  0.1912 -0.0119
 8522ION    NA+12573   1.529   3.957  13.197 -0.0284  0.1440  0.1398
 8523ION    NA+12574   6.850   6.957   1.397  0.2108 -0.1092 -0.0501
 8524ION    NA+12575   5.286   1.131   1.577  0.1105  0.1400 -0.1237
 8525ION    NA+12576   4.492   2.807  11.470  0.3459 -0.0727 -0.1476
 8526ION    NA+12577   0.866   3.180  10.220 -0.0180 -0.0990 -0.1104
 8527ION    NA+12578   8.413   8.971  12.445  0.1492 -0.2069  0.0486
 8528ION    NA+12579   5.974   0.346   5.349  0.0837 -0.0525  0.0834
 8529ION    NA+12580   0.798   3.267   0.269 -0.3193  0.0719  0.0243
 8530ION    NA+12581   2.114   6.561   4.097 -0.5737  0.1119 -0.0421
 8531ION    NA+12582   3.301   6.062  12.202  0.1252 -0.1589 -0.0842
 8532ION    NA+12583   8.622   3.029  10.510  0.3879  0.0420  0.1027
 8533ION    NA+12584   8.957   1.055   2.660 -0.1984 -0.1945  0.1280
 8534ION    NA+12585   3.111   3.541   1.734 -0.0625 -0.2505  0.1396
 8535ION    NA+12586   5.024   8.786  12.281 -0.1041 -0.0602  0.4290
 8536ION    NA+12587   2.013   8.992   5.690  0.4213  0.0027  0.0734
 8537ION    CL-12588   9.351   7.233  12.769 -0.4164  0.2607  0.0636
 8538ION    CL-12589   8.470   1.941   9.424  0.3200 -0.3116 -0.0375
 8539ION    CL-12590   6.682   0.805  10.004 -0.0506 -0.3168  0.0197
 8540ION    CL-12591   6.130   3.940   2.144 -0.2111  0.3540 -0.0808
 8541ION    CL-12592   1.297   5.247   3.784  0.0602 -0.2295 -0.1196
 8542ION    CL-12593   3.833   2.463   0.865 -0.0028 -0.0527 -0.3970
 8543ION    CL-12594   6.552   9.040   2.088 -0.0979 -0.1013 -0.1730
 8544ION    CL-12595   9.340   6.701  10.086 -0.1060 -0.0168 -0.2564
 8545ION    CL-12596   7.142   7.362  11.231 -0.2177 -0.0137 -0.0008
 8546ION    CL-12597   3.085   9.109   4.292  0.1814  0.1933  0.2690
 8547ION    CL-12598   1.764   3.973  13.619  0.2224  0.1319 -0.0831
 8548ION    CL-12599   8.015   6.539  11.775 -0.0040 -0.0875 -0.2059
 8549ION    CL-12600   8.009   0.255   4.490 -0.1502  0.1934  0.0421
 8550ION    CL-12601   1.257   4.201  11.189  0.0936 -0.0159  0.1789
 8551ION    CL-12602   8.396   2.835  10.113  0.0978 -0.0473  0.1571
 8552ION    CL-12603  10.119   6.932  10.722  0.5205  0.1381  0.0413
 8553ION    CL-12604   3.242   3.246   3.120 -0.0088 -0.1574  0.1460
 8554ION    CL-12605   8.695   5.908  13.153 -0.2184  0.3136  0.0158
 8555ION    CL-12606  10.167   8.860   1.647  0.0277  0.2406 -0.1991
 8556ION    CL-12607   4.812   4.534  10.459 -0.2217  0.0641 -0.3441
 8557ION    CL-12608   2.046   4.829   0.841 -0.1966 -0.1412  0.2900
 8558ION    CL-12609   2.401   8.417   0.009 -0.3609  0.3839 -0.1894
 8559ION    CL-12610   4.413   2.326   3.964 -0.0244  0.0506 -0.2413
 8560ION    CL-12611   7.492   6.106  11.139 -0.3844  0.5568 -0.1568
 8561ION    CL-12612  10.004   8.591   4.375  0.1455  0.1199  0.1341
 8562ION    CL-12613   4.283   0.730   4.566 -0.0938  0.5167 -0.0914
 8563ION    CL-12614   3.755  10.172  12.880 -0.0145 -0.1751  0.0211
 8564ION    CL-12615   6.504   8.278   3.697 -0.2305  0.1817 -0.2837
 8565ION    CL-12616   4.238   8.672   0.998  0.0979  0.1912  0.2288
 8566ION    CL-12617   7.150   0.446   4.248  0.1976  0.0108 -0.0144
 8567ION    CL-12618   4.341   2.854   2.665  0.1591 -0.4002 -0.1812
 8568ION    CL-12619   3.188   1.481   4.053 -0.4722 -0.0095 -0.2443
 8569ION    CL-12620   3.336   7.158   3.678 -0.2100 -0.0347  0.0501
 8570ION    CL-12621   4.859   9.270  10.911  0.1279 -0.0606 -0.3674
 8571ION    CL-12622   0.133   8.952  12.248  0.1302 -0.2676 -0.0497
 8572ION    CL-12623   3.592   9.129   0.108  0.0697 -0.1436 -0.0024
 8573ION    CL-12624   8.036   9.989   9.417  0.2296 -0.1336  0.1847
 8574ION    CL-12625   3.419   7.044   1.948 -0.1256  0.3889 -0.3962
 8575ION    CL-12626   5.685   5.570  12.404  0.1147  0.2194  0.2097
 8576ION    CL-12627   0.526   4.133   4.344 -0.0079  0.1028 -0.0135
 8577ION    CL-12628   9.854   6.063   3.658 -0.0747  0.3832 -0.2544
 8578ION    CL-12629   6.785   9.935   9.846  0.3547  0.0023 -0.0271
 8579ION    CL-12630   6.965   6.500   2.822 -0.3437  0.0922 -0.3462
 8580ION    CL-12631   8.624   0.796   1.908  0.1045  0.4827 -0.0888
 8581ION    CL-12632   1.299   8.860   3.919 -0.1052  0.0597  0.2846
 8582ION    CL-12633   4.908   1.019   9.220  0.2535 -0.0269 -0.3059
 8583ION    CL-12634   3.027   7.711  13.797  0.1685  0.0928 -0.4020
 8584ION    CL-12635   9.549   6.111  11.636 -0.0306 -0.0743 -0.2462
 8585ION    CL-12636   8.275   3.123  13.001  0.0830 -0.4697  0.0216
 8586ION    CL-12637   3.459   1.154  10.629  0.2229 -0.0006  0.3020
 8587ION    CL-12638   0.232   7.600   9.838 -0.3426 -0.1248 -0.1364
 8588ION    CL-12639   6.869   7.154   1.943 -0.2097 -0.0169  0.0018
 8589ION    CL-12640   4.404   7.325  13.438 -0.2098 -0.3178  0.0623
 8590ION    CL-12641   4.872   7.448  10.213  0.0418  0.0411  0.0721
 8591ION    CL-12642   2.588   1.854   1.710  0.1173  0.5086 -0.0812
 8592ION    CL-12643   7.557   4.890  13.222  0.1335  0.2528 -0.1987
 8593ION    CL-12644   2.452   7.233   0.545 -0.2641 -0.0848  0.0235
 8594ION    CL-12645   7.528   5.766  13.557  0.3830  0.2564  0.1126
 8595ION    CL-12646   5.809   3.459   1.350 -0.3498  0.0460 -0.0413
 8596ION    CL-12647   8.031   6.941   3.229 -0.0476  0.2205 -0.1980
 8597ION    CL-12648   0.425   8.976  13.479  0.5017 -0.0226  0.0237
 8598ION    CL-12649   8.234   1.820   2.181  0.1149  0.2744 -0.0614
 8599ION    CL-12650   0.743   2.179   9.775 -0.2106  0.1750  0.0261
 8600ION    CL-12651   2.371   6.594   3.642  0.0113  0.0104 -0.1825
 8601ION    CL-12652   6.539   0.093  13.831 -0.3525 -0.1361 -0.1409
 8602ION    CL-12653   2.567   4.953  11.397 -0.2165 -0.2236 -0.2965
 8603ION    CL-12654   4.917   9.286  12.303  0.0846 -0.1099 -0.0293
 8604ION    CL-12655   5.027   0.895   2.079  0.3478 -0.2364  0.1898
 8605ION    CL-12656   4.503   2.645  10.989  0.1049  0.2013 -0.1858
 8606ION    CL-12657   8.982   9.465   2.267 -0.2808 -0.0855 -0.1573
 8607ION    CL-12658   0.264   1.840   4.094 -0.0370 -0.4341 -0.0673
 8608ION    CL-12659   4.429   4.513  12.835 -0.0637  0.1147  0.0193
 8609ION    CL-12660   9.973   4.196   0.816  0.3247 -0.0095  0.3621
 8610ION    CL-12661   3.491   1.940  10.792 -0.0519  0.0721 -0.1286
 8611ION    CL-12662   5.725   2.817  10.229 -0.1578 -0.1350 -0.3024
 8612ION    CL-12663   9.960   1.317  11.484  0.0716  0.0442  0.4010
 8613ION    CL-12664   7.275   7.112   3.412  0.0244  0.0940  0.2815
 8614ION    CL-12665   2.037   5.832   0.066 -0.1475  0.0191  0.2058
 8615ION    CL-12666   1.305   4.435  13.264  0.0646  0.0334  0.0380
 8616ION    CL-12667   9.868   6.875  12.098  0.0107 -0.1051  0.0784
 8617ION    CL-12668   8.155   4.138   2.999 -0.0287 -0.0503  0.0780
 8618ION    CL-12669   8.114   4.865  10.995 -0.0191  0.2061 -0.1401
 8619ION    CL-12670   9.618   0.741   4.460 -0.0946 -0.2825 -0.0266
 8620ION    CL-12671   3.833   8.962  10.000  0.3230  0.3207  0.1976
 8621ION    CL-12672   7.601   3.235   3.735 -0.0613 -0.0862  0.1020
 8622ION    CL-12673   0.348   3.485   0.325 -0.0694  0.0179  0.2325
 8623ION    CL-12674   5.794   2.608  11.674  0.2444 -0.2232  0.0671
 8624ION    CL-12675   8.171   6.827  10.465 -0.0609  0.2059  0.0331
 8625ION    CL-12676   5.539   8.691  12.347  0.0579 -0.2442 -0.0263
  10.18854  10.18854  13.96852
