Protein in INSANE! Membrane UpperLeaflet>POPC=1.0 LowerLeaflet>POPC=1.0
12914
    1AU     AUC    1   9.450   2.888   6.854 -0.0573  0.0345 -0.0375
    1AU     AUC    2   9.503   2.786   6.964 -0.0253  0.0021 -0.0204
    1AU     AUC    3   9.336   2.912   6.964 -0.0058 -0.0271  0.0811
    1AU     AUC    4   9.531   2.871   6.692 -0.0391 -0.1103 -0.0125
    1AU     AUC    5   9.386   3.018   6.708  0.0682 -0.0188 -0.0232
    1AU     AUC    6   9.531   3.013   6.789 -0.0081 -0.0451  0.0679
    1AU     AUC    7   9.508   2.988   6.964  0.0224  0.0656 -0.1006
    1AU     AUC    8   9.365   2.794   6.719 -0.0515 -0.0368 -0.0424
    1AU     AUC    9   9.357   2.760   6.918 -0.0014  0.1304  0.0444
    1AU     AUC   10   9.269   2.915   6.810  0.0678 -0.0514  0.0416
    1AU     AUC   11   9.385   3.051   6.863  0.0485  0.0745 -0.0592
    1AU     AUC   12   9.528   2.735   6.825 -0.0464  0.0432  0.0095
    1AU     AUC   13   9.604   2.875   6.846  0.1029 -0.1066 -0.1013
    1AU     AUC   14   9.579   2.752   7.112  0.1159 -0.0690  0.0837
    1AU     AUC   15   9.409   2.842   7.179  0.0076  0.0983 -0.0703
    1AU     AUC   16   9.279   2.937   7.112 -0.0049 -0.0215 -0.1273
    1AU     AUC   17   9.569   2.862   6.550 -0.0479  0.0092  0.0035
    1AU     AUC   18   9.446   2.996   6.532 -0.0238  0.0119  0.0557
    1AU     AUC   19   9.324   3.064   6.583 -0.0318  0.0152  0.0358
    1AU     AUC   20   9.620   3.147   6.758 -0.0250  0.0371 -0.0194
    1AU     AUC   21   9.622   3.126   6.963 -0.1140 -0.0760  0.0020
    1AU     AUC   22   9.588   3.043   7.074  0.0286  0.0640  0.0207
    1AU     AUC   23   9.301   2.713   6.629  0.0999 -0.0084 -0.0935
    1AU     AUC   24   9.275   2.638   6.760 -0.0541 -0.0500  0.0321
    1AU     AUC   25   9.276   2.631   6.934  0.0775  0.0631  0.0513
    1AU     AUC   26   9.124   2.897   6.789  0.0630 -0.0704  0.0490
    1AU     AUC   27   9.125   3.069   6.815  0.1254 -0.0156 -0.1013
    1AU     AUC   28   9.321   3.185   6.934  0.1119  0.0709 -0.0449
    1AU     AUC   29   9.580   2.592   6.743 -0.0834 -0.0562 -0.0019
    1AU     AUC   30   9.728   2.709   6.830 -0.0659  0.0088 -0.0710
    1AU     AUC   31   9.762   2.892   6.887  0.0047 -0.0535  0.0226
    1AU     AUC   32   9.141   2.938   6.981 -0.0858 -0.1617  0.0879
    1AU     AUC   33   9.246   3.072   7.027 -0.0807  0.0627  0.0359
    1AU     AUC   34   9.562   2.593   6.916  0.0226  0.0299 -0.1037
    1AU     AUC   35   9.681   2.774   7.055 -0.0500 -0.0622  0.0033
    1AU     AUC   36   9.186   3.002   6.682 -0.0053  0.0164 -0.0351
    1AU     AUC   37   9.312   3.178   6.769  0.0293 -0.0505 -0.0587
    1AU     AUC   38   9.619   2.711   6.626 -0.0253 -0.0608  0.0372
    1AU     AUC   39   9.752   2.835   6.685  0.0093 -0.0016  0.0446
    1AU     AUC   40   9.584   2.877   7.120 -0.0364 -0.0123  0.0148
    1AU     AUC   41   9.394   2.985   7.130  0.1426 -0.0306 -0.0328
    1AU     AUC   42   9.637   3.004   6.579  0.0630 -0.0119 -0.0453
    1AU     AUC   43   9.460   3.137   6.607 -0.0009 -0.0688 -0.0198
    1AU     AUC   44   9.399   2.656   7.057  0.0618  0.0011 -0.0396
    1AU     AUC   45   9.228   2.753   7.030 -0.0800  0.0449 -0.0888
    1AU     AUC   46   9.445   2.786   6.572  0.0220  0.0855  0.1091
    1AU     AUC   47   9.278   2.842   6.535 -0.0976 -0.0938  0.0633
    1AU     AUC   48   9.473   3.235   6.862 -0.0680 -0.0592  0.0256
    1AU     AUC   49   9.496   3.133   7.030 -0.1207 -0.0785  0.0693
    1AU     AUC   50   9.184   2.808   6.717 -0.0687 -0.0074  0.0327
    1AU     AUC   51   9.107   2.777   6.869 -0.0867  0.0695 -0.0067
    1AU     AUC   52   9.692   3.081   6.773 -0.1149 -0.0255 -0.0531
    1AU     AUC   53   9.734   2.953   6.958  0.0411  0.0311  0.0275
    1AU     AUC   54   9.413   2.609   6.672 -0.0269 -0.0289  0.0276
    1AU     AUC   55   9.419   2.538   6.835  0.0074 -0.0055 -0.0176
    1AU    AUSL   56   9.052   2.987   7.060  0.0751 -0.1020 -0.0146
    1AU    AUSL   57   8.870   2.789   7.077 -0.0602 -0.0915 -0.0399
    1AU     AUL   58   8.965   3.129   7.115 -0.0090  0.0120  0.0401
    1AU       S   59   8.530   2.630   7.236  0.5409 -0.3064  0.3201
    1AU     LIG   60   8.182   2.529   7.467 -0.0901 -0.0374  0.0485
    1AU     LIG   61   7.780   2.408   7.298 -0.2728  0.6343 -0.2824
    1AU     LIG   62   7.449   2.283   7.067 -0.0550  0.3149  0.1656
    1AU     LIG   63   7.055   1.993   7.097 -0.2139  0.2749  0.2147
    1AU     LIG   64   7.051   1.660   7.344 -0.1897  0.1749  0.1471
    1AU       S   65   8.475   3.167   7.144 -0.3373  0.1181  0.0487
    1AU     LIG   66   8.307   3.506   7.394 -0.0654  0.1041 -0.1907
    1AU     LIG   67   7.871   3.493   7.429 -0.0141 -0.1386 -0.0325
    1AU     LIG   68   7.436   3.451   7.240  0.0029 -0.0810 -0.4691
    1AU     LIG   69   7.118   3.433   6.961 -0.0039 -0.3341 -0.1445
    1AU     LIG   70   6.669   3.227   7.005 -0.1436  0.5825 -0.0355
    1AU    AUSL   71   8.868   2.957   6.853  0.1065 -0.0094 -0.0370
    1AU    AUSL   72   9.035   3.172   6.833  0.1123 -0.0410  0.0330
    1AU     AUL   73   9.021   3.322   6.895 -0.0030 -0.0214 -0.0217
    1AU       S   74   8.424   3.027   6.927  0.1718 -0.0306 -0.3307
    1AU     LIG   75   8.013   2.997   7.228 -0.0916 -0.4307 -0.3428
    1AU     LIG   76   7.659   2.979   7.470  0.1505  0.1662  0.2146
    1AU     LIG   77   7.304   2.823   7.556 -0.2966 -0.0796 -0.1663
    1AU     LIG   78   6.985   2.716   7.812  0.0087  0.1558 -0.3009
    1AU     LIG   79   6.589   2.550   7.619 -0.1784  0.0558 -0.3508
    1AU       S   80   8.581   3.531   6.771 -0.1650  0.1037 -0.3817
    1AU     LIG   81   8.350   3.909   6.877  0.2226  0.0293 -0.1301
    1AU     LIG   82   8.181   4.352   6.844  0.2354 -0.0815  0.0449
    1AU     LIG   83   8.102   4.698   7.237 -0.2127  0.2838  0.1111
    1AU     LIG   84   7.742   4.764   7.489  0.1430  0.1384  0.2852
    1AU     LIG   85   7.428   4.941   7.217 -0.1011  0.2027  0.1525
    1AU    AUSL   86   9.224   3.209   7.035 -0.0698  0.0765 -0.1321
    1AU    AUSL   87   9.185   3.121   7.307  0.0166  0.1044 -0.0676
    1AU     AUL   88   9.005   3.407   7.175 -0.0155 -0.0405  0.1135
    1AU       S   89   9.082   3.889   7.167  0.0054  0.1326  0.0647
    1AU     LIG   90   8.615   3.896   7.310 -0.0120  0.0554 -0.1277
    1AU     LIG   91   8.248   4.241   7.369 -0.3133  0.0389 -0.2750
    1AU     LIG   92   7.989   4.411   7.777  0.0421  0.0797 -0.0830
    1AU     LIG   93   7.994   4.235   8.171 -0.0255  0.4430 -0.0327
    1AU     LIG   94   8.019   4.084   8.533 -0.0805  0.0690 -0.0238
    1AU       S   95   8.990   3.371   7.715  0.1022  0.0411 -0.3833
    1AU     LIG   96   8.636   3.427   7.807 -0.0293  0.0153  0.3830
    1AU     LIG   97   8.368   3.780   7.835 -0.0131 -0.0521 -0.0719
    1AU     LIG   98   7.977   3.869   7.720 -0.0012 -0.2143 -0.1350
    1AU     LIG   99   7.646   4.031   7.534  0.1499  0.1280 -0.0820
    1AU     LIG  100   7.186   3.999   7.595  0.4944  0.0469 -0.1022
    1AU    AUSL  101   9.894   2.528   7.115 -0.0213  0.0135 -0.0044
    1AU    AUSL  102   9.997   2.794   7.081 -0.0435 -0.0964 -0.0141
    1AU     AUL  103   9.798   2.827   7.415  0.0056  0.0498 -0.0487
    1AU       S  104  10.219   2.306   7.241  0.0530 -0.3283  0.0294
    1AU     LIG  105  10.278   2.282   7.617 -0.1659  0.0112 -0.0457
    1AU     LIG  106  10.422   2.257   7.944 -0.1721 -0.1443  0.0266
    1AU     LIG  107  10.591   2.172   8.403  0.2467 -0.0069  0.2140
    1AU     LIG  108  10.671   2.068   8.793  0.0488 -0.1419 -0.1532
    1AU     LIG  109  10.844   1.767   9.086  0.2247  0.0524  0.3495
    1AU       S  110  10.398   2.784   7.330 -0.1808 -0.1341 -0.1534
    1AU     LIG  111  10.796   3.076   7.335  0.0780  0.1266  0.1827
    1AU     LIG  112  11.315   3.066   7.165  0.0496  0.2261  0.1047
    1AU     LIG  113  11.683   2.894   7.039  0.4034 -0.1707 -0.0769
    1AU     LIG  114  11.833   2.435   7.076  0.4195 -0.5012  0.2014
    1AU     LIG  115  12.278   2.271   7.042  0.1924  0.0806 -0.5246
    1AU    AUSL  116   9.820   2.421   6.828 -0.0393  0.0493 -0.0482
    1AU    AUSL  117   9.619   2.515   7.013 -0.0498  0.1456 -0.1307
    1AU     AUL  118   9.631   2.450   7.166 -0.0247  0.0366 -0.0325
    1AU       S  119   9.795   1.969   7.328  0.6062  0.4289  0.0488
    1AU     LIG  120  10.242   1.688   7.347  0.0201 -0.3850  0.1211
    1AU     LIG  121  10.645   1.500   6.998 -0.1705  0.0291 -0.1185
    1AU     LIG  122  10.924   1.242   6.736  0.3373  0.0021  0.2842
    1AU     LIG  123  11.159   0.926   6.881  0.5019 -0.0965 -0.1973
    1AU     LIG  124  11.077   0.471   7.077 -0.0741 -0.3615 -0.0440
    1AU       S  125  10.197   2.173   6.911  0.1569 -0.4043 -0.1009
    1AU     LIG  126  10.213   1.700   6.824 -0.0213 -0.2981 -0.0173
    1AU     LIG  127  10.318   1.475   6.499 -0.2267 -0.2754 -0.2460
    1AU     LIG  128  10.614   1.335   6.278 -0.2937 -0.0044 -0.2932
    1AU     LIG  129  10.951   1.359   6.015  0.0225 -0.3316 -0.2872
    1AU     LIG  130  11.103   1.262   5.597 -0.0107 -0.0275 -0.0374
    1AU    AUSL  131   9.820   2.678   6.905 -0.0184 -0.0826  0.0396
    1AU    AUSL  132   9.920   2.584   6.646  0.0047  0.0516  0.0690
    1AU     AUL  133   9.717   2.286   6.679 -0.0377  0.0144  0.0053
    1AU       S  134  10.225   2.364   6.422 -0.1790  0.2257 -0.1471
    1AU     LIG  135  10.457   2.053   6.530 -0.5648 -0.0009  0.1672
    1AU     LIG  136  10.831   1.727   6.603  0.4096 -0.2107  0.3029
    1AU     LIG  137  11.235   1.580   6.496 -0.0449  0.0690 -0.2800
    1AU     LIG  138  11.500   1.362   6.258 -0.0892 -0.0559  0.1252
    1AU     LIG  139  11.582   1.263   5.814  0.3924  0.1072 -0.1826
    1AU       S  140  10.369   2.436   6.943 -0.1037  0.2488 -0.0299
    1AU     LIG  141  10.641   2.075   6.997  0.3389  0.1765  0.0847
    1AU     LIG  142  11.014   1.915   7.062  0.0820 -0.0406 -0.2712
    1AU     LIG  143  11.271   1.434   7.001 -0.0153  0.3087 -0.2303
    1AU     LIG  144  11.522   1.145   7.245  0.4344 -0.0034  0.3283
    1AU     LIG  145  11.301   0.923   7.551 -0.0743 -0.2195  0.2363
    1AU    AUSL  146   9.047   3.373   6.615  0.0129  0.0250 -0.1088
    1AU    AUSL  147   9.275   3.285   6.757 -0.0389 -0.0539  0.0896
    1AU     AUL  148   9.275   3.461   6.926  0.0785 -0.0462 -0.0472
    1AU       S  149   8.767   3.678   6.579  0.1734  0.5509  0.1347
    1AU     LIG  150   8.761   3.808   6.138 -0.0427 -0.1702 -0.2524
    1AU     LIG  151   9.037   4.109   5.889  0.1369  0.1126 -0.5031
    1AU     LIG  152   9.187   4.561   5.883  0.2466  0.1843 -0.3141
    1AU     LIG  153   9.159   5.074   5.893  0.4056 -0.1797 -0.0795
    1AU     LIG  154   8.826   5.533   5.888  0.0586 -0.4471  0.0161
    1AU       S  155   9.197   3.892   6.657  0.2337 -0.0676 -0.0307
    1AU     LIG  156   8.869   4.127   6.715  0.2221 -0.0303  0.0892
    1AU     LIG  157   8.467   4.162   6.411  0.1402 -0.2552  0.2687
    1AU     LIG  158   8.091   3.967   6.438  0.0578 -0.0317 -0.1170
    1AU     LIG  159   7.679   4.143   6.462 -0.0893  0.0442 -0.2001
    1AU     LIG  160   7.594   4.451   6.213  0.1071 -0.1550 -0.0529
    1AU    AUSL  161   8.868   3.138   6.617 -0.1474 -0.0548 -0.0248
    1AU    AUSL  162   9.170   3.100   6.538 -0.0214 -0.0112  0.1314
    1AU     AUL  163   9.125   3.345   6.263  0.0895 -0.1258 -0.1079
    1AU       S  164   8.688   3.061   6.103  0.3812 -0.3738  0.1820
    1AU     LIG  165   8.352   3.415   6.145 -0.0631 -0.0892  0.0129
    1AU     LIG  166   8.195   3.877   5.946 -0.1058  0.0586  0.4046
    1AU     LIG  167   8.144   4.328   6.047  0.0350 -0.1604 -0.1996
    1AU     LIG  168   8.005   4.591   6.462 -0.1752  0.3462  0.1915
    1AU     LIG  169   7.760   4.977   6.458 -0.3050  0.0268  0.0084
    1AU       S  170   8.554   3.379   6.601 -0.2704  0.1914  0.2964
    1AU     LIG  171   8.077   3.439   6.572 -0.5127 -0.0023  0.2396
    1AU     LIG  172   7.984   3.500   6.921  0.0160 -0.2598 -0.2974
    1AU     LIG  173   7.827   3.840   7.121 -0.0538  0.0173  0.2400
    1AU     LIG  174   7.728   4.279   7.023 -0.2604  0.2522  0.0422
    1AU     LIG  175   7.704   4.658   6.878  0.1318  0.0215 -0.1806
    1AU    AUSL  176   9.809   2.738   6.438  0.1315 -0.0418 -0.0461
    1AU    AUSL  177   9.644   2.562   6.629 -0.0628  0.0280  0.0132
    1AU     AUL  178   9.618   2.446   6.487  0.0176 -0.0422  0.0380
    1AU       S  179  10.207   2.511   6.225  0.2212  0.0301  0.1100
    1AU     LIG  180  10.390   2.081   6.048  0.2990  0.0416  0.0912
    1AU     LIG  181  10.036   1.734   5.937 -0.1041 -0.1851 -0.0510
    1AU     LIG  182   9.743   1.396   5.729  0.0317 -0.5001 -0.1894
    1AU     LIG  183   9.455   1.199   5.542  0.1092  0.0132  0.1372
    1AU     LIG  184   9.331   0.951   5.190  0.1152  0.0676 -0.1367
    1AU       S  185   9.845   2.213   6.098  0.0621  0.1891 -0.0398
    1AU     LIG  186   9.688   1.760   6.280 -0.4383  0.0747  0.1024
    1AU     LIG  187   9.806   1.366   6.376  0.2381 -0.0213 -0.2326
    1AU     LIG  188  10.175   1.169   6.126  0.2111 -0.0481  0.0289
    1AU     LIG  189  10.457   0.876   6.099 -0.0297 -0.0767 -0.1258
    1AU     LIG  190  10.852   0.838   5.927  0.0200  0.0653 -0.1557
    1AU    AUSL  191   9.842   2.868   6.681 -0.0856  0.0391 -0.0264
    1AU    AUSL  192   9.959   2.972   6.443 -0.0026 -0.0506 -0.0486
    1AU     AUL  193  10.039   2.801   6.796 -0.0326  0.0081  0.0001
    1AU       S  194  10.326   3.031   6.215  0.1493  0.0007 -0.1392
    1AU     LIG  195  10.528   2.756   5.951 -0.0266  0.4078  0.2426
    1AU     LIG  196  10.915   2.423   6.137 -0.4382 -0.2908 -0.1149
    1AU     LIG  197  11.301   2.575   6.394  0.1987  0.0375  0.0288
    1AU     LIG  198  11.649   2.364   6.542  0.3093 -0.0178  0.0864
    1AU     LIG  199  12.034   2.525   6.627 -0.1236  0.1216  0.2020
    1AU       S  200  10.401   2.562   6.441 -0.3687 -0.2242  0.0795
    1AU     LIG  201  10.793   2.441   6.677 -0.2964  0.0735  0.2519
    1AU     LIG  202  11.084   2.164   6.604 -0.3248  0.1960  0.0775
    1AU     LIG  203  11.426   1.930   6.833  0.0018  0.0139 -0.0917
    1AU     LIG  204  11.694   1.607   6.753  0.2868  0.0796  0.3591
    1AU     LIG  205  11.916   1.386   6.499 -0.2547 -0.1103 -0.2070
    1AU    AUSL  206   9.477   3.040   7.434 -0.0170  0.0066  0.0152
    1AU    AUSL  207   9.715   2.728   7.162 -0.0524 -0.0638  0.0160
    1AU     AUL  208   9.771   3.134   7.444 -0.0530  0.0041 -0.0113
    1AU       S  209  10.284   2.750   7.505  0.1274 -0.0611  0.0272
    1AU     LIG  210  10.594   2.968   7.836 -0.0949  0.1646  0.2495
    1AU     LIG  211  10.756   3.370   7.713 -0.0262  0.0737 -0.4052
    1AU     LIG  212  10.727   3.705   7.586 -0.2789 -0.0805 -0.0657
    1AU     LIG  213  10.812   3.942   7.283 -0.0371 -0.2431 -0.3013
    1AU     LIG  214  10.808   3.986   6.856  0.0553  0.1740 -0.1516
    1AU       S  215   9.512   3.060   7.890  0.2914  0.1026  0.1120
    1AU     LIG  216   9.511   2.921   8.344  0.3739  0.0289 -0.0663
    1AU     LIG  217   9.416   2.696   8.742  0.1974  0.1028  0.3320
    1AU     LIG  218   9.667   2.599   9.084 -0.0773 -0.6322  0.0266
    1AU     LIG  219  10.066   2.612   9.181  0.3543  0.5125  0.0435
    1AU     LIG  220  10.455   2.614   9.230 -0.3376 -0.1202  0.4159
    1AU    AUSL  221   9.531   2.773   7.387 -0.0154  0.0224 -0.0455
    1AU    AUSL  222   9.257   2.677   7.388  0.0568  0.0038  0.1515
    1AU     AUL  223   9.755   2.551   7.387  0.0056  0.0349  0.1028
    1AU       S  224   9.491   2.747   7.881 -0.2254  0.1062 -0.2788
    1AU     LIG  225   9.364   2.423   8.157  0.2046 -0.0556 -0.0767
    1AU     LIG  226   9.077   2.089   8.178 -0.4646 -0.0277  0.1954
    1AU     LIG  227   8.870   1.806   7.953 -0.0589 -0.1928  0.0750
    1AU     LIG  228   8.709   1.457   7.847 -0.3286 -0.1128 -0.1277
    1AU     LIG  229   8.386   1.490   7.486  0.0078  0.2163  0.0732
    1AU       S  230   9.065   2.420   7.705  0.1895  0.1352  0.0122
    1AU     LIG  231   8.615   2.227   7.763  0.1229 -0.1688 -0.1334
    1AU     LIG  232   8.385   1.855   7.860 -0.0400 -0.2215 -0.3286
    1AU     LIG  233   8.490   1.659   8.272 -0.0113  0.0678  0.3293
    1AU     LIG  234   8.517   1.394   8.538  0.0731  0.0993 -0.1682
    1AU     LIG  235   8.632   1.448   8.938  0.3305 -0.1449 -0.2486
    1AU    AUSL  236   9.336   2.898   7.238 -0.0881 -0.0514  0.0480
    1AU    AUSL  237   9.443   3.164   7.196 -0.0306 -0.0057  0.0145
    1AU     AUL  238   9.529   3.237   7.295  0.0233 -0.0442  0.0156
    1AU       S  239   9.324   3.502   7.722 -0.2048  0.1086  0.0076
    1AU     LIG  240   9.723   3.555   7.849 -0.0788 -0.0436  0.3482
    1AU     LIG  241   9.982   3.968   7.849  0.2669  0.0232  0.0883
    1AU     LIG  242   9.840   4.345   8.003  0.2372 -0.2009  0.0824
    1AU     LIG  243   9.525   4.405   8.166 -0.0537 -0.1457  0.1782
    1AU     LIG  244   9.150   4.431   8.033  0.1915  0.0842  0.5719
    1AU       S  245   9.259   2.896   7.836 -0.0689  0.2471 -0.1730
    1AU     LIG  246   8.786   2.699   8.002 -0.1338 -0.1162  0.1401
    1AU     LIG  247   8.570   2.999   8.262 -0.0076 -0.3387 -0.0963
    1AU     LIG  248   8.356   3.294   8.209  0.2057 -0.0783 -0.1747
    1AU     LIG  249   8.049   3.687   8.230  0.2651  0.2665 -0.1859
    1AU     LIG  250   7.627   3.933   8.072  0.2785  0.0473 -0.0004
    1AU    AUSL  251   9.554   3.238   6.578 -0.0383 -0.0631  0.0059
    1AU    AUSL  252   9.309   3.360   6.496  0.0721 -0.0538 -0.0291
    1AU     AUL  253   9.610   3.250   6.360 -0.0076 -0.0205 -0.0392
    1AU       S  254   9.211   3.856   6.416  0.0940  0.1412  0.0150
    1AU     LIG  255   9.466   4.154   6.170 -0.0809  0.3265  0.2581
    1AU     LIG  256   9.649   4.501   6.180  0.2855 -0.3004  0.0474
    1AU     LIG  257   9.564   4.942   6.298 -0.1037  0.0477 -0.1388
    1AU     LIG  258   9.451   5.311   6.383  0.0686 -0.2541  0.3240
    1AU     LIG  259   9.008   5.462   6.349  0.0220 -0.2065  0.1174
    1AU       S  260   9.687   3.777   6.348  0.1495 -0.2310 -0.0320
    1AU     LIG  261   9.897   4.111   6.437 -0.0523  0.2600 -0.4784
    1AU     LIG  262   9.947   4.538   6.561  0.1041  0.0021  0.1809
    1AU     LIG  263   9.781   4.946   6.765 -0.3475 -0.2675 -0.0083
    1AU     LIG  264   9.492   5.347   6.928 -0.1641  0.2065 -0.3624
    1AU     LIG  265   9.634   5.740   6.866 -0.0230 -0.3764  0.2320
    1AU    AUSL  266   9.673   2.991   6.469 -0.0035 -0.0238  0.0028
    1AU    AUSL  267   9.841   3.204   6.508 -0.0007  0.0494  0.0015
    1AU     AUL  268   9.623   2.966   6.276  0.0399 -0.0145  0.0655
    1AU       S  269   9.918   2.886   5.907 -0.1775  0.1932 -0.1107
    1AU     LIG  270  10.167   3.152   5.685 -0.0542 -0.0194 -0.1028
    1AU     LIG  271  10.427   3.575   5.919 -0.2081 -0.6785 -0.0197
    1AU     LIG  272  10.546   4.086   5.879 -0.3214  0.3178  0.0573
    1AU     LIG  273  10.567   4.515   5.723 -0.0343 -0.4756 -0.0193
    1AU     LIG  274  10.656   4.638   5.299 -0.2349 -0.0739 -0.2518
    1AU       S  275  10.121   3.505   6.271 -0.1528 -0.2597 -0.0254
    1AU     LIG  276  10.424   3.839   6.346  0.3367 -0.0211  0.0933
    1AU     LIG  277  10.572   4.257   6.455 -0.1284 -0.0706 -0.2435
    1AU     LIG  278  10.659   4.692   6.381  0.0810  0.0786 -0.0619
    1AU     LIG  279  11.071   4.847   6.529 -0.0820 -0.1609  0.4310
    1AU     LIG  280  11.337   4.788   6.882 -0.4635 -0.5199 -0.2667
    1AU    AUSL  281   9.402   3.056   6.405  0.0978  0.0599 -0.1181
    1AU    AUSL  282   9.377   2.836   6.211  0.1003  0.0053 -0.1076
    1AU     AUL  283   9.357   3.163   6.308  0.0183 -0.0613 -0.0102
    1AU       S  284   9.287   2.712   5.828  0.4197 -0.1637  0.0306
    1AU     LIG  285   9.589   2.894   5.546 -0.0617 -0.0530  0.1521
    1AU     LIG  286   9.628   2.828   5.186  0.1166 -0.1836  0.0584
    1AU     LIG  287   9.467   2.809   4.890  0.1753 -0.0626  0.1730
    1AU     LIG  288   9.261   2.471   4.675  0.1154 -0.4406 -0.0758
    1AU     LIG  289   9.216   2.364   4.238  0.0420 -0.2555 -0.0492
    1AU       S  290   9.451   3.221   5.823  0.0436 -0.1741 -0.5091
    1AU     LIG  291   9.757   3.612   5.772 -0.4748  0.0180  0.2605
    1AU     LIG  292  10.033   4.008   5.870  0.1355 -0.2000  0.1875
    1AU     LIG  293  10.285   4.413   6.111  0.0048 -0.0556 -0.0437
    1AU     LIG  294  10.218   4.785   6.249  0.0596 -0.1823  0.4314
    1AU     LIG  295  10.347   5.124   6.573 -0.0899  0.2758 -0.3526
    1AU    AUSL  296   9.181   2.476   7.198  0.0032 -0.0454 -0.0363
    1AU    AUSL  297   9.137   2.742   7.137  0.0455 -0.0539 -0.0101
    1AU     AUL  298   9.050   2.877   7.305  0.0212  0.0082  0.0259
    1AU       S  299   9.027   2.126   7.433 -0.0645  0.1903  0.0939
    1AU     LIG  300   8.893   1.709   7.406 -0.3822 -0.3158  0.3848
    1AU     LIG  301   8.789   1.245   7.387  0.1180  0.1946 -0.3059
    1AU     LIG  302   8.468   0.987   7.576 -0.0056  0.1934  0.1963
    1AU     LIG  303   8.128   0.740   7.799 -0.1700 -0.0515  0.1385
    1AU     LIG  304   7.824   0.432   7.861  0.2100  0.0438 -0.0296
    1AU       S  305   8.662   2.633   7.506  0.2390 -0.1008  0.1876
    1AU     LIG  306   8.478   2.980   7.630  0.1255  0.2313 -0.4591
    1AU     LIG  307   8.085   3.133   7.756 -0.2276  0.1591 -0.0253
    1AU     LIG  308   7.801   3.252   7.931 -0.1653  0.0108  0.1235
    1AU     LIG  309   7.674   3.395   8.338  0.2574  0.0171 -0.1734
    1AU     LIG  310   7.545   3.755   8.603 -0.4447 -0.0193  0.2218
    1AU    AUSL  311   9.420   2.623   7.177 -0.0894 -0.1126 -0.0555
    1AU    AUSL  312   9.392   2.371   7.057 -0.0459  0.0522  0.0838
    1AU     AUL  313   9.482   2.482   7.394  0.0577 -0.0354  0.0109
    1AU       S  314   9.172   2.174   7.648 -0.1450 -0.2334  0.1895
    1AU     LIG  315   9.550   1.883   7.746 -0.0790 -0.2349 -0.1524
    1AU     LIG  316   9.740   1.599   7.691  0.0459  0.1271  0.0392
    1AU     LIG  317   9.960   1.255   7.486  0.2584  0.1793  0.3514
    1AU     LIG  318  10.311   1.163   7.278  0.1066 -0.1520  0.4299
    1AU     LIG  319  10.579   0.847   7.020  0.3357  0.1628  0.0378
    1AU       S  320   9.449   1.889   7.284 -0.5218  0.2145  0.2799
    1AU     LIG  321   9.397   1.385   7.316  0.2105 -0.0468  0.0387
    1AU     LIG  322   9.229   0.979   7.549 -0.1012 -0.4040 -0.5873
    1AU     LIG  323   9.246   0.588   7.536  0.1084 -0.1052  0.3403
    1AU     LIG  324   9.346   0.349   7.191 -0.0208  0.0377 -0.2713
    1AU     LIG  325   9.634   0.063   7.031 -0.1916 -0.0521  0.2798
    1AU    AUSL  326   9.249   2.814   6.457 -0.0318 -0.0158 -0.1439
    1AU    AUSL  327   9.531   2.746   6.439  0.0734 -0.0251 -0.1139
    1AU     AUL  328   9.564   2.665   6.333 -0.0433 -0.0624 -0.0088
    1AU       S  329   9.610   2.348   5.951 -0.4617 -0.2704  0.1705
    1AU     LIG  330   9.851   2.053   5.604  0.1353  0.1650  0.2370
    1AU     LIG  331   9.723   1.788   5.388  0.1918  0.1068  0.0064
    1AU     LIG  332   9.366   1.611   5.232  0.0534 -0.0603 -0.0423
    1AU     LIG  333   8.937   1.650   5.156 -0.2513 -0.2261  0.1488
    1AU     LIG  334   8.522   1.553   5.262 -0.1626  0.0429 -0.1029
    1AU       S  335   9.059   2.601   5.850 -0.0633 -0.4458  0.0068
    1AU     LIG  336   9.246   2.277   5.509  0.0839  0.1410  0.2313
    1AU     LIG  337   9.356   1.870   5.647  0.2191 -0.3693 -0.0030
    1AU     LIG  338   9.311   1.519   5.899  0.1701 -0.1381  0.0905
    1AU     LIG  339   9.474   1.180   6.075 -0.1232 -0.1970 -0.1858
    1AU     LIG  340   9.736   0.838   6.162 -0.5048  0.1548  0.1521
    1AU    AUSL  341   9.138   2.987   6.281  0.0433 -0.0566 -0.0673
    1AU    AUSL  342   9.009   2.726   6.381 -0.0250 -0.1037  0.0056
    1AU     AUL  343   9.097   3.147   6.447  0.0271 -0.0854  0.0045
    1AU       S  344   8.649   2.757   6.100  0.0700 -0.4011 -0.0442
    1AU     LIG  345   8.518   2.409   5.789  0.2447 -0.2455 -0.0384
    1AU     LIG  346   8.803   1.992   5.534  0.2370  0.5278  0.3463
    1AU     LIG  347   8.813   1.666   5.706 -0.1009  0.3260  0.0031
    1AU     LIG  348   8.781   1.478   6.009  0.2760 -0.0241  0.2936
    1AU     LIG  349   8.963   1.109   6.040  0.1966 -0.1277  0.0619
    1AU       S  350   9.041   2.901   5.784 -0.2841  0.0249 -0.1978
    1AU     LIG  351   8.789   2.964   5.501  0.0165  0.3139 -0.1182
    1AU     LIG  352   8.657   3.435   5.560  0.0757 -0.3138  0.1994
    1AU     LIG  353   8.611   3.885   5.683 -0.1258  0.0062 -0.1548
    1AU     LIG  354   8.597   4.252   5.898  0.2069  0.1411  0.0830
    1AU     LIG  355   8.704   4.620   5.920 -0.1049  0.3375  0.3656
    1AU    AUSL  356   9.496   3.419   7.086 -0.0038 -0.0690  0.0184
    1AU    AUSL  357   9.534   3.351   6.824  0.0226  0.0159  0.0001
    1AU     AUL  358   9.465   3.485   6.693 -0.0346 -0.0105 -0.0698
    1AU       S  359   9.574   3.946   6.777 -0.0534 -0.3386 -0.0597
    1AU     LIG  360   9.449   4.355   6.635 -0.1596  0.2684  0.1824
    1AU     LIG  361   9.314   4.861   6.877  0.2734  0.0354  0.2120
    1AU     LIG  362   9.056   5.159   6.798  0.2159  0.3844 -0.0889
    1AU     LIG  363   8.625   5.101   6.556 -0.4270  0.1604  0.0428
    1AU     LIG  364   8.353   4.947   6.794 -0.0132  0.3274 -0.0022
    1AU       S  365   9.689   3.750   7.377 -0.6231 -0.3401 -0.2675
    1AU     LIG  366   9.483   4.080   7.638 -0.3040 -0.1420 -0.2883
    1AU     LIG  367   9.503   4.522   7.619  0.1797 -0.0523 -0.0519
    1AU     LIG  368   9.395   4.925   7.338  0.3833  0.2281 -0.1811
    1AU     LIG  369   9.429   5.432   7.420 -0.3936 -0.0879  0.4785
    1AU     LIG  370   9.496   5.797   7.722  0.1896  0.1435 -0.4377
    1AU    AUSL  371   9.762   3.438   6.937 -0.0042 -0.0558 -0.0064
    1AU    AUSL  372   9.945   3.231   6.970 -0.0743  0.0247 -0.0547
    1AU     AUL  373   9.735   3.425   6.650 -0.0500  0.0075 -0.0601
    1AU       S  374   9.860   3.874   7.157  0.2646  0.0025  0.1905
    1AU     LIG  375   9.525   4.236   7.161  0.0935  0.0883  0.0644
    1AU     LIG  376   9.142   4.384   7.031 -0.2965  0.1556  0.0387
    1AU     LIG  377   8.889   4.805   7.176 -0.1468  0.2369  0.0391
    1AU     LIG  378   8.610   4.990   7.310 -0.0515  0.1890 -0.0359
    1AU     LIG  379   8.220   5.271   7.317  0.3334  0.0247 -0.1623
    1AU       S  380  10.406   3.376   7.128 -0.1080 -0.5134  0.5626
    1AU     LIG  381  10.917   3.484   7.070  0.0218 -0.1501 -0.1363
    1AU     LIG  382  11.194   3.734   6.933 -0.1627  0.2414 -0.4139
    1AU     LIG  383  11.417   3.616   6.637  0.0237  0.1653  0.0481
    1AU     LIG  384  11.779   3.465   6.472  0.0651  0.0873  0.0309
    1AU     LIG  385  12.113   3.510   6.732  0.2051  0.1149  0.2018
    1AU    AUSL  386   9.676   3.213   7.045 -0.0241  0.0520  0.0359
    1AU    AUSL  387   9.273   3.374   7.241 -0.0086 -0.0353  0.0225
    1AU     AUL  388   9.779   3.279   7.194 -0.0317 -0.0362  0.0230
    1AU       S  389   9.211   3.665   7.592  0.0485  0.1348  0.1144
    1AU     LIG  390   8.996   4.076   7.680  0.0350 -0.0892  0.0968
    1AU     LIG  391   8.856   4.400   7.463  0.0452 -0.0932 -0.1699
    1AU     LIG  392   8.582   4.453   7.089 -0.3142 -0.6424  0.2461
    1AU     LIG  393   8.687   4.623   6.728 -0.4084  0.0910  0.5535
    1AU     LIG  394   9.002   4.448   6.359  0.3241  0.3402  0.0783
    1AU       S  395   9.988   3.680   7.297  0.0023  0.0762  0.0052
    1AU     LIG  396  10.289   3.928   7.454  0.2857  0.1181 -0.2404
    1AU     LIG  397  10.150   4.341   7.616  0.3158  0.0745  0.2859
    1AU     LIG  398  10.263   4.603   7.935 -0.5013  0.2963  0.5587
    1AU     LIG  399  10.454   4.942   8.075  0.0264  0.1261  0.1188
    1AU     LIG  400  10.391   5.164   8.525 -0.1762 -0.1018  0.2127
    1AU    AUSL  401   9.026   2.727   6.850 -0.0012 -0.0556  0.0327
    1AU    AUSL  402   8.975   2.524   7.031 -0.0197 -0.0361  0.0515
    1AU     AUL  403   8.864   2.703   6.717 -0.0996  0.0789  0.0643
    1AU       S  404   8.413   2.560   6.727  0.1818 -0.1926 -0.0419
    1AU     LIG  405   8.157   2.370   6.977  0.1528 -0.0873 -0.2757
    1AU     LIG  406   7.931   1.963   7.031  0.0599  0.0087 -0.2438
    1AU     LIG  407   7.920   1.581   7.090  0.1352 -0.2355 -0.1487
    1AU     LIG  408   8.113   1.180   7.197 -0.1417  0.3844 -0.0821
    1AU     LIG  409   7.860   0.852   7.353 -0.0891  0.1598 -0.1215
    1AU       S  410   8.593   2.375   7.224  0.2230  0.1873 -0.3924
    1AU     LIG  411   8.395   1.980   7.379 -0.2105  0.1436 -0.0533
    1AU     LIG  412   7.941   1.778   7.554 -0.3296  0.0238  0.2179
    1AU     LIG  413   7.548   1.866   7.307  0.4555 -0.3560  0.4464
    1AU     LIG  414   7.454   1.805   6.874  0.0475  0.2090  0.0571
    1AU     LIG  415   7.535   2.131   6.588 -0.1273  0.1857 -0.1249
    1AU    AUSL  416   9.121   2.623   6.614 -0.0128  0.0760  0.0488
    1AU    AUSL  417   9.027   2.894   6.624  0.0861  0.0278  0.0887
    1AU     AUL  418   8.985   2.887   6.522  0.0397 -0.0370 -0.0202
    1AU       S  419   8.521   2.370   6.525  0.1910 -0.3348 -0.0420
    1AU     LIG  420   8.067   2.269   6.482 -0.1226 -0.1102 -0.0823
    1AU     LIG  421   7.920   1.814   6.513 -0.3002  0.0675  0.1280
    1AU     LIG  422   8.041   1.377   6.599 -0.0592 -0.3821  0.1216
    1AU     LIG  423   8.010   0.844   6.805 -0.1141 -0.2253  0.1821
    1AU     LIG  424   8.061   0.404   6.919 -0.2182 -0.2023  0.0573
    1AU       S  425   8.475   2.877   6.358 -0.0739  0.1085  0.0713
    1AU     LIG  426   8.177   2.682   6.225  0.1277  0.3995 -0.1765
    1AU     LIG  427   8.026   2.546   5.760  0.0312  0.2474 -0.1084
    1AU     LIG  428   7.889   2.359   5.447 -0.1165  0.1070  0.2132
    1AU     LIG  429   7.878   2.325   5.073  0.2245 -0.1166 -0.0394
    1AU     LIG  430   7.857   2.073   4.696 -0.0129 -0.1884  0.1123
    1AU    AUSL  431   8.973   2.454   6.759 -0.0620  0.0035  0.0222
    1AU    AUSL  432   9.206   2.351   6.639  0.0232  0.1030  0.0090
    1AU     AUL  433   9.032   2.453   6.354 -0.1614  0.0189 -0.2012
    1AU       S  434   9.113   1.919   6.529  0.1495 -0.2563  0.1082
    1AU     LIG  435   8.840   1.507   6.539  0.0170 -0.4825  0.0807
    1AU     LIG  436   9.004   1.015   6.522 -0.2823 -0.0352 -0.0995
    1AU     LIG  437   9.094   0.522   6.656 -0.0539 -0.2100  0.1688
    1AU     LIG  438   9.384   0.180   6.529  0.1253  0.0369  0.0578
    1AU     LIG  439   9.711  -0.076   6.510  0.3217 -0.2567  0.0549
    1AU       S  440   8.640   2.200   6.723  0.4075  0.1161  0.0291
    1AU     LIG  441   8.362   1.915   6.860  0.0105 -0.2126  0.0034
    1AU     LIG  442   8.473   1.487   7.013  0.1073 -0.1087  0.1920
    1AU     LIG  443   8.499   1.099   6.813 -0.2962 -0.0355 -0.1901
    1AU     LIG  444   8.621   0.691   6.717 -0.4423  0.1554 -0.0304
    1AU     LIG  445   8.489   0.289   6.729 -0.0223  0.4949 -0.0237
    1AU    AUSL  446   9.860   2.981   6.926 -0.0572 -0.0429  0.0576
    1AU    AUSL  447   9.661   2.995   7.223  0.0554 -0.0030 -0.0310
    1AU     AUL  448   9.846   2.999   7.197  0.0052 -0.0813  0.0149
    1AU       S  449  10.488   3.082   6.982  0.0762  0.0757  0.0234
    1AU     LIG  450  10.865   2.898   6.828 -0.5267 -0.2670 -0.2301
    1AU     LIG  451  11.262   2.630   6.923 -0.0802  0.0616 -0.1551
    1AU     LIG  452  11.289   2.336   7.178  0.4082 -0.1007 -0.0592
    1AU     LIG  453  11.386   1.930   7.395  0.1024  0.1488 -0.1415
    1AU     LIG  454  11.648   1.643   7.346  0.3979  0.4025 -0.0994
    1AU       S  455  10.266   3.076   7.489  0.2887  0.0969  0.4007
    1AU     LIG  456  10.171   3.409   7.715  0.0158  0.2008  0.0104
    1AU     LIG  457  10.412   3.788   7.914  0.0650 -0.2638 -0.1945
    1AU     LIG  458  10.424   4.124   8.106 -0.0734 -0.0827 -0.1448
    1AU     LIG  459  10.088   4.165   8.374 -0.1939  0.3553 -0.2057
    1AU     LIG  460   9.701   4.293   8.601  0.1437 -0.0014 -0.0748
    1AU    AUSL  461   9.760   3.171   6.770  0.1038 -0.0310 -0.0110
    1AU    AUSL  462  10.021   3.078   6.719  0.0444 -0.0308  0.0094
    1AU     AUL  463   9.989   3.409   6.765 -0.0953  0.0537  0.0593
    1AU       S  464  10.438   3.361   6.928  0.2292  0.4104 -0.0910
    1AU     LIG  465  10.320   3.847   6.859  0.1765  0.0053  0.2573
    1AU     LIG  466  10.185   4.217   6.956 -0.1172  0.1562  0.0975
    1AU     LIG  467  10.361   4.489   6.854  0.2051 -0.3881  0.1700
    1AU     LIG  468  10.428   4.824   7.032  0.1418  0.1521 -0.3177
    1AU     LIG  469  10.195   5.171   7.144  0.2039 -0.0222  0.1215
    1AU       S  470  10.397   3.253   6.415 -0.0373  0.5588  0.2397
    1AU     LIG  471  10.859   3.405   6.593 -0.0667  0.0144  0.2443
    1AU     LIG  472  11.301   3.100   6.630  0.1929 -0.1258  0.1539
    1AU     LIG  473  11.668   2.921   6.523  0.0701  0.1418  0.1116
    1AU     LIG  474  12.057   3.028   6.761 -0.0331 -0.2675  0.0418
    1AU     LIG  475  12.457   2.766   6.945  0.0513  0.0549 -0.0889
    1AU    AUSL  476   9.468   2.383   6.748  0.1389  0.0534  0.0564
    1AU    AUSL  477   9.372   2.537   6.526 -0.0011  0.0425  0.0261
    1AU     AUL  478   9.294   2.563   6.387  0.0168  0.0429  0.0949
    1AU       S  479   9.445   2.143   6.112  0.0525  0.2515  0.1032
    1AU     LIG  480   9.000   2.082   5.932  0.3108 -0.0480 -0.0881
    1AU     LIG  481   8.643   2.016   6.115  0.0746  0.2280 -0.3466
    1AU     LIG  482   8.426   1.686   6.340 -0.0861  0.0682 -0.0341
    1AU     LIG  483   8.484   1.248   6.335 -0.0071  0.3320  0.0934
    1AU     LIG  484   8.531   0.871   6.181 -0.1776  0.0641  0.2325
    1AU       S  485   9.424   1.874   6.622 -0.0643 -0.0480  0.1387
    1AU     LIG  486   9.331   1.478   6.504  0.0161  0.2501  0.0212
    1AU     LIG  487   9.457   1.084   6.689 -0.3210 -0.2551 -0.0078
    1AU     LIG  488   9.601   0.717   6.695 -0.3456 -0.3912  0.0017
    1AU     LIG  489   9.854   0.382   6.464 -0.1965  0.0374 -0.2327
    1AU     LIG  490  10.214   0.104   6.516  0.0665 -0.4902 -0.2772
    1AU    AUSL  491   9.229   2.529   6.867  0.0407  0.1072  0.0208
    1AU    AUSL  492   9.614   2.242   6.945  0.0485 -0.1064 -0.0393
    1AU     AUL  493   9.188   2.368   6.929  0.0950 -0.0569 -0.0536
    1AU       S  494   9.125   1.876   6.868 -0.2512 -0.2204  0.2838
    1AU     LIG  495   9.026   1.400   6.975  0.4590 -0.1255  0.2119
    1AU     LIG  496   9.118   0.995   7.041 -0.1675  0.0899  0.1620
    1AU     LIG  497   8.891   0.712   7.166 -0.1625  0.3187 -0.3444
    1AU     LIG  498   8.774   0.283   7.198  0.0146  0.0185  0.1681
    1AU     LIG  499   8.467   0.086   7.192  0.4590 -0.1225 -0.0527
    1AU       S  500   9.680   1.901   7.069  0.1310  0.1339  0.2505
    1AU     LIG  501   9.812   1.468   6.929 -0.0506  0.0509 -0.1486
    1AU     LIG  502   9.973   1.038   6.678 -0.2626 -0.2690  0.2274
    1AU     LIG  503  10.271   0.688   6.600  0.0676 -0.0403 -0.0353
    1AU     LIG  504  10.846   0.702   6.571 -0.0404  0.1453 -0.3595
    1AU     LIG  505  11.177   0.998   6.388 -0.1158  0.1686  0.3320
    2POPC   NC3  506   6.732   3.010   9.460  0.1709 -0.1659 -0.2551
    2POPC   PO4  507   6.464   3.248   9.270 -0.2100 -0.2366  0.0254
    2POPC   GL1  508   6.355   3.246   8.818  0.1044  0.1715  0.4046
    2POPC   GL2  509   6.319   3.512   8.704 -0.0015 -0.0503 -0.0773
    2POPC   C1A  510   6.567   3.270   8.347  0.1764 -0.0651  0.0668
    2POPC   D2A  511   6.762   3.502   8.023  0.2318  0.0962 -0.2826
    2POPC   C3A  512   6.655   3.613   7.663  0.0751  0.0641  0.1895
    2POPC   C4A  513   6.814   3.700   7.302  0.1694 -0.1026  0.3148
    2POPC   C1B  514   6.529   3.844   8.351  0.1217 -0.2032 -0.0792
    2POPC   C2B  515   6.750   4.055   7.935  0.0312  0.1059 -0.1736
    2POPC   C3B  516   6.799   4.372   7.586  0.0298 -0.0068  0.1661
    2POPC   C4B  517   6.948   4.604   7.095 -0.1161  0.0223 -0.1592
    3POPC   NC3  518   0.667   6.540   8.951 -0.1498 -0.0257  0.0351
    3POPC   PO4  519   0.983   6.742   8.668 -0.0354  0.2106 -0.1910
    3POPC   GL1  520   1.099   6.764   8.170 -0.1002  0.0056 -0.0929
    3POPC   GL2  521   0.895   6.948   7.965 -0.0248  0.0123  0.1366
    3POPC   C1A  522   1.196   6.425   7.899 -0.1380 -0.0565  0.0826
    3POPC   D2A  523   1.325   6.252   7.475 -0.0880  0.3219  0.3214
    3POPC   C3A  524   1.004   6.022   7.230 -0.1280 -0.1420  0.0862
    3POPC   C4A  525   0.900   5.776   6.875 -0.3901  0.2237 -0.1545
    3POPC   C1B  526   1.103   6.761   7.543  0.2415  0.0888 -0.2168
    3POPC   C2B  527   0.914   6.524   7.142  0.0245  0.1040 -0.2349
    3POPC   C3B  528   0.654   6.292   6.830  0.0154  0.1129  0.2430
    3POPC   C4B  529   0.456   6.230   6.428 -0.2036 -0.1378 -0.2818
    4POPC   NC3  530   4.540   4.458   8.527 -0.0136  0.2860  0.1402
    4POPC   PO4  531   4.244   4.231   8.813  0.1141 -0.1038  0.0716
    4POPC   GL1  532   4.177   4.123   8.321 -0.0433 -0.0021 -0.1302
    4POPC   GL2  533   4.374   3.906   8.126  0.1832  0.3564  0.1885
    4POPC   C1A  534   4.048   4.454   8.089  0.3364 -0.0034 -0.0436
    4POPC   D2A  535   4.003   4.582   7.610 -0.1427  0.1239 -0.1322
    4POPC   C3A  536   4.332   4.693   7.374 -0.0580 -0.0592 -0.1751
    4POPC   C4A  537   4.687   4.508   7.464  0.0081  0.1101  0.0753
    4POPC   C1B  538   4.546   3.544   7.784 -0.0901 -0.1680  0.0363
    4POPC   C2B  539   4.344   3.216   7.663 -0.3308 -0.1627  0.1265
    4POPC   C3B  540   4.199   2.825   7.622  0.2262 -0.0441 -0.3269
    4POPC   C4B  541   4.005   2.335   7.689 -0.0890  0.2896  0.0152
    5POPC   NC3  542   8.800   0.069   9.774  0.0528  0.1851 -0.0521
    5POPC   PO4  543   9.024  -0.047   9.503  0.0748  0.0290  0.1500
    5POPC   GL1  544   8.986   0.077   8.998 -0.2490 -0.1068  0.0151
    5POPC   GL2  545   8.590   0.179   8.879  0.0571  0.0785  0.2588
    5POPC   C1A  546   9.038   0.145   8.471 -0.0492 -0.2891 -0.1127
    5POPC   D2A  547   9.293   0.286   8.236  0.0566  0.0060 -0.0870
    5POPC   C3A  548   9.631  -0.044   8.239 -0.3274 -0.0092 -0.1989
    5POPC   C4A  549   9.997   0.131   8.175 -0.2775  0.0820 -0.1159
    5POPC   C1B  550   8.637  -0.107   8.467  0.1546 -0.2478 -0.1949
    5POPC   C2B  551   8.612  -0.101   8.027 -0.0633 -0.0506 -0.0375
    5POPC   C3B  552   8.802  -0.193   7.712 -0.1006 -0.0066  0.2040
    5POPC   C4B  553   8.973  -0.144   7.355 -0.1348 -0.0066 -0.0879
    6POPC   NC3  554   1.711   1.786   9.381  0.3045 -0.0151 -0.0485
    6POPC   PO4  555   1.528   2.149   9.142 -0.1733 -0.2547 -0.1330
    6POPC   GL1  556   1.604   2.058   8.760  0.0002  0.4294 -0.0310
    6POPC   GL2  557   1.279   1.859   8.617  0.1778  0.3207  0.2130
    6POPC   C1A  558   1.468   2.430   8.440  0.1373  0.1971  0.1663
    6POPC   D2A  559   1.383   2.824   8.346  0.0721  0.0565  0.2016
    6POPC   C3A  560   0.983   3.052   8.411 -0.0313  0.1338  0.2283
    6POPC   C4A  561   0.809   3.460   8.142 -0.1037  0.0025  0.0735
    6POPC   C1B  562   1.175   2.039   8.244 -0.4104 -0.1813 -0.3570
    6POPC   C2B  563   1.437   2.291   7.981  0.2022  0.0725 -0.3145
    6POPC   C3B  564   1.846   2.455   7.817  0.4299 -0.1554 -0.1135
    6POPC   C4B  565   1.793   2.701   7.401  0.0188 -0.0679 -0.1737
    7POPC   NC3  566   9.069   8.512   8.878  0.2252  0.0439 -0.1690
    7POPC   PO4  567   8.769   8.847   8.811 -0.0598  0.1204  0.0148
    7POPC   GL1  568   9.004   8.958   8.431  0.1290 -0.0915 -0.2591
    7POPC   GL2  569   8.805   8.796   8.175 -0.0707  0.1067  0.1766
    7POPC   C1A  570   9.109   9.140   8.035  0.1526 -0.1534 -0.3324
    7POPC   D2A  571   9.500   9.039   7.645 -0.1951  0.1292 -0.0191
    7POPC   C3A  572   9.302   8.738   7.315 -0.0979  0.0030  0.0724
    7POPC   C4A  573   9.302   8.497   7.019 -0.1833  0.1465  0.1795
    7POPC   C1B  574   8.608   9.046   7.811 -0.0174  0.0371 -0.1062
    7POPC   C2B  575   8.491   9.357   7.499  0.0974 -0.3099  0.0870
    7POPC   C3B  576   8.187   9.640   7.416  0.1685  0.0520 -0.1813
    7POPC   C4B  577   7.886   9.884   7.442 -0.1894 -0.1153  0.1717
    8POPC   NC3  578   1.732   6.021   8.565  0.0271 -0.0722 -0.1892
    8POPC   PO4  579   1.265   6.000   8.488 -0.0378  0.1481 -0.2620
    8POPC   GL1  580   1.483   5.985   8.072 -0.2036  0.3562 -0.3880
    8POPC   GL2  581   1.696   5.736   8.085  0.1400  0.0514 -0.1729
    8POPC   C1A  582   1.288   5.562   7.748  0.1632 -0.3403  0.2463
    8POPC   D2A  583   1.046   5.382   7.516 -0.0214  0.1865  0.0527
    8POPC   C3A  584   1.121   5.482   7.188 -0.1258 -0.1458 -0.1189
    8POPC   C4A  585   1.252   5.448   6.764 -0.0144 -0.0457 -0.0578
    8POPC   C1B  586   1.749   5.470   7.713  0.0887 -0.2805  0.0683
    8POPC   C2B  587   1.671   5.388   7.227 -0.2461 -0.2515  0.0045
    8POPC   C3B  588   1.739   5.152   6.817 -0.1569 -0.2477  0.0877
    8POPC   C4B  589   1.794   4.781   6.650  0.0983 -0.1984  0.1487
    9POPC   NC3  590   7.086   7.656   8.614  0.2852  0.1378  0.1698
    9POPC   PO4  591   6.801   7.349   8.615 -0.1437 -0.1002  0.4374
    9POPC   GL1  592   6.851   7.250   8.165  0.1839 -0.0787  0.2439
    9POPC   GL2  593   6.653   7.518   8.074 -0.1871  0.1574 -0.0051
    9POPC   C1A  594   7.129   7.109   7.972  0.0986 -0.1424  0.0125
    9POPC   D2A  595   6.995   6.813   7.636 -0.0880 -0.0706  0.4374
    9POPC   C3A  596   6.618   7.006   7.325  0.1220 -0.2679  0.0512
    9POPC   C4A  597   6.625   7.392   7.049  0.3652  0.0354  0.1604
    9POPC   C1B  598   6.331   7.319   7.844 -0.1249 -0.0141 -0.2834
    9POPC   C2B  599   6.160   7.122   7.421  0.0991 -0.1019 -0.3874
    9POPC   C3B  600   6.034   7.003   7.003 -0.1488  0.0127  0.0045
    9POPC   C4B  601   5.804   7.161   6.692 -0.0561  0.1676  0.0131
   10POPC   NC3  602   7.069   6.716   9.089 -0.0099  0.2227  0.2307
   10POPC   PO4  603   6.728   6.459   8.803  0.0826  0.2953 -0.0648
   10POPC   GL1  604   6.796   6.442   8.373  0.1556 -0.2396 -0.1393
   10POPC   GL2  605   6.996   6.677   8.191 -0.1124 -0.0723  0.2667
   10POPC   C1A  606   6.879   6.082   8.115  0.2131  0.1562  0.1029
   10POPC   D2A  607   7.068   5.932   7.740  0.3098  0.1627  0.0128
   10POPC   C3A  608   7.011   6.256   7.455  0.1564  0.1649 -0.2090
   10POPC   C4A  609   6.813   6.508   7.220 -0.1121  0.1199 -0.1585
   10POPC   C1B  610   7.151   6.456   7.972 -0.2120  0.3384 -0.1618
   10POPC   C2B  611   7.474   6.221   7.685 -0.1806 -0.1496  0.0820
   10POPC   C3B  612   7.636   6.155   7.250  0.0971 -0.0047 -0.1875
   10POPC   C4B  613   7.899   6.444   6.915  0.2333 -0.0447  0.0658
   11POPC   NC3  614   5.897   6.432   9.202  0.0413 -0.4336 -0.1246
   11POPC   PO4  615   5.472   6.464   9.273 -0.0884 -0.2733  0.2348
   11POPC   GL1  616   5.596   6.444   8.812 -0.0250 -0.0933 -0.2150
   11POPC   GL2  617   5.904   6.154   8.754 -0.0247  0.0177  0.0557
   11POPC   C1A  618   5.647   6.654   8.353  0.0383 -0.0262 -0.0018
   11POPC   D2A  619   5.962   6.547   8.210 -0.0740  0.3232  0.1043
   11POPC   C3A  620   6.119   6.744   7.722  0.1137  0.1315  0.1059
   11POPC   C4A  621   6.260   6.638   7.260 -0.1430 -0.0220 -0.0981
   11POPC   C1B  622   5.671   6.110   8.332 -0.0114  0.0840  0.1884
   11POPC   C2B  623   5.406   6.131   7.835 -0.0654 -0.0863 -0.0222
   11POPC   C3B  624   5.457   5.847   7.447 -0.0765  0.0530  0.0505
   11POPC   C4B  625   5.831   5.750   7.147  0.3121  0.0027  0.4648
   12POPC   NC3  626   8.442   3.681   9.885 -0.3484  0.1455  0.0845
   12POPC   PO4  627   8.658   3.276   9.871  0.4793 -0.0019  0.0829
   12POPC   GL1  628   8.634   3.484   9.479 -0.0152 -0.1032 -0.0493
   12POPC   GL2  629   8.521   3.129   9.346  0.0174 -0.3041  0.0793
   12POPC   C1A  630   8.845   3.538   9.099  0.2748  0.0991 -0.2729
   12POPC   D2A  631   9.205   3.705   8.967  0.0054 -0.0464 -0.1581
   12POPC   C3A  632   9.356   3.900   8.637 -0.0539 -0.1342 -0.2777
   12POPC   C4A  633   9.554   3.890   8.174  0.4581 -0.0134 -0.1279
   12POPC   C1B  634   8.584   3.088   8.983  0.1065  0.0501 -0.0910
   12POPC   C2B  635   8.313   2.804   8.657 -0.2072 -0.1970  0.1539
   12POPC   C3B  636   8.350   2.585   8.326 -0.0865  0.4528  0.1392
   12POPC   C4B  637   8.287   2.585   7.920  0.0848  0.0178 -0.1358
   13POPC   NC3  638   5.720   3.359   9.383  0.0046 -0.0176  0.2675
   13POPC   PO4  639   5.984   3.100   9.149  0.1655  0.0596  0.0542
   13POPC   GL1  640   5.991   2.854   8.684 -0.0269 -0.0662 -0.1799
   13POPC   GL2  641   5.793   3.142   8.522 -0.1701 -0.0394 -0.0732
   13POPC   C1A  642   6.280   2.817   8.394  0.1522 -0.2511 -0.0669
   13POPC   D2A  643   6.420   2.880   7.939  0.1831 -0.5161 -0.1227
   13POPC   C3A  644   6.693   3.088   7.749  0.0019  0.2101  0.3992
   13POPC   C4A  645   6.885   2.976   7.390  0.0544 -0.0629  0.2069
   13POPC   C1B  646   6.096   3.261   8.175  0.2073 -0.3254  0.0076
   13POPC   C2B  647   6.235   3.400   7.870 -0.1387  0.2158  0.4013
   13POPC   C3B  648   6.283   3.345   7.391 -0.1613  0.2262  0.0126
   13POPC   C4B  649   6.088   3.145   7.098 -0.0507  0.1427 -0.0610
   14POPC   NC3  650   7.909   8.035   8.695 -0.0584 -0.1593  0.0558
   14POPC   PO4  651   7.500   7.927   8.545 -0.0423  0.1107 -0.1176
   14POPC   GL1  652   7.678   8.168   8.265 -0.5040  0.1211  0.0899
   14POPC   GL2  653   7.474   8.437   8.308  0.1905 -0.2522 -0.1665
   14POPC   C1A  654   7.940   8.354   7.944 -0.1143  0.1406  0.2932
   14POPC   D2A  655   8.136   8.100   7.634 -0.1443  0.0904 -0.2843
   14POPC   C3A  656   8.322   8.293   7.362 -0.1377  0.0305 -0.4093
   14POPC   C4A  657   8.418   8.029   6.969 -0.0051  0.0777  0.0137
   14POPC   C1B  658   7.509   8.572   7.888 -0.2212  0.0333 -0.0774
   14POPC   C2B  659   7.306   8.508   7.550  0.3521  0.2098  0.1038
   14POPC   C3B  660   7.008   8.354   7.228 -0.0624 -0.2739  0.0421
   14POPC   C4B  661   6.770   8.437   6.955  0.0310  0.0305  0.1404
   15POPC   NC3  662   5.745   7.353   8.961 -0.3797  0.0275 -0.0304
   15POPC   PO4  663   5.441   7.441   8.660 -0.1828 -0.1746 -0.0803
   15POPC   GL1  664   5.499   7.514   8.231  0.2026 -0.0470  0.0128
   15POPC   GL2  665   5.339   7.226   8.012  0.0124  0.0883 -0.1384
   15POPC   C1A  666   5.504   7.744   7.939  0.0141  0.0978  0.0527
   15POPC   D2A  667   5.262   7.960   7.618 -0.2197 -0.0483  0.1671
   15POPC   C3A  668   5.275   7.678   7.171 -0.1602 -0.0698 -0.1283
   15POPC   C4A  669   5.072   7.849   6.752  0.0026 -0.2853  0.0388
   15POPC   C1B  670   5.104   6.967   7.906  0.1064  0.4454  0.1789
   15POPC   C2B  671   5.032   6.435   7.703  0.0298 -0.1696 -0.0679
   15POPC   C3B  672   5.133   6.287   7.318 -0.0300 -0.3699  0.2531
   15POPC   C4B  673   5.560   6.197   7.065  0.0204  0.0384  0.1762
   16POPC   NC3  674   1.940   4.626   9.148 -0.2843  0.0719 -0.2438
   16POPC   PO4  675   1.904   4.411   8.772  0.0595 -0.0315 -0.2169
   16POPC   GL1  676   1.804   4.290   8.307 -0.1404  0.0449 -0.0249
   16POPC   GL2  677   2.093   4.306   8.147  0.2282 -0.3359 -0.0732
   16POPC   C1A  678   1.653   4.074   7.937 -0.0677  0.1861 -0.1051
   16POPC   D2A  679   1.665   4.048   7.425  0.2943  0.0423  0.2177
   16POPC   C3A  680   1.292   3.839   7.125 -0.0187 -0.2249  0.0691
   16POPC   C4A  681   1.175   3.994   6.761  0.2767  0.2338 -0.1436
   16POPC   C1B  682   2.218   4.139   7.828  0.1946 -0.1435 -0.0798
   16POPC   C2B  683   2.183   4.080   7.286  0.1912 -0.0760  0.1852
   16POPC   C3B  684   2.320   3.859   6.958  0.0210  0.0768  0.1303
   16POPC   C4B  685   2.077   3.824   6.542  0.1174  0.0724  0.0915
   17POPC   NC3  686   8.332   9.234   8.957 -0.0237 -0.0674  0.0101
   17POPC   PO4  687   8.027   9.056   8.615 -0.2172 -0.3727  0.2161
   17POPC   GL1  688   8.068   9.374   8.339  0.1290 -0.0801 -0.3035
   17POPC   GL2  689   7.976   9.704   8.488 -0.2581  0.1350 -0.0256
   17POPC   C1A  690   8.111   9.449   7.910 -0.1345 -0.0704  0.2682
   17POPC   D2A  691   8.052   9.200   7.445  0.2282  0.0395 -0.1931
   17POPC   C3A  692   7.713   9.175   7.164  0.2613 -0.2511  0.1345
   17POPC   C4A  693   7.430   9.126   6.888 -0.0750  0.0963 -0.2570
   17POPC   C1B  694   7.787   9.787   8.172  0.3367  0.1989  0.1884
   17POPC   C2B  695   7.909  10.102   7.850 -0.2463  0.0454  0.0610
   17POPC   C3B  696   7.934  10.498   7.676 -0.0120 -0.2935 -0.3197
   17POPC   C4B  697   7.690  10.793   7.364 -0.1629  0.0592 -0.0784
   18POPC   NC3  698   3.001   6.299   8.576 -0.1428  0.0394 -0.0473
   18POPC   PO4  699   3.486   6.201   8.688  0.1825 -0.0800  0.0488
   18POPC   GL1  700   3.774   5.926   8.426 -0.1143 -0.0852 -0.3433
   18POPC   GL2  701   3.882   5.612   8.581 -0.0729 -0.2419 -0.1066
   18POPC   C1A  702   3.828   6.055   8.015  0.1660  0.1176  0.3708
   18POPC   D2A  703   4.016   6.125   7.579  0.0446  0.0009  0.2220
   18POPC   C3A  704   3.697   6.317   7.293  0.1007  0.0252  0.1282
   18POPC   C4A  705   3.384   6.122   7.090 -0.1812  0.0522 -0.4322
   18POPC   C1B  706   3.873   5.549   8.114 -0.2215  0.0388 -0.1064
   18POPC   C2B  707   4.008   5.625   7.631 -0.2177  0.3929 -0.1102
   18POPC   C3B  708   4.020   5.500   7.243  0.2883  0.1571 -0.0245
   18POPC   C4B  709   3.827   5.281   6.918  0.0318 -0.1472  0.0885
   19POPC   NC3  710   0.256   7.961   9.008  0.0128  0.2025  0.2331
   19POPC   PO4  711   0.328   7.844   8.553  0.1844 -0.2709  0.1407
   19POPC   GL1  712   0.367   7.505   8.337  0.2212  0.0970  0.0912
   19POPC   GL2  713   0.173   7.285   8.284 -0.1930  0.0053 -0.2603
   19POPC   C1A  714   0.512   7.329   7.909 -0.1403 -0.2036  0.1346
   19POPC   D2A  715   0.364   7.056   7.702 -0.0048 -0.0255  0.0270
   19POPC   C3A  716   0.487   6.712   7.786 -0.1548  0.0825  0.0842
   19POPC   C4A  717   0.785   6.330   7.639 -0.2072  0.0641  0.1510
   19POPC   C1B  718   0.037   7.295   7.897  0.1121  0.1772  0.1278
   19POPC   C2B  719  -0.263   7.376   7.568  0.1323  0.1516  0.1230
   19POPC   C3B  720  -0.733   7.390   7.375 -0.3412  0.0248 -0.1651
   19POPC   C4B  721  -1.079   7.188   7.072 -0.1340  0.2530 -0.0391
   20POPC   NC3  722   4.481   9.739   8.758  0.2016 -0.0862 -0.0138
   20POPC   PO4  723   4.369  10.149   8.727  0.1907 -0.0948 -0.1648
   20POPC   GL1  724   4.208  10.147   8.207 -0.0334 -0.1959 -0.1654
   20POPC   GL2  725   3.889  10.113   8.266  0.0715  0.2097 -0.0679
   20POPC   C1A  726   4.245  10.260   7.780  0.2831  0.3258  0.0985
   20POPC   D2A  727   4.032  10.390   7.321 -0.2085 -0.2594  0.1446
   20POPC   C3A  728   3.671  10.476   7.216 -0.1659  0.2276  0.1157
   20POPC   C4A  729   3.442  10.198   6.956  0.1029 -0.0649 -0.0981
   20POPC   C1B  730   3.899   9.940   7.868  0.0894 -0.1144 -0.0791
   20POPC   C2B  731   3.820   9.971   7.426 -0.0734  0.0366 -0.1002
   20POPC   C3B  732   4.046  10.003   7.028 -0.0597  0.1388 -0.0369
   20POPC   C4B  733   3.987  10.078   6.496  0.0128 -0.0024 -0.0549
   21POPC   NC3  734   2.227   3.215   8.700 -0.1782 -0.0486 -0.0570
   21POPC   PO4  735   2.486   3.555   8.608  0.1840 -0.2213 -0.1724
   21POPC   GL1  736   2.463   3.357   8.296 -0.1620  0.1558 -0.3286
   21POPC   GL2  737   2.249   3.177   8.099  0.2718 -0.1027 -0.2782
   21POPC   C1A  738   2.564   3.319   7.766 -0.2304  0.3659  0.3745
   21POPC   D2A  739   2.495   3.376   7.300  0.4393 -0.3024  0.1780
   21POPC   C3A  740   2.799   3.640   6.991 -0.0586 -0.0912 -0.0995
   21POPC   C4A  741   2.752   3.757   6.596 -0.0515 -0.0009 -0.0730
   21POPC   C1B  742   2.094   3.073   7.729 -0.4963  0.0749  0.3284
   21POPC   C2B  743   2.036   3.145   7.344 -0.0736 -0.0195  0.1613
   21POPC   C3B  744   2.101   3.324   6.959 -0.0854  0.0659  0.1245
   21POPC   C4B  745   2.503   3.292   6.800  0.2781  0.0838  0.3301
   22POPC   NC3  746   1.555   8.879   8.555  0.2885  0.0578 -0.2321
   22POPC   PO4  747   1.215   9.106   8.452 -0.2021  0.2145  0.0488
   22POPC   GL1  748   1.228   9.029   8.139 -0.0127 -0.0542  0.0242
   22POPC   GL2  749   1.533   8.822   8.054 -0.0675 -0.2127 -0.2034
   22POPC   C1A  750   1.018   9.053   7.787  0.2133 -0.0731  0.1719
   22POPC   D2A  751   0.776   9.034   7.423  0.0075  0.0429  0.0145
   22POPC   C3A  752   0.958   8.751   7.231  0.0187 -0.2034 -0.2438
   22POPC   C4A  753   1.278   8.684   6.821 -0.0284 -0.0360 -0.0535
   22POPC   C1B  754   1.350   8.617   7.761  0.2523  0.2730  0.3347
   22POPC   C2B  755   1.482   8.475   7.303 -0.1663  0.3369 -0.0342
   22POPC   C3B  756   1.766   8.370   6.935  0.0394 -0.1295  0.2464
   22POPC   C4B  757   2.098   8.413   6.736 -0.1131 -0.1979  0.0420
   23POPC   NC3  758   9.413   7.083   8.692 -0.1180  0.3609  0.2141
   23POPC   PO4  759   9.749   6.961   8.925  0.0743  0.2323 -0.2329
   23POPC   GL1  760   9.664   6.678   8.556 -0.0127  0.1939  0.2159
   23POPC   GL2  761   9.706   6.968   8.340 -0.0899 -0.1181 -0.0096
   23POPC   C1A  762   9.498   6.361   8.281  0.0871  0.0447  0.1149
   23POPC   D2A  763   9.518   6.231   7.908  0.0237 -0.0697  0.0570
   23POPC   C3A  764   9.385   6.291   7.486  0.2025 -0.0622  0.2357
   23POPC   C4A  765   9.117   6.391   7.196  0.0858  0.0392  0.2802
   23POPC   C1B  766   9.476   6.752   7.952 -0.0977  0.1243  0.0757
   23POPC   C2B  767   9.072   6.848   7.735  0.0235 -0.0398 -0.1241
   23POPC   C3B  768   8.599   6.737   7.784  0.1607 -0.3286 -0.2993
   23POPC   C4B  769   8.304   6.864   7.974 -0.0518  0.2561 -0.0289
   24POPC   NC3  770   5.396  10.238   8.644  0.3199 -0.2193  0.0711
   24POPC   PO4  771   4.900  10.337   8.773 -0.2129 -0.1378 -0.1216
   24POPC   GL1  772   5.022  10.460   8.379 -0.2544 -0.0877 -0.0294
   24POPC   GL2  773   5.242  10.715   8.437  0.0166  0.1414  0.0536
   24POPC   C1A  774   5.012  10.390   7.933  0.1047 -0.0208 -0.0545
   24POPC   D2A  775   5.349  10.462   7.691 -0.0907  0.1614 -0.3108
   24POPC   C3A  776   5.212  10.858   7.505  0.1281  0.4310  0.0887
   24POPC   C4A  777   4.975  11.186   7.370  0.1434  0.0206 -0.1735
   24POPC   C1B  778   5.265  10.810   8.006  0.1458 -0.5736  0.2323
   24POPC   C2B  779   5.669  10.841   7.756  0.1012  0.1869  0.1522
   24POPC   C3B  780   5.701  11.012   7.355 -0.1095 -0.2392  0.1927
   24POPC   C4B  781   5.876  10.860   7.029 -0.2212 -0.2241  0.1062
   25POPC   NC3  782  10.106   9.841   8.616 -0.3670  0.0585  0.2341
   25POPC   PO4  783  10.449   9.710   8.589 -0.0297 -0.3482 -0.0899
   25POPC   GL1  784  10.544   9.922   8.227  0.1432 -0.2317  0.0384
   25POPC   GL2  785  10.326  10.148   8.220 -0.4539  0.0575  0.1058
   25POPC   C1A  786  10.247   9.745   7.946  0.0124 -0.2381  0.2124
   25POPC   D2A  787  10.243   9.868   7.559 -0.1279  0.3475  0.3618
   25POPC   C3A  788  10.292   9.501   7.252 -0.1119  0.2101  0.0556
   25POPC   C4A  789  10.252   9.073   7.299  0.0597 -0.0073  0.1309
   25POPC   C1B  790   9.983  10.222   7.897 -0.4266  0.0941 -0.0537
   25POPC   C2B  791   9.819  10.196   7.452 -0.1041 -0.1625 -0.0641
   25POPC   C3B  792   9.690  10.052   6.991 -0.1746 -0.2688  0.1253
   25POPC   C4B  793   9.775   9.875   6.621  0.3398  0.1209  0.1261
   26POPC   NC3  794   0.806   5.863   8.534 -0.0760  0.2027 -0.1740
   26POPC   PO4  795   1.041   5.561   8.750  0.3605  0.1083  0.1417
   26POPC   GL1  796   0.758   5.358   8.437  0.1255 -0.1828  0.0029
   26POPC   GL2  797   0.783   4.990   8.566 -0.1140  0.2347 -0.0546
   26POPC   C1A  798   0.345   5.313   8.241 -0.1888  0.1019  0.2259
   26POPC   D2A  799  -0.021   5.332   7.810  0.0934  0.3363  0.1830
   26POPC   C3A  800  -0.077   4.916   7.563  0.1787 -0.2288  0.3112
   26POPC   C4A  801  -0.478   4.646   7.256 -0.1252 -0.1176 -0.0137
   26POPC   C1B  802   0.853   4.564   8.321 -0.0423  0.4468 -0.0298
   26POPC   C2B  803   0.876   4.467   7.825 -0.1599  0.3846 -0.1655
   26POPC   C3B  804   0.650   4.316   7.443  0.1513 -0.0458  0.0801
   26POPC   C4B  805   0.792   4.268   7.018  0.0405  0.2613  0.3869
   27POPC   NC3  806   5.154   5.020   8.753  0.0801  0.2728 -0.0857
   27POPC   PO4  807   5.428   4.701   8.903  0.2273 -0.0747  0.1369
   27POPC   GL1  808   5.506   4.764   8.539  0.2780  0.2120  0.0054
   27POPC   GL2  809   5.846   4.685   8.412 -0.3002 -0.0201 -0.0514
   27POPC   C1A  810   5.443   4.583   7.994  0.2261 -0.1458 -0.0014
   27POPC   D2A  811   5.498   4.551   7.644  0.0985  0.0848 -0.0111
   27POPC   C3A  812   5.487   4.294   7.339  0.2318  0.0340 -0.1403
   27POPC   C4A  813   5.699   3.995   7.184 -0.1691  0.2469 -0.1379
   27POPC   C1B  814   6.008   4.626   8.044 -0.3246 -0.0813 -0.0196
   27POPC   C2B  815   5.884   4.334   7.781  0.4305 -0.1827 -0.0154
   27POPC   C3B  816   5.790   3.912   7.757  0.0145 -0.0104 -0.2824
   27POPC   C4B  817   5.809   3.594   7.481  0.0029  0.0572  0.0047
   28POPC   NC3  818   4.569   6.411   8.956 -0.1096 -0.0941 -0.2323
   28POPC   PO4  819   4.702   5.981   8.966  0.0072 -0.1223 -0.2942
   28POPC   GL1  820   4.905   6.027   8.615 -0.0307  0.2287  0.0268
   28POPC   GL2  821   4.711   6.219   8.463  0.1036 -0.1677  0.0546
   28POPC   C1A  822   5.191   5.895   8.204  0.1635  0.4409 -0.0475
   28POPC   D2A  823   5.049   5.561   7.968 -0.0332  0.2570  0.1956
   28POPC   C3A  824   5.134   5.473   7.533  0.0530  0.1597  0.0255
   28POPC   C4A  825   5.465   5.424   7.156  0.1231  0.2043  0.0913
   28POPC   C1B  826   4.763   6.136   8.080 -0.1678 -0.0931 -0.1081
   28POPC   C2B  827   4.944   5.949   7.711  0.2128  0.2444  0.0365
   28POPC   C3B  828   4.891   5.859   7.311  0.0412  0.0698  0.0926
   28POPC   C4B  829   4.993   5.445   6.982  0.1321 -0.1810 -0.0442
   29POPC   NC3  830   1.591   2.499   9.558 -0.1379  0.3610 -0.1175
   29POPC   PO4  831   1.114   2.388   9.469 -0.1379 -0.2757 -0.0702
   29POPC   GL1  832   1.105   2.322   8.992  0.1079  0.1857 -0.2818
   29POPC   GL2  833   0.830   2.053   8.840 -0.0569  0.2049 -0.2205
   29POPC   C1A  834   1.051   2.433   8.628 -0.5100  0.0082 -0.0522
   29POPC   D2A  835   0.976   2.592   8.214  0.2757  0.2645 -0.1927
   29POPC   C3A  836   0.566   2.868   7.950  0.1967  0.2443 -0.2955
   29POPC   C4A  837   0.707   3.205   7.701 -0.0163  0.1640  0.0182
   29POPC   C1B  838   0.672   2.211   8.403 -0.1863 -0.0256 -0.1966
   29POPC   C2B  839   0.482   2.379   7.983  0.1463  0.0961  0.0339
   29POPC   C3B  840   0.361   2.514   7.643  0.1515 -0.2175  0.1094
   29POPC   C4B  841   0.315   2.505   7.197 -0.2619 -0.3359 -0.1299
   30POPC   NC3  842   8.647   7.497   9.174  0.0775  0.0496  0.0187
   30POPC   PO4  843   8.999   7.149   9.047  0.1843  0.0013  0.3341
   30POPC   GL1  844   8.891   7.071   8.617  0.5422  0.2267  0.1404
   30POPC   GL2  845   9.149   7.033   8.302 -0.1272 -0.0123  0.1081
   30POPC   C1A  846   8.635   6.817   8.326  0.1061  0.1400 -0.0110
   30POPC   D2A  847   8.327   6.476   8.246  0.0790  0.2170  0.1678
   30POPC   C3A  848   8.246   6.378   7.900 -0.0253  0.0611 -0.1587
   30POPC   C4A  849   7.911   6.570   7.617  0.2501 -0.1502  0.0671
   30POPC   C1B  850   9.063   6.583   8.152  0.2201  0.3304  0.1775
   30POPC   C2B  851   8.937   6.341   7.728  0.4971 -0.1826  0.2265
   30POPC   C3B  852   8.684   6.182   7.506 -0.2762 -0.0021  0.0614
   30POPC   C4B  853   8.221   6.217   7.400  0.1097  0.0659 -0.0370
   31POPC   NC3  854   0.668   4.794   9.567 -0.0294 -0.0090 -0.0027
   31POPC   PO4  855   1.019   4.698   9.212 -0.2490 -0.2227 -0.1314
   31POPC   GL1  856   0.763   4.345   9.160  0.0523  0.1703  0.1040
   31POPC   GL2  857   0.824   4.255   8.858 -0.1851 -0.0849  0.0270
   31POPC   C1A  858   0.335   4.254   9.059  0.1909 -0.1735  0.1883
   31POPC   D2A  859  -0.006   3.931   8.987  0.0419  0.0587 -0.2655
   31POPC   C3A  860  -0.341   3.703   9.115 -0.1200  0.2944  0.0995
   31POPC   C4A  861  -0.319   3.457   9.346  0.2827 -0.2763  0.0748
   31POPC   C1B  862   0.525   4.406   8.599 -0.2428 -0.1684 -0.1346
   31POPC   C2B  863   0.399   4.384   8.121  0.0709 -0.2281 -0.1227
   31POPC   C3B  864   0.211   4.199   7.715 -0.1468 -0.0155  0.1538
   31POPC   C4B  865   0.069   4.396   7.284 -0.0007 -0.0643 -0.1348
   32POPC   NC3  866   1.170   8.977   8.926  0.1988 -0.1522  0.0220
   32POPC   PO4  867   1.260   8.518   8.764  0.0649  0.0256  0.1701
   32POPC   GL1  868   1.191   8.357   8.378  0.0682  0.2783 -0.1017
   32POPC   GL2  869   1.209   8.517   8.222 -0.0706 -0.3050 -0.0242
   32POPC   C1A  870   0.745   8.181   8.024  0.0227 -0.3108 -0.2686
   32POPC   D2A  871   0.429   7.855   8.025 -0.3013 -0.0301  0.0091
   32POPC   C3A  872   0.298   7.687   7.657  0.1567 -0.3953  0.1558
   32POPC   C4A  873  -0.073   7.862   7.711 -0.0431  0.2868  0.0163
   32POPC   C1B  874   0.902   8.682   8.054  0.2894 -0.1249 -0.0616
   32POPC   C2B  875   0.663   8.592   7.696  0.3430  0.1516 -0.1230
   32POPC   C3B  876   0.564   8.204   7.546  0.0865 -0.3396 -0.1112
   32POPC   C4B  877   0.870   7.792   7.606 -0.3254 -0.0364  0.1518
   33POPC   NC3  878   1.393   6.481   8.518  0.3232 -0.0505  0.2731
   33POPC   PO4  879   1.517   6.892   8.452 -0.3460  0.0788 -0.2731
   33POPC   GL1  880   1.851   6.885   8.129 -0.1555  0.0843 -0.1854
   33POPC   GL2  881   1.908   7.213   8.192  0.0451  0.1113 -0.0118
   33POPC   C1A  882   2.195   6.852   7.909  0.2450  0.1604  0.2790
   33POPC   D2A  883   2.475   7.012   7.663  0.0860  0.0844 -0.0245
   33POPC   C3A  884   2.936   7.090   7.665 -0.2338  0.3508 -0.0472
   33POPC   C4A  885   3.340   6.974   7.852  0.1084 -0.0495 -0.0025
   33POPC   C1B  886   1.888   7.112   7.645  0.1356  0.2871 -0.3151
   33POPC   C2B  887   1.990   6.950   7.295 -0.1336 -0.2757 -0.0649
   33POPC   C3B  888   2.248   6.976   6.906  0.1251  0.0745  0.0166
   33POPC   C4B  889   2.367   6.609   6.678 -0.2758 -0.0572  0.1803
   34POPC   NC3  890   7.135   5.265   9.454 -0.1731  0.0146 -0.0904
   34POPC   PO4  891   6.901   5.296   9.103  0.2875 -0.0778  0.2207
   34POPC   GL1  892   7.208   5.214   8.803  0.0306  0.0738  0.0125
   34POPC   GL2  893   7.274   5.331   8.432 -0.0371  0.3015 -0.0518
   34POPC   C1A  894   7.513   4.829   8.754  0.3494  0.0521  0.2630
   34POPC   D2A  895   7.746   4.522   8.541  0.1465  0.1791 -0.1746
   34POPC   C3A  896   7.509   4.476   8.231  0.3011  0.2326 -0.0025
   34POPC   C4A  897   7.462   4.403   7.817 -0.1298 -0.0938 -0.0367
   34POPC   C1B  898   7.135   5.551   8.090 -0.2095  0.2161  0.3527
   34POPC   C2B  899   7.166   5.423   7.637 -0.1672  0.0076  0.0658
   34POPC   C3B  900   6.909   5.177   7.349  0.2003  0.4127 -0.3489
   34POPC   C4B  901   6.653   5.180   6.997  0.0328  0.1871 -0.0253
   35POPC   NC3  902   2.741   2.677   8.642 -0.1268 -0.0330 -0.2283
   35POPC   PO4  903   2.316   2.742   8.717  0.1530 -0.1083 -0.4020
   35POPC   GL1  904   2.092   2.717   8.406  0.0770 -0.3380 -0.1558
   35POPC   GL2  905   2.183   2.370   8.244 -0.1023  0.2184 -0.2623
   35POPC   C1A  906   1.786   2.875   8.131  0.2004  0.2719 -0.1124
   35POPC   D2A  907   1.547   2.861   7.805 -0.2402 -0.0626 -0.0448
   35POPC   C3A  908   1.408   3.030   7.482  0.2176 -0.1090  0.2682
   35POPC   C4A  909   1.611   3.268   7.175  0.1346  0.1182 -0.2995
   35POPC   C1B  910   2.290   2.637   7.906  0.1884 -0.1984 -0.1428
   35POPC   C2B  911   2.515   2.781   7.659 -0.2054 -0.2879  0.2395
   35POPC   C3B  912   2.479   2.891   7.259 -0.3144 -0.1305  0.0778
   35POPC   C4B  913   2.456   2.711   6.864 -0.4153  0.2139  0.0354
   36POPC   NC3  914   3.831   2.329   8.580  0.0867 -0.1207  0.1638
   36POPC   PO4  915   4.278   2.424   8.672  0.1565 -0.2099 -0.0735
   36POPC   GL1  916   4.198   1.995   8.511  0.1979 -0.2393 -0.1586
   36POPC   GL2  917   4.105   2.110   8.140 -0.0088  0.0757  0.1888
   36POPC   C1A  918   4.608   1.840   8.200 -0.3157  0.1007  0.0518
   36POPC   D2A  919   4.571   2.023   7.800 -0.0134 -0.1220 -0.1425
   36POPC   C3A  920   4.453   2.351   7.507  0.0980 -0.1006  0.2278
   36POPC   C4A  921   4.430   2.682   7.230  0.0565  0.2399  0.1163
   36POPC   C1B  922   4.235   1.695   7.908  0.1884  0.3961  0.1729
   36POPC   C2B  923   3.997   1.315   7.727 -0.2361 -0.2953 -0.0658
   36POPC   C3B  924   3.719   1.126   7.366  0.1377 -0.1717  0.1055
   36POPC   C4B  925   3.613   0.687   7.128  0.0725 -0.0428 -0.1424
   37POPC   NC3  926   0.687   3.171  10.235 -0.0030 -0.0440  0.1048
   37POPC   PO4  927   0.279   3.184   9.879  0.0035  0.1805  0.0454
   37POPC   GL1  928   0.057   2.933   9.644 -0.1634  0.1977 -0.1029
   37POPC   GL2  929   0.060   3.114   9.438  0.1239 -0.2799  0.5408
   37POPC   C1A  930  -0.385   2.962   9.576 -0.1863 -0.2082 -0.0850
   37POPC   D2A  931  -0.732   2.731   9.662 -0.2022  0.0849 -0.2458
   37POPC   C3A  932  -1.070   2.646   9.545  0.3779 -0.0706  0.1306
   37POPC   C4A  933  -1.327   2.503   9.148  0.3842 -0.0283 -0.3405
   37POPC   C1B  934  -0.143   3.109   9.039  0.2913  0.1478 -0.2424
   37POPC   C2B  935  -0.476   3.310   8.693  0.1303  0.0313 -0.0640
   37POPC   C3B  936  -0.886   3.399   8.612 -0.1216  0.2651  0.1150
   37POPC   C4B  937  -1.122   3.441   8.287  0.1366 -0.1304 -0.0387
   38POPC   NC3  938   2.880   5.317   8.670  0.1328  0.2079  0.2833
   38POPC   PO4  939   2.426   5.251   8.635  0.1189  0.0326  0.3220
   38POPC   GL1  940   2.525   5.306   8.314  0.0251 -0.2904  0.2350
   38POPC   GL2  941   2.503   5.621   8.192  0.0126 -0.2630  0.3783
   38POPC   C1A  942   2.563   4.956   8.031  0.0374  0.1353 -0.1877
   38POPC   D2A  943   2.581   4.565   7.906  0.0109  0.3024 -0.1588
   38POPC   C3A  944   2.649   4.327   7.465  0.2704  0.2236 -0.0295
   38POPC   C4A  945   2.589   4.254   7.042  0.1915  0.0458 -0.0308
   38POPC   C1B  946   2.185   5.696   7.852 -0.0099 -0.1475 -0.0482
   38POPC   C2B  947   2.161   5.458   7.450  0.1062 -0.0255 -0.1869
   38POPC   C3B  948   2.156   5.236   7.132  0.1155  0.0124  0.1040
   38POPC   C4B  949   2.187   4.897   6.923  0.1208  0.3042  0.1357
   39POPC   NC3  950   8.254   0.407   9.203 -0.2827  0.1969 -0.0883
   39POPC   PO4  951   8.756   0.456   9.282  0.2000 -0.0020  0.1781
   39POPC   GL1  952   8.888   0.560   8.828  0.1281  0.1321 -0.0504
   39POPC   GL2  953   9.276   0.565   8.824  0.0474 -0.1840  0.1820
   39POPC   C1A  954   8.783   0.855   8.587  0.1613 -0.1869  0.2851
   39POPC   D2A  955   8.494   0.926   8.217  0.0136 -0.1478 -0.3525
   39POPC   C3A  956   8.251   1.300   7.949 -0.1026  0.1911 -0.1291
   39POPC   C4A  957   7.962   1.288   7.670  0.1805 -0.1778  0.1329
   39POPC   C1B  958   9.286   0.796   8.439 -0.1647  0.5010 -0.2864
   39POPC   C2B  959   9.316   0.720   8.006 -0.1462  0.2169 -0.0841
   39POPC   C3B  960   9.685   0.862   7.638  0.4171 -0.1601 -0.0058
   39POPC   C4B  961   9.803   0.795   7.217  0.1061 -0.0017  0.0530
   40POPC   NC3  962   3.184   9.589   8.643  0.0805  0.0987  0.0788
   40POPC   PO4  963   2.867   9.239   8.774 -0.1705 -0.0733 -0.0165
   40POPC   GL1  964   2.914   9.205   8.313  0.0073  0.1164 -0.1062
   40POPC   GL2  965   2.731   9.407   8.155 -0.3024  0.2982 -0.2100
   40POPC   C1A  966   3.231   9.212   7.959 -0.0431 -0.0517 -0.3486
   40POPC   D2A  967   3.506   9.118   7.617  0.1703 -0.2147  0.3567
   40POPC   C3A  968   3.180   9.123   7.269 -0.1839 -0.1133  0.3013
   40POPC   C4A  969   2.851   9.378   7.035 -0.1107  0.1942  0.1351
   40POPC   C1B  970   2.937   9.528   7.685 -0.0805 -0.0296 -0.0846
   40POPC   C2B  971   2.811   9.805   7.308 -0.2685 -0.1375 -0.1268
   40POPC   C3B  972   2.760  10.163   7.103  0.1780  0.0195 -0.2882
   40POPC   C4B  973   2.982  10.407   7.113 -0.1721 -0.1551  0.0873
   41POPC   NC3  974   9.827   8.342   8.844  0.2627  0.2334 -0.0516
   41POPC   PO4  975   9.395   8.126   8.654 -0.1278 -0.0676  0.0396
   41POPC   GL1  976   9.225   7.909   8.339 -0.1138 -0.1622 -0.1006
   41POPC   GL2  977   8.933   7.856   8.234  0.3392  0.0848  0.3671
   41POPC   C1A  978   9.163   8.093   7.892 -0.3824 -0.1831 -0.1052
   41POPC   D2A  979   9.117   8.279   7.550 -0.0655  0.3020 -0.0478
   41POPC   C3A  980   8.852   8.461   7.279 -0.2062  0.0810 -0.2002
   41POPC   C4A  981   8.977   8.841   6.940 -0.3026  0.2128 -0.0316
   41POPC   C1B  982   9.144   7.575   7.933 -0.1786  0.0303  0.0045
   41POPC   C2B  983   9.045   7.350   7.607 -0.0689  0.1710  0.2348
   41POPC   C3B  984   8.982   7.100   7.298  0.0794  0.0309 -0.3972
   41POPC   C4B  985   8.714   6.765   7.271 -0.1741  0.0380 -0.0398
   42POPC   NC3  986   8.805   4.982  10.146 -0.0899  0.0429  0.2794
   42POPC   PO4  987   8.968   5.078   9.758  0.1491  0.1123 -0.1812
   42POPC   GL1  988   8.857   4.775   9.430 -0.2531  0.0375  0.2736
   42POPC   GL2  989   8.613   4.576   9.397  0.2299  0.0235  0.2118
   42POPC   C1A  990   9.047   4.382   9.430 -0.1589  0.1148  0.1749
   42POPC   D2A  991   8.952   4.073   9.292 -0.1137 -0.1364 -0.0603
   42POPC   C3A  992   8.571   3.896   9.280 -0.0118  0.4341  0.3676
   42POPC   C4A  993   8.309   3.568   9.113  0.0810  0.0355  0.2219
   42POPC   C1B  994   8.628   4.310   8.977 -0.1147 -0.2729 -0.2424
   42POPC   C2B  995   8.755   3.971   8.829 -0.1294 -0.3358  0.0028
   42POPC   C3B  996   8.888   3.593   8.576 -0.1946 -0.0516 -0.2591
   42POPC   C4B  997   9.111   3.214   8.759 -0.1818  0.0529 -0.1361
   43POPC   NC3  998   8.077   2.756   9.937  0.0257 -0.1936  0.0988
   43POPC   PO4  999   7.789   2.883   9.674  0.1808 -0.0770  0.1134
   43POPC   GL1 1000   7.679   2.789   9.318 -0.1209  0.1902 -0.1219
   43POPC   GL2 1001   7.806   2.597   9.201  0.0948  0.1484  0.0081
   43POPC   C1A 1002   7.336   2.767   9.004  0.1556  0.0354 -0.0437
   43POPC   D2A 1003   7.125   2.765   8.675 -0.2210  0.1554  0.0046
   43POPC   C3A 1004   6.560   2.554   8.643 -0.2229 -0.4016  0.1378
   43POPC   C4A 1005   6.210   2.356   8.578  0.1880  0.0165 -0.2086
   43POPC   C1B 1006   8.116   2.447   8.963 -0.0592  0.0934 -0.1476
   43POPC   C2B 1007   8.445   2.340   8.726 -0.0636 -0.1172  0.0381
   43POPC   C3B 1008   8.960   2.230   8.661  0.0530 -0.0764  0.2624
   43POPC   C4B 1009   9.388   2.216   8.724  0.0316  0.2906 -0.0499
   44POPC   NC3 1010   5.510   3.060   8.960 -0.2124 -0.3366 -0.3229
   44POPC   PO4 1011   5.033   3.098   8.881  0.0130 -0.1421  0.3612
   44POPC   GL1 1012   5.190   2.873   8.581 -0.0786  0.1468  0.1148
   44POPC   GL2 1013   5.433   2.652   8.575 -0.0006 -0.0933  0.0895
   44POPC   C1A 1014   5.104   2.755   8.080  0.0091  0.1180  0.0331
   44POPC   D2A 1015   5.463   2.647   7.924 -0.1493 -0.0015  0.0858
   44POPC   C3A 1016   5.598   2.477   7.446  0.0789  0.2863 -0.3556
   44POPC   C4A 1017   5.794   2.109   7.192  0.4365 -0.0410  0.3240
   44POPC   C1B 1018   5.773   2.588   8.294 -0.2170  0.0563 -0.1429
   44POPC   C2B 1019   6.067   2.518   8.041 -0.0019  0.0771  0.0541
   44POPC   C3B 1020   6.137   2.498   7.604  0.2710 -0.1783  0.2756
   44POPC   C4B 1021   6.260   2.323   7.201 -0.1338 -0.1409 -0.0372
   45POPC   NC3 1022   7.306   0.472   9.171  0.0262  0.0877  0.1761
   45POPC   PO4 1023   7.771   0.234   9.268  0.1496 -0.0422  0.0207
   45POPC   GL1 1024   7.783   0.681   9.176 -0.1251  0.5569 -0.1752
   45POPC   GL2 1025   7.677   0.905   9.396 -0.0778  0.2435 -0.0971
   45POPC   C1A 1026   7.769   0.741   8.642  0.0347 -0.1093 -0.1424
   45POPC   D2A 1027   8.082   0.532   8.357  0.3489  0.1676 -0.1542
   45POPC   C3A 1028   8.486   0.422   8.425 -0.2869  0.3443 -0.1310
   45POPC   C4A 1029   8.851   0.520   8.248 -0.1146 -0.0902 -0.2039
   45POPC   C1B 1030   7.582   1.134   8.993  0.0595  0.1426 -0.2450
   45POPC   C2B 1031   7.570   1.271   8.521  0.1606 -0.0527  0.0262
   45POPC   C3B 1032   7.536   1.307   8.109  0.1905  0.0362 -0.0103
   45POPC   C4B 1033   7.413   1.018   7.742  0.1699  0.2738 -0.2780
   46POPC   NC3 1034   5.918   0.998   9.376  0.1772  0.0596 -0.1007
   46POPC   PO4 1035   5.675   1.458   9.305  0.0826  0.5111 -0.0170
   46POPC   GL1 1036   5.671   1.505   8.759 -0.0589  0.2886  0.0587
   46POPC   GL2 1037   5.659   1.174   8.593  0.1961  0.3912 -0.1590
   46POPC   C1A 1038   5.738   1.638   8.302  0.0317 -0.0016  0.1129
   46POPC   D2A 1039   6.162   1.742   8.009  0.5074 -0.1770 -0.0311
   46POPC   C3A 1040   6.120   1.868   7.552  0.0853 -0.0084  0.4492
   46POPC   C4A 1041   6.297   1.810   7.138  0.0432 -0.0491  0.1490
   46POPC   C1B 1042   5.517   1.147   8.118  0.1798 -0.4295 -0.1830
   46POPC   C2B 1043   5.324   1.349   7.746 -0.1671 -0.0495  0.1374
   46POPC   C3B 1044   5.040   1.180   7.301  0.2922  0.1457 -0.1859
   46POPC   C4B 1045   4.662   1.004   7.109 -0.1770  0.1260  0.3263
   47POPC   NC3 1046   4.775   8.491   9.078 -0.1163  0.0731  0.2174
   47POPC   PO4 1047   5.173   8.674   8.895  0.1199  0.0563  0.0624
   47POPC   GL1 1048   5.329   8.587   8.396 -0.0650  0.0396  0.1731
   47POPC   GL2 1049   5.363   8.817   8.086  0.0382  0.1241 -0.2408
   47POPC   C1A 1050   5.387   8.308   8.079  0.3201  0.2387  0.1882
   47POPC   D2A 1051   5.898   8.114   7.998  0.1405 -0.1442 -0.0498
   47POPC   C3A 1052   6.140   8.259   7.644 -0.1620  0.1304 -0.0310
   47POPC   C4A 1053   6.028   8.228   7.287  0.2686 -0.1479 -0.0504
   47POPC   C1B 1054   4.989   8.896   7.848 -0.3356 -0.0224 -0.1874
   47POPC   C2B 1055   5.056   8.693   7.438 -0.2832  0.2086  0.0589
   47POPC   C3B 1056   5.128   8.666   7.037  0.1134  0.1559  0.0104
   47POPC   C4B 1057   5.147   8.642   6.625  0.0750 -0.0674  0.0582
   48POPC   NC3 1058   9.219   0.389   9.311 -0.1466 -0.2216 -0.3378
   48POPC   PO4 1059   9.650   0.477   9.239  0.0981  0.1357  0.0526
   48POPC   GL1 1060   9.780   0.460   8.809  0.0422  0.0247 -0.0365
   48POPC   GL2 1061   9.724   0.527   8.536 -0.1991  0.0109  0.0443
   48POPC   C1A 1062  10.196   0.487   8.452  0.3747 -0.1379  0.2637
   48POPC   D2A 1063  10.515   0.713   8.104 -0.0801  0.1848  0.0578
   48POPC   C3A 1064  10.391   0.859   7.687 -0.1958 -0.0736  0.1267
   48POPC   C4A 1065  10.277   0.608   7.351 -0.0290 -0.2744  0.2844
   48POPC   C1B 1066   9.787   0.599   8.181 -0.3281  0.1672 -0.3084
   48POPC   C2B 1067  10.061   0.462   7.795 -0.2488  0.0077  0.2525
   48POPC   C3B 1068   9.915   0.272   7.398  0.3913  0.0270  0.0346
   48POPC   C4B 1069   9.977   0.457   6.954 -0.1454 -0.1091  0.0575
   49POPC   NC3 1070   3.336   2.309   8.897 -0.1041 -0.4359  0.1002
   49POPC   PO4 1071   2.982   2.240   8.636  0.4550 -0.3791 -0.0432
   49POPC   GL1 1072   2.785   2.247   8.306  0.3323  0.3207 -0.0035
   49POPC   GL2 1073   3.036   1.991   8.084 -0.0907 -0.1978 -0.1434
   49POPC   C1A 1074   2.735   2.355   7.925 -0.2035 -0.2959  0.2053
   49POPC   D2A 1075   2.741   2.322   7.485 -0.1889 -0.1197 -0.0138
   49POPC   C3A 1076   2.586   1.882   7.404 -0.1400  0.4048 -0.0690
   49POPC   C4A 1077   2.564   1.657   6.952  0.2308  0.2360 -0.1716
   49POPC   C1B 1078   2.983   1.922   7.634 -0.1013 -0.0251 -0.1087
   49POPC   C2B 1079   3.159   1.966   7.295  0.0499 -0.1437 -0.0066
   49POPC   C3B 1080   3.138   2.451   7.187 -0.1646 -0.0508 -0.0946
   49POPC   C4B 1081   3.024   2.756   7.021  0.1841 -0.0153  0.2803
   50POPC   NC3 1082   2.471   7.285   8.806  0.1335 -0.0581  0.0185
   50POPC   PO4 1083   2.666   6.896   8.955  0.3631  0.0213 -0.1653
   50POPC   GL1 1084   2.728   6.950   8.475 -0.0527 -0.0858  0.0030
   50POPC   GL2 1085   3.018   6.816   8.246  0.1537 -0.0357  0.0740
   50POPC   C1A 1086   2.528   7.262   8.137  0.2998 -0.0045  0.0923
   50POPC   D2A 1087   2.253   7.441   7.847 -0.2608  0.2706 -0.1417
   50POPC   C3A 1088   2.340   7.389   7.355 -0.1402 -0.2753  0.5460
   50POPC   C4A 1089   2.384   7.445   6.973  0.0565 -0.1656  0.1340
   50POPC   C1B 1090   2.755   6.690   7.913  0.0026 -0.1744 -0.1391
   50POPC   C2B 1091   2.850   6.615   7.494 -0.1769 -0.4817  0.0148
   50POPC   C3B 1092   2.996   6.624   7.011  0.3017  0.1780  0.1137
   50POPC   C4B 1093   2.892   6.534   6.492  0.3756  0.0908  0.1643
   51POPC   NC3 1094   0.035   8.730   8.656 -0.0889  0.1824  0.0052
   51POPC   PO4 1095  -0.191   8.320   8.548 -0.2097  0.0025  0.1211
   51POPC   GL1 1096  -0.212   8.025   8.185 -0.0235 -0.1490  0.1828
   51POPC   GL2 1097  -0.281   7.656   8.130  0.0167  0.3994  0.0509
   51POPC   C1A 1098  -0.564   8.043   7.954 -0.0278  0.1255  0.2159
   51POPC   D2A 1099  -0.508   8.053   7.552 -0.0944  0.0453 -0.0778
   51POPC   C3A 1100  -0.254   7.985   7.237 -0.2537 -0.4145 -0.3488
   51POPC   C4A 1101   0.122   7.826   7.225 -0.0682  0.0097 -0.0397
   51POPC   C1B 1102  -0.622   7.570   7.864 -0.0682  0.0305 -0.3534
   51POPC   C2B 1103  -1.046   7.773   7.646  0.0688 -0.0121  0.1283
   51POPC   C3B 1104  -1.231   7.782   7.248  0.0171  0.0902 -0.4386
   51POPC   C4B 1105  -1.545   7.920   7.030 -0.1342  0.0864  0.0087
   52POPC   NC3 1106   5.388   6.023   8.990  0.1349  0.0803  0.0950
   52POPC   PO4 1107   5.649   5.717   8.766  0.1335  0.5373 -0.2077
   52POPC   GL1 1108   5.517   5.581   8.409  0.0353 -0.0819 -0.2133
   52POPC   GL2 1109   5.386   5.306   8.423 -0.1865 -0.1288 -0.0321
   52POPC   C1A 1110   5.609   5.707   7.997 -0.1792  0.0313  0.0636
   52POPC   D2A 1111   5.694   5.438   7.616 -0.0507 -0.1064  0.1618
   52POPC   C3A 1112   6.103   5.520   7.515 -0.2924 -0.1951  0.4698
   52POPC   C4A 1113   6.459   5.207   7.527  0.0389  0.1961 -0.2482
   52POPC   C1B 1114   5.745   5.122   8.046  0.3806 -0.0866 -0.1731
   52POPC   C2B 1115   5.918   4.898   7.645  0.2209  0.2507 -0.1363
   52POPC   C3B 1116   6.038   5.060   7.255  0.0679 -0.0574 -0.2276
   52POPC   C4B 1117   6.113   5.063   6.838  0.0574 -0.1357  0.1231
   53POPC   NC3 1118  10.345   2.826  10.533  0.0426 -0.1098 -0.0276
   53POPC   PO4 1119  10.421   2.525  10.138  0.3293 -0.1324 -0.1555
   53POPC   GL1 1120  10.129   2.424   9.807 -0.1004 -0.1624  0.2565
   53POPC   GL2 1121  10.405   2.310   9.606 -0.0051 -0.1274 -0.0940
   53POPC   C1A 1122   9.815   2.236   9.547  0.0640  0.1437  0.0920
   53POPC   D2A 1123   9.344   2.154   9.445 -0.2767 -0.4590 -0.2287
   53POPC   C3A 1124   8.930   2.201   9.461  0.0708  0.2085  0.1063
   53POPC   C4A 1125   8.578   2.271   9.612 -0.0774 -0.1799  0.2395
   53POPC   C1B 1126  10.480   2.142   9.284  0.2317  0.1485  0.0428
   53POPC   C2B 1127  10.254   1.823   9.115  0.0080 -0.2236 -0.0911
   53POPC   C3B 1128  10.067   1.525   8.948  0.3722 -0.0930 -0.5913
   53POPC   C4B 1129  10.175   1.087   8.763 -0.1241  0.0951 -0.1827
   54POPC   NC3 1130   6.549   1.500   9.794 -0.0036 -0.0200 -0.4179
   54POPC   PO4 1131   6.215   1.757   9.571 -0.1972  0.2040 -0.0068
   54POPC   GL1 1132   6.434   1.738   9.154 -0.1085  0.1306  0.2581
   54POPC   GL2 1133   6.110   1.687   9.102 -0.2282 -0.0572  0.0526
   54POPC   C1A 1134   6.621   2.039   8.839 -0.1500  0.0119  0.0227
   54POPC   D2A 1135   6.908   2.096   8.547 -0.5614  0.4143 -0.0799
   54POPC   C3A 1136   7.228   2.299   8.152  0.2310  0.1258  0.2617
   54POPC   C4A 1137   7.486   2.248   7.760  0.1278 -0.0683  0.0922
   54POPC   C1B 1138   6.186   1.763   8.575 -0.0975 -0.1823 -0.0400
   54POPC   C2B 1139   6.464   1.992   8.355  0.1240  0.1778  0.1682
   54POPC   C3B 1140   6.770   1.927   8.071 -0.0825  0.1034 -0.0907
   54POPC   C4B 1141   7.054   1.986   7.804 -0.0521  0.0527  0.0683
   55POPC   NC3 1142  10.414   4.817  10.040  0.0925 -0.4203  0.0148
   55POPC   PO4 1143  10.682   5.003   9.631  0.0720  0.0167  0.2417
   55POPC   GL1 1144  10.829   4.897   9.224  0.0026 -0.0645  0.1699
   55POPC   GL2 1145  11.001   4.724   8.992 -0.1078 -0.0427  0.0272
   55POPC   C1A 1146  10.831   5.124   8.781  0.0177 -0.2512  0.3363
   55POPC   D2A 1147  10.832   4.873   8.457  0.0554 -0.0612  0.1736
   55POPC   C3A 1148  11.068   4.908   8.057  0.2599  0.1538  0.2326
   55POPC   C4A 1149  10.845   4.708   7.719  0.1189  0.1127  0.4531
   55POPC   C1B 1150  10.539   4.686   8.843 -0.1761  0.0469 -0.2571
   55POPC   C2B 1151  10.084   4.898   8.919 -0.2126  0.1506 -0.0342
   55POPC   C3B 1152   9.781   5.026   9.226  0.2494  0.2588  0.1276
   55POPC   C4B 1153   9.342   4.866   9.315  0.1959  0.1500  0.2541
   56POPC   NC3 1154   2.174   0.397   8.648  0.1379  0.3135  0.0091
   56POPC   PO4 1155   2.542   0.166   8.563  0.2162 -0.0856  0.0932
   56POPC   GL1 1156   2.276   0.204   8.202  0.2204 -0.1400  0.1625
   56POPC   GL2 1157   2.157   0.448   8.039 -0.2808  0.0619  0.1282
   56POPC   C1A 1158   2.090  -0.132   7.979  0.0275  0.4308  0.0009
   56POPC   D2A 1159   1.878  -0.391   7.649  0.2110  0.1923  0.2214
   56POPC   C3A 1160   1.878  -0.832   7.498 -0.1309  0.3334 -0.1497
   56POPC   C4A 1161   1.965  -1.262   7.381  0.2096  0.0670  0.1629
   56POPC   C1B 1162   2.188   0.596   7.659  0.1080  0.3047 -0.0603
   56POPC   C2B 1163   2.352   0.738   7.305  0.2284  0.3025 -0.0224
   56POPC   C3B 1164   2.675   1.072   7.048  0.3244  0.2407 -0.3761
   56POPC   C4B 1165   2.953   0.989   6.707  0.1008  0.0769  0.2545
   57POPC   NC3 1166   7.470   2.475   9.703  0.0213  0.0735 -0.1010
   57POPC   PO4 1167   6.993   2.296   9.623 -0.1055  0.0734  0.0172
   57POPC   GL1 1168   7.291   2.028   9.357  0.0461 -0.0930 -0.2681
   57POPC   GL2 1169   7.147   1.936   9.070 -0.2027 -0.0310  0.2346
   57POPC   C1A 1170   7.725   2.149   9.134 -0.2321 -0.1529 -0.0059
   57POPC   D2A 1171   7.955   2.009   8.772  0.1523  0.0172  0.1681
   57POPC   C3A 1172   8.348   1.806   8.758  0.3935  0.1080  0.3301
   57POPC   C4A 1173   8.848   1.731   8.623 -0.5871 -0.1287  0.1649
   57POPC   C1B 1174   7.335   2.238   8.849 -0.2141 -0.2069  0.1187
   57POPC   C2B 1175   7.543   2.411   8.642  0.3981  0.0319 -0.0784
   57POPC   C3B 1176   7.840   2.355   8.346  0.0383  0.3867  0.1954
   57POPC   C4B 1177   7.978   2.187   7.914  0.0990 -0.1837  0.0771
   58POPC   NC3 1178   1.165   7.223   8.566 -0.0005 -0.1208  0.0203
   58POPC   PO4 1179   0.803   7.609   8.703 -0.0383 -0.2181 -0.0409
   58POPC   GL1 1180   0.920   7.553   8.231 -0.0084 -0.2412  0.1407
   58POPC   GL2 1181   1.116   7.815   8.119  0.1881 -0.2365 -0.0621
   58POPC   C1A 1182   1.000   7.396   7.816  0.1554 -0.0744 -0.1699
   58POPC   D2A 1183   0.771   7.345   7.408 -0.2317  0.0111 -0.1367
   58POPC   C3A 1184   0.617   6.994   7.254 -0.3820  0.2415 -0.1010
   58POPC   C4A 1185   0.233   6.607   7.075  0.2613 -0.0532 -0.2133
   58POPC   C1B 1186   1.157   8.160   7.798  0.0298  0.0502  0.1145
   58POPC   C2B 1187   1.025   8.226   7.357 -0.2412 -0.2253 -0.1368
   58POPC   C3B 1188   0.906   8.231   7.019  0.1482  0.1245  0.0166
   58POPC   C4B 1189   0.773   8.475   6.717 -0.3266 -0.3117 -0.0240
   59POPC   NC3 1190   5.798   9.405   8.517 -0.0153 -0.0472 -0.1764
   59POPC   PO4 1191   5.918   9.800   8.699  0.1288 -0.2144 -0.0107
   59POPC   GL1 1192   5.966   9.940   8.289  0.1678  0.1588 -0.1889
   59POPC   GL2 1193   6.175   9.606   8.179 -0.1538 -0.1080  0.1463
   59POPC   C1A 1194   6.101  10.040   7.853  0.1226 -0.0256  0.0887
   59POPC   D2A 1195   6.455  10.290   7.754 -0.2737  0.3089 -0.0547
   59POPC   C3A 1196   6.581  10.426   7.296  0.2222  0.0039 -0.0206
   59POPC   C4A 1197   6.757  10.603   6.901 -0.1678 -0.0771  0.1071
   59POPC   C1B 1198   5.800   9.653   7.875  0.2926  0.4272  0.3000
   59POPC   C2B 1199   5.552   9.946   7.660 -0.0786  0.0070 -0.0796
   59POPC   C3B 1200   5.104   9.943   7.676  0.1199 -0.1943 -0.3210
   59POPC   C4B 1201   4.661   9.994   7.818 -0.0541  0.2397  0.3261
   60POPC   NC3 1202   6.443   5.619   9.167  0.1830  0.2050  0.1962
   60POPC   PO4 1203   6.218   5.758   8.853  0.0320 -0.0113 -0.1697
   60POPC   GL1 1204   6.196   5.742   8.449  0.1629 -0.2412  0.1841
   60POPC   GL2 1205   5.994   5.539   8.356 -0.1346  0.0237 -0.1085
   60POPC   C1A 1206   6.105   5.753   7.953 -0.1101 -0.1455  0.0687
   60POPC   D2A 1207   5.997   6.082   7.780 -0.0291 -0.2778  0.1669
   60POPC   C3A 1208   6.208   6.054   7.392 -0.1140 -0.1222  0.0806
   60POPC   C4A 1209   6.055   6.147   6.986  0.2100 -0.1110 -0.0365
   60POPC   C1B 1210   6.193   5.282   8.007 -0.2091  0.0026 -0.1745
   60POPC   C2B 1211   6.372   4.939   7.895  0.1001  0.2550  0.1685
   60POPC   C3B 1212   6.703   4.668   8.125  0.1199 -0.3801 -0.3475
   60POPC   C4B 1213   7.039   4.408   8.090  0.1615  0.4180 -0.2846
   61POPC   NC3 1214   4.021   0.774   8.913 -0.3230  0.5632  0.1311
   61POPC   PO4 1215   4.075   0.346   8.828 -0.2215  0.2595 -0.2544
   61POPC   GL1 1216   4.097   0.252   8.382 -0.2599  0.0687  0.1095
   61POPC   GL2 1217   4.425   0.075   8.350  0.1053  0.2837  0.0043
   61POPC   C1A 1218   3.964   0.145   7.966  0.0850 -0.3909 -0.0715
   61POPC   D2A 1219   3.693  -0.121   7.737  0.1666 -0.1043  0.0063
   61POPC   C3A 1220   3.333  -0.336   7.983 -0.1795  0.0973 -0.0083
   61POPC   C4A 1221   3.047  -0.651   8.037 -0.0297 -0.1552 -0.0604
   61POPC   C1B 1222   4.554   0.142   7.950  0.3668  0.1492  0.1841
   61POPC   C2B 1223   4.566   0.094   7.516 -0.2310 -0.1141 -0.2214
   61POPC   C3B 1224   4.790   0.230   7.204 -0.1109  0.2897 -0.1873
   61POPC   C4B 1225   4.794   0.514   6.925  0.1956  0.1363 -0.0600
   62POPC   NC3 1226   6.811   0.554   9.632 -0.0314 -0.0422 -0.2271
   62POPC   PO4 1227   6.786   0.257   9.251 -0.1527  0.0378  0.0845
   62POPC   GL1 1228   6.721   0.556   8.940 -0.0457  0.2830  0.1276
   62POPC   GL2 1229   6.945   0.864   8.945  0.2014 -0.1742 -0.1086
   62POPC   C1A 1230   6.865   0.572   8.522  0.1577 -0.1085 -0.1322
   62POPC   D2A 1231   7.131   0.577   8.049 -0.0226 -0.2063 -0.1108
   62POPC   C3A 1232   6.928   0.733   7.707 -0.1659  0.1419 -0.0451
   62POPC   C4A 1233   7.128   0.846   7.262 -0.0537  0.0994  0.0072
   62POPC   C1B 1234   6.800   1.110   8.584 -0.0540  0.0636  0.0690
   62POPC   C2B 1235   6.528   0.927   8.303 -0.3107 -0.0717 -0.4865
   62POPC   C3B 1236   6.576   0.575   8.065  0.0328  0.2018  0.0277
   62POPC   C4B 1237   6.510   0.415   7.716 -0.0290 -0.0980  0.4177
   63POPC   NC3 1238   7.844   0.901   9.840  0.0205 -0.3790 -0.1907
   63POPC   PO4 1239   8.265   0.827   9.546  0.0918  0.2547 -0.0646
   63POPC   GL1 1240   8.243   0.941   9.152  0.1378  0.2219  0.2973
   63POPC   GL2 1241   8.150   1.202   9.168  0.1394  0.0091  0.2307
   63POPC   C1A 1242   8.305   0.878   8.739  0.0270 -0.0956  0.3721
   63POPC   D2A 1243   8.011   1.082   8.311  0.0165  0.1093  0.0446
   63POPC   C3A 1244   7.598   0.790   8.106 -0.0190  0.0545  0.1812
   63POPC   C4A 1245   7.541   0.386   8.261  0.4495  0.0811  0.2061
   63POPC   C1B 1246   8.010   1.411   8.722 -0.2251  0.1523  0.0370
   63POPC   C2B 1247   7.966   1.599   8.286  0.0481  0.3889 -0.0279
   63POPC   C3B 1248   8.196   2.048   8.309  0.0585  0.0563  0.2171
   63POPC   C4B 1249   8.616   2.180   8.291  0.0161  0.3127  0.2034
   64POPC   NC3 1250   3.187   6.763   9.022  0.2451  0.1727  0.0143
   64POPC   PO4 1251   3.378   6.670   8.567  0.0235  0.1929  0.0726
   64POPC   GL1 1252   3.365   6.430   8.169  0.2023  0.0468  0.0151
   64POPC   GL2 1253   3.387   6.130   8.169 -0.0295  0.0981  0.2757
   64POPC   C1A 1254   3.183   6.473   7.842  0.0935 -0.0910  0.1050
   64POPC   D2A 1255   3.343   6.577   7.487  0.0879 -0.2329  0.0684
   64POPC   C3A 1256   3.288   6.925   7.225 -0.2589 -0.3490  0.0880
   64POPC   C4A 1257   3.363   6.946   6.713 -0.0742  0.2424 -0.2497
   64POPC   C1B 1258   3.300   5.987   7.803  0.2239  0.0975  0.1335
   64POPC   C2B 1259   2.996   6.137   7.474 -0.0223 -0.0066 -0.0177
   64POPC   C3B 1260   2.787   6.185   7.215  0.1700 -0.2315 -0.2461
   64POPC   C4B 1261   2.311   6.226   7.001  0.0317 -0.0520  0.2124
   65POPC   NC3 1262   3.938   3.840   8.710 -0.3228 -0.0146 -0.1800
   65POPC   PO4 1263   3.647   4.176   8.711 -0.0128  0.1396 -0.2064
   65POPC   GL1 1264   3.562   4.372   8.349 -0.3615  0.2199 -0.2334
   65POPC   GL2 1265   3.234   4.612   8.378  0.1993 -0.3589  0.3441
   65POPC   C1A 1266   3.601   4.519   7.886  0.1730 -0.2986 -0.0142
   65POPC   D2A 1267   3.297   4.318   7.619  0.1229 -0.4674 -0.0658
   65POPC   C3A 1268   3.093   4.516   7.289 -0.0590 -0.0628  0.2204
   65POPC   C4A 1269   3.286   4.727   7.024 -0.2615 -0.0844  0.1097
   65POPC   C1B 1270   3.013   4.781   7.956  0.0732 -0.1004 -0.4917
   65POPC   C2B 1271   2.864   4.886   7.586 -0.1291 -0.0308  0.1766
   65POPC   C3B 1272   2.668   4.815   7.200  0.0243  0.2198  0.2361
   65POPC   C4B 1273   2.751   5.126   6.802  0.1045 -0.0465  0.2606
   66POPC   NC3 1274   6.560   4.444   9.628 -0.0653 -0.0986 -0.0515
   66POPC   PO4 1275   6.563   4.110   9.340 -0.2580  0.1600  0.2177
   66POPC   GL1 1276   6.688   4.207   8.893 -0.0563 -0.0798  0.1506
   66POPC   GL2 1277   6.920   4.457   8.881  0.0006  0.0600 -0.0256
   66POPC   C1A 1278   6.767   4.262   8.516 -0.0231  0.2014 -0.1524
   66POPC   D2A 1279   6.387   4.299   8.207  0.1799 -0.0506 -0.0794
   66POPC   C3A 1280   6.366   4.435   7.769  0.1821  0.3664 -0.2581
   66POPC   C4A 1281   6.448   4.656   7.414 -0.0671 -0.1550 -0.2601
   66POPC   C1B 1282   7.057   4.732   8.476  0.0832 -0.1231 -0.2913
   66POPC   C2B 1283   7.323   4.974   8.125  0.3583 -0.0827  0.0135
   66POPC   C3B 1284   7.533   5.200   7.918 -0.1445 -0.2468 -0.0823
   66POPC   C4B 1285   7.662   5.294   7.445  0.0472  0.0562  0.1936
   67POPC   NC3 1286   0.365   3.675   9.878  0.2564 -0.0100  0.3808
   67POPC   PO4 1287   0.765   3.451   9.812 -0.0565  0.0099 -0.1506
   67POPC   GL1 1288   0.483   3.420   9.446  0.1340  0.1862 -0.1534
   67POPC   GL2 1289   0.547   3.122   9.396 -0.0699 -0.3517  0.1627
   67POPC   C1A 1290   0.179   3.510   9.174  0.1337  0.0733 -0.0184
   67POPC   D2A 1291   0.080   3.483   8.734 -0.2867 -0.1108 -0.0742
   67POPC   C3A 1292  -0.022   3.757   8.489 -0.1146  0.1395  0.1403
   67POPC   C4A 1293   0.082   4.231   8.572 -0.0200  0.0988  0.2542
   67POPC   C1B 1294   0.439   2.937   9.031  0.0604  0.1708  0.2329
   67POPC   C2B 1295   0.225   3.055   8.631 -0.1192 -0.0595  0.3425
   67POPC   C3B 1296  -0.098   2.956   8.527  0.0396 -0.0947  0.0738
   67POPC   C4B 1297  -0.577   2.827   8.687  0.3877 -0.0935 -0.0996
   68POPC   NC3 1298   4.596   0.217   8.841 -0.1181 -0.2119 -0.1637
   68POPC   PO4 1299   4.530   0.608   9.059 -0.0908 -0.1746  0.3466
   68POPC   GL1 1300   4.496   0.628   8.558 -0.0834 -0.1622 -0.1205
   68POPC   GL2 1301   4.860   0.509   8.416 -0.1289 -0.1129 -0.1357
   68POPC   C1A 1302   4.319   0.588   8.146 -0.1473 -0.2403  0.2123
   68POPC   D2A 1303   3.969   0.737   7.836 -0.1652  0.3673 -0.0465
   68POPC   C3A 1304   4.097   0.835   7.393 -0.2739 -0.1012 -0.0595
   68POPC   C4A 1305   4.161   0.923   7.006 -0.0905  0.4479  0.0931
   68POPC   C1B 1306   4.843   0.548   8.023  0.0034  0.1291  0.3695
   68POPC   C2B 1307   4.584   0.605   7.652 -0.1864  0.0499 -0.0651
   68POPC   C3B 1308   4.446   0.524   7.240  0.1862  0.1082 -0.0207
   68POPC   C4B 1309   4.029   0.428   7.030 -0.2479 -0.1604 -0.1313
   69POPC   NC3 1310   4.305   3.058   8.502  0.2452  0.0748 -0.1067
   69POPC   PO4 1311   4.032   3.338   8.622  0.3604  0.1395 -0.0805
   69POPC   GL1 1312   3.859   3.326   8.274  0.0039  0.1194 -0.1362
   69POPC   GL2 1313   3.902   3.632   8.212  0.1160  0.1960 -0.0705
   69POPC   C1A 1314   3.811   3.232   7.912 -0.0677 -0.1849  0.1463
   69POPC   D2A 1315   3.835   3.305   7.487 -0.3557  0.4569 -0.1352
   69POPC   C3A 1316   3.877   3.010   7.234 -0.1419 -0.3507  0.1342
   69POPC   C4A 1317   4.147   2.875   6.891 -0.0706  0.1029  0.1790
   69POPC   C1B 1318   4.072   3.703   7.786  0.1770 -0.0530 -0.1017
   69POPC   C2B 1319   4.231   3.627   7.345 -0.0946 -0.4361  0.1453
   69POPC   C3B 1320   4.327   3.289   7.113  0.3320 -0.1638 -0.2138
   69POPC   C4B 1321   4.065   3.412   6.805 -0.1004 -0.1164  0.0927
   70POPC   NC3 1322   7.039   9.516   8.863  0.3451  0.0145 -0.1853
   70POPC   PO4 1323   6.991   9.047   8.817 -0.2369  0.1238  0.3065
   70POPC   GL1 1324   6.944   9.217   8.457  0.0359  0.1530  0.1610
   70POPC   GL2 1325   6.672   9.419   8.237 -0.0433 -0.0146 -0.0460
   70POPC   C1A 1326   7.126   9.243   7.974  0.0641  0.1911 -0.1768
   70POPC   D2A 1327   7.495   9.057   7.675 -0.2848  0.0643  0.3705
   70POPC   C3A 1328   7.770   8.709   7.480 -0.1552 -0.2187 -0.2186
   70POPC   C4A 1329   7.571   8.429   7.111 -0.1005  0.0600 -0.0312
   70POPC   C1B 1330   6.491   9.253   7.792  0.0772 -0.0778  0.3490
   70POPC   C2B 1331   6.720   9.496   7.390  0.3078  0.1821 -0.0460
   70POPC   C3B 1332   6.584   9.836   7.183  0.1899  0.1045  0.0660
   70POPC   C4B 1333   6.278   9.965   6.860  0.0675  0.0550  0.1029
   71POPC   NC3 1334   0.611   6.951   8.392 -0.5472  0.1944 -0.0444
   71POPC   PO4 1335   0.452   6.509   8.528  0.2610 -0.0623  0.0284
   71POPC   GL1 1336   0.397   6.302   8.061  0.0093 -0.1616 -0.0180
   71POPC   GL2 1337   0.094   6.186   8.193  0.0474 -0.2800 -0.0504
   71POPC   C1A 1338   0.113   6.210   7.664 -0.0525  0.1715 -0.1237
   71POPC   D2A 1339  -0.120   6.389   7.363 -0.0488 -0.0430 -0.1439
   71POPC   C3A 1340  -0.213   6.064   7.054 -0.0489  0.0999  0.0375
   71POPC   C4A 1341  -0.398   5.911   6.690 -0.1043 -0.1649  0.3106
   71POPC   C1B 1342  -0.116   6.568   7.900  0.2116 -0.2269 -0.1234
   71POPC   C2B 1343  -0.056   6.839   7.646 -0.0048 -0.0947 -0.0993
   71POPC   C3B 1344   0.080   7.089   7.213  0.2381 -0.3406  0.0860
   71POPC   C4B 1345   0.375   7.367   7.080 -0.1370  0.0475  0.2352
   72POPC   NC3 1346   2.967   3.806   9.396 -0.2058  0.1430 -0.2193
   72POPC   PO4 1347   3.009   4.010   9.022 -0.1374  0.0070 -0.2002
   72POPC   GL1 1348   3.188   4.100   8.551 -0.4114  0.1473  0.0477
   72POPC   GL2 1349   3.408   3.853   8.358  0.0957  0.0370 -0.1209
   72POPC   C1A 1350   3.110   4.200   8.109  0.3341  0.4717 -0.1010
   72POPC   D2A 1351   3.115   3.903   7.797 -0.3374 -0.0797  0.1487
   72POPC   C3A 1352   3.028   4.000   7.312  0.0561  0.2070 -0.0020
   72POPC   C4A 1353   3.057   4.108   6.800  0.2628 -0.0231  0.1724
   72POPC   C1B 1354   3.646   4.011   7.962  0.0050  0.1668 -0.1580
   72POPC   C2B 1355   3.781   4.108   7.580 -0.2585  0.1869  0.1422
   72POPC   C3B 1356   3.853   4.279   7.202  0.2838 -0.0123  0.0770
   72POPC   C4B 1357   3.453   4.191   7.100 -0.0524 -0.0981 -0.0849
   73POPC   NC3 1358   2.930   1.593   8.524 -0.0233  0.3022  0.2095
   73POPC   PO4 1359   2.597   1.816   8.401  0.4127 -0.2180  0.0536
   73POPC   GL1 1360   2.256   1.848   8.052  0.0200 -0.3337 -0.0961
   73POPC   GL2 1361   2.231   1.612   7.803  0.0395  0.1298  0.1233
   73POPC   C1A 1362   2.260   2.141   7.707 -0.0031 -0.2716 -0.1410
   73POPC   D2A 1363   2.312   2.360   7.285 -0.2428  0.2223 -0.0801
   73POPC   C3A 1364   2.718   2.323   6.975 -0.1710 -0.1416  0.1093
   73POPC   C4A 1365   2.892   2.474   6.610 -0.1103 -0.2955 -0.1781
   73POPC   C1B 1366   2.256   1.460   7.341 -0.1420 -0.1795 -0.3203
   73POPC   C2B 1367   2.190   1.285   7.010 -0.4246 -0.2082  0.0604
   73POPC   C3B 1368   1.891   1.397   6.664  0.0354 -0.0118  0.1543
   73POPC   C4B 1369   1.787   1.687   6.280  0.3008  0.0893 -0.2063
   74POPC   NC3 1370   0.713   9.222   8.582  0.1612  0.4806 -0.1777
   74POPC   PO4 1371   1.005   9.476   8.813  0.1553  0.3378  0.2864
   74POPC   GL1 1372   0.969   9.593   8.379 -0.2922 -0.4505 -0.1212
   74POPC   GL2 1373   0.837   9.369   8.152  0.2811  0.1477  0.1289
   74POPC   C1A 1374   1.205   9.479   7.903 -0.2912  0.0204  0.2883
   74POPC   D2A 1375   1.346   9.510   7.461 -0.0402  0.2749  0.0790
   74POPC   C3A 1376   1.145   9.722   7.139 -0.0935  0.1309  0.2460
   74POPC   C4A 1377   1.200  10.115   6.956 -0.0031 -0.0919  0.0767
   74POPC   C1B 1378   0.769   9.476   7.685  0.0981  0.2105 -0.0864
   74POPC   C2B 1379   0.690   9.636   7.318 -0.1512  0.0112  0.1304
   74POPC   C3B 1380   0.717   9.389   7.020  0.2892 -0.2103  0.1010
   74POPC   C4B 1381   0.642   8.933   6.887 -0.0962  0.1096 -0.1171
   75POPC   NC3 1382   0.381   0.132   8.880  0.0663  0.1388 -0.2390
   75POPC   PO4 1383   0.706   0.208   9.007 -0.1016  0.0846  0.0160
   75POPC   GL1 1384   0.534   0.553   8.705 -0.0268  0.0829 -0.2527
   75POPC   GL2 1385   0.596   0.856   8.832  0.0035  0.0926 -0.2631
   75POPC   C1A 1386   0.599   0.758   8.333 -0.0893 -0.3504  0.0188
   75POPC   D2A 1387   0.493   0.997   7.929  0.0783 -0.2092 -0.2060
   75POPC   C3A 1388   0.256   1.315   7.864 -0.4298  0.0353  0.0049
   75POPC   C4A 1389  -0.100   1.390   7.724 -0.2164 -0.0586  0.6503
   75POPC   C1B 1390   0.520   1.225   8.566  0.3452 -0.2614  0.0110
   75POPC   C2B 1391   0.664   1.421   8.166  0.2044 -0.1238  0.0479
   75POPC   C3B 1392   0.771   1.810   7.972  0.1475  0.3086  0.3415
   75POPC   C4B 1393   0.894   2.228   7.811  0.0607  0.2456  0.0110
   76POPC   NC3 1394   4.179   7.678   8.321 -0.1983  0.4046  0.2008
   76POPC   PO4 1395   4.616   7.877   8.469  0.4538  0.1785 -0.1835
   76POPC   GL1 1396   4.684   7.606   8.138  0.1495  0.2507  0.0989
   76POPC   GL2 1397   5.029   7.845   8.064 -0.3285 -0.0450  0.3496
   76POPC   C1A 1398   4.696   7.140   8.170  0.1434  0.0543 -0.1383
   76POPC   D2A 1399   4.792   6.617   8.223  0.2430 -0.0012  0.1703
   76POPC   C3A 1400   5.212   6.469   8.228 -0.1245  0.3009 -0.0145
   76POPC   C4A 1401   5.521   6.628   7.864  0.0820  0.0526  0.0149
   76POPC   C1B 1402   5.031   7.490   7.786 -0.3311 -0.2365  0.1370
   76POPC   C2B 1403   5.293   7.232   7.465  0.2271  0.3512  0.2637
   76POPC   C3B 1404   5.684   6.849   7.446  0.0799  0.2431 -0.2825
   76POPC   C4B 1405   5.847   6.395   7.403  0.0201 -0.0161  0.4370
   77POPC   NC3 1406   3.772   6.593   8.870 -0.1078  0.0124 -0.2260
   77POPC   PO4 1407   4.013   6.311   8.847  0.2105  0.1175  0.1846
   77POPC   GL1 1408   4.199   6.225   8.470  0.0717 -0.1767 -0.0854
   77POPC   GL2 1409   4.287   5.982   8.381  0.0791  0.2549 -0.1147
   77POPC   C1A 1410   4.254   6.397   8.052  0.2417  0.3308 -0.0840
   77POPC   D2A 1411   4.166   6.563   7.562  0.3749 -0.0470 -0.0230
   77POPC   C3A 1412   4.235   6.995   7.523 -0.2788 -0.0744 -0.2817
   77POPC   C4A 1413   4.075   7.404   7.198  0.1228  0.1522  0.0581
   77POPC   C1B 1414   4.304   5.924   7.919 -0.1426 -0.1776 -0.1078
   77POPC   C2B 1415   4.480   6.179   7.651  0.0878 -0.1799 -0.1950
   77POPC   C3B 1416   4.503   6.286   7.305 -0.1439 -0.1380 -0.1144
   77POPC   C4B 1417   4.230   6.615   7.048  0.0779 -0.0638  0.0341
   78POPC   NC3 1418   2.029   2.007   8.533 -0.0207  0.2026  0.2843
   78POPC   PO4 1419   1.751   1.600   8.770 -0.2645 -0.3984 -0.0332
   78POPC   GL1 1420   1.728   1.657   8.300  0.1690 -0.4055 -0.1842
   78POPC   GL2 1421   1.753   1.969   8.102 -0.3122 -0.1450  0.0844
   78POPC   C1A 1422   1.713   1.493   7.908  0.1282  0.1525 -0.0760
   78POPC   D2A 1423   1.466   1.303   7.558 -0.1561  0.0176 -0.0510
   78POPC   C3A 1424   1.682   1.479   7.253  0.0528 -0.2744  0.3410
   78POPC   C4A 1425   1.694   1.734   6.910 -0.1790 -0.1776 -0.2598
   78POPC   C1B 1426   1.818   1.970   7.645  0.0003 -0.4603  0.5240
   78POPC   C2B 1427   2.088   1.890   7.231  0.0241 -0.1226  0.1522
   78POPC   C3B 1428   2.160   2.021   6.784 -0.6600 -0.0432  0.1227
   78POPC   C4B 1429   2.051   2.331   6.648  0.1174  0.1391  0.1093
   79POPC   NC3 1430   9.005   1.351   9.816 -0.1481 -0.1828 -0.3100
   79POPC   PO4 1431   9.238   1.889   9.932  0.2836 -0.1184 -0.1712
   79POPC   GL1 1432   9.506   1.674   9.698  0.0948  0.0916 -0.1852
   79POPC   GL2 1433   9.491   1.420   9.497 -0.0471 -0.0623 -0.0657
   79POPC   C1A 1434   9.863   1.767   9.412 -0.2175  0.0128 -0.0826
   79POPC   D2A 1435   9.678   1.923   9.094 -0.4856 -0.3423 -0.0903
   79POPC   C3A 1436   9.843   1.990   8.695 -0.2178 -0.0540  0.2820
   79POPC   C4A 1437   9.600   1.870   8.254  0.1110  0.2703  0.1176
   79POPC   C1B 1438   9.537   1.467   9.058  0.4345  0.0248  0.4322
   79POPC   C2B 1439   9.380   1.697   8.723 -0.1175  0.0662 -0.2322
   79POPC   C3B 1440   9.208   1.598   8.278  0.0226  0.2563 -0.0371
   79POPC   C4B 1441   9.292   1.461   7.892  0.0914 -0.0435  0.2427
   80POPC   NC3 1442   4.992   8.256   8.646 -0.3081 -0.0023 -0.2822
   80POPC   PO4 1443   4.598   8.451   8.608 -0.0076  0.1386 -0.2259
   80POPC   GL1 1444   4.619   8.424   8.112  0.4591  0.2591  0.2915
   80POPC   GL2 1445   4.600   8.712   8.028 -0.1432  0.0711 -0.0061
   80POPC   C1A 1446   4.749   8.265   7.806  0.2886 -0.2407  0.0298
   80POPC   D2A 1447   4.767   8.258   7.308  0.1057 -0.5170 -0.0099
   80POPC   C3A 1448   4.619   8.082   7.050  0.1398  0.2380  0.2844
   80POPC   C4A 1449   4.397   7.955   6.680  0.0344  0.2327  0.0593
   80POPC   C1B 1450   4.426   8.569   7.597  0.1299  0.4461  0.1947
   80POPC   C2B 1451   4.238   8.281   7.404 -0.1508  0.0455  0.1299
   80POPC   C3B 1452   4.126   7.987   7.068  0.0616  0.0398 -0.0298
   80POPC   C4B 1453   3.981   7.712   6.730 -0.2940 -0.1340 -0.3950
   81POPC   NC3 1454   6.575   4.639   9.145  0.0257  0.0608 -0.2586
   81POPC   PO4 1455   6.636   4.919   8.853 -0.2039  0.0602  0.3171
   81POPC   GL1 1456   6.736   5.126   8.541  0.1018 -0.0761 -0.0731
   81POPC   GL2 1457   6.793   5.381   8.603  0.0463  0.2462  0.0422
   81POPC   C1A 1458   6.733   5.194   8.143  0.2430 -0.3063 -0.2791
   81POPC   D2A 1459   6.895   4.908   7.752  0.3685 -0.1538  0.1444
   81POPC   C3A 1460   7.168   4.722   7.535 -0.1849 -0.0995 -0.1691
   81POPC   C4A 1461   7.334   4.368   7.327 -0.1293 -0.0291  0.2140
   81POPC   C1B 1462   6.625   5.685   8.288  0.1037 -0.1669  0.1028
   81POPC   C2B 1463   6.607   5.668   7.775 -0.1407  0.0944  0.0019
   81POPC   C3B 1464   6.717   5.795   7.434  0.1494  0.0326  0.3610
   81POPC   C4B 1465   6.795   5.715   6.932 -0.0666  0.2451  0.1884
   82POPC   NC3 1466   2.793   4.406   8.734  0.1115  0.3135 -0.0226
   82POPC   PO4 1467   2.624   4.034   8.728  0.1141 -0.0173  0.0650
   82POPC   GL1 1468   2.566   4.070   8.325 -0.0426  0.3482 -0.1206
   82POPC   GL2 1469   2.232   3.865   8.269  0.0849  0.2199 -0.0779
   82POPC   C1A 1470   2.679   3.953   7.959 -0.2259  0.1086  0.1704
   82POPC   D2A 1471   2.593   3.796   7.634 -0.1722 -0.2158  0.0680
   82POPC   C3A 1472   2.934   3.529   7.505  0.3358 -0.1516  0.0452
   82POPC   C4A 1473   2.915   3.143   7.372 -0.0650  0.1710  0.1895
   82POPC   C1B 1474   2.237   3.628   7.913  0.3206 -0.0456  0.0971
   82POPC   C2B 1475   2.018   3.604   7.520 -0.1402  0.0647  0.0006
   82POPC   C3B 1476   1.813   3.690   7.176  0.1066 -0.2040 -0.2852
   82POPC   C4B 1477   1.740   3.971   6.877  0.1948  0.0216 -0.0192
   83POPC   NC3 1478   0.778   8.162   8.689 -0.2607 -0.2119 -0.1113
   83POPC   PO4 1479   0.384   8.379   8.855 -0.2728  0.1068 -0.1420
   83POPC   GL1 1480   0.435   8.410   8.362  0.0858 -0.0426  0.0220
   83POPC   GL2 1481   0.378   8.756   8.228  0.1966  0.2139  0.0579
   83POPC   C1A 1482   0.186   8.300   7.969 -0.0149  0.2463 -0.1285
   83POPC   D2A 1483  -0.170   8.365   7.760 -0.1741  0.0337 -0.0676
   83POPC   C3A 1484   0.104   8.342   7.326 -0.1427 -0.1471 -0.3572
   83POPC   C4A 1485   0.415   8.182   6.998  0.0043  0.0311  0.2653
   83POPC   C1B 1486   0.427   9.090   7.848  0.0028 -0.1642  0.1014
   83POPC   C2B 1487   0.295   9.206   7.395 -0.0262  0.2984 -0.0948
   83POPC   C3B 1488   0.160   9.276   6.925  0.1726  0.0035 -0.0075
   83POPC   C4B 1489  -0.034   9.494   6.715 -0.0074  0.2402 -0.1754
   84POPC   NC3 1490   8.010   9.816   9.262  0.0645 -0.3496 -0.1982
   84POPC   PO4 1491   8.094   9.848   8.939  0.0842 -0.1731  0.0329
   84POPC   GL1 1492   8.261  10.055   8.683  0.0546 -0.0348 -0.0608
   84POPC   GL2 1493   7.928  10.180   8.528 -0.1451  0.0534  0.0277
   84POPC   C1A 1494   8.288   9.935   8.239 -0.0713 -0.2479  0.2422
   84POPC   D2A 1495   8.439   9.964   7.836  0.1460  0.0456 -0.1645
   84POPC   C3A 1496   8.325  10.226   7.496 -0.2897 -0.2622 -0.0948
   84POPC   C4A 1497   7.957  10.427   7.167 -0.1651 -0.0519  0.1005
   84POPC   C1B 1498   8.154  10.469   8.194  0.0678  0.3209 -0.2364
   84POPC   C2B 1499   8.333  10.822   7.928 -0.2407  0.0672  0.0504
   84POPC   C3B 1500   8.189  10.910   7.436  0.1962  0.1456 -0.5141
   84POPC   C4B 1501   8.414  11.147   7.207  0.3260  0.1849  0.2944
   85POPC   NC3 1502   1.033  10.335   8.895 -0.0206 -0.0662  0.0661
   85POPC   PO4 1503   0.975  10.050   8.614  0.1857 -0.2674  0.2914
   85POPC   GL1 1504   1.247  10.094   8.241  0.2829 -0.0876  0.1066
   85POPC   GL2 1505   1.302  10.434   8.143  0.0037 -0.1271  0.1656
   85POPC   C1A 1506   1.079   9.988   7.900  0.2834 -0.0027  0.1724
   85POPC   D2A 1507   0.959  10.066   7.453  0.0904  0.3930  0.0120
   85POPC   C3A 1508   0.605  10.064   7.108  0.0896 -0.2534 -0.0091
   85POPC   C4A 1509   0.195  10.214   7.028  0.1418  0.1251  0.0561
   85POPC   C1B 1510   1.597  10.438   7.850 -0.0910 -0.2687  0.1336
   85POPC   C2B 1511   1.502  10.588   7.380  0.2086  0.3904 -0.1217
   85POPC   C3B 1512   1.290  10.702   6.991  0.1483 -0.1715 -0.0013
   85POPC   C4B 1513   1.481  10.980   6.623 -0.1929 -0.4954 -0.0975
   86POPC   NC3 1514   7.605   7.547   8.844 -0.1829 -0.1032 -0.0990
   86POPC   PO4 1515   7.479   7.351   8.583  0.2532  0.2410 -0.1272
   86POPC   GL1 1516   7.326   7.515   8.170  0.3252 -0.1551 -0.4082
   86POPC   GL2 1517   7.754   7.649   8.202  0.2056  0.1599 -0.1910
   86POPC   C1A 1518   7.094   7.612   7.823  0.2925  0.0547  0.3070
   86POPC   D2A 1519   7.036   7.962   7.497  0.1978  0.3350  0.0089
   86POPC   C3A 1520   6.566   7.955   7.288 -0.2331 -0.0376  0.0351
   86POPC   C4A 1521   6.262   8.104   6.923 -0.5767 -0.0689 -0.0600
   86POPC   C1B 1522   7.804   7.851   7.882  0.0698  0.1699 -0.0801
   86POPC   C2B 1523   8.096   7.640   7.572 -0.1250 -0.1586  0.4327
   86POPC   C3B 1524   8.379   7.645   7.295 -0.1872  0.0136 -0.0400
   86POPC   C4B 1525   8.784   7.526   7.206 -0.1873 -0.0304  0.3208
   87POPC   NC3 1526   6.205   0.439   9.001 -0.3430 -0.2029  0.1488
   87POPC   PO4 1527   6.361   0.814   9.185 -0.0856  0.0757  0.0347
   87POPC   GL1 1528   6.372   0.845   8.808 -0.2427  0.0685  0.0617
   87POPC   GL2 1529   6.047   1.115   8.922  0.0084 -0.3120 -0.1417
   87POPC   C1A 1530   6.130   0.719   8.452  0.0875  0.1532 -0.2254
   87POPC   D2A 1531   5.963   0.666   8.045  0.0077  0.0026 -0.0215
   87POPC   C3A 1532   6.205   0.754   7.758 -0.0778 -0.1452  0.2781
   87POPC   C4A 1533   6.495   1.028   7.721 -0.0342 -0.3162  0.1116
   87POPC   C1B 1534   6.086   1.263   8.507 -0.1530 -0.1752 -0.1029
   87POPC   C2B 1535   6.167   1.138   8.080  0.1156  0.0769 -0.0274
   87POPC   C3B 1536   6.067   1.329   7.705  0.0617 -0.0227 -0.1228
   87POPC   C4B 1537   6.369   1.273   7.274  0.3112  0.3674  0.1323
   88POPC   NC3 1538   0.396   0.712   9.418  0.0932 -0.1723 -0.2051
   88POPC   PO4 1539   0.078   0.280   9.270 -0.3761  0.2289  0.0113
   88POPC   GL1 1540   0.120   0.578   8.980  0.0877 -0.0848 -0.0433
   88POPC   GL2 1541   0.061   0.934   9.051 -0.1829  0.3046  0.0973
   88POPC   C1A 1542   0.131   0.866   8.590 -0.1171 -0.1089 -0.3729
   88POPC   D2A 1543   0.042   1.172   8.270 -0.1922  0.1951  0.0886
   88POPC   C3A 1544  -0.387   1.080   8.020  0.1983  0.1143  0.1588
   88POPC   C4A 1545  -0.827   1.154   8.092 -0.1206  0.0070  0.4001
   88POPC   C1B 1546   0.097   1.392   8.851 -0.3163 -0.0564  0.3097
   88POPC   C2B 1547  -0.165   1.759   8.640 -0.2392 -0.0856  0.0379
   88POPC   C3B 1548  -0.348   2.054   8.327 -0.0792 -0.1343 -0.0797
   88POPC   C4B 1549  -0.615   2.270   8.018 -0.3389  0.3659 -0.1500
   89POPC   NC3 1550   3.320   9.124   8.645 -0.2624  0.0741  0.1129
   89POPC   PO4 1551   3.678   9.409   8.595 -0.1521 -0.0648 -0.0182
   89POPC   GL1 1552   3.524   9.683   8.212 -0.2442  0.2203 -0.3526
   89POPC   GL2 1553   3.660   9.434   8.059  0.3366  0.0846  0.2967
   89POPC   C1A 1554   3.441   9.703   7.738  0.2518 -0.3361  0.0587
   89POPC   D2A 1555   3.374   9.634   7.287  0.0339  0.0859  0.3677
   89POPC   C3A 1556   3.131   9.799   6.909 -0.1123 -0.2075  0.2148
   89POPC   C4A 1557   3.033   9.842   6.520 -0.0015 -0.2430  0.1358
   89POPC   C1B 1558   3.868   9.454   7.731 -0.1760 -0.1610  0.1347
   89POPC   C2B 1559   4.097   9.172   7.448  0.1766 -0.0044 -0.0009
   89POPC   C3B 1560   3.714   9.012   7.106 -0.1491 -0.0881 -0.1139
   89POPC   C4B 1561   3.338   9.106   6.742  0.0565  0.1474 -0.1466
   90POPC   NC3 1562   7.377   4.368  10.176 -0.2181 -0.1292 -0.3284
   90POPC   PO4 1563   7.364   4.141   9.715 -0.2344  0.3374  0.0145
   90POPC   GL1 1564   7.619   4.246   9.350 -0.2708  0.0710  0.1237
   90POPC   GL2 1565   7.431   4.501   9.120 -0.0759 -0.2388 -0.2221
   90POPC   C1A 1566   7.838   4.309   8.950 -0.4601  0.2112 -0.0866
   90POPC   D2A 1567   8.219   4.500   8.716 -0.0483  0.1444  0.1228
   90POPC   C3A 1568   8.486   4.250   8.510 -0.1728 -0.1041 -0.1111
   90POPC   C4A 1569   8.606   4.169   8.068 -0.2841  0.1755  0.4273
   90POPC   C1B 1570   7.311   4.248   8.636  0.1101 -0.2365 -0.2327
   90POPC   C2B 1571   7.117   3.918   8.333 -0.2267 -0.2196 -0.0108
   90POPC   C3B 1572   7.186   3.712   8.001  0.1286  0.1703  0.1358
   90POPC   C4B 1573   7.480   3.611   7.741  0.0363  0.1175  0.1168
   91POPC   NC3 1574   6.159   3.615   9.223  0.2336  0.1026  0.0200
   91POPC   PO4 1575   6.117   3.981   8.913 -0.1321 -0.0410 -0.0448
   91POPC   GL1 1576   5.967   3.829   8.540  0.0367  0.0687 -0.0089
   91POPC   GL2 1577   5.770   4.065   8.554 -0.3216 -0.1601  0.0298
   91POPC   C1A 1578   6.092   3.799   8.150 -0.1703  0.2995  0.4632
   91POPC   D2A 1579   6.299   3.938   7.791 -0.0103 -0.0664  0.1645
   91POPC   C3A 1580   6.188   3.905   7.424  0.3049  0.2491 -0.2524
   91POPC   C4A 1581   6.287   3.666   7.007 -0.2688  0.0666 -0.3114
   91POPC   C1B 1582   5.673   4.131   8.168 -0.1520 -0.2148 -0.1266
   91POPC   C2B 1583   5.339   4.081   7.792  0.2419  0.1536  0.1684
   91POPC   C3B 1584   5.256   3.613   7.676  0.0814 -0.1627  0.1065
   91POPC   C4B 1585   5.061   3.296   7.637 -0.1782  0.0192  0.0792
   92POPC   NC3 1586   3.258   0.839   8.630  0.1347 -0.1660 -0.1037
   92POPC   PO4 1587   3.671   1.166   8.579 -0.0959  0.2594 -0.0542
   92POPC   GL1 1588   3.750   1.205   8.210  0.0930  0.0158  0.2831
   92POPC   GL2 1589   3.599   1.530   8.109 -0.2832 -0.0568 -0.3035
   92POPC   C1A 1590   3.583   1.081   7.844 -0.1574 -0.0914  0.0313
   92POPC   D2A 1591   3.395   0.701   7.649  0.2707  0.0192  0.0071
   92POPC   C3A 1592   3.679   0.368   7.553  0.2296  0.2346 -0.0279
   92POPC   C4A 1593   4.126   0.334   7.574 -0.0953  0.0354  0.2475
   92POPC   C1B 1594   3.647   1.634   7.637  0.0099  0.3438 -0.0050
   92POPC   C2B 1595   3.747   1.966   7.405  0.1867 -0.2149 -0.0132
   92POPC   C3B 1596   3.490   2.178   7.054  0.2527 -0.1582 -0.1619
   92POPC   C4B 1597   3.507   2.308   6.621  0.0852 -0.1616  0.1569
   93POPC   NC3 1598   7.572   8.844   8.790  0.0606  0.0744 -0.0614
   93POPC   PO4 1599   7.402   8.968   8.474 -0.0533 -0.1236 -0.0739
   93POPC   GL1 1600   7.702   8.959   8.242  0.1797 -0.0056  0.0870
   93POPC   GL2 1601   7.621   9.281   8.114  0.0159 -0.2442 -0.1598
   93POPC   C1A 1602   8.020   8.968   7.888  0.1835 -0.2681  0.0054
   93POPC   D2A 1603   8.286   8.704   7.685  0.1473 -0.0936 -0.1682
   93POPC   C3A 1604   8.522   8.788   7.330  0.0770 -0.2675 -0.0190
   93POPC   C4A 1605   8.704   9.217   7.074  0.1041 -0.2425  0.1840
   93POPC   C1B 1606   7.607   9.583   7.748 -0.1143  0.1137 -0.1331
   93POPC   C2B 1607   7.424   9.934   7.662 -0.1203 -0.1748  0.0460
   93POPC   C3B 1608   7.506  10.331   7.522  0.0120  0.3265 -0.2213
   93POPC   C4B 1609   7.378  10.524   7.148 -0.1374 -0.0089  0.3828
   94POPC   NC3 1610   2.835  10.296   8.714  0.1068  0.0600 -0.0233
   94POPC   PO4 1611   3.063  10.758   8.634  0.3218  0.0292 -0.2610
   94POPC   GL1 1612   2.970  10.901   8.329  0.1424 -0.0424 -0.0698
   94POPC   GL2 1613   2.642  11.144   8.282  0.0810 -0.1613 -0.4909
   94POPC   C1A 1614   3.093  10.821   7.937  0.0763  0.0726  0.1751
   94POPC   D2A 1615   3.258  10.593   7.634  0.2191  0.2267 -0.1282
   94POPC   C3A 1616   3.260  10.858   7.215  0.0823  0.0951 -0.3641
   94POPC   C4A 1617   2.988  10.752   6.694 -0.0661 -0.4121 -0.0285
   94POPC   C1B 1618   2.612  10.936   7.935 -0.4463 -0.1696 -0.0303
   94POPC   C2B 1619   2.668  10.487   7.856  0.0852 -0.1886  0.1724
   94POPC   C3B 1620   2.873  10.235   7.648 -0.1154  0.3434 -0.3066
   94POPC   C4B 1621   3.242  10.090   7.461 -0.3357  0.3133  0.0745
   95POPC   NC3 1622   9.669   6.001   9.256  0.1648  0.3010  0.1680
   95POPC   PO4 1623   9.276   5.954   9.392 -0.1389 -0.3591  0.2161
   95POPC   GL1 1624   9.360   5.709   8.940  0.0609  0.0451  0.1391
   95POPC   GL2 1625   9.524   5.899   8.676 -0.3434 -0.0525 -0.0268
   95POPC   C1A 1626   9.225   5.512   8.527  0.1701 -0.0961 -0.2501
   95POPC   D2A 1627   8.906   5.193   8.522  0.1752  0.0659  0.0639
   95POPC   C3A 1628   8.882   5.007   8.192 -0.0880 -0.1240 -0.0418
   95POPC   C4A 1629   8.948   4.871   7.708  0.3308 -0.1476 -0.2739
   95POPC   C1B 1630   9.595   5.707   8.284  0.0674 -0.2300  0.0698
   95POPC   C2B 1631  10.022   5.626   8.091  0.1386 -0.0298 -0.0833
   95POPC   C3B 1632  10.457   5.688   8.127  0.0306 -0.3330  0.3461
   95POPC   C4B 1633  10.784   5.719   7.820 -0.3174  0.0075  0.1450
   96POPC   NC3 1634   8.874   8.074   8.720 -0.2177 -0.2559 -0.1923
   96POPC   PO4 1635   8.468   7.839   8.799  0.1154  0.1054  0.0408
   96POPC   GL1 1636   8.461   7.792   8.435  0.1517  0.3694  0.3899
   96POPC   GL2 1637   8.149   7.899   8.286 -0.0323 -0.1454  0.1095
   96POPC   C1A 1638   8.705   7.425   8.309 -0.2716  0.1479 -0.2981
   96POPC   D2A 1639   8.768   7.207   7.978  0.1941  0.2986  0.0724
   96POPC   C3A 1640   8.548   7.183   7.562  0.2521 -0.0118  0.2080
   96POPC   C4A 1641   8.120   7.124   7.548  0.0781  0.2087 -0.0808
   96POPC   C1B 1642   8.412   8.289   8.088  0.1211  0.3380  0.0422
   96POPC   C2B 1643   8.683   8.428   7.814 -0.0955 -0.2592 -0.2523
   96POPC   C3B 1644   8.991   8.713   7.673 -0.0123 -0.0739 -0.0938
   96POPC   C4B 1645   9.035   9.129   7.482 -0.1465  0.1112  0.0282
   97POPC   NC3 1646   1.295   7.743   8.532 -0.0830  0.1434 -0.1583
   97POPC   PO4 1647   1.569   7.557   8.399  0.3516 -0.3070  0.1731
   97POPC   GL1 1648   1.523   7.499   8.002 -0.2507 -0.0516 -0.0719
   97POPC   GL2 1649   1.485   7.181   7.935  0.0401 -0.1295 -0.0263
   97POPC   C1A 1650   1.347   7.617   7.463  0.1152  0.0030  0.0030
   97POPC   D2A 1651   1.563   7.493   7.030 -0.4376 -0.0826  0.0154
   97POPC   C3A 1652   1.501   7.760   6.701  0.4231  0.0586 -0.2889
   97POPC   C4A 1653   1.686   8.039   6.349  0.2780  0.2801  0.0572
   97POPC   C1B 1654   1.343   7.147   7.596 -0.0057 -0.1319  0.0106
   97POPC   C2B 1655   1.147   7.087   7.172  0.1296  0.0739 -0.0303
   97POPC   C3B 1656   1.118   6.828   6.826 -0.0455 -0.1404 -0.1433
   97POPC   C4B 1657   1.246   6.765   6.398 -0.0312  0.0575  0.2155
   98POPC   NC3 1658   0.045   5.543   9.538  0.1248  0.2261  0.1146
   98POPC   PO4 1659  -0.390   5.779   9.408  0.1426 -0.2390 -0.1283
   98POPC   GL1 1660  -0.586   5.585   9.096  0.1715  0.1376 -0.0226
   98POPC   GL2 1661  -0.442   5.892   8.863  0.0995 -0.2273  0.3289
   98POPC   C1A 1662  -0.830   5.360   8.813 -0.1687 -0.1144  0.2710
   98POPC   D2A 1663  -1.099   5.151   8.769 -0.0317 -0.0806 -0.2420
   98POPC   C3A 1664  -1.136   5.071   8.350  0.1239 -0.0446 -0.1222
   98POPC   C4A 1665  -1.073   4.907   8.008  0.5437  0.4887  0.2516
   98POPC   C1B 1666  -0.406   5.581   8.591  0.0552  0.0971  0.0387
   98POPC   C2B 1667  -0.574   5.229   8.403 -0.0240  0.0982  0.0421
   98POPC   C3B 1668  -0.589   4.912   8.135 -0.0099  0.3748  0.2653
   98POPC   C4B 1669  -0.618   4.833   7.728 -0.0850  0.1453  0.1439
   99POPC   NC3 1670   4.954   9.880   8.661 -0.1883 -0.1199  0.0322
   99POPC   PO4 1671   5.355   9.651   8.663  0.1090  0.2111  0.2828
   99POPC   GL1 1672   5.160   9.549   8.328  0.2636 -0.1268 -0.0426
   99POPC   GL2 1673   5.452   9.364   8.099 -0.1560  0.3417 -0.0401
   99POPC   C1A 1674   4.969   9.473   7.942 -0.0136 -0.3806 -0.0044
   99POPC   D2A 1675   4.708   9.514   7.584  0.0017 -0.0083  0.0593
   99POPC   C3A 1676   4.743   9.918   7.293 -0.1054  0.1343 -0.0676
   99POPC   C4A 1677   4.481  10.180   7.103 -0.3043 -0.0424  0.0269
   99POPC   C1B 1678   5.277   9.448   7.609 -0.1652  0.0941  0.0583
   99POPC   C2B 1679   5.016   9.225   7.334 -0.1087  0.2001  0.0065
   99POPC   C3B 1680   4.783   9.028   6.894 -0.0362 -0.0666 -0.1911
   99POPC   C4B 1681   4.651   8.849   6.533 -0.1023  0.2426 -0.2922
  100POPC   NC3 1682   4.293   5.052   9.244  0.5326  0.0138  0.1616
  100POPC   PO4 1683   4.145   5.125   8.816  0.1934 -0.3095  0.0336
  100POPC   GL1 1684   4.282   5.174   8.405 -0.0041  0.1215  0.1873
  100POPC   GL2 1685   4.516   4.878   8.285  0.1039  0.0998  0.4298
  100POPC   C1A 1686   4.281   5.387   8.003 -0.1045 -0.1320  0.1496
  100POPC   D2A 1687   4.606   5.586   7.677 -0.0163  0.2260  0.0806
  100POPC   C3A 1688   4.402   5.808   7.372 -0.3406 -0.4973  0.1525
  100POPC   C4A 1689   4.052   5.950   7.056  0.0274  0.0231  0.0281
  100POPC   C1B 1690   4.391   4.913   7.872 -0.1055 -0.1365 -0.0104
  100POPC   C2B 1691   4.308   5.199   7.563  0.2683 -0.1167  0.3666
  100POPC   C3B 1692   4.484   5.365   7.210 -0.2162 -0.0055 -0.0103
  100POPC   C4B 1693   4.382   5.496   6.804  0.0279  0.0037 -0.1571
  101POPC   NC3 1694   6.731   1.933   9.541  0.2644  0.1969  0.1274
  101POPC   PO4 1695   6.791   1.510   9.374  0.0882  0.0030  0.0461
  101POPC   GL1 1696   6.895   1.454   8.997  0.3309 -0.3536  0.2007
  101POPC   GL2 1697   6.494   1.347   8.824 -0.1617  0.0956 -0.1428
  101POPC   C1A 1698   7.092   1.436   8.647  0.1588 -0.1368  0.2010
  101POPC   D2A 1699   7.183   1.554   8.271  0.1350 -0.0628 -0.2536
  101POPC   C3A 1700   7.042   1.508   7.858  0.2134 -0.2227 -0.1482
  101POPC   C4A 1701   6.958   1.225   7.613 -0.0149  0.0626  0.2031
  101POPC   C1B 1702   6.624   1.555   8.429 -0.1682 -0.1924  0.1552
  101POPC   C2B 1703   6.546   1.462   7.991 -0.1001 -0.0763 -0.0160
  101POPC   C3B 1704   6.577   1.611   7.588  0.1461 -0.0324  0.0976
  101POPC   C4B 1705   6.683   2.001   7.412  0.0566 -0.2246 -0.0724
  102POPC   NC3 1706   1.757   5.125   8.723 -0.1358  0.0234  0.0105
  102POPC   PO4 1707   1.480   5.490   8.491 -0.0836 -0.0067  0.3543
  102POPC   GL1 1708   1.120   5.599   8.207 -0.1877 -0.1063 -0.0255
  102POPC   GL2 1709   0.977   5.980   8.088  0.0811  0.0294  0.1859
  102POPC   C1A 1710   0.796   5.386   7.941 -0.0512  0.3420 -0.1621
  102POPC   D2A 1711   0.589   5.182   7.551  0.2780  0.0695  0.1251
  102POPC   C3A 1712   0.737   5.204   7.092  0.0609 -0.1455  0.1304
  102POPC   C4A 1713   0.848   5.285   6.607  0.1074  0.2650  0.1407
  102POPC   C1B 1714   0.869   5.830   7.723 -0.2486 -0.0946  0.0411
  102POPC   C2B 1715   0.548   5.831   7.430  0.2542  0.1230 -0.0176
  102POPC   C3B 1716   0.298   6.115   7.163 -0.0176  0.1250  0.0327
  102POPC   C4B 1717   0.140   6.082   6.734 -0.1325 -0.0574 -0.1898
  103POPC   NC3 1718   8.207   5.186   9.383 -0.1651  0.1912  0.4179
  103POPC   PO4 1719   7.927   5.402   9.272  0.0850 -0.2329 -0.2597
  103POPC   GL1 1720   7.687   5.430   8.795 -0.2041  0.1450 -0.0964
  103POPC   GL2 1721   7.511   5.630   8.720  0.0755  0.0697 -0.2247
  103POPC   C1A 1722   7.745   5.138   8.447 -0.4572  0.0223 -0.0339
  103POPC   D2A 1723   7.877   4.784   8.105 -0.1372 -0.1371 -0.0413
  103POPC   C3A 1724   8.341   4.742   8.247 -0.0642  0.0544  0.1302
  103POPC   C4A 1725   8.625   4.744   8.561 -0.1677  0.2695  0.0094
  103POPC   C1B 1726   7.553   5.739   8.220 -0.2037 -0.1276 -0.0972
  103POPC   C2B 1727   7.542   5.714   7.845 -0.0506 -0.2435  0.0109
  103POPC   C3B 1728   7.479   5.748   7.444  0.5236  0.0699  0.1731
  103POPC   C4B 1729   7.184   5.857   7.217  0.1317 -0.0286  0.1451
  104POPC   NC3 1730   9.758   0.976   9.569  0.2821  0.1121 -0.2557
  104POPC   PO4 1731   9.248   0.948   9.759 -0.1046 -0.2372  0.0697
  104POPC   GL1 1732   9.312   0.933   9.324  0.0605 -0.1517  0.0918
  104POPC   GL2 1733   9.638   0.961   9.039  0.1863 -0.1573  0.2696
  104POPC   C1A 1734   9.183   1.054   8.931  0.0265 -0.0310 -0.0247
  104POPC   D2A 1735   9.050   1.282   8.634  0.0421 -0.0915 -0.2356
  104POPC   C3A 1736   8.952   1.158   8.174 -0.0173  0.2486 -0.0955
  104POPC   C4A 1737   8.889   0.946   7.903  0.0829  0.0357  0.0017
  104POPC   C1B 1738   9.668   1.036   8.606 -0.0895 -0.2421 -0.0889
  104POPC   C2B 1739   9.860   1.512   8.510  0.0144  0.0996  0.0532
  104POPC   C3B 1740  10.175   1.576   8.191 -0.2647  0.0541  0.0040
  104POPC   C4B 1741  10.165   1.836   7.859 -0.2049 -0.1015  0.0116
  105POPC   NC3 1742   2.406   9.106   8.427 -0.0207 -0.3467 -0.2250
  105POPC   PO4 1743   2.489   8.781   8.195 -0.2001 -0.1846 -0.0765
  105POPC   GL1 1744   2.531   8.564   7.738 -0.0271  0.4025  0.1392
  105POPC   GL2 1745   2.843   8.502   7.569  0.0252  0.1156 -0.2976
  105POPC   C1A 1746   2.437   8.598   7.335 -0.1544  0.0290 -0.1164
  105POPC   D2A 1747   2.348   8.368   7.156 -0.1730  0.0401  0.0988
  105POPC   C3A 1748   2.122   8.018   7.220  0.1497 -0.1848 -0.0747
  105POPC   C4A 1749   1.942   7.680   7.453 -0.2166 -0.5029  0.4751
  105POPC   C1B 1750   2.936   8.494   7.178  0.0352  0.3213  0.1062
  105POPC   C2B 1751   2.672   8.439   6.824 -0.1589  0.2020 -0.1341
  105POPC   C3B 1752   2.507   8.238   6.415  0.0774 -0.1052 -0.3292
  105POPC   C4B 1753   2.643   8.005   6.019  0.2177 -0.0931  0.0184
  106POPC   NC3 1754   7.544   1.427   9.980 -0.0316  0.1192 -0.1386
  106POPC   PO4 1755   7.373   1.069   9.820 -0.0638 -0.1007  0.1159
  106POPC   GL1 1756   7.575   1.418   9.457 -0.1160  0.1323  0.0785
  106POPC   GL2 1757   7.328   1.569   9.313  0.3995  0.1446  0.1286
  106POPC   C1A 1758   7.951   1.622   9.186 -0.3252  0.1745  0.0549
  106POPC   D2A 1759   8.249   2.010   9.268 -0.0868  0.0276  0.2511
  106POPC   C3A 1760   8.650   1.915   9.124 -0.0803  0.1035  0.1547
  106POPC   C4A 1761   9.094   1.958   9.044 -0.1517 -0.2581  0.0135
  106POPC   C1B 1762   7.497   1.603   8.896 -0.1953 -0.0300 -0.0034
  106POPC   C2B 1763   7.577   1.838   8.533  0.0939  0.1151  0.0314
  106POPC   C3B 1764   7.519   1.896   8.091  0.3179  0.1336  0.0890
  106POPC   C4B 1765   7.504   1.658   7.784 -0.0055  0.1054  0.0121
  107POPC   NC3 1766  10.257   7.007   9.088 -0.0449 -0.1728 -0.0134
  107POPC   PO4 1767  10.104   6.623   8.803 -0.1836 -0.2811  0.1146
  107POPC   GL1 1768  10.069   6.497   8.403 -0.0370 -0.2300  0.2024
  107POPC   GL2 1769   9.983   6.193   8.381  0.0165  0.3234 -0.2991
  107POPC   C1A 1770   9.890   6.527   8.063  0.0671  0.0808  0.1105
  107POPC   D2A 1771   9.931   6.461   7.644  0.1179 -0.1371  0.0629
  107POPC   C3A 1772   9.897   6.060   7.408  0.1488  0.0772 -0.1261
  107POPC   C4A 1773   9.976   5.647   7.177  0.2834  0.2411  0.3731
  107POPC   C1B 1774  10.165   6.055   7.967  0.0371  0.1217 -0.0299
  107POPC   C2B 1775  10.238   5.751   7.635 -0.1637 -0.0564  0.1971
  107POPC   C3B 1776  10.508   5.688   7.330 -0.0761 -0.1422  0.1288
  107POPC   C4B 1777  10.690   5.304   7.273  0.3108 -0.0119  0.0465
  108POPC   NC3 1778   2.302   9.414   8.772 -0.0333  0.1521 -0.2067
  108POPC   PO4 1779   1.994   9.069   8.720 -0.0444  0.1385  0.2932
  108POPC   GL1 1780   1.931   9.387   8.398  0.2913 -0.0640 -0.2832
  108POPC   GL2 1781   1.643   9.295   8.316 -0.3093  0.1968 -0.0539
  108POPC   C1A 1782   2.105   9.457   7.856 -0.2177 -0.1183 -0.0191
  108POPC   D2A 1783   2.481   9.552   7.565  0.2221 -0.2564 -0.1657
  108POPC   C3A 1784   2.306   9.578   7.241 -0.1427 -0.1546 -0.2446
  108POPC   C4A 1785   2.250   9.411   6.797 -0.1804  0.0381 -0.0671
  108POPC   C1B 1786   1.618   9.254   7.788  0.1297 -0.1902  0.4622
  108POPC   C2B 1787   1.372   9.025   7.438 -0.1539  0.0291 -0.0587
  108POPC   C3B 1788   1.154   9.170   7.023  0.0822  0.0063 -0.2571
  108POPC   C4B 1789   0.878   9.274   6.560 -0.0856  0.0178 -0.0263
  109POPC   NC3 1790   5.676   8.566   8.943  0.2644 -0.0649  0.0537
  109POPC   PO4 1791   5.778   8.846   8.557 -0.1076  0.0951 -0.0926
  109POPC   GL1 1792   5.870   8.851   8.102  0.2726 -0.0576 -0.0129
  109POPC   GL2 1793   5.881   9.088   7.894  0.1583  0.0656  0.0892
  109POPC   C1A 1794   5.729   8.541   7.835 -0.0189 -0.2806  0.0568
  109POPC   D2A 1795   5.613   8.300   7.625 -0.0046 -0.1455 -0.0304
  109POPC   C3A 1796   5.431   8.389   7.364  0.0718  0.1763 -0.1089
  109POPC   C4A 1797   5.217   8.186   7.126  0.0666 -0.1479  0.0133
  109POPC   C1B 1798   5.833   9.285   7.525  0.2303 -0.0720 -0.3163
  109POPC   C2B 1799   5.830   9.149   7.143 -0.1735 -0.3313  0.5650
  109POPC   C3B 1800   5.708   8.814   6.833 -0.0618 -0.0559  0.0422
  109POPC   C4B 1801   5.626   8.423   6.909 -0.0451  0.1395 -0.0804
  110POPC   NC3 1802   2.153  10.306   8.643  0.1195 -0.1594 -0.1245
  110POPC   PO4 1803   2.308   9.920   8.843  0.1366  0.2223  0.2191
  110POPC   GL1 1804   2.183   9.816   8.465 -0.0796 -0.2119  0.0920
  110POPC   GL2 1805   2.300   9.622   8.280 -0.0247 -0.0968  0.0600
  110POPC   C1A 1806   1.891   9.906   8.182 -0.0255  0.0758  0.0072
  110POPC   D2A 1807   1.548   9.822   7.925  0.4785  0.2624 -0.1825
  110POPC   C3A 1808   1.450   9.984   7.524 -0.0198 -0.1017 -0.0002
  110POPC   C4A 1809   1.672  10.095   7.130 -0.0497  0.2531  0.2047
  110POPC   C1B 1810   2.451   9.898   7.970  0.3279 -0.0152 -0.1917
  110POPC   C2B 1811   2.415  10.037   7.587 -0.1989  0.4997  0.0279
  110POPC   C3B 1812   2.215  10.104   7.170  0.0632 -0.2530  0.1073
  110POPC   C4B 1813   2.015   9.833   6.837  0.2014  0.1961  0.0809
  111POPC   NC3 1814   7.786   5.827   9.546  0.0357 -0.2453  0.0547
  111POPC   PO4 1815   7.876   5.842   9.068  0.0917  0.1741 -0.0474
  111POPC   GL1 1816   8.010   5.708   8.599  0.1167  0.5191 -0.0105
  111POPC   GL2 1817   8.421   5.750   8.464  0.2330  0.0661  0.0963
  111POPC   C1A 1818   8.004   5.547   8.122  0.2481 -0.1207  0.0629
  111POPC   D2A 1819   8.066   5.289   7.796 -0.1858  0.0595 -0.0854
  111POPC   C3A 1820   8.160   4.892   7.692 -0.4377  0.1598  0.1150
  111POPC   C4A 1821   8.465   4.567   7.772  0.0318  0.1403 -0.2082
  111POPC   C1B 1822   8.805   5.561   8.211 -0.0635 -0.0512  0.2629
  111POPC   C2B 1823   9.118   5.350   7.909  0.0226 -0.0267  0.1200
  111POPC   C3B 1824   9.627   5.354   7.906 -0.1918  0.1635  0.6688
  111POPC   C4B 1825   9.997   5.290   7.606  0.0314  0.3347  0.4419
  112POPC   NC3 1826   4.114   2.799   8.970 -0.1895 -0.3904 -0.1455
  112POPC   PO4 1827   3.809   2.822   8.633 -0.0522  0.2798  0.1178
  112POPC   GL1 1828   3.744   2.829   8.129 -0.1369 -0.1526  0.0245
  112POPC   GL2 1829   3.427   2.976   8.096 -0.0553 -0.0600  0.1740
  112POPC   C1A 1830   3.671   2.809   7.643 -0.2667 -0.0942  0.1806
  112POPC   D2A 1831   3.589   2.566   7.342  0.0356 -0.1295  0.4646
  112POPC   C3A 1832   3.969   2.307   7.174  0.1204 -0.1337  0.2277
  112POPC   C4A 1833   4.328   2.279   6.960 -0.0119  0.2556  0.0654
  112POPC   C1B 1834   3.347   3.157   7.685  0.0364 -0.2436 -0.3612
  112POPC   C2B 1835   3.378   3.003   7.155 -0.2504 -0.1805 -0.0826
  112POPC   C3B 1836   3.575   2.736   6.863  0.0103 -0.1996 -0.2961
  112POPC   C4B 1837   3.943   2.517   6.657 -0.0824 -0.0458  0.3480
  113POPC   NC3 1838   7.324   9.492   9.539  0.2277 -0.0749 -0.0986
  113POPC   PO4 1839   7.512   9.734   9.173 -0.2441  0.0721  0.0520
  113POPC   GL1 1840   7.416   9.774   8.683  0.0449  0.0602 -0.2247
  113POPC   GL2 1841   7.469   9.509   8.589 -0.1257  0.1955  0.0356
  113POPC   C1A 1842   7.403  10.084   8.470  0.0189 -0.0422  0.0435
  113POPC   D2A 1843   7.565  10.337   8.120 -0.1087 -0.2104 -0.1315
  113POPC   C3A 1844   7.356  10.647   7.846 -0.1779 -0.0558  0.0290
  113POPC   C4A 1845   7.375  11.033   7.662 -0.0547 -0.1019 -0.0382
  113POPC   C1B 1846   7.282   9.656   8.203 -0.0922 -0.1948  0.2045
  113POPC   C2B 1847   7.101  10.027   7.965  0.0439  0.3017 -0.3476
  113POPC   C3B 1848   6.995  10.185   7.621  0.3416 -0.2613 -0.0452
  113POPC   C4B 1849   7.036   9.951   7.317  0.2177  0.2032 -0.3897
  114POPC   NC3 1850  10.398   7.613   8.569 -0.0669  0.2473  0.0157
  114POPC   PO4 1851   9.935   7.471   8.763 -0.0009  0.1973 -0.1843
  114POPC   GL1 1852   9.830   7.468   8.387  0.2260 -0.1032  0.1777
  114POPC   GL2 1853   9.523   7.444   8.220 -0.3202 -0.0426  0.2968
  114POPC   C1A 1854  10.054   7.181   8.043 -0.1145  0.1146  0.0147
  114POPC   D2A 1855   9.879   6.990   7.735  0.0672  0.2504  0.0055
  114POPC   C3A 1856  10.049   6.911   7.357  0.0490 -0.1405 -0.2363
  114POPC   C4A 1857   9.993   6.500   7.050 -0.0151 -0.1642  0.0761
  114POPC   C1B 1858   9.503   7.239   7.878  0.3249 -0.0749 -0.0248
  114POPC   C2B 1859   9.474   6.998   7.486  0.2851  0.2153  0.3498
  114POPC   C3B 1860   9.576   6.700   7.225  0.2023  0.0656 -0.1002
  114POPC   C4B 1861   9.434   6.619   6.809 -0.1544  0.0845 -0.2542
  115POPC   NC3 1862   2.707   8.321   8.101 -0.0122  0.1973 -0.1652
  115POPC   PO4 1863   2.536   7.943   8.375 -0.3398 -0.3721 -0.3136
  115POPC   GL1 1864   2.490   7.881   7.972 -0.2717 -0.2059  0.0178
  115POPC   GL2 1865   2.297   8.075   7.798  0.0843 -0.3287  0.2348
  115POPC   C1A 1866   2.692   7.590   7.634  0.0799  0.3249  0.1679
  115POPC   D2A 1867   2.843   7.572   7.206 -0.1023  0.0896 -0.1157
  115POPC   C3A 1868   3.223   7.430   7.051 -0.1292  0.0449  0.1277
  115POPC   C4A 1869   3.584   7.346   6.768 -0.1274  0.2422  0.0247
  115POPC   C1B 1870   2.632   8.077   7.395 -0.3559  0.0012 -0.0373
  115POPC   C2B 1871   2.566   7.975   6.969 -0.2308  0.1968  0.2974
  115POPC   C3B 1872   2.150   7.861   6.758  0.1688  0.1590  0.1009
  115POPC   C4B 1873   2.038   7.552   6.533 -0.1416 -0.0004  0.2771
  116POPC   NC3 1874   7.416   3.764   9.400  0.1769  0.0531  0.3235
  116POPC   PO4 1875   7.865   3.918   9.628  0.4480 -0.2885 -0.2184
  116POPC   GL1 1876   7.869   3.629   9.280 -0.0054 -0.0143 -0.1139
  116POPC   GL2 1877   7.907   3.283   9.360 -0.1709 -0.1589 -0.2474
  116POPC   C1A 1878   7.749   3.451   8.970  0.2169 -0.1433  0.1153
  116POPC   D2A 1879   8.032   3.292   8.683 -0.3080  0.2018 -0.0410
  116POPC   C3A 1880   8.344   3.598   8.613  0.1957  0.2566 -0.2098
  116POPC   C4A 1881   8.550   3.752   8.293 -0.0229  0.1041  0.0355
  116POPC   C1B 1882   8.039   3.011   9.040 -0.0897 -0.0108 -0.0465
  116POPC   C2B 1883   7.815   2.794   8.704 -0.2340 -0.0872 -0.4564
  116POPC   C3B 1884   7.959   2.945   8.316  0.2704 -0.1793  0.1772
  116POPC   C4B 1885   7.784   2.718   7.972 -0.3017  0.0550  0.1091
  117POPC   NC3 1886   0.404  10.102   8.731  0.1449  0.0636 -0.1939
  117POPC   PO4 1887  -0.023  10.270   8.770  0.1683  0.3108 -0.1465
  117POPC   GL1 1888   0.121  10.474   8.464 -0.0154 -0.0888 -0.1827
  117POPC   GL2 1889   0.213  10.843   8.426  0.0373  0.0112 -0.0863
  117POPC   C1A 1890  -0.034  10.621   7.964  0.0887  0.1387  0.2171
  117POPC   D2A 1891   0.170  10.956   7.678 -0.1317  0.0329  0.1121
  117POPC   C3A 1892   0.365  11.138   7.433  0.1421  0.3976 -0.3534
  117POPC   C4A 1893   0.382  11.497   7.336 -0.1082 -0.2615 -0.1472
  117POPC   C1B 1894   0.452  10.803   8.123 -0.3437 -0.0854 -0.0124
  117POPC   C2B 1895   0.749  10.978   7.789  0.4595  0.2301 -0.0045
  117POPC   C3B 1896   1.070  10.996   7.382 -0.1514  0.2562 -0.3243
  117POPC   C4B 1897   1.156  11.218   6.989  0.0417 -0.2944  0.0679
  118POPC   NC3 1898   1.240   5.111   8.786 -0.2045  0.0674 -0.0976
  118POPC   PO4 1899   1.590   4.725   8.559  0.0141  0.2068 -0.2721
  118POPC   GL1 1900   1.517   4.934   8.224  0.0740  0.1455  0.0650
  118POPC   GL2 1901   1.119   5.035   8.225 -0.0766  0.2500  0.0524
  118POPC   C1A 1902   1.552   5.011   7.739  0.0141 -0.2241  0.1913
  118POPC   D2A 1903   1.777   4.891   7.264  0.2083 -0.1685 -0.0787
  118POPC   C3A 1904   1.678   4.469   7.085  0.0086  0.2650  0.3625
  118POPC   C4A 1905   1.473   4.439   6.777 -0.0185  0.1058 -0.5918
  118POPC   C1B 1906   1.065   4.921   7.733  0.1113  0.0384  0.0405
  118POPC   C2B 1907   0.829   4.802   7.404  0.1138 -0.0781  0.0407
  118POPC   C3B 1908   0.484   4.750   7.212 -0.0192  0.1136  0.1966
  118POPC   C4B 1909   0.442   4.546   6.830 -0.0186  0.1158 -0.2916
  119POPC   NC3 1910   1.740   6.761   8.894  0.4059 -0.0591  0.2660
  119POPC   PO4 1911   1.896   6.467   8.594  0.0237  0.0372 -0.0346
  119POPC   GL1 1912   1.756   6.394   8.190 -0.1044  0.0146  0.3097
  119POPC   GL2 1913   1.942   6.139   8.144 -0.1026  0.2604 -0.1389
  119POPC   C1A 1914   1.733   6.642   7.747 -0.3756  0.0215 -0.2603
  119POPC   D2A 1915   1.586   6.690   7.332  0.4430 -0.1005  0.2395
  119POPC   C3A 1916   1.580   6.922   7.011  0.1166 -0.1277  0.4108
  119POPC   C4A 1917   1.796   7.169   6.779  0.2172  0.0601 -0.1900
  119POPC   C1B 1918   1.877   6.047   7.714  0.3445 -0.1232 -0.0958
  119POPC   C2B 1919   1.800   6.250   7.279  0.2857 -0.2263 -0.0372
  119POPC   C3B 1920   1.964   6.561   7.030 -0.0378  0.0468  0.0654
  119POPC   C4B 1921   1.854   6.679   6.641  0.0482  0.1760  0.0684
  120POPC   NC3 1922   9.114   3.981  10.617  0.0085 -0.1416  0.2443
  120POPC   PO4 1923   9.288   3.773  10.275  0.2111 -0.1294 -0.1302
  120POPC   GL1 1924   9.239   3.927   9.856 -0.2303  0.1220  0.0730
  120POPC   GL2 1925   8.986   3.805   9.775  0.1707  0.0158  0.1350
  120POPC   C1A 1926   9.439   4.076   9.497 -0.1127  0.1870  0.2740
  120POPC   D2A 1927   9.370   4.162   9.033  0.1230  0.1240  0.1483
  120POPC   C3A 1928   9.562   4.584   8.939  0.1054 -0.2142  0.2316
  120POPC   C4A 1929   9.669   4.788   8.532 -0.4222  0.0925 -0.1841
  120POPC   C1B 1930   9.210   3.568   9.452  0.0868 -0.3689  0.0731
  120POPC   C2B 1931   9.649   3.593   9.107  0.2239  0.0354  0.0003
  120POPC   C3B 1932   9.860   3.826   8.720 -0.2829  0.0175  0.1331
  120POPC   C4B 1933   9.993   3.656   8.273  0.1321 -0.1484 -0.0218
  121POPC   NC3 1934   5.303   4.292   8.649 -0.2313 -0.0032 -0.1184
  121POPC   PO4 1935   5.019   4.595   8.573  0.1223 -0.0074 -0.0382
  121POPC   GL1 1936   4.903   4.433   8.160 -0.0463 -0.0079  0.0063
  121POPC   GL2 1937   4.556   4.486   8.012 -0.2556 -0.0627 -0.0955
  121POPC   C1A 1938   5.028   4.663   7.777 -0.3858 -0.2320 -0.0116
  121POPC   D2A 1939   5.133   4.661   7.353 -0.2179 -0.2058  0.2513
  121POPC   C3A 1940   5.212   4.988   6.895  0.1114  0.0208  0.1103
  121POPC   C4A 1941   5.353   5.319   6.616  0.1305  0.2030  0.1163
  121POPC   C1B 1942   4.384   4.259   7.775  0.0954 -0.1118  0.1267
  121POPC   C2B 1943   4.344   4.105   7.366  0.0951  0.1500 -0.2655
  121POPC   C3B 1944   4.551   3.894   6.936  0.0925  0.0865 -0.0625
  121POPC   C4B 1945   4.488   3.681   6.587 -0.0848  0.1233  0.3931
  122POPC   NC3 1946   8.367   6.114   8.800 -0.1335 -0.0064 -0.1465
  122POPC   PO4 1947   8.274   6.529   8.735  0.0862  0.1873  0.0158
  122POPC   GL1 1948   7.896   6.514   8.561  0.2026 -0.1533 -0.0316
  122POPC   GL2 1949   7.740   6.159   8.605 -0.1728 -0.4000  0.3548
  122POPC   C1A 1950   7.700   6.452   8.098 -0.1466  0.2651 -0.3910
  122POPC   D2A 1951   7.463   6.790   7.808 -0.0064  0.0344  0.1901
  122POPC   C3A 1952   7.430   6.594   7.380  0.0417  0.0715  0.4162
  122POPC   C4A 1953   7.253   6.407   7.021  0.2056  0.2727 -0.1454
  122POPC   C1B 1954   7.955   6.067   8.267 -0.0134  0.0126  0.1299
  122POPC   C2B 1955   8.017   5.986   7.771  0.3062 -0.0360  0.0872
  122POPC   C3B 1956   8.063   5.741   7.426 -0.1725  0.1042 -0.0912
  122POPC   C4B 1957   7.783   5.600   7.104 -0.0898 -0.1797 -0.1062
  123POPC   NC3 1958   1.524   2.612   9.049 -0.0370 -0.2483  0.1732
  123POPC   PO4 1959   1.561   3.029   9.252 -0.0378 -0.2783  0.0284
  123POPC   GL1 1960   1.450   3.365   8.891 -0.2118 -0.0514 -0.1639
  123POPC   GL2 1961   1.226   3.481   8.869  0.0870 -0.0602  0.1396
  123POPC   C1A 1962   1.402   3.339   8.447 -0.2558 -0.1163  0.1684
  123POPC   D2A 1963   1.256   3.307   8.010 -0.0857  0.3336 -0.1542
  123POPC   C3A 1964   1.038   2.922   7.828 -0.1310  0.3131  0.0350
  123POPC   C4A 1965   0.772   2.691   7.518  0.0357 -0.0430  0.1311
  123POPC   C1B 1966   0.931   3.746   8.681  0.1321  0.1309  0.1409
  123POPC   C2B 1967   0.862   4.079   8.314 -0.2227  0.2071 -0.0144
  123POPC   C3B 1968   1.228   4.287   8.094  0.0344  0.2175 -0.1552
  123POPC   C4B 1969   1.491   4.552   7.848  0.0337 -0.0502 -0.0014
  124POPC   NC3 1970   9.569   5.211   9.855 -0.0006  0.3440 -0.0071
  124POPC   PO4 1971   9.911   4.920   9.972  0.0322 -0.3754  0.4726
  124POPC   GL1 1972  10.038   4.803   9.624  0.1302 -0.0530 -0.0397
  124POPC   GL2 1973  10.363   4.667   9.508  0.3838  0.1815 -0.0141
  124POPC   C1A 1974   9.830   4.517   9.357 -0.0453 -0.0686  0.2876
  124POPC   D2A 1975   9.873   4.198   9.131 -0.0426  0.0074  0.1239
  124POPC   C3A 1976  10.182   4.326   8.897  0.0244  0.2056 -0.1996
  124POPC   C4A 1977  10.120   4.586   8.557 -0.2168  0.0746  0.3235
  124POPC   C1B 1978  10.303   4.269   9.396 -0.0943  0.0700  0.0156
  124POPC   C2B 1979  10.080   4.022   9.671 -0.1051  0.0511  0.3002
  124POPC   C3B 1980   9.837   3.620   9.634  0.0710  0.0208 -0.0928
  124POPC   C4B 1981   9.564   3.208   9.599 -0.0955  0.0486  0.0827
  125POPC   NC3 1982   6.767  10.183   9.229  0.6117  0.4073  0.2614
  125POPC   PO4 1983   7.038   9.981   9.053 -0.2816  0.0193  0.2141
  125POPC   GL1 1984   6.906  10.102   8.685 -0.0354 -0.2380 -0.0563
  125POPC   GL2 1985   6.931   9.813   8.510 -0.0254 -0.1666  0.1419
  125POPC   C1A 1986   6.978  10.539   8.568  0.1000 -0.1145  0.2285
  125POPC   D2A 1987   7.326  10.929   8.690  0.3834  0.2606 -0.3680
  125POPC   C3A 1988   7.275  11.352   8.489 -0.0301 -0.0955  0.3202
  125POPC   C4A 1989   7.082  11.562   8.128  0.3413  0.1998  0.0093
  125POPC   C1B 1990   6.616  10.037   8.199 -0.0969  0.0695 -0.1421
  125POPC   C2B 1991   6.507   9.756   7.793 -0.1474  0.0086  0.0043
  125POPC   C3B 1992   6.241   9.653   7.540 -0.1893  0.1475 -0.1904
  125POPC   C4B 1993   5.965   9.643   7.157 -0.3027 -0.0950  0.0094
  126POPC   NC3 1994   2.394   5.701   8.748  0.0772  0.0432  0.0999
  126POPC   PO4 1995   2.356   6.031   8.465  0.1134  0.3676  0.1811
  126POPC   GL1 1996   2.575   6.222   8.151  0.1525  0.1888 -0.1538
  126POPC   GL2 1997   2.829   6.050   8.024  0.0908  0.4506 -0.0900
  126POPC   C1A 1998   2.304   6.328   7.881  0.2221  0.1695 -0.0195
  126POPC   D2A 1999   2.160   6.445   7.506  0.2072 -0.0699  0.3901
  126POPC   C3A 2000   2.413   6.702   7.231  0.1774 -0.0363 -0.0474
  126POPC   C4A 2001   2.724   7.078   7.173  0.1171  0.0772 -0.0333
  126POPC   C1B 2002   2.632   5.845   7.654  0.4448  0.2383 -0.1414
  126POPC   C2B 2003   2.329   5.881   7.401  0.0840 -0.0041 -0.0584
  126POPC   C3B 2004   2.062   5.836   7.073 -0.2152  0.0694  0.3726
  126POPC   C4B 2005   1.871   5.590   6.714  0.0893  0.3158  0.1046
  127POPC   NC3 2006   3.779   7.037   8.667 -0.0852  0.3851  0.0766
  127POPC   PO4 2007   3.736   7.465   8.571 -0.3501  0.1784 -0.1649
  127POPC   GL1 2008   3.685   7.299   8.205 -0.0347 -0.1151  0.2313
  127POPC   GL2 2009   3.729   6.934   8.189 -0.3052  0.0531  0.0940
  127POPC   C1A 2010   3.776   7.206   7.726  0.2314 -0.1140 -0.1211
  127POPC   D2A 2011   3.596   7.267   7.392 -0.1508 -0.1240 -0.4661
  127POPC   C3A 2012   3.702   7.730   7.327 -0.0608  0.0036  0.0090
  127POPC   C4A 2013   3.684   8.146   7.594  0.0526  0.2631  0.0722
  127POPC   C1B 2014   3.755   6.651   7.854  0.0429 -0.1317 -0.2941
  127POPC   C2B 2015   3.825   6.839   7.333 -0.2021  0.1294  0.0402
  127POPC   C3B 2016   3.688   6.618   6.911 -0.1299  0.0545 -0.0394
  127POPC   C4B 2017   3.563   6.501   6.546  0.1094 -0.0350  0.0305
  128POPC   NC3 2018   5.119   9.345   8.954  0.0716  0.1137 -0.2384
  128POPC   PO4 2019   4.792   9.369   8.627 -0.0128 -0.1167 -0.2115
  128POPC   GL1 2020   4.529   9.399   8.275  0.1570  0.2799 -0.1039
  128POPC   GL2 2021   4.499   9.652   8.178 -0.1190  0.0949  0.1594
  128POPC   C1A 2022   4.525   9.150   7.817 -0.3107 -0.0184 -0.0800
  128POPC   D2A 2023   4.599   9.004   7.352 -0.1379 -0.2968 -0.1872
  128POPC   C3A 2024   4.591   8.610   7.028  0.1119  0.0495 -0.0612
  128POPC   C4A 2025   4.847   8.294   6.717 -0.0078  0.0989 -0.3057
  128POPC   C1B 2026   4.317   9.688   7.847  0.2155 -0.0334  0.1436
  128POPC   C2B 2027   4.197   9.664   7.417 -0.1106 -0.1108  0.0759
  128POPC   C3B 2028   3.833   9.528   7.115  0.0405  0.1541  0.3245
  128POPC   C4B 2029   3.615   9.676   6.734  0.0130  0.0835  0.1550
  129POPC   NC3 2030   4.399   5.602   8.690  0.0203  0.0249  0.1893
  129POPC   PO4 2031   4.689   5.362   8.741  0.1634  0.0801 -0.1660
  129POPC   GL1 2032   4.906   5.245   8.350 -0.2859 -0.0450  0.3401
  129POPC   GL2 2033   5.092   5.003   8.243  0.0906 -0.1156  0.0522
  129POPC   C1A 2034   4.789   5.155   7.811 -0.1353 -0.0277 -0.2670
  129POPC   D2A 2035   4.795   5.053   7.351 -0.0654 -0.0672  0.1919
  129POPC   C3A 2036   4.533   4.940   6.959 -0.1203 -0.1951 -0.0806
  129POPC   C4A 2037   4.191   5.017   6.638  0.2332 -0.1087  0.0966
  129POPC   C1B 2038   5.314   5.052   7.877 -0.1645  0.1514  0.0915
  129POPC   C2B 2039   5.437   5.041   7.394  0.2492 -0.0405  0.1495
  129POPC   C3B 2040   5.664   4.731   7.223  0.3045 -0.0376 -0.2553
  129POPC   C4B 2041   6.048   4.353   7.319 -0.1118 -0.0431 -0.3400
  130POPC   NC3 2042   2.138   3.966   8.729 -0.0090  0.2795 -0.0559
  130POPC   PO4 2043   1.612   3.828   8.965  0.3266 -0.2450  0.3378
  130POPC   GL1 2044   1.675   3.726   8.589 -0.4704  0.1616 -0.0078
  130POPC   GL2 2045   1.910   3.546   8.402 -0.0462  0.1982 -0.3179
  130POPC   C1A 2046   1.354   3.765   8.229  0.1056 -0.2388 -0.1157
  130POPC   D2A 2047   1.131   3.863   7.894 -0.0287  0.1503  0.1621
  130POPC   C3A 2048   1.232   4.172   7.652  0.0435 -0.1116 -0.1966
  130POPC   C4A 2049   1.202   4.400   7.281 -0.0948 -0.0570 -0.0254
  130POPC   C1B 2050   1.787   3.388   8.003  0.5445 -0.2337  0.4482
  130POPC   C2B 2051   1.528   3.513   7.623 -0.0160 -0.1776  0.1814
  130POPC   C3B 2052   1.124   3.453   7.384  0.1479  0.0998  0.3359
  130POPC   C4B 2053   1.192   3.367   6.969  0.1760 -0.0533  0.1750
  131POPC   NC3 2054   1.115   3.875   9.790 -0.0589  0.0501 -0.0462
  131POPC   PO4 2055   0.734   3.861   9.524  0.1403 -0.1840  0.1794
  131POPC   GL1 2056   0.593   3.819   9.064  0.0091  0.1311  0.0144
  131POPC   GL2 2057   0.715   3.428   8.971  0.2405  0.3288  0.0451
  131POPC   C1A 2058   0.421   3.930   8.666  0.2001 -0.2196 -0.1364
  131POPC   D2A 2059   0.326   3.775   8.187 -0.2411 -0.2332  0.1311
  131POPC   C3A 2060   0.618   3.882   7.871  0.0370 -0.0939 -0.2519
  131POPC   C4A 2061   0.785   3.816   7.413  0.0462 -0.0995 -0.1812
  131POPC   C1B 2062   0.571   3.396   8.530 -0.0411  0.0573  0.0404
  131POPC   C2B 2063   0.291   3.295   8.211  0.1174  0.0153  0.0177
  131POPC   C3B 2064  -0.157   3.308   8.196  0.0473  0.0572  0.0679
  131POPC   C4B 2065  -0.559   3.139   8.226 -0.0287  0.1586  0.1601
  132POPC   NC3 2066   6.517   6.981   8.881 -0.0093  0.1774  0.0308
  132POPC   PO4 2067   6.064   6.875   8.959  0.3241  0.1216 -0.1254
  132POPC   GL1 2068   6.224   6.510   8.637 -0.1663  0.0155 -0.3387
  132POPC   GL2 2069   6.366   6.740   8.442  0.0049  0.0634  0.1474
  132POPC   C1A 2070   6.329   6.190   8.190  0.2844 -0.0788 -0.1311
  132POPC   D2A 2071   6.511   6.113   7.782  0.0670 -0.6213 -0.0780
  132POPC   C3A 2072   6.608   6.528   7.713 -0.2302 -0.1745  0.0486
  132POPC   C4A 2073   6.605   6.860   7.946 -0.1371  0.2160 -0.0470
  132POPC   C1B 2074   6.160   7.049   8.209 -0.0159  0.0731 -0.1139
  132POPC   C2B 2075   5.841   7.061   7.989  0.0332  0.0847  0.1844
  132POPC   C3B 2076   5.798   7.346   7.720 -0.0826  0.0275  0.4931
  132POPC   C4B 2077   5.748   7.768   7.475  0.2604  0.1476 -0.0628
  133POPC   NC3 2078   1.777   1.157   8.473  0.1562  0.1196  0.2185
  133POPC   PO4 2079   2.080   0.859   8.300  0.0133  0.0433  0.0217
  133POPC   GL1 2080   2.083   1.110   7.982 -0.1460 -0.1199  0.0063
  133POPC   GL2 2081   2.373   1.011   7.880  0.0574 -0.0485 -0.1561
  133POPC   C1A 2082   1.926   1.141   7.541  0.2190 -0.0188 -0.1255
  133POPC   D2A 2083   1.750   1.053   7.071  0.0746  0.0112  0.1007
  133POPC   C3A 2084   1.373   1.199   6.943 -0.1497 -0.2729 -0.0914
  133POPC   C4A 2085   1.065   1.115   6.685  0.0756 -0.0918  0.1043
  133POPC   C1B 2086   2.558   1.156   7.590  0.3811  0.1104 -0.3202
  133POPC   C2B 2087   2.800   1.461   7.338 -0.1684  0.0921 -0.0804
  133POPC   C3B 2088   3.083   1.448   6.968 -0.2778 -0.0118  0.0532
  133POPC   C4B 2089   3.294   1.465   6.614  0.1172  0.2911  0.0699
  134POPC   NC3 2090   8.285   6.918   9.017 -0.0715  0.1542 -0.1365
  134POPC   PO4 2091   7.797   7.166   9.112  0.2005 -0.0480  0.0544
  134POPC   GL1 2092   7.973   7.042   8.612  0.0777  0.1087  0.0336
  134POPC   GL2 2093   7.694   6.941   8.410 -0.5566 -0.1504 -0.2128
  134POPC   C1A 2094   8.192   7.195   8.345  0.3254 -0.1381 -0.0636
  134POPC   D2A 2095   8.252   7.383   7.977 -0.0355  0.1018  0.1906
  134POPC   C3A 2096   8.545   7.647   7.834  0.1998 -0.2737 -0.1984
  134POPC   C4A 2097   8.762   7.914   7.688 -0.0907  0.1079 -0.0135
  134POPC   C1B 2098   7.827   7.037   7.963  0.1470 -0.0058 -0.1038
  134POPC   C2B 2099   7.723   7.372   7.771 -0.0201  0.0451 -0.0200
  134POPC   C3B 2100   7.441   7.646   7.473  0.3389  0.1683 -0.0925
  134POPC   C4B 2101   7.180   7.681   7.093 -0.0160  0.0171  0.1366
  135POPC   NC3 2102   5.260   0.879   8.773  0.2838  0.1802 -0.1360
  135POPC   PO4 2103   4.835   1.040   8.668  0.0897 -0.1869 -0.1810
  135POPC   GL1 2104   4.702   1.025   8.257  0.1863 -0.0672 -0.0691
  135POPC   GL2 2105   4.442   1.226   8.174 -0.1428  0.2252  0.1365
  135POPC   C1A 2106   4.939   1.028   7.791 -0.0225 -0.3301 -0.0490
  135POPC   D2A 2107   5.294   0.827   7.750  0.0805  0.1072  0.3366
  135POPC   C3A 2108   5.691   0.926   7.701  0.0728 -0.0505  0.3540
  135POPC   C4A 2109   6.084   0.891   7.321  0.1833 -0.0287 -0.1813
  135POPC   C1B 2110   4.418   1.044   7.765 -0.3528 -0.3274 -0.2489
  135POPC   C2B 2111   4.329   1.317   7.328 -0.1732 -0.1242 -0.3101
  135POPC   C3B 2112   3.965   1.498   7.127 -0.1371 -0.0137  0.2083
  135POPC   C4B 2113   3.550   1.672   7.018  0.1079  0.0196  0.3209
  136POPC   NC3 2114   2.361   4.450   8.540  0.1220 -0.0269  0.0315
  136POPC   PO4 2115   2.127   4.824   8.758  0.2914 -0.2643 -0.1484
  136POPC   GL1 2116   2.102   4.848   8.357 -0.1265 -0.1921 -0.2557
  136POPC   GL2 2117   2.012   5.190   8.283 -0.1991 -0.1699 -0.1069
  136POPC   C1A 2118   2.037   4.745   7.940  0.2130  0.3308  0.1217
  136POPC   D2A 2119   1.896   4.457   7.575  0.1016 -0.1110 -0.0998
  136POPC   C3A 2120   2.232   4.592   7.358  0.0230 -0.3348 -0.1151
  136POPC   C4A 2121   2.328   4.957   7.548 -0.0014  0.0553 -0.0268
  136POPC   C1B 2122   2.139   5.250   7.952 -0.0207  0.1512  0.0052
  136POPC   C2B 2123   2.569   5.372   7.763 -0.0292 -0.1202  0.1499
  136POPC   C3B 2124   2.643   5.456   7.303  0.0209 -0.1742 -0.1766
  136POPC   C4B 2125   2.505   5.664   6.904  0.1427  0.0613 -0.0413
  137POPC   NC3 2126   8.914   3.002  10.182 -0.1416 -0.4766 -0.0173
  137POPC   PO4 2127   8.443   2.946  10.234  0.0395 -0.3269 -0.1957
  137POPC   GL1 2128   8.550   2.787   9.774  0.0744  0.0679 -0.0594
  137POPC   GL2 2129   8.271   2.729   9.472 -0.2464 -0.1383  0.4102
  137POPC   C1A 2130   8.917   2.798   9.515 -0.0611 -0.0754 -0.0791
  137POPC   D2A 2131   9.066   3.079   9.356 -0.3054 -0.3278  0.4328
  137POPC   C3A 2132   9.372   3.060   9.169  0.1456 -0.1933  0.3162
  137POPC   C4A 2133   9.859   3.087   9.135  0.0968 -0.1116 -0.1167
  137POPC   C1B 2134   8.549   2.549   9.173  0.0420  0.2077 -0.1333
  137POPC   C2B 2135   8.820   2.675   8.788 -0.1398 -0.2581 -0.5078
  137POPC   C3B 2136   9.008   2.813   8.454 -0.1789  0.1137 -0.0783
  137POPC   C4B 2137   8.988   3.208   8.213  0.1027  0.0287  0.2442
  138POPC   NC3 2138   3.333   5.721   8.557 -0.0328  0.0392 -0.0781
  138POPC   PO4 2139   2.865   5.771   8.486  0.1558  0.0514  0.1366
  138POPC   GL1 2140   2.993   5.478   8.143 -0.2123 -0.0759  0.0478
  138POPC   GL2 2141   3.314   5.605   8.063  0.1069  0.0043 -0.3247
  138POPC   C1A 2142   3.039   5.362   7.674  0.2630 -0.1303 -0.1036
  138POPC   D2A 2143   3.106   5.663   7.411  0.0492  0.0359 -0.1671
  138POPC   C3A 2144   3.056   5.669   7.043 -0.0896  0.0100 -0.0341
  138POPC   C4A 2145   2.927   6.038   6.778 -0.4302  0.0466 -0.1573
  138POPC   C1B 2146   3.535   5.548   7.746  0.0470 -0.2695 -0.2363
  138POPC   C2B 2147   3.572   5.815   7.415  0.0238  0.1489 -0.1844
  138POPC   C3B 2148   3.591   5.676   7.043  0.0303 -0.2178  0.4331
  138POPC   C4B 2149   3.385   5.724   6.662 -0.3054 -0.2225 -0.0635
  139POPC   NC3 2150   1.037   1.116   9.028  0.2913 -0.2293  0.2586
  139POPC   PO4 2151   1.367   1.132   8.772  0.1024 -0.3070 -0.1390
  139POPC   GL1 2152   1.107   0.978   8.455  0.0668  0.2338 -0.1771
  139POPC   GL2 2153   1.162   0.528   8.251  0.2670 -0.2648 -0.0592
  139POPC   C1A 2154   1.000   1.022   8.039  0.1536 -0.4997 -0.1399
  139POPC   D2A 2155   0.995   1.386   7.731  0.1005  0.2113 -0.2507
  139POPC   C3A 2156   0.615   1.484   7.576 -0.0356  0.0385  0.1654
  139POPC   C4A 2157   0.243   1.679   7.395  0.2748  0.2744  0.0896
  139POPC   C1B 2158   1.206   0.332   7.857  0.0038  0.0753 -0.1059
  139POPC   C2B 2159   1.068   0.036   7.581 -0.0155 -0.1656 -0.1171
  139POPC   C3B 2160   0.882   0.049   7.170 -0.0379 -0.0527 -0.1099
  139POPC   C4B 2161   0.908  -0.040   6.765  0.0582  0.3584 -0.1539
  140POPC   NC3 2162   9.684   9.614   8.882 -0.1116  0.1208  0.0309
  140POPC   PO4 2163   9.612   9.252   9.103 -0.0877 -0.2386  0.0101
  140POPC   GL1 2164   9.559   9.236   8.606 -0.1269 -0.0526 -0.1613
  140POPC   GL2 2165   9.311   9.313   8.444 -0.1739 -0.0937 -0.0421
  140POPC   C1A 2166   9.582   8.922   8.236  0.0490 -0.2890  0.0377
  140POPC   D2A 2167   9.439   8.671   8.077  0.2982  0.0270 -0.4152
  140POPC   C3A 2168   9.597   8.504   7.723  0.1140  0.5549 -0.2888
  140POPC   C4A 2169   9.581   8.232   7.368 -0.3264 -0.3299  0.2500
  140POPC   C1B 2170   9.560   9.378   8.010 -0.0430 -0.1581  0.1773
  140POPC   C2B 2171   9.401   9.513   7.540 -0.2474  0.2421  0.1964
  140POPC   C3B 2172   9.385   9.256   7.086  0.1736  0.1719 -0.2128
  140POPC   C4B 2173   9.094   9.280   6.776 -0.1166  0.3140  0.3022
  141POPC   NC3 2174   8.971   5.543   9.291  0.0368  0.2714 -0.0215
  141POPC   PO4 2175   8.666   5.318   9.440 -0.0678 -0.0909 -0.0823
  141POPC   GL1 2176   8.678   5.153   9.018  0.0189  0.0806  0.0752
  141POPC   GL2 2177   8.422   4.923   8.980 -0.1738 -0.1108  0.1838
  141POPC   C1A 2178   9.020   4.780   8.933 -0.2315 -0.0433  0.0760
  141POPC   D2A 2179   9.066   4.320   8.660 -0.0978 -0.1185 -0.0002
  141POPC   C3A 2180   8.987   4.086   8.327  0.1104  0.0249  0.0496
  141POPC   C4A 2181   8.982   3.761   8.042  0.0110 -0.1197 -0.2474
  141POPC   C1B 2182   8.414   5.186   8.599 -0.0686  0.0393 -0.1087
  141POPC   C2B 2183   8.407   5.252   8.200 -0.1089 -0.0211  0.3337
  141POPC   C3B 2184   8.594   5.261   7.740 -0.0673 -0.0986  0.2309
  141POPC   C4B 2185   8.972   5.318   7.442  0.1408 -0.1401  0.0905
  142POPC   NC3 2186   9.723   6.295   8.902 -0.0282 -0.0948 -0.0864
  142POPC   PO4 2187   9.248   6.198   8.949 -0.3539 -0.1916 -0.2232
  142POPC   GL1 2188   9.106   6.077   8.514 -0.2725  0.1685  0.0431
  142POPC   GL2 2189   8.799   6.325   8.488 -0.0097 -0.1564  0.4515
  142POPC   C1A 2190   9.169   5.901   8.107 -0.0289 -0.2712  0.1093
  142POPC   D2A 2191   8.970   5.827   7.733  0.0362  0.1288 -0.3287
  142POPC   C3A 2192   9.040   5.891   7.332  0.0669 -0.0272 -0.0035
  142POPC   C4A 2193   9.039   5.782   6.805  0.0663  0.1243  0.1137
  142POPC   C1B 2194   8.672   6.021   8.110 -0.3848 -0.1250  0.0159
  142POPC   C2B 2195   8.501   5.750   7.677  0.0172 -0.4172 -0.0166
  142POPC   C3B 2196   8.554   5.680   7.280 -0.0731 -0.0916  0.1419
  142POPC   C4B 2197   8.707   5.414   6.974  0.1797  0.3726  0.2116
  143POPC   NC3 2198   6.836   8.529   8.875 -0.2055 -0.5410 -0.1996
  143POPC   PO4 2199   6.462   8.308   8.737 -0.1105 -0.5152 -0.0896
  143POPC   GL1 2200   6.146   8.008   8.383 -0.1296  0.0955 -0.0019
  143POPC   GL2 2201   6.358   8.090   8.122 -0.1509  0.3829  0.0038
  143POPC   C1A 2202   5.992   7.660   8.117 -0.0539  0.1136 -0.1443
  143POPC   D2A 2203   6.182   7.749   7.733 -0.1992 -0.1564 -0.2860
  143POPC   C3A 2204   6.169   7.685   7.204 -0.2180 -0.3755  0.0072
  143POPC   C4A 2205   5.886   7.818   6.946 -0.0366 -0.2816 -0.0229
  143POPC   C1B 2206   6.691   7.937   7.842 -0.1592 -0.2762  0.1230
  143POPC   C2B 2207   6.655   7.574   7.581 -0.4991 -0.1733  0.1593
  143POPC   C3B 2208   7.016   7.289   7.449 -0.1214  0.1040  0.2154
  143POPC   C4B 2209   7.062   6.997   7.069 -0.0461  0.2729  0.2370
  144POPC   NC3 2210   9.454  10.291   9.315 -0.0511  0.1967 -0.0807
  144POPC   PO4 2211   9.438  10.042   8.839 -0.0924 -0.1598 -0.0219
  144POPC   GL1 2212   9.539   9.839   8.440  0.0117  0.3143 -0.0417
  144POPC   GL2 2213   9.744   9.907   8.221  0.1654  0.0379  0.2508
  144POPC   C1A 2214   9.320   9.769   8.004 -0.1118 -0.1100 -0.0243
  144POPC   D2A 2215   9.354  10.029   7.550  0.4958 -0.1015  0.0608
  144POPC   C3A 2216   9.470  10.492   7.594  0.1463 -0.2855 -0.0484
  144POPC   C4A 2217   9.568  10.781   7.805  0.1489  0.0889  0.3664
  144POPC   C1B 2218   9.754   9.809   7.840  0.1712  0.1663  0.1200
  144POPC   C2B 2219   9.835   9.732   7.277  0.0007  0.0812 -0.1615
  144POPC   C3B 2220  10.230   9.907   7.014  0.0801  0.0217 -0.0592
  144POPC   C4B 2221  10.193  10.110   6.595  0.2083  0.3090  0.3297
  145POPC   NC3 2222   3.662   4.766   8.837  0.0109  0.0451  0.1712
  145POPC   PO4 2223   3.168   4.922   8.774  0.1623 -0.2324 -0.1057
  145POPC   GL1 2224   3.332   5.108   8.385  0.2620  0.2067 -0.2103
  145POPC   GL2 2225   3.716   5.084   8.406 -0.0494 -0.1832  0.0312
  145POPC   C1A 2226   3.418   5.112   7.939 -0.0442 -0.1218  0.3777
  145POPC   D2A 2227   3.349   4.871   7.645 -0.4197  0.0014  0.1738
  145POPC   C3A 2228   3.596   4.644   7.363  0.1890 -0.0310  0.0405
  145POPC   C4A 2229   3.852   4.849   7.051  0.0206 -0.2935 -0.3268
  145POPC   C1B 2230   3.967   4.930   8.079  0.2205 -0.1208  0.0243
  145POPC   C2B 2231   3.822   5.116   7.650 -0.0054  0.0003  0.5154
  145POPC   C3B 2232   3.444   5.268   7.319  0.2176 -0.2385 -0.3187
  145POPC   C4B 2233   3.082   5.152   7.188  0.1372 -0.1981 -0.1675
  146POPC   NC3 2234   5.718  10.127   8.973  0.0495 -0.1488 -0.0325
  146POPC   PO4 2235   5.648  10.534   8.941 -0.0014  0.2278  0.1973
  146POPC   GL1 2236   5.975  10.355   8.590  0.0035 -0.1567 -0.0971
  146POPC   GL2 2237   6.156  10.635   8.503 -0.1562 -0.1804 -0.0028
  146POPC   C1A 2238   5.931  10.375   8.179 -0.0199 -0.1441 -0.0908
  146POPC   D2A 2239   6.142  10.627   7.907 -0.2583  0.0988 -0.1210
  146POPC   C3A 2240   5.987  10.539   7.488  0.0946  0.0398 -0.0160
  146POPC   C4A 2241   5.648  10.386   7.346  0.3747 -0.1169  0.2995
  146POPC   C1B 2242   6.558  10.653   8.296  0.2814  0.1776  0.1304
  146POPC   C2B 2243   6.837  10.650   7.976  0.2617  0.1159 -0.0792
  146POPC   C3B 2244   6.949  10.706   7.578 -0.2513 -0.0307 -0.1686
  146POPC   C4B 2245   6.981  10.862   7.211  0.2702  0.0751  0.3056
  147POPC   NC3 2246   3.431   8.063   8.789  0.0534  0.1163 -0.2755
  147POPC   PO4 2247   3.514   8.482   8.762 -0.1933  0.0173 -0.0546
  147POPC   GL1 2248   3.614   8.558   8.316  0.1437  0.1539  0.0510
  147POPC   GL2 2249   3.521   8.900   8.249  0.1287 -0.3370  0.2643
  147POPC   C1A 2250   3.607   8.229   8.097 -0.2355 -0.1146 -0.1244
  147POPC   D2A 2251   3.835   7.853   7.982  0.0116  0.0695 -0.0015
  147POPC   C3A 2252   3.452   7.612   7.837 -0.1543 -0.0129 -0.1332
  147POPC   C4A 2253   3.171   7.503   7.556 -0.0622 -0.3589 -0.1423
  147POPC   C1B 2254   3.470   8.672   7.827 -0.1095 -0.0982  0.2644
  147POPC   C2B 2255   3.362   8.574   7.479 -0.3711 -0.2749  0.1373
  147POPC   C3B 2256   3.334   8.724   7.034 -0.1469 -0.1421  0.0713
  147POPC   C4B 2257   2.874   8.922   6.875  0.1043  0.1361  0.3042
  148POPC   NC3 2258   6.597   7.801   8.485  0.1583 -0.0305  0.1514
  148POPC   PO4 2259   6.934   8.160   8.478 -0.2002  0.0891  0.0135
  148POPC   GL1 2260   7.090   8.032   8.180 -0.2504  0.1676  0.3243
  148POPC   GL2 2261   6.952   8.387   7.973  0.1736 -0.3088 -0.0744
  148POPC   C1A 2262   7.393   8.081   7.820  0.1676 -0.2254  0.1149
  148POPC   D2A 2263   7.669   8.200   7.525  0.0038 -0.2505  0.1460
  148POPC   C3A 2264   7.848   7.917   7.158 -0.0419  0.3879 -0.1224
  148POPC   C4A 2265   7.975   8.016   6.761  0.1684  0.1552 -0.0404
  148POPC   C1B 2266   6.649   8.364   7.654 -0.1474  0.0608  0.3170
  148POPC   C2B 2267   6.396   8.535   7.293  0.0464 -0.3049  0.0354
  148POPC   C3B 2268   5.921   8.717   7.360 -0.1013  0.0389 -0.0953
  148POPC   C4B 2269   5.494   8.866   7.519 -0.3194  0.0022  0.1987
  149POPC   NC3 2270   2.974   3.651   8.640  0.1541  0.1361 -0.0572
  149POPC   PO4 2271   2.872   3.189   8.626 -0.1745 -0.1846  0.2496
  149POPC   GL1 2272   2.926   3.161   8.231  0.0698 -0.1486 -0.2265
  149POPC   GL2 2273   3.007   3.472   8.155 -0.0271 -0.0301 -0.1856
  149POPC   C1A 2274   2.950   2.971   7.856  0.1071 -0.0510 -0.3014
  149POPC   D2A 2275   3.098   2.734   7.624 -0.1965 -0.0177 -0.3205
  149POPC   C3A 2276   3.297   2.325   7.725  0.1229 -0.1806  0.0850
  149POPC   C4A 2277   3.506   2.033   7.903 -0.1264  0.0165 -0.1157
  149POPC   C1B 2278   3.413   3.557   7.964 -0.3124 -0.0474 -0.1034
  149POPC   C2B 2279   3.555   3.672   7.611 -0.0738  0.3829 -0.0222
  149POPC   C3B 2280   3.703   3.576   7.153 -0.0524  0.0877 -0.0122
  149POPC   C4B 2281   3.985   3.957   6.843 -0.1196 -0.1192 -0.1217
  150POPC   NC3 2282   4.580   7.482   8.704  0.0853  0.2263  0.1106
  150POPC   PO4 2283   4.182   7.330   8.733  0.0553  0.4323  0.0214
  150POPC   GL1 2284   4.233   7.182   8.225 -0.0507  0.1797 -0.0859
  150POPC   GL2 2285   4.254   6.932   8.134  0.0583 -0.1032  0.1603
  150POPC   C1A 2286   4.442   7.324   7.810  0.1020 -0.0920 -0.0953
  150POPC   D2A 2287   4.743   7.189   7.463 -0.1562 -0.3083 -0.0989
  150POPC   C3A 2288   4.518   7.096   7.133  0.0336  0.0806  0.0807
  150POPC   C4A 2289   4.464   7.235   6.640 -0.2450  0.0380 -0.3923
  150POPC   C1B 2290   4.621   6.754   7.722 -0.0582  0.2578  0.1833
  150POPC   C2B 2291   4.815   6.709   7.339  0.4019 -0.2213  0.0820
  150POPC   C3B 2292   5.027   6.895   7.033  0.3806  0.1093 -0.2761
  150POPC   C4B 2293   5.420   7.012   6.970 -0.1093 -0.3752 -0.0638
  151POPC   NC3 2294   0.332   2.534   9.739  0.1805  0.0095 -0.1163
  151POPC   PO4 2295   0.711   2.410   9.822  0.2769  0.1298  0.0860
  151POPC   GL1 2296   0.628   2.576   9.346  0.1464 -0.2963 -0.0564
  151POPC   GL2 2297   0.890   2.770   9.259  0.3986 -0.0243 -0.1398
  151POPC   C1A 2298   0.427   2.440   9.020  0.0133  0.1520 -0.0252
  151POPC   D2A 2299   0.182   2.562   8.772  0.1629 -0.3481  0.1531
  151POPC   C3A 2300  -0.235   2.380   8.694  0.2078  0.2808  0.1025
  151POPC   C4A 2301  -0.759   2.453   8.421 -0.0454 -0.1446 -0.2860
  151POPC   C1B 2302   0.790   2.812   8.771 -0.0257  0.1457 -0.0984
  151POPC   C2B 2303   0.549   2.753   8.484  0.0386  0.1420  0.1700
  151POPC   C3B 2304   0.117   2.670   8.188 -0.4051  0.0381 -0.2820
  151POPC   C4B 2305  -0.304   2.721   8.013 -0.0730 -0.1129  0.0629
  152POPC   NC3 2306   6.641   3.670   9.030 -0.0932  0.0464  0.1056
  152POPC   PO4 2307   6.914   3.486   9.366  0.2947  0.4055  0.0778
  152POPC   GL1 2308   7.061   3.295   9.070  0.1047 -0.2020  0.2561
  152POPC   GL2 2309   7.125   3.550   8.817  0.0170 -0.0373  0.0722
  152POPC   C1A 2310   7.462   3.154   8.719 -0.1704 -0.2665 -0.1654
  152POPC   D2A 2311   7.471   2.935   8.357 -0.2134 -0.2363 -0.0409
  152POPC   C3A 2312   7.299   3.122   8.023 -0.2094  0.0383  0.0296
  152POPC   C4A 2313   7.132   3.304   7.633 -0.1603 -0.3465  0.0991
  152POPC   C1B 2314   7.058   3.357   8.382  0.0367 -0.0298 -0.0308
  152POPC   C2B 2315   6.887   2.901   8.304 -0.1044  0.1847 -0.0103
  152POPC   C3B 2316   6.640   2.467   8.093  0.0976  0.1088  0.1309
  152POPC   C4B 2317   6.352   2.151   7.835 -0.2958 -0.1841  0.1344
  153POPC   NC3 2318   0.700   1.586   9.632 -0.1109 -0.3290  0.0630
  153POPC   PO4 2319   0.934   1.340   9.425  0.0132 -0.0560 -0.0456
  153POPC   GL1 2320   0.886   1.588   8.958 -0.0075 -0.0427 -0.2085
  153POPC   GL2 2321   0.991   1.426   8.603 -0.3619 -0.0844  0.4319
  153POPC   C1A 2322   0.625   1.695   8.571  0.1679 -0.3057 -0.2009
  153POPC   D2A 2323   0.231   1.616   8.394 -0.0122  0.0132 -0.1787
  153POPC   C3A 2324   0.222   1.823   7.921  0.0261  0.2428  0.2565
  153POPC   C4A 2325   0.458   2.055   7.563  0.1111  0.0780 -0.0999
  153POPC   C1B 2326   1.235   1.476   8.154  0.1431  0.3563  0.2603
  153POPC   C2B 2327   1.315   1.818   7.795  0.0357 -0.1956  0.0162
  153POPC   C3B 2328   1.344   2.126   7.479 -0.0103  0.0209  0.0319
  153POPC   C4B 2329   1.217   2.567   7.507 -0.0797 -0.1756 -0.1527
  154POPC   NC3 2330   0.126   9.827   9.078  0.2114  0.0686 -0.1344
  154POPC   PO4 2331   0.455   9.641   8.874 -0.0806 -0.5516 -0.1048
  154POPC   GL1 2332   0.500   9.701   8.452  0.1074 -0.1258 -0.0259
  154POPC   GL2 2333   0.378   9.421   8.316 -0.1230  0.3080 -0.0045
  154POPC   C1A 2334   0.632   9.829   8.120 -0.0764  0.2337  0.1726
  154POPC   D2A 2335   0.537   9.925   7.766 -0.0118 -0.0556  0.1873
  154POPC   C3A 2336   0.228   9.826   7.490 -0.1419 -0.0020 -0.0730
  154POPC   C4A 2337   0.216   9.766   7.135 -0.1581  0.3144  0.3116
  154POPC   C1B 2338   0.190   9.558   7.932  0.1120  0.0479  0.0168
  154POPC   C2B 2339  -0.101   9.317   7.719 -0.2493 -0.2028  0.1614
  154POPC   C3B 2340  -0.494   9.388   7.602 -0.0826 -0.1543  0.1895
  154POPC   C4B 2341  -0.683   9.291   7.283  0.0484  0.0219  0.2892
  155POPC   NC3 2342   1.728   8.447   8.455 -0.1901  0.1659 -0.1105
  155POPC   PO4 2343   1.605   8.123   8.530 -0.1731  0.2156 -0.0342
  155POPC   GL1 2344   1.541   8.072   8.108 -0.0372 -0.2752  0.1620
  155POPC   GL2 2345   1.780   8.405   7.969 -0.0815  0.3855 -0.1676
  155POPC   C1A 2346   1.636   7.941   7.702  0.2367  0.1326  0.0088
  155POPC   D2A 2347   1.507   8.029   7.251 -0.2898  0.2526 -0.0118
  155POPC   C3A 2348   1.060   7.781   7.049  0.1195 -0.3551  0.0717
  155POPC   C4A 2349   0.655   7.784   7.166 -0.1690  0.0914 -0.5470
  155POPC   C1B 2350   1.982   8.411   7.498  0.2242 -0.1193  0.0443
  155POPC   C2B 2351   1.953   8.755   7.156  0.0768  0.1701  0.1112
  155POPC   C3B 2352   1.648   9.129   6.956 -0.0550 -0.1365 -0.2334
  155POPC   C4B 2353   1.626   9.576   7.036 -0.3891 -0.3265  0.1267
  156POPC   NC3 2354   1.337   0.149   8.596 -0.0141 -0.3020  0.0703
  156POPC   PO4 2355   1.592   0.598   8.509 -0.2063 -0.1649  0.1690
  156POPC   GL1 2356   1.599   0.790   8.102  0.0612  0.0631 -0.1060
  156POPC   GL2 2357   1.464   1.058   8.082  0.0086  0.0004 -0.2783
  156POPC   C1A 2358   1.735   0.455   7.779  0.0318 -0.1264  0.2183
  156POPC   D2A 2359   1.972   0.117   7.475 -0.1636  0.1005 -0.1352
  156POPC   C3A 2360   1.856   0.048   7.035 -0.0361  0.0207  0.0469
  156POPC   C4A 2361   1.598  -0.143   6.722  0.1280  0.0304 -0.2083
  156POPC   C1B 2362   1.354   0.795   7.658 -0.0732  0.0558 -0.3727
  156POPC   C2B 2363   1.573   0.641   7.320 -0.1024 -0.0232  0.1161
  156POPC   C3B 2364   1.870   0.585   6.946 -0.0230  0.1922 -0.1796
  156POPC   C4B 2365   2.184   0.764   6.816  0.0894  0.0897  0.0141
  157POPC   NC3 2366   1.309   0.706   9.130 -0.0645  0.4506 -0.0205
  157POPC   PO4 2367   1.054   0.547   8.750  0.1262  0.1973 -0.0233
  157POPC   GL1 2368   0.833   0.209   8.451 -0.1447  0.0614 -0.0310
  157POPC   GL2 2369   0.665  -0.028   8.492 -0.0026  0.0268 -0.1989
  157POPC   C1A 2370   0.837   0.011   8.026  0.0761  0.0909  0.0859
  157POPC   D2A 2371   0.616  -0.033   7.697  0.0004  0.0750  0.1184
  157POPC   C3A 2372   0.368   0.068   7.370  0.0945  0.1384  0.1081
  157POPC   C4A 2373   0.084   0.323   7.123 -0.1580 -0.0913  0.0110
  157POPC   C1B 2374   0.428  -0.215   8.151 -0.2758 -0.0716  0.1436
  157POPC   C2B 2375   0.094  -0.230   7.691  0.1940  0.4626  0.0767
  157POPC   C3B 2376  -0.156  -0.099   7.364 -0.2102  0.0642 -0.1373
  157POPC   C4B 2377  -0.343  -0.069   7.006 -0.1593 -0.1004  0.0553
  158POPC   NC3 2378   4.072   9.659   8.473 -0.0952 -0.1140 -0.1140
  158POPC   PO4 2379   4.032   9.216   8.254  0.1497  0.2067 -0.0157
  158POPC   GL1 2380   3.945   8.941   7.902  0.0355  0.2395 -0.1519
  158POPC   GL2 2381   4.074   8.696   7.965  0.0650  0.0116  0.2189
  158POPC   C1A 2382   3.865   8.672   7.482  0.1885  0.0742 -0.0262
  158POPC   D2A 2383   4.038   8.624   7.132 -0.1590  0.1116 -0.1812
  158POPC   C3A 2384   4.263   9.008   7.029  0.1168 -0.1125 -0.2377
  158POPC   C4A 2385   4.477   9.424   7.113  0.1341  0.1851 -0.0779
  158POPC   C1B 2386   4.104   8.277   7.904  0.2683  0.1379 -0.1166
  158POPC   C2B 2387   4.307   8.006   7.809  0.1525 -0.0148  0.1052
  158POPC   C3B 2388   4.524   7.729   7.510 -0.0691  0.0258 -0.0007
  158POPC   C4B 2389   4.544   7.593   7.037 -0.1214 -0.0705  0.0819
  159POPC   NC3 2390   6.173   8.588   8.465  0.1714 -0.0484 -0.0832
  159POPC   PO4 2391   6.590   8.496   8.335 -0.1021 -0.1622 -0.0701
  159POPC   GL1 2392   6.592   8.721   8.030 -0.2457  0.3123 -0.4796
  159POPC   GL2 2393   6.796   8.889   7.998 -0.1372  0.3407 -0.2026
  159POPC   C1A 2394   6.251   8.812   7.733 -0.2113  0.0665  0.1381
  159POPC   D2A 2395   6.312   9.100   7.377 -0.1452  0.0771  0.1205
  159POPC   C3A 2396   6.641   9.047   7.128  0.0811 -0.1042 -0.0076
  159POPC   C4A 2397   6.741   8.910   6.744 -0.6358  0.1737 -0.2442
  159POPC   C1B 2398   6.820   8.800   7.499  0.1522 -0.0818  0.0800
  159POPC   C2B 2399   7.148   8.917   7.259  0.1590 -0.4149 -0.0067
  159POPC   C3B 2400   7.183   8.734   6.761  0.1317 -0.0730 -0.1033
  159POPC   C4B 2401   7.491   8.745   6.399 -0.2853 -0.2539 -0.1527
  160POPC   NC3 2402   4.543   3.891   9.037  0.3604 -0.4176 -0.3122
  160POPC   PO4 2403   4.428   3.675   8.648  0.1290 -0.0361  0.1519
  160POPC   GL1 2404   4.725   3.536   8.309  0.0182 -0.1603 -0.2266
  160POPC   GL2 2405   4.812   3.222   8.456  0.1554  0.0327 -0.0317
  160POPC   C1A 2406   5.106   3.436   8.110 -0.2271  0.0327 -0.0667
  160POPC   D2A 2407   5.370   3.132   8.155 -0.0016  0.0501  0.0760
  160POPC   C3A 2408   5.794   2.966   7.952  0.1945 -0.1274 -0.0164
  160POPC   C4A 2409   6.042   2.964   7.580  0.0323  0.0139  0.0400
  160POPC   C1B 2410   4.758   3.119   7.950  0.0994  0.0155  0.3603
  160POPC   C2B 2411   4.769   2.754   7.656  0.2961  0.0108 -0.2397
  160POPC   C3B 2412   4.926   2.497   7.335  0.2317  0.0774  0.0528
  160POPC   C4B 2413   4.822   2.062   7.056 -0.0607 -0.0661  0.0187
  161POPC   NC3 2414  10.361   8.940   9.081  0.2659 -0.0528 -0.1349
  161POPC   PO4 2415  10.186   9.432   8.922  0.2101  0.0602  0.2090
  161POPC   GL1 2416  10.147   9.328   8.536 -0.3420  0.0077 -0.5702
  161POPC   GL2 2417  10.006   9.418   8.321 -0.2107  0.1172 -0.3350
  161POPC   C1A 2418  10.433   9.207   8.169 -0.1681 -0.0186  0.2042
  161POPC   D2A 2419  10.498   8.786   7.948  0.0173 -0.0907  0.2037
  161POPC   C3A 2420  10.594   8.821   7.562  0.4641  0.0288 -0.1510
  161POPC   C4A 2421  10.955   8.731   7.275 -0.0554  0.0098  0.0485
  161POPC   C1B 2422  10.002   9.090   8.012  0.0739  0.0465 -0.0564
  161POPC   C2B 2423  10.016   8.891   7.657  0.2160 -0.3668  0.0202
  161POPC   C3B 2424   9.789   8.829   7.246  0.1960  0.0177  0.0915
  161POPC   C4B 2425   9.596   8.899   6.867  0.1261 -0.1536 -0.0381
  162POPC   NC3 2426   5.354   1.825   9.067 -0.0126 -0.0845 -0.2850
  162POPC   PO4 2427   5.131   2.222   8.828  0.0695  0.1982 -0.2160
  162POPC   GL1 2428   5.262   1.884   8.574 -0.0057  0.2155  0.0280
  162POPC   GL2 2429   5.042   1.686   8.455  0.2407 -0.0563  0.1362
  162POPC   C1A 2430   5.385   1.740   8.063  0.0465 -0.0422  0.0487
  162POPC   D2A 2431   5.697   1.655   7.713  0.1401  0.1343 -0.2385
  162POPC   C3A 2432   5.500   1.760   7.407 -0.0316  0.0156  0.0631
  162POPC   C4A 2433   5.421   1.593   7.055  0.0401 -0.0881 -0.1880
  162POPC   C1B 2434   4.957   1.542   7.994 -0.1202 -0.0967 -0.1112
  162POPC   C2B 2435   4.698   1.537   7.632 -0.0854  0.2928  0.2197
  162POPC   C3B 2436   4.866   1.668   7.316  0.2168  0.1625  0.1035
  162POPC   C4B 2437   4.856   1.506   6.898 -0.3495  0.0736 -0.0156
  163POPC   NC3 2438   6.006   2.408   9.454  0.1123 -0.1021 -0.0747
  163POPC   PO4 2439   5.773   2.507   9.060 -0.1657  0.2736  0.1079
  163POPC   GL1 2440   5.664   2.268   8.716  0.0407 -0.0114 -0.3144
  163POPC   GL2 2441   5.738   1.985   8.709 -0.0537 -0.2432 -0.0965
  163POPC   C1A 2442   5.396   2.283   8.287 -0.1534 -0.1398 -0.3751
  163POPC   D2A 2443   5.038   2.210   8.151 -0.1281  0.2736 -0.2010
  163POPC   C3A 2444   4.645   2.497   8.076 -0.0029  0.2820 -0.2702
  163POPC   C4A 2445   4.226   2.623   8.036  0.1902  0.2181  0.0392
  163POPC   C1B 2446   5.876   2.075   8.295 -0.0846 -0.0513 -0.1842
  163POPC   C2B 2447   5.788   2.141   7.858 -0.5026 -0.0621 -0.0516
  163POPC   C3B 2448   5.365   2.164   7.743  0.2126  0.0942 -0.1403
  163POPC   C4B 2449   5.029   2.067   7.586 -0.0360 -0.0026  0.0315
  164POPC   NC3 2450   4.915   3.588   8.813 -0.0610 -0.0181 -0.1484
  164POPC   PO4 2451   5.114   3.931   8.947  0.1018 -0.0336  0.0534
  164POPC   GL1 2452   5.310   3.861   8.496 -0.0419  0.1133 -0.1845
  164POPC   GL2 2453   5.191   3.982   8.246  0.2066 -0.3234 -0.1630
  164POPC   C1A 2454   5.535   3.654   8.177  0.1031 -0.3742  0.1528
  164POPC   D2A 2455   5.700   3.448   7.925 -0.1739  0.1492 -0.0874
  164POPC   C3A 2456   5.544   3.154   7.596 -0.0037 -0.2745  0.1992
  164POPC   C4A 2457   5.321   2.889   7.536  0.1886 -0.2016 -0.0861
  164POPC   C1B 2458   4.872   3.907   7.985  0.1517  0.1310  0.6564
  164POPC   C2B 2459   4.862   3.994   7.537 -0.1285  0.0648 -0.0811
  164POPC   C3B 2460   4.976   4.216   7.162 -0.1054 -0.3183 -0.2379
  164POPC   C4B 2461   4.819   4.551   6.942 -0.3198  0.0581 -0.1508
  165POPC   NC3 2462   9.170   9.617   8.943  0.0248 -0.1212  0.1827
  165POPC   PO4 2463   8.867   9.377   8.716  0.3507 -0.1659 -0.0981
  165POPC   GL1 2464   8.886   9.679   8.363 -0.1448  0.1327  0.0872
  165POPC   GL2 2465   8.616   9.543   8.145 -0.0814  0.0907 -0.0573
  165POPC   C1A 2466   8.952  10.006   8.139  0.0522 -0.0992  0.0122
  165POPC   D2A 2467   9.175  10.365   8.049 -0.0894  0.2070 -0.1707
  165POPC   C3A 2468   9.024  10.748   7.848 -0.0873 -0.0140  0.0022
  165POPC   C4A 2469   8.678  11.026   7.661 -0.1041 -0.1178  0.2630
  165POPC   C1B 2470   8.774   9.673   7.766 -0.0007  0.1367 -0.1401
  165POPC   C2B 2471   8.875   9.822   7.361  0.3328 -0.0194 -0.2833
  165POPC   C3B 2472   9.117  10.033   6.967  0.0979  0.0799  0.1641
  165POPC   C4B 2473   9.083  10.515   6.861  0.0054 -0.1600  0.3787
  166POPC   NC3 2474   2.326   1.289   8.366  0.2632 -0.0197  0.0026
  166POPC   PO4 2475   2.653   1.210   8.626 -0.0753 -0.1559 -0.2786
  166POPC   GL1 2476   2.767   1.224   8.167  0.2911 -0.3433  0.1813
  166POPC   GL2 2477   2.721   1.515   8.043  0.3416 -0.0453 -0.1635
  166POPC   C1A 2478   2.972   0.908   7.937  0.2288  0.0096 -0.2557
  166POPC   D2A 2479   2.893   0.692   7.568  0.0271 -0.1431  0.2398
  166POPC   C3A 2480   2.812   0.300   7.517  0.0638 -0.2147 -0.0448
  166POPC   C4A 2481   2.553   0.048   7.376  0.4366 -0.3861 -0.2797
  166POPC   C1B 2482   3.089   1.433   7.779  0.2179  0.0479 -0.0057
  166POPC   C2B 2483   3.178   1.123   7.539 -0.1011  0.1297 -0.0011
  166POPC   C3B 2484   3.161   0.933   7.177  0.0914 -0.0729 -0.1586
  166POPC   C4B 2485   2.848   0.557   7.037 -0.1187 -0.0398 -0.2636
  167POPC   NC3 2486   2.643   8.442   8.566  0.1826 -0.1937 -0.0556
  167POPC   PO4 2487   3.065   8.760   8.524  0.1539  0.3373 -0.0168
  167POPC   GL1 2488   3.057   8.679   8.137  0.1313 -0.0897  0.1124
  167POPC   GL2 2489   3.178   8.300   7.914  0.1098  0.2607 -0.0410
  167POPC   C1A 2490   2.947   8.973   7.666  0.0822 -0.2902  0.2145
  167POPC   D2A 2491   2.571   9.108   7.363 -0.0968 -0.1632 -0.0441
  167POPC   C3A 2492   2.408   9.042   7.121  0.0218 -0.0775  0.0684
  167POPC   C4A 2493   2.311   8.864   6.739 -0.0644 -0.1209  0.0484
  167POPC   C1B 2494   3.166   8.087   7.540 -0.0017 -0.0678 -0.4012
  167POPC   C2B 2495   3.189   7.959   7.080  0.3071 -0.1071  0.1287
  167POPC   C3B 2496   3.449   7.785   6.742  0.5522 -0.0035 -0.1483
  167POPC   C4B 2497   3.531   7.714   6.413  0.0337  0.1993  0.0807
  168POPC   NC3 2498   5.934   9.309   4.951 -0.0757 -0.1545 -0.1132
  168POPC   PO4 2499   6.069   9.781   5.122  0.1436  0.1447 -0.0239
  168POPC   GL1 2500   6.256   9.863   5.532 -0.0298 -0.1773 -0.1257
  168POPC   GL2 2501   5.957  10.033   5.659  0.2452  0.1838 -0.1664
  168POPC   C1A 2502   6.227   9.846   6.046 -0.0596  0.1951  0.1598
  168POPC   D2A 2503   6.119   9.689   6.482 -0.1139  0.1790  0.0077
  168POPC   C3A 2504   5.767   9.507   6.746  0.0236 -0.1811  0.2560
  168POPC   C4A 2505   5.489   9.557   7.128  0.1894 -0.1580  0.1340
  168POPC   C1B 2506   5.787  10.019   6.061 -0.1453  0.2204  0.0927
  168POPC   C2B 2507   5.599   9.791   6.330  0.1277 -0.1033 -0.2453
  168POPC   C3B 2508   5.235   9.664   6.565 -0.0935 -0.0897 -0.0891
  168POPC   C4B 2509   4.956   9.477   6.905 -0.0566  0.0220 -0.2886
  169POPC   NC3 2510   2.537   8.576   4.573  0.2645 -0.2123  0.2005
  169POPC   PO4 2511   2.463   9.031   4.592 -0.0804  0.2063 -0.2023
  169POPC   GL1 2512   2.675   8.941   5.022  0.1561  0.4847  0.2892
  169POPC   GL2 2513   2.911   9.143   5.158  0.2668  0.0917 -0.1645
  169POPC   C1A 2514   2.485   9.046   5.477 -0.2754 -0.2898  0.2337
  169POPC   D2A 2515   2.698   8.879   5.798 -0.3945  0.1523 -0.1678
  169POPC   C3A 2516   2.631   9.157   6.127 -0.1405 -0.2215  0.0561
  169POPC   C4A 2517   2.664   9.244   6.524 -0.1533 -0.0987  0.2927
  169POPC   C1B 2518   3.001   9.193   5.651  0.0925 -0.1983 -0.2650
  169POPC   C2B 2519   3.197   9.205   6.098  0.1536  0.2173  0.0338
  169POPC   C3B 2520   3.561   9.014   6.269 -0.0536  0.2847  0.1536
  169POPC   C4B 2521   3.740   8.743   6.624  0.2480  0.3163 -0.0048
  170POPC   NC3 2522   8.057   6.424   4.996 -0.0382 -0.0986  0.1516
  170POPC   PO4 2523   8.477   6.646   5.088 -0.0169 -0.0896 -0.0899
  170POPC   GL1 2524   8.832   6.771   5.340  0.0992 -0.0293  0.0247
  170POPC   GL2 2525   8.698   6.973   5.536  0.0692 -0.0349  0.0793
  170POPC   C1A 2526   9.030   6.760   5.812  0.0556  0.2599 -0.0783
  170POPC   D2A 2527   8.828   6.491   6.203 -0.0065 -0.0388  0.7209
  170POPC   C3A 2528   8.808   6.369   6.619 -0.0429 -0.3286 -0.3059
  170POPC   C4A 2529   8.694   6.124   7.005 -0.6396  0.0856 -0.6649
  170POPC   C1B 2530   8.539   7.005   5.903  0.2808 -0.1009 -0.1774
  170POPC   C2B 2531   8.685   6.954   6.333 -0.0686 -0.1249 -0.2176
  170POPC   C3B 2532   8.576   6.839   6.756 -0.0820  0.2161 -0.1561
  170POPC   C4B 2533   8.362   6.534   7.052 -0.2122 -0.0661 -0.0866
  171POPC   NC3 2534   1.773   4.245   4.345 -0.1277  0.3235  0.0443
  171POPC   PO4 2535   1.464   4.520   4.614  0.0415 -0.1163  0.0371
  171POPC   GL1 2536   1.418   4.453   5.051  0.1597  0.0000  0.4130
  171POPC   GL2 2537   1.520   4.726   5.239  0.2313 -0.0285 -0.1318
  171POPC   C1A 2538   1.682   4.341   5.471  0.2673  0.0940  0.1681
  171POPC   D2A 2539   1.933   4.101   5.485  0.0466 -0.3852  0.0887
  171POPC   C3A 2540   1.794   3.847   5.748 -0.3315  0.0486 -0.1536
  171POPC   C4A 2541   2.026   3.764   5.986 -0.0888 -0.0371 -0.7545
  171POPC   C1B 2542   1.359   4.860   5.771 -0.0775  0.1932  0.1355
  171POPC   C2B 2543   1.438   4.949   6.262 -0.0379  0.1575  0.0779
  171POPC   C3B 2544   1.293   4.915   6.734  0.0212 -0.0640 -0.1709
  171POPC   C4B 2545   1.257   4.990   7.205 -0.2229 -0.0586 -0.0951
  172POPC   NC3 2546   7.585   7.412   5.107  0.1714  0.0389  0.0941
  172POPC   PO4 2547   7.903   7.309   5.341  0.1252 -0.4031  0.0210
  172POPC   GL1 2548   8.107   7.121   5.682  0.0812  0.0418 -0.1300
  172POPC   GL2 2549   8.163   6.782   5.532  0.0145 -0.1325 -0.2442
  172POPC   C1A 2550   8.093   6.851   6.019  0.2795 -0.1680  0.0654
  172POPC   D2A 2551   8.307   6.598   6.391  0.0963 -0.3119  0.1845
  172POPC   C3A 2552   8.334   6.189   6.642 -0.4455 -0.1549  0.1701
  172POPC   C4A 2553   8.250   5.988   7.010  0.0734  0.0275  0.4532
  172POPC   C1B 2554   8.566   6.535   5.774  0.2651  0.2812  0.2120
  172POPC   C2B 2555   8.863   6.154   5.811 -0.0458  0.1929  0.0825
  172POPC   C3B 2556   9.214   5.897   5.919  0.1404  0.2328 -0.3177
  172POPC   C4B 2557   9.399   5.483   5.939 -0.1529 -0.0120 -0.4093
  173POPC   NC3 2558   3.229   3.917   4.814  0.0485 -0.1570  0.1170
  173POPC   PO4 2559   3.788   3.901   4.837  0.1989 -0.1328 -0.2547
  173POPC   GL1 2560   3.601   3.786   5.206 -0.0595 -0.1092 -0.0540
  173POPC   GL2 2561   3.304   3.918   5.377  0.1009  0.1738 -0.1789
  173POPC   C1A 2562   3.533   3.505   5.574 -0.4090  0.0314 -0.1658
  173POPC   D2A 2563   3.228   3.334   5.825  0.0141  0.1400 -0.2306
  173POPC   C3A 2564   3.479   3.136   6.192 -0.0429  0.0962 -0.2132
  173POPC   C4A 2565   3.776   2.952   6.452 -0.0874  0.1759  0.0640
  173POPC   C1B 2566   3.270   3.868   5.799  0.0580 -0.2310 -0.1727
  173POPC   C2B 2567   3.059   3.838   6.171  0.2522 -0.0423 -0.0961
  173POPC   C3B 2568   3.240   3.651   6.462 -0.1931  0.0617  0.0431
  173POPC   C4B 2569   3.320   3.701   6.897  0.0547 -0.1739 -0.0674
  174POPC   NC3 2570   8.756   5.696   4.440  0.0423 -0.0105  0.0072
  174POPC   PO4 2571   8.638   6.083   4.754 -0.3292  0.1386  0.3096
  174POPC   GL1 2572   8.381   5.979   5.138 -0.0391  0.0064  0.1555
  174POPC   GL2 2573   8.019   5.911   5.196 -0.1101 -0.2538 -0.0361
  174POPC   C1A 2574   8.366   6.110   5.519 -0.0968 -0.0417 -0.4194
  174POPC   D2A 2575   8.445   6.131   6.113 -0.1007 -0.0149  0.0433
  174POPC   C3A 2576   8.918   5.962   6.290  0.0457 -0.0951  0.3044
  174POPC   C4A 2577   9.443   5.816   6.370 -0.3743  0.3310  0.3408
  174POPC   C1B 2578   8.073   5.764   5.479  0.4086  0.1178 -0.0567
  174POPC   C2B 2579   8.260   5.720   5.941 -0.0924 -0.0446  0.1669
  174POPC   C3B 2580   8.425   5.530   6.231 -0.2533  0.0621 -0.0853
  174POPC   C4B 2581   8.538   5.739   6.615  0.3011  0.0732  0.1980
  175POPC   NC3 2582   9.792  10.029   4.089  0.2814 -0.2227 -0.0808
  175POPC   PO4 2583   9.880  10.261   4.503 -0.0331 -0.1079 -0.2293
  175POPC   GL1 2584   9.652  10.332   4.913 -0.1226 -0.0196  0.0417
  175POPC   GL2 2585   9.830  10.126   5.202 -0.0318  0.0415 -0.5691
  175POPC   C1A 2586   9.451  10.449   5.252 -0.2123 -0.1012 -0.1290
  175POPC   D2A 2587   9.235  10.506   5.617  0.1566 -0.1175 -0.1707
  175POPC   C3A 2588   9.169  10.792   5.936 -0.0780 -0.1154 -0.1220
  175POPC   C4A 2589   9.238  11.155   6.199 -0.4407 -0.3799  0.0561
  175POPC   C1B 2590  10.105  10.097   5.605  0.2719  0.1821 -0.0421
  175POPC   C2B 2591  10.232  10.234   6.075  0.0600 -0.1574 -0.0407
  175POPC   C3B 2592  10.628  10.359   6.243  0.2254 -0.3225  0.0652
  175POPC   C4B 2593  10.851  10.507   6.606 -0.1233 -0.3124  0.3912
  176POPC   NC3 2594   7.348   6.447   4.567 -0.0949  0.1359 -0.0832
  176POPC   PO4 2595   7.656   6.188   4.852  0.1215  0.0626  0.2417
  176POPC   GL1 2596   7.492   6.254   5.244 -0.0520  0.2473 -0.1554
  176POPC   GL2 2597   7.204   6.159   5.450  0.0860  0.1783 -0.0058
  176POPC   C1A 2598   7.757   6.224   5.571 -0.1847  0.0602  0.0620
  176POPC   D2A 2599   7.996   6.333   5.984 -0.0908 -0.2460  0.0031
  176POPC   C3A 2600   7.933   6.306   6.423  0.0823  0.0605 -0.0561
  176POPC   C4A 2601   7.824   5.997   6.759 -0.1497  0.3297  0.0286
  176POPC   C1B 2602   7.233   6.030   5.894 -0.1399 -0.1913  0.2782
  176POPC   C2B 2603   7.371   5.846   6.280 -0.0006 -0.3041  0.1357
  176POPC   C3B 2604   7.311   5.762   6.726 -0.0648 -0.0392 -0.0732
  176POPC   C4B 2605   7.284   5.418   7.103 -0.2223 -0.1956  0.1714
  177POPC   NC3 2606   6.712   7.376   4.766  0.1454  0.3111  0.2554
  177POPC   PO4 2607   7.197   7.674   4.947  0.2995  0.0279  0.1127
  177POPC   GL1 2608   7.207   7.648   5.419  0.1254 -0.0020 -0.1482
  177POPC   GL2 2609   7.524   7.517   5.640  0.0579 -0.1628 -0.4794
  177POPC   C1A 2610   7.058   7.707   5.885 -0.0157  0.0376  0.1040
  177POPC   D2A 2611   6.773   7.734   6.105 -0.0320  0.0429 -0.2446
  177POPC   C3A 2612   6.416   7.508   6.166 -0.1773  0.1231 -0.1671
  177POPC   C4A 2613   6.144   7.570   5.934  0.3083 -0.1828  0.0802
  177POPC   C1B 2614   7.507   7.342   6.088  0.1422 -0.1520  0.0991
  177POPC   C2B 2615   7.737   7.377   6.510 -0.2658 -0.1135  0.0877
  177POPC   C3B 2616   7.499   7.339   7.005  0.0306 -0.0027 -0.0061
  177POPC   C4B 2617   7.499   7.109   7.390 -0.1906  0.2390  0.2391
  178POPC   NC3 2618   7.259   0.249   4.948 -0.2368  0.0115 -0.2364
  178POPC   PO4 2619   7.335   0.739   4.701 -0.0560  0.0664 -0.2295
  178POPC   GL1 2620   7.335   0.668   5.210  0.1447  0.2453  0.0506
  178POPC   GL2 2621   7.351   0.877   5.436 -0.0200 -0.0207  0.2600
  178POPC   C1A 2622   7.417   0.448   5.681 -0.2984 -0.2468 -0.3083
  178POPC   D2A 2623   7.567   0.194   5.888  0.0130  0.1337 -0.0655
  178POPC   C3A 2624   7.565   0.272   6.348 -0.0129  0.0551  0.1984
  178POPC   C4A 2625   7.689   0.158   6.737  0.1752  0.1767  0.2025
  178POPC   C1B 2626   7.205   1.244   5.805  0.1513  0.1167  0.0883
  178POPC   C2B 2627   6.833   1.198   6.084 -0.1286 -0.5854  0.1837
  178POPC   C3B 2628   6.675   1.099   6.548 -0.2699 -0.1621 -0.3735
  178POPC   C4B 2629   6.375   0.980   6.900 -0.0650  0.1703  0.0093
  179POPC   NC3 2630   0.431   2.435   3.581 -0.0841  0.0576  0.2062
  179POPC   PO4 2631   0.017   2.326   3.429  0.0442  0.0062 -0.1301
  179POPC   GL1 2632  -0.226   2.335   3.793  0.1506  0.3022 -0.2723
  179POPC   GL2 2633  -0.259   2.152   3.834 -0.1044  0.3073 -0.0428
  179POPC   C1A 2634  -0.229   2.329   4.276 -0.1749  0.1916 -0.1028
  179POPC   D2A 2635  -0.281   2.181   4.614 -0.1362  0.0105  0.0936
  179POPC   C3A 2636  -0.135   2.461   4.970 -0.0366  0.0051  0.2007
  179POPC   C4A 2637   0.048   2.655   5.317  0.0806  0.0217 -0.3138
  179POPC   C1B 2638  -0.464   1.858   4.128 -0.1621 -0.0368 -0.0495
  179POPC   C2B 2639  -0.363   1.635   4.480  0.0707 -0.1384  0.2479
  179POPC   C3B 2640  -0.345   1.589   4.911 -0.1280  0.1197 -0.0162
  179POPC   C4B 2641  -0.304   1.614   5.345  0.0241 -0.2113 -0.0149
  180POPC   NC3 2642   5.767   1.038   5.280  0.1494 -0.0597 -0.2337
  180POPC   PO4 2643   5.318   1.169   5.165 -0.0366 -0.0324  0.1959
  180POPC   GL1 2644   5.382   1.088   5.601  0.2447  0.1435 -0.1652
  180POPC   GL2 2645   5.495   0.749   5.652 -0.0013  0.0740 -0.0122
  180POPC   C1A 2646   5.508   1.120   6.053 -0.0641  0.2516  0.0760
  180POPC   D2A 2647   5.590   1.217   6.430 -0.3613 -0.2397 -0.3568
  180POPC   C3A 2648   5.661   1.639   6.590  0.1893  0.0369 -0.1926
  180POPC   C4A 2649   5.953   1.870   6.772 -0.1966  0.0059 -0.0032
  180POPC   C1B 2650   5.533   0.618   6.082 -0.0719 -0.0941  0.0758
  180POPC   C2B 2651   5.692   0.564   6.552  0.3292 -0.1738 -0.0965
  180POPC   C3B 2652   5.851   0.907   6.791 -0.0557 -0.0736 -0.0871
  180POPC   C4B 2653   5.641   1.193   7.239 -0.3754 -0.1840  0.0142
  181POPC   NC3 2654   9.480   2.397   3.424 -0.0251 -0.0107 -0.1966
  181POPC   PO4 2655   9.048   2.366   3.472 -0.2017 -0.0105  0.0089
  181POPC   GL1 2656   8.788   2.533   3.870 -0.1024 -0.0785 -0.1188
  181POPC   GL2 2657   8.701   2.890   4.088  0.0426  0.1261 -0.0877
  181POPC   C1A 2658   8.698   2.363   4.298  0.1979 -0.1886 -0.1902
  181POPC   D2A 2659   8.716   2.396   4.759 -0.0094  0.0571  0.0741
  181POPC   C3A 2660   8.887   2.415   5.119 -0.2600 -0.1494 -0.1531
  181POPC   C4A 2661   9.179   2.673   5.307  0.1238 -0.2071 -0.0008
  181POPC   C1B 2662   8.919   2.791   4.503  0.0534 -0.0819 -0.0552
  181POPC   C2B 2663   8.636   2.838   4.972 -0.0508  0.2056  0.0598
  181POPC   C3B 2664   8.371   2.794   5.274  0.0141  0.4090  0.2559
  181POPC   C4B 2665   8.332   2.953   5.724 -0.0927 -0.2347 -0.0856
  182POPC   NC3 2666   6.460   5.053   4.896 -0.0177 -0.3817  0.1188
  182POPC   PO4 2667   6.194   5.005   5.190  0.0908  0.0619  0.3476
  182POPC   GL1 2668   6.321   4.786   5.479  0.0185  0.3050 -0.2860
  182POPC   GL2 2669   6.316   4.437   5.593 -0.1961 -0.0794  0.2054
  182POPC   C1A 2670   6.641   4.758   5.674 -0.1858 -0.0305  0.0534
  182POPC   D2A 2671   6.823   4.629   6.047  0.1274  0.1261 -0.0246
  182POPC   C3A 2672   6.699   4.719   6.519  0.0036 -0.0606 -0.1006
  182POPC   C4A 2673   6.409   4.598   6.838 -0.2509 -0.2735  0.0345
  182POPC   C1B 2674   6.194   4.308   5.873 -0.2478  0.0611 -0.0651
  182POPC   C2B 2675   6.152   4.012   6.117  0.0184 -0.0186 -0.3504
  182POPC   C3B 2676   6.362   3.655   6.445  0.0460 -0.0111 -0.0229
  182POPC   C4B 2677   6.348   3.269   6.565 -0.0930 -0.1014 -0.0604
  183POPC   NC3 2678   6.255   9.326   4.426 -0.0729  0.1701 -0.1139
  183POPC   PO4 2679   6.405   9.095   4.805  0.2731  0.3713 -0.3735
  183POPC   GL1 2680   6.539   9.258   5.197 -0.0587 -0.1933 -0.1122
  183POPC   GL2 2681   6.288   9.400   5.337 -0.0818 -0.1431 -0.1693
  183POPC   C1A 2682   6.685   9.092   5.600  0.3357 -0.0268 -0.1307
  183POPC   D2A 2683   6.683   8.645   5.688  0.0398 -0.1793  0.3184
  183POPC   C3A 2684   6.474   8.441   6.035 -0.1581  0.1536 -0.2367
  183POPC   C4A 2685   6.359   8.529   6.466 -0.0457 -0.0031 -0.0787
  183POPC   C1B 2686   6.183   9.348   5.765 -0.0979 -0.1525 -0.0366
  183POPC   C2B 2687   5.958   9.341   6.140 -0.1228  0.1630 -0.0664
  183POPC   C3B 2688   6.032   9.143   6.547  0.0915  0.0055  0.1996
  183POPC   C4B 2689   6.242   8.846   6.828  0.2092  0.1424 -0.1514
  184POPC   NC3 2690   5.302   8.805   4.764  0.1295  0.4212 -0.2348
  184POPC   PO4 2691   5.763   8.945   4.747  0.0532  0.0699 -0.2448
  184POPC   GL1 2692   5.607   8.846   5.190  0.3949 -0.1598  0.1810
  184POPC   GL2 2693   5.418   9.116   5.219  0.0874 -0.1670 -0.0211
  184POPC   C1A 2694   5.340   8.787   5.576  0.1059 -0.1720 -0.0981
  184POPC   D2A 2695   4.916   8.829   5.722 -0.5286  0.0274 -0.0250
  184POPC   C3A 2696   5.027   9.020   6.197  0.1592 -0.1134  0.1222
  184POPC   C4A 2697   4.989   9.248   6.435  0.2236  0.1656  0.1859
  184POPC   C1B 2698   5.349   9.253   5.662  0.2664  0.0354  0.2366
  184POPC   C2B 2699   5.485   9.273   5.964  0.5017 -0.0376 -0.0011
  184POPC   C3B 2700   5.525   9.066   6.372  0.0398 -0.2874 -0.1478
  184POPC   C4B 2701   5.328   9.122   6.838  0.1796 -0.2018 -0.0620
  185POPC   NC3 2702   3.993   6.503   4.886 -0.0729 -0.0517 -0.0019
  185POPC   PO4 2703   4.166   6.953   4.852 -0.1195  0.0010 -0.1011
  185POPC   GL1 2704   4.071   6.893   5.261 -0.2565  0.3061  0.3661
  185POPC   GL2 2705   4.311   6.607   5.311  0.1525  0.0760 -0.0664
  185POPC   C1A 2706   3.917   6.748   5.637 -0.3805  0.1545 -0.0945
  185POPC   D2A 2707   3.801   6.675   6.032 -0.2100 -0.0794  0.0325
  185POPC   C3A 2708   4.030   6.357   6.210 -0.0556  0.2365  0.2237
  185POPC   C4A 2709   4.285   6.314   6.630 -0.0626  0.0500 -0.0303
  185POPC   C1B 2710   4.516   6.584   5.682 -0.4619 -0.0105  0.0042
  185POPC   C2B 2711   4.606   6.511   6.083  0.0789 -0.0998 -0.0654
  185POPC   C3B 2712   4.736   6.303   6.437  0.1696  0.0526  0.2794
  185POPC   C4B 2713   5.087   6.238   6.819  0.3552  0.1706 -0.0446
  186POPC   NC3 2714   4.805   3.128   5.245 -0.1858  0.0688 -0.0848
  186POPC   PO4 2715   4.537   3.385   5.098  0.0091 -0.1028  0.2259
  186POPC   GL1 2716   4.536   3.523   5.526 -0.1661 -0.1163 -0.0833
  186POPC   GL2 2717   4.695   3.270   5.781  0.1447  0.0509  0.0121
  186POPC   C1A 2718   4.281   3.470   5.945 -0.1380  0.2258 -0.0130
  186POPC   D2A 2719   4.120   3.817   6.233 -0.0489 -0.0255 -0.1086
  186POPC   C3A 2720   4.413   4.146   6.478 -0.1126  0.0065  0.1898
  186POPC   C4A 2721   4.716   4.345   6.134 -0.0323 -0.1713  0.0902
  186POPC   C1B 2722   4.679   3.257   6.197  0.0618 -0.2021  0.2126
  186POPC   C2B 2723   4.994   3.392   6.539  0.1840 -0.0080  0.0327
  186POPC   C3B 2724   4.917   3.594   7.008  0.0003  0.0214  0.0695
  186POPC   C4B 2725   4.698   3.504   7.272  0.0622  0.3770 -0.4468
  187POPC   NC3 2726   7.933   1.617   3.635 -0.3326  0.0689 -0.1606
  187POPC   PO4 2727   7.650   1.473   3.865  0.2095  0.0524  0.3432
  187POPC   GL1 2728   7.875   1.290   4.190 -0.4877 -0.1268  0.2256
  187POPC   GL2 2729   8.187   1.069   4.081  0.2785  0.1040 -0.2173
  187POPC   C1A 2730   8.211   1.501   4.478  0.1043  0.1020  0.2205
  187POPC   D2A 2731   8.658   1.547   4.691  0.5077 -0.0912 -0.3272
  187POPC   C3A 2732   8.655   1.978   4.936  0.1016 -0.2461 -0.2446
  187POPC   C4A 2733   8.412   2.289   5.295  0.2081 -0.0548 -0.1855
  187POPC   C1B 2734   8.351   0.915   4.546  0.0114  0.2174 -0.0838
  187POPC   C2B 2735   8.692   0.978   4.705  0.1574 -0.0655 -0.2070
  187POPC   C3B 2736   8.818   1.116   5.027 -0.1089  0.0986 -0.2826
  187POPC   C4B 2737   8.954   1.274   5.462  0.0768 -0.0677 -0.2364
  188POPC   NC3 2738   8.039   8.087   4.505  0.1421  0.0399 -0.2855
  188POPC   PO4 2739   7.940   8.342   4.918 -0.2983 -0.0415  0.0104
  188POPC   GL1 2740   8.030   8.406   5.311  0.0325 -0.0312  0.0179
  188POPC   GL2 2741   7.771   8.421   5.502 -0.3386  0.1225  0.0037
  188POPC   C1A 2742   8.173   8.282   5.747  0.4182 -0.1460  0.2804
  188POPC   D2A 2743   8.084   8.109   6.156  0.0098 -0.0219  0.0810
  188POPC   C3A 2744   7.705   7.901   6.332 -0.2166 -0.1976 -0.0764
  188POPC   C4A 2745   7.524   7.776   6.741  0.1347 -0.0282  0.1187
  188POPC   C1B 2746   7.822   7.985   5.517  0.0976  0.0673 -0.1642
  188POPC   C2B 2747   7.906   7.688   5.903 -0.0239  0.4696  0.0829
  188POPC   C3B 2748   8.158   7.440   6.103  0.2555  0.1585  0.0303
  188POPC   C4B 2749   8.246   7.213   6.479 -0.1980 -0.1983  0.0338
  189POPC   NC3 2750   2.759  10.410   4.959 -0.1303  0.2637  0.5114
  189POPC   PO4 2751   2.935   9.909   4.933 -0.0986 -0.0336  0.1147
  189POPC   GL1 2752   2.537  10.013   5.217  0.1245 -0.0150  0.3852
  189POPC   GL2 2753   2.826   9.982   5.424  0.0165  0.1933 -0.0519
  189POPC   C1A 2754   2.195  10.187   5.339  0.1047 -0.0379 -0.0337
  189POPC   D2A 2755   1.940  10.378   5.579 -0.0754  0.1022  0.0532
  189POPC   C3A 2756   1.935  10.228   6.074  0.0001 -0.0987  0.1676
  189POPC   C4A 2757   1.840  10.105   6.416 -0.1059  0.1696 -0.2877
  189POPC   C1B 2758   2.877   9.694   5.746 -0.0420  0.0916  0.0467
  189POPC   C2B 2759   2.670   9.899   6.166  0.0848 -0.0607 -0.0596
  189POPC   C3B 2760   2.306   9.970   6.343 -0.1365  0.1251 -0.1796
  189POPC   C4B 2761   2.221  10.402   6.484  0.2339  0.1248  0.4055
  190POPC   NC3 2762   8.345   5.443   3.698 -0.0856  0.0399 -0.2845
  190POPC   PO4 2763   8.605   5.232   4.085 -0.3523  0.4022 -0.0150
  190POPC   GL1 2764   8.533   4.903   4.371  0.0875 -0.0137 -0.0774
  190POPC   GL2 2765   8.353   4.970   4.600  0.2887  0.0494  0.1114
  190POPC   C1A 2766   8.783   4.635   4.683 -0.1760  0.3999 -0.1275
  190POPC   D2A 2767   8.764   4.679   5.157 -0.2055 -0.1459  0.3032
  190POPC   C3A 2768   8.883   4.884   5.460 -0.2446  0.0475  0.1911
  190POPC   C4A 2769   8.652   5.089   5.808  0.0796 -0.0818 -0.0475
  190POPC   C1B 2770   8.320   4.654   4.892  0.3037  0.2115  0.3183
  190POPC   C2B 2771   8.308   4.756   5.269  0.0047  0.0480  0.0347
  190POPC   C3B 2772   8.198   4.703   5.672 -0.2239  0.2449 -0.0613
  190POPC   C4B 2773   7.876   4.841   5.871  0.1734  0.0835 -0.0153
  191POPC   NC3 2774   0.916   8.270   4.668 -0.1354  0.1979  0.1459
  191POPC   PO4 2775   0.651   8.353   5.050  0.1610  0.2599  0.0901
  191POPC   GL1 2776   0.606   8.681   5.381  0.0706  0.2262 -0.3287
  191POPC   GL2 2777   0.258   8.741   5.487 -0.1268 -0.3214 -0.1344
  191POPC   C1A 2778   0.844   8.593   5.705 -0.2880  0.2798  0.0839
  191POPC   D2A 2779   1.163   8.523   5.928  0.1448 -0.0822 -0.3124
  191POPC   C3A 2780   1.216   8.293   6.332 -0.1040 -0.3391 -0.2158
  191POPC   C4A 2781   1.286   8.209   6.699 -0.2809 -0.1919 -0.2635
  191POPC   C1B 2782   0.172   8.791   6.033 -0.0100  0.1449  0.0784
  191POPC   C2B 2783  -0.084   8.914   6.520  0.0841  0.5322 -0.0179
  191POPC   C3B 2784  -0.324   8.821   6.890  0.0947  0.1371 -0.1347
  191POPC   C4B 2785  -0.307   8.536   7.296 -0.0226  0.1893 -0.0855
  192POPC   NC3 2786   5.836   7.661   4.845  0.0767 -0.1574 -0.2502
  192POPC   PO4 2787   5.547   7.981   5.078  0.1841  0.2727  0.0303
  192POPC   GL1 2788   5.420   7.841   5.413  0.2076 -0.0567 -0.1132
  192POPC   GL2 2789   5.071   7.852   5.371 -0.2112  0.1205  0.0730
  192POPC   C1A 2790   5.325   7.642   5.870  0.0231 -0.0024  0.3806
  192POPC   D2A 2791   5.494   7.563   6.301 -0.0106 -0.0941 -0.0350
  192POPC   C3A 2792   5.444   7.446   6.778 -0.0645  0.0376 -0.0596
  192POPC   C4A 2793   5.704   7.317   7.208 -0.0114 -0.2971  0.0701
  192POPC   C1B 2794   4.768   7.867   5.755 -0.0704 -0.0346 -0.1189
  192POPC   C2B 2795   4.381   7.914   5.940  0.0620 -0.1723  0.2390
  192POPC   C3B 2796   3.995   7.722   5.889  0.1794  0.0402  0.3092
  192POPC   C4B 2797   3.664   7.832   5.911  0.2516 -0.0156 -0.3085
  193POPC   NC3 2798  10.471   8.531   4.648 -0.2184 -0.0091 -0.2397
  193POPC   PO4 2799  10.223   8.931   4.694 -0.0262 -0.0666  0.2960
  193POPC   GL1 2800  10.338   8.875   5.118  0.0416 -0.2176  0.2434
  193POPC   GL2 2801  10.518   9.175   5.200 -0.2644 -0.3302  0.0434
  193POPC   C1A 2802  10.215   8.775   5.612  0.1509  0.3287 -0.3222
  193POPC   D2A 2803  10.098   8.730   6.091  0.0267  0.3923  0.0167
  193POPC   C3A 2804  10.027   8.539   6.464  0.1669 -0.0027  0.0841
  193POPC   C4A 2805  10.348   8.293   6.821  0.1273 -0.2221 -0.0978
  193POPC   C1B 2806  10.115   9.282   5.434  0.0716 -0.0737 -0.0574
  193POPC   C2B 2807   9.914   9.654   5.565  0.0013 -0.0688  0.0816
  193POPC   C3B 2808   9.844   9.735   5.923  0.1324  0.1792  0.0361
  193POPC   C4B 2809  10.097   9.590   6.356 -0.1045  0.0914  0.1083
  194POPC   NC3 2810   0.885   6.456   4.342  0.1275 -0.2740 -0.2396
  194POPC   PO4 2811   0.843   6.281   4.886 -0.2537  0.0171  0.3365
  194POPC   GL1 2812   0.791   6.236   5.327  0.1082 -0.1090  0.1061
  194POPC   GL2 2813   0.494   6.413   5.413  0.1014  0.1008  0.1031
  194POPC   C1A 2814   0.772   6.047   5.775 -0.0573 -0.0532 -0.0092
  194POPC   D2A 2815   0.507   5.806   6.124 -0.1251 -0.0842  0.1297
  194POPC   C3A 2816   0.519   5.684   6.507 -0.1581 -0.5043  0.2417
  194POPC   C4A 2817   0.411   5.672   6.933  0.1973 -0.2561  0.1406
  194POPC   C1B 2818   0.292   6.239   5.757  0.0967  0.1437  0.4538
  194POPC   C2B 2819   0.095   6.368   6.137  0.1707 -0.1413  0.2032
  194POPC   C3B 2820  -0.189   6.336   6.506  0.0124  0.0952  0.0179
  194POPC   C4B 2821  -0.166   6.821   6.831 -0.1056 -0.0238  0.2487
  195POPC   NC3 2822   1.313   7.110   5.071  0.2008  0.1390  0.0953
  195POPC   PO4 2823   1.381   6.610   5.062  0.1804  0.0087  0.2191
  195POPC   GL1 2824   1.285   6.413   5.398  0.0307 -0.1303  0.0389
  195POPC   GL2 2825   1.233   6.100   5.535  0.2355  0.1928 -0.2591
  195POPC   C1A 2826   1.463   6.448   5.868  0.0912 -0.0055  0.1151
  195POPC   D2A 2827   1.584   6.331   6.324 -0.1146  0.0984  0.0515
  195POPC   C3A 2828   1.296   6.305   6.621 -0.1388 -0.0084 -0.1789
  195POPC   C4A 2829   1.347   6.361   6.996  0.0930 -0.1569 -0.0910
  195POPC   C1B 2830   1.345   5.929   6.058  0.1496 -0.1321 -0.0003
  195POPC   C2B 2831   1.437   5.852   6.511  0.3185 -0.2435  0.1367
  195POPC   C3B 2832   1.483   5.887   6.914 -0.0773 -0.1331 -0.0375
  195POPC   C4B 2833   1.498   5.808   7.363 -0.3942 -0.1135  0.1310
  196POPC   NC3 2834   0.794   9.974   4.280  0.1406 -0.1162 -0.1413
  196POPC   PO4 2835   1.073  10.384   4.295 -0.0720 -0.4171 -0.3856
  196POPC   GL1 2836   0.740  10.711   4.444 -0.0475 -0.2123  0.0972
  196POPC   GL2 2837   0.944  10.944   4.550  0.0096 -0.0485  0.0411
  196POPC   C1A 2838   0.618  10.695   4.894 -0.0827 -0.1770 -0.1684
  196POPC   D2A 2839   0.722  10.804   5.303  0.1560 -0.1352 -0.0240
  196POPC   C3A 2840   0.298  10.919   5.559 -0.1775  0.0811  0.0781
  196POPC   C4A 2841  -0.078  11.045   5.701 -0.1175 -0.0667  0.0593
  196POPC   C1B 2842   0.946  11.135   4.946  0.0138  0.2003 -0.0518
  196POPC   C2B 2843   0.969  11.239   5.377  0.2397 -0.0963 -0.1149
  196POPC   C3B 2844   0.759  11.152   5.690 -0.1148 -0.1462  0.4682
  196POPC   C4B 2845   0.629  10.899   6.175  0.1463  0.2762  0.0696
  197POPC   NC3 2846   6.996   2.830   5.079  0.0464 -0.0502 -0.1245
  197POPC   PO4 2847   6.945   2.479   5.117  0.3452  0.0982 -0.0109
  197POPC   GL1 2848   7.063   2.386   5.560  0.1198  0.0245 -0.1561
  197POPC   GL2 2849   6.979   2.047   5.418  0.1674  0.0860  0.1177
  197POPC   C1A 2850   7.389   2.318   5.902  0.0212  0.1797  0.0157
  197POPC   D2A 2851   7.700   2.456   6.109  0.5077  0.0490  0.2616
  197POPC   C3A 2852   7.723   2.706   6.412  0.1689 -0.1020  0.1528
  197POPC   C4A 2853   7.875   2.707   6.753 -0.0046 -0.1056 -0.1386
  197POPC   C1B 2854   7.446   2.073   5.514 -0.0764 -0.0432 -0.3202
  197POPC   C2B 2855   7.685   1.819   5.900 -0.0698 -0.0352 -0.0612
  197POPC   C3B 2856   7.887   1.474   6.093  0.1502 -0.1631  0.0314
  197POPC   C4B 2857   7.922   0.979   6.289  0.1037 -0.2457  0.1456
  198POPC   NC3 2858   2.067   6.019   4.467 -0.0715  0.0184 -0.1146
  198POPC   PO4 2859   1.965   5.902   4.854  0.0644  0.0902 -0.1199
  198POPC   GL1 2860   1.693   5.929   5.270 -0.1358 -0.0622  0.2764
  198POPC   GL2 2861   1.738   6.205   5.398 -0.0143  0.0431  0.1158
  198POPC   C1A 2862   1.603   5.789   5.595 -0.0948  0.4768  0.1302
  198POPC   D2A 2863   1.763   5.703   5.985  0.1078 -0.2374  0.1883
  198POPC   C3A 2864   1.907   5.956   6.298  0.1704 -0.3696  0.1229
  198POPC   C4A 2865   1.882   6.224   6.701  0.1479  0.0822  0.0888
  198POPC   C1B 2866   1.935   6.369   5.744  0.3137  0.3140 -0.0222
  198POPC   C2B 2867   1.979   6.610   6.084 -0.1285  0.0224 -0.0608
  198POPC   C3B 2868   1.731   6.861   6.165  0.3761 -0.0247  0.0922
  198POPC   C4B 2869   1.427   7.158   5.884  0.1767  0.2752 -0.2993
  199POPC   NC3 2870   1.231   0.791   4.212  0.3204 -0.1993  0.0999
  199POPC   PO4 2871   1.587   1.127   4.367  0.4022 -0.3196 -0.0094
  199POPC   GL1 2872   1.674   1.222   4.828 -0.1797 -0.1095  0.0961
  199POPC   GL2 2873   1.905   1.012   4.998  0.3347 -0.1714  0.1841
  199POPC   C1A 2874   1.510   1.374   5.243  0.1970  0.0803 -0.1847
  199POPC   D2A 2875   1.672   1.550   5.646 -0.2762 -0.2160 -0.0419
  199POPC   C3A 2876   1.453   1.797   5.889  0.2776  0.0050 -0.1571
  199POPC   C4A 2877   1.175   1.859   6.233  0.1689 -0.0195 -0.5504
  199POPC   C1B 2878   1.977   0.818   5.380  0.1553  0.2669  0.0341
  199POPC   C2B 2879   2.031   0.719   5.839  0.1730 -0.4702  0.0364
  199POPC   C3B 2880   2.164   0.787   6.247 -0.0567  0.1946 -0.2130
  199POPC   C4B 2881   2.434   1.134   6.561  0.0768  0.2541  0.1065
  200POPC   NC3 2882   9.483   5.920   4.636 -0.1763  0.0632 -0.0913
  200POPC   PO4 2883   9.196   5.675   4.669 -0.1093 -0.1477  0.1630
  200POPC   GL1 2884   9.426   5.445   5.036 -0.2663 -0.0608 -0.0780
  200POPC   GL2 2885   9.669   5.641   5.213  0.2632  0.4387  0.1810
  200POPC   C1A 2886   9.686   5.136   5.181  0.1209 -0.0236 -0.0246
  200POPC   D2A 2887  10.069   5.048   5.398  0.0754  0.4449 -0.2063
  200POPC   C3A 2888  10.033   4.646   5.581  0.0241  0.0584  0.4785
  200POPC   C4A 2889   9.661   4.368   5.678  0.0598 -0.1250  0.2083
  200POPC   C1B 2890   9.364   5.855   5.426 -0.3645 -0.0025 -0.0992
  200POPC   C2B 2891   8.896   5.805   5.406  0.1899 -0.0561 -0.1007
  200POPC   C3B 2892   8.544   5.521   5.490 -0.1050 -0.0240  0.1562
  200POPC   C4B 2893   8.238   5.201   5.567 -0.1691  0.1957  0.4127
  201POPC   NC3 2894   2.355   9.653   4.387  0.1953 -0.2250 -0.1356
  201POPC   PO4 2895   2.009   9.824   4.659  0.2090 -0.2231  0.0220
  201POPC   GL1 2896   1.653   9.927   4.934 -0.1898  0.0491 -0.2481
  201POPC   GL2 2897   1.712   9.513   5.101 -0.2083 -0.0390  0.1788
  201POPC   C1A 2898   1.731   9.980   5.303  0.4964  0.0700  0.1838
  201POPC   D2A 2899   1.720   9.833   5.734 -0.4381  0.1125  0.1539
  201POPC   C3A 2900   1.494  10.033   6.030  0.1533 -0.1671  0.3769
  201POPC   C4A 2901   1.382  10.403   6.189  0.0340 -0.2340 -0.2458
  201POPC   C1B 2902   1.442   9.557   5.468 -0.0160  0.1265  0.2459
  201POPC   C2B 2903   1.260   9.553   5.879  0.0314  0.1531 -0.2003
  201POPC   C3B 2904   1.135   9.599   6.292 -0.3159 -0.1489 -0.4160
  201POPC   C4B 2905   1.341   9.587   6.612  0.0788 -0.1126 -0.2448
  202POPC   NC3 2906   7.548   8.518   5.093 -0.0457  0.0719  0.3445
  202POPC   PO4 2907   7.159   8.560   5.387  0.2309  0.2296 -0.1119
  202POPC   GL1 2908   7.411   8.798   5.561  0.0726  0.3444 -0.0711
  202POPC   GL2 2909   7.240   9.104   5.535  0.0817  0.1548  0.3221
  202POPC   C1A 2910   7.599   8.867   5.929 -0.1985  0.0928 -0.1250
  202POPC   D2A 2911   7.936   9.141   6.068  0.0641  0.1235 -0.2707
  202POPC   C3A 2912   8.293   8.878   6.370 -0.2032 -0.0120 -0.3793
  202POPC   C4A 2913   8.443   9.211   6.632  0.0017  0.1679  0.0651
  202POPC   C1B 2914   7.126   9.034   6.021  0.3483  0.0032  0.0115
  202POPC   C2B 2915   7.095   9.219   6.532  0.0671 -0.0250 -0.0728
  202POPC   C3B 2916   7.027   9.397   6.987  0.2266  0.1367 -0.0056
  202POPC   C4B 2917   7.230   9.443   7.477 -0.1444  0.3561 -0.2106
  203POPC   NC3 2918   4.844   0.335   4.397 -0.1128 -0.0014 -0.2720
  203POPC   PO4 2919   4.594   0.154   4.787 -0.2493  0.0594  0.3062
  203POPC   GL1 2920   4.503  -0.040   5.292 -0.1098 -0.0507  0.4429
  203POPC   GL2 2921   4.590  -0.451   5.354 -0.0666  0.0062  0.2547
  203POPC   C1A 2922   4.403  -0.159   5.726 -0.1021 -0.1220 -0.1161
  203POPC   D2A 2923   4.652  -0.384   6.101 -0.0042 -0.1497  0.1152
  203POPC   C3A 2924   4.671  -0.772   6.394  0.0737 -0.0033 -0.1664
  203POPC   C4A 2925   4.421  -0.728   6.818  0.0527 -0.1211 -0.0150
  203POPC   C1B 2926   4.421  -0.775   5.660  0.1721  0.1773 -0.0445
  203POPC   C2B 2927   4.340  -0.805   6.021 -0.0020  0.1941 -0.2233
  203POPC   C3B 2928   4.159  -0.906   6.328 -0.0182 -0.1380 -0.0793
  203POPC   C4B 2929   3.902  -1.221   6.536 -0.2043  0.0494 -0.0144
  204POPC   NC3 2930   9.877   0.189   4.196  0.0236 -0.2827  0.1290
  204POPC   PO4 2931  10.295   0.356   4.243 -0.0701 -0.1000  0.0736
  204POPC   GL1 2932  10.229   0.546   4.492 -0.0288  0.0477 -0.0570
  204POPC   GL2 2933   9.896   0.684   4.459  0.0737  0.1453 -0.4463
  204POPC   C1A 2934  10.280   0.658   4.910  0.3692 -0.0775 -0.0561
  204POPC   D2A 2935  10.188   0.431   5.291 -0.0390  0.0445 -0.0768
  204POPC   C3A 2936   9.850   0.194   5.421 -0.0228  0.4339  0.0698
  204POPC   C4A 2937   9.716  -0.130   5.890 -0.2214 -0.1788  0.0024
  204POPC   C1B 2938   9.752   0.808   4.877 -0.0879 -0.0284 -0.1763
  204POPC   C2B 2939   9.774   0.804   5.313  0.1437 -0.0130  0.1300
  204POPC   C3B 2940   9.871   0.588   5.697 -0.2829 -0.2496  0.0184
  204POPC   C4B 2941   9.663   0.381   6.004 -0.1968 -0.2877 -0.4127
  205POPC   NC3 2942   4.091   3.225   4.864 -0.0373  0.1244 -0.0111
  205POPC   PO4 2943   3.756   2.851   4.874  0.1648  0.1213  0.0209
  205POPC   GL1 2944   3.646   3.038   5.242 -0.0292 -0.1014  0.1550
  205POPC   GL2 2945   3.770   3.052   5.610  0.3374  0.4910  0.1892
  205POPC   C1A 2946   3.315   3.020   5.477 -0.0249 -0.0849  0.0828
  205POPC   D2A 2947   2.859   3.062   5.689  0.0396 -0.1457 -0.2548
  205POPC   C3A 2948   2.607   2.867   6.020  0.0093 -0.0973 -0.2157
  205POPC   C4A 2949   2.451   2.641   6.337 -0.3437 -0.2583  0.2693
  205POPC   C1B 2950   3.906   3.185   6.018  0.0064  0.2398 -0.0071
  205POPC   C2B 2951   4.210   3.220   6.369 -0.0151  0.1630  0.1743
  205POPC   C3B 2952   4.599   3.137   6.729 -0.0472 -0.0715  0.2343
  205POPC   C4B 2953   4.878   3.049   7.163 -0.0152  0.2640 -0.0530
  206POPC   NC3 2954   3.545   4.985   4.291 -0.2228 -0.3064 -0.0743
  206POPC   PO4 2955   3.766   5.123   4.742  0.0065 -0.0004  0.0801
  206POPC   GL1 2956   3.424   5.079   5.063  0.1403  0.1390  0.1089
  206POPC   GL2 2957   3.155   4.809   5.054 -0.4102  0.1177  0.0062
  206POPC   C1A 2958   3.558   4.895   5.379 -0.2002  0.0582  0.0015
  206POPC   D2A 2959   3.556   4.665   5.755 -0.2104  0.0286  0.0800
  206POPC   C3A 2960   3.312   4.684   6.077 -0.1080 -0.0537  0.2922
  206POPC   C4A 2961   3.643   4.869   6.366  0.0792  0.2037 -0.2538
  206POPC   C1B 2962   3.069   4.884   5.493  0.2051  0.0401 -0.2860
  206POPC   C2B 2963   2.812   4.827   5.820 -0.0002  0.2443 -0.0762
  206POPC   C3B 2964   2.632   4.645   6.179  0.1230  0.0768 -0.0114
  206POPC   C4B 2965   2.304   4.752   6.430  0.1809  0.3356 -0.0994
  207POPC   NC3 2966   6.804   1.001   4.935  0.1011  0.2356  0.0947
  207POPC   PO4 2967   6.419   0.702   5.182 -0.6044 -0.3489  0.0734
  207POPC   GL1 2968   6.424   0.670   5.685  0.1998  0.0554  0.1885
  207POPC   GL2 2969   6.302   0.335   5.744  0.0730 -0.2308  0.0880
  207POPC   C1A 2970   6.587   0.696   6.121  0.0258  0.0791 -0.1479
  207POPC   D2A 2971   6.637   0.461   6.527  0.0628  0.0157  0.3296
  207POPC   C3A 2972   6.812   0.709   6.827 -0.0347 -0.0521 -0.3478
  207POPC   C4A 2973   6.636   0.802   7.292  0.2327  0.2714  0.0707
  207POPC   C1B 2974   6.252   0.318   6.183  0.1619  0.0711 -0.1313
  207POPC   C2B 2975   6.291   0.093   6.614 -0.3029  0.0663  0.3802
  207POPC   C3B 2976   6.188  -0.039   6.968 -0.2634  0.0966 -0.0846
  207POPC   C4B 2977   6.157  -0.382   7.295 -0.2302 -0.0859 -0.1103
  208POPC   NC3 2978   1.816   1.455   4.020  0.1721  0.1601  0.0426
  208POPC   PO4 2979   1.858   1.518   4.499  0.2217 -0.3435  0.0462
  208POPC   GL1 2980   2.044   1.605   4.808 -0.0757  0.4245 -0.1009
  208POPC   GL2 2981   2.239   1.298   4.835  0.1222 -0.0901  0.1472
  208POPC   C1A 2982   2.003   1.422   5.264  0.2224  0.0429 -0.1651
  208POPC   D2A 2983   2.052   1.220   5.631  0.0740  0.2717  0.1203
  208POPC   C3A 2984   1.889   1.256   6.028 -0.3000  0.0169  0.0001
  208POPC   C4A 2985   1.477   1.226   6.086  0.0405  0.0394  0.3233
  208POPC   C1B 2986   2.447   1.193   5.140  0.0686  0.0582  0.2937
  208POPC   C2B 2987   2.693   1.285   5.470  0.0520  0.1170 -0.1566
  208POPC   C3B 2988   2.830   1.575   5.746  0.0175  0.2348 -0.0773
  208POPC   C4B 2989   2.600   1.791   6.078 -0.1238 -0.2202  0.2177
  209POPC   NC3 2990   3.441   0.672   5.046  0.1068 -0.1144  0.4749
  209POPC   PO4 2991   3.717   0.512   5.039  0.1448 -0.0402  0.0261
  209POPC   GL1 2992   3.584   0.317   5.380  0.0754 -0.0587  0.1992
  209POPC   GL2 2993   3.302   0.451   5.539  0.0559 -0.1331  0.1412
  209POPC   C1A 2994   3.783   0.379   5.793 -0.1380 -0.0805 -0.0923
  209POPC   D2A 2995   3.737   0.540   6.191  0.1952 -0.0445  0.0500
  209POPC   C3A 2996   3.970   0.454   6.475 -0.0671  0.2185  0.0418
  209POPC   C4A 2997   4.375   0.503   6.626  0.1333  0.2418 -0.2132
  209POPC   C1B 2998   2.869   0.426   5.859 -0.0627 -0.0725  0.1441
  209POPC   C2B 2999   2.786   0.629   6.275 -0.1489 -0.0221  0.1384
  209POPC   C3B 3000   2.518   0.505   6.586 -0.0063  0.0839  0.1457
  209POPC   C4B 3001   2.473   0.210   6.899 -0.0409 -0.2091  0.1504
  210POPC   NC3 3002   9.512   5.030   4.178 -0.1797 -0.2016 -0.0306
  210POPC   PO4 3003   9.567   4.566   4.257  0.3284  0.0817  0.1609
  210POPC   GL1 3004   9.300   4.635   4.583 -0.3163 -0.0129 -0.0357
  210POPC   GL2 3005   9.269   4.971   4.651  0.0191  0.1682 -0.0542
  210POPC   C1A 3006   9.191   4.348   4.919 -0.1151  0.1017 -0.0289
  210POPC   D2A 3007   8.698   4.186   4.974  0.0101  0.1307 -0.0481
  210POPC   C3A 3008   8.482   4.331   5.371 -0.0189  0.2887  0.1380
  210POPC   C4A 3009   8.203   4.190   5.564 -0.0791 -0.0148  0.0651
  210POPC   C1B 3010   9.216   4.947   5.021  0.0787 -0.2009 -0.0157
  210POPC   C2B 3011   9.438   4.714   5.455 -0.2870  0.0515  0.3891
  210POPC   C3B 3012   9.603   4.945   5.777  0.4204 -0.0009  0.2087
  210POPC   C4B 3013   9.968   5.040   5.898  0.3430  0.2088 -0.0267
  211POPC   NC3 3014   0.669   5.651   4.377  0.2630  0.0627 -0.2811
  211POPC   PO4 3015   0.506   6.130   4.530  0.2527  0.0850  0.3551
  211POPC   GL1 3016   0.371   6.068   5.026 -0.2186 -0.3341  0.0634
  211POPC   GL2 3017   0.116   6.238   5.208 -0.1470  0.0565 -0.2446
  211POPC   C1A 3018   0.446   5.864   5.472  0.0784 -0.1771 -0.0628
  211POPC   D2A 3019   0.342   5.507   5.718 -0.0051 -0.0971  0.2526
  211POPC   C3A 3020   0.669   5.328   5.943  0.0432 -0.5417  0.0331
  211POPC   C4A 3021   0.863   4.934   6.113  0.1123  0.0848  0.1432
  211POPC   C1B 3022  -0.058   5.986   5.513 -0.1969 -0.1012 -0.1303
  211POPC   C2B 3023  -0.049   5.930   5.982  0.2475 -0.0054  0.3138
  211POPC   C3B 3024  -0.006   5.780   6.370 -0.2062  0.3950 -0.1721
  211POPC   C4B 3025  -0.063   5.559   6.837 -0.0445  0.0331  0.1189
  212POPC   NC3 3026   7.326   2.134   4.392 -0.0046 -0.0924  0.1857
  212POPC   PO4 3027   7.165   2.432   4.680 -0.2702  0.0503  0.3317
  212POPC   GL1 3028   7.326   2.207   4.971 -0.0696  0.1044  0.0006
  212POPC   GL2 3029   7.413   2.481   5.226 -0.3417 -0.0992 -0.2208
  212POPC   C1A 3030   7.607   1.802   5.108 -0.1582 -0.1298  0.0684
  212POPC   D2A 3031   7.838   1.777   5.459  0.0339 -0.1614 -0.2283
  212POPC   C3A 3032   8.095   1.401   5.530  0.2748 -0.0035  0.7538
  212POPC   C4A 3033   8.303   1.507   5.878 -0.0790 -0.0716 -0.0194
  212POPC   C1B 3034   7.444   2.701   5.664 -0.0634 -0.0158 -0.1206
  212POPC   C2B 3035   7.342   2.980   6.042 -0.4367  0.3638  0.3069
  212POPC   C3B 3036   7.292   3.346   6.186 -0.0129  0.0406 -0.1492
  212POPC   C4B 3037   7.630   3.614   6.514 -0.1535 -0.2482  0.0222
  213POPC   NC3 3038   8.176   4.470   3.665  0.0983  0.3744 -0.2050
  213POPC   PO4 3039   8.450   4.556   3.981 -0.2389 -0.0756  0.1704
  213POPC   GL1 3040   8.713   4.302   4.268  0.0509 -0.1155  0.0051
  213POPC   GL2 3041   8.517   4.036   4.452  0.1837 -0.1406  0.3345
  213POPC   C1A 3042   9.000   4.119   4.510  0.2911 -0.5706 -0.2832
  213POPC   D2A 3043   9.082   3.821   4.921  0.0575 -0.3175  0.0701
  213POPC   C3A 3044   9.026   3.969   5.300  0.0379 -0.2579  0.0190
  213POPC   C4A 3045   8.962   4.355   5.485 -0.2463 -0.1062  0.0236
  213POPC   C1B 3046   8.617   3.698   4.747 -0.0681  0.2757 -0.1045
  213POPC   C2B 3047   8.794   3.447   5.094 -0.2646 -0.0296 -0.0222
  213POPC   C3B 3048   9.104   3.593   5.593 -0.1022 -0.3428 -0.0730
  213POPC   C4B 3049   9.437   3.957   5.622 -0.1572 -0.1538 -0.2023
  214POPC   NC3 3050   6.997   6.555   5.141 -0.0533  0.1393  0.1768
  214POPC   PO4 3051   7.355   6.671   5.036  0.2320  0.0779 -0.0386
  214POPC   GL1 3052   7.466   7.000   5.359 -0.1195 -0.2388 -0.2950
  214POPC   GL2 3053   7.634   6.979   5.575 -0.0719  0.1468 -0.2189
  214POPC   C1A 3054   7.165   7.240   5.695  0.4365 -0.0808 -0.0086
  214POPC   D2A 3055   7.020   7.286   6.184  0.0668  0.1774  0.1394
  214POPC   C3A 3056   6.992   7.532   6.592 -0.2803 -0.2235  0.1661
  214POPC   C4A 3057   6.786   7.887   6.794  0.1607 -0.0966 -0.1363
  214POPC   C1B 3058   7.570   6.880   5.972  0.1032  0.0567  0.2782
  214POPC   C2B 3059   7.721   6.902   6.368 -0.0555 -0.1120 -0.0093
  214POPC   C3B 3060   8.008   6.889   6.767 -0.1740 -0.2060  0.2114
  214POPC   C4B 3061   7.945   7.117   7.106 -0.2033  0.0863 -0.1436
  215POPC   NC3 3062   1.822   2.895   4.627 -0.0053 -0.1558  0.0834
  215POPC   PO4 3063   2.015   3.297   4.650 -0.1463  0.0152 -0.0298
  215POPC   GL1 3064   1.711   3.307   4.975 -0.0553 -0.0469 -0.1922
  215POPC   GL2 3065   1.960   3.115   5.135  0.3162 -0.0894 -0.1344
  215POPC   C1A 3066   1.504   3.482   5.389 -0.1328  0.1731  0.1395
  215POPC   D2A 3067   1.164   3.522   5.671 -0.2594  0.2690 -0.0867
  215POPC   C3A 3068   1.378   3.633   6.041 -0.0144  0.0724 -0.0185
  215POPC   C4A 3069   1.622   3.927   6.258 -0.3517 -0.0567 -0.1553
  215POPC   C1B 3070   1.695   2.988   5.353  0.1098 -0.0232 -0.1138
  215POPC   C2B 3071   1.467   2.885   5.707 -0.1898  0.0208  0.0166
  215POPC   C3B 3072   1.183   3.067   6.017  0.1706  0.0090 -0.2352
  215POPC   C4B 3073   0.858   3.460   6.188  0.3074 -0.1075 -0.0306
  216POPC   NC3 3074   3.588   0.964   4.620 -0.1075 -0.1315  0.1040
  216POPC   PO4 3075   3.302   1.372   4.600  0.2539 -0.0384  0.1170
  216POPC   GL1 3076   3.271   1.192   4.995 -0.1031 -0.0424 -0.0189
  216POPC   GL2 3077   2.902   1.405   5.036  0.1835  0.4788 -0.2014
  216POPC   C1A 3078   3.136   1.004   5.429  0.3059  0.2993  0.0406
  216POPC   D2A 3079   2.964   1.007   5.785 -0.1685 -0.0851  0.0774
  216POPC   C3A 3080   2.893   1.142   6.202 -0.0229 -0.0814  0.1132
  216POPC   C4A 3081   2.765   1.560   6.470 -0.3447 -0.0388  0.1194
  216POPC   C1B 3082   3.190   1.667   5.244 -0.1094  0.1203 -0.2883
  216POPC   C2B 3083   3.277   1.499   5.590 -0.1969 -0.0032  0.3218
  216POPC   C3B 3084   3.272   1.375   6.028  0.2697  0.1446  0.1625
  216POPC   C4B 3085   3.590   1.273   6.189  0.0046 -0.0515 -0.1958
  217POPC   NC3 3086   4.350   0.639   5.195 -0.0916 -0.1685 -0.4025
  217POPC   PO4 3087   3.953   0.937   5.094 -0.3151 -0.0148  0.2073
  217POPC   GL1 3088   3.953   0.837   5.481  0.0049 -0.1011 -0.2284
  217POPC   GL2 3089   3.594   0.853   5.498  0.0296  0.2117 -0.1254
  217POPC   C1A 3090   4.071   0.803   5.945 -0.2281  0.0954 -0.2361
  217POPC   D2A 3091   4.169   0.889   6.372  0.2557 -0.0321 -0.1420
  217POPC   C3A 3092   3.782   0.910   6.605  0.1350  0.1133  0.0229
  217POPC   C4A 3093   3.442   1.082   6.843 -0.2520  0.3136 -0.1911
  217POPC   C1B 3094   3.477   0.901   5.869 -0.0002 -0.2496  0.1497
  217POPC   C2B 3095   3.309   0.876   6.264 -0.0278 -0.1163 -0.1739
  217POPC   C3B 3096   3.381   0.566   6.671 -0.0027 -0.0696 -0.0399
  217POPC   C4B 3097   3.527   0.255   6.817 -0.0276  0.1243  0.1267
  218POPC   NC3 3098   2.321   2.117   4.587  0.1948 -0.1264  0.3753
  218POPC   PO4 3099   2.511   1.725   4.671 -0.2052  0.2140  0.0855
  218POPC   GL1 3100   2.434   1.758   5.127  0.1089  0.1541 -0.0370
  218POPC   GL2 3101   2.668   1.898   5.268  0.1914  0.0142 -0.4059
  218POPC   C1A 3102   2.351   1.644   5.562  0.3712  0.1419  0.0279
  218POPC   D2A 3103   2.148   1.721   5.888  0.0577 -0.1835  0.0214
  218POPC   C3A 3104   2.150   2.032   6.156  0.1132 -0.0210  0.3044
  218POPC   C4A 3105   2.494   2.184   6.467 -0.0612  0.2272  0.0122
  218POPC   C1B 3106   2.378   2.148   5.511  0.0077 -0.0800  0.0731
  218POPC   C2B 3107   2.310   2.465   5.895  0.1089  0.2928 -0.4200
  218POPC   C3B 3108   1.987   2.536   6.210  0.2612  0.2492  0.0225
  218POPC   C4B 3109   1.580   2.845   6.250 -0.1689 -0.0464 -0.0287
  219POPC   NC3 3110   4.837   5.393   4.331 -0.1895 -0.3950 -0.2068
  219POPC   PO4 3111   4.533   5.132   4.566 -0.2941 -0.2769 -0.0418
  219POPC   GL1 3112   4.530   5.141   5.020 -0.0178 -0.0167  0.0495
  219POPC   GL2 3113   4.822   5.418   5.198 -0.1534 -0.2303 -0.0078
  219POPC   C1A 3114   4.293   5.285   5.396  0.2042 -0.0620 -0.1375
  219POPC   D2A 3115   4.509   5.107   5.713  0.1171  0.1422  0.0498
  219POPC   C3A 3116   4.377   4.718   5.951  0.2696 -0.0532 -0.2425
  219POPC   C4A 3117   4.283   4.604   6.416  0.0517  0.0686  0.0788
  219POPC   C1B 3118   4.637   5.604   5.603 -0.2234 -0.2278  0.3972
  219POPC   C2B 3119   4.475   5.529   5.941 -0.0976  0.3955  0.2630
  219POPC   C3B 3120   4.481   5.270   6.274 -0.2056 -0.3116  0.0608
  219POPC   C4B 3121   4.808   5.189   6.617  0.1882 -0.4014  0.0811
  220POPC   NC3 3122   1.797   8.009   4.633 -0.0992 -0.0610 -0.0006
  220POPC   PO4 3123   1.596   8.323   4.839  0.2828 -0.1919  0.2894
  220POPC   GL1 3124   1.570   8.128   5.224 -0.2845 -0.0237 -0.1042
  220POPC   GL2 3125   1.760   7.945   5.342  0.0340  0.3640  0.0368
  220POPC   C1A 3126   1.136   8.229   5.448 -0.0184  0.0149  0.0773
  220POPC   D2A 3127   0.836   7.894   5.651  0.2278  0.1730  0.0243
  220POPC   C3A 3128   0.690   7.814   6.052  0.1615  0.1168  0.2148
  220POPC   C4A 3129   0.650   7.491   6.376  0.2284  0.1855 -0.0516
  220POPC   C1B 3130   1.729   7.798   5.766 -0.1152 -0.2823 -0.1728
  220POPC   C2B 3131   1.821   7.651   6.098 -0.0692  0.0484  0.2040
  220POPC   C3B 3132   1.564   7.359   6.369  0.0440  0.0761  0.2067
  220POPC   C4B 3133   1.319   7.237   6.626  0.0989  0.1318  0.0981
  221POPC   NC3 3134   3.775   8.640   4.751 -0.3799  0.0550  0.3109
  221POPC   PO4 3135   3.585   8.959   4.543  0.1434 -0.0925  0.1877
  221POPC   GL1 3136   3.261   8.934   4.860 -0.1541 -0.2521  0.0115
  221POPC   GL2 3137   3.087   8.626   4.866  0.0200  0.1322 -0.1951
  221POPC   C1A 3138   3.278   8.906   5.374 -0.2538  0.0760  0.2019
  221POPC   D2A 3139   3.476   8.868   5.800 -0.1251 -0.1416  0.2171
  221POPC   C3A 3140   3.223   8.670   6.062  0.1833 -0.0520  0.1575
  221POPC   C4A 3141   2.927   8.351   6.168 -0.1510  0.1833  0.2641
  221POPC   C1B 3142   2.961   8.559   5.284  0.1611  0.0147  0.1064
  221POPC   C2B 3143   3.019   8.544   5.652 -0.0270 -0.0080 -0.0564
  221POPC   C3B 3144   3.434   8.405   5.699  0.1647  0.0080  0.1470
  221POPC   C4B 3145   3.807   8.522   5.443 -0.0707 -0.1509 -0.2040
  222POPC   NC3 3146   0.683   4.878   4.637 -0.3409 -0.0241 -0.5239
  222POPC   PO4 3147   0.384   5.185   4.503  0.0778 -0.2143  0.2919
  222POPC   GL1 3148   0.547   5.317   4.975  0.3372 -0.1541 -0.4293
  222POPC   GL2 3149   0.504   5.002   5.169  0.1625 -0.0050  0.0490
  222POPC   C1A 3150   0.692   5.378   5.433 -0.2827 -0.0496 -0.2689
  222POPC   D2A 3151   1.048   5.536   5.664 -0.2056  0.1273 -0.0343
  222POPC   C3A 3152   1.242   5.333   5.993 -0.2242 -0.0829 -0.0430
  222POPC   C4A 3153   1.517   5.446   6.338 -0.1274  0.6948  0.3537
  222POPC   C1B 3154   0.528   4.813   5.615 -0.1905  0.1326  0.1057
  222POPC   C2B 3155   0.476   4.661   5.976  0.2771  0.2869 -0.1644
  222POPC   C3B 3156   0.545   4.340   6.273  0.0746  0.3449 -0.0071
  222POPC   C4B 3157   0.703   4.074   6.544  0.0051  0.2371 -0.1351
  223POPC   NC3 3158   9.161   4.355   3.949  0.2689  0.1051  0.1545
  223POPC   PO4 3159   9.229   3.960   3.629  0.1284  0.0031 -0.0585
  223POPC   GL1 3160   9.427   3.772   3.982  0.0568 -0.0673  0.4016
  223POPC   GL2 3161   9.517   3.364   4.041  0.2097 -0.0257  0.2399
  223POPC   C1A 3162   9.654   3.884   4.267 -0.1373  0.1489 -0.0038
  223POPC   D2A 3163   9.581   4.188   4.626  0.0926 -0.2391  0.5554
  223POPC   C3A 3164   9.578   4.044   5.063 -0.1641  0.3767  0.0791
  223POPC   C4A 3165   9.783   3.813   5.294 -0.1736  0.1174  0.0806
  223POPC   C1B 3166   9.705   3.252   4.451 -0.0174  0.0287 -0.1085
  223POPC   C2B 3167   9.856   3.149   4.828 -0.2214  0.4742 -0.1883
  223POPC   C3B 3168   9.917   3.351   5.234 -0.0537  0.1628  0.3002
  223POPC   C4B 3169  10.193   3.689   5.472 -0.1853  0.0497 -0.0407
  224POPC   NC3 3170   0.097   1.475   3.400 -0.2794 -0.2102  0.0028
  224POPC   PO4 3171   0.244   1.903   3.494 -0.1010  0.1986 -0.0442
  224POPC   GL1 3172   0.255   2.135   3.917  0.2903  0.2108  0.1504
  224POPC   GL2 3173   0.240   2.418   4.168  0.0880  0.0742 -0.0323
  224POPC   C1A 3174   0.034   1.918   4.216  0.1594 -0.0562 -0.2562
  224POPC   D2A 3175   0.125   1.739   4.579  0.0836  0.0644  0.0639
  224POPC   C3A 3176   0.064   1.921   4.946  0.0421 -0.2289 -0.0269
  224POPC   C4A 3177  -0.072   2.097   5.366  0.0665 -0.1059  0.1149
  224POPC   C1B 3178   0.261   2.332   4.549  0.0465 -0.0156 -0.0274
  224POPC   C2B 3179   0.443   2.580   4.904 -0.1959  0.1614  0.1336
  224POPC   C3B 3180   0.500   2.397   5.338 -0.1679 -0.2095  0.2317
  224POPC   C4B 3181   0.259   2.226   5.703 -0.0459 -0.0333 -0.1024
  225POPC   NC3 3182   6.359   0.235   5.248 -0.1422  0.1145 -0.0473
  225POPC   PO4 3183   5.973  -0.036   5.292 -0.2353  0.1063 -0.0367
  225POPC   GL1 3184   6.373  -0.123   5.577  0.3277  0.0480  0.0180
  225POPC   GL2 3185   6.757  -0.215   5.497 -0.0074 -0.0233 -0.1116
  225POPC   C1A 3186   6.392  -0.113   6.019  0.2112 -0.1878  0.1926
  225POPC   D2A 3187   6.382  -0.363   6.410 -0.3540 -0.1500 -0.3147
  225POPC   C3A 3188   6.768  -0.417   6.707 -0.2477  0.0331 -0.1962
  225POPC   C4A 3189   7.036  -0.683   6.599  0.2283  0.0858  0.1974
  225POPC   C1B 3190   7.113  -0.153   5.785  0.0734 -0.1385  0.1094
  225POPC   C2B 3191   7.318  -0.188   6.141  0.0177  0.0197  0.1382
  225POPC   C3B 3192   7.403  -0.296   6.566  0.3454  0.0722 -0.1933
  225POPC   C4B 3193   7.326  -0.471   6.927 -0.3954 -0.0917 -0.1628
  226POPC   NC3 3194   1.508   5.458   4.858  0.0887  0.0107  0.2701
  226POPC   PO4 3195   1.092   5.429   4.785  0.0184 -0.1287  0.0500
  226POPC   GL1 3196   1.023   5.250   5.125 -0.2371  0.0302  0.0529
  226POPC   GL2 3197   1.289   5.149   5.226  0.0436 -0.1435  0.0191
  226POPC   C1A 3198   0.983   4.774   5.416  0.0766 -0.3813  0.2537
  226POPC   D2A 3199   1.158   4.426   5.576  0.1859  0.0057  0.1806
  226POPC   C3A 3200   1.005   4.419   5.999  0.2242 -0.0387 -0.1564
  226POPC   C4A 3201   0.999   4.492   6.495 -0.4696  0.2708  0.2844
  226POPC   C1B 3202   1.549   5.261   5.599  0.0735 -0.1119 -0.1250
  226POPC   C2B 3203   1.813   5.162   5.974 -0.0675  0.2436  0.0134
  226POPC   C3B 3204   2.005   5.182   6.362  0.0912 -0.1790  0.1484
  226POPC   C4B 3205   2.238   5.248   6.626 -0.3087 -0.0494 -0.0477
  227POPC   NC3 3206   3.469   6.664   4.800 -0.0680  0.1390  0.0560
  227POPC   PO4 3207   3.690   7.073   4.881  0.0349 -0.3740 -0.0000
  227POPC   GL1 3208   3.618   7.100   5.397 -0.0475  0.1387  0.0244
  227POPC   GL2 3209   3.744   7.440   5.511 -0.1780  0.0302 -0.2501
  227POPC   C1A 3210   3.429   6.978   5.804  0.0956  0.0303 -0.1376
  227POPC   D2A 3211   3.331   6.792   6.075 -0.0262 -0.0011 -0.1130
  227POPC   C3A 3212   2.925   6.918   6.185 -0.0237  0.2917  0.3057
  227POPC   C4A 3213   2.839   7.419   6.135 -0.4164 -0.1003  0.0048
  227POPC   C1B 3214   3.691   7.372   5.936  0.2128  0.2513  0.2166
  227POPC   C2B 3215   3.340   7.300   6.143 -0.2596  0.4411 -0.1557
  227POPC   C3B 3216   3.140   7.352   6.540  0.3815  0.4947  0.1050
  227POPC   C4B 3217   2.912   7.676   6.715  0.0306  0.0368 -0.1667
  228POPC   NC3 3218   7.879   8.833   4.819  0.0504  0.0840 -0.0457
  228POPC   PO4 3219   7.635   9.015   5.208 -0.1867  0.1026  0.2909
  228POPC   GL1 3220   7.753   9.321   5.443  0.0944 -0.2165  0.0561
  228POPC   GL2 3221   7.472   9.566   5.481 -0.1020  0.0275  0.1349
  228POPC   C1A 3222   8.177   9.345   5.664  0.3158  0.1384  0.0485
  228POPC   D2A 3223   8.340   9.601   5.954  0.0723 -0.3169  0.0010
  228POPC   C3A 3224   8.684   9.428   6.195 -0.2329  0.1895 -0.3023
  228POPC   C4A 3225   9.165   9.308   6.252  0.3854  0.2974 -0.0100
  228POPC   C1B 3226   7.466   9.337   5.872 -0.0460 -0.0314  0.2669
  228POPC   C2B 3227   7.524   9.262   6.277  0.0370 -0.2240 -0.1938
  228POPC   C3B 3228   7.871   9.008   6.616  0.2434 -0.1868  0.1302
  228POPC   C4B 3229   8.148   9.026   6.974 -0.1289  0.0975 -0.1827
  229POPC   NC3 3230   5.293   2.357   5.334 -0.2047  0.2989  0.1153
  229POPC   PO4 3231   4.947   2.190   5.525  0.1267 -0.0236  0.2317
  229POPC   GL1 3232   5.179   2.379   5.844 -0.1960 -0.1912 -0.0426
  229POPC   GL2 3233   5.497   2.401   5.964  0.2079 -0.1491 -0.1841
  229POPC   C1A 3234   5.145   2.505   6.273  0.0511 -0.0758 -0.2207
  229POPC   D2A 3235   5.032   2.888   6.527 -0.1954 -0.2004  0.0490
  229POPC   C3A 3236   5.231   3.108   6.846  0.0367 -0.1568 -0.1087
  229POPC   C4A 3237   5.319   3.317   7.164  0.0939 -0.1030  0.3187
  229POPC   C1B 3238   5.861   2.619   6.091 -0.2600 -0.0230 -0.1806
  229POPC   C2B 3239   6.053   2.643   6.481  0.0223 -0.1640  0.1866
  229POPC   C3B 3240   6.345   2.737   6.822  0.1558  0.1340 -0.2251
  229POPC   C4B 3241   6.451   2.873   7.246  0.0808  0.3209  0.2069
  230POPC   NC3 3242   9.018   9.720   4.232 -0.0220 -0.1109 -0.1352
  230POPC   PO4 3243   8.804   9.902   4.582 -0.1453  0.0876  0.3501
  230POPC   GL1 3244   8.720   9.876   5.009  0.1477  0.4162  0.0691
  230POPC   GL2 3245   8.463   9.846   5.208  0.2363  0.0320  0.3680
  230POPC   C1A 3246   8.802  10.173   5.351 -0.2768 -0.0453  0.2468
  230POPC   D2A 3247   8.795  10.180   5.838 -0.0504 -0.1201  0.1919
  230POPC   C3A 3248   9.191  10.275   6.062 -0.1063 -0.0523  0.1825
  230POPC   C4A 3249   9.268  10.201   6.473  0.0118 -0.0153  0.0171
  230POPC   C1B 3250   8.337   9.984   5.610 -0.1554 -0.1317  0.2477
  230POPC   C2B 3251   8.245  10.049   6.070 -0.3261 -0.0009 -0.1566
  230POPC   C3B 3252   8.334   9.930   6.481  0.4169 -0.2106 -0.0368
  230POPC   C4B 3253   8.360  10.017   6.983 -0.1329  0.2238 -0.2072
  231POPC   NC3 3254   4.975   0.508   4.898 -0.0535  0.0095 -0.3645
  231POPC   PO4 3255   4.772   0.385   5.250 -0.2569 -0.0225  0.0733
  231POPC   GL1 3256   4.670   0.547   5.701 -0.3338 -0.4078  0.2794
  231POPC   GL2 3257   4.488   0.824   5.622  0.1577  0.2794  0.2024
  231POPC   C1A 3258   4.606   0.664   6.185  0.0820  0.0257  0.5828
  231POPC   D2A 3259   4.703   0.847   6.527 -0.1147  0.1789  0.1201
  231POPC   C3A 3260   5.034   0.944   6.750  0.1743 -0.4244 -0.0425
  231POPC   C4A 3261   5.355   1.116   6.835 -0.3156  0.3009  0.1278
  231POPC   C1B 3262   5.033   0.815   5.853  0.1835  0.1171 -0.2050
  231POPC   C2B 3263   5.133   0.763   6.286  0.2581  0.4006  0.2411
  231POPC   C3B 3264   5.199   0.439   6.677  0.0693 -0.0008 -0.2597
  231POPC   C4B 3265   5.334   0.583   7.034 -0.0568 -0.5232  0.2398
  232POPC   NC3 3266   4.141   4.261   4.453 -0.1091  0.2961 -0.1398
  232POPC   PO4 3267   4.249   4.137   4.741 -0.1478  0.2855 -0.0943
  232POPC   GL1 3268   4.289   4.305   5.201 -0.0732 -0.1940 -0.0031
  232POPC   GL2 3269   4.157   3.972   5.332  0.0920 -0.0938 -0.3244
  232POPC   C1A 3270   4.044   4.522   5.477 -0.1121 -0.0662 -0.5813
  232POPC   D2A 3271   3.992   4.903   5.671  0.4369 -0.0897  0.2271
  232POPC   C3A 3272   4.051   5.116   6.040  0.2080  0.3664 -0.2705
  232POPC   C4A 3273   4.064   5.458   6.423 -0.0095 -0.2259  0.1254
  232POPC   C1B 3274   4.005   3.807   5.686  0.1771  0.0900  0.1595
  232POPC   C2B 3275   3.674   3.671   6.010  0.1696  0.0369 -0.3011
  232POPC   C3B 3276   3.720   3.544   6.429  0.3015 -0.2261  0.3810
  232POPC   C4B 3277   3.586   3.316   6.746  0.0643 -0.0928 -0.1485
  233POPC   NC3 3278   2.185   8.044   4.990  0.1380  0.1854  0.2191
  233POPC   PO4 3279   2.080   7.687   4.833 -0.2201 -0.1091 -0.0262
  233POPC   GL1 3280   2.143   7.459   5.169 -0.1800  0.1775  0.0393
  233POPC   GL2 3281   2.359   7.713   5.318  0.1718 -0.0802 -0.1051
  233POPC   C1A 3282   2.184   7.364   5.642  0.4582 -0.0520 -0.0691
  233POPC   D2A 3283   2.046   7.093   5.905  0.0414 -0.2965 -0.0412
  233POPC   C3A 3284   2.159   7.016   6.347  0.0430  0.0276  0.0317
  233POPC   C4A 3285   2.562   7.113   6.492 -0.2623 -0.0299 -0.1586
  233POPC   C1B 3286   2.276   7.863   5.638 -0.2929 -0.0425 -0.0978
  233POPC   C2B 3287   2.156   8.089   6.055  0.2752 -0.1591 -0.1547
  233POPC   C3B 3288   1.926   8.517   6.222  0.2548  0.2352 -0.0172
  233POPC   C4B 3289   1.561   8.694   6.410 -0.2551  0.1246 -0.0126
  234POPC   NC3 3290   3.084   9.409   4.804  0.1597 -0.0093  0.0754
  234POPC   PO4 3291   3.532   9.370   4.798 -0.2347 -0.0911  0.0389
  234POPC   GL1 3292   3.405   9.378   5.252  0.0004 -0.0531  0.0058
  234POPC   GL2 3293   3.179   9.658   5.270 -0.0279  0.1849  0.2440
  234POPC   C1A 3294   3.493   9.363   5.658  0.1199 -0.3764  0.0887
  234POPC   D2A 3295   3.862   9.512   5.800 -0.0228  0.2524  0.2525
  234POPC   C3A 3296   4.003   9.222   6.043 -0.2943 -0.1440 -0.2552
  234POPC   C4A 3297   4.170   8.910   6.345 -0.2458  0.1095 -0.1480
  234POPC   C1B 3298   3.459   9.905   5.566 -0.1882  0.2193 -0.0009
  234POPC   C2B 3299   3.495  10.350   5.700  0.1723  0.0342 -0.3303
  234POPC   C3B 3300   3.246  10.554   5.908  0.1533 -0.1195 -0.1970
  234POPC   C4B 3301   3.218  10.809   6.227 -0.0045 -0.0483  0.2123
  235POPC   NC3 3302   3.020   0.447   4.274 -0.0325  0.2465 -0.1061
  235POPC   PO4 3303   2.915   0.338   4.696  0.0074 -0.0861  0.2507
  235POPC   GL1 3304   2.702   0.396   5.163 -0.1207  0.0291  0.0307
  235POPC   GL2 3305   2.789   0.278   5.410  0.0274  0.2101  0.2476
  235POPC   C1A 3306   2.595   0.757   5.514  0.0707  0.3273  0.1206
  235POPC   D2A 3307   2.491   0.869   5.900 -0.3331  0.2455  0.0086
  235POPC   C3A 3308   2.407   1.309   6.051  0.0238  0.0441  0.3760
  235POPC   C4A 3309   2.264   1.580   6.402 -0.0498  0.1413 -0.1681
  235POPC   C1B 3310   2.840  -0.085   5.666  0.0091 -0.0826  0.1898
  235POPC   C2B 3311   3.108  -0.421   6.030  0.3466 -0.2078  0.0225
  235POPC   C3B 3312   3.312  -0.812   6.025 -0.2341 -0.1409  0.2498
  235POPC   C4B 3313   3.612  -1.004   6.237  0.1456  0.0515  0.2387
  236POPC   NC3 3314   1.720   8.908   4.802 -0.4693  0.2680 -0.0206
  236POPC   PO4 3315   2.075   8.575   4.728  0.2864  0.0184 -0.0547
  236POPC   GL1 3316   2.211   8.792   4.997  0.0489  0.1315 -0.0980
  236POPC   GL2 3317   2.136   9.063   5.064 -0.0170 -0.0579  0.3717
  236POPC   C1A 3318   2.257   8.627   5.469 -0.0531  0.3260  0.1856
  236POPC   D2A 3319   2.044   8.280   5.637  0.2088  0.1688  0.3996
  236POPC   C3A 3320   1.606   8.283   5.907 -0.0204 -0.2884  0.0136
  236POPC   C4A 3321   1.268   8.024   5.930  0.2407 -0.0892  0.0305
  236POPC   C1B 3322   1.967   9.121   5.483 -0.1405 -0.2400 -0.3303
  236POPC   C2B 3323   1.861   9.361   5.728  0.0980  0.3620 -0.1357
  236POPC   C3B 3324   1.741   9.494   6.142  0.1797  0.1348 -0.2249
  236POPC   C4B 3325   1.805   9.456   6.546  0.0711 -0.0878  0.0966
  237POPC   NC3 3326   2.331   2.958   4.766 -0.0256 -0.1417  0.0545
  237POPC   PO4 3327   2.454   2.588   4.581  0.0473 -0.1414  0.0015
  237POPC   GL1 3328   2.219   2.401   4.957  0.0780  0.3294  0.0751
  237POPC   GL2 3329   2.097   2.159   5.056  0.0904  0.1723  0.0734
  237POPC   C1A 3330   2.151   2.643   5.344 -0.1229  0.2988  0.1286
  237POPC   D2A 3331   2.373   2.991   5.612 -0.0175 -0.0170  0.1377
  237POPC   C3A 3332   2.366   3.333   5.881 -0.1776  0.2417 -0.4520
  237POPC   C4A 3333   2.336   3.418   6.268  0.2048  0.0800  0.4118
  237POPC   C1B 3334   1.894   1.975   5.434 -0.0874  0.1214 -0.1211
  237POPC   C2B 3335   1.800   2.126   5.826 -0.3295  0.0590  0.0122
  237POPC   C3B 3336   1.535   2.212   6.157 -0.1271 -0.2004  0.0666
  237POPC   C4B 3337   1.513   1.999   6.549 -0.2376  0.0724  0.1653
  238POPC   NC3 3338   6.146   1.494   5.378  0.1202 -0.2120  0.0176
  238POPC   PO4 3339   6.354   1.113   5.482  0.1384  0.1291  0.0522
  238POPC   GL1 3340   6.164   1.090   5.702  0.5665  0.1070 -0.1649
  238POPC   GL2 3341   5.917   1.018   5.803 -0.0402  0.1046  0.2012
  238POPC   C1A 3342   6.355   1.212   6.182  0.0754 -0.3655  0.0928
  238POPC   D2A 3343   6.088   1.254   6.481 -0.1014 -0.0373 -0.3996
  238POPC   C3A 3344   5.994   1.382   6.888  0.0818  0.1646 -0.1995
  238POPC   C4A 3345   5.908   1.609   7.201  0.2187  0.2078  0.1359
  238POPC   C1B 3346   5.977   0.793   6.211 -0.0468  0.3821 -0.3484
  238POPC   C2B 3347   6.193   0.686   6.511  0.0646 -0.1695 -0.2701
  238POPC   C3B 3348   6.374   0.454   6.896 -0.1636  0.4493  0.0154
  238POPC   C4B 3349   6.369   0.405   7.221  0.1533  0.0050  0.0473
  239POPC   NC3 3350   5.265   4.604   5.204 -0.2028 -0.2348  0.1288
  239POPC   PO4 3351   5.694   4.797   5.102  0.0794 -0.0373  0.3174
  239POPC   GL1 3352   5.684   5.048   5.334 -0.3345  0.1420  0.0978
  239POPC   GL2 3353   5.985   5.222   5.583 -0.1036  0.0183  0.0725
  239POPC   C1A 3354   5.481   5.161   5.784  0.1830 -0.2743 -0.4334
  239POPC   D2A 3355   5.370   5.292   6.095 -0.0668  0.2347 -0.6336
  239POPC   C3A 3356   5.016   5.512   6.197  0.1174 -0.1371  0.1867
  239POPC   C4A 3357   4.877   5.684   6.510 -0.3863  0.0619 -0.3179
  239POPC   C1B 3358   6.217   5.134   5.921 -0.0161  0.4353 -0.2179
  239POPC   C2B 3359   6.333   4.716   6.098  0.4952  0.2294 -0.0744
  239POPC   C3B 3360   6.192   4.430   6.420  0.2255  0.0195  0.0887
  239POPC   C4B 3361   5.827   4.454   6.827 -0.0324 -0.1439 -0.1891
  240POPC   NC3 3362   4.201   2.383   4.884 -0.2551  0.0304 -0.1764
  240POPC   PO4 3363   3.747   2.351   4.782 -0.5077 -0.2799 -0.0353
  240POPC   GL1 3364   3.720   2.402   5.177 -0.0730  0.0112  0.0293
  240POPC   GL2 3365   4.026   2.583   5.433 -0.1892  0.4315  0.1316
  240POPC   C1A 3366   3.472   2.545   5.412 -0.0676 -0.0088  0.2415
  240POPC   D2A 3367   3.349   2.399   5.687 -0.1403  0.1234  0.0891
  240POPC   C3A 3368   3.099   2.673   5.973  0.0004 -0.0772 -0.1547
  240POPC   C4A 3369   3.272   2.690   6.369 -0.4545 -0.3071  0.0669
  240POPC   C1B 3370   4.053   2.668   5.874  0.2897 -0.1033  0.1888
  240POPC   C2B 3371   4.236   2.729   6.148 -0.1449 -0.0961  0.0394
  240POPC   C3B 3372   4.468   2.751   6.525 -0.0724 -0.2147  0.0836
  240POPC   C4B 3373   4.783   2.563   6.810 -0.0405  0.1659 -0.0659
  241POPC   NC3 3374   2.459  10.067   4.729  0.0084 -0.1026  0.1372
  241POPC   PO4 3375   2.174  10.259   4.477 -0.0077  0.1669  0.3755
  241POPC   GL1 3376   2.015  10.296   4.883  0.4590  0.1176 -0.0352
  241POPC   GL2 3377   1.960  10.672   5.044  0.1165 -0.2151 -0.1693
  241POPC   C1A 3378   1.591  10.422   5.153  0.0375 -0.0737 -0.1261
  241POPC   D2A 3379   1.396  10.392   5.574 -0.3821 -0.0357 -0.1022
  241POPC   C3A 3380   0.906  10.407   5.609  0.1293 -0.0726  0.0130
  241POPC   C4A 3381   0.603  10.015   5.583 -0.0771 -0.2203 -0.2697
  241POPC   C1B 3382   2.262  10.761   5.347  0.1680  0.3140 -0.3066
  241POPC   C2B 3383   2.394  10.821   5.713  0.0850 -0.1684 -0.0192
  241POPC   C3B 3384   2.142  10.783   6.078  0.2083  0.1850  0.1510
  241POPC   C4B 3385   1.995  10.853   6.548  0.0991  0.0864 -0.0747
  242POPC   NC3 3386   6.762   7.706   5.174  0.0565  0.3528  0.1344
  242POPC   PO4 3387   6.325   7.722   5.053  0.0362  0.4616 -0.0989
  242POPC   GL1 3388   6.320   7.851   5.474 -0.1769 -0.1287 -0.0659
  242POPC   GL2 3389   6.602   7.727   5.667  0.3532  0.1736 -0.2217
  242POPC   C1A 3390   6.140   8.117   5.880 -0.3136  0.0135 -0.2687
  242POPC   D2A 3391   6.358   8.007   6.291 -0.3787 -0.0461  0.3213
  242POPC   C3A 3392   6.812   8.168   6.337 -0.0725  0.3427  0.0652
  242POPC   C4A 3393   7.234   7.998   6.293  0.1516  0.0300  0.1441
  242POPC   C1B 3394   6.631   7.203   5.721 -0.0505  0.1779  0.0843
  242POPC   C2B 3395   6.623   6.881   6.030  0.1391  0.1660 -0.3891
  242POPC   C3B 3396   7.010   6.803   6.158 -0.1457 -0.2105  0.0485
  242POPC   C4B 3397   7.180   7.065   6.584 -0.1653  0.1653 -0.0480
  243POPC   NC3 3398   6.408  10.243   5.093  0.2883  0.0788  0.1517
  243POPC   PO4 3399   6.739  10.485   5.055  0.3426  0.1721  0.3478
  243POPC   GL1 3400   6.759  10.790   5.498 -0.0055  0.1535 -0.0128
  243POPC   GL2 3401   6.886  11.049   5.407  0.1429  0.1111  0.1247
  243POPC   C1A 3402   6.766  10.743   5.947 -0.1513 -0.1216 -0.2392
  243POPC   D2A 3403   7.044  10.920   6.169 -0.0326  0.3359  0.1404
  243POPC   C3A 3404   7.000  11.208   6.357  0.0442 -0.0950 -0.0002
  243POPC   C4A 3405   7.193  11.493   6.619 -0.1100 -0.0290 -0.1630
  243POPC   C1B 3406   7.044  11.234   5.798  0.0091  0.1781 -0.0125
  243POPC   C2B 3407   7.460  11.276   6.127 -0.2566 -0.1410  0.0236
  243POPC   C3B 3408   7.593  11.161   6.580  0.1349  0.0835  0.0920
  243POPC   C4B 3409   7.449  10.990   6.978 -0.0188 -0.3460  0.0529
  244POPC   NC3 3410  10.218   9.793   4.379 -0.1509  0.1962  0.0933
  244POPC   PO4 3411   9.821   9.625   4.556 -0.2908  0.3004 -0.1966
  244POPC   GL1 3412  10.064   9.713   4.929  0.1704  0.0174  0.0822
  244POPC   GL2 3413  10.172  10.104   4.819  0.2231  0.3282  0.0123
  244POPC   C1A 3414  10.343   9.701   5.255 -0.0815  0.0541 -0.0830
  244POPC   D2A 3415  10.369   9.664   5.726  0.1615 -0.0714 -0.0417
  244POPC   C3A 3416  10.606   9.741   6.176 -0.0317 -0.0235  0.4885
  244POPC   C4A 3417  10.702   9.918   6.548  0.0144  0.1876  0.2246
  244POPC   C1B 3418  10.253  10.421   5.150  0.1539 -0.0810  0.1547
  244POPC   C2B 3419  10.407  10.521   5.545  0.1741  0.2034  0.0751
  244POPC   C3B 3420  10.291  10.738   6.038 -0.1106 -0.0066  0.0240
  244POPC   C4B 3421  10.640  10.861   6.334 -0.0108  0.1650  0.2681
  245POPC   NC3 3422   2.073   0.910   4.504  0.0599 -0.2241  0.0402
  245POPC   PO4 3423   1.918   0.598   4.748 -0.3762 -0.1208  0.1824
  245POPC   GL1 3424   1.605   0.589   5.054  0.0209 -0.1073 -0.1336
  245POPC   GL2 3425   1.464   0.855   5.165 -0.3696  0.1747 -0.1265
  245POPC   C1A 3426   1.716   0.403   5.441  0.3175 -0.1042 -0.1412
  245POPC   D2A 3427   1.675   0.310   5.922  0.0419  0.0504 -0.1321
  245POPC   C3A 3428   1.652   0.623   6.178  0.1248  0.0360  0.0060
  245POPC   C4A 3429   1.622   0.969   6.490 -0.0227  0.4394 -0.3339
  245POPC   C1B 3430   1.484   0.819   5.582  0.2433  0.2638 -0.1635
  245POPC   C2B 3431   1.259   0.786   5.927 -0.0403  0.0162 -0.0868
  245POPC   C3B 3432   1.123   0.762   6.399 -0.3158  0.1683  0.2224
  245POPC   C4B 3433   0.905   0.440   6.666 -0.1521  0.1241  0.1949
  246POPC   NC3 3434   9.176   7.468   4.977  0.0350  0.3278  0.1441
  246POPC   PO4 3435   9.279   7.763   5.058 -0.2323  0.0880  0.0495
  246POPC   GL1 3436   9.458   7.726   5.507 -0.2165 -0.1123 -0.0748
  246POPC   GL2 3437   9.618   7.464   5.492 -0.2654 -0.3033  0.2223
  246POPC   C1A 3438   9.510   7.998   5.841 -0.0362 -0.1856 -0.0075
  246POPC   D2A 3439   9.547   7.987   6.244 -0.2217  0.2506  0.2402
  246POPC   C3A 3440   9.340   7.634   6.387 -0.3006 -0.3769  0.0939
  246POPC   C4A 3441   9.221   7.505   6.726 -0.2051 -0.2180 -0.1661
  246POPC   C1B 3442   9.728   7.591   5.964  0.1143 -0.1345 -0.1231
  246POPC   C2B 3443   9.836   7.536   6.388  0.0292  0.2380 -0.2608
  246POPC   C3B 3444   9.720   7.573   6.820  0.0554  0.3213  0.1716
  246POPC   C4B 3445   9.756   7.835   7.167  0.2114  0.0513 -0.2817
  247POPC   NC3 3446   1.299   7.233   4.503  0.0493 -0.0177 -0.3206
  247POPC   PO4 3447   0.916   7.343   4.699 -0.0185 -0.1696 -0.2429
  247POPC   GL1 3448   0.853   7.361   5.124  0.2007 -0.2795 -0.0620
  247POPC   GL2 3449   1.126   7.526   5.249  0.0687  0.1697  0.0617
  247POPC   C1A 3450   0.731   7.408   5.457  0.1125  0.0607 -0.2096
  247POPC   D2A 3451   0.492   7.370   5.885 -0.0050 -0.0437  0.0024
  247POPC   C3A 3452   0.425   7.070   6.262 -0.1321  0.0567  0.1271
  247POPC   C4A 3453   0.220   7.143   6.650 -0.0278 -0.0768 -0.0245
  247POPC   C1B 3454   1.214   7.548   5.677  0.1410  0.1167  0.0426
  247POPC   C2B 3455   1.137   7.534   6.135 -0.1677 -0.0833  0.4761
  247POPC   C3B 3456   1.079   7.720   6.467 -0.0962 -0.2003  0.2972
  247POPC   C4B 3457   0.782   7.924   6.672  0.1824  0.0738 -0.2625
  248POPC   NC3 3458   5.132   1.692   5.342  0.1784  0.1216 -0.1477
  248POPC   PO4 3459   5.640   1.576   5.385  0.0944  0.0620 -0.0468
  248POPC   GL1 3460   5.598   1.535   5.764 -0.1070  0.0800  0.0449
  248POPC   GL2 3461   5.296   1.679   5.815 -0.0048  0.0516 -0.2996
  248POPC   C1A 3462   5.798   1.678   6.154 -0.0048 -0.0362 -0.0320
  248POPC   D2A 3463   6.273   1.727   6.313 -0.0846  0.1594  0.2376
  248POPC   C3A 3464   6.407   1.551   6.700  0.0164  0.2841 -0.0223
  248POPC   C4A 3465   6.703   1.430   7.004 -0.1537 -0.0869 -0.0077
  248POPC   C1B 3466   5.220   1.969   6.186 -0.2425  0.3757 -0.1546
  248POPC   C2B 3467   4.802   2.164   6.342 -0.1255 -0.1249 -0.1274
  248POPC   C3B 3468   4.508   2.312   6.080  0.1725 -0.2402  0.2029
  248POPC   C4B 3469   4.292   2.241   5.736 -0.1619  0.1727  0.0780
  249POPC   NC3 3470   0.303   5.662   4.686  0.3887  0.0321 -0.3745
  249POPC   PO4 3471  -0.077   5.918   4.687  0.1428 -0.1629  0.2372
  249POPC   GL1 3472  -0.021   5.735   5.089 -0.0690 -0.0622  0.2742
  249POPC   GL2 3473   0.152   5.495   5.233 -0.3830 -0.1456 -0.1462
  249POPC   C1A 3474  -0.335   5.531   5.363  0.1835 -0.1877  0.0651
  249POPC   D2A 3475  -0.239   5.477   5.855 -0.2431  0.3576  0.0987
  249POPC   C3A 3476  -0.603   5.522   6.167 -0.1426  0.1539 -0.2342
  249POPC   C4A 3477  -0.536   5.420   6.613  0.1161 -0.1803 -0.1306
  249POPC   C1B 3478   0.107   5.081   5.571  0.0186 -0.0149  0.4545
  249POPC   C2B 3479   0.104   5.067   6.017 -0.0250 -0.4009 -0.0151
  249POPC   C3B 3480   0.352   5.239   6.352  0.4168 -0.1128 -0.0789
  249POPC   C4B 3481   0.300   5.156   6.831  0.0966 -0.1542 -0.0702
  250POPC   NC3 3482  10.116   3.701   3.791 -0.1319  0.3073 -0.0629
  250POPC   PO4 3483  10.424   3.339   3.543  0.4817 -0.1272  0.0034
  250POPC   GL1 3484  10.233   3.197   3.854 -0.0865  0.1260 -0.2676
  250POPC   GL2 3485  10.185   3.350   4.173 -0.3547 -0.1578 -0.0557
  250POPC   C1A 3486  10.091   2.788   4.208 -0.2556 -0.1133  0.1988
  250POPC   D2A 3487   9.918   2.732   4.654  0.2294  0.0189  0.2241
  250POPC   C3A 3488   9.783   2.428   4.888 -0.4285 -0.2647 -0.1052
  250POPC   C4A 3489   9.616   2.241   5.172 -0.0710  0.1749  0.1304
  250POPC   C1B 3490  10.073   3.650   4.507 -0.2001  0.0988  0.2711
  250POPC   C2B 3491   9.721   3.655   4.743  0.1580  0.0504 -0.0124
  250POPC   C3B 3492   9.396   3.457   5.023 -0.0584 -0.0062  0.1618
  250POPC   C4B 3493   9.210   3.191   5.309  0.1275  0.1240 -0.0019
  251POPC   NC3 3494   6.215   6.852   5.117  0.2268  0.2963 -0.0935
  251POPC   PO4 3495   6.666   6.926   5.058 -0.0641 -0.0891  0.1645
  251POPC   GL1 3496   6.633   6.735   5.496 -0.0714 -0.0033 -0.2426
  251POPC   GL2 3497   6.949   6.829   5.591 -0.1258  0.0154  0.0460
  251POPC   C1A 3498   6.801   6.323   5.815  0.1946  0.1516 -0.0440
  251POPC   D2A 3499   6.920   6.262   6.212  0.4397 -0.0920  0.0711
  251POPC   C3A 3500   6.873   5.934   6.483 -0.2053  0.0767  0.0242
  251POPC   C4A 3501   6.989   5.465   6.445  0.2021 -0.5151  0.1131
  251POPC   C1B 3502   7.257   6.512   5.769  0.1930  0.0283  0.0425
  251POPC   C2B 3503   7.495   6.372   6.191 -0.2592  0.0721 -0.0716
  251POPC   C3B 3504   7.434   6.532   6.595  0.0285 -0.1749  0.1503
  251POPC   C4B 3505   7.522   6.863   6.956 -0.3197 -0.2163 -0.1001
  252POPC   NC3 3506   9.776   0.915   3.489  0.1591  0.0160  0.0786
  252POPC   PO4 3507  10.198   1.115   3.455  0.0340 -0.1141  0.2962
  252POPC   GL1 3508  10.401   1.095   3.915 -0.4460  0.2000  0.1510
  252POPC   GL2 3509  10.455   0.867   4.167 -0.0850 -0.2587 -0.0864
  252POPC   C1A 3510  10.626   1.321   4.172  0.1235 -0.2874  0.2769
  252POPC   D2A 3511  10.976   1.349   4.406 -0.2516 -0.0994 -0.0040
  252POPC   C3A 3512  11.033   1.638   4.769 -0.2085 -0.0090  0.0468
  252POPC   C4A 3513  11.044   2.096   4.946  0.0354 -0.0403 -0.0497
  252POPC   C1B 3514  10.623   0.952   4.569  0.1498 -0.1602  0.1384
  252POPC   C2B 3515  10.670   1.192   4.842  0.2231  0.0833  0.3076
  252POPC   C3B 3516  10.640   1.437   5.174 -0.0111 -0.3743  0.2530
  252POPC   C4B 3517  10.946   1.722   5.398  0.0462  0.0028 -0.3920
  253POPC   NC3 3518   7.241   3.224   4.159 -0.0694 -0.0459 -0.1390
  253POPC   PO4 3519   7.485   3.653   4.017 -0.2425  0.1271  0.0048
  253POPC   GL1 3520   7.476   3.650   4.507  0.0574 -0.2648 -0.0061
  253POPC   GL2 3521   7.580   3.402   4.754  0.2836  0.0595 -0.0223
  253POPC   C1A 3522   7.515   3.828   4.921 -0.0404 -0.1842 -0.0642
  253POPC   D2A 3523   7.256   3.682   5.251 -0.1994 -0.0444  0.0047
  253POPC   C3A 3524   7.461   3.719   5.630 -0.4139 -0.4256  0.0923
  253POPC   C4A 3525   7.741   3.534   6.008  0.2181  0.0789 -0.1477
  253POPC   C1B 3526   7.984   3.234   4.760 -0.3121 -0.1663  0.2435
  253POPC   C2B 3527   8.078   2.779   4.830 -0.0669  0.0243 -0.4896
  253POPC   C3B 3528   8.210   2.480   4.680  0.2089 -0.2247  0.2699
  253POPC   C4B 3529   8.351   2.011   4.559  0.0424  0.0187 -0.1081
  254POPC   NC3 3530   8.284   9.686   4.739 -0.1038  0.0575  0.0235
  254POPC   PO4 3531   8.365  10.098   4.763  0.2054  0.1555  0.0740
  254POPC   GL1 3532   8.187  10.433   5.000 -0.1938  0.1504 -0.1023
  254POPC   GL2 3533   8.066  10.219   5.198  0.2455 -0.1918 -0.3572
  254POPC   C1A 3534   8.431  10.594   5.313  0.1651  0.0179 -0.0052
  254POPC   D2A 3535   8.370  11.036   5.533  0.2850  0.0242 -0.0352
  254POPC   C3A 3536   8.384  11.422   5.290  0.1468 -0.1478  0.0135
  254POPC   C4A 3537   8.322  11.714   4.945  0.0421 -0.1290  0.1363
  254POPC   C1B 3538   7.923   9.846   5.449  0.0357  0.1046 -0.1977
  254POPC   C2B 3539   7.817   9.656   5.919  0.1339 -0.1084 -0.1833
  254POPC   C3B 3540   8.011   9.510   6.440 -0.1160 -0.1561  0.1017
  254POPC   C4B 3541   8.102   9.548   6.911 -0.0143  0.1451  0.1774
  255POPC   NC3 3542   4.141   7.419   5.049 -0.1444  0.4133 -0.1273
  255POPC   PO4 3543   4.256   7.768   4.724 -0.0450  0.1653  0.1005
  255POPC   GL1 3544   4.344   7.941   5.157  0.1414 -0.0274  0.2382
  255POPC   GL2 3545   4.015   7.986   5.381 -0.1230 -0.0755 -0.1365
  255POPC   C1A 3546   4.456   8.182   5.404 -0.0230  0.0406 -0.1674
  255POPC   D2A 3547   4.584   8.327   5.890 -0.3804 -0.0938 -0.0716
  255POPC   C3A 3548   4.430   8.421   6.241  0.1852 -0.0933  0.1017
  255POPC   C4A 3549   4.230   8.473   6.698 -0.2727  0.0631 -0.2463
  255POPC   C1B 3550   3.998   8.218   5.800  0.0646  0.2070 -0.1393
  255POPC   C2B 3551   3.975   8.076   6.269  0.2462  0.1135 -0.1110
  255POPC   C3B 3552   3.632   8.248   6.642 -0.1027 -0.1371 -0.1859
  255POPC   C4B 3553   3.528   8.268   7.069 -0.5247 -0.1223 -0.1240
  256POPC   NC3 3554  10.158   6.346   4.252  0.0323  0.2818  0.3805
  256POPC   PO4 3555   9.845   6.276   4.555 -0.0974  0.0058 -0.0339
  256POPC   GL1 3556  10.135   6.292   4.930  0.3174 -0.1826 -0.1543
  256POPC   GL2 3557  10.131   6.541   5.071  0.1702  0.2756 -0.2773
  256POPC   C1A 3558   9.912   6.047   5.328 -0.1067 -0.0788 -0.4563
  256POPC   D2A 3559   9.750   5.946   5.723 -0.0953  0.1624  0.0717
  256POPC   C3A 3560   9.837   6.011   6.169 -0.2734 -0.1003  0.0856
  256POPC   C4A 3561   9.759   6.273   6.614 -0.1578 -0.0296  0.1066
  256POPC   C1B 3562  10.187   6.432   5.513 -0.2276 -0.0294 -0.2162
  256POPC   C2B 3563  10.179   6.376   5.820 -0.0214  0.1396  0.2207
  256POPC   C3B 3564  10.003   6.456   6.149 -0.1499  0.0558  0.2093
  256POPC   C4B 3565   9.978   6.693   6.465  0.1736  0.0120 -0.0115
  257POPC   NC3 3566   5.505   3.794   5.067  0.1698 -0.2253 -0.2519
  257POPC   PO4 3567   5.625   4.278   5.014  0.0447 -0.0960 -0.0217
  257POPC   GL1 3568   5.848   4.363   5.418  0.0269 -0.2121  0.0859
  257POPC   GL2 3569   5.920   4.007   5.572 -0.0761  0.0817 -0.3694
  257POPC   C1A 3570   5.827   4.715   5.744  0.0167  0.0686  0.3615
  257POPC   D2A 3571   5.833   4.675   6.144 -0.0826  0.0678 -0.0384
  257POPC   C3A 3572   5.888   5.172   6.332  0.0825 -0.1324 -0.0774
  257POPC   C4A 3573   5.793   5.455   6.733 -0.0656 -0.1441  0.0479
  257POPC   C1B 3574   5.739   4.181   5.955 -0.2346 -0.2846 -0.0292
  257POPC   C2B 3575   5.657   4.244   6.407 -0.1067  0.1516  0.0481
  257POPC   C3B 3576   5.880   3.956   6.559  0.0393  0.0598  0.2007
  257POPC   C4B 3577   6.225   4.130   6.825  0.1263  0.1995 -0.0781
  258POPC   NC3 3578   0.047   4.376   4.256 -0.0651  0.0848  0.0663
  258POPC   PO4 3579   0.370   4.142   4.022  0.1010 -0.1455 -0.0440
  258POPC   GL1 3580   0.365   3.864   4.319  0.0382  0.2149 -0.0314
  258POPC   GL2 3581   0.557   3.877   4.618  0.0640 -0.1144  0.1956
  258POPC   C1A 3582   0.076   3.502   4.549 -0.0306  0.1907 -0.1930
  258POPC   D2A 3583  -0.216   3.462   4.886 -0.0982 -0.1712  0.0344
  258POPC   C3A 3584  -0.310   3.804   4.980 -0.0272  0.0046 -0.2434
  258POPC   C4A 3585  -0.468   4.159   4.731  0.2779  0.0148 -0.1547
  258POPC   C1B 3586   0.366   3.768   4.970  0.3437 -0.2695  0.2091
  258POPC   C2B 3587   0.138   3.452   5.289  0.2381 -0.2245 -0.0089
  258POPC   C3B 3588   0.138   3.222   5.644  0.0239  0.4146  0.0672
  258POPC   C4B 3589   0.304   3.275   6.029 -0.2525  0.1264 -0.3699
  259POPC   NC3 3590   5.231   0.320   5.476  0.1300  0.1404 -0.1174
  259POPC   PO4 3591   5.632   0.297   5.547 -0.0438  0.2330  0.1127
  259POPC   GL1 3592   5.490   0.171   5.886  0.0539 -0.0542 -0.0384
  259POPC   GL2 3593   5.760  -0.013   5.916  0.1335 -0.0944  0.0211
  259POPC   C1A 3594   5.342   0.084   6.296 -0.1597  0.2590  0.1970
  259POPC   D2A 3595   5.576   0.052   6.763  0.2054 -0.2500 -0.2994
  259POPC   C3A 3596   5.191   0.012   7.034 -0.0328  0.1754  0.0386
  259POPC   C4A 3597   5.002  -0.152   7.394 -0.2210 -0.2235 -0.1158
  259POPC   C1B 3598   5.921  -0.069   6.311  0.1969 -0.1915  0.2505
  259POPC   C2B 3599   5.894  -0.311   6.609 -0.0730 -0.2388  0.1368
  259POPC   C3B 3600   5.754  -0.425   6.987  0.0326 -0.0381 -0.1211
  259POPC   C4B 3601   5.358  -0.454   7.231  0.0426 -0.1529 -0.0597
  260POPC   NC3 3602   7.018   8.518   4.922 -0.0811  0.0597 -0.0817
  260POPC   PO4 3603   7.084   8.157   4.913  0.0206 -0.2693  0.1710
  260POPC   GL1 3604   7.112   8.109   5.330 -0.0311 -0.0655 -0.0752
  260POPC   GL2 3605   6.752   8.168   5.445 -0.2440 -0.0332 -0.0192
  260POPC   C1A 3606   7.383   8.080   5.714 -0.1257  0.0108  0.0360
  260POPC   D2A 3607   7.659   8.326   6.056 -0.1442  0.2741  0.0984
  260POPC   C3A 3608   7.475   8.288   6.572 -0.0642  0.1864  0.1377
  260POPC   C4A 3609   7.167   8.117   6.799 -0.2350  0.2946 -0.1296
  260POPC   C1B 3610   6.866   8.204   5.815 -0.0015 -0.2165  0.0846
  260POPC   C2B 3611   7.076   8.515   6.081 -0.2591 -0.0744  0.1391
  260POPC   C3B 3612   6.743   8.807   6.216  0.3485 -0.1694  0.0732
  260POPC   C4B 3613   6.639   9.226   6.152 -0.3293 -0.2302  0.0047
  261POPC   NC3 3614   3.812   1.366   4.853  0.1520  0.1236  0.0647
  261POPC   PO4 3615   4.261   1.576   4.896  0.0584 -0.0735 -0.0094
  261POPC   GL1 3616   4.074   1.397   5.320  0.0723 -0.1481  0.0522
  261POPC   GL2 3617   3.757   1.310   5.405  0.2153 -0.1063 -0.3665
  261POPC   C1A 3618   4.222   1.232   5.773 -0.1047 -0.0022  0.0291
  261POPC   D2A 3619   4.505   1.194   6.140 -0.0087  0.1197 -0.1890
  261POPC   C3A 3620   4.670   1.304   6.501 -0.0177  0.2091 -0.0581
  261POPC   C4A 3621   4.431   1.305   6.780 -0.0212 -0.1217  0.1100
  261POPC   C1B 3622   3.752   1.519   5.797  0.0149  0.0609  0.1798
  261POPC   C2B 3623   3.696   1.820   6.058  0.4559  0.2051 -0.2582
  261POPC   C3B 3624   3.736   1.876   6.544  0.0373  0.0381 -0.1631
  261POPC   C4B 3625   3.964   1.888   6.831  0.0005 -0.0531 -0.0095
  262POPC   NC3 3626   4.441   1.121   5.172 -0.1020 -0.1960  0.0136
  262POPC   PO4 3627   4.765   1.303   5.380  0.2666 -0.1762 -0.3353
  262POPC   GL1 3628   4.890   1.261   5.744  0.3365  0.1724 -0.3222
  262POPC   GL2 3629   4.661   1.502   5.822  0.0959 -0.0796  0.0669
  262POPC   C1A 3630   5.010   1.226   6.155 -0.0680 -0.3408 -0.0307
  262POPC   D2A 3631   5.181   1.505   6.465 -0.0401 -0.4800 -0.4821
  262POPC   C3A 3632   5.196   1.922   6.694  0.0477  0.0676  0.0357
  262POPC   C4A 3633   5.272   2.200   7.118 -0.1659 -0.1943 -0.1736
  262POPC   C1B 3634   4.694   1.681   6.266 -0.0395 -0.1017  0.4851
  262POPC   C2B 3635   4.616   1.829   6.642 -0.2699  0.0585  0.2390
  262POPC   C3B 3636   4.433   1.768   6.989  0.0566  0.1891 -0.1604
  262POPC   C4B 3637   4.233   1.844   7.429  0.1762  0.0957 -0.2567
  263POPC   NC3 3638   7.173   1.520   3.770 -0.0317  0.1382 -0.0935
  263POPC   PO4 3639   7.309   1.589   4.267  0.0973 -0.0020  0.2560
  263POPC   GL1 3640   7.623   1.418   4.575 -0.1511 -0.1209  0.1603
  263POPC   GL2 3641   7.803   1.048   4.670  0.1414  0.1882  0.3706
  263POPC   C1A 3642   7.892   1.485   4.869 -0.0635  0.2432 -0.1068
  263POPC   D2A 3643   8.140   1.841   5.046  0.2794 -0.0074  0.0654
  263POPC   C3A 3644   8.285   1.918   5.556  0.2124 -0.1045  0.0181
  263POPC   C4A 3645   8.182   1.994   6.047  0.1803  0.0880 -0.0304
  263POPC   C1B 3646   7.917   0.873   5.179 -0.0397 -0.1145 -0.1096
  263POPC   C2B 3647   7.841   0.678   5.589  0.2065 -0.2303  0.1694
  263POPC   C3B 3648   8.058   0.554   5.954  0.2110  0.0598  0.2713
  263POPC   C4B 3649   8.203   0.591   6.418 -0.1466  0.0989 -0.0293
  264POPC   NC3 3650   4.751  10.170   4.878 -0.1433 -0.0392 -0.4164
  264POPC   PO4 3651   5.061  10.502   5.017  0.1356  0.0502 -0.1848
  264POPC   GL1 3652   4.984  10.314   5.484 -0.0051 -0.2078  0.0958
  264POPC   GL2 3653   5.028  10.469   5.817 -0.0200 -0.0730 -0.1488
  264POPC   C1A 3654   4.982   9.952   5.721 -0.2675 -0.2278 -0.3305
  264POPC   D2A 3655   5.037   9.641   6.021 -0.2651 -0.0995  0.0548
  264POPC   C3A 3656   4.840   9.344   5.768 -0.1350  0.1606 -0.2517
  264POPC   C4A 3657   4.397   9.185   5.668  0.4753 -0.2396 -0.0502
  264POPC   C1B 3658   4.862  10.661   6.140 -0.1308 -0.0184 -0.1773
  264POPC   C2B 3659   4.796  10.627   6.599 -0.0525 -0.0354  0.2550
  264POPC   C3B 3660   4.418  10.631   6.913 -0.0554  0.1780 -0.1876
  264POPC   C4B 3661   4.024  10.479   6.778 -0.0604 -0.1870 -0.4389
  265POPC   NC3 3662   4.510   6.520   4.870 -0.1368  0.1592  0.1406
  265POPC   PO4 3663   4.610   6.832   4.599 -0.0006  0.2683  0.2170
  265POPC   GL1 3664   4.789   6.898   4.983  0.1103 -0.1581 -0.5452
  265POPC   GL2 3665   4.590   6.983   5.247  0.3488  0.1740  0.1083
  265POPC   C1A 3666   5.066   6.746   5.401  0.3395 -0.0941  0.1226
  265POPC   D2A 3667   5.036   6.510   5.768 -0.1216 -0.2883 -0.1883
  265POPC   C3A 3668   5.023   6.706   6.204 -0.2146 -0.1099  0.0185
  265POPC   C4A 3669   5.232   6.617   6.577 -0.0181  0.1123 -0.0486
  265POPC   C1B 3670   4.705   7.049   5.700 -0.1024 -0.1042  0.0672
  265POPC   C2B 3671   4.649   7.078   6.123  0.1902  0.2889  0.0302
  265POPC   C3B 3672   4.675   6.785   6.521  0.0174 -0.0770  0.0362
  265POPC   C4B 3673   4.700   6.545   6.872 -0.0414 -0.1301 -0.0073
  266POPC   NC3 3674   4.756   4.708   4.899  0.0332  0.1011  0.1627
  266POPC   PO4 3675   4.756   4.380   5.088 -0.2128 -0.2659  0.0416
  266POPC   GL1 3676   4.770   4.296   5.485  0.2206  0.1814 -0.2144
  266POPC   GL2 3677   4.509   4.309   5.641  0.2688  0.0392  0.1166
  266POPC   C1A 3678   4.906   4.647   5.757 -0.0734 -0.1849 -0.1504
  266POPC   D2A 3679   5.312   4.695   5.986  0.3918  0.0416 -0.2867
  266POPC   C3A 3680   5.401   4.817   6.412 -0.1966 -0.0261 -0.0065
  266POPC   C4A 3681   5.668   4.963   6.753  0.0753 -0.2975 -0.3125
  266POPC   C1B 3682   4.178   4.204   5.948 -0.3039 -0.1492 -0.2433
  266POPC   C2B 3683   3.900   4.325   6.231 -0.0403  0.3293 -0.1413
  266POPC   C3B 3684   3.871   4.424   6.655  0.1465 -0.2137  0.2302
  266POPC   C4B 3685   4.249   4.475   6.948 -0.2600  0.0215 -0.2054
  267POPC   NC3 3686   0.683   3.324   4.208  0.4025  0.2126  0.0612
  267POPC   PO4 3687   0.984   3.670   4.292  0.0812  0.1887 -0.1515
  267POPC   GL1 3688   0.930   3.534   4.777 -0.3422  0.1048 -0.1370
  267POPC   GL2 3689   1.205   3.338   5.004  0.0824  0.2358 -0.2219
  267POPC   C1A 3690   0.706   3.341   5.165 -0.0954  0.0668  0.0696
  267POPC   D2A 3691   0.590   3.392   5.589 -0.0925  0.0632 -0.5440
  267POPC   C3A 3692   0.374   3.720   5.763  0.0128 -0.0539  0.1363
  267POPC   C4A 3693   0.408   3.800   6.187 -0.0842  0.0724  0.0757
  267POPC   C1B 3694   1.179   3.101   5.309 -0.4561  0.3431 -0.0424
  267POPC   C2B 3695   0.939   2.978   5.612  0.0516 -0.1571 -0.0423
  267POPC   C3B 3696   0.658   2.947   6.064 -0.0502 -0.6004  0.1440
  267POPC   C4B 3697   0.373   2.858   6.321  0.1106  0.4873  0.1131
  268POPC   NC3 3698   2.924   9.270   3.996 -0.0456  0.2214  0.5941
  268POPC   PO4 3699   2.847   9.523   4.322 -0.1458 -0.2530  0.3227
  268POPC   GL1 3700   2.592   9.527   4.791 -0.0472 -0.2437 -0.0763
  268POPC   GL2 3701   2.279   9.563   4.964  0.0089  0.1031 -0.4404
  268POPC   C1A 3702   2.673   9.487   5.369  0.0591 -0.1704 -0.4218
  268POPC   D2A 3703   2.403   9.415   5.793 -0.2725 -0.0720  0.0517
  268POPC   C3A 3704   2.293   9.490   6.295 -0.1014  0.0819 -0.1393
  268POPC   C4A 3705   2.506   9.804   6.751 -0.1556 -0.4020  0.1057
  268POPC   C1B 3706   2.098   9.668   5.361  0.1341  0.1391  0.1323
  268POPC   C2B 3707   2.190   9.868   5.783 -0.2224 -0.1831 -0.4269
  268POPC   C3B 3708   2.394  10.267   5.927  0.1563  0.0336 -0.2366
  268POPC   C4B 3709   2.603  10.647   6.228  0.1961 -0.3731  0.0837
  269POPC   NC3 3710   0.713   9.409   4.479  0.3425  0.1499  0.1658
  269POPC   PO4 3711   0.457   9.734   4.580  0.0787 -0.0980 -0.0110
  269POPC   GL1 3712   0.359   9.773   4.976 -0.0166  0.1442  0.1939
  269POPC   GL2 3713   0.664   9.757   5.137 -0.0960 -0.0535 -0.1357
  269POPC   C1A 3714   0.132  10.110   5.320 -0.2244 -0.0921  0.0466
  269POPC   D2A 3715   0.122  10.113   5.744 -0.1241  0.1266  0.0992
  269POPC   C3A 3716   0.467  10.047   6.020  0.1489  0.2695 -0.0361
  269POPC   C4A 3717   0.623   9.719   6.351 -0.2488  0.1801 -0.1603
  269POPC   C1B 3718   0.299   9.540   5.480 -0.1478  0.1987 -0.1583
  269POPC   C2B 3719   0.155   9.223   5.776 -0.0209  0.3002  0.0730
  269POPC   C3B 3720  -0.069   9.248   6.143  0.0785  0.0370  0.3254
  269POPC   C4B 3721  -0.422   9.158   5.918  0.0675  0.0031 -0.0066
  270POPC   NC3 3722   6.936   5.551   5.072  0.1871  0.0954 -0.3929
  270POPC   PO4 3723   6.811   5.981   5.223  0.0550  0.0714  0.2114
  270POPC   GL1 3724   6.871   5.856   5.639 -0.0065  0.0743  0.3571
  270POPC   GL2 3725   7.053   5.632   5.586 -0.0541 -0.0688 -0.1010
  270POPC   C1A 3726   6.716   5.736   6.029 -0.1344 -0.3291  0.1010
  270POPC   D2A 3727   6.419   6.009   6.138  0.2738  0.0865  0.1154
  270POPC   C3A 3728   6.397   6.078   6.614  0.0174  0.0379 -0.2723
  270POPC   C4A 3729   6.586   6.140   7.017 -0.3351  0.1064  0.0485
  270POPC   C1B 3730   7.191   5.460   5.934  0.0490 -0.0643  0.2798
  270POPC   C2B 3731   7.383   5.352   6.234 -0.0463 -0.0305  0.1614
  270POPC   C3B 3732   7.524   5.351   6.673 -0.1208  0.2089 -0.0441
  270POPC   C4B 3733   7.868   5.133   7.027 -0.1398  0.1385 -0.0104
  271POPC   NC3 3734   2.491   6.443   4.012 -0.0443  0.0603  0.1892
  271POPC   PO4 3735   2.675   6.426   4.495 -0.6367 -0.4096  0.1232
  271POPC   GL1 3736   2.898   6.463   4.910  0.2690  0.2099  0.1439
  271POPC   GL2 3737   2.849   6.163   5.049  0.1200  0.4525 -0.1321
  271POPC   C1A 3738   2.691   6.659   5.250 -0.2302 -0.0327  0.1367
  271POPC   D2A 3739   2.543   7.102   5.275 -0.2558 -0.1062 -0.1566
  271POPC   C3A 3740   2.843   7.519   5.337 -0.1621  0.0956  0.0849
  271POPC   C4A 3741   2.693   7.613   5.692  0.1989 -0.3047  0.1630
  271POPC   C1B 3742   3.078   5.841   5.308  0.1248  0.0619 -0.1900
  271POPC   C2B 3743   3.362   5.488   5.360 -0.1336 -0.2432  0.1487
  271POPC   C3B 3744   3.734   5.309   5.626  0.1880 -0.0052 -0.1673
  271POPC   C4B 3745   3.506   5.129   5.869 -0.0763  0.2153 -0.0064
  272POPC   NC3 3746   0.694   2.366   4.024  0.0328 -0.2445  0.1556
  272POPC   PO4 3747   0.705   2.760   4.188 -0.0555 -0.2734  0.0791
  272POPC   GL1 3748   0.392   2.907   4.342 -0.0436  0.0209 -0.6227
  272POPC   GL2 3749   0.089   2.978   4.177  0.2280  0.2267 -0.1441
  272POPC   C1A 3750   0.363   3.076   4.772  0.0889  0.0325  0.0340
  272POPC   D2A 3751   0.172   3.047   5.083  0.0928  0.1118 -0.0924
  272POPC   C3A 3752   0.464   2.910   5.442 -0.1488  0.1664 -0.0866
  272POPC   C4A 3753   0.740   2.556   5.728  0.0840  0.2119  0.1430
  272POPC   C1B 3754  -0.093   2.934   4.629 -0.3111 -0.1026 -0.0671
  272POPC   C2B 3755  -0.282   2.923   5.152  0.0455  0.1507 -0.0692
  272POPC   C3B 3756  -0.498   2.593   5.366  0.2258 -0.0838  0.0946
  272POPC   C4B 3757  -0.265   2.467   5.717 -0.2975  0.2534  0.2944
  273POPC   NC3 3758   6.366   5.907   5.086  0.0947  0.0384 -0.1000
  273POPC   PO4 3759   6.397   5.554   4.984 -0.2140  0.1071  0.1643
  273POPC   GL1 3760   6.399   5.423   5.436  0.2458 -0.4055 -0.0266
  273POPC   GL2 3761   6.276   5.755   5.528 -0.2043  0.2892  0.1513
  273POPC   C1A 3762   6.678   5.269   5.736  0.3066  0.0420  0.1532
  273POPC   D2A 3763   6.713   5.107   6.220 -0.1485  0.3024 -0.0869
  273POPC   C3A 3764   6.495   5.523   6.602 -0.1356 -0.4350 -0.0518
  273POPC   C4A 3765   6.345   5.678   7.066 -0.0965  0.2640  0.1457
  273POPC   C1B 3766   6.238   5.595   5.923 -0.3561  0.0923 -0.0183
  273POPC   C2B 3767   6.074   5.615   6.341  0.1671 -0.1796  0.3728
  273POPC   C3B 3768   5.954   5.933   6.545 -0.1669  0.0206  0.0478
  273POPC   C4B 3769   5.611   6.196   6.574  0.0471  0.1277  0.4113
  274POPC   NC3 3770   9.736   8.743   4.725 -0.0359  0.1080 -0.1168
  274POPC   PO4 3771  10.039   8.418   4.971  0.0537 -0.0309  0.3434
  274POPC   GL1 3772  10.060   8.297   5.386 -0.0637 -0.3273 -0.1460
  274POPC   GL2 3773  10.401   8.106   5.508 -0.2150  0.1666  0.2282
  274POPC   C1A 3774   9.846   8.389   5.711 -0.0762 -0.1707 -0.2577
  274POPC   D2A 3775   9.667   8.466   6.145 -0.1144  0.2801  0.1477
  274POPC   C3A 3776   9.635   8.794   6.359  0.2072 -0.1484  0.1997
  274POPC   C4A 3777  10.003   9.132   6.448 -0.0839  0.0037  0.0850
  274POPC   C1B 3778  10.366   8.331   5.887 -0.0590 -0.4601  0.0405
  274POPC   C2B 3779  10.443   8.330   6.277 -0.1763 -0.0175  0.0918
  274POPC   C3B 3780  10.755   8.561   6.560  0.1473 -0.1026 -0.1504
  274POPC   C4B 3781  10.628   8.755   6.946 -0.0797  0.0927  0.1853
  275POPC   NC3 3782   3.630   5.668   4.753 -0.1340 -0.0724 -0.1999
  275POPC   PO4 3783   3.963   5.936   4.843  0.0455 -0.2680 -0.3252
  275POPC   GL1 3784   3.830   6.016   5.208 -0.0789  0.1066 -0.0744
  275POPC   GL2 3785   3.944   6.257   5.300 -0.2534  0.3761  0.0082
  275POPC   C1A 3786   3.521   5.965   5.477  0.1169 -0.3906 -0.0579
  275POPC   D2A 3787   3.351   5.651   5.848  0.0161 -0.0329  0.2757
  275POPC   C3A 3788   3.233   5.780   6.169  0.0967  0.1176 -0.1473
  275POPC   C4A 3789   3.207   6.223   6.344  0.5092 -0.1166 -0.2596
  275POPC   C1B 3790   4.036   6.232   5.670 -0.0453  0.2420  0.2253
  275POPC   C2B 3791   3.709   6.098   5.948 -0.1404 -0.1283 -0.0316
  275POPC   C3B 3792   3.664   5.957   6.321 -0.0378 -0.2866 -0.0149
  275POPC   C4B 3793   3.733   6.059   6.680  0.2345  0.3935 -0.2086
  276POPC   NC3 3794   9.027   8.963   4.615  0.1117  0.2257  0.0874
  276POPC   PO4 3795   9.287   9.057   4.889  0.0695 -0.1420  0.0082
  276POPC   GL1 3796   9.287   9.091   5.334 -0.2128  0.1624 -0.0471
  276POPC   GL2 3797   9.517   9.384   5.378 -0.0012 -0.5073  0.1808
  276POPC   C1A 3798   9.062   8.774   5.574  0.2149 -0.2894 -0.1674
  276POPC   D2A 3799   8.780   8.476   5.794  0.1402 -0.0159 -0.1213
  276POPC   C3A 3800   8.522   8.490   6.196  0.0181  0.1912  0.0629
  276POPC   C4A 3801   8.386   8.222   6.545  0.0454 -0.2936  0.0521
  276POPC   C1B 3802   9.416   9.445   5.825  0.2973 -0.0738 -0.1955
  276POPC   C2B 3803   9.607   9.258   6.162  0.0778 -0.1338 -0.0722
  276POPC   C3B 3804   9.600   9.380   6.508 -0.0881  0.4264  0.2564
  276POPC   C4B 3805   9.976   9.474   6.837 -0.2245  0.1354  0.0119
  277POPC   NC3 3806   4.432   8.273   4.761  0.2748  0.5501 -0.0928
  277POPC   PO4 3807   4.737   8.623   4.795  0.2461 -0.3928  0.0783
  277POPC   GL1 3808   4.653   8.583   5.170  0.1634 -0.5525  0.2363
  277POPC   GL2 3809   4.866   8.493   5.340  0.0236  0.0964 -0.0195
  277POPC   C1A 3810   4.473   8.708   5.531 -0.0136  0.2612 -0.2183
  277POPC   D2A 3811   4.526   8.826   6.000  0.2578 -0.1484  0.0248
  277POPC   C3A 3812   4.545   9.240   6.161  0.1405  0.2385  0.3382
  277POPC   C4A 3813   4.438   9.299   6.591  0.2102 -0.0692 -0.0951
  277POPC   C1B 3814   5.091   8.326   5.650 -0.2859 -0.1133 -0.1822
  277POPC   C2B 3815   5.123   8.104   5.974 -0.2046  0.0047  0.3078
  277POPC   C3B 3816   5.268   8.149   6.357 -0.0561  0.0325  0.1154
  277POPC   C4B 3817   5.517   7.998   6.627 -0.0299 -0.0249  0.3407
  278POPC   NC3 3818   1.641  10.292   4.380  0.0803  0.2986  0.2865
  278POPC   PO4 3819   1.363  10.015   4.499  0.1083 -0.2129 -0.0730
  278POPC   GL1 3820   1.207  10.096   4.898  0.0895 -0.1129  0.2894
  278POPC   GL2 3821   1.226   9.882   5.155  0.2558 -0.0376 -0.4328
  278POPC   C1A 3822   1.078  10.412   5.097  0.2829  0.0493  0.2178
  278POPC   D2A 3823   1.178  10.681   4.995  0.1244  0.2077  0.0332
  278POPC   C3A 3824   1.260  10.861   5.480 -0.1718 -0.2286 -0.1240
  278POPC   C4A 3825   1.110  10.797   5.837 -0.2379 -0.1144 -0.2436
  278POPC   C1B 3826   1.142   9.958   5.598 -0.0319  0.0058  0.2526
  278POPC   C2B 3827   0.978  10.001   5.965  0.2832  0.0464  0.3342
  278POPC   C3B 3828   1.061  10.044   6.441 -0.2165 -0.0308 -0.0691
  278POPC   C4B 3829   0.857   9.823   6.756 -0.1132  0.0648  0.2518
  279POPC   NC3 3830   7.526   4.224   4.179 -0.2560 -0.3012  0.4070
  279POPC   PO4 3831   7.327   4.375   4.462  0.1180 -0.0544 -0.1100
  279POPC   GL1 3832   7.393   4.470   4.853  0.1624  0.0222  0.0828
  279POPC   GL2 3833   7.121   4.374   4.993  0.2188  0.1900  0.1076
  279POPC   C1A 3834   7.716   4.640   5.062 -0.3183 -0.0394 -0.0411
  279POPC   D2A 3835   7.948   4.438   5.261  0.2705  0.0476 -0.1175
  279POPC   C3A 3836   8.145   4.138   4.990  0.1735 -0.2618 -0.1918
  279POPC   C4A 3837   8.359   3.813   5.130 -0.0473 -0.3769 -0.3253
  279POPC   C1B 3838   7.418   4.189   5.307  0.2985 -0.0081 -0.2178
  279POPC   C2B 3839   7.832   3.954   5.410 -0.1648 -0.0245 -0.1085
  279POPC   C3B 3840   8.118   3.597   5.510 -0.1601  0.0782  0.0331
  279POPC   C4B 3841   8.321   3.284   5.173  0.1836  0.0606  0.1918
  280POPC   NC3 3842   5.378   6.105   4.542  0.4225 -0.1190 -0.2134
  280POPC   PO4 3843   5.613   6.203   4.905  0.1312  0.0457 -0.0378
  280POPC   GL1 3844   5.689   6.012   5.271  0.1738 -0.1126 -0.0582
  280POPC   GL2 3845   5.573   6.366   5.396 -0.2167  0.1927 -0.2707
  280POPC   C1A 3846   5.707   5.676   5.585  0.1114 -0.1250  0.1008
  280POPC   D2A 3847   5.739   5.600   5.964 -0.0417  0.1074 -0.0889
  280POPC   C3A 3848   5.573   5.725   6.382  0.0278 -0.0824 -0.2581
  280POPC   C4A 3849   5.357   5.814   6.760 -0.0045  0.0558  0.4114
  280POPC   C1B 3850   5.507   6.125   5.709  0.1751 -0.3294  0.2802
  280POPC   C2B 3851   5.241   5.740   5.842 -0.5132 -0.0689  0.1656
  280POPC   C3B 3852   5.018   5.299   5.699 -0.2607  0.0208 -0.0571
  280POPC   C4B 3853   4.898   5.012   6.095  0.2755 -0.0874  0.3726
  281POPC   NC3 3854   5.316   2.922   4.674  0.0917 -0.0934  0.0655
  281POPC   PO4 3855   5.175   2.818   5.112  0.1561 -0.1386 -0.1015
  281POPC   GL1 3856   5.506   2.838   5.514  0.0148  0.0936 -0.2983
  281POPC   GL2 3857   5.817   2.978   5.516 -0.2911 -0.0545  0.0477
  281POPC   C1A 3858   5.251   2.887   5.892  0.1876 -0.0034 -0.0645
  281POPC   D2A 3859   4.822   2.807   6.076  0.1116 -0.1228 -0.2855
  281POPC   C3A 3860   4.529   2.778   5.752  0.1748  0.2731  0.0117
  281POPC   C4A 3861   4.236   3.062   5.667  0.2249 -0.0290  0.0618
  281POPC   C1B 3862   5.637   3.245   5.829  0.0991  0.1157 -0.1559
  281POPC   C2B 3863   5.446   3.138   6.335 -0.0508  0.3004 -0.0284
  281POPC   C3B 3864   5.516   2.779   6.455 -0.1529  0.0527 -0.0731
  281POPC   C4B 3865   5.300   2.536   6.758 -0.0527  0.4510  0.1649
  282POPC   NC3 3866   6.167   1.856   5.712 -0.2912 -0.1358 -0.1975
  282POPC   PO4 3867   6.046   2.282   5.589  0.0294  0.0775  0.3893
  282POPC   GL1 3868   6.245   2.329   5.918 -0.0346  0.0128  0.1161
  282POPC   GL2 3869   6.536   2.373   5.971  0.1338 -0.2898  0.0395
  282POPC   C1A 3870   6.040   2.137   6.333  0.0561 -0.2237 -0.1475
  282POPC   D2A 3871   5.670   2.256   6.533 -0.0657 -0.1036 -0.0892
  282POPC   C3A 3872   5.813   2.591   6.859 -0.0485 -0.1653  0.0503
  282POPC   C4A 3873   5.634   2.911   7.134 -0.3081 -0.1264 -0.0828
  282POPC   C1B 3874   6.594   2.285   6.304  0.0280 -0.2737 -0.0918
  282POPC   C2B 3875   6.823   2.447   6.677  0.2691  0.2255 -0.2548
  282POPC   C3B 3876   6.782   2.414   7.095  0.0687 -0.2170  0.2522
  282POPC   C4B 3877   7.031   2.363   7.449 -0.1968 -0.1627  0.1891
  283POPC   NC3 3878   3.304   3.037   4.767 -0.1771 -0.0813  0.1693
  283POPC   PO4 3879   3.127   3.421   4.762 -0.2262  0.2207  0.0649
  283POPC   GL1 3880   3.126   3.553   5.119 -0.2603 -0.0980  0.0338
  283POPC   GL2 3881   3.073   3.477   5.319 -0.1089 -0.0298 -0.1201
  283POPC   C1A 3882   2.822   3.887   5.352 -0.5045 -0.0443  0.1099
  283POPC   D2A 3883   2.450   3.926   5.645 -0.3203 -0.0654 -0.1821
  283POPC   C3A 3884   2.525   3.944   6.057 -0.2219  0.1432 -0.0704
  283POPC   C4A 3885   2.486   4.191   6.460  0.0525  0.1672  0.1660
  283POPC   C1B 3886   2.831   3.572   5.703  0.0066 -0.0931 -0.2589
  283POPC   C2B 3887   2.808   3.356   6.125 -0.2510  0.1032  0.0466
  283POPC   C3B 3888   3.026   3.119   6.367 -0.1104 -0.0773 -0.1866
  283POPC   C4B 3889   3.061   3.224   6.829 -0.1182 -0.0596  0.3784
  284POPC   NC3 3890   0.988   9.087   4.150 -0.0503  0.0870  0.1266
  284POPC   PO4 3891   0.829   8.905   4.606 -0.3591 -0.0963  0.1209
  284POPC   GL1 3892   0.966   8.805   5.047 -0.0143 -0.2942  0.1458
  284POPC   GL2 3893   1.220   8.571   5.118 -0.0741  0.1008  0.3243
  284POPC   C1A 3894   1.069   8.928   5.434 -0.0646 -0.0295 -0.3439
  284POPC   D2A 3895   1.379   9.157   5.676 -0.0464 -0.0197  0.0895
  284POPC   C3A 3896   1.457   9.075   6.088  0.1831  0.4372 -0.2445
  284POPC   C4A 3897   1.438   9.157   6.497  0.0644  0.4449  0.1117
  284POPC   C1B 3898   1.467   8.661   5.544 -0.2146  0.0069  0.0701
  284POPC   C2B 3899   1.821   8.767   5.762  0.0264  0.1430  0.0664
  284POPC   C3B 3900   2.156   8.956   5.987 -0.0452  0.2630 -0.0585
  284POPC   C4B 3901   1.974   9.032   6.392  0.0430  0.1803 -0.2246
  285POPC   NC3 3902   6.840   2.034   4.900  0.1327  0.0263  0.0905
  285POPC   PO4 3903   6.572   1.818   5.324 -0.1084 -0.0804 -0.0595
  285POPC   GL1 3904   6.649   1.923   5.807  0.0467 -0.2631  0.1000
  285POPC   GL2 3905   6.660   1.607   5.784  0.2200  0.2205 -0.0441
  285POPC   C1A 3906   6.956   2.076   6.035 -0.4014  0.2725 -0.1370
  285POPC   D2A 3907   7.074   2.008   6.535  0.3723  0.3423  0.0973
  285POPC   C3A 3908   6.655   1.961   6.760  0.2890 -0.3782 -0.1553
  285POPC   C4A 3909   6.311   2.233   6.722  0.2857  0.1748  0.3477
  285POPC   C1B 3910   6.768   1.657   6.298 -0.1301  0.2109  0.1579
  285POPC   C2B 3911   7.033   1.550   6.633  0.4851  0.1973 -0.2265
  285POPC   C3B 3912   7.242   1.353   7.023 -0.3045  0.0931 -0.1216
  285POPC   C4B 3913   7.504   1.342   7.333 -0.3427 -0.1553  0.2341
  286POPC   NC3 3914   1.165   2.626   4.491 -0.1371  0.0750 -0.0780
  286POPC   PO4 3915   1.337   3.002   4.671  0.2750  0.0795 -0.1257
  286POPC   GL1 3916   1.462   2.680   4.987  0.1572  0.1244  0.2089
  286POPC   GL2 3917   1.485   2.388   4.798 -0.0094 -0.0790  0.4137
  286POPC   C1A 3918   1.679   2.515   5.411 -0.0362 -0.3271  0.1791
  286POPC   D2A 3919   1.925   2.710   5.760 -0.0135 -0.4231  0.0742
  286POPC   C3A 3920   2.071   2.971   6.073 -0.0876  0.1297 -0.1851
  286POPC   C4A 3921   2.177   3.038   6.555  0.0020  0.2330 -0.0390
  286POPC   C1B 3922   1.083   2.220   5.005  0.0169  0.4069  0.2240
  286POPC   C2B 3923   0.832   2.099   5.454 -0.3784  0.0189  0.1896
  286POPC   C3B 3924   1.134   2.222   5.831  0.2071  0.3518  0.0086
  286POPC   C4B 3925   1.233   2.613   6.063  0.1244  0.1753 -0.0908
  287POPC   NC3 3926   8.963  10.306   4.341  0.1267 -0.0249 -0.0142
  287POPC   PO4 3927   8.795  10.643   4.327  0.1113  0.0649 -0.0445
  287POPC   GL1 3928   9.013  10.856   4.584 -0.1929 -0.0734 -0.1107
  287POPC   GL2 3929   9.256  10.590   4.712 -0.1393  0.0618 -0.0213
  287POPC   C1A 3930   9.131  11.207   4.798 -0.2200 -0.0766 -0.2311
  287POPC   D2A 3931   9.325  11.517   4.711 -0.5848 -0.1766  0.0638
  287POPC   C3A 3932   9.093  11.814   4.537 -0.0531  0.1224  0.5052
  287POPC   C4A 3933   8.701  11.773   4.263  0.1573  0.0751 -0.0549
  287POPC   C1B 3934   8.991  10.682   5.152 -0.1725  0.1428 -0.1130
  287POPC   C2B 3935   8.862  10.766   5.470 -0.3006 -0.0349  0.1699
  287POPC   C3B 3936   8.638  10.647   5.783 -0.0178  0.1899  0.2265
  287POPC   C4B 3937   8.523  10.447   6.173 -0.0685 -0.0092  0.1772
  288POPC   NC3 3938   6.348   6.207   4.378 -0.1786 -0.1044 -0.1035
  288POPC   PO4 3939   6.075   6.370   4.769 -0.3146  0.2534 -0.3653
  288POPC   GL1 3940   6.086   6.353   5.257 -0.0574  0.1810  0.0167
  288POPC   GL2 3941   6.390   6.289   5.442  0.1945  0.1612 -0.0052
  288POPC   C1A 3942   5.987   6.175   5.642 -0.1062  0.0842 -0.2297
  288POPC   D2A 3943   5.859   6.107   6.098 -0.0010 -0.0726 -0.1107
  288POPC   C3A 3944   5.973   6.471   6.285  0.0466  0.2835 -0.0961
  288POPC   C4A 3945   5.891   6.755   6.432 -0.0595 -0.0782 -0.0943
  288POPC   C1B 3946   6.319   6.565   5.876  0.0207  0.1519 -0.0125
  288POPC   C2B 3947   6.482   6.508   6.342  0.2530 -0.0826  0.4374
  288POPC   C3B 3948   6.241   6.601   6.745 -0.0495 -0.2123  0.2947
  288POPC   C4B 3949   5.737   6.635   6.871 -0.2293  0.0222 -0.3257
  289POPC   NC3 3950   6.234   2.695   5.403 -0.1497  0.0550 -0.1237
  289POPC   PO4 3951   6.500   2.822   5.177 -0.3299  0.4163 -0.1801
  289POPC   GL1 3952   6.797   2.803   5.516 -0.1588  0.1409 -0.3153
  289POPC   GL2 3953   6.536   2.846   5.806  0.3154  0.1843 -0.0088
  289POPC   C1A 3954   6.957   2.655   5.959  0.1464 -0.2882 -0.2074
  289POPC   D2A 3955   7.173   2.469   6.296  0.0962  0.2772  0.1693
  289POPC   C3A 3956   7.309   2.628   6.710  0.0701  0.2834 -0.2307
  289POPC   C4A 3957   7.282   2.897   7.055  0.1928 -0.1751  0.1332
  289POPC   C1B 3958   6.478   2.825   6.205 -0.0389  0.2249 -0.3386
  289POPC   C2B 3959   6.685   2.906   6.524 -0.0556  0.0709 -0.1463
  289POPC   C3B 3960   7.155   3.055   6.578  0.0977 -0.4584  0.2623
  289POPC   C4B 3961   7.584   3.206   6.725 -0.1750  0.1312 -0.3342
  290POPC   NC3 3962  10.246   1.785   3.356  0.2201  0.0082 -0.1875
  290POPC   PO4 3963   9.839   2.002   3.483  0.0448 -0.0183  0.1299
  290POPC   GL1 3964   9.760   1.703   3.736  0.2280 -0.3279  0.0462
  290POPC   GL2 3965   9.864   1.403   3.601 -0.1633 -0.1002  0.0294
  290POPC   C1A 3966   9.563   1.698   4.136  0.1938  0.0829  0.0005
  290POPC   D2A 3967   9.406   1.736   4.539  0.2334 -0.0370  0.2979
  290POPC   C3A 3968   9.623   1.841   4.892 -0.1316  0.0565  0.1466
  290POPC   C4A 3969  10.034   2.084   5.065 -0.2910  0.1144 -0.0096
  290POPC   C1B 3970   9.931   1.334   4.050 -0.0044 -0.1822  0.1348
  290POPC   C2B 3971  10.140   1.149   4.404  0.1129  0.0850 -0.0157
  290POPC   C3B 3972  10.142   1.099   4.821  0.4150  0.0645  0.0809
  290POPC   C4B 3973  10.332   0.999   5.249  0.3514 -0.1424 -0.0354
  291POPC   NC3 3974   3.636  10.188   4.698  0.4118 -0.1317 -0.1887
  291POPC   PO4 3975   3.707  10.456   4.993 -0.0766  0.1534 -0.0147
  291POPC   GL1 3976   3.927  10.437   5.421 -0.1692 -0.4954 -0.0530
  291POPC   GL2 3977   4.117  10.764   5.462  0.0018 -0.1211 -0.1229
  291POPC   C1A 3978   4.003  10.390   5.978  0.1320  0.1605  0.0808
  291POPC   D2A 3979   3.674  10.523   6.301  0.2166 -0.0353  0.2822
  291POPC   C3A 3980   3.168  10.352   6.529  0.1104  0.2585  0.1621
  291POPC   C4A 3981   2.664  10.259   6.539 -0.2576 -0.3283  0.1636
  291POPC   C1B 3982   4.270  10.865   5.912 -0.0915  0.3954  0.1501
  291POPC   C2B 3983   4.386  10.575   6.248  0.2610 -0.0944  0.1775
  291POPC   C3B 3984   4.444  10.250   6.590  0.0392  0.2481 -0.0479
  291POPC   C4B 3985   4.859  10.137   6.786 -0.0526 -0.0804 -0.0361
  292POPC   NC3 3986   0.108   7.284   4.631 -0.0443 -0.0232  0.1658
  292POPC   PO4 3987   0.522   7.066   4.857 -0.2279  0.4681 -0.0296
  292POPC   GL1 3988   0.577   6.935   5.177  0.0337  0.1159  0.1312
  292POPC   GL2 3989   0.865   6.762   5.189 -0.1211  0.0147 -0.2417
  292POPC   C1A 3990   0.608   6.946   5.659 -0.2611 -0.1637  0.1632
  292POPC   D2A 3991   0.846   7.023   6.016  0.4170 -0.2774 -0.5273
  292POPC   C3A 3992   0.921   7.132   6.453  0.0068  0.0869  0.2312
  292POPC   C4A 3993   0.847   7.351   6.813 -0.0361 -0.3592 -0.1497
  292POPC   C1B 3994   0.960   6.595   5.698  0.1726 -0.0965  0.2302
  292POPC   C2B 3995   1.089   6.348   6.158  0.1318 -0.1995 -0.2442
  292POPC   C3B 3996   0.909   6.074   6.381  0.0898 -0.1676 -0.0023
  292POPC   C4B 3997   1.017   5.659   6.361  0.2563  0.2067  0.2524
  293POPC   NC3 3998   5.090   7.395   5.255 -0.2050  0.2237 -0.4786
  293POPC   PO4 3999   5.442   7.468   5.057  0.1576 -0.0680 -0.2223
  293POPC   GL1 4000   5.544   7.342   5.474  0.0056  0.0025  0.3489
  293POPC   GL2 4001   5.538   6.926   5.509  0.0284 -0.0025 -0.1882
  293POPC   C1A 4002   5.610   7.209   5.905 -0.5906  0.0164  0.1499
  293POPC   D2A 4003   5.497   7.054   6.307  0.0662 -0.0979 -0.0816
  293POPC   C3A 4004   5.145   7.141   6.474 -0.4090  0.0092  0.3243
  293POPC   C4A 4005   4.961   7.357   6.834  0.1400  0.0460 -0.2970
  293POPC   C1B 4006   5.226   6.954   5.809  0.0703 -0.1318 -0.1731
  293POPC   C2B 4007   5.075   7.281   5.996 -0.0242 -0.1113  0.2212
  293POPC   C3B 4008   4.998   7.600   6.375  0.1078  0.0352  0.2020
  293POPC   C4B 4009   4.747   8.025   6.310  0.2435  0.0563 -0.2084
  294POPC   NC3 4010   8.851   9.302   5.101 -0.0613 -0.1482 -0.0932
  294POPC   PO4 4011   8.597   9.002   4.830 -0.1350  0.0106  0.0871
  294POPC   GL1 4012   8.435   8.674   5.079  0.2990 -0.2462  0.0531
  294POPC   GL2 4013   8.172   8.877   5.177 -0.1263 -0.1941 -0.1476
  294POPC   C1A 4014   8.537   8.737   5.459  0.4148 -0.1333  0.3591
  294POPC   D2A 4015   8.483   8.926   5.832 -0.2487 -0.3275  0.1751
  294POPC   C3A 4016   8.766   8.896   6.172  0.2844 -0.1168 -0.2234
  294POPC   C4A 4017   8.836   8.727   6.511 -0.0489  0.2560  0.0753
  294POPC   C1B 4018   8.033   8.810   5.669 -0.2265  0.2139  0.2700
  294POPC   C2B 4019   7.979   8.668   6.147 -0.0079  0.0843 -0.0825
  294POPC   C3B 4020   7.907   8.457   6.531  0.0992  0.1951 -0.0910
  294POPC   C4B 4021   8.053   8.488   6.963  0.2715 -0.2294 -0.0681
  295POPC   NC3 4022   6.858   4.427   4.599  0.2696 -0.3713 -0.0525
  295POPC   PO4 4023   6.516   4.211   4.835 -0.3390  0.2072 -0.1210
  295POPC   GL1 4024   6.490   4.049   5.259  0.2706 -0.2781 -0.0282
  295POPC   GL2 4025   6.812   4.155   5.375  0.3560 -0.3145 -0.3801
  295POPC   C1A 4026   6.356   3.850   5.647 -0.0560  0.3890  0.2228
  295POPC   D2A 4027   6.512   3.622   6.005  0.0766  0.0281  0.0794
  295POPC   C3A 4028   6.380   3.276   5.936 -0.1034  0.1406 -0.0781
  295POPC   C4A 4029   5.977   3.089   6.208  0.1845 -0.1418  0.5999
  295POPC   C1B 4030   6.723   4.203   5.848  0.0706  0.1495  0.2062
  295POPC   C2B 4031   6.635   4.117   6.308 -0.0980 -0.0290  0.0635
  295POPC   C3B 4032   6.754   4.205   6.751 -0.2156  0.0622 -0.2303
  295POPC   C4B 4033   6.583   4.133   7.199 -0.4529  0.0188 -0.1232
  296POPC   NC3 4034   4.665   3.881   5.164 -0.0979  0.1337  0.0582
  296POPC   PO4 4035   5.023   3.630   5.230  0.1098  0.0760 -0.0744
  296POPC   GL1 4036   5.008   3.775   5.669 -0.1385  0.1003  0.0790
  296POPC   GL2 4037   4.607   3.875   5.858  0.0792 -0.1114 -0.0915
  296POPC   C1A 4038   5.266   3.490   6.089  0.0991  0.3309 -0.0859
  296POPC   D2A 4039   5.396   3.718   6.388 -0.3050 -0.0518 -0.0911
  296POPC   C3A 4040   5.444   3.570   6.755 -0.2242  0.2072  0.1341
  296POPC   C4A 4041   5.801   3.566   6.973 -0.2797  0.2821  0.2127
  296POPC   C1B 4042   4.846   3.838   6.183 -0.2655  0.1555 -0.1391
  296POPC   C2B 4043   4.989   3.893   6.613 -0.3220  0.2356 -0.1482
  296POPC   C3B 4044   5.286   4.032   6.868  0.0721  0.3871 -0.1445
  296POPC   C4B 4045   5.327   4.444   6.802 -0.1103 -0.0485 -0.2284
  297POPC   NC3 4046   7.443   5.325   4.492  0.1141  0.0949  0.1725
  297POPC   PO4 4047   7.373   5.594   4.825  0.0173 -0.1453 -0.2550
  297POPC   GL1 4048   7.524   5.525   5.298 -0.5396  0.0340 -0.0929
  297POPC   GL2 4049   7.593   5.780   5.482  0.0997 -0.0121 -0.0698
  297POPC   C1A 4050   7.676   5.348   5.673 -0.1652  0.0919  0.0150
  297POPC   D2A 4051   7.961   5.322   6.004 -0.0821 -0.0785  0.0248
  297POPC   C3A 4052   8.264   5.027   6.188 -0.1580  0.0793 -0.2540
  297POPC   C4A 4053   8.444   4.726   6.344 -0.1621  0.0895  0.4160
  297POPC   C1B 4054   7.753   5.798   5.887 -0.2326  0.0600 -0.1316
  297POPC   C2B 4055   7.883   5.750   6.321 -0.2774  0.0185 -0.1781
  297POPC   C3B 4056   8.047   5.550   6.577 -0.1564  0.2550 -0.1867
  297POPC   C4B 4057   8.233   5.520   6.857  0.1501  0.1231 -0.2455
  298POPC   NC3 4058   9.764   6.831   4.922 -0.1546 -0.0011  0.0021
  298POPC   PO4 4059   9.280   6.948   4.946  0.0087  0.0705 -0.0749
  298POPC   GL1 4060   9.319   7.047   5.363 -0.1650 -0.3352 -0.2882
  298POPC   GL2 4061   9.099   7.351   5.459 -0.0205 -0.1161  0.0536
  298POPC   C1A 4062   9.399   7.168   5.884  0.1449 -0.0458  0.1660
  298POPC   D2A 4063   9.323   7.229   6.215  0.1577 -0.1390 -0.0743
  298POPC   C3A 4064   9.485   7.139   6.604 -0.3009  0.1070  0.0019
  298POPC   C4A 4065   9.820   6.963   6.830 -0.2090 -0.2153 -0.0916
  298POPC   C1B 4066   8.954   7.424   5.904 -0.1853 -0.1344 -0.0112
  298POPC   C2B 4067   8.784   7.417   6.271  0.1112 -0.0489 -0.6895
  298POPC   C3B 4068   8.654   7.421   6.773 -0.0246  0.0416  0.1453
  298POPC   C4B 4069   8.421   7.232   6.999 -0.0447  0.1565 -0.1387
  299POPC   NC3 4070   8.026   0.216   4.630  0.2461 -0.1377 -0.2846
  299POPC   PO4 4071   7.626   0.300   4.603  0.3288  0.0289 -0.0948
  299POPC   GL1 4072   7.774   0.429   5.020 -0.0370 -0.0550 -0.2675
  299POPC   GL2 4073   8.148   0.491   5.027 -0.0003 -0.2023  0.0621
  299POPC   C1A 4074   7.889   0.240   5.371 -0.2109  0.4537  0.2784
  299POPC   D2A 4075   8.144   0.030   5.702  0.0858  0.3444 -0.0987
  299POPC   C3A 4076   7.996   0.089   6.128  0.2192 -0.1688 -0.0752
  299POPC   C4A 4077   8.177  -0.121   6.619 -0.0325  0.0835  0.0548
  299POPC   C1B 4078   8.694   0.550   5.034 -0.0550 -0.2036  0.0570
  299POPC   C2B 4079   8.898   0.776   5.419 -0.2107  0.3477  0.0318
  299POPC   C3B 4080   8.794   0.635   5.873  0.0364  0.3239 -0.3234
  299POPC   C4B 4081   8.768   0.386   6.250  0.0641 -0.0043  0.0701
  300POPC   NC3 4082   2.928   4.856   4.621 -0.0916  0.0108 -0.0677
  300POPC   PO4 4083   2.745   5.313   4.632 -0.2650 -0.3323 -0.3369
  300POPC   GL1 4084   2.759   5.401   5.101  0.0052  0.0523  0.0434
  300POPC   GL2 4085   2.883   5.310   5.276 -0.0577  0.1144  0.2755
  300POPC   C1A 4086   2.494   5.708   5.259 -0.0085  0.1997 -0.0462
  300POPC   D2A 4087   2.118   5.895   5.634 -0.0757 -0.0800  0.0834
  300POPC   C3A 4088   2.296   6.154   6.007  0.2907 -0.2004 -0.1391
  300POPC   C4A 4089   2.435   6.145   6.439  0.3925 -0.4246 -0.5171
  300POPC   C1B 4090   2.913   5.332   5.804 -0.1438 -0.1091  0.2150
  300POPC   C2B 4091   3.106   5.263   6.214  0.2914  0.0212  0.0060
  300POPC   C3B 4092   3.033   4.844   6.433  0.4991 -0.5471  0.0307
  300POPC   C4B 4093   2.895   4.557   6.748 -0.0752 -0.2863  0.1636
  301POPC   NC3 4094   9.519   8.281   4.822  0.1752  0.0287  0.4364
  301POPC   PO4 4095   9.271   8.511   4.719  0.1610 -0.0946 -0.0968
  301POPC   GL1 4096   9.460   8.645   5.137  0.2052  0.0018 -0.2953
  301POPC   GL2 4097   9.449   8.323   5.393 -0.1866 -0.2185  0.3486
  301POPC   C1A 4098   9.786   8.856   5.393  0.2040  0.2040  0.1224
  301POPC   D2A 4099   9.633   8.888   5.809 -0.0109  0.2080 -0.0030
  301POPC   C3A 4100   9.265   8.908   5.965  0.2973 -0.2702  0.1458
  301POPC   C4A 4101   8.959   9.226   5.757  0.4166 -0.2090  0.2018
  301POPC   C1B 4102   9.282   8.435   5.848  0.1264 -0.0923  0.0622
  301POPC   C2B 4103   9.041   8.335   6.207 -0.2655  0.0732  0.1813
  301POPC   C3B 4104   9.318   8.313   6.552  0.0878  0.0952  0.2243
  301POPC   C4B 4105   9.389   8.068   6.775  0.1160 -0.1817  0.0729
  302POPC   NC3 4106   1.586   9.546   4.549  0.1048 -0.2042  0.1398
  302POPC   PO4 4107   1.233   9.241   4.656 -0.1772  0.0500 -0.0711
  302POPC   GL1 4108   0.876   9.273   4.960  0.1409  0.0213 -0.1211
  302POPC   GL2 4109   1.096   9.392   5.154 -0.0623  0.1121 -0.0894
  302POPC   C1A 4110   0.602   9.160   5.306  0.3439 -0.1073  0.1131
  302POPC   D2A 4111   0.660   9.094   5.703  0.1482  0.1018  0.1905
  302POPC   C3A 4112   1.010   9.037   6.003 -0.0470  0.0997  0.2148
  302POPC   C4A 4113   1.081   8.822   6.402  0.0290 -0.1797  0.0075
  302POPC   C1B 4114   0.896   9.567   5.540  0.1559 -0.2907  0.2829
  302POPC   C2B 4115   0.756   9.534   5.912 -0.1233 -0.2698 -0.0754
  302POPC   C3B 4116   0.444   9.357   6.124 -0.1392 -0.2264  0.2412
  302POPC   C4B 4117   0.592   8.906   6.235 -0.0793 -0.1549 -0.0762
  303POPC   NC3 4118   7.444   9.598   4.840  0.1338 -0.1163 -0.3334
  303POPC   PO4 4119   7.444   9.994   4.681  0.0006 -0.1232  0.0598
  303POPC   GL1 4120   7.473  10.030   5.187  0.4794  0.3535 -0.1531
  303POPC   GL2 4121   7.206   9.981   5.431  0.2695  0.2152  0.0764
  303POPC   C1A 4122   7.656  10.238   5.513  0.2136  0.0798  0.0169
  303POPC   D2A 4123   7.800  10.200   5.836 -0.1154 -0.0602  0.2593
  303POPC   C3A 4124   7.779  10.041   6.262  0.2392 -0.2017 -0.2158
  303POPC   C4A 4125   7.816  10.038   6.793 -0.0285  0.0792 -0.0467
  303POPC   C1B 4126   7.393   9.867   5.849 -0.1209  0.2745 -0.0082
  303POPC   C2B 4127   7.393   9.728   6.242 -0.3064 -0.0164 -0.4681
  303POPC   C3B 4128   7.605   9.561   6.691 -0.0890  0.0999  0.0528
  303POPC   C4B 4129   7.560   9.647   7.151 -0.4239 -0.3571  0.2968
  304POPC   NC3 4130   0.579   7.803   4.715  0.0580  0.1235  0.0085
  304POPC   PO4 4131   0.286   8.111   4.786  0.0591  0.0350  0.0464
  304POPC   GL1 4132   0.345   7.968   5.283  0.1910  0.1639  0.0159
  304POPC   GL2 4133   0.457   8.213   5.486 -0.0088  0.1278  0.0505
  304POPC   C1A 4134   0.289   7.782   5.682 -0.3871  0.2362  0.1616
  304POPC   D2A 4135   0.159   7.780   6.124  0.1877  0.0459 -0.2283
  304POPC   C3A 4136  -0.127   7.788   6.355 -0.0236  0.2496  0.1733
  304POPC   C4A 4137  -0.270   7.743   6.839 -0.2611  0.2322 -0.0311
  304POPC   C1B 4138   0.453   8.267   5.873  0.1769  0.1375  0.1348
  304POPC   C2B 4139   0.654   8.226   6.280  0.0755 -0.4775 -0.2098
  304POPC   C3B 4140   0.360   8.083   6.463 -0.3103 -0.0735 -0.0612
  304POPC   C4B 4141   0.300   7.718   6.711 -0.1894 -0.2453 -0.4457
  305POPC   NC3 4142   8.980   6.518   4.930 -0.1308 -0.1041  0.3589
  305POPC   PO4 4143   9.445   6.390   4.843 -0.2093  0.2206  0.2107
  305POPC   GL1 4144   9.636   6.512   5.303  0.0872 -0.2278  0.1291
  305POPC   GL2 4145   9.300   6.371   5.414 -0.0976  0.0939 -0.0791
  305POPC   C1A 4146   9.645   6.786   5.632 -0.0476  0.1046  0.1973
  305POPC   D2A 4147   9.550   6.727   6.086  0.3281 -0.0784  0.1208
  305POPC   C3A 4148   9.168   6.768   6.370 -0.2189 -0.0890 -0.1559
  305POPC   C4A 4149   9.026   7.023   6.775 -0.0162  0.1773 -0.1134
  305POPC   C1B 4150   9.382   6.308   5.792 -0.1964 -0.2107  0.1848
  305POPC   C2B 4151   9.355   6.294   6.290 -0.1943 -0.0586 -0.0468
  305POPC   C3B 4152   9.271   6.195   6.701  0.0981  0.1613  0.0333
  305POPC   C4B 4153   9.575   6.163   7.040  0.2171 -0.2458 -0.0377
  306POPC   NC3 4154   3.980   9.229   4.527 -0.0644 -0.0709  0.0680
  306POPC   PO4 4155   4.232   9.538   4.462 -0.1907 -0.0318  0.4627
  306POPC   GL1 4156   4.088   9.378   4.978 -0.3783 -0.1376  0.1453
  306POPC   GL2 4157   4.242   9.029   5.200 -0.2560  0.0898  0.0121
  306POPC   C1A 4158   4.021   9.559   5.334  0.1557 -0.0849 -0.0355
  306POPC   D2A 4159   3.994   9.970   5.655 -0.2720 -0.2573 -0.1720
  306POPC   C3A 4160   3.808   9.923   6.028  0.0799 -0.1694 -0.2130
  306POPC   C4A 4161   3.555  10.050   6.297 -0.0268 -0.0726  0.1966
  306POPC   C1B 4162   3.899   9.052   5.540  0.1387  0.1600  0.1843
  306POPC   C2B 4163   3.976   8.703   5.914 -0.0906 -0.2895  0.1697
  306POPC   C3B 4164   3.766   8.519   6.156 -0.0231 -0.2927  0.0604
  306POPC   C4B 4165   3.400   8.250   6.246  0.1167  0.1860  0.1691
  307POPC   NC3 4166   9.024   8.239   5.059  0.0814  0.0957 -0.1310
  307POPC   PO4 4167   8.735   7.869   4.993 -0.1048 -0.0693  0.3642
  307POPC   GL1 4168   8.801   7.776   5.476  0.0573 -0.0284 -0.3371
  307POPC   GL2 4169   9.051   7.963   5.521 -0.5217 -0.1262 -0.3282
  307POPC   C1A 4170   8.608   8.006   5.783  0.0197 -0.0498  0.0936
  307POPC   D2A 4171   8.530   7.937   6.183 -0.1959  0.3045 -0.0482
  307POPC   C3A 4172   8.288   7.718   6.515  0.0666 -0.2545 -0.0783
  307POPC   C4A 4173   8.082   7.546   6.833 -0.0471 -0.0103  0.4205
  307POPC   C1B 4174   9.092   7.897   6.018 -0.2058 -0.1353  0.0746
  307POPC   C2B 4175   8.913   7.892   6.432  0.0307 -0.1471 -0.1115
  307POPC   C3B 4176   8.861   8.272   6.709 -0.0440 -0.0430 -0.0336
  307POPC   C4B 4177   8.547   8.552   6.872  0.2721 -0.0725  0.0624
  308POPC   NC3 4178   2.627   4.408   4.485  0.5050 -0.0129 -0.3336
  308POPC   PO4 4179   2.245   4.265   4.600 -0.0942  0.0768  0.2305
  308POPC   GL1 4180   2.317   4.357   4.957 -0.2377  0.0150  0.0348
  308POPC   GL2 4181   2.272   4.167   5.159 -0.1623  0.0685 -0.0108
  308POPC   C1A 4182   2.104   4.626   5.254 -0.3709  0.0186 -0.0342
  308POPC   D2A 4183   2.008   4.981   5.567  0.1116  0.0785  0.1496
  308POPC   C3A 4184   2.311   5.046   5.953  0.1061 -0.0283  0.0033
  308POPC   C4A 4185   2.600   5.215   6.241  0.0648  0.2797  0.0518
  308POPC   C1B 4186   2.177   3.724   5.251  0.5732 -0.1406  0.3043
  308POPC   C2B 4187   1.963   3.371   5.540 -0.3286 -0.1995 -0.0928
  308POPC   C3B 4188   1.696   3.294   5.891 -0.0465  0.2266 -0.0555
  308POPC   C4B 4189   1.845   3.373   6.342  0.1158  0.0303 -0.0509
  309POPC   NC3 4190   2.153   6.800   4.938 -0.0489  0.1673  0.0237
  309POPC   PO4 4191   1.772   6.960   4.984  0.0999 -0.0876 -0.2699
  309POPC   GL1 4192   1.987   6.831   5.385 -0.0883  0.0221 -0.2369
  309POPC   GL2 4193   2.169   6.433   5.287 -0.1220  0.0322  0.3111
  309POPC   C1A 4194   2.298   6.719   5.699 -0.2738  0.0580  0.0701
  309POPC   D2A 4195   2.492   7.130   5.959  0.1635  0.1432  0.2546
  309POPC   C3A 4196   2.325   7.520   6.084  0.2717  0.1932 -0.3951
  309POPC   C4A 4197   2.488   7.688   6.419 -0.2843  0.1413 -0.0545
  309POPC   C1B 4198   2.598   6.175   5.437  0.1626  0.2599 -0.2474
  309POPC   C2B 4199   2.741   5.903   5.727  0.0628  0.1173  0.3137
  309POPC   C3B 4200   2.756   5.758   6.111 -0.0001  0.0264  0.2725
  309POPC   C4B 4201   2.852   5.545   6.541 -0.0254  0.0032 -0.1587
  310POPC   NC3 4202   3.822   4.417   4.800 -0.0766  0.3372  0.3303
  310POPC   PO4 4203   3.415   4.636   4.672  0.0430  0.2194 -0.1957
  310POPC   GL1 4204   3.380   4.349   5.071 -0.0520  0.1804 -0.0958
  310POPC   GL2 4205   3.720   4.284   5.238  0.3466 -0.1013  0.2027
  310POPC   C1A 4206   3.116   4.382   5.562  0.1986 -0.1287  0.0252
  310POPC   D2A 4207   2.947   4.320   5.951  0.1171  0.1024  0.1448
  310POPC   C3A 4208   2.995   4.350   6.328 -0.2811  0.0014  0.0016
  310POPC   C4A 4209   3.380   4.461   6.630  0.2183 -0.0129  0.1596
  310POPC   C1B 4210   3.644   4.194   5.529 -0.2453  0.0148  0.0594
  310POPC   C2B 4211   3.553   4.195   5.912 -0.0097  0.0138  0.0896
  310POPC   C3B 4212   3.427   4.111   6.303  0.3203 -0.1568  0.1563
  310POPC   C4B 4213   3.559   3.999   6.549  0.0858  0.0732 -0.2046
  311POPC   NC3 4214   8.863   3.652   3.519 -0.2342 -0.1856 -0.0991
  311POPC   PO4 4215   8.571   3.598   3.809  0.2774 -0.0606  0.3535
  311POPC   GL1 4216   8.415   3.572   4.252  0.0051  0.0139 -0.0363
  311POPC   GL2 4217   8.693   3.399   4.294 -0.3362 -0.0423 -0.0197
  311POPC   C1A 4218   8.151   3.745   4.649 -0.1475 -0.3183  0.1244
  311POPC   D2A 4219   7.911   3.639   5.076 -0.0398 -0.4289  0.3285
  311POPC   C3A 4220   7.724   3.417   5.207 -0.1792 -0.0968 -0.4598
  311POPC   C4A 4221   7.445   3.166   5.523 -0.0496 -0.0207  0.1844
  311POPC   C1B 4222   9.096   3.230   4.220  0.2149  0.0654 -0.2951
  311POPC   C2B 4223   9.372   2.865   4.215 -0.2445 -0.1565  0.5036
  311POPC   C3B 4224   9.721   2.517   4.278  0.1613  0.0435 -0.0359
  311POPC   C4B 4225   9.718   2.162   4.448  0.0198 -0.2519  0.1413
  312POPC   NC3 4226   9.102   0.536   3.800 -0.1574 -0.0515 -0.2341
  312POPC   PO4 4227   9.463   0.597   3.916 -0.2247 -0.1690 -0.0240
  312POPC   GL1 4228   9.392   1.008   3.899  0.1759  0.2629 -0.0643
  312POPC   GL2 4229   9.530   1.065   4.225  0.0059  0.1281  0.0520
  312POPC   C1A 4230   9.148   1.341   3.997  0.2273 -0.2019 -0.4311
  312POPC   D2A 4231   9.041   1.754   4.176  0.0669 -0.0396 -0.0187
  312POPC   C3A 4232   8.903   1.975   4.518  0.1884  0.1603  0.2268
  312POPC   C4A 4233   9.132   2.042   4.837 -0.1928  0.0964  0.0593
  312POPC   C1B 4234   9.707   1.308   4.487  0.0657 -0.0924 -0.0441
  312POPC   C2B 4235   9.706   1.343   4.960  0.0352 -0.1595  0.2494
  312POPC   C3B 4236   9.906   1.268   5.269  0.0516 -0.0896  0.3105
  312POPC   C4B 4237  10.074   1.041   5.656 -0.0714  0.1103 -0.1656
  313POPC   NC3 4238   3.140   2.249   4.540  0.2521  0.1637  0.3757
  313POPC   PO4 4239   2.756   2.234   4.799 -0.0063  0.0726 -0.2065
  313POPC   GL1 4240   2.965   2.292   5.248 -0.0331  0.5877 -0.1565
  313POPC   GL2 4241   2.949   2.581   5.466  0.0817  0.0394  0.1121
  313POPC   C1A 4242   3.069   1.978   5.577  0.0609  0.0146  0.0747
  313POPC   D2A 4243   3.268   1.908   5.872  0.1124 -0.1014  0.0748
  313POPC   C3A 4244   3.460   2.290   6.126  0.0374  0.0004 -0.0949
  313POPC   C4A 4245   3.643   2.648   6.042 -0.1311 -0.0622 -0.0092
  313POPC   C1B 4246   2.784   2.267   5.857 -0.1025  0.1484 -0.4208
  313POPC   C2B 4247   2.978   2.143   6.194  0.1921  0.1596 -0.0114
  313POPC   C3B 4248   3.256   1.877   6.420  0.1630  0.1524 -0.0232
  313POPC   C4B 4249   3.071   1.986   6.782 -0.0827  0.1605 -0.2775
  314POPC   NC3 4250   7.413   1.087   4.273 -0.0699  0.1011  0.1869
  314POPC   PO4 4251   7.130   1.243   4.628  0.0410  0.0098 -0.0357
  314POPC   GL1 4252   7.216   1.280   5.049 -0.3056 -0.2609 -0.1976
  314POPC   GL2 4253   7.121   1.565   5.326 -0.0271 -0.1247  0.0426
  314POPC   C1A 4254   7.573   1.332   5.393  0.1097 -0.1059  0.0558
  314POPC   D2A 4255   7.708   1.163   5.750  0.2621  0.1212 -0.0148
  314POPC   C3A 4256   8.152   1.048   5.845  0.2003  0.0534 -0.1574
  314POPC   C4A 4257   8.552   1.114   5.740  0.2668 -0.3853 -0.0927
  314POPC   C1B 4258   7.167   1.730   5.721 -0.1916 -0.1999 -0.3004
  314POPC   C2B 4259   7.234   1.632   6.157 -0.2752 -0.1734 -0.0333
  314POPC   C3B 4260   7.462   1.370   6.409  0.1192  0.1896 -0.3876
  314POPC   C4B 4261   7.683   1.177   6.835  0.1577 -0.0308 -0.0686
  315POPC   NC3 4262   6.865   9.401   4.850  0.1825  0.0750 -0.0445
  315POPC   PO4 4263   7.044   9.513   5.269 -0.0883 -0.2135 -0.1686
  315POPC   GL1 4264   6.925   9.524   5.665  0.2194 -0.0448  0.1155
  315POPC   GL2 4265   6.658   9.595   5.701 -0.2439 -0.0567  0.2657
  315POPC   C1A 4266   6.987   9.529   6.129 -0.0070 -0.2315  0.3681
  315POPC   D2A 4267   6.615   9.720   6.322  0.0495 -0.0686 -0.2481
  315POPC   C3A 4268   6.599   9.561   6.721  0.1105  0.1911  0.1941
  315POPC   C4A 4269   6.333   9.416   6.921  0.1269 -0.3243 -0.1509
  315POPC   C1B 4270   6.695   9.926   5.917 -0.2106 -0.2055  0.1318
  315POPC   C2B 4271   6.878  10.177   6.218  0.0399 -0.1662 -0.3871
  315POPC   C3B 4272   6.887  10.495   6.433  0.2681  0.3792  0.0806
  315POPC   C4B 4273   7.144  10.762   6.654  0.2884  0.1910 -0.0568
  316POPC   NC3 4274   5.728   7.129   4.771  0.1138 -0.0603  0.2477
  316POPC   PO4 4275   5.842   7.206   5.133  0.0605 -0.1317 -0.0106
  316POPC   GL1 4276   6.051   7.191   5.572  0.0213  0.0525 -0.0774
  316POPC   GL2 4277   6.041   6.927   5.599 -0.0455 -0.2218  0.0090
  316POPC   C1A 4278   6.026   7.063   6.052 -0.0311  0.2784  0.0129
  316POPC   D2A 4279   6.296   7.036   6.415 -0.1009 -0.1292 -0.3933
  316POPC   C3A 4280   6.693   6.951   6.679  0.1645  0.0544  0.0344
  316POPC   C4A 4281   6.872   6.453   6.673 -0.1431  0.1945 -0.1027
  316POPC   C1B 4282   5.732   6.617   5.878 -0.2405  0.0935  0.1340
  316POPC   C2B 4283   5.484   6.533   6.140 -0.0056  0.2086 -0.2461
  316POPC   C3B 4284   5.149   6.175   6.143 -0.3011  0.1566  0.1684
  316POPC   C4B 4285   4.778   5.972   6.039 -0.5593  0.2716 -0.0346
  317POPC   NC3 4286   6.551   8.728   5.139  0.1442  0.2679 -0.2718
  317POPC   PO4 4287   6.510   8.266   5.096 -0.1450  0.3016 -0.3226
  317POPC   GL1 4288   6.201   8.329   5.377  0.1862 -0.0294  0.1618
  317POPC   GL2 4289   6.013   8.149   5.250  0.2197 -0.0868 -0.1237
  317POPC   C1A 4290   6.150   8.640   5.705  0.0305  0.0246  0.1894
  317POPC   D2A 4291   6.222   8.930   6.100 -0.0703  0.1994  0.2300
  317POPC   C3A 4292   5.888   8.710   6.371 -0.1280 -0.0608  0.1115
  317POPC   C4A 4293   5.988   8.246   6.562  0.0109 -0.0157  0.1112
  317POPC   C1B 4294   5.689   8.249   5.694 -0.1713 -0.2251 -0.0152
  317POPC   C2B 4295   5.678   7.983   6.031  0.1560 -0.0423  0.1871
  317POPC   C3B 4296   5.939   7.693   6.359  0.2135  0.0023  0.1967
  317POPC   C4B 4297   6.236   7.547   6.610 -0.0712  0.0496 -0.0781
  318POPC   NC3 4298   6.695   3.124   4.786  0.0186 -0.1861  0.0500
  318POPC   PO4 4299   7.065   3.381   4.941 -0.0694 -0.0941  0.2001
  318POPC   GL1 4300   6.928   3.342   5.286 -0.0299 -0.3295 -0.2407
  318POPC   GL2 4301   6.684   3.538   5.455 -0.1457 -0.1937 -0.2091
  318POPC   C1A 4302   6.999   3.240   5.708 -0.1694  0.1612 -0.0781
  318POPC   D2A 4303   6.797   3.204   6.057  0.0002 -0.1436  0.2787
  318POPC   C3A 4304   6.857   3.518   6.293  0.0332  0.1232 -0.4351
  318POPC   C4A 4305   6.766   3.665   6.710  0.3159 -0.3258  0.0545
  318POPC   C1B 4306   6.997   3.749   5.800  0.0794 -0.1271 -0.1047
  318POPC   C2B 4307   7.290   3.811   6.096  0.0085  0.2613 -0.2635
  318POPC   C3B 4308   7.224   3.895   6.582  0.0203 -0.0746  0.3556
  318POPC   C4B 4309   7.098   3.977   7.050  0.1889  0.1372 -0.0619
  319POPC   NC3 4310   4.036   1.963   4.572  0.0669  0.1630 -0.2546
  319POPC   PO4 4311   3.743   1.773   4.571  0.0854  0.1587 -0.1012
  319POPC   GL1 4312   3.828   1.891   4.999  0.0372 -0.0505 -0.1985
  319POPC   GL2 4313   4.121   1.965   5.210 -0.0827 -0.2455  0.1927
  319POPC   C1A 4314   3.606   1.869   5.455 -0.0698  0.0539 -0.0664
  319POPC   D2A 4315   3.784   2.203   5.741 -0.0525 -0.2192  0.2776
  319POPC   C3A 4316   3.982   2.231   6.227  0.2319  0.1021  0.1911
  319POPC   C4A 4317   4.259   2.127   6.519  0.2362 -0.4091  0.1936
  319POPC   C1B 4318   4.164   1.762   5.642 -0.0504 -0.1222 -0.2155
  319POPC   C2B 4319   4.267   1.808   6.026 -0.1126  0.0109  0.0575
  319POPC   C3B 4320   4.219   1.583   6.345  0.0680  0.1864 -0.0226
  319POPC   C4B 4321   3.903   1.379   6.549 -0.3444  0.2254  0.1078
  320POPC   NC3 4322   6.043   3.980   5.007  0.1165  0.1144 -0.1784
  320POPC   PO4 4323   5.919   3.547   4.902 -0.0114 -0.0685  0.1544
  320POPC   GL1 4324   6.076   3.542   5.323  0.1047 -0.0958 -0.0385
  320POPC   GL2 4325   5.797   3.498   5.406  0.0594  0.1905  0.0030
  320POPC   C1A 4326   6.027   3.545   5.821  0.1311 -0.2120 -0.0917
  320POPC   D2A 4327   5.800   3.645   6.089 -0.2432 -0.2532  0.1869
  320POPC   C3A 4328   5.854   3.451   6.459  0.1615  0.0948  0.0483
  320POPC   C4A 4329   5.801   3.097   6.692 -0.0240 -0.2388 -0.1655
  320POPC   C1B 4330   5.514   3.828   5.691  0.2410 -0.0650 -0.1446
  320POPC   C2B 4331   5.238   4.138   5.994 -0.2810  0.0663  0.0966
  320POPC   C3B 4332   5.180   4.314   6.360 -0.1940  0.4603  0.3149
  320POPC   C4B 4333   4.856   4.748   6.454 -0.0064 -0.0038  0.2970
  321POPC   NC3 4334   4.478   7.314   4.693 -0.0116  0.6390 -0.2147
  321POPC   PO4 4335   4.658   7.516   5.082 -0.0332  0.4237  0.1582
  321POPC   GL1 4336   4.451   7.490   5.484  0.1353  0.3383  0.0113
  321POPC   GL2 4337   4.243   7.250   5.516  0.0326 -0.0735 -0.0575
  321POPC   C1A 4338   4.511   7.475   5.892  0.0895 -0.0144 -0.0042
  321POPC   D2A 4339   4.432   7.609   6.312  0.0663  0.0939 -0.0215
  321POPC   C3A 4340   4.038   7.369   6.385  0.0224  0.0517 -0.0758
  321POPC   C4A 4341   3.804   7.124   6.325 -0.1135 -0.0048  0.2024
  321POPC   C1B 4342   4.167   7.060   5.923 -0.2014 -0.1126  0.1923
  321POPC   C2B 4343   4.255   6.858   6.271 -0.0774 -0.0595 -0.0987
  321POPC   C3B 4344   4.096   6.798   6.595 -0.1211  0.1403 -0.0246
  321POPC   C4B 4345   3.952   7.042   6.914 -0.3395  0.0002 -0.1143
  322POPC   NC3 4346   9.748   7.954   5.156 -0.0543  0.2819 -0.5315
  322POPC   PO4 4347   9.967   7.782   4.811 -0.5289 -0.1382 -0.1761
  322POPC   GL1 4348  10.051   7.590   5.330 -0.3395  0.0794  0.1813
  322POPC   GL2 4349  10.393   7.559   5.478  0.1506  0.1358 -0.0550
  322POPC   C1A 4350  10.015   7.295   5.725  0.2876 -0.0540 -0.0915
  322POPC   D2A 4351   9.981   7.055   6.109  0.2108  0.2564 -0.3249
  322POPC   C3A 4352  10.473   6.842   6.258  0.0212  0.1540 -0.1806
  322POPC   C4A 4353  10.730   6.696   6.544  0.0894 -0.0021  0.2481
  322POPC   C1B 4354  10.146   7.758   5.827 -0.2011 -0.1577  0.0248
  322POPC   C2B 4355  10.040   8.085   6.096  0.3779 -0.0231 -0.1956
  322POPC   C3B 4356   9.975   8.080   6.546  0.1057 -0.1352 -0.0364
  322POPC   C4B 4357   9.792   8.406   6.933  0.2146  0.3594  0.0026
  323POPC   NC3 4358   9.528   9.819   4.883  0.1066 -0.1111 -0.0787
  323POPC   PO4 4359   9.169   9.588   4.837  0.0940  0.1699  0.2096
  323POPC   GL1 4360   9.073   9.673   5.271  0.1489 -0.1723  0.3632
  323POPC   GL2 4361   9.317   9.964   5.285 -0.0425 -0.1475 -0.5673
  323POPC   C1A 4362   8.853   9.716   5.664  0.0160  0.2919  0.0164
  323POPC   D2A 4363   9.002   9.830   6.050  0.0440  0.1467 -0.2667
  323POPC   C3A 4364   8.803   9.940   6.398 -0.2347  0.0192  0.0395
  323POPC   C4A 4365   8.689  10.283   6.679  0.0201  0.1055 -0.3926
  323POPC   C1B 4366   9.399   9.991   5.732 -0.0996  0.1288 -0.1706
  323POPC   C2B 4367   9.492   9.854   6.197  0.0826  0.0864 -0.1926
  323POPC   C3B 4368   9.232   9.705   6.547 -0.0274  0.0467  0.1228
  323POPC   C4B 4369   8.813   9.656   6.818  0.0977 -0.3107 -0.2418
  324POPC   NC3 4370   2.071   5.101   4.448 -0.1078  0.1349 -0.0251
  324POPC   PO4 4371   2.388   4.875   4.776  0.0919  0.0569 -0.2853
  324POPC   GL1 4372   2.682   4.827   5.168 -0.2822  0.2978 -0.0178
  324POPC   GL2 4373   2.692   4.531   5.397  0.0448  0.1387  0.0815
  324POPC   C1A 4374   2.512   5.102   5.480 -0.1537  0.2101 -0.3787
  324POPC   D2A 4375   2.273   5.434   5.615 -0.2929  0.2482 -0.0711
  324POPC   C3A 4376   2.258   5.583   6.006 -0.0717 -0.0969  0.0268
  324POPC   C4A 4377   2.313   5.679   6.391 -0.3643 -0.0159 -0.2200
  324POPC   C1B 4378   2.277   4.469   5.680 -0.0153  0.1376 -0.0540
  324POPC   C2B 4379   2.092   4.271   6.113  0.2471 -0.0544 -0.1834
  324POPC   C3B 4380   1.891   4.306   6.465 -0.2455 -0.2867 -0.1297
  324POPC   C4B 4381   2.076   4.359   6.831 -0.0746  0.1012  0.0090
  325POPC   NC3 4382   3.755   7.688   5.010  0.1549 -0.1296  0.2270
  325POPC   PO4 4383   3.517   7.917   5.162  0.0566 -0.2762 -0.1795
  325POPC   GL1 4384   3.159   8.052   5.390  0.1814  0.1731  0.1485
  325POPC   GL2 4385   2.791   7.982   5.275  0.1908  0.4917 -0.0288
  325POPC   C1A 4386   3.092   8.026   5.787  0.0710 -0.2129  0.0200
  325POPC   D2A 4387   3.035   7.828   6.253 -0.0804  0.1192  0.1884
  325POPC   C3A 4388   3.109   8.130   6.597  0.1111  0.2292  0.0883
  325POPC   C4A 4389   3.245   8.541   6.622 -0.1578 -0.0941  0.1218
  325POPC   C1B 4390   2.637   8.296   5.578  0.6289 -0.2125 -0.2593
  325POPC   C2B 4391   2.415   8.484   5.987 -0.1993 -0.1946  0.0729
  325POPC   C3B 4392   2.578   8.673   6.303 -0.1735  0.0887 -0.2259
  325POPC   C4B 4393   2.928   8.852   6.379 -0.3034  0.0972 -0.0579
  326POPC   NC3 4394   7.848   5.697   4.795 -0.0098  0.2276 -0.1262
  326POPC   PO4 4395   7.923   5.316   4.574  0.0389 -0.1725 -0.0297
  326POPC   GL1 4396   7.927   5.234   4.990  0.1077  0.1308 -0.1830
  326POPC   GL2 4397   8.227   5.376   5.083  0.0183  0.3049  0.1315
  326POPC   C1A 4398   7.852   5.064   5.361 -0.0142 -0.0156 -0.2284
  326POPC   D2A 4399   7.543   4.766   5.473  0.1169 -0.0909 -0.0620
  326POPC   C3A 4400   7.696   4.380   5.684 -0.1227  0.0372 -0.1054
  326POPC   C4A 4401   7.741   4.005   5.939 -0.2226  0.0827 -0.1505
  326POPC   C1B 4402   8.572   5.188   5.126 -0.0253  0.2201 -0.1690
  326POPC   C2B 4403   8.947   5.339   5.262 -0.0315  0.0475 -0.0080
  326POPC   C3B 4404   9.278   5.308   5.483 -0.1736 -0.4766 -0.5198
  326POPC   C4B 4405   9.743   5.390   5.605  0.1045 -0.2741 -0.0594
  327POPC   NC3 4406   2.983   6.069   4.562 -0.1199  0.3017  0.0624
  327POPC   PO4 4407   3.413   6.148   4.764  0.4401 -0.3878 -0.0955
  327POPC   GL1 4408   3.358   6.340   5.190  0.3395  0.0444 -0.0806
  327POPC   GL2 4409   3.576   6.587   5.325 -0.3653  0.0150 -0.0779
  327POPC   C1A 4410   3.084   6.439   5.459  0.0203  0.0241 -0.1530
  327POPC   D2A 4411   2.957   6.785   5.723  0.0780 -0.2666 -0.2578
  327POPC   C3A 4412   2.928   7.136   5.679 -0.0054  0.0309 -0.2060
  327POPC   C4A 4413   3.239   7.529   5.717  0.2137  0.1069 -0.1990
  327POPC   C1B 4414   3.539   6.440   5.694  0.1215  0.1865 -0.4927
  327POPC   C2B 4415   3.181   6.162   5.855  0.2449 -0.2404 -0.1578
  327POPC   C3B 4416   2.771   6.340   5.970 -0.2576 -0.0315 -0.1294
  327POPC   C4B 4417   2.506   6.597   6.199  0.0607 -0.0832  0.0344
  328POPC   NC3 4418   1.418   2.215   4.364 -0.0795 -0.1016  0.1822
  328POPC   PO4 4419   1.076   2.064   4.141  0.2715  0.2507 -0.0476
  328POPC   GL1 4420   0.990   1.936   4.538  0.1231  0.1238  0.3500
  328POPC   GL2 4421   1.313   1.886   4.738  0.1166  0.5097  0.1738
  328POPC   C1A 4422   0.947   1.723   5.068  0.1399  0.5318  0.4677
  328POPC   D2A 4423   1.001   1.635   5.497 -0.1882  0.1810 -0.0738
  328POPC   C3A 4424   0.823   1.699   5.915 -0.1688  0.1341  0.1530
  328POPC   C4A 4425   0.546   1.998   6.159 -0.1695 -0.0209  0.0414
  328POPC   C1B 4426   1.470   1.819   5.078  0.1224 -0.0066  0.0843
  328POPC   C2B 4427   1.372   2.134   5.438 -0.0541  0.0862 -0.2955
  328POPC   C3B 4428   1.123   2.524   5.402 -0.0177  0.0761  0.0091
  328POPC   C4B 4429   0.899   2.681   5.105 -0.0140 -0.1812 -0.1274
  329POPC   NC3 4430   0.421   6.543   4.912  0.1478  0.0363 -0.0277
  329POPC   PO4 4431   0.083   6.854   4.864  0.2153  0.0490  0.2252
  329POPC   GL1 4432   0.043   6.806   5.303  0.0564 -0.1332  0.0259
  329POPC   GL2 4433   0.157   7.131   5.389 -0.0925  0.1114 -0.0534
  329POPC   C1A 4434   0.163   6.694   5.748  0.0601  0.0388  0.3043
  329POPC   D2A 4435   0.583   6.471   6.053 -0.2981 -0.2102 -0.1133
  329POPC   C3A 4436   0.757   6.693   6.449  0.0179 -0.1316 -0.3440
  329POPC   C4A 4437   0.605   6.883   6.767  0.3199 -0.1473  0.1893
  329POPC   C1B 4438   0.008   7.151   5.869  0.4274 -0.1113  0.0720
  329POPC   C2B 4439  -0.053   7.326   6.187  0.1239 -0.1461 -0.0036
  329POPC   C3B 4440  -0.258   7.230   6.609  0.3067 -0.2066  0.1496
  329POPC   C4B 4441  -0.379   7.283   7.037 -0.0616 -0.3278 -0.0983
  330POPC   NC3 4442   7.984   2.988   3.548  0.0362 -0.1750 -0.1014
  330POPC   PO4 4443   7.614   3.084   3.859 -0.2074  0.0709  0.4159
  330POPC   GL1 4444   7.853   2.863   4.156  0.0143 -0.1089  0.2804
  330POPC   GL2 4445   7.734   2.909   4.489  0.0656  0.2391 -0.0505
  330POPC   C1A 4446   8.229   2.894   4.373 -0.0135  0.0257  0.3284
  330POPC   D2A 4447   8.459   3.242   4.681 -0.1204  0.1837  0.0704
  330POPC   C3A 4448   8.972   3.265   4.723 -0.2754 -0.0024  0.1181
  330POPC   C4A 4449   9.242   3.662   4.493  0.2532  0.1564  0.4738
  330POPC   C1B 4450   7.576   2.896   4.883 -0.0860 -0.1712 -0.1163
  330POPC   C2B 4451   7.810   2.899   5.364 -0.1056  0.0326 -0.0356
  330POPC   C3B 4452   7.810   3.031   5.798 -0.1477  0.2681  0.2332
  330POPC   C4B 4453   7.970   3.106   6.138 -0.0150 -0.1971 -0.6489
  331POPC   NC3 4454   5.177   5.938   5.166  0.0961  0.0436  0.2482
  331POPC   PO4 4455   4.868   6.004   4.819  0.2411 -0.4004  0.2736
  331POPC   GL1 4456   4.457   6.044   5.074  0.1595 -0.2522 -0.3833
  331POPC   GL2 4457   4.269   5.711   5.204 -0.0683 -0.3375 -0.0726
  331POPC   C1A 4458   4.511   6.080   5.563 -0.3363 -0.2503  0.1700
  331POPC   D2A 4459   4.317   6.006   6.027  0.1647 -0.2275 -0.0386
  331POPC   C3A 4460   4.409   5.858   6.448  0.1123  0.0498 -0.1657
  331POPC   C4A 4461   4.557   5.971   6.810 -0.1359  0.0066 -0.0115
  331POPC   C1B 4462   3.999   5.743   5.577 -0.2491 -0.3094 -0.0932
  331POPC   C2B 4463   3.957   5.585   5.985  0.0862  0.4176 -0.0740
  331POPC   C3B 4464   3.556   5.371   6.311  0.0664 -0.3180  0.0357
  331POPC   C4B 4465   3.322   5.148   6.705  0.1212 -0.4863 -0.0845
  332POPC   NC3 4466   5.702  10.105   5.109 -0.1647  0.1927 -0.2617
  332POPC   PO4 4467   5.507   9.640   5.024  0.1733 -0.1411  0.1691
  332POPC   GL1 4468   5.610   9.646   5.362  0.0263  0.0499  0.0533
  332POPC   GL2 4469   5.799   9.405   5.411  0.1261  0.1387  0.1207
  332POPC   C1A 4470   5.475   9.770   5.761  0.1717 -0.3013 -0.1755
  332POPC   D2A 4471   5.323  10.107   6.030  0.1116 -0.1957  0.0607
  332POPC   C3A 4472   5.108  10.104   6.295 -0.1243  0.0807 -0.2495
  332POPC   C4A 4473   5.366  10.132   6.663  0.0735 -0.4718 -0.0054
  332POPC   C1B 4474   5.813   9.050   5.635  0.2937  0.1015  0.1744
  332POPC   C2B 4475   5.697   8.694   5.915  0.1949  0.0325 -0.0031
  332POPC   C3B 4476   5.317   8.564   6.026  0.2684  0.3559 -0.1478
  332POPC   C4B 4477   4.930   8.549   6.182  0.0360  0.3859  0.3600
  333POPC   NC3 4478   7.163   4.862   4.491 -0.0159  0.1892  0.0281
  333POPC   PO4 4479   6.975   4.948   4.884  0.1104  0.1217  0.1237
  333POPC   GL1 4480   7.103   4.778   5.276 -0.3349 -0.1522 -0.1014
  333POPC   GL2 4481   6.969   5.113   5.340  0.0872  0.2510  0.1435
  333POPC   C1A 4482   7.175   4.484   5.608 -0.6638  0.1398  0.0056
  333POPC   D2A 4483   7.263   4.243   5.916  0.1194  0.2359 -0.1050
  333POPC   C3A 4484   7.088   4.339   6.338  0.1235  0.1627  0.0598
  333POPC   C4A 4485   7.209   4.412   6.719 -0.3378  0.2193 -0.1788
  333POPC   C1B 4486   7.206   5.031   5.669 -0.0126  0.1794  0.1981
  333POPC   C2B 4487   7.350   4.852   5.999  0.0209  0.1181  0.1156
  333POPC   C3B 4488   7.297   4.842   6.440 -0.1104  0.0214 -0.0795
  333POPC   C4B 4489   7.088   5.045   6.781  0.1265  0.1431 -0.1082
  334POPC   NC3 4490   0.087  10.026   4.621 -0.1297  0.0264 -0.0625
  334POPC   PO4 4491   0.311  10.341   4.312  0.3994  0.1577 -0.4357
  334POPC   GL1 4492   0.068  10.559   4.682  0.0923 -0.0649 -0.1991
  334POPC   GL2 4493  -0.255  10.591   4.676  0.1163  0.2057 -0.1433
  334POPC   C1A 4494   0.136  10.735   5.110 -0.2278 -0.0555 -0.1481
  334POPC   D2A 4495   0.418  10.455   5.373 -0.1578 -0.2605  0.0938
  334POPC   C3A 4496   0.488  10.529   5.861 -0.1986 -0.1735 -0.0005
  334POPC   C4A 4497   0.797  10.417   6.133  0.0823  0.0321  0.1639
  334POPC   C1B 4498  -0.576  10.729   4.903  0.4015  0.1518 -0.0836
  334POPC   C2B 4499  -0.993  10.906   4.984  0.1325  0.1270 -0.0248
  334POPC   C3B 4500  -1.162  10.967   5.368  0.0528  0.1453 -0.0510
  334POPC   C4B 4501  -1.068  11.248   5.678 -0.1846 -0.0441  0.2264
  335POPC   NC3 4502   0.933   4.146   4.239 -0.1713 -0.1224 -0.1785
  335POPC   PO4 4503   1.394   3.923   4.437  0.0373  0.0231 -0.4052
  335POPC   GL1 4504   1.277   3.977   4.855 -0.1987 -0.0394  0.3864
  335POPC   GL2 4505   1.439   3.808   5.054  0.1496 -0.0647  0.1988
  335POPC   C1A 4506   0.909   4.044   5.036  0.1501 -0.1171  0.0553
  335POPC   D2A 4507   0.776   3.859   5.418 -0.0877  0.0364  0.0899
  335POPC   C3A 4508   0.927   3.883   5.853  0.2152  0.0945 -0.1520
  335POPC   C4A 4509   1.079   3.991   6.247  0.2210 -0.1285  0.0273
  335POPC   C1B 4510   1.291   3.972   5.503 -0.1148 -0.1587  0.0279
  335POPC   C2B 4511   1.386   4.128   5.871 -0.0468 -0.0795  0.0923
  335POPC   C3B 4512   1.518   4.442   6.212 -0.0811  0.3064 -0.1285
  335POPC   C4B 4513   1.911   4.732   6.110 -0.0459 -0.0344 -0.0704
  336POPC   NC3 4514   1.085   0.807   3.645 -0.0126 -0.1325  0.0289
  336POPC   PO4 4515   0.791   0.988   3.955 -0.2576  0.2761 -0.1850
  336POPC   GL1 4516   0.588   0.817   4.361 -0.2980  0.2634  0.3233
  336POPC   GL2 4517   0.424   0.565   4.590  0.3765  0.1119  0.1084
  336POPC   C1A 4518   0.614   0.962   4.727 -0.1556  0.0478  0.1779
  336POPC   D2A 4519   0.652   1.183   5.085 -0.0027  0.1768  0.0335
  336POPC   C3A 4520   1.064   1.169   5.050 -0.0338 -0.2110 -0.0756
  336POPC   C4A 4521   1.266   1.393   4.814  0.0539 -0.2952  0.2697
  336POPC   C1B 4522   0.307   0.751   5.039  0.3523 -0.3394 -0.0456
  336POPC   C2B 4523   0.295   0.930   5.394  0.0174  0.0432  0.0848
  336POPC   C3B 4524   0.107   1.155   5.677  0.0578 -0.0229  0.0728
  336POPC   C4B 4525  -0.008   1.519   5.804 -0.1018  0.1468  0.0949
  337POPC   NC3 4526   0.001   5.265   4.104 -0.3474  0.0420  0.1345
  337POPC   PO4 4527  -0.091   4.899   4.386 -0.0588  0.3144 -0.1722
  337POPC   GL1 4528  -0.249   4.666   4.715  0.1578  0.0178 -0.0400
  337POPC   GL2 4529  -0.612   4.776   4.557 -0.1933  0.0120  0.3435
  337POPC   C1A 4530  -0.033   4.306   4.967  0.0950 -0.3566  0.2392
  337POPC   D2A 4531   0.447   4.290   4.991 -0.1799  0.4639 -0.0606
  337POPC   C3A 4532   0.653   4.337   5.379  0.1217  0.2244 -0.0329
  337POPC   C4A 4533   0.518   4.205   5.738  0.6429 -0.2213  0.0428
  337POPC   C1B 4534  -0.799   4.701   4.993  0.1717  0.0258  0.1509
  337POPC   C2B 4535  -0.486   4.395   5.154  0.0826  0.1838 -0.0778
  337POPC   C3B 4536  -0.185   4.176   5.429 -0.1098  0.0494  0.0623
  337POPC   C4B 4537   0.223   4.038   5.362  0.1947 -0.1064 -0.1205
  338W        W 4538   1.651   0.249   3.119  0.0521  0.1404 -0.0441
  339W        W 4539   1.765   3.994   2.490  0.0513  0.0669 -0.4329
  340W        W 4540   4.094   4.610   9.070 -0.1901  0.1438 -0.1460
  341W        W 4541   5.788   8.991   2.749 -0.1182  0.2042  0.1907
  342W        W 4542   5.302   4.603  10.216 -0.4243  0.1000 -0.2027
  343W        W 4543   1.609   8.251  12.912 -0.1498 -0.0293 -0.1455
  344W        W 4544   7.953   0.070  13.030  0.1655 -0.0756 -0.3190
  345W        W 4545   4.555   1.792   1.118  0.1983 -0.5068  0.2464
  346W        W 4546   2.339   1.566  11.485 -0.4803  0.1778 -0.2614
  347W        W 4547   7.096   5.835   0.598  0.0201 -0.0783 -0.2263
  348W        W 4548   6.934   7.073   1.783 -0.2905 -0.1181  0.1213
  349W        W 4549   3.340   7.359   3.718  0.0807  0.0934 -0.0324
  350W        W 4550   4.309   8.823   4.724  0.0513  0.1690  0.1105
  351W        W 4551   1.208   2.556  11.906  0.2876 -0.0822 -0.0294
  352W        W 4552   7.065   8.305  10.109 -0.1761 -0.1423  0.2124
  353W        W 4553   8.790   1.438   2.102 -0.0169 -0.3970 -0.0149
  354W        W 4554   2.390   3.913  12.579  0.1828 -0.1525  0.0647
  355W        W 4555   3.339   1.040   9.892  0.1959  0.0552 -0.1008
  356W        W 4556   3.675   5.735   1.499  0.0092 -0.1738  0.2698
  357W        W 4557   3.253   6.618   9.944  0.1726 -0.2119 -0.2376
  358W        W 4558   9.831   0.633   1.449  0.0368  0.0929 -0.1750
  359W        W 4559   5.287   5.362   0.570  0.1391  0.0881 -0.1881
  360W        W 4560   1.418   9.238  10.811 -0.2697  0.1568 -0.1545
  361W        W 4561   2.715   1.622  10.751  0.2513 -0.0096  0.1841
  362W        W 4562   7.538   8.841   4.021 -0.0456  0.0118 -0.0894
  363W        W 4563   6.511   6.753   1.785 -0.3642 -0.3116  0.1932
  364W        W 4564   5.836  10.244  11.296  0.2461  0.0644 -0.2186
  365W        W 4565   3.569   7.092  11.362 -0.1622  0.2232 -0.1071
  366W        W 4566   0.251   7.091  10.970  0.0148 -0.0442  0.3092
  367W        W 4567   1.132   1.185   0.567 -0.1450  0.2246  0.1699
  368W        W 4568   3.179   0.205   5.089 -0.0491 -0.0204 -0.1272
  369W        W 4569   4.119   6.593   9.225 -0.0463  0.0318 -0.1177
  370W        W 4570   1.093   5.022  10.267 -0.1656 -0.2162  0.1311
  371W        W 4571   9.918   4.735   3.961  0.1550 -0.2626 -0.0725
  372W        W 4572   8.204   4.654   1.537 -0.0176  0.0841  0.1282
  373W        W 4573   1.226   1.466  13.065  0.1805  0.1305 -0.1638
  374W        W 4574   3.637   9.961   0.369 -0.1611  0.2006 -0.0197
  375W        W 4575   4.160   8.226   1.826 -0.3556  0.3357  0.2496
  376W        W 4576   5.006   2.945  10.597 -0.3913  0.3658 -0.1188
  377W        W 4577   4.456   4.850  10.517 -0.1685 -0.3459 -0.3535
  378W        W 4578   4.317   1.235   2.684  0.0986 -0.4071  0.0068
  379W        W 4579   5.586   3.861   9.493 -0.0210 -0.3572 -0.1678
  380W        W 4580   5.398   3.837   0.148  0.0624  0.2005  0.3308
  381W        W 4581   5.415   7.058   3.802 -0.0094 -0.1282 -0.2099
  382W        W 4582   5.746   8.267   8.475  0.0109 -0.0836  0.1675
  383W        W 4583   6.335   7.197  11.832  0.1435 -0.1272 -0.0969
  384W        W 4584   5.078   7.378  12.333 -0.0299 -0.3602  0.0615
  385W        W 4585   4.578   4.830   8.840  0.0964 -0.0258 -0.0443
  386W        W 4586   8.762   8.311   1.032 -0.1546 -0.2401 -0.0166
  387W        W 4587   4.820   0.004  11.259  0.1478 -0.0655  0.0308
  388W        W 4588   8.059   0.860   1.828  0.2542  0.1266  0.0556
  389W        W 4589   8.152   4.316   9.637 -0.2984 -0.0877  0.0232
  390W        W 4590   2.826   7.843   4.474  0.0639  0.2710  0.5432
  391W        W 4591   3.824   6.957   0.613  0.0726 -0.1145  0.2809
  392W        W 4592   8.092   6.788  12.321 -0.2065 -0.4977 -0.1836
  393W        W 4593   6.678   1.322  12.524  0.0208  0.1387  0.2971
  394W        W 4594   3.643   6.858   4.368 -0.0709 -0.0412  0.3035
  395W        W 4595   4.642   7.491  13.362 -0.0930 -0.2088  0.0001
  396W        W 4596   6.838   9.451   3.325  0.1425  0.3102  0.0477
  397W        W 4597   1.795   1.972   4.148  0.0808 -0.1106 -0.0225
  398W        W 4598   3.009   5.811   2.044  0.1489  0.0419  0.2307
  399W        W 4599   1.627   2.513   1.871  0.4688 -0.1516  0.2300
  400W        W 4600   7.655   3.789  10.504 -0.4893  0.1816  0.1895
  401W        W 4601   2.121   7.601   9.014 -0.1530  0.1469 -0.0060
  402W        W 4602   9.457   1.427   2.210  0.1900 -0.0680  0.1044
  403W        W 4603   4.698   5.692   8.279 -0.2883 -0.1911 -0.1301
  404W        W 4604   7.386   1.185   0.757  0.1523 -0.1867  0.3188
  405W        W 4605   9.727   6.713  10.805  0.1156  0.3472 -0.0430
  406W        W 4606   3.421   1.649   2.304  0.1218  0.0217 -0.0383
  407W        W 4607   5.854   1.474   9.735 -0.4454 -0.0158  0.0307
  408W        W 4608   6.625   1.224   1.431 -0.1551 -0.0482 -0.1388
  409W        W 4609   7.368   2.033   0.231  0.0195  0.1970  0.1863
  410W        W 4610   4.204   5.970   2.697  0.0383  0.1156 -0.1433
  411W        W 4611   9.878   0.505  11.216  0.2919 -0.3272 -0.2145
  412W        W 4612   6.063   8.481   0.102  0.1354  0.5652  0.0918
  413W        W 4613   9.558   1.390   3.132  0.0952  0.3972 -0.2520
  414W        W 4614   9.428   7.714   9.561 -0.1282 -0.1851  0.0710
  415W        W 4615   5.336   1.270  11.004  0.0651 -0.0869 -0.1126
  416W        W 4616   1.938   8.430   0.748  0.4410 -0.0672 -0.2228
  417W        W 4617   5.768   3.482   1.568 -0.1855  0.0592 -0.3188
  418W        W 4618   0.351   4.801   4.195  0.2636 -0.0662 -0.0231
  419W        W 4619   4.117   8.889   9.884 -0.1743  0.2282  0.1516
  420W        W 4620   2.840   9.665   0.730  0.0348 -0.1192 -0.1374
  421W        W 4621  10.329   9.550   1.211 -0.4121  0.0105  0.2135
  422W        W 4622   1.346   1.508   9.148  0.0003 -0.0514 -0.0725
  423W        W 4623   1.954   0.430   3.954  0.0992 -0.0559  0.2988
  424W        W 4624   0.153   2.057   2.111 -0.0901 -0.0440  0.4162
  425W        W 4625   1.246   8.489  11.650 -0.0815 -0.0234  0.1887
  426W        W 4626   3.707   3.438   3.163 -0.3604  0.1198 -0.0767
  427W        W 4627   4.155   7.066   4.229  0.0844  0.0276 -0.3741
  428W        W 4628   4.657   9.585   9.911 -0.1455 -0.1133 -0.0442
  429W        W 4629   1.703   4.295   2.897  0.6113 -0.2273  0.1518
  430W        W 4630   6.354   8.158   0.440  0.3456  0.0592 -0.0935
  431W        W 4631   1.798   6.847   3.260  0.1764  0.1327 -0.0068
  432W        W 4632   5.123   5.966   2.864  0.0813 -0.0830  0.0954
  433W        W 4633   4.131   9.355  11.203  0.2196  0.1240  0.0543
  434W        W 4634   5.378   8.542   9.386  0.0308  0.1363 -0.0232
  435W        W 4635   0.417   2.111   2.546  0.1194 -0.1359 -0.2767
  436W        W 4636   6.933   5.557   2.133  0.4095 -0.0157 -0.0562
  437W        W 4637   5.193   0.468   9.472 -0.2427 -0.2858 -0.3447
  438W        W 4638   1.268   1.239   3.975 -0.1081 -0.0262  0.0526
  439W        W 4639  10.083   3.704   1.293 -0.0339 -0.0194 -0.4036
  440W        W 4640   6.909   5.392  12.479 -0.1500 -0.4161 -0.0923
  441W        W 4641   1.606   4.607  13.340 -0.2742 -0.0083 -0.1881
  442W        W 4642   4.985   4.588   4.322 -0.2023  0.3072 -0.1660
  443W        W 4643   3.078   9.326   2.777 -0.0290  0.2686  0.2547
  444W        W 4644   3.428   5.906   3.728 -0.0318 -0.4022 -0.0313
  445W        W 4645   6.602   2.200  10.838 -0.4628  0.1033 -0.2791
  446W        W 4646   4.417   9.690   9.315  0.3822 -0.2298 -0.1773
  447W        W 4647   7.482   5.610   3.533 -0.0141 -0.2072  0.0413
  448W        W 4648   5.904   4.223   0.722 -0.0184  0.0583 -0.0871
  449W        W 4649   3.190   1.074  13.160 -0.1783 -0.2379  0.0055
  450W        W 4650   6.122   1.965   5.149 -0.2119  0.2206  0.1096
  451W        W 4651   1.209   7.959  12.922  0.1197  0.5062 -0.5089
  452W        W 4652   3.841   4.187  11.454  0.0600 -0.1915  0.1347
  453W        W 4653   2.644   0.006   4.459 -0.3915  0.1747  0.1966
  454W        W 4654   6.086   3.737   4.211  0.2861 -0.0121 -0.0603
  455W        W 4655   5.115   0.202   3.994 -0.3841  0.3419  0.1777
  456W        W 4656   6.983   7.586   1.919  0.0495  0.2595 -0.0130
  457W        W 4657   4.941   3.787  12.220 -0.3303  0.1211  0.0502
  458W        W 4658   8.415   0.971   3.030  0.2617 -0.1881 -0.1959
  459W        W 4659   4.444   3.688  10.299 -0.3653 -0.1599 -0.1340
  460W        W 4660   8.400   0.887  13.404 -0.0589  0.2749  0.3196
  461W        W 4661   0.252  10.295   9.613  0.1666  0.1574 -0.2573
  462W        W 4662   2.950   0.819   9.025 -0.0589 -0.0253 -0.3304
  463W        W 4663   2.469  10.414   1.914  0.1067  0.1965 -0.1864
  464W        W 4664   9.008   1.479   9.304  0.0312  0.1825  0.0491
  465W        W 4665   7.129   5.665   9.821  0.0496 -0.0636  0.2191
  466W        W 4666   0.474   8.269   9.424 -0.0811 -0.0061 -0.1318
  467W        W 4667   9.626   8.801   0.039  0.0099  0.1223  0.1433
  468W        W 4668   2.191   6.930  12.758  0.1191 -0.0924 -0.4387
  469W        W 4669   8.160   2.096   3.682 -0.0124  0.3874  0.4752
  470W        W 4670   2.642   6.714  11.654 -0.3983 -0.0980  0.2114
  471W        W 4671   3.448  10.400   8.789  0.3511  0.4687 -0.3556
  472W        W 4672   5.766   1.242   3.581  0.2885 -0.0652 -0.2154
  473W        W 4673   5.161   1.945  11.749  0.1648 -0.3435  0.0949
  474W        W 4674   6.389   4.642   4.631 -0.3997  0.5217  0.1488
  475W        W 4675   0.770   1.367   0.300  0.0465  0.0889 -0.0926
  476W        W 4676   2.923   7.882   2.675  0.1812 -0.2113  0.1609
  477W        W 4677   2.751   2.010   4.306  0.3701 -0.0984  0.5509
  478W        W 4678   4.063   8.470   9.656 -0.0238 -0.0450  0.1756
  479W        W 4679   4.600   1.673   4.390 -0.0002  0.1795 -0.0636
  480W        W 4680   6.732   8.916   3.148  0.5058 -0.2929  0.3596
  481W        W 4681   5.543   6.835   1.491 -0.1563  0.0248 -0.0009
  482W        W 4682   8.993   1.860   3.595 -0.0248 -0.2585  0.3080
  483W        W 4683   1.568   7.125   4.092 -0.2345 -0.1262  0.0294
  484W        W 4684   9.897  10.361   8.651  0.0765 -0.0706 -0.1917
  485W        W 4685   4.832   9.722   9.120 -0.3574 -0.4329 -0.1991
  486W        W 4686   6.853   5.752   1.604 -0.0329  0.0033 -0.0436
  487W        W 4687   9.921   3.216  10.514 -0.2724 -0.1029 -0.1391
  488W        W 4688   5.271   2.010   2.903  0.2481 -0.1681  0.0268
  489W        W 4689   8.084   6.691   3.794 -0.2564  0.1809 -0.1485
  490W        W 4690   3.960   8.753   2.899 -0.0821  0.0973 -0.2747
  491W        W 4691   7.958   6.544   3.095 -0.0489 -0.0956 -0.1233
  492W        W 4692   1.516   7.065  12.088  0.0709 -0.1130  0.0903
  493W        W 4693   7.983   2.171  12.255  0.1844  0.2789 -0.1637
  494W        W 4694   9.050   3.647   2.943 -0.0507 -0.2096 -0.0889
  495W        W 4695   3.395   5.567  11.848 -0.3606 -0.1424 -0.0765
  496W        W 4696   7.899   6.413   9.057  0.0074 -0.0886  0.3501
  497W        W 4697   1.650   5.840   4.097 -0.0871  0.0117  0.1171
  498W        W 4698   4.697   9.051  12.047  0.2739 -0.3221 -0.2917
  499W        W 4699   3.250   9.658  12.227 -0.1865 -0.3967  0.0456
  500W        W 4700   6.597   9.329   9.115  0.1837  0.0861 -0.0357
  501W        W 4701   3.872   6.792   0.142 -0.1320 -0.1670  0.5843
  502W        W 4702   9.464   0.158  11.095 -0.0786 -0.2605 -0.0581
  503W        W 4703   7.818   4.234   4.602  0.1947 -0.0079  0.0614
  504W        W 4704   1.926   9.897   4.173  0.1657  0.1008  0.1281
  505W        W 4705   6.284   0.391  11.779 -0.0726  0.0157  0.0428
  506W        W 4706   3.422   6.809   0.358 -0.0710 -0.1328 -0.2970
  507W        W 4707  10.249   5.843   9.861  0.1399  0.2384  0.2937
  508W        W 4708   5.618   3.937   9.041  0.2316 -0.1742 -0.1699
  509W        W 4709   1.834   5.588   9.943 -0.0610 -0.1973 -0.0895
  510W        W 4710   2.059   4.253   0.993 -0.0338 -0.4477 -0.0824
  511W        W 4711   7.888   1.801   4.212  0.2706 -0.1933  0.1123
  512W        W 4712   5.339   0.279   4.580 -0.1131  0.0804  0.2848
  513W        W 4713   3.634   5.565  11.032  0.0458  0.0351  0.1780
  514W        W 4714   6.126   8.033   4.733  0.2449  0.0002  0.1493
  515W        W 4715   5.156   3.798   2.768 -0.0141 -0.4018  0.0036
  516W        W 4716   1.403   5.836   8.932 -0.3161 -0.3188  0.1112
  517W        W 4717   2.565   7.287   1.146  0.0726  0.3985  0.1125
  518W        W 4718   0.831   4.085  12.313 -0.0848 -0.2865 -0.2251
  519W        W 4719   3.927   5.789   4.352 -0.0017 -0.1448  0.0175
  520W        W 4720   4.538  10.201   0.751  0.0797 -0.2784 -0.0679
  521W        W 4721   8.876  10.482   3.884  0.0929  0.3016  0.1126
  522W        W 4722   7.119   7.360   4.496  0.0579  0.0979 -0.1775
  523W        W 4723   6.672   8.697   9.313  0.3157  0.1553 -0.2833
  524W        W 4724   9.345   6.232   3.229 -0.0236  0.1876  0.1998
  525W        W 4725   9.041   1.536   3.074  0.0769 -0.0109 -0.1596
  526W        W 4726   4.060   9.237  12.835  0.5016 -0.0332  0.2701
  527W        W 4727   9.483   1.543   1.193  0.1357 -0.1471 -0.2466
  528W        W 4728   5.143   9.802   9.987  0.0924 -0.0685 -0.2494
  529W        W 4729   4.462   1.193   4.150 -0.1689 -0.0543 -0.1526
  530W        W 4730   1.496   5.065   9.559  0.1289 -0.1004  0.1133
  531W        W 4731   5.547   9.845   4.211  0.0886  0.2371  0.0093
  532W        W 4732   9.416   4.179   2.080 -0.0741 -0.2566 -0.1721
  533W        W 4733   9.479   6.407   9.508  0.0266  0.0565  0.1577
  534W        W 4734  10.239   7.820  12.013  0.0647  0.3660  0.1661
  535W        W 4735   3.875   3.818   9.655  0.1215 -0.0273  0.1167
  536W        W 4736   1.886   9.984  10.160 -0.1672  0.0893 -0.0828
  537W        W 4737   4.632   4.663   3.048  0.0977  0.3141 -0.1262
  538W        W 4738   9.397   6.653  11.191  0.1564  0.3220 -0.0929
  539W        W 4739   6.825   3.113   1.634 -0.0286  0.0633 -0.2585
  540W        W 4740   6.157   3.789   1.743 -0.1434 -0.4059 -0.2563
  541W        W 4741   7.461   1.242   2.903  0.0061  0.3067  0.0818
  542W        W 4742   7.188   1.678   2.908 -0.1389  0.2684 -0.2262
  543W        W 4743   7.055   5.898   3.555 -0.3028  0.3733 -0.1092
  544W        W 4744   1.142   5.082   2.915  0.4883 -0.0336 -0.2304
  545W        W 4745   1.744   6.720  12.839 -0.2160  0.2333 -0.2227
  546W        W 4746   0.314   3.352   2.078  0.1444 -0.5304 -0.2253
  547W        W 4747   7.044   7.111  12.393  0.1198  0.0786 -0.0925
  548W        W 4748   4.045   3.401  10.266  0.0323 -0.3970 -0.4260
  549W        W 4749   4.260   7.752   0.400 -0.0034 -0.0756 -0.1204
  550W        W 4750   0.288   1.475  12.045  0.0725  0.1444 -0.2314
  551W        W 4751   2.236   3.989   9.963 -0.0297 -0.3127 -0.1835
  552W        W 4752   9.709   4.054   1.228 -0.0289 -0.3302 -0.1275
  553W        W 4753  10.215   9.546  10.696 -0.4337  0.1299  0.0312
  554W        W 4754   2.757   7.150   2.175 -0.1264 -0.1701  0.1988
  555W        W 4755   5.500   6.146   2.617  0.2029 -0.3614 -0.0769
  556W        W 4756   9.271   1.851   2.784 -0.3911  0.2712  0.0617
  557W        W 4757   0.189   9.557  10.923 -0.0911  0.4325  0.1580
  558W        W 4758   4.994   2.947   1.161  0.2240 -0.0947 -0.1350
  559W        W 4759   3.729   8.986   5.107 -0.0174 -0.0230 -0.3400
  560W        W 4760   8.677   5.778  12.753 -0.3418  0.2157  0.1302
  561W        W 4761   8.309  10.403   4.362 -0.0264 -0.1367  0.2641
  562W        W 4762   2.099   0.967   1.189 -0.0970  0.0342  0.2620
  563W        W 4763  10.188   2.143   3.022  0.3393 -0.2408 -0.0959
  564W        W 4764   8.859   8.598   1.929  0.0622 -0.2034  0.2401
  565W        W 4765   7.852   5.806   2.308  0.2408  0.1698 -0.0094
  566W        W 4766   6.587   7.177  12.333  0.2799 -0.0551  0.3041
  567W        W 4767   5.073   5.741   9.337 -0.0350  0.2050  0.0250
  568W        W 4768   4.104   0.125   0.008  0.1920 -0.1520 -0.3328
  569W        W 4769   6.689   8.393   3.107 -0.2995  0.0064 -0.2363
  570W        W 4770   6.177   6.314   2.015  0.0180 -0.0928 -0.0697
  571W        W 4771   9.417   9.446   1.694  0.0317  0.1746  0.1700
  572W        W 4772   1.238   9.212   3.479 -0.4449 -0.0843 -0.2064
  573W        W 4773   1.489   6.106  11.770  0.0130 -0.0513  0.1294
  574W        W 4774   1.160   8.045   1.896  0.2462  0.0325 -0.0232
  575W        W 4775   0.029   9.552   2.085 -0.1640 -0.1543 -0.2438
  576W        W 4776   8.356   0.349  10.279  0.1190 -0.0339 -0.1214
  577W        W 4777   0.080   4.507  11.975  0.2891 -0.1047 -0.1196
  578W        W 4778   5.787   0.663   1.444 -0.1443 -0.3552 -0.0988
  579W        W 4779  10.026   7.206   4.655  0.0119 -0.0024 -0.0414
  580W        W 4780   2.790   4.852  11.548 -0.1121 -0.0584  0.2498
  581W        W 4781   6.427   4.974   1.026  0.0073 -0.0816 -0.0029
  582W        W 4782   9.894   5.454   2.362  0.0469 -0.1077 -0.0970
  583W        W 4783   6.876   4.249   1.640  0.1844 -0.2300  0.2383
  584W        W 4784   3.427   9.988  11.833 -0.1039 -0.0646  0.1996
  585W        W 4785   6.790   7.219  11.115  0.1989  0.1212 -0.0525
  586W        W 4786   2.318   1.643   8.770  0.0357  0.3668  0.0559
  587W        W 4787   8.937   4.373   2.357  0.0736 -0.2888 -0.1348
  588W        W 4788   0.383   3.233  11.730  0.0553  0.0945  0.0251
  589W        W 4789   5.444   9.819  12.184  0.1129 -0.2876 -0.1778
  590W        W 4790   4.102   2.546   3.389 -0.0403  0.0459  0.1800
  591W        W 4791   1.116   7.103  11.183  0.2233  0.1009  0.0685
  592W        W 4792   0.661   1.563   3.332 -0.2612 -0.1929  0.4581
  593W        W 4793  10.142   6.886  10.530  0.0731  0.1826 -0.3915
  594W        W 4794   0.220   0.419   1.938 -0.0698 -0.1026 -0.3003
  595W        W 4795   0.515   6.487  12.460  0.0148  0.1554  0.3040
  596W        W 4796   0.671   9.731  10.611 -0.0909 -0.0080 -0.1644
  597W        W 4797   9.912   8.779   9.252 -0.1968 -0.1331  0.0573
  598W        W 4798   1.671   6.714  10.638  0.2952  0.0470  0.3189
  599W        W 4799   3.500   1.415   3.002  0.0264  0.0751  0.2316
  600W        W 4800   9.482   6.821   1.688  0.0331  0.1700  0.0743
  601W        W 4801   3.106   6.421   1.511 -0.2259  0.0044  0.0993
  602W        W 4802   5.493   9.056   8.991 -0.2405  0.1522 -0.0295
  603W        W 4803   7.961   6.312   9.597 -0.3071 -0.3164 -0.1296
  604W        W 4804   3.222  10.368  10.587  0.0418  0.1013 -0.0875
  605W        W 4805   5.599   3.407  12.666 -0.1034  0.2458  0.1473
  606W        W 4806   7.766   9.333  13.225 -0.0818 -0.1112  0.0635
  607W        W 4807   7.261   9.100   2.297 -0.1592 -0.0255 -0.0366
  608W        W 4808   6.972   8.514   1.735 -0.1685 -0.0319  0.0064
  609W        W 4809   3.941   4.929   1.585  0.0423 -0.0797  0.2165
  610W        W 4810   3.610   3.645  11.630  0.0679 -0.0283  0.0370
  611W        W 4811   4.856   1.813   8.975 -0.2750  0.1677  0.2763
  612W        W 4812   6.246   0.419  10.525  0.0801 -0.1626  0.2685
  613W        W 4813   4.528   7.678   0.834  0.3568 -0.3829  0.1651
  614W        W 4814   0.797   5.764   2.718 -0.0231 -0.1215  0.0365
  615W        W 4815   5.061   2.478  10.548 -0.0543 -0.0344  0.0759
  616W        W 4816   7.749   2.173  12.745  0.1604  0.0733 -0.1750
  617W        W 4817   7.935   9.583  12.245 -0.1501 -0.1507 -0.1465
  618W        W 4818   1.920   3.267   3.050  0.0775 -0.0888 -0.1839
  619W        W 4819   6.062   0.259   1.586  0.1546 -0.2508  0.1371
  620W        W 4820   9.247   3.153  13.218  0.0258 -0.2084 -0.0190
  621W        W 4821   0.100   5.551   1.105 -0.0167  0.2089 -0.1120
  622W        W 4822   8.357  10.106  10.606  0.1294 -0.0237 -0.1529
  623W        W 4823   3.809   7.483  10.206  0.1804 -0.3067  0.0105
  624W        W 4824   1.435  10.480   9.743  0.1942 -0.1914 -0.0871
  625W        W 4825   6.415   5.365   0.264  0.1390  0.1800 -0.1255
  626W        W 4826   8.652   5.348  13.068 -0.0424 -0.2346 -0.1315
  627W        W 4827   8.548   0.437   3.727 -0.2235  0.0857 -0.1946
  628W        W 4828   9.750   7.813   3.582 -0.2015 -0.0766  0.2380
  629W        W 4829   4.358   1.398  10.837 -0.0438  0.0969  0.0523
  630W        W 4830   0.805   8.853  13.080  0.0289 -0.2005  0.0592
  631W        W 4831   4.881   0.765  11.835  0.2514  0.1066 -0.1080
  632W        W 4832   2.884   7.884   1.325  0.0656  0.1703  0.1579
  633W        W 4833   3.281   8.634  12.198  0.1673 -0.0319  0.1634
  634W        W 4834   2.605   2.097  11.500  0.0554 -0.2659 -0.0815
  635W        W 4835   2.534  10.253   8.263 -0.2150 -0.0111  0.0893
  636W        W 4836   2.321   0.212   4.757 -0.2784 -0.1793  0.0634
  637W        W 4837   3.656   1.020   3.600  0.3958  0.1704  0.1936
  638W        W 4838   8.307   4.965  10.314  0.0879 -0.1744  0.1605
  639W        W 4839   1.805   4.050   1.479  0.0434 -0.1372  0.1234
  640W        W 4840   4.634   8.466   1.614 -0.0318 -0.1792  0.0858
  641W        W 4841   0.957   0.188  11.728  0.3872  0.0795  0.3500
  642W        W 4842   7.608   1.365   0.325  0.2914  0.0302  0.4200
  643W        W 4843  10.281   3.871  12.915  0.1896  0.0583  0.0641
  644W        W 4844   1.230   9.226   2.499  0.0796 -0.1534  0.1830
  645W        W 4845   3.497   7.106  10.139  0.1150 -0.0718 -0.2970
  646W        W 4846   9.521  10.008   0.311  0.0097  0.2019  0.0429
  647W        W 4847   9.867   7.338   2.839 -0.0053  0.2707  0.1924
  648W        W 4848   7.414   9.293   1.088 -0.2414 -0.1759  0.0053
  649W        W 4849   3.986   4.215   3.980 -0.1487 -0.1416 -0.1215
  650W        W 4850   2.120   3.781  11.896  0.0610  0.2027  0.0670
  651W        W 4851   3.538   3.619   0.982 -0.0045  0.1493 -0.0512
  652W        W 4852   9.436   4.711  10.716  0.0245  0.0524  0.1792
  653W        W 4853   3.997  10.033  12.238  0.1011  0.0002 -0.1205
  654W        W 4854   8.127   3.241   9.880  0.0014 -0.0619 -0.0845
  655W        W 4855   4.620   9.082   9.933  0.1717  0.1715  0.0869
  656W        W 4856   6.196  10.425  10.289  0.0890  0.1158  0.0956
  657W        W 4857   3.315   7.034  13.163  0.0533  0.2016  0.3586
  658W        W 4858   6.323   1.295   9.334  0.0752 -0.0527  0.1857
  659W        W 4859   6.980   9.825  11.599  0.3199 -0.0478  0.0632
  660W        W 4860   0.624   8.340   1.329  0.0447 -0.0148  0.1048
  661W        W 4861   4.737   3.021  12.276  0.1256  0.1717  0.0338
  662W        W 4862   1.424   5.453  12.579  0.1562  0.0694 -0.0369
  663W        W 4863   5.931   4.968   4.663 -0.4538 -0.2091 -0.2471
  664W        W 4864   4.420   1.735  10.394  0.1944 -0.0376 -0.1829
  665W        W 4865   5.257   7.718   3.335 -0.0707 -0.1114 -0.0393
  666W        W 4866   7.408   0.309  12.882  0.0748 -0.1333 -0.0076
  667W        W 4867   0.630   5.432  11.570  0.2848 -0.1317  0.1382
  668W        W 4868   4.843   9.767  10.435 -0.0781 -0.3488  0.2014
  669W        W 4869   2.728   1.221   4.607 -0.2722  0.0731  0.2281
  670W        W 4870   9.788   0.357  12.108  0.0036 -0.1702  0.0343
  671W        W 4871   3.930   7.608  13.353 -0.2438 -0.1250 -0.0042
  672W        W 4872   2.638   2.974   9.059  0.2881 -0.3372 -0.0261
  673W        W 4873   2.901   4.187   1.437  0.0311 -0.2652  0.1052
  674W        W 4874   3.809   6.809   9.879 -0.1834 -0.2924  0.1607
  675W        W 4875   3.290   0.357   9.127  0.1920  0.1484  0.0823
  676W        W 4876   8.689   5.384   0.164 -0.0334  0.1567 -0.0153
  677W        W 4877   7.717   1.846   9.640  0.2044 -0.1835 -0.0569
  678W        W 4878   9.107   9.821   1.465 -0.0188 -0.0490 -0.0670
  679W        W 4879   8.935   2.823  11.470  0.0938 -0.1382 -0.1655
  680W        W 4880   7.056   5.736   8.918 -0.1548 -0.1038 -0.1814
  681W        W 4881   4.592   3.794   4.585  0.0489  0.5179  0.0475
  682W        W 4882   3.207   3.323  11.555 -0.1860  0.0593  0.1896
  683W        W 4883   2.217   2.063   1.200 -0.0854  0.2807  0.2161
  684W        W 4884   7.651   9.743   3.251 -0.0326  0.2162  0.2241
  685W        W 4885   5.195  10.375   1.679 -0.0239  0.4077 -0.2421
  686W        W 4886   6.455   2.233  10.390 -0.2029 -0.4692  0.0533
  687W        W 4887   5.729   6.291   0.554  0.0391 -0.1282 -0.1737
  688W        W 4888   0.819   2.581   0.011 -0.0925 -0.1357  0.1635
  689W        W 4889   5.574   5.161  12.542  0.2002  0.0269  0.5937
  690W        W 4890   5.653   7.928   3.550 -0.4263 -0.0001  0.0143
  691W        W 4891   9.991   8.314  12.363 -0.1134  0.3346 -0.0151
  692W        W 4892   6.809  10.341   9.770  0.1101 -0.0999 -0.1739
  693W        W 4893   6.938   3.922   9.601  0.0317  0.1268 -0.0107
  694W        W 4894   9.558   5.763   3.166 -0.0037 -0.0067 -0.3783
  695W        W 4895   7.738   9.912   9.826  0.0720 -0.3965  0.0957
  696W        W 4896   7.463   5.814  11.877  0.1175  0.0750 -0.0226
  697W        W 4897   7.999   5.013   9.835  0.0668  0.0789 -0.2641
  698W        W 4898   5.674   0.535   4.146  0.1986 -0.2377 -0.4008
  699W        W 4899   3.474   7.230   2.395  0.3153 -0.1108 -0.2568
  700W        W 4900   5.762   2.172   3.159  0.0432  0.1019  0.0606
  701W        W 4901   8.894   0.570   2.184 -0.1506  0.1360  0.0831
  702W        W 4902   2.874   7.508   3.505  0.1779 -0.1244 -0.1646
  703W        W 4903   8.812   4.020   0.887  0.0218 -0.2336  0.0660
  704W        W 4904   5.659   4.795  11.519  0.0064  0.0073  0.1938
  705W        W 4905   3.923   5.434   0.656  0.3262  0.1543  0.1126
  706W        W 4906   4.541   3.698  13.133 -0.0443  0.0528  0.0795
  707W        W 4907   3.142   0.862  12.647  0.1134  0.1402 -0.1116
  708W        W 4908   5.468   4.276   1.936 -0.0580  0.0464 -0.0776
  709W        W 4909   9.448   0.313   1.345  0.1907  0.0561 -0.1086
  710W        W 4910   3.270   9.612   1.063 -0.3847 -0.1843  0.0841
  711W        W 4911   1.699   4.003  11.642  0.1413 -0.0586 -0.1117
  712W        W 4912   2.904   1.747   9.396 -0.0774 -0.1075  0.1290
  713W        W 4913   3.447   2.428   8.245 -0.2550  0.1017 -0.1513
  714W        W 4914   3.924   8.143   4.875 -0.3388 -0.1577  0.0293
  715W        W 4915   0.314   5.079   1.121 -0.1318  0.0607 -0.2735
  716W        W 4916   3.474   0.647   2.533 -0.0779 -0.3155 -0.1937
  717W        W 4917   4.996   8.698  13.267 -0.2654  0.0201  0.0972
  718W        W 4918   8.071   3.525  10.640  0.1408 -0.0747 -0.0073
  719W        W 4919   8.000   2.006   3.224  0.0619 -0.0810  0.2182
  720W        W 4920   2.368   6.038   0.434  0.0817  0.0262  0.1388
  721W        W 4921   9.936   5.490  10.134 -0.0698  0.0774 -0.1252
  722W        W 4922   5.973   5.102  12.905 -0.2490 -0.1215  0.0181
  723W        W 4923   8.456   7.281   8.744 -0.1299 -0.1280 -0.0220
  724W        W 4924   9.177   9.036   8.964 -0.0597  0.1142  0.1145
  725W        W 4925   9.264   7.367  12.042 -0.1099 -0.0774 -0.0594
  726W        W 4926   1.736   1.572  11.609 -0.0961 -0.1767 -0.0187
  727W        W 4927   3.037   0.859  10.359  0.2234  0.2189  0.1054
  728W        W 4928   5.419   7.301  13.360  0.0948 -0.0707 -0.2870
  729W        W 4929   4.672   8.639   0.772  0.1574 -0.1171  0.0094
  730W        W 4930   9.261   2.586   3.051  0.0931  0.2975  0.0321
  731W        W 4931   8.172   1.510  11.699 -0.1436 -0.3097  0.2253
  732W        W 4932   2.000  10.046   0.914  0.0549  0.0281 -0.2730
  733W        W 4933   4.070   7.029   2.587  0.0827 -0.1258  0.0698
  734W        W 4934   6.318   1.668   4.349 -0.0669  0.1160  0.0939
  735W        W 4935   6.292   0.982  12.435  0.5586  0.0339  0.2478
  736W        W 4936   4.348   0.810   3.100  0.1469 -0.4481 -0.0362
  737W        W 4937   6.982   7.794   2.962  0.1663 -0.0557 -0.0537
  738W        W 4938   6.019   1.085  13.370 -0.0251  0.1648  0.0898
  739W        W 4939   6.818   1.356   0.928 -0.0046  0.1326  0.0242
  740W        W 4940   5.780   3.477   8.890  0.0756 -0.0192 -0.0091
  741W        W 4941   3.404   4.556  10.959  0.2303  0.3706 -0.2033
  742W        W 4942   9.181   3.114   3.049  0.0216  0.1696 -0.1181
  743W        W 4943   7.896   8.130   2.958  0.1306  0.1418  0.0998
  744W        W 4944   1.023   6.512   3.818  0.0459  0.0986 -0.3005
  745W        W 4945   8.086   4.135  10.518 -0.0471 -0.0604 -0.1332
  746W        W 4946   9.881   0.102   2.212 -0.2446 -0.1688  0.0136
  747W        W 4947   1.037   4.451  12.858  0.2236 -0.0733  0.2363
  748W        W 4948   5.924   5.558   5.107 -0.0068  0.1237  0.0568
  749W        W 4949   6.484   1.567   1.805  0.0488 -0.1737 -0.0653
  750W        W 4950   5.039   5.006   4.612 -0.0573 -0.0399 -0.2068
  751W        W 4951   0.845   9.576   3.340  0.2847 -0.0319  0.2069
  752W        W 4952  10.029   1.262  11.587 -0.0949 -0.4072  0.2463
  753W        W 4953   1.764   3.860   0.745  0.1436  0.1889  0.3038
  754W        W 4954   5.053   5.133   3.728  0.2645 -0.2712 -0.1737
  755W        W 4955   8.545   4.432  12.642 -0.2674 -0.1727 -0.1343
  756W        W 4956   7.919   5.836  13.318  0.2892 -0.1355 -0.0660
  757W        W 4957   5.208   2.062   0.930  0.3038  0.2227 -0.1672
  758W        W 4958   8.379   4.138  10.090 -0.1202  0.1895 -0.2099
  759W        W 4959   5.836   4.570   1.610 -0.0321  0.2030  0.1434
  760W        W 4960   7.002   7.222   0.398  0.1683 -0.2376 -0.1041
  761W        W 4961   2.298   6.041   2.412 -0.0841 -0.0428 -0.0679
  762W        W 4962   9.706   0.354   0.113 -0.0871 -0.2505  0.0016
  763W        W 4963   3.946   3.289   0.827  0.2326  0.0886 -0.0788
  764W        W 4964   1.953   6.570   1.486  0.2831  0.1451  0.3466
  765W        W 4965   0.517   3.239  12.205 -0.4442 -0.1313 -0.0672
  766W        W 4966   8.076   7.570   4.366  0.0914 -0.0447 -0.4361
  767W        W 4967   1.790   4.750   3.080 -0.1810  0.1544 -0.0555
  768W        W 4968   5.577  10.430   3.045 -0.1776 -0.3100 -0.2064
  769W        W 4969   7.789   2.473   3.724  0.3055 -0.0620 -0.0028
  770W        W 4970   8.696   4.783  11.623 -0.0384 -0.3123  0.1404
  771W        W 4971   3.685   0.011   2.015 -0.0495  0.2808  0.1109
  772W        W 4972   6.993   8.228  13.282 -0.0239 -0.5316 -0.0057
  773W        W 4973   2.908   2.239   3.500  0.0547 -0.1111  0.3081
  774W        W 4974   1.026   0.227   0.256  0.1729 -0.0643 -0.0293
  775W        W 4975   9.208   8.180   3.759  0.1935 -0.2578  0.0297
  776W        W 4976   3.643   8.817  11.445  0.0462  0.0284  0.2330
  777W        W 4977   3.954   5.243  12.669  0.0512  0.2331 -0.0994
  778W        W 4978   0.932   2.874  10.706 -0.0678  0.2228  0.0435
  779W        W 4979   2.929   9.030   4.485  0.1465 -0.2193  0.2222
  780W        W 4980   8.393   2.712  11.466 -0.0815 -0.1200  0.2236
  781W        W 4981   4.243   8.746   0.518 -0.0127  0.0472 -0.2719
  782W        W 4982   5.639   2.016  11.649  0.5422  0.1241 -0.2218
  783W        W 4983   8.600   0.178  10.672  0.0155  0.0028  0.0108
  784W        W 4984   3.060   7.725   0.359 -0.2027 -0.0788  0.0641
  785W        W 4985   7.136   5.688  13.024 -0.1326  0.1948 -0.0971
  786W        W 4986   2.388   6.830  11.147  0.0163 -0.1785 -0.0306
  787W        W 4987   3.887   9.685  13.157 -0.2246 -0.2464 -0.2990
  788W        W 4988  10.268   5.084   2.663  0.1480  0.2350 -0.2398
  789W        W 4989   3.338   2.495   1.911 -0.0392 -0.0114 -0.0840
  790W        W 4990   9.673   2.143  13.194 -0.0363  0.0894  0.1569
  791W        W 4991   8.496   7.250  11.782  0.0022 -0.0849 -0.0773
  792W        W 4992   2.799   5.703  13.015 -0.0305  0.2433 -0.3429
  793W        W 4993   5.721   1.083  12.427 -0.1499  0.0504 -0.2030
  794W        W 4994   4.420   6.389   0.226 -0.4263 -0.2940 -0.0038
  795W        W 4995  10.115   0.099   3.777 -0.2028  0.1643  0.0886
  796W        W 4996   9.664   4.939  11.725 -0.0878 -0.0245 -0.1590
  797W        W 4997   8.971   7.469  11.056 -0.1986 -0.1247  0.2475
  798W        W 4998   8.410   1.120   2.318  0.3337  0.1627 -0.1086
  799W        W 4999   8.625   7.599  10.596  0.0548 -0.2280 -0.1597
  800W        W 5000   6.542   6.413  11.415 -0.3997  0.2163  0.2432
  801W        W 5001   1.446   4.964  11.283 -0.1411 -0.2514  0.1546
  802W        W 5002   6.070   7.049   3.096  0.1743  0.0566 -0.4499
  803W        W 5003   6.807   5.150   0.136  0.2712  0.2965  0.0274
  804W        W 5004   9.457  10.162  10.786 -0.0911 -0.1005 -0.0987
  805W        W 5005   1.368   8.867   0.415  0.1460 -0.0139  0.0347
  806W        W 5006   0.941   5.842   9.212  0.1120 -0.0216 -0.0932
  807W        W 5007   7.708   1.601   0.995  0.0574 -0.0921  0.1217
  808W        W 5008   6.830   8.592   3.520  0.1747 -0.1946 -0.2471
  809W        W 5009   2.676   3.622  11.700 -0.1449  0.1413 -0.1896
  810W        W 5010   8.254   9.082   9.610  0.1102 -0.1340 -0.1253
  811W        W 5011   9.761   9.696   9.874 -0.0557  0.1128  0.2249
  812W        W 5012   1.068   5.830  10.676  0.4528  0.2791  0.5156
  813W        W 5013   0.293   6.871  12.824 -0.1534  0.2678  0.1156
  814W        W 5014   9.914   3.191   2.965  0.2624  0.0935  0.2021
  815W        W 5015   9.138   7.979  12.276 -0.1283  0.1444 -0.1234
  816W        W 5016   9.444   7.245   1.411  0.3192 -0.0486 -0.1420
  817W        W 5017   1.611   6.189  11.249  0.2301 -0.1051  0.1093
  818W        W 5018   9.324   4.284  10.215  0.1734  0.0357  0.0977
  819W        W 5019   2.921   1.907   2.179 -0.1193 -0.1150  0.2220
  820W        W 5020   7.795   4.115  10.095 -0.0183  0.1907 -0.2465
  821W        W 5021   2.385   6.959   2.479 -0.3082 -0.1343 -0.0303
  822W        W 5022   9.572   9.056   1.984 -0.1099  0.1830 -0.0147
  823W        W 5023   5.112   2.015  10.700 -0.0530  0.0558  0.1462
  824W        W 5024   5.716   6.708   5.086 -0.1613 -0.2546  0.1120
  825W        W 5025   7.141   0.669  12.066  0.1243 -0.5087 -0.1858
  826W        W 5026   5.853   7.740  11.321  0.0450  0.1229  0.1187
  827W        W 5027   3.270   9.955   0.698  0.1443  0.0015 -0.2367
  828W        W 5028   2.997   5.178   9.187 -0.0472  0.0915  0.0332
  829W        W 5029   3.530  10.059   4.154 -0.0553  0.1070 -0.1076
  830W        W 5030   5.981   0.258   2.998  0.0276  0.2562  0.1752
  831W        W 5031   9.212   9.132  11.164  0.1057 -0.0192  0.2801
  832W        W 5032   2.004   5.070  10.687 -0.0097  0.2375  0.1599
  833W        W 5033   5.435  10.384  12.098  0.0333  0.1292 -0.1897
  834W        W 5034   3.377   5.572   0.786 -0.0234 -0.0836 -0.1460
  835W        W 5035   3.958   0.487   2.700 -0.0146 -0.1657 -0.0551
  836W        W 5036   3.024   6.026  12.225 -0.2958  0.3027  0.3077
  837W        W 5037   9.850   3.673  12.760  0.1337  0.0559  0.3823
  838W        W 5038   3.126   8.303   3.835 -0.1115 -0.2325  0.0460
  839W        W 5039   3.143   3.274   4.303  0.0838  0.1276 -0.3958
  840W        W 5040   4.034   3.919  10.115  0.0661 -0.0108  0.0069
  841W        W 5041   7.410   3.182   9.427 -0.1035 -0.2383 -0.2438
  842W        W 5042   1.458   1.001  12.992  0.3628  0.0267  0.0796
  843W        W 5043   5.679   0.512   1.944  0.1963 -0.1452 -0.2364
  844W        W 5044   4.266   5.709   2.253  0.0563 -0.0424  0.0790
  845W        W 5045  10.274   3.858   0.192 -0.1866 -0.1827 -0.0073
  846W        W 5046   9.539   5.965   1.167 -0.1992 -0.1856 -0.0895
  847W        W 5047   4.212   1.643   3.478 -0.0741 -0.0676 -0.0499
  848W        W 5048   7.600   6.553   9.403  0.0235 -0.0547 -0.0598
  849W        W 5049   3.157   6.053   2.818  0.0604 -0.1627 -0.1317
  850W        W 5050   4.407   5.656   4.220  0.2071  0.4025  0.2855
  851W        W 5051   4.109   9.243   0.871 -0.0051  0.1760  0.3280
  852W        W 5052   5.192   8.952   0.296 -0.3613 -0.1612  0.0492
  853W        W 5053   7.541   5.136   9.206  0.3820 -0.0122  0.0124
  854W        W 5054   4.930   0.228   2.589 -0.1036  0.1421  0.0951
  855W        W 5055   6.215   3.078   0.926 -0.2526  0.0266  0.0510
  856W        W 5056   2.786   0.747   0.919  0.0162  0.2288 -0.0765
  857W        W 5057   8.250   4.479   0.187  0.2491  0.1044 -0.1538
  858W        W 5058   7.068   9.061   2.771  0.1783  0.1065  0.2608
  859W        W 5059  10.009   8.862   3.252 -0.0532  0.0956  0.2461
  860W        W 5060   8.795   9.058   0.920  0.0136  0.2298 -0.0473
  861W        W 5061   3.055   4.828  10.636 -0.1438 -0.2106  0.0073
  862W        W 5062   0.755   4.286   0.869 -0.1133 -0.1430  0.1107
  863W        W 5063   3.772   1.756  11.568  0.2562  0.2525  0.1697
  864W        W 5064   7.211   5.244   2.553 -0.1024 -0.1429  0.0099
  865W        W 5065   4.967  10.277   2.819 -0.2844 -0.1171  0.0672
  866W        W 5066   4.557   1.996   3.609 -0.0099 -0.0791  0.3292
  867W        W 5067   3.849   7.284   3.092 -0.0384 -0.0112  0.2157
  868W        W 5068   9.032   9.597   3.772 -0.1403  0.1291  0.2118
  869W        W 5069  10.148   0.638  10.692 -0.1665 -0.1383 -0.1385
  870W        W 5070   6.786   4.886   9.533  0.1942  0.3963  0.3029
  871W        W 5071   0.395   8.799   0.513  0.0513 -0.1745  0.2006
  872W        W 5072   1.809   8.556   5.219  0.1336 -0.2597 -0.3232
  873W        W 5073  10.225   7.911   3.521  0.2629  0.1663  0.3784
  874W        W 5074   8.123  10.144  13.266 -0.0819  0.0445  0.0236
  875W        W 5075   8.105   1.908  12.992  0.1609 -0.2841  0.1446
  876W        W 5076   3.262   1.771   4.278 -0.1051  0.0213  0.1568
  877W        W 5077   2.701   8.067  11.526  0.0590 -0.2204 -0.0405
  878W        W 5078   3.918   8.246   1.408  0.1349 -0.3140 -0.1837
  879W        W 5079   5.411   3.316   5.141  0.0543  0.3553 -0.2072
  880W        W 5080   2.085   8.749   1.933  0.2130  0.1010 -0.2102
  881W        W 5081   0.215   4.529  12.622 -0.2189  0.0409  0.1913
  882W        W 5082   3.230   9.868  11.434 -0.0965  0.2138  0.4951
  883W        W 5083   4.642   4.301  13.086  0.0281 -0.3516 -0.1269
  884W        W 5084   2.967   0.308  12.772 -0.0220  0.0562  0.0067
  885W        W 5085  10.076   4.495  12.081 -0.1508  0.4276  0.1508
  886W        W 5086   1.220   0.700   3.128  0.0233  0.2215 -0.0984
  887W        W 5087  10.055   8.333   9.835  0.3119  0.3459  0.2916
  888W        W 5088   5.686   8.135  11.615  0.0002 -0.1904 -0.1939
  889W        W 5089  10.394   7.530  11.029 -0.0844 -0.0383  0.1064
  890W        W 5090   9.384   3.240   2.196 -0.1342 -0.0284  0.1188
  891W        W 5091   9.381   9.707   2.441 -0.2454 -0.2043  0.1476
  892W        W 5092   3.608   1.062   2.212 -0.3127 -0.1856  0.1330
  893W        W 5093   6.341   2.115  13.187  0.0349  0.1475 -0.0159
  894W        W 5094   8.730   5.516   0.685 -0.0551 -0.3946 -0.0555
  895W        W 5095   6.091   1.395   2.221 -0.0494  0.0300  0.1448
  896W        W 5096   7.131   2.178   2.761  0.0514 -0.1379 -0.0964
  897W        W 5097   0.848   4.291  11.502 -0.0946  0.3865 -0.2534
  898W        W 5098   8.714   2.597   1.292  0.0521 -0.1072 -0.0623
  899W        W 5099   3.089   5.004   1.589  0.2462 -0.0753  0.1289
  900W        W 5100   0.979   3.273  13.152  0.2431 -0.1126 -0.0130
  901W        W 5101   8.402   1.858  12.115 -0.0922  0.0359  0.1781
  902W        W 5102   1.961   7.816   1.544  0.1566  0.0146 -0.0330
  903W        W 5103   8.228   8.714   0.426 -0.0436 -0.3503 -0.2030
  904W        W 5104   2.914   3.864   0.076 -0.1810 -0.2578  0.1138
  905W        W 5105   6.478   2.749   1.635  0.2651 -0.0954 -0.0427
  906W        W 5106  10.448   8.785   0.741 -0.0142  0.2568  0.1982
  907W        W 5107   9.424   0.107   8.813  0.0156  0.2418 -0.3302
  908W        W 5108   5.585   5.392   3.841 -0.0888 -0.0306 -0.2367
  909W        W 5109   8.964   1.965  11.177 -0.2887  0.0215  0.2466
  910W        W 5110   9.211   8.203   0.929 -0.0883 -0.0436 -0.3829
  911W        W 5111   8.756  10.348  11.484 -0.0835 -0.0750 -0.0925
  912W        W 5112   4.977   4.989  11.734 -0.4597  0.2193  0.2747
  913W        W 5113   6.097   1.145   1.645  0.2365  0.2060  0.1012
  914W        W 5114   1.989   6.908  11.822  0.0769  0.4625  0.1681
  915W        W 5115   6.964   4.916   3.394  0.2155 -0.3445 -0.1137
  916W        W 5116   9.894   8.938   8.796  0.3026 -0.0424 -0.1928
  917W        W 5117   8.417   1.345  12.670  0.0603  0.1345  0.3060
  918W        W 5118   1.509   6.396  12.557 -0.1472  0.1693 -0.4322
  919W        W 5119   6.008   0.730   3.440  0.0253 -0.2158  0.2791
  920W        W 5120   0.877  10.374  13.302  0.0382 -0.0166  0.2171
  921W        W 5121   7.332   6.180  10.816 -0.2439 -0.1548  0.2006
  922W        W 5122   4.516   9.987  13.359 -0.2972 -0.4807 -0.3471
  923W        W 5123   3.360  10.348   3.691  0.0582  0.2070  0.0963
  924W        W 5124   1.214   7.249   9.541  0.2387 -0.1319  0.0253
  925W        W 5125   9.220   5.407   1.169 -0.0578  0.0053 -0.3984
  926W        W 5126   1.668   7.015   1.721  0.1010  0.1231  0.4447
  927W        W 5127   5.324   2.645   9.047  0.3555 -0.1005 -0.0208
  928W        W 5128   1.325   6.845  12.499  0.0592 -0.2269 -0.0291
  929W        W 5129   3.263   4.463  12.749 -0.1170  0.1061  0.1786
  930W        W 5130   2.316   4.746   3.001  0.2237 -0.2040  0.1997
  931W        W 5131   8.326   8.628   4.595 -0.0633 -0.1426 -0.0660
  932W        W 5132   0.216   7.972   3.882  0.2001 -0.0200 -0.1673
  933W        W 5133   3.749   0.129   9.200 -0.0913 -0.1186 -0.2602
  934W        W 5134   0.670   6.067   0.578  0.3415 -0.1299 -0.1694
  935W        W 5135   4.390   8.522   4.314  0.1207 -0.1485  0.3066
  936W        W 5136   3.064   5.023   9.725 -0.0505 -0.0401  0.1295
  937W        W 5137   3.202   3.669   1.401  0.2278 -0.2474 -0.0747
  938W        W 5138   1.829   8.825   0.283 -0.1962 -0.1130  0.1281
  939W        W 5139   3.035  10.402   4.056  0.0540 -0.0967 -0.1507
  940W        W 5140   2.257   5.377  10.942 -0.2101  0.0576 -0.0347
  941W        W 5141  10.428   7.522   2.732 -0.0174  0.1532  0.0298
  942W        W 5142   6.988   3.793   2.311  0.0271 -0.0500  0.0748
  943W        W 5143   6.728   7.485   9.110 -0.0496 -0.1769  0.0173
  944W        W 5144   0.269   8.616   2.502 -0.1990  0.1150  0.1115
  945W        W 5145   1.306  10.081   2.330 -0.0713  0.0797 -0.2962
  946W        W 5146   5.818   9.738  12.569 -0.1640  0.1423 -0.0704
  947W        W 5147   4.776   2.418  13.356 -0.0912 -0.1039 -0.1692
  948W        W 5148   4.384   2.189   3.191 -0.1783  0.2643  0.1168
  949W        W 5149   8.813   2.834  10.648  0.0147 -0.3426  0.0803
  950W        W 5150   5.718   0.670   0.970  0.0859 -0.0700  0.3445
  951W        W 5151   0.849   7.958  11.653 -0.3794  0.0811  0.1648
  952W        W 5152   8.099   9.532   3.442 -0.4960  0.2416 -0.0773
  953W        W 5153  10.344   3.781  10.138 -0.2445  0.1002  0.0677
  954W        W 5154   0.578   6.018   2.327  0.1031  0.2255 -0.1728
  955W        W 5155   2.133   2.363   4.069 -0.2640 -0.3795 -0.1016
  956W        W 5156   2.756   0.045  13.317  0.1964 -0.0785 -0.1165
  957W        W 5157   4.302   7.194  10.987 -0.0623  0.1186  0.2324
  958W        W 5158   4.962   1.244   0.289 -0.0210  0.2434  0.0665
  959W        W 5159   4.262   1.056   1.562  0.0048  0.3015  0.0333
  960W        W 5160   7.499   7.431   0.274  0.0192  0.0036  0.0811
  961W        W 5161   8.806   6.007   9.036 -0.0617  0.0463  0.1130
  962W        W 5162   6.070   6.772  12.196 -0.0528  0.0411 -0.1777
  963W        W 5163   9.543   7.442   4.056 -0.1370 -0.0881  0.4173
  964W        W 5164   8.382   7.618   5.448 -0.0635  0.0836  0.1441
  965W        W 5165   8.043   6.171   3.973  0.3814 -0.0231 -0.0328
  966W        W 5166   2.587   7.479   0.220  0.2293 -0.1306 -0.3996
  967W        W 5167   2.013   5.785   2.997 -0.5633 -0.0332 -0.1009
  968W        W 5168   6.482   5.385   3.276 -0.0362  0.0424  0.0950
  969W        W 5169   2.491   8.831  12.880 -0.0829  0.0849  0.2404
  970W        W 5170   1.265   7.009   0.087 -0.0106 -0.2739  0.1343
  971W        W 5171   3.477   1.486  11.346 -0.1222  0.1747  0.0535
  972W        W 5172   2.782   3.480   3.237  0.1409  0.1183  0.0238
  973W        W 5173   4.225   2.128  12.214  0.2262 -0.2963 -0.1709
  974W        W 5174   4.870   7.044  10.497  0.0736 -0.2484 -0.1005
  975W        W 5175   8.363   9.856   4.291 -0.0308  0.1442 -0.0295
  976W        W 5176   0.981   8.595   1.699 -0.1258 -0.0269 -0.2518
  977W        W 5177   7.500   6.798   8.940  0.0673  0.2480 -0.0144
  978W        W 5178   5.273   2.619   0.039 -0.0715 -0.0652  0.0891
  979W        W 5179   2.879   4.457   9.246 -0.0364  0.0949  0.3628
  980W        W 5180   5.393   9.586   3.375 -0.1846 -0.1540  0.1645
  981W        W 5181   0.924   0.255   3.378  0.0564 -0.0475 -0.5634
  982W        W 5182   5.375   9.450  10.931 -0.1213 -0.4018 -0.1095
  983W        W 5183   2.829   7.599  10.670  0.0700  0.1568 -0.1521
  984W        W 5184   5.592   1.622   3.882  0.0746  0.0822 -0.1203
  985W        W 5185   1.496   2.046  13.163  0.3110  0.0491  0.0216
  986W        W 5186   6.675   8.208  11.903 -0.0830  0.0657 -0.0255
  987W        W 5187   1.203   4.580   0.811  0.0469  0.0064 -0.1220
  988W        W 5188   2.026   5.968  10.214 -0.2171 -0.0733  0.2535
  989W        W 5189   9.194   2.763   0.742  0.0988  0.3533 -0.1112
  990W        W 5190   3.093   6.545   0.993 -0.1455  0.1045  0.1680
  991W        W 5191   6.354   0.708   3.800 -0.1794 -0.1268  0.1633
  992W        W 5192   4.361   5.538   0.379  0.1176 -0.0073  0.1827
  993W        W 5193   0.485   9.173  11.068 -0.0627  0.1958 -0.0300
  994W        W 5194  10.082   2.334  10.479  0.1938 -0.0480  0.0807
  995W        W 5195   7.634   1.885   0.609 -0.2285  0.0609 -0.1459
  996W        W 5196   3.718   9.476  12.150 -0.1000 -0.2780  0.2853
  997W        W 5197   2.435   0.480   4.127 -0.2295  0.2660 -0.1115
  998W        W 5198   2.764   3.197   0.150  0.3328 -0.3213 -0.0597
  999W        W 5199   2.391   8.890  10.708 -0.0760  0.2612  0.3060
 1000W        W 5200   1.456   0.807  11.181  0.1981  0.1674 -0.0382
 1001W        W 5201   8.099   1.399   1.262 -0.1846  0.1531  0.0582
 1002W        W 5202   6.952   3.908  11.387  0.1962 -0.0102  0.0339
 1003W        W 5203   8.922   9.065   3.701  0.0128  0.1139 -0.0080
 1004W        W 5204  10.047   5.941  10.308  0.0643 -0.3961  0.2599
 1005W        W 5205   9.599   2.274  10.467  0.1719  0.0511 -0.3373
 1006W        W 5206   1.052   3.522  10.187 -0.3280 -0.0080 -0.3179
 1007W        W 5207   2.646   0.865   9.434 -0.1924 -0.2427 -0.3076
 1008W        W 5208   7.910   0.624  12.054  0.2282  0.0035  0.0929
 1009W        W 5209   4.775   4.889  11.288 -0.1782  0.2597 -0.2540
 1010W        W 5210   4.638   7.031  11.395  0.5191  0.2480  0.0691
 1011W        W 5211   6.071   3.234   9.702 -0.1321 -0.0210 -0.3308
 1012W        W 5212   5.846   6.841   0.578 -0.1404  0.3636  0.1808
 1013W        W 5213   2.338   2.964   0.942 -0.0867 -0.1632 -0.1787
 1014W        W 5214   3.350   9.631   2.261  0.0931 -0.2640 -0.3682
 1015W        W 5215   5.634   8.768  11.204  0.0233 -0.3442 -0.1328
 1016W        W 5216   3.362   7.294  12.729  0.1131  0.1388  0.3038
 1017W        W 5217   9.237   2.389   1.100 -0.1742 -0.0134 -0.0717
 1018W        W 5218   3.006   6.073   4.011 -0.3130 -0.0639  0.0213
 1019W        W 5219   0.094   2.048  12.721  0.1063  0.0630  0.0664
 1020W        W 5220   8.350   6.393   2.757  0.2663 -0.2391 -0.0879
 1021W        W 5221   3.442   9.561   9.072 -0.0419  0.3297 -0.0501
 1022W        W 5222   4.865   0.711  11.314 -0.2613  0.1452  0.2915
 1023W        W 5223   4.602   8.253   1.140  0.0492 -0.0777  0.2354
 1024W        W 5224   7.932   4.941   1.902  0.2587  0.0952 -0.1009
 1025W        W 5225   2.823   3.859   2.825  0.0892 -0.2901 -0.0938
 1026W        W 5226   9.594   2.250   2.940  0.0616  0.1278  0.0598
 1027W        W 5227   6.755   2.696   0.627 -0.1586  0.2500 -0.1710
 1028W        W 5228   0.907   6.367   8.369  0.0278 -0.3837  0.0263
 1029W        W 5229   8.463   8.674   0.851 -0.2248  0.2722  0.1127
 1030W        W 5230   6.077   7.275  10.342  0.0213  0.1140  0.1673
 1031W        W 5231   6.747   6.099   1.269  0.1112  0.1813  0.1689
 1032W        W 5232   2.194   1.383  11.889  0.0353  0.0652 -0.1351
 1033W        W 5233   6.722   7.694  10.993  0.0693  0.0374 -0.0014
 1034W        W 5234   6.547   2.755  12.288 -0.0249  0.0513 -0.1245
 1035W        W 5235   0.586   0.124   1.856  0.0959 -0.0215  0.0681
 1036W        W 5236   4.158   4.291   2.226 -0.0675  0.2048  0.0621
 1037W        W 5237   8.726   7.975   3.939 -0.1434 -0.0803  0.0981
 1038W        W 5238   0.420   9.257   2.326  0.2840 -0.1885 -0.2259
 1039W        W 5239   7.135   2.732   9.408  0.1738 -0.1897 -0.1480
 1040W        W 5240   5.797   4.487  11.880  0.1217  0.1172 -0.0551
 1041W        W 5241   7.034   3.121  10.177 -0.0884 -0.0018 -0.0267
 1042W        W 5242   8.242   6.010  11.163 -0.1912 -0.1185 -0.1614
 1043W        W 5243   9.106   5.603  12.310  0.2146  0.1562 -0.1056
 1044W        W 5244   0.101   2.439   0.400  0.0058 -0.0541 -0.0193
 1045W        W 5245   1.652   2.514  13.266 -0.1532 -0.4056 -0.0800
 1046W        W 5246   8.287   0.506  10.878  0.2093 -0.1191  0.1828
 1047W        W 5247   9.335   7.098  10.912  0.0537 -0.0936 -0.1264
 1048W        W 5248   5.107   6.092   1.210  0.4255 -0.2012 -0.1158
 1049W        W 5249   3.378   5.842   9.477 -0.0508  0.1947  0.0866
 1050W        W 5250   9.680   8.432   3.790  0.1381 -0.0529  0.0342
 1051W        W 5251   2.388   0.230   2.328 -0.0451  0.1940 -0.1410
 1052W        W 5252   6.098  10.339   4.693 -0.2511 -0.1551  0.0462
 1053W        W 5253   2.385   0.961   3.603 -0.2410 -0.2439 -0.1864
 1054W        W 5254   0.095   5.114   4.869  0.0627 -0.1289  0.2208
 1055W        W 5255   6.908   4.538  12.767  0.1585  0.2375  0.0910
 1056W        W 5256   6.084   2.386   3.821 -0.1026  0.2714  0.1375
 1057W        W 5257   5.308   9.251  11.415  0.0729  0.1876  0.0155
 1058W        W 5258   8.794   1.953   1.827 -0.1324  0.2485  0.1370
 1059W        W 5259   4.913   2.001   3.200  0.2012  0.0996 -0.1955
 1060W        W 5260   6.359  10.175   9.916 -0.0107  0.0258  0.0134
 1061W        W 5261  10.311   3.320   1.060 -0.0727 -0.1850  0.0888
 1062W        W 5262   3.257  10.308  12.711 -0.2315  0.2220 -0.0189
 1063W        W 5263   7.081   6.047   2.082  0.3562  0.1674  0.2636
 1064W        W 5264   1.131   4.607   8.743  0.0200  0.0944  0.0525
 1065W        W 5265   2.478   3.220   5.230 -0.2179 -0.1830  0.0136
 1066W        W 5266   7.698   4.115   1.761 -0.1103  0.1519  0.1447
 1067W        W 5267   1.615   6.471   2.449  0.0544 -0.1240 -0.0744
 1068W        W 5268  10.261   3.959   4.192 -0.1320  0.1814 -0.2870
 1069W        W 5269   4.515   4.656   0.661 -0.3619 -0.0079 -0.2860
 1070W        W 5270   4.717   5.283  10.642 -0.0793 -0.1309  0.1749
 1071W        W 5271   6.242   6.385   9.596 -0.0407 -0.1872 -0.2137
 1072W        W 5272   5.193   9.309   4.833  0.1826  0.1637  0.2887
 1073W        W 5273   5.359   6.266  12.506 -0.0265 -0.4501 -0.1535
 1074W        W 5274   2.568   0.741   8.777  0.0111 -0.1060  0.0470
 1075W        W 5275   9.767   6.218   3.433  0.0416  0.0115  0.0110
 1076W        W 5276   7.209   9.493   3.043 -0.0945 -0.2555  0.0390
 1077W        W 5277   9.500   6.505   2.846  0.0042 -0.0422  0.1210
 1078W        W 5278   8.828   6.624   9.020  0.1305 -0.0171 -0.1635
 1079W        W 5279   5.575   3.801   3.062 -0.1651 -0.3439 -0.2246
 1080W        W 5280   2.272   2.580  13.135  0.0627 -0.1045  0.0107
 1081W        W 5281   1.739   2.886   8.716 -0.1349  0.2040  0.0398
 1082W        W 5282   8.906   5.109   0.918 -0.1587  0.1035 -0.0790
 1083W        W 5283   3.920   6.009  10.731 -0.0168  0.0365  0.0619
 1084W        W 5284   0.652   5.663   1.394  0.2077 -0.0568  0.3272
 1085W        W 5285   5.332   6.748  13.306 -0.2493 -0.0696 -0.2845
 1086W        W 5286   9.244   2.671  10.467 -0.1491  0.0533  0.0087
 1087W        W 5287   0.427   4.494   2.673 -0.1542 -0.1899 -0.0774
 1088W        W 5288   8.802   4.559   0.798 -0.1558 -0.0146  0.3316
 1089W        W 5289   6.837   8.902   0.906  0.3808  0.1308  0.1735
 1090W        W 5290   4.328   9.192   9.524 -0.2615  0.1152  0.0162
 1091W        W 5291   1.294   3.576  12.803  0.0318 -0.1356 -0.1710
 1092W        W 5292   2.127   8.796   9.161  0.0615 -0.1195  0.0033
 1093W        W 5293   2.885   9.195   9.763  0.2251  0.2705 -0.1709
 1094W        W 5294   2.037   2.108   2.513  0.1690  0.0141  0.0819
 1095W        W 5295   3.454   1.989   3.791 -0.1133 -0.1286 -0.1264
 1096W        W 5296   7.356   0.906   0.358  0.0665  0.1513 -0.0007
 1097W        W 5297   7.176   6.195   1.592  0.2989  0.1087 -0.2168
 1098W        W 5298   5.680  10.387  10.262 -0.0745  0.0198  0.0987
 1099W        W 5299   2.073   9.582   9.761  0.3093 -0.0562 -0.1692
 1100W        W 5300   0.105   3.662   3.932 -0.5364 -0.0072 -0.0764
 1101W        W 5301   9.949   7.926  11.518 -0.1660 -0.2300 -0.0452
 1102W        W 5302   6.258   8.711  12.468  0.0900 -0.1571  0.2476
 1103W        W 5303   9.451  10.412   4.272  0.2298  0.1483 -0.2767
 1104W        W 5304   8.320   0.838  12.493  0.2543 -0.2629 -0.0430
 1105W        W 5305   4.452   7.604  11.349  0.0405 -0.1739 -0.0836
 1106W        W 5306   1.116   0.870   1.331  0.0301  0.0454  0.1579
 1107W        W 5307  10.082   2.732  12.454  0.1908 -0.2482  0.0312
 1108W        W 5308   7.478   0.814   1.476  0.0846  0.1939  0.2795
 1109W        W 5309   6.404   9.336   1.664 -0.3808  0.0577  0.0590
 1110W        W 5310   7.766   0.106  12.099  0.2162 -0.2531  0.0215
 1111W        W 5311   4.783   6.991   3.351  0.3819 -0.0008 -0.0489
 1112W        W 5312   5.763  10.415  12.520  0.1815 -0.0514 -0.1658
 1113W        W 5313   2.187   2.084  12.686 -0.0709 -0.0620  0.2904
 1114W        W 5314   7.770   9.484   1.443  0.0673 -0.0089 -0.4073
 1115W        W 5315   8.200   2.638  12.385 -0.1279 -0.1373 -0.0073
 1116W        W 5316   8.385   7.842  12.406  0.0005 -0.1779  0.0465
 1117W        W 5317   4.386   0.454  13.153 -0.2997 -0.3998 -0.0879
 1118W        W 5318   1.022   1.353   3.570  0.0698  0.0970  0.2607
 1119W        W 5319   0.710   9.722   1.370  0.0866 -0.0573 -0.2335
 1120W        W 5320   2.544  10.210  12.770 -0.2024  0.0503 -0.2438
 1121W        W 5321   1.934   3.836  10.314  0.0832 -0.0250 -0.1770
 1122W        W 5322   2.180   0.048   0.175  0.2684  0.2926  0.1371
 1123W        W 5323   3.137   6.384   0.504 -0.0247  0.0318 -0.0264
 1124W        W 5324   8.673   0.939  12.827 -0.1846  0.2567 -0.1017
 1125W        W 5325   6.172   0.673   2.902 -0.0961 -0.4664 -0.1291
 1126W        W 5326   1.649   6.029   2.071  0.1962 -0.2066  0.4370
 1127W        W 5327   3.903   8.605   3.377  0.3425  0.2301 -0.2163
 1128W        W 5328   7.866   9.313   4.947  0.0921 -0.2334 -0.0517
 1129W        W 5329   4.029   6.800  12.267  0.2011  0.0338  0.0188
 1130W        W 5330   6.121   3.720   0.734  0.0731  0.2301  0.0981
 1131W        W 5331   6.092   3.825   2.280 -0.3003 -0.0461 -0.2382
 1132W        W 5332   3.236   4.521   1.246  0.1288 -0.1986 -0.1606
 1133W        W 5333   6.686   1.210  10.992 -0.0345  0.2729 -0.0168
 1134W        W 5334   2.553   5.588   0.333  0.1192  0.2910 -0.0826
 1135W        W 5335   9.765   6.489  11.740 -0.1076  0.1488 -0.1777
 1136W        W 5336   0.686   7.329  11.189  0.1003  0.1111 -0.0371
 1137W        W 5337   1.915   2.219  12.241 -0.0058 -0.2722  0.0763
 1138W        W 5338   5.999   5.366  10.397 -0.0289  0.3745 -0.1432
 1139W        W 5339   3.708   2.292  13.271 -0.1446 -0.0492 -0.0034
 1140W        W 5340   5.732   9.012  11.650  0.4477  0.0044 -0.0748
 1141W        W 5341   7.834   5.236   3.524 -0.2109 -0.3311 -0.0048
 1142W        W 5342   5.174   8.142   9.125 -0.1976 -0.1335 -0.0188
 1143W        W 5343   0.937   7.975   2.447  0.0405 -0.0597 -0.2947
 1144W        W 5344   3.149   3.885  11.591  0.3604  0.3125  0.0697
 1145W        W 5345   9.091   7.470   2.368  0.1308 -0.0813  0.0536
 1146W        W 5346   1.046   0.537   2.266 -0.0618 -0.0392 -0.1176
 1147W        W 5347   2.018   8.965   0.808  0.2544 -0.2259  0.1308
 1148W        W 5348   0.813   9.291   1.610  0.2036 -0.1145  0.1526
 1149W        W 5349   8.451   0.593   1.120 -0.1912  0.2175 -0.1155
 1150W        W 5350   5.760   4.725   3.279 -0.3527  0.2017  0.1757
 1151W        W 5351   0.974   4.361   4.707 -0.0720 -0.0203 -0.0230
 1152W        W 5352   8.016   2.000   0.912 -0.1338  0.4368 -0.2990
 1153W        W 5353   6.446   7.104  10.042  0.0543  0.1255  0.2740
 1154W        W 5354   3.639   5.870  12.748  0.1976 -0.0242  0.1963
 1155W        W 5355   0.117   7.087  10.503  0.2403 -0.3495 -0.1815
 1156W        W 5356   9.812   2.673  10.172  0.1731  0.0031  0.0256
 1157W        W 5357   9.504   5.850  12.230 -0.4011  0.0610  0.1945
 1158W        W 5358   3.115   1.098   9.464 -0.2169  0.0240  0.1845
 1159W        W 5359   2.553   1.766  11.899 -0.2006 -0.0275  0.0583
 1160W        W 5360   2.920   9.838  11.842 -0.1859 -0.1400 -0.1485
 1161W        W 5361   4.503   3.980   9.861  0.0205  0.0943 -0.0363
 1162W        W 5362   9.253   5.346   1.670 -0.0170 -0.2375 -0.1930
 1163W        W 5363   6.914   2.411  12.331 -0.0304 -0.0038  0.2872
 1164W        W 5364   4.266   3.785   2.665 -0.3566 -0.2793  0.0064
 1165W        W 5365   4.167   5.377  10.585  0.1874 -0.2322 -0.2183
 1166W        W 5366   8.098   9.650  10.429 -0.0597  0.1837 -0.2501
 1167W        W 5367   7.145   4.874   9.132 -0.2045  0.3524 -0.1090
 1168W        W 5368   5.460   7.197   0.427 -0.1798  0.0544 -0.0503
 1169W        W 5369   4.666   7.590   9.800 -0.2783 -0.0333 -0.0654
 1170W        W 5370  10.337   9.704  11.261  0.0412 -0.1092  0.0573
 1171W        W 5371   5.577   6.489  12.071 -0.0898 -0.2833  0.3616
 1172W        W 5372   3.069   3.860   3.543  0.2513  0.1107  0.2904
 1173W        W 5373   9.158   4.492  11.526  0.2767 -0.3379 -0.1765
 1174W        W 5374   7.059   6.092  11.655  0.0364 -0.0056 -0.1750
 1175W        W 5375   8.866   1.074  12.356  0.0712 -0.0909  0.0254
 1176W        W 5376   4.252   1.885  12.659  0.3206  0.2159  0.0760
 1177W        W 5377   8.508   4.234   0.559 -0.1365 -0.1265 -0.2458
 1178W        W 5378   8.018   8.430   3.331  0.1069  0.3164  0.3300
 1179W        W 5379   0.159   0.977   9.965  0.1412  0.1921  0.3062
 1180W        W 5380   7.377   9.232   9.088 -0.0051  0.1103  0.0384
 1181W        W 5381   3.141   9.726   4.000  0.1091  0.1911  0.1069
 1182W        W 5382   5.794   6.625  11.607 -0.0274 -0.1321  0.1989
 1183W        W 5383   5.589   5.457  10.683  0.0087 -0.0965 -0.0007
 1184W        W 5384   7.573   3.752   0.474  0.1699 -0.1793  0.0109
 1185W        W 5385   1.554  10.064  11.306  0.0338  0.4473  0.0486
 1186W        W 5386   8.707   2.387  11.248 -0.1134  0.2475  0.1386
 1187W        W 5387   2.829   0.819   4.998  0.1361  0.2969 -0.0696
 1188W        W 5388   8.560   6.473   3.736  0.2017  0.2589 -0.0732
 1189W        W 5389   2.063   7.864   3.586  0.0953  0.2692 -0.0864
 1190W        W 5390   0.681   6.821  11.161 -0.1340  0.5880  0.2628
 1191W        W 5391   5.802   8.203   2.768 -0.0376  0.1165 -0.1444
 1192W        W 5392   9.890   3.192   2.456  0.0517  0.5283  0.1939
 1193W        W 5393   8.572   0.346  12.662 -0.0465  0.0998  0.1487
 1194W        W 5394   2.376   6.266   4.813  0.1690 -0.1436 -0.1274
 1195W        W 5395   7.780   6.478   1.215  0.3181  0.2941 -0.0717
 1196W        W 5396   2.415   8.569   3.101  0.1202 -0.3213 -0.1888
 1197W        W 5397   7.115   8.697   9.731  0.1631 -0.2279  0.4182
 1198W        W 5398   7.178  10.171  10.103 -0.3797  0.0200 -0.2101
 1199W        W 5399   9.650   3.488  11.483  0.4095  0.3196 -0.0697
 1200W        W 5400   1.634   9.235   0.629  0.0322  0.0846  0.1246
 1201W        W 5401   5.099   2.713   2.254  0.1195 -0.2336  0.0965
 1202W        W 5402   2.155   4.058   4.081  0.1280 -0.2578  0.0701
 1203W        W 5403   3.884   5.931   2.026 -0.2724 -0.3375  0.1972
 1204W        W 5404   4.491   9.950   4.436 -0.0644 -0.0554  0.0682
 1205W        W 5405   5.531   9.658  10.324  0.2382 -0.4146  0.0249
 1206W        W 5406   3.655   5.287  11.496  0.1460 -0.1616  0.0342
 1207W        W 5407   3.061   5.294   3.419 -0.2498 -0.0487  0.1321
 1208W        W 5408   3.135   1.878  10.557 -0.2285  0.2273 -0.1838
 1209W        W 5409  10.245   3.053   1.638 -0.0611 -0.1099 -0.2014
 1210W        W 5410   4.226   1.466  13.223 -0.1887  0.0111 -0.1852
 1211W        W 5411   2.848   0.435   0.501 -0.2745 -0.1259  0.3218
 1212W        W 5412   1.994   2.169  13.196 -0.1800  0.1531 -0.1892
 1213W        W 5413   8.051   8.635   1.698  0.0425 -0.1467  0.0721
 1214W        W 5414   9.272   6.962   2.139 -0.1049 -0.0309  0.0760
 1215W        W 5415   3.212   2.113  13.218  0.0812  0.2845  0.0451
 1216W        W 5416   7.805   0.049   3.624 -0.2089 -0.1557  0.1271
 1217W        W 5417   8.264   8.757   8.246 -0.0651  0.1939 -0.1631
 1218W        W 5418  10.206   2.007   0.146  0.0255 -0.1116 -0.0753
 1219W        W 5419   7.612   2.813   0.557 -0.2737  0.2912  0.1240
 1220W        W 5420   8.132   8.317  10.902 -0.1605 -0.0167  0.2625
 1221W        W 5421   9.651   3.233  12.884 -0.3234 -0.1685 -0.1311
 1222W        W 5422   9.229   7.577   0.546 -0.0387  0.1164  0.0747
 1223W        W 5423   4.168   2.915   4.484  0.2241  0.0259  0.3455
 1224W        W 5424   9.820   7.627   1.616  0.1019  0.4589  0.2786
 1225W        W 5425  10.149   6.526   0.805 -0.1730 -0.0180  0.2266
 1226W        W 5426   2.950   5.336   2.016 -0.0875 -0.1293 -0.4787
 1227W        W 5427   8.783   8.456  10.140  0.0032  0.0958  0.2172
 1228W        W 5428   3.566   8.490  11.848 -0.0329  0.0519  0.0793
 1229W        W 5429   7.861   2.827   3.023  0.0693  0.0756 -0.3274
 1230W        W 5430   8.202   9.328   2.868 -0.1347  0.0489 -0.1878
 1231W        W 5431   8.702   7.018   3.188  0.0443 -0.0861  0.0921
 1232W        W 5432   6.277   6.697  11.721 -0.1381  0.2177 -0.0957
 1233W        W 5433   1.693   0.690   2.830  0.1819  0.1507 -0.0709
 1234W        W 5434   0.549   3.692   3.772  0.0297 -0.1744  0.1583
 1235W        W 5435   3.565   6.912  12.383 -0.0037 -0.0496 -0.1008
 1236W        W 5436   0.344   1.050   1.092 -0.0561 -0.1316 -0.2048
 1237W        W 5437  10.296   6.260   3.257  0.1807 -0.2901  0.0404
 1238W        W 5438   0.537   5.702   3.145  0.1538 -0.1156 -0.0002
 1239W        W 5439   9.799   7.710  13.119 -0.1937 -0.0326  0.0170
 1240W        W 5440   5.225   4.497  12.911  0.3297 -0.1151  0.1361
 1241W        W 5441   1.722   9.733   0.293 -0.1135  0.4085  0.1823
 1242W        W 5442   6.024   0.862   4.924 -0.1114 -0.2265 -0.0597
 1243W        W 5443   0.178  10.433   2.921 -0.1889  0.1324  0.1460
 1244W        W 5444  10.430   4.163   0.559 -0.1928  0.1313  0.0816
 1245W        W 5445   7.506   7.350  11.590  0.0016 -0.1884  0.2249
 1246W        W 5446   5.172   0.687   4.158 -0.0613 -0.0495 -0.1463
 1247W        W 5447  10.363   5.191   1.342 -0.1616  0.2854  0.1633
 1248W        W 5448   4.833   0.136   9.810 -0.3184  0.3240  0.0451
 1249W        W 5449   9.250   0.164  10.590 -0.3023  0.0465  0.0022
 1250W        W 5450  10.141   0.317   9.484 -0.2228  0.1206  0.0014
 1251W        W 5451   6.482   3.789  11.145  0.3210 -0.1018 -0.0322
 1252W        W 5452   2.069   4.502   2.634 -0.2420  0.3076 -0.1514
 1253W        W 5453   5.471   7.313   2.245  0.2527  0.2899 -0.0599
 1254W        W 5454   2.951   5.490  12.210 -0.1484  0.1719  0.1858
 1255W        W 5455   6.480   7.735  11.965  0.3073  0.0375 -0.2992
 1256W        W 5456   6.522   7.194   0.781 -0.2865 -0.2294 -0.3597
 1257W        W 5457   5.197   4.364   4.723 -0.0706  0.2721  0.5380
 1258W        W 5458  10.108   6.757   4.519 -0.2291  0.3324  0.1592
 1259W        W 5459   3.283   0.024  13.148  0.1779 -0.3513  0.1025
 1260W        W 5460   8.810   8.354  10.670  0.0148 -0.0069 -0.0496
 1261W        W 5461   7.991   7.083  11.853  0.3922 -0.2750  0.0468
 1262W        W 5462   0.612   6.936  10.632  0.2256 -0.0131  0.0165
 1263W        W 5463   2.888   0.907   2.598  0.0457 -0.2219  0.4248
 1264W        W 5464   3.046   8.333   3.248 -0.0040 -0.0255 -0.2701
 1265W        W 5465   8.087   0.439   3.743 -0.0205 -0.2451  0.0079
 1266W        W 5466   9.591   5.181  13.022  0.1955  0.1070 -0.0062
 1267W        W 5467   0.318   1.039   2.633 -0.2220  0.0245 -0.1704
 1268W        W 5468   0.369   4.399   9.536  0.2459  0.0306  0.0207
 1269W        W 5469   9.448   3.377   2.671 -0.0903 -0.2265  0.2202
 1270W        W 5470   8.827   9.625   2.382  0.1555 -0.3671  0.2456
 1271W        W 5471   3.027   1.821   4.745  0.0441  0.0176 -0.1325
 1272W        W 5472   0.057   7.556   3.665  0.0063  0.2951 -0.3640
 1273W        W 5473   4.647   3.938   4.110 -0.1426 -0.1183  0.2391
 1274W        W 5474   1.834   2.685   3.769 -0.2977 -0.0008 -0.1293
 1275W        W 5475   1.584   5.717   0.782  0.0007  0.0878  0.2545
 1276W        W 5476   8.667   7.869   1.638 -0.0460 -0.0865  0.0985
 1277W        W 5477   1.959   1.491  12.593  0.4294  0.2183  0.0814
 1278W        W 5478   0.292   0.067  12.475  0.0946  0.0981  0.0897
 1279W        W 5479   9.949   4.448   3.412  0.2274  0.4298 -0.1022
 1280W        W 5480   7.530   2.290  11.078 -0.1073  0.0379  0.1718
 1281W        W 5481   4.784   2.296  11.572 -0.4190  0.0193  0.2127
 1282W        W 5482   3.886   0.957   4.111 -0.1454  0.4415  0.2152
 1283W        W 5483   9.998   8.620  10.819  0.1575 -0.0062  0.0016
 1284W        W 5484   5.310  10.487   3.520  0.0318  0.1794 -0.3322
 1285W        W 5485   8.987   0.270   1.755 -0.1309 -0.0618 -0.0219
 1286W        W 5486   5.366   2.515   3.190 -0.1014 -0.3081  0.2634
 1287W        W 5487   3.080   1.639   0.013  0.0377 -0.3284  0.2048
 1288W        W 5488   7.380  10.418   4.349  0.1100 -0.0874  0.1177
 1289W        W 5489   3.648   7.205   0.992  0.2201 -0.0758  0.0900
 1290W        W 5490   2.609   6.607   3.491  0.0582  0.0270 -0.0301
 1291W        W 5491   9.510   5.395  11.488  0.0271 -0.0993 -0.4402
 1292W        W 5492   5.232   8.425   2.118 -0.1590 -0.2320  0.1785
 1293W        W 5493   6.351   1.227   5.002  0.0815 -0.0889  0.0691
 1294W        W 5494   7.856   9.613   4.523 -0.1381 -0.0746  0.1505
 1295W        W 5495   3.835   7.536   9.097 -0.0932 -0.0599  0.0255
 1296W        W 5496   5.767   4.074   1.578  0.0024  0.0697 -0.1876
 1297W        W 5497   0.389  10.352   3.445 -0.1362 -0.0674  0.2634
 1298W        W 5498   1.090   2.613   3.898 -0.1353 -0.1442  0.3765
 1299W        W 5499   1.947   5.753  11.024  0.3459 -0.1273  0.0672
 1300W        W 5500   4.264  10.264   4.722  0.1532 -0.2593  0.1775
 1301W        W 5501   9.726   0.919  10.162  0.0950 -0.2084 -0.0700
 1302W        W 5502   1.461   9.705   8.510 -0.0021 -0.2335 -0.3040
 1303W        W 5503   4.563   7.400  11.818  0.0740 -0.0049  0.0734
 1304W        W 5504   7.133   1.079  10.773 -0.2128  0.0928 -0.0657
 1305W        W 5505   4.038   6.739   3.422 -0.1178  0.0258 -0.1118
 1306W        W 5506   8.030   1.565   0.559  0.2040  0.0160  0.1293
 1307W        W 5507   0.314   2.853   1.872 -0.2234  0.0610  0.3193
 1308W        W 5508   2.441   7.109   3.418 -0.2534 -0.1432  0.1925
 1309W        W 5509   5.033  10.093   0.887 -0.0726  0.2120  0.3122
 1310W        W 5510   8.047   8.745   3.729 -0.0104 -0.0517 -0.1165
 1311W        W 5511   8.910   5.290  11.960 -0.0034  0.1834  0.1267
 1312W        W 5512   6.569   1.710  10.866  0.0829 -0.0775  0.5893
 1313W        W 5513   4.409   0.341   0.891  0.0998 -0.0315  0.2452
 1314W        W 5514   8.895   9.235  12.395 -0.1232 -0.2020  0.2217
 1315W        W 5515   1.330   6.703  10.268 -0.0359  0.0868 -0.5253
 1316W        W 5516   8.981   3.914  11.084 -0.0018  0.0183 -0.1863
 1317W        W 5517   7.090   4.026   9.122  0.0899 -0.3038  0.0255
 1318W        W 5518   7.953   6.979  10.748 -0.3219 -0.0548 -0.1630
 1319W        W 5519   9.291   0.568   3.283  0.1099  0.2467 -0.3230
 1320W        W 5520   1.215   8.042   8.966  0.0094 -0.0379  0.0726
 1321W        W 5521   3.743   4.953   0.129  0.0407  0.0767 -0.0343
 1322W        W 5522   1.588   2.577   0.671  0.2655  0.0895  0.1688
 1323W        W 5523   7.477   8.165   0.760  0.2811  0.0788  0.0757
 1324W        W 5524   8.634   9.659   9.028 -0.1407  0.0327  0.0103
 1325W        W 5525   1.257   4.936  12.316 -0.3221  0.2607 -0.0196
 1326W        W 5526   4.271   9.731   1.211 -0.3109  0.1942  0.0865
 1327W        W 5527  10.366   9.850   9.571 -0.2818  0.2515  0.4008
 1328W        W 5528   6.055   2.587   1.052 -0.2060 -0.2452 -0.0960
 1329W        W 5529   0.990   7.043   0.523 -0.1223  0.2320 -0.2257
 1330W        W 5530   3.381   6.749  10.470 -0.1386 -0.2321 -0.0275
 1331W        W 5531   7.287   2.502   0.457  0.1581  0.1460  0.1333
 1332W        W 5532   9.094   8.234   1.657  0.1887 -0.1581  0.1235
 1333W        W 5533   8.385   7.562  12.906 -0.3272 -0.1017  0.3394
 1334W        W 5534   9.077   5.073  10.687  0.0808  0.1806 -0.2684
 1335W        W 5535   6.237   3.160   3.037 -0.0828 -0.2023 -0.0336
 1336W        W 5536   6.872   8.407   1.068 -0.0378 -0.1545  0.1987
 1337W        W 5537   2.335   9.771  12.921  0.0927  0.0124 -0.2697
 1338W        W 5538   0.841   1.150  11.639  0.5756 -0.2703  0.2768
 1339W        W 5539   1.568   7.698   4.332  0.1416 -0.0035  0.0422
 1340W        W 5540   4.410   5.901  13.388 -0.0656 -0.0218 -0.0305
 1341W        W 5541  10.050   6.650  13.384 -0.0751 -0.2273 -0.4047
 1342W        W 5542   9.064   9.970  11.340 -0.0197  0.2820  0.1157
 1343W        W 5543   6.546   9.802   8.933  0.0868 -0.4041  0.3017
 1344W        W 5544   1.443   2.622  11.419 -0.1136  0.0516 -0.1451
 1345W        W 5545   9.823   9.812   1.206  0.3468 -0.3065 -0.0525
 1346W        W 5546   8.624   7.954  10.990  0.1775 -0.0154 -0.0577
 1347W        W 5547   4.386  10.451  11.687 -0.0022  0.1879  0.0453
 1348W        W 5548   5.034   2.968   1.752 -0.0051 -0.0568 -0.0480
 1349W        W 5549   5.239   9.857   0.469 -0.1783  0.1083 -0.2377
 1350W        W 5550   7.721   2.652  11.555 -0.1843 -0.2665  0.0406
 1351W        W 5551   4.240   6.750   8.695 -0.0451  0.1597 -0.2060
 1352W        W 5552   3.232   4.048   1.046  0.3255  0.0044 -0.0843
 1353W        W 5553   6.783   2.053  10.026 -0.1986 -0.2392  0.0305
 1354W        W 5554   6.249  10.239   3.754  0.4248 -0.2977 -0.1056
 1355W        W 5555   0.556   7.092  12.074 -0.0231  0.1298  0.0028
 1356W        W 5556   0.098   0.516  12.353  0.3285  0.0721  0.0242
 1357W        W 5557   7.992   7.664  13.102 -0.1475  0.1137 -0.0687
 1358W        W 5558   6.542   8.085   3.722 -0.2261  0.0163 -0.3015
 1359W        W 5559   3.825   1.756  13.067  0.0546 -0.0409  0.1869
 1360W        W 5560   2.464  10.453   9.944  0.1008  0.0116 -0.0786
 1361W        W 5561   5.660   0.742  10.726 -0.1746  0.0131  0.1216
 1362W        W 5562   1.267   4.578   3.146 -0.2863  0.0878 -0.1074
 1363W        W 5563   4.021   0.444  12.843 -0.0740 -0.0457  0.0667
 1364W        W 5564   2.331   7.602  10.099  0.0266 -0.2457  0.1541
 1365W        W 5565   4.404   6.909   3.759  0.0789 -0.2514  0.0099
 1366W        W 5566  10.217   2.979  10.053 -0.0999 -0.3064  0.0009
 1367W        W 5567   0.276   7.577   0.456  0.2524 -0.2278 -0.0115
 1368W        W 5568  10.487   0.222   3.359 -0.3085 -0.2347 -0.0826
 1369W        W 5569   6.493   2.003   4.016 -0.1698 -0.2733 -0.1308
 1370W        W 5570   5.946   1.689   1.726  0.1651  0.1038 -0.1864
 1371W        W 5571   7.743   6.017   1.854  0.1401  0.0838  0.1538
 1372W        W 5572   9.320   3.391   9.962  0.2238  0.0159  0.2153
 1373W        W 5573   2.025   0.448   9.814  0.2363  0.2441 -0.2871
 1374W        W 5574   4.731   1.152   3.739  0.1876  0.0557  0.2580
 1375W        W 5575   9.418   6.594  10.004 -0.1736 -0.0389 -0.1635
 1376W        W 5576   3.303   4.012  12.978 -0.0233 -0.0919 -0.0750
 1377W        W 5577   2.482   7.915  12.374  0.0275 -0.0180 -0.1906
 1378W        W 5578   9.850   9.288   1.103  0.0443  0.1601 -0.0439
 1379W        W 5579   3.942   2.715  12.381  0.0759  0.1977 -0.1211
 1380W        W 5580   9.960   9.380   1.530  0.0733 -0.2525  0.0895
 1381W        W 5581  10.254   0.719   9.696  0.0770  0.1747  0.0138
 1382W        W 5582   7.307   9.042   4.843  0.2218 -0.0681  0.0575
 1383W        W 5583   4.397   0.918  10.962  0.1805  0.1804  0.1901
 1384W        W 5584   4.997   3.513   3.366  0.1610  0.3484 -0.2860
 1385W        W 5585   1.017   0.015   2.410 -0.0778 -0.2543  0.2082
 1386W        W 5586   6.509   7.130   0.051  0.0935 -0.1376  0.0896
 1387W        W 5587   2.981   0.182   2.855  0.0141  0.2012 -0.0870
 1388W        W 5588   8.946   8.615   4.265 -0.1386 -0.1337 -0.1781
 1389W        W 5589   5.379  10.003   3.714 -0.0867 -0.1611  0.2179
 1390W        W 5590   7.395   3.960   3.657 -0.2342 -0.1199  0.2482
 1391W        W 5591   8.201   9.901   1.495 -0.2217 -0.1719 -0.1149
 1392W        W 5592   5.635   9.714   1.860  0.4736  0.1576  0.1044
 1393W        W 5593   0.108   4.151   9.815 -0.0468  0.2413  0.1018
 1394W        W 5594   2.248   4.216  10.490 -0.2015 -0.0058 -0.1067
 1395W        W 5595   8.990   2.376   9.878  0.0156 -0.1662 -0.0889
 1396W        W 5596   8.230  10.446  11.498  0.1718 -0.2016 -0.2135
 1397W        W 5597   9.573   5.759   3.691 -0.1152  0.1618  0.0719
 1398W        W 5598   9.754   1.243   2.650 -0.2224 -0.2511 -0.0975
 1399W        W 5599   0.872   9.328  12.957 -0.1685  0.0719  0.0536
 1400W        W 5600   7.311   0.428   2.472  0.0334 -0.1652 -0.0932
 1401W        W 5601   7.040   2.532  10.879 -0.1559 -0.0617  0.1032
 1402W        W 5602   2.039   5.892  13.100 -0.1031  0.0364  0.1168
 1403W        W 5603   8.476   0.700   0.639  0.1018  0.1346 -0.1112
 1404W        W 5604   5.087   5.054   5.119 -0.2222  0.2224 -0.6103
 1405W        W 5605   2.201   2.535   2.661  0.0211 -0.1053 -0.0568
 1406W        W 5606   8.289   3.883   1.338 -0.0329 -0.1463 -0.1369
 1407W        W 5607   2.958   2.479  10.845  0.1724  0.1377  0.1694
 1408W        W 5608   7.255   9.495   1.494  0.0977 -0.4135 -0.0198
 1409W        W 5609   5.840   6.973   9.386 -0.1082  0.1121 -0.3158
 1410W        W 5610   1.270   1.861   1.159 -0.2250 -0.1861  0.1307
 1411W        W 5611   3.104   0.883   4.634 -0.2235  0.0415  0.1625
 1412W        W 5612   4.348   2.615   9.377  0.2273  0.1671  0.3645
 1413W        W 5613   5.251   8.089   0.223 -0.3645  0.1202  0.0967
 1414W        W 5614  10.022   9.201   2.236 -0.3363 -0.0039 -0.2326
 1415W        W 5615   3.471   4.586  13.180 -0.1638 -0.0544  0.1671
 1416W        W 5616   4.252   3.046   2.024  0.1281  0.1901  0.1025
 1417W        W 5617   8.193   7.924  11.213 -0.1776 -0.2387  0.2862
 1418W        W 5618   6.385   8.223   9.284 -0.3315  0.5026  0.0486
 1419W        W 5619   5.807   7.022   0.074 -0.2760 -0.0936 -0.0200
 1420W        W 5620   7.190  10.044   9.528  0.0060  0.0623  0.2025
 1421W        W 5621   3.462   9.332   3.788  0.0708  0.0321 -0.1559
 1422W        W 5622   0.817   4.166   2.358 -0.0028 -0.1239  0.1665
 1423W        W 5623   2.423   3.548   2.726  0.2092 -0.0978  0.1172
 1424W        W 5624   7.785   3.186  13.143  0.1302  0.3068 -0.1232
 1425W        W 5625   0.757  10.374   3.058 -0.0380  0.0416  0.0142
 1426W        W 5626   3.644  10.436   0.106  0.0767  0.2240  0.1650
 1427W        W 5627   2.788   6.508   9.722  0.1902 -0.1424  0.0333
 1428W        W 5628   6.002   7.323   4.320  0.0880  0.0326 -0.2516
 1429W        W 5629   3.790   7.584   3.498 -0.0006  0.0896 -0.2463
 1430W        W 5630   5.664   7.387   9.487  0.1381 -0.0334 -0.3892
 1431W        W 5631   5.136   2.061   4.911 -0.2317  0.0386  0.0217
 1432W        W 5632   1.680   7.272  12.614  0.1847  0.1714 -0.2436
 1433W        W 5633   4.848   3.010   3.862  0.2206 -0.0258 -0.1638
 1434W        W 5634  10.277   7.831   4.014 -0.1171  0.0536 -0.0535
 1435W        W 5635   2.542   9.289   3.581 -0.0836 -0.0180  0.0710
 1436W        W 5636   9.430   9.972  12.224  0.0135  0.1785  0.2210
 1437W        W 5637   1.765   1.749   9.923  0.0280 -0.3786  0.2200
 1438W        W 5638   0.739   2.833   3.666 -0.0559  0.3239 -0.0994
 1439W        W 5639   8.331   1.313   1.823 -0.1566  0.0961 -0.1796
 1440W        W 5640   8.371   1.962   0.602 -0.1554  0.1732  0.4143
 1441W        W 5641   9.175   8.645   2.715 -0.0077  0.0726 -0.1747
 1442W        W 5642   7.592   5.839   0.795  0.1543  0.0738  0.0122
 1443W        W 5643   3.394   8.480   0.602 -0.0975  0.1964 -0.2936
 1444W        W 5644   9.966   7.036   4.101 -0.0994 -0.1459 -0.2086
 1445W        W 5645   0.070   3.598  12.089 -0.0183 -0.0206 -0.2252
 1446W        W 5646  10.277  10.469  11.679 -0.3197 -0.0064 -0.0136
 1447W        W 5647   1.962   9.836   2.863  0.2774 -0.4927  0.0797
 1448W        W 5648   2.908   3.596  11.092 -0.5408 -0.0945  0.1284
 1449W        W 5649   5.002   8.326  12.797 -0.1062 -0.1312 -0.2659
 1450W        W 5650   5.838   6.074   2.293 -0.0893 -0.0011  0.0330
 1451W        W 5651   9.838   4.004  11.174  0.0517 -0.0291  0.1347
 1452W        W 5652   5.622   5.807   1.485 -0.0492  0.0886 -0.2890
 1453W        W 5653   9.324   6.368   1.625 -0.0797 -0.3587 -0.0826
 1454W        W 5654   9.105   7.628  10.554 -0.3060 -0.7281 -0.0501
 1455W        W 5655   1.346   6.387   4.600 -0.1217 -0.0407 -0.0615
 1456W        W 5656   0.576   2.320   0.605 -0.0630  0.0423 -0.0762
 1457W        W 5657   4.331   4.429   1.716  0.0730 -0.2274 -0.0689
 1458W        W 5658   2.934   6.243  12.674  0.2756  0.0542 -0.2271
 1459W        W 5659   0.723   2.041   2.085  0.1512 -0.2016  0.1050
 1460W        W 5660   1.147   4.285  11.000  0.0311  0.2834  0.2007
 1461W        W 5661   9.367   6.978  12.662 -0.0236 -0.0142  0.0832
 1462W        W 5662   7.462   6.069  13.235 -0.0051 -0.1255 -0.1821
 1463W        W 5663   7.337   3.890  11.003  0.1242  0.1226  0.0560
 1464W        W 5664   2.933   1.870   3.846 -0.2590  0.2792 -0.0056
 1465W        W 5665   3.457   9.166   2.452  0.1447  0.0198  0.1510
 1466W        W 5666   0.671   5.009  10.550  0.0144 -0.1060 -0.1906
 1467W        W 5667   7.061   6.303  10.038 -0.0311 -0.2327  0.2047
 1468W        W 5668   3.661   2.643   3.193  0.2791  0.0099  0.1188
 1469W        W 5669   7.753   4.371   2.737 -0.1643 -0.2424  0.0952
 1470W        W 5670   2.419   9.788  10.372  0.1705  0.1724  0.2533
 1471W        W 5671  10.209   0.415   2.807  0.0913  0.0862 -0.1699
 1472W        W 5672   8.379   7.161  10.479  0.0193  0.3423  0.0996
 1473W        W 5673   3.470   3.315   1.662 -0.0191  0.0357 -0.0294
 1474W        W 5674   8.444   0.244   2.449  0.0405  0.2351  0.3781
 1475W        W 5675   4.017   5.479  10.136 -0.0202  0.0227 -0.0493
 1476W        W 5676   7.729   7.725  11.282 -0.0630  0.2541 -0.1071
 1477W        W 5677   7.518  10.239   3.333 -0.1706  0.0700 -0.0567
 1478W        W 5678   7.945   7.967  11.675  0.1992  0.2637  0.2399
 1479W        W 5679   3.954   0.089   4.515 -0.3592  0.0607  0.0390
 1480W        W 5680   2.742   7.646  11.191  0.0457 -0.1881 -0.0937
 1481W        W 5681   6.980   1.640  11.736 -0.0725  0.1430 -0.2735
 1482W        W 5682   8.737   8.220  12.124  0.0260  0.0212 -0.1437
 1483W        W 5683   4.323   3.412   9.882  0.0693  0.3968 -0.2327
 1484W        W 5684   8.036   0.303   8.797 -0.2305 -0.2353  0.0323
 1485W        W 5685   1.792   3.209   9.652 -0.2545  0.1113 -0.0207
 1486W        W 5686   7.131   8.518  12.749  0.1254 -0.0016 -0.5225
 1487W        W 5687   2.833   6.133   1.100 -0.2277 -0.0449  0.0588
 1488W        W 5688   1.627   1.587   3.404  0.0551  0.3671 -0.1951
 1489W        W 5689   9.324   2.842   9.935 -0.1611 -0.0705 -0.3756
 1490W        W 5690   1.027   1.165   3.078  0.1337 -0.3152 -0.0512
 1491W        W 5691   0.817   3.842   2.748 -0.0976 -0.0475 -0.1551
 1492W        W 5692   8.464   0.455   4.624  0.1060  0.1881  0.1309
 1493W        W 5693   5.760   6.547  13.014  0.0596 -0.1014 -0.0257
 1494W        W 5694   4.142   6.488  11.828 -0.0743 -0.1101 -0.2249
 1495W        W 5695   7.936   8.522   8.506  0.0289  0.0441  0.4570
 1496W        W 5696   8.346   9.118   0.809  0.0044 -0.1241  0.1093
 1497W        W 5697   1.730   1.588  13.083  0.0115  0.0041 -0.2105
 1498W        W 5698   2.257   0.902   1.703  0.1885 -0.1452  0.2135
 1499W        W 5699   2.867   0.100   9.655 -0.3041 -0.0730 -0.0627
 1500W        W 5700   4.536   1.467   9.546 -0.1652  0.0543 -0.1106
 1501W        W 5701   4.559   7.632  12.277 -0.1111 -0.2997  0.0458
 1502W        W 5702   4.379   9.108   4.272 -0.0688  0.1686  0.1776
 1503W        W 5703   5.510   7.087   1.026  0.3014 -0.0645  0.0720
 1504W        W 5704   1.607   2.214  10.963  0.1195 -0.1744  0.1609
 1505W        W 5705   6.196  10.192   8.988 -0.0562 -0.0346 -0.0319
 1506W        W 5706   5.044   5.387  10.267 -0.0439  0.3173 -0.2741
 1507W        W 5707   3.123   6.809   2.203  0.0393 -0.1005  0.2555
 1508W        W 5708   5.971  10.406   9.387 -0.0844  0.4261  0.1070
 1509W        W 5709   4.913   4.914  10.264  0.0104  0.1778  0.0396
 1510W        W 5710   1.626  10.270   1.377 -0.0008 -0.3002 -0.1121
 1511W        W 5711   2.134   1.810   1.629 -0.0685 -0.1799  0.1783
 1512W        W 5712   2.697   4.820   8.463  0.0601  0.0641  0.1044
 1513W        W 5713   6.472   6.802   3.219  0.0535 -0.0424  0.0934
 1514W        W 5714   9.702   3.675   2.204  0.1680 -0.0334  0.0097
 1515W        W 5715   1.038   4.672  11.906  0.1031 -0.2513 -0.0956
 1516W        W 5716   0.638   7.421   9.318 -0.2363  0.3594 -0.1985
 1517W        W 5717   0.537   6.258   0.063 -0.0351 -0.0127 -0.0043
 1518W        W 5718   2.243   3.036   2.690  0.0293  0.2274  0.1333
 1519W        W 5719   7.993   5.059   8.858 -0.0782 -0.0550 -0.0425
 1520W        W 5720   1.020   4.704  11.264 -0.1933 -0.0254  0.1619
 1521W        W 5721   4.013   0.610  10.015 -0.1458 -0.1805 -0.3597
 1522W        W 5722   9.509   3.725  11.857  0.3136 -0.1089  0.0719
 1523W        W 5723   5.442   1.469   3.248  0.1931 -0.2005 -0.2013
 1524W        W 5724   7.958   4.338  11.696 -0.0647 -0.0885 -0.3438
 1525W        W 5725   9.203   8.897   1.666  0.0536  0.0135  0.1670
 1526W        W 5726   6.336   3.181   5.504 -0.0744  0.0389 -0.0351
 1527W        W 5727  10.412   5.439  12.052  0.0669  0.0434 -0.2577
 1528W        W 5728   5.839   9.222  11.138 -0.0692 -0.1981 -0.0246
 1529W        W 5729   4.154   0.640   0.200 -0.1360  0.2120  0.3934
 1530W        W 5730   2.998   5.338   0.137  0.0230 -0.1591  0.6130
 1531W        W 5731   3.647   5.556  10.474 -0.0860 -0.0717 -0.2886
 1532W        W 5732   5.304   5.673   4.247 -0.0876 -0.0816 -0.0884
 1533W        W 5733   7.378   9.150   9.978  0.1192 -0.2142 -0.1990
 1534W        W 5734   4.003   0.193   0.521 -0.1024 -0.0996 -0.0841
 1535W        W 5735   4.738   0.193   9.327  0.0180  0.0308 -0.1545
 1536W        W 5736   6.462   5.097  11.101 -0.0968  0.1125  0.0251
 1537W        W 5737   4.724   4.155   1.477  0.3486 -0.2282 -0.0101
 1538W        W 5738   2.845   7.792   3.925 -0.0851  0.0973  0.1030
 1539W        W 5739   7.536   8.518   1.753 -0.0284 -0.1685  0.1579
 1540W        W 5740   2.226   5.242  12.480 -0.0225 -0.0881  0.3527
 1541W        W 5741   4.635   7.366   0.447  0.0732  0.0899 -0.4303
 1542W        W 5742   1.650   6.059   9.784  0.0403  0.0620  0.1325
 1543W        W 5743   8.781   0.640   0.229  0.2182  0.3581 -0.1403
 1544W        W 5744   4.169   6.637  13.102  0.2830 -0.2512  0.0766
 1545W        W 5745   1.492   3.634  13.235 -0.1586 -0.0627  0.2581
 1546W        W 5746   7.798   5.552  10.998  0.1688 -0.0178  0.0654
 1547W        W 5747   7.206   7.023   2.657 -0.0997 -0.2156  0.1529
 1548W        W 5748   6.359   4.886   8.402  0.0556 -0.0148 -0.1168
 1549W        W 5749   2.362   0.388  10.946  0.0578  0.0082  0.2844
 1550W        W 5750   2.234  10.234   2.548  0.0683  0.0784 -0.1552
 1551W        W 5751   3.380   4.874  11.551  0.3283  0.0068  0.3504
 1552W        W 5752   0.570   8.223   9.957 -0.1374 -0.1690  0.5378
 1553W        W 5753   4.913   0.006  12.904  0.1385  0.3412 -0.2986
 1554W        W 5754   3.143   6.941   4.473 -0.0818  0.1520  0.1146
 1555W        W 5755   2.158   0.012   0.710  0.2157 -0.0280  0.2435
 1556W        W 5756   5.065   5.056   0.898  0.2642 -0.2868  0.2334
 1557W        W 5757   7.385   2.636   0.957  0.1167 -0.2941 -0.0072
 1558W        W 5758   0.036   4.162   2.625  0.1870 -0.0283  0.0346
 1559W        W 5759   7.648   3.603  11.316 -0.1264  0.0377 -0.0554
 1560W        W 5760   6.573   7.986  12.900  0.1741 -0.2511  0.1485
 1561W        W 5761   3.352   8.757   1.052 -0.0460 -0.4583 -0.1601
 1562W        W 5762   0.695  10.365   3.977 -0.0471  0.0079  0.0975
 1563W        W 5763   6.052   8.134   3.815 -0.4309  0.2602 -0.1710
 1564W        W 5764  10.320  10.294   4.257  0.1616 -0.1911  0.1102
 1565W        W 5765   3.044   4.563   2.317  0.0831  0.0393  0.1129
 1566W        W 5766   9.961   3.068  11.457  0.0764 -0.0669  0.0072
 1567W        W 5767   8.626   4.740   0.326 -0.1130  0.2458 -0.3465
 1568W        W 5768   5.033   7.481   8.391 -0.0060  0.1156  0.0934
 1569W        W 5769   2.561   2.373  11.115  0.1271  0.0044  0.0418
 1570W        W 5770   2.377   2.237  11.996 -0.1505  0.0231  0.2620
 1571W        W 5771   3.488   1.558   9.975 -0.2443  0.1947 -0.1174
 1572W        W 5772   4.352   8.250   2.265  0.1102  0.0503 -0.0588
 1573W        W 5773   0.040   3.447  13.175 -0.2803 -0.0707  0.2668
 1574W        W 5774   1.705   6.504  12.077 -0.1412 -0.1537 -0.0486
 1575W        W 5775   1.456   8.758  12.834  0.0715 -0.2744 -0.1277
 1576W        W 5776   2.704   3.221  11.348 -0.0225 -0.0205  0.0115
 1577W        W 5777   8.326   2.594  10.853 -0.0298 -0.0904  0.0973
 1578W        W 5778   9.171   5.589  10.688  0.0466 -0.0584 -0.0523
 1579W        W 5779   9.945   8.341  11.801 -0.0845  0.1690  0.3227
 1580W        W 5780   3.097   1.919  10.093  0.1813 -0.0679  0.3318
 1581W        W 5781   2.568   7.785   8.913  0.2934 -0.0695 -0.2216
 1582W        W 5782   3.001   9.941   3.164  0.0525 -0.0486 -0.1378
 1583W        W 5783   8.032   3.543  12.960 -0.2860 -0.1423  0.2975
 1584W        W 5784   5.428   8.190   3.232  0.0775 -0.2779 -0.3960
 1585W        W 5785   4.468   3.156   0.651 -0.3691  0.2598  0.0853
 1586W        W 5786   1.490   7.074   9.983 -0.0295 -0.0381 -0.0098
 1587W        W 5787   7.586   6.083   3.831  0.0103  0.4204 -0.2485
 1588W        W 5788   3.026   7.006   3.465 -0.1207  0.1269  0.0361
 1589W        W 5789   7.282   2.361  12.702 -0.3264 -0.0229 -0.0717
 1590W        W 5790   1.651   0.611   4.328  0.3258 -0.0880  0.3554
 1591W        W 5791   8.527   0.033   9.351 -0.0266  0.3648 -0.2136
 1592W        W 5792   1.618   0.849   1.155 -0.3214 -0.0025 -0.1566
 1593W        W 5793   8.900   8.342  11.644 -0.1931  0.2450  0.2133
 1594W        W 5794   5.095   9.013   2.921 -0.1624  0.0334  0.3108
 1595W        W 5795   6.118   1.236  11.590 -0.0797 -0.4064  0.0483
 1596W        W 5796   5.266   1.388  12.387  0.0053  0.1464  0.2235
 1597W        W 5797   6.105   5.677  12.955 -0.3634  0.0219  0.1543
 1598W        W 5798   1.251   3.652  12.331  0.0118  0.0928  0.0634
 1599W        W 5799   1.947   5.004  11.172  0.3756 -0.1367 -0.3697
 1600W        W 5800   7.419   6.484  11.287 -0.0743 -0.1094 -0.1034
 1601W        W 5801   4.419   1.038  13.176  0.2696  0.0349 -0.0656
 1602W        W 5802   3.583   7.637   2.016  0.1382  0.0074  0.0243
 1603W        W 5803   0.172   4.692  11.407  0.0519 -0.2591  0.0380
 1604W        W 5804   9.099  10.169   4.896  0.2948  0.0759  0.1028
 1605W        W 5805   6.089   0.650  10.928  0.4137 -0.1489 -0.1621
 1606W        W 5806   5.336   8.404   5.233  0.4564 -0.0376  0.1621
 1607W        W 5807   9.931   8.673   4.209  0.0379 -0.2727 -0.1917
 1608W        W 5808   6.046   9.910  13.317 -0.2645  0.0962  0.0848
 1609W        W 5809   5.578   4.923   0.422  0.1950 -0.0399  0.2711
 1610W        W 5810   1.582   0.310   0.091  0.1899  0.0099 -0.1449
 1611W        W 5811   4.061   3.006   9.894 -0.2186  0.0218  0.1645
 1612W        W 5812   8.532   7.811   4.382  0.0298  0.1975 -0.0352
 1613W        W 5813   3.529   3.095   0.068  0.0219  0.0123 -0.0367
 1614W        W 5814   5.073   5.119   0.086  0.0078  0.2072 -0.2082
 1615W        W 5815   3.697   7.588   2.658  0.0251 -0.0358  0.0522
 1616W        W 5816   6.388   2.362   5.011 -0.0195 -0.0672  0.1285
 1617W        W 5817   4.010   0.936  12.682  0.2538 -0.0811 -0.3808
 1618W        W 5818   3.298   9.281   4.291  0.3858  0.1374 -0.2305
 1619W        W 5819   8.275   3.583   2.940 -0.0350 -0.2337  0.1379
 1620W        W 5820   5.825  10.483   2.540 -0.3453  0.0906  0.0710
 1621W        W 5821   0.217   7.023   2.724  0.0207 -0.1838  0.1281
 1622W        W 5822   1.082   0.516  11.343 -0.0478  0.0668  0.0174
 1623W        W 5823   7.582   2.013   2.777 -0.2368 -0.0510  0.1115
 1624W        W 5824  10.192  10.338   0.940 -0.1861 -0.0996 -0.3329
 1625W        W 5825   2.635   5.140   9.541 -0.0777 -0.0375  0.1586
 1626W        W 5826   5.159   4.112   4.263 -0.0017  0.1957  0.1244
 1627W        W 5827   4.843   3.345  11.968  0.4231 -0.1305 -0.0458
 1628W        W 5828   8.902   6.189   3.415  0.3475 -0.0304 -0.0666
 1629W        W 5829   0.786   7.228   9.789 -0.0484 -0.2701 -0.2682
 1630W        W 5830   2.086   6.050   8.899 -0.0776  0.1556  0.1669
 1631W        W 5831   1.613   9.095   4.369 -0.4425 -0.2767 -0.0239
 1632W        W 5832   4.935   7.133  13.144 -0.1683 -0.2486  0.3332
 1633W        W 5833   3.725   3.605   3.992  0.0699 -0.0463 -0.2392
 1634W        W 5834   0.271   1.558  12.855 -0.1743 -0.1161 -0.2790
 1635W        W 5835   9.138   7.637   9.143 -0.0773 -0.0087 -0.1333
 1636W        W 5836   6.910   9.896   2.261  0.0346  0.0788 -0.3476
 1637W        W 5837   9.581  10.024  11.269 -0.0751  0.4512 -0.2536
 1638W        W 5838  10.214   2.433   0.998 -0.0884  0.2284  0.1901
 1639W        W 5839   8.495   0.010  13.118 -0.0831  0.2694 -0.3157
 1640W        W 5840   0.340   9.931   3.011 -0.0197  0.0101 -0.0239
 1641W        W 5841   6.110   2.940   3.592  0.0368 -0.0413  0.0330
 1642W        W 5842   3.163   4.016   2.223  0.1507 -0.2024  0.0965
 1643W        W 5843   8.130   5.808  12.882 -0.2975 -0.0237  0.0976
 1644W        W 5844   6.597   2.789   3.765  0.4438 -0.0828  0.3165
 1645W        W 5845   8.775   6.985   2.236  0.4098  0.2924  0.3258
 1646W        W 5846   0.046   9.035   2.630  0.1529  0.1595  0.1907
 1647W        W 5847   3.573   8.000  12.590 -0.0122 -0.3047  0.0440
 1648W        W 5848   3.868   3.919   2.408  0.2460 -0.4247  0.0430
 1649W        W 5849   5.002   7.222   8.828 -0.1915 -0.2772  0.1124
 1650W        W 5850  10.398   1.679   3.822  0.0231 -0.1157 -0.2491
 1651W        W 5851   3.605  10.051   2.488 -0.0301  0.3445 -0.0837
 1652W        W 5852   5.662  10.007  10.737  0.0489 -0.0424  0.2512
 1653W        W 5853   0.373   9.298   1.434  0.3584  0.3820  0.0870
 1654W        W 5854   5.778   0.358  11.176 -0.0274 -0.1142 -0.0676
 1655W        W 5855   0.128  10.321  12.864  0.2144  0.0885 -0.0265
 1656W        W 5856   1.841   6.346   3.296  0.0425 -0.3476  0.1810
 1657W        W 5857   9.063   4.403   3.278  0.4019  0.0602 -0.0634
 1658W        W 5858   8.228   8.169   9.229 -0.2714  0.1588 -0.0829
 1659W        W 5859   0.079   0.525  11.822  0.0842  0.1812  0.1082
 1660W        W 5860   6.798   1.622  11.281  0.0716  0.1702  0.1363
 1661W        W 5861   6.639   5.798   3.150 -0.1718 -0.0502 -0.1912
 1662W        W 5862   4.339   5.159   3.031  0.3892  0.0744  0.0841
 1663W        W 5863   8.725  10.369  12.719 -0.0343 -0.0506 -0.3247
 1664W        W 5864   4.999   2.904   2.855  0.1635 -0.2472  0.2802
 1665W        W 5865   5.107   7.588   0.211 -0.0813 -0.0506 -0.0912
 1666W        W 5866  10.412   8.426   9.045 -0.5287 -0.2436 -0.0422
 1667W        W 5867   7.609   3.239   0.339 -0.3741  0.2325  0.0488
 1668W        W 5868   1.203   8.366  13.204 -0.0420  0.0759 -0.0547
 1669W        W 5869   5.232   4.297   1.470 -0.1986  0.2316 -0.0255
 1670W        W 5870   2.114   7.724   2.055 -0.0173 -0.2011 -0.0807
 1671W        W 5871   2.932   2.340  11.893  0.1582 -0.1057 -0.0480
 1672W        W 5872   8.123   4.525  10.144  0.0150 -0.2314  0.1976
 1673W        W 5873   4.836  10.027  12.722  0.0559 -0.1997  0.2680
 1674W        W 5874   1.597   0.546  12.993  0.1607  0.0343  0.0223
 1675W        W 5875   4.523   3.401   3.908  0.0112 -0.0882  0.1540
 1676W        W 5876   1.536   7.234   3.616 -0.1571 -0.1381  0.1676
 1677W        W 5877   5.283   7.401  12.783 -0.0650  0.3399 -0.1268
 1678W        W 5878   2.002   9.526   0.807  0.1355  0.2207 -0.0861
 1679W        W 5879   0.662   2.185  11.169  0.2661 -0.0060  0.0379
 1680W        W 5880   3.219   3.248   9.016 -0.1882  0.1802  0.1373
 1681W        W 5881   0.127   8.854  10.447  0.1281  0.0562 -0.0140
 1682W        W 5882   5.138   0.796   0.310  0.2848  0.0751 -0.0712
 1683W        W 5883   8.715   5.587   1.217 -0.1784  0.4251  0.0787
 1684W        W 5884   8.193  10.332   9.721  0.0597  0.2896 -0.2230
 1685W        W 5885   8.371   9.274  12.295 -0.0068  0.0178 -0.4420
 1686W        W 5886   4.986   6.425  10.739 -0.3827  0.0159  0.1632
 1687W        W 5887   1.311   9.986   1.582  0.3388 -0.0722 -0.0162
 1688W        W 5888   2.050   7.339  11.119  0.1253 -0.0878 -0.1696
 1689W        W 5889   1.481   0.058   2.158 -0.1294  0.0522 -0.0623
 1690W        W 5890   9.806   7.002   2.026  0.0941 -0.0292 -0.2552
 1691W        W 5891   4.929   9.300   2.085  0.0914 -0.2475  0.0935
 1692W        W 5892   2.647   3.339   4.554  0.2178 -0.1465  0.2390
 1693W        W 5893   8.723   4.158   3.710 -0.3029 -0.0977  0.4165
 1694W        W 5894   6.158   4.706  11.099 -0.0903  0.1870  0.2223
 1695W        W 5895   3.432   3.812   1.889 -0.1814 -0.2970 -0.0898
 1696W        W 5896   5.004   7.065   0.224 -0.2521  0.1963  0.1463
 1697W        W 5897   5.365   8.148   2.534 -0.1765  0.0420  0.4042
 1698W        W 5898   5.491   5.278  11.638 -0.2489 -0.1537 -0.0824
 1699W        W 5899   3.357   2.381   1.261 -0.2643 -0.2826  0.1675
 1700W        W 5900   6.310   7.761   9.511 -0.1110  0.0666  0.0824
 1701W        W 5901   8.862   9.716  12.594  0.2788 -0.5841  0.0380
 1702W        W 5902   2.561   6.211  11.443 -0.4845 -0.0683 -0.0852
 1703W        W 5903   6.537   5.011   2.310  0.1242 -0.0707  0.0031
 1704W        W 5904   6.310   2.100   9.915 -0.4104  0.1933  0.1537
 1705W        W 5905   5.692   6.235  11.233 -0.2426 -0.0433 -0.1031
 1706W        W 5906   0.330   9.420   3.079 -0.1187 -0.1681 -0.1142
 1707W        W 5907   5.268   3.240   3.712 -0.1015  0.1361  0.0533
 1708W        W 5908   4.515   1.673   3.065 -0.2615  0.4247  0.1600
 1709W        W 5909   0.095   7.907   1.114 -0.0555  0.2279  0.0246
 1710W        W 5910   0.635   2.217  10.673  0.0807 -0.0198 -0.0289
 1711W        W 5911   3.722  10.404  10.813 -0.1872  0.0227 -0.1420
 1712W        W 5912   9.195   6.812   1.196  0.1323 -0.1239  0.1260
 1713W        W 5913   7.540   8.463  11.943  0.0212 -0.0749  0.1011
 1714W        W 5914   2.327   6.899   1.399  0.0171  0.2192 -0.3011
 1715W        W 5915   4.557   8.884   3.852  0.0810 -0.1885 -0.1841
 1716W        W 5916   5.401   2.716  10.849  0.2505 -0.0864  0.0556
 1717W        W 5917   2.922   9.067  11.189 -0.2814  0.0313 -0.3273
 1718W        W 5918   9.546   2.886  12.425  0.0939  0.0667 -0.0412
 1719W        W 5919   1.788   5.156   9.186  0.3396 -0.5406  0.2380
 1720W        W 5920   9.151   1.174   1.906  0.2399  0.2092  0.0102
 1721W        W 5921   7.059   8.246   9.285 -0.4184  0.3412  0.0763
 1722W        W 5922   0.197   3.995  12.564  0.3364 -0.0769 -0.0295
 1723W        W 5923   5.256   4.542  11.730  0.1673  0.0100  0.0179
 1724W        W 5924   3.540   6.228   9.816 -0.0251  0.0049  0.0646
 1725W        W 5925   8.574   2.261   3.508  0.0414  0.0626  0.0085
 1726W        W 5926   1.343   8.159   4.449  0.1373  0.2264 -0.1033
 1727W        W 5927   1.371   9.306   3.944  0.3536  0.0007  0.1590
 1728W        W 5928   7.699   2.589   2.157 -0.2396 -0.1221  0.0742
 1729W        W 5929   0.391   1.507  11.474 -0.2418  0.0368  0.2665
 1730W        W 5930   6.930  10.151   4.258  0.2581 -0.0697 -0.3402
 1731W        W 5931   7.531   7.262  10.095  0.0632 -0.1331  0.0322
 1732W        W 5932   9.540   5.728  13.054 -0.0650 -0.0206 -0.4225
 1733W        W 5933   0.242   6.817   2.221 -0.0758  0.2117 -0.0270
 1734W        W 5934   7.914   7.949   3.496 -0.2077  0.2146 -0.2259
 1735W        W 5935   0.321   4.342  13.104  0.2155  0.1550 -0.1382
 1736W        W 5936   6.036   6.807   4.509  0.1515  0.1320 -0.0270
 1737W        W 5937   9.335   6.162  11.418  0.0666  0.1112 -0.2370
 1738W        W 5938   5.420   1.148   4.260  0.1769  0.0138  0.0955
 1739W        W 5939   1.508   4.405  11.934 -0.0775  0.0530  0.0743
 1740W        W 5940   9.624   2.791  10.664 -0.0770 -0.0008  0.0677
 1741W        W 5941   5.909   7.823   4.285  0.2616 -0.0333  0.0949
 1742W        W 5942   9.321   6.243  12.994  0.0066  0.2658  0.0477
 1743W        W 5943   3.884   8.866  10.358  0.2268 -0.0834  0.3977
 1744W        W 5944   1.920   9.247   9.210  0.3121  0.2470  0.1084
 1745W        W 5945   1.954   9.388   4.114  0.0471  0.2027  0.3328
 1746W        W 5946   0.418   9.266   0.723 -0.1555 -0.1613  0.0525
 1747W        W 5947   4.708   7.460   1.249 -0.1571 -0.1743 -0.0685
 1748W        W 5948   7.081   6.534   9.544 -0.0519  0.1203 -0.1305
 1749W        W 5949   1.548   4.038   9.519  0.0445 -0.1299 -0.0517
 1750W        W 5950   8.984   7.454   3.957  0.2806  0.0197 -0.0211
 1751W        W 5951   5.478   8.574  10.377 -0.2235 -0.2961  0.1364
 1752W        W 5952   9.173   4.956  12.893 -0.0047  0.1432  0.1139
 1753W        W 5953   3.588   5.066  12.033 -0.2602 -0.3354 -0.2446
 1754W        W 5954   5.921   8.814  10.297 -0.4546 -0.0628  0.0661
 1755W        W 5955   9.002   3.601  13.138 -0.2004 -0.1427 -0.0558
 1756W        W 5956   8.244   9.008   2.067 -0.1415 -0.0748 -0.1368
 1757W        W 5957   7.750   4.566   9.850  0.1000 -0.1460  0.1036
 1758W        W 5958   0.426   9.282  11.790 -0.1540 -0.0694 -0.0494
 1759W        W 5959  10.245   5.881  11.793  0.2478 -0.1737  0.2032
 1760W        W 5960   0.351   0.807  11.432 -0.0892  0.0337  0.1343
 1761W        W 5961   1.882   6.908  11.177  0.0145  0.0407  0.0083
 1762W        W 5962   2.588   1.568   0.659 -0.2395 -0.0150  0.0238
 1763W        W 5963   5.023   8.058   2.974  0.1167 -0.1730  0.0384
 1764W        W 5964  10.091   9.182   0.710  0.1003 -0.2111 -0.1687
 1765W        W 5965   1.685   5.004   2.212  0.0352  0.1239  0.0799
 1766W        W 5966   2.942   3.222  12.210 -0.1001  0.3187  0.0727
 1767W        W 5967   4.661  10.462   1.164  0.0387 -0.1398  0.1068
 1768W        W 5968   1.958   8.577  12.795  0.0616 -0.2536 -0.0418
 1769W        W 5969   1.774   7.502  10.275  0.0675 -0.1258  0.3773
 1770W        W 5970   0.995   7.454  12.830  0.0701  0.1962  0.0149
 1771W        W 5971   9.787  10.288   1.246  0.3232 -0.0721  0.0933
 1772W        W 5972   1.153   3.148   1.107 -0.0467 -0.0598  0.0909
 1773W        W 5973   4.122   9.192  12.103 -0.2001  0.1861  0.0032
 1774W        W 5974   1.357   5.441  10.464  0.1290  0.1212 -0.0147
 1775W        W 5975   3.578   1.403   1.465  0.0309 -0.1009  0.2625
 1776W        W 5976   8.445   5.899   0.897 -0.2233 -0.2098 -0.3464
 1777W        W 5977   4.461   7.800   1.493 -0.0510 -0.1274  0.1227
 1778W        W 5978   2.140   6.997  10.739  0.1271  0.1085  0.1800
 1779W        W 5979   0.068   2.965  12.988  0.1109 -0.0614  0.1542
 1780W        W 5980   8.205   8.485   4.122 -0.0997  0.1734  0.0254
 1781W        W 5981   0.677   9.648  11.098 -0.0378 -0.2853  0.4385
 1782W        W 5982   8.907   7.529  13.345  0.0741  0.1261  0.0934
 1783W        W 5983   6.461   1.504   3.377  0.1376 -0.2909  0.3394
 1784W        W 5984   8.546   2.193   2.371 -0.2618  0.1327 -0.1447
 1785W        W 5985  10.466   9.475   4.719 -0.1019 -0.0174 -0.1033
 1786W        W 5986   9.510   7.426  10.363 -0.0561 -0.0141  0.1467
 1787W        W 5987   0.268   6.348   2.453 -0.0938  0.3882  0.0459
 1788W        W 5988   6.477   9.418   9.654 -0.0424 -0.2798  0.0861
 1789W        W 5989   1.363   7.100  12.975  0.0673  0.3797  0.4136
 1790W        W 5990   9.573   7.970  10.498  0.0503 -0.0391 -0.0886
 1791W        W 5991   5.465   9.784  11.295 -0.0238  0.3122 -0.0315
 1792W        W 5992   2.417   2.235   8.755 -0.1294  0.0456 -0.1674
 1793W        W 5993   4.258   5.718   3.245 -0.2501  0.1462 -0.0368
 1794W        W 5994   8.737   8.010   9.271  0.3673  0.0242 -0.0625
 1795W        W 5995   4.687   7.684   2.786  0.0506  0.0677  0.1047
 1796W        W 5996   6.951   8.166   2.662 -0.2841 -0.1586  0.0259
 1797W        W 5997   3.981   4.638   0.447 -0.0882  0.2008 -0.1729
 1798W        W 5998   3.744   3.512   2.189 -0.4091  0.1144 -0.2101
 1799W        W 5999   1.291   8.673   4.549  0.1558  0.0002 -0.2548
 1800W        W 6000   0.198   7.378  11.384 -0.0031  0.0461 -0.0542
 1801W        W 6001   5.711   4.644  12.861 -0.0890 -0.0379  0.2564
 1802W        W 6002   1.563   3.461  11.872  0.4349  0.0428 -0.1548
 1803W        W 6003   2.350   4.664  11.836  0.2203 -0.0481  0.0389
 1804W        W 6004   6.143   6.524  11.134  0.1424 -0.0695  0.1607
 1805W        W 6005   0.756   2.386   4.567 -0.1215  0.0848  0.1127
 1806W        W 6006   9.364   9.339   4.450  0.2828 -0.2821 -0.1607
 1807W        W 6007   9.218   3.534  12.182  0.1811  0.3334  0.3213
 1808W        W 6008   0.659   7.399  11.681 -0.0740 -0.4039  0.1368
 1809W        W 6009   2.243  10.481  10.429 -0.0501 -0.2737 -0.0961
 1810W        W 6010   8.978   1.610   1.101  0.1856 -0.2291 -0.1330
 1811W        W 6011   7.505   3.537  12.944 -0.1754  0.0522  0.1822
 1812W        W 6012   7.805   8.430   2.511  0.0356 -0.0091  0.0039
 1813W        W 6013   3.299   6.974   9.589 -0.2135  0.2441 -0.0359
 1814W        W 6014   2.493   3.450  10.841  0.0065  0.1823  0.3599
 1815W        W 6015   9.043   8.764  10.846 -0.0728  0.1158  0.0802
 1816W        W 6016   8.458   8.717   9.343 -0.0955  0.0733 -0.0527
 1817W        W 6017   7.359   7.791  12.530  0.2029 -0.1280 -0.3884
 1818W        W 6018   9.376   5.281  12.042 -0.1609 -0.1196  0.3336
 1819W        W 6019   7.892   7.309   2.886 -0.1024 -0.1603  0.3139
 1820W        W 6020   4.028   9.852   2.644  0.0723  0.2491 -0.4000
 1821W        W 6021   5.350   4.090   0.915  0.0142 -0.0975  0.1156
 1822W        W 6022   7.479   6.042   0.349 -0.0068 -0.2787 -0.0104
 1823W        W 6023   0.646   0.292  10.566  0.0625 -0.2463 -0.4592
 1824W        W 6024   8.518   7.353   4.640  0.3032 -0.3000  0.0057
 1825W        W 6025   1.442   6.269   0.757 -0.1354 -0.2211  0.2199
 1826W        W 6026   4.471  10.254   2.063  0.1337 -0.2204 -0.0957
 1827W        W 6027   3.983   0.800  10.563 -0.1382 -0.0362 -0.3759
 1828W        W 6028   5.219   5.079  11.218  0.1360 -0.1582 -0.0988
 1829W        W 6029   3.062   9.952  10.352 -0.1418 -0.2178 -0.0859
 1830W        W 6030   6.012   1.703   3.187 -0.1389  0.2279 -0.1069
 1831W        W 6031   7.655   3.120  11.500 -0.2200  0.0034 -0.1441
 1832W        W 6032   4.945   0.894  13.114  0.0249  0.3043 -0.1463
 1833W        W 6033   2.450   0.676   2.638 -0.3570  0.3037 -0.1281
 1834W        W 6034   6.355   2.144   4.538  0.1637 -0.2356  0.2321
 1835W        W 6035  10.446   8.562   0.265 -0.0043 -0.2148 -0.1603
 1836W        W 6036   4.971   4.360   2.066  0.0618 -0.0401  0.2690
 1837W        W 6037   5.178   1.970  12.634 -0.0749  0.1954 -0.0508
 1838W        W 6038   4.366   5.476   0.860 -0.4446  0.0115 -0.3550
 1839W        W 6039   9.267   1.155   0.992 -0.3178  0.1266 -0.3460
 1840W        W 6040   5.292   2.224   0.436 -0.3355 -0.1431 -0.0635
 1841W        W 6041   7.897   2.254  10.749  0.1133  0.0464  0.1873
 1842W        W 6042   9.991   5.219   1.698  0.0017 -0.0339  0.0312
 1843W        W 6043   0.093   0.912   2.106 -0.0439  0.2363  0.1260
 1844W        W 6044   2.215   7.349   2.940 -0.5354 -0.0656 -0.1165
 1845W        W 6045   4.777   5.916  11.715 -0.0041 -0.0489  0.1765
 1846W        W 6046   1.736   8.438   4.340  0.1455  0.0588  0.1059
 1847W        W 6047   8.402   1.707   3.244  0.3939 -0.2043 -0.0631
 1848W        W 6048   1.868   7.366   9.826 -0.0791  0.0570  0.0468
 1849W        W 6049   2.564   1.081   1.326  0.1583  0.0602  0.0588
 1850W        W 6050   6.201   4.008  13.257  0.2787 -0.2976 -0.1940
 1851W        W 6051   4.729   9.463   4.288 -0.1085 -0.1403  0.2421
 1852W        W 6052   2.561   3.224  10.345 -0.1336 -0.1706 -0.0797
 1853W        W 6053   1.471   6.530   1.266  0.1183 -0.3113 -0.0587
 1854W        W 6054   5.515   0.813   2.333  0.0480  0.2174 -0.0365
 1855W        W 6055   8.920   1.010   3.734  0.1273  0.1231  0.0812
 1856W        W 6056   5.020   1.557   9.815  0.2459  0.1625 -0.2328
 1857W        W 6057   2.352   1.360  11.044  0.2103  0.1827  0.0658
 1858W        W 6058   2.325   1.557   1.227  0.3223 -0.1205 -0.2324
 1859W        W 6059   6.301   7.042   3.716 -0.3088  0.2169 -0.1931
 1860W        W 6060   4.735   6.092   2.505 -0.1134  0.0442  0.2679
 1861W        W 6061   2.032   2.228   3.041  0.0760  0.1680  0.0720
 1862W        W 6062   5.755   3.302   3.823 -0.2083 -0.0664  0.0584
 1863W        W 6063   9.438   6.493   2.135  0.4491  0.0516  0.0515
 1864W        W 6064   5.496   0.576  12.992  0.1506  0.0742  0.2185
 1865W        W 6065   7.312   3.168  11.871 -0.0667 -0.0300  0.2010
 1866W        W 6066  10.024   8.300   0.599  0.1772  0.2114 -0.1911
 1867W        W 6067   2.601   9.384   1.807 -0.0114 -0.0173  0.0335
 1868W        W 6068   7.691   3.506   9.814 -0.0375  0.1254  0.2260
 1869W        W 6069   8.879   7.397   1.914  0.1978  0.4406 -0.2809
 1870W        W 6070   3.918   2.816   9.492 -0.3276 -0.2217  0.0447
 1871W        W 6071   7.564   0.951   2.520  0.1359  0.3245  0.1273
 1872W        W 6072   9.633   5.582   0.857  0.2280 -0.1233 -0.1092
 1873W        W 6073   9.486   4.890   3.724  0.1942  0.1049  0.3131
 1874W        W 6074   5.368   6.324   9.883 -0.0147 -0.0220  0.4084
 1875W        W 6075   7.722   7.653   9.497  0.0886 -0.0268  0.1687
 1876W        W 6076   9.932   4.114   2.361  0.0123  0.0957  0.1829
 1877W        W 6077   1.689  10.301   2.579  0.3430 -0.1321  0.2419
 1878W        W 6078   3.515   0.322   3.021  0.2628  0.1001  0.5027
 1879W        W 6079   3.017   0.434   1.246  0.0673  0.0457  0.0108
 1880W        W 6080   3.402   3.176   9.519 -0.2083 -0.2049 -0.1647
 1881W        W 6081   1.248   5.574   4.318  0.0163 -0.0357  0.0321
 1882W        W 6082   5.766   2.390   4.224 -0.2230  0.2154 -0.0601
 1883W        W 6083   5.390  10.365   2.538 -0.1888 -0.0395 -0.0890
 1884W        W 6084   3.441   5.419  12.373 -0.1512 -0.0487 -0.3903
 1885W        W 6085   1.510   2.776  10.963 -0.3178  0.2215 -0.0964
 1886W        W 6086   3.245   6.488   9.429  0.0420 -0.1785  0.0398
 1887W        W 6087   3.712   2.580  10.143 -0.3374 -0.0260 -0.0703
 1888W        W 6088   0.580   4.684   1.392  0.2785 -0.6703  0.0990
 1889W        W 6089   4.505   1.618  11.258  0.1292  0.1615  0.0063
 1890W        W 6090   3.100   5.346  11.423  0.0143 -0.0661 -0.5799
 1891W        W 6091   2.845   7.363   4.667  0.3580  0.0837 -0.0116
 1892W        W 6092   7.091   6.835  10.097 -0.0772  0.1448  0.0517
 1893W        W 6093  10.028   2.221  12.505  0.0070  0.0812  0.1650
 1894W        W 6094   4.726   9.782   0.372 -0.1229 -0.0777 -0.0056
 1895W        W 6095   5.229  10.013   9.093 -0.1273  0.0053 -0.0394
 1896W        W 6096   0.826   5.451   1.825 -0.2107  0.0776 -0.0039
 1897W        W 6097   5.839   6.280  10.128 -0.0714  0.1435  0.0865
 1898W        W 6098   8.177   7.284  12.230 -0.3308 -0.1412 -0.0099
 1899W        W 6099   6.441   8.547   0.800 -0.0354  0.0822 -0.1901
 1900W        W 6100   4.875   9.409   9.483  0.1051  0.1193  0.1202
 1901W        W 6101   6.015   8.196   8.878  0.0117  0.0934  0.0890
 1902W        W 6102   5.361   4.171   9.847  0.1325  0.4991  0.0718
 1903W        W 6103   3.476   3.174   3.937 -0.2415  0.1341 -0.1767
 1904W        W 6104   3.878   7.801   3.025  0.1756 -0.0138 -0.3819
 1905W        W 6105   6.538   6.118   1.705 -0.0107  0.0981  0.0602
 1906W        W 6106   7.341   4.365   0.474 -0.0262 -0.1622  0.0791
 1907W        W 6107   2.925   9.841   1.353 -0.3880 -0.1874 -0.1458
 1908W        W 6108  10.258   5.650   2.702  0.2300  0.3715  0.0988
 1909W        W 6109   8.698   9.488   2.835 -0.2990 -0.0372 -0.0095
 1910W        W 6110   4.286   6.205   2.279  0.1965  0.0761  0.0057
 1911W        W 6111   0.225   5.926   0.310 -0.0960  0.2285 -0.2412
 1912W        W 6112   3.171   8.357   2.771  0.3616 -0.0815 -0.0130
 1913W        W 6113   6.757   8.012   1.713 -0.1277 -0.1607 -0.0735
 1914W        W 6114   0.839   5.453  10.491  0.2773  0.0498 -0.1619
 1915W        W 6115   9.529   5.478  12.551  0.2665  0.1131 -0.0524
 1916W        W 6116   4.403   8.034  13.323 -0.2873  0.0314 -0.3051
 1917W        W 6117   3.795   8.255   2.805 -0.2413  0.3491  0.2345
 1918W        W 6118   6.882   6.544   1.031  0.1294 -0.1519 -0.1484
 1919W        W 6119   1.216   4.023  12.664 -0.0735 -0.2310  0.1264
 1920W        W 6120   4.781   1.890   9.427 -0.0404  0.3442 -0.3066
 1921W        W 6121   4.127   7.227   0.222  0.4294 -0.2291 -0.0663
 1922W        W 6122   1.579   3.998   3.761 -0.1057 -0.1626 -0.2071
 1923W        W 6123   1.950   8.033  11.043  0.4318 -0.0730 -0.3958
 1924W        W 6124   4.385  10.270  12.539  0.2116 -0.1048  0.2769
 1925W        W 6125   2.600   5.163   2.905  0.2360  0.0160  0.0462
 1926W        W 6126   0.750   4.052  13.379 -0.3092  0.1995  0.3439
 1927W        W 6127   1.827   4.592  10.498 -0.0943  0.2325  0.2643
 1928W        W 6128   6.719   4.510   3.131  0.0762  0.0884 -0.1345
 1929W        W 6129   0.103   4.664   2.290 -0.0267  0.1030  0.0841
 1930W        W 6130   4.054   4.330   0.816 -0.2064  0.2299 -0.2767
 1931W        W 6131   9.714   0.377   3.521 -0.4205 -0.0424 -0.0884
 1932W        W 6132   4.397   0.122   2.676 -0.0783  0.0519 -0.2936
 1933W        W 6133   1.202   3.259   2.411  0.1684  0.1723  0.0082
 1934W        W 6134   3.288   5.680  13.230  0.3950 -0.1747 -0.1355
 1935W        W 6135   4.398   1.330  12.737  0.2072 -0.2207  0.1836
 1936W        W 6136   2.298  10.374   9.508 -0.2321 -0.0709 -0.0800
 1937W        W 6137   9.960   6.116  11.453 -0.1350 -0.0168 -0.0099
 1938W        W 6138   1.921   7.915   0.703 -0.3610 -0.0471  0.2163
 1939W        W 6139   5.519   1.699   9.989  0.3866  0.0160  0.0372
 1940W        W 6140   5.045   4.092  11.805 -0.0204  0.0387  0.0327
 1941W        W 6141   9.434   4.082  11.441 -0.2921 -0.0231 -0.1960
 1942W        W 6142   2.030   5.816   3.507 -0.0103  0.0586  0.0776
 1943W        W 6143   8.275   9.793   3.063  0.2805 -0.1448 -0.0810
 1944W        W 6144   7.301   8.242   1.294  0.0892 -0.0362 -0.2236
 1945W        W 6145   7.024   9.068   1.856 -0.0404  0.0115 -0.1511
 1946W        W 6146   8.283   4.301  12.233 -0.0728 -0.0166 -0.1491
 1947W        W 6147   1.044   9.039  11.867  0.1859  0.1504  0.3299
 1948W        W 6148   1.927   2.431   8.821  0.0149  0.0508  0.0678
 1949W        W 6149   6.448   3.544  13.090 -0.0331  0.0064  0.0070
 1950W        W 6150  10.306  10.455   2.587 -0.2206  0.0883  0.3069
 1951W        W 6151   7.680   2.562  12.427 -0.0403 -0.5495 -0.0839
 1952W        W 6152   6.967   5.258   1.475 -0.0173 -0.1408 -0.1371
 1953W        W 6153   0.136   7.372   0.940 -0.3393  0.0664  0.0369
 1954W        W 6154   0.355   5.545  10.250  0.0964  0.1411 -0.3324
 1955W        W 6155   1.087   7.663   1.283  0.1409  0.4748  0.1606
 1956W        W 6156   0.633   9.877  12.111 -0.0047  0.1012  0.1708
 1957W        W 6157   3.034   7.687  11.666  0.4405 -0.0477  0.2830
 1958W        W 6158   1.065   7.076   5.496 -0.1653  0.0048 -0.2938
 1959W        W 6159   3.108   7.936   9.733  0.0873 -0.0259 -0.2435
 1960W        W 6160   0.993   7.572   3.037 -0.0469  0.1009 -0.1413
 1961W        W 6161   9.879   2.664   2.361  0.1221  0.3238  0.1611
 1962W        W 6162   6.687   2.375   2.932 -0.1867 -0.0469  0.3285
 1963W        W 6163   2.687   8.925  10.252 -0.2614 -0.0563 -0.2567
 1964W        W 6164   8.788   4.048  12.297  0.1827  0.0343  0.0325
 1965W        W 6165  10.454   3.337  10.325  0.0712 -0.1127 -0.0729
 1966W        W 6166   6.989   9.447   0.911 -0.2350 -0.2244 -0.0162
 1967W        W 6167   4.647   4.377   0.229 -0.1178  0.1698  0.1794
 1968W        W 6168   4.266   4.222   3.550 -0.1380  0.1026  0.1970
 1969W        W 6169   6.191   4.163  10.398  0.2987 -0.0368 -0.1314
 1970W        W 6170   7.957   0.691   1.299 -0.0600 -0.1002 -0.0687
 1971W        W 6171   4.301   4.286  12.738  0.1056 -0.2581 -0.4220
 1972W        W 6172   7.483   8.630  10.227  0.0674 -0.2291  0.0040
 1973W        W 6173   3.374   4.084   9.383 -0.1659 -0.1793  0.1228
 1974W        W 6174   3.035   5.646   4.289  0.1002 -0.4237  0.3402
 1975W        W 6175   5.367   6.275   0.202 -0.1171  0.0935  0.3750
 1976W        W 6176   6.885   0.796   0.107 -0.0788 -0.0213 -0.4025
 1977W        W 6177   3.509   2.201  12.807  0.1753 -0.1057 -0.1147
 1978W        W 6178   3.580   2.013   1.898 -0.0059  0.5627  0.3266
 1979W        W 6179   4.722   6.835   8.632  0.2365 -0.1532  0.2223
 1980W        W 6180   1.179   0.189  12.468 -0.1593  0.2058 -0.2027
 1981W        W 6181   5.877   8.684   3.952  0.2541 -0.0163  0.0741
 1982W        W 6182   3.172   3.636   3.940  0.0321  0.1445 -0.0818
 1983W        W 6183   0.281   1.313   0.558 -0.0089 -0.1571 -0.1454
 1984W        W 6184   6.200   4.287   2.441  0.0643  0.1831 -0.2449
 1985W        W 6185   1.528   4.817   0.425  0.2408 -0.0420 -0.2955
 1986W        W 6186   8.328   9.234  10.651  0.0055  0.1073 -0.0242
 1987W        W 6187   4.724   0.425   2.998  0.3027  0.0964 -0.1371
 1988W        W 6188   7.810   9.236   3.630  0.0326  0.3079 -0.1100
 1989W        W 6189   4.639   5.735  12.962 -0.2955  0.1476 -0.3912
 1990W        W 6190   3.188   2.566   4.928 -0.4544 -0.2038  0.1023
 1991W        W 6191   2.249   8.400   4.166  0.0855  0.3140  0.0838
 1992W        W 6192   7.784   5.718   4.245 -0.0584 -0.0544 -0.0573
 1993W        W 6193   2.076   5.298   3.095 -0.1095  0.1777 -0.3192
 1994W        W 6194   1.146  10.466   3.788 -0.0120  0.1910 -0.1645
 1995W        W 6195   1.816   9.699  12.405  0.0588  0.2656  0.0161
 1996W        W 6196   1.026   8.466   9.869  0.0686 -0.1439 -0.0418
 1997W        W 6197   1.568   9.959   0.680  0.1107 -0.2705  0.0554
 1998W        W 6198   8.416   9.937  12.453  0.0237  0.1824 -0.0016
 1999W        W 6199   2.125   0.507   3.046 -0.0565 -0.0712  0.0212
 2000W        W 6200   1.491   3.444   0.725 -0.1945 -0.1998  0.0990
 2001W        W 6201   8.536   6.311   0.626  0.3735  0.3343 -0.1110
 2002W        W 6202   2.080   5.132  10.184  0.2498  0.2882 -0.2328
 2003W        W 6203   4.523   0.918   2.236 -0.3219 -0.2322  0.1107
 2004W        W 6204   3.835   9.512   3.366 -0.0451 -0.1174 -0.0147
 2005W        W 6205   3.755   0.158   3.531 -0.0270 -0.2087  0.0610
 2006W        W 6206   6.864   9.640   9.426 -0.0091 -0.0687 -0.4161
 2007W        W 6207   3.044   8.584  10.244 -0.0243  0.0413 -0.1942
 2008W        W 6208   7.808   2.290  10.151  0.1352  0.0832 -0.1932
 2009W        W 6209   7.990   6.490  11.324 -0.4531 -0.0804 -0.0653
 2010W        W 6210   5.058   3.581   4.374 -0.1128  0.1490  0.0763
 2011W        W 6211   3.385   8.144  10.161 -0.1691  0.1226 -0.0574
 2012W        W 6212   5.951   2.316   2.158  0.1657  0.0421  0.0528
 2013W        W 6213   2.281   4.794   0.637 -0.2185  0.0108  0.0784
 2014W        W 6214   8.854   9.436  10.644  0.1348  0.1675  0.1282
 2015W        W 6215   6.301   8.449  10.887  0.2485 -0.0278  0.1353
 2016W        W 6216   7.509   9.395   4.034 -0.0997  0.2136 -0.2165
 2017W        W 6217   2.853   9.996   9.883  0.2086 -0.0214  0.0671
 2018W        W 6218   3.053   7.023  12.410 -0.2030 -0.3037 -0.2938
 2019W        W 6219   1.994   8.993  11.635  0.0092  0.0026 -0.1931
 2020W        W 6220   3.442   5.557   1.927 -0.2808 -0.0150 -0.2556
 2021W        W 6221   0.731   4.614  12.445  0.1983  0.0644 -0.1439
 2022W        W 6222   6.443   0.523   2.288  0.0141 -0.4238  0.0830
 2023W        W 6223   1.813   9.238   9.926  0.2980 -0.4845  0.0174
 2024W        W 6224   2.631   7.219  11.560 -0.2903  0.0604  0.1440
 2025W        W 6225   2.853   1.308  12.804  0.3145  0.0120  0.0511
 2026W        W 6226   4.702   3.175  13.175 -0.1652  0.0889  0.1582
 2027W        W 6227   1.962   8.882   7.727  0.1308  0.1200 -0.4506
 2028W        W 6228   8.433   6.784  10.780 -0.2288 -0.2939 -0.2838
 2029W        W 6229   4.176   3.714   3.178 -0.1262 -0.1579  0.1975
 2030W        W 6230   7.318   2.325   3.611  0.1345  0.1949 -0.0473
 2031W        W 6231   6.547   9.691   0.775 -0.0482 -0.2479  0.1328
 2032W        W 6232   9.587   4.545   9.828 -0.0601  0.2364 -0.0483
 2033W        W 6233   1.358   7.681   0.823 -0.2063 -0.0659  0.0834
 2034W        W 6234   5.306   8.322  11.290  0.0680 -0.0099 -0.2497
 2035W        W 6235   7.370   7.005   9.515 -0.1363  0.1539 -0.0122
 2036W        W 6236   7.490   1.956  10.651  0.1844 -0.0457 -0.2016
 2037W        W 6237   0.129   1.538  10.189 -0.2039  0.2927 -0.0560
 2038W        W 6238   6.645  10.246  13.269  0.0943 -0.2274 -0.2415
 2039W        W 6239   6.827   0.335   2.590  0.0454  0.0446  0.1911
 2040W        W 6240   2.747   5.640   1.119  0.2904 -0.2920  0.1795
 2041W        W 6241   6.973   7.800  10.146  0.1917  0.1156 -0.1479
 2042W        W 6242   2.566   6.461   2.786  0.0710 -0.2211 -0.1251
 2043W        W 6243   8.767   7.402   1.450 -0.4405  0.2062  0.3216
 2044W        W 6244   7.951   8.748  11.765  0.0256 -0.2031 -0.2991
 2045W        W 6245   5.364   3.167   1.455  0.0092 -0.2402 -0.1378
 2046W        W 6246   5.369   3.082  13.118  0.3426  0.3892 -0.2130
 2047W        W 6247   3.785   8.849   1.295 -0.3468 -0.0473 -0.1104
 2048W        W 6248   0.036   3.953   4.638  0.1868 -0.1573 -0.2695
 2049W        W 6249   6.326   3.383   4.516  0.2788  0.0268  0.1072
 2050W        W 6250   1.461   7.550  11.883  0.0466 -0.0410 -0.0311
 2051W        W 6251   1.019   8.040   0.603  0.0977 -0.1388 -0.4700
 2052W        W 6252   5.709   2.128   2.618 -0.0859  0.0704 -0.0332
 2053W        W 6253   6.682   4.600   5.127 -0.1566  0.0953 -0.2319
 2054W        W 6254   6.120   7.871  12.747 -0.1340  0.1859  0.2361
 2055W        W 6255   7.756   8.351   3.835  0.2203  0.0903  0.1669
 2056W        W 6256   6.916   5.359   2.985 -0.3557  0.1776  0.1904
 2057W        W 6257   8.282   3.896   3.447  0.1113 -0.0701  0.0816
 2058W        W 6258   6.515   8.912   8.595 -0.3094  0.0431 -0.0527
 2059W        W 6259   2.473   5.334  10.471  0.0245  0.3476 -0.0088
 2060W        W 6260   6.293   6.488   3.661 -0.0812 -0.1948  0.2707
 2061W        W 6261   0.999   7.400   3.502  0.0129  0.1530  0.0269
 2062W        W 6262   9.897   0.064   0.554 -0.5398 -0.2218  0.0577
 2063W        W 6263   1.324   1.353  11.482 -0.0914 -0.1662  0.1447
 2064W        W 6264   0.545   1.310  12.491  0.1463 -0.1584 -0.2742
 2065W        W 6265   0.705   0.639  11.752  0.0191  0.0621 -0.1509
 2066W        W 6266   1.699   5.353  10.886  0.3764 -0.3913 -0.1090
 2067W        W 6267   3.129   4.181  10.656  0.0790 -0.1839 -0.2154
 2068W        W 6268   2.013   0.901   0.581 -0.0062 -0.1455 -0.3216
 2069W        W 6269   9.569   6.910   9.604  0.0033  0.0806 -0.0989
 2070W        W 6270   1.200   0.040  10.509  0.4011 -0.1352 -0.0080
 2071W        W 6271   5.768   0.667   8.820 -0.1546 -0.3312 -0.2674
 2072W        W 6272   5.497   5.182   4.828  0.1750 -0.0329 -0.5404
 2073W        W 6273  10.132   0.604   3.323 -0.0317  0.0122 -0.1508
 2074W        W 6274   7.405   9.949  11.399  0.1186 -0.0466  0.0843
 2075W        W 6275   5.849   2.652   2.495 -0.0557  0.2329  0.4643
 2076W        W 6276  10.157   2.221  11.345  0.1451  0.2469 -0.1490
 2077W        W 6277   7.882   9.872   4.948  0.0764 -0.0078  0.2699
 2078W        W 6278   7.908   0.098   2.617  0.0092 -0.0695 -0.1656
 2079W        W 6279   7.856   2.174  11.757 -0.1017  0.3183  0.0255
 2080W        W 6280   5.916   3.951   2.733  0.1157 -0.1370 -0.1728
 2081W        W 6281   1.530   9.799   2.722  0.0967  0.1449 -0.1518
 2082W        W 6282   3.438   3.492  11.147 -0.0790  0.0752  0.2836
 2083W        W 6283   2.008   9.009  13.051  0.0810  0.1441 -0.2795
 2084W        W 6284   9.082   8.429   0.057  0.0549 -0.2864 -0.2344
 2085W        W 6285   4.625   6.565   4.148 -0.0629  0.0310  0.2839
 2086W        W 6286   6.308   9.371   0.185 -0.1297  0.0917  0.2658
 2087W        W 6287   3.767   8.863   3.809  0.1324  0.1552  0.2218
 2088W        W 6288   3.564   4.081  12.475  0.1599  0.1118 -0.1047
 2089W        W 6289   1.961   7.027   3.692  0.1504  0.0500 -0.0960
 2090W        W 6290   1.872   6.953   0.413  0.0320  0.0644 -0.1097
 2091W        W 6291   7.014   4.785   2.342 -0.1638  0.0442  0.2022
 2092W        W 6292   9.537   2.895   2.752  0.1849  0.2102  0.3558
 2093W        W 6293   4.871   8.351   9.531  0.2229 -0.0459 -0.2810
 2094W        W 6294   1.754   0.141  10.493 -0.0147 -0.0104 -0.1049
 2095W        W 6295   1.480   6.822   2.818 -0.0827 -0.2751  0.0364
 2096W        W 6296   3.434   5.955   4.266  0.0807 -0.1286 -0.1204
 2097W        W 6297   2.786   9.830  10.737 -0.2869 -0.0480 -0.1831
 2098W        W 6298   9.372   7.547  11.335  0.1129  0.1894  0.1730
 2099W        W 6299   4.413   5.260   3.927  0.0798  0.0979  0.1588
 2100W        W 6300   6.269   2.733   2.773  0.5018  0.5081 -0.1092
 2101W        W 6301   3.174   1.432  10.929  0.1131 -0.2823 -0.1526
 2102W        W 6302   5.546   0.394   3.233 -0.0320 -0.0317 -0.0163
 2103W        W 6303   1.883   4.374   3.824  0.1216 -0.1522  0.0989
 2104W        W 6304   0.226   7.978  10.867 -0.0411 -0.0307  0.1012
 2105W        W 6305   8.467  10.345  11.066  0.1080 -0.2797  0.2641
 2106W        W 6306   0.952   3.859  11.194  0.2822 -0.0042  0.3137
 2107W        W 6307   5.837   2.023   9.773 -0.0824 -0.1199 -0.1578
 2108W        W 6308   2.356   5.909   1.454 -0.1002  0.2649  0.2031
 2109W        W 6309   0.266   9.888  10.004 -0.0601 -0.1692 -0.1928
 2110W        W 6310   4.027   8.060   3.431  0.0207 -0.0157  0.2087
 2111W        W 6311   3.132   7.185  11.588  0.1012  0.1447 -0.1719
 2112W        W 6312   9.662  10.313   3.525  0.0321 -0.3619 -0.0484
 2113W        W 6313  10.327   5.413   4.552  0.2493  0.0266 -0.0674
 2114W        W 6314   7.425   4.117   3.173 -0.0459 -0.1947 -0.3475
 2115W        W 6315   1.784   1.057  11.572 -0.1628 -0.1095 -0.1586
 2116W        W 6316   9.665   0.542  10.618  0.0814 -0.2818  0.0003
 2117W        W 6317   8.821   2.143   0.795 -0.2588 -0.1263  0.0920
 2118W        W 6318   5.993   8.562   0.612 -0.2144 -0.2289 -0.0365
 2119W        W 6319   0.237   9.815  11.856 -0.0491 -0.0265  0.1247
 2120W        W 6320   8.124   3.929  11.408  0.4586 -0.4704 -0.2293
 2121W        W 6321   4.524   7.015   9.059 -0.0039  0.0961 -0.0891
 2122W        W 6322  10.031   8.807   0.400 -0.1573 -0.2152  0.0041
 2123W        W 6323   7.905   1.713  12.016 -0.0184 -0.1417 -0.1749
 2124W        W 6324   6.976   1.501   3.336 -0.3770  0.2674  0.0738
 2125W        W 6325   6.862   8.225   2.140 -0.0290 -0.0174 -0.2599
 2126W        W 6326   2.375   6.062   0.912  0.1780  0.2815 -0.3668
 2127W        W 6327   0.671   7.801   3.387 -0.2114  0.1477 -0.0583
 2128W        W 6328   0.687   0.603   0.189 -0.1779  0.0872 -0.1927
 2129W        W 6329   9.180   5.755  11.763 -0.1271 -0.1130 -0.2405
 2130W        W 6330   8.225   6.636  12.807 -0.1886  0.1071  0.0178
 2131W        W 6331   7.395   8.850  12.400 -0.4082  0.1648  0.0041
 2132W        W 6332   6.795   9.838  12.459 -0.0931  0.1101 -0.3231
 2133W        W 6333   6.441   7.326   5.305 -0.0973 -0.0262 -0.2023
 2134W        W 6334   0.637   7.140   2.345  0.1696 -0.1216 -0.1436
 2135W        W 6335   1.995  10.126  12.753 -0.1012 -0.0138  0.1521
 2136W        W 6336   9.112   7.274   9.509  0.2103  0.2142 -0.0244
 2137W        W 6337   6.066   4.560  13.251  0.3439 -0.0882  0.2475
 2138W        W 6338   0.153  10.011  12.440  0.1068  0.0583 -0.1334
 2139W        W 6339   3.736   3.206   1.297 -0.1090 -0.0845  0.0144
 2140W        W 6340   1.132   3.573  11.553 -0.0348 -0.0300  0.0422
 2141W        W 6341   5.687   7.715   2.439  0.0608 -0.3617 -0.3697
 2142W        W 6342   6.370   9.038   0.877  0.1823 -0.0833 -0.0676
 2143W        W 6343   0.963   9.850  13.036  0.4309 -0.1813 -0.0435
 2144W        W 6344   0.607   8.288  10.846 -0.1739  0.2940 -0.3041
 2145W        W 6345   7.302   2.951   2.294 -0.0750 -0.0278 -0.0115
 2146W        W 6346   4.521   8.541  13.055  0.3627  0.1296 -0.1488
 2147W        W 6347   4.168   0.033  12.118  0.1073  0.3604  0.4190
 2148W        W 6348   0.983   8.662   1.138  0.2447  0.1267 -0.0775
 2149W        W 6349   6.602   5.053   4.420 -0.1540 -0.0217  0.0632
 2150W        W 6350   8.528   2.822   0.172 -0.4580 -0.0370  0.2759
 2151W        W 6351   2.470   0.128   2.808 -0.1299  0.1663  0.0765
 2152W        W 6352  10.104   8.775   8.348 -0.1001  0.0297 -0.1917
 2153W        W 6353   6.769   9.265  13.329  0.0777 -0.1199  0.1436
 2154W        W 6354   0.416   5.625   8.999 -0.2467  0.1679 -0.1278
 2155W        W 6355   4.984   1.549   2.849  0.1437  0.0163 -0.2224
 2156W        W 6356   7.900   4.541  13.247 -0.0089 -0.2371  0.4252
 2157W        W 6357   3.668   9.668   1.864  0.0904  0.0598 -0.1043
 2158W        W 6358   5.322   3.512  11.960  0.0161  0.0795  0.1007
 2159W        W 6359   2.496  10.164   1.295 -0.1539 -0.0672 -0.0636
 2160W        W 6360   9.806   8.392   1.472  0.0624 -0.2680 -0.2496
 2161W        W 6361   1.104   0.537  13.280  0.2067  0.0059 -0.0071
 2162W        W 6362   7.845   2.464   0.925 -0.2046  0.0239 -0.2067
 2163W        W 6363   5.398   2.737  12.200 -0.1201  0.0338 -0.1595
 2164W        W 6364   3.425   1.848   1.267  0.0264 -0.0701  0.0929
 2165W        W 6365   1.015   7.079  10.249  0.1090  0.1180 -0.1515
 2166W        W 6366   2.397   0.537   0.672 -0.0825 -0.0994 -0.0035
 2167W        W 6367   9.916   3.258   1.373  0.1711 -0.0522 -0.1937
 2168W        W 6368   6.597   3.554   3.011  0.1504  0.1177 -0.0442
 2169W        W 6369   5.170   0.662   3.020  0.4124  0.1459  0.2067
 2170W        W 6370   1.836   3.944   1.994  0.1110  0.0519  0.1591
 2171W        W 6371  10.383   0.306   0.763 -0.1560 -0.0169  0.1144
 2172W        W 6372   4.522   2.849   0.178  0.3014  0.3706  0.1245
 2173W        W 6373   8.829   6.813   2.750  0.1743 -0.2893  0.4553
 2174W        W 6374   2.864   1.247   0.907 -0.0864  0.3096  0.0147
 2175W        W 6375   0.272   8.668  13.293  0.2784  0.0857 -0.2079
 2176W        W 6376   5.390   0.110  12.903 -0.3708  0.2517 -0.1693
 2177W        W 6377   2.736   7.347   0.682  0.1107  0.4072  0.1707
 2178W        W 6378   5.165   7.412   9.681  0.0854  0.0476  0.1146
 2179W        W 6379   4.402   2.992  11.886  0.1650 -0.0644  0.1332
 2180W        W 6380   4.725   8.865   0.302 -0.2764 -0.0900 -0.0370
 2181W        W 6381   5.981   2.791  12.583 -0.0635 -0.1222  0.0783
 2182W        W 6382   1.369   6.555   0.294  0.0200  0.0098 -0.1069
 2183W        W 6383   6.790   7.961   8.941 -0.0311  0.0232  0.0849
 2184W        W 6384   2.628   5.122  10.011  0.3720  0.0138  0.1396
 2185W        W 6385   9.205   1.239  10.876 -0.1777 -0.0850  0.0436
 2186W        W 6386   5.296  10.010   2.117  0.1166 -0.2890  0.1378
 2187W        W 6387   9.234   7.694  10.020 -0.2443  0.0267  0.0337
 2188W        W 6388   1.079   5.578  13.399  0.1646 -0.1691 -0.0167
 2189W        W 6389   2.301   3.715  11.278  0.4926 -0.1998  0.1157
 2190W        W 6390   0.973   7.254  12.252 -0.0788  0.2526 -0.2080
 2191W        W 6391   9.247  10.323   1.539  0.0367  0.1992 -0.0877
 2192W        W 6392   8.347   7.840   9.643  0.1429 -0.0543 -0.0968
 2193W        W 6393   4.525   6.252  13.033  0.1352 -0.1729 -0.0341
 2194W        W 6394   6.550   0.079   8.862 -0.1613 -0.1326  0.0130
 2195W        W 6395  10.123   0.869  12.008 -0.0520 -0.0646  0.1607
 2196W        W 6396   4.851   0.680  10.836  0.0195  0.2038 -0.1383
 2197W        W 6397   6.483   4.018  11.677 -0.1557  0.1996 -0.2245
 2198W        W 6398   5.968   8.537  11.549 -0.1899  0.1528 -0.0682
 2199W        W 6399   5.210   1.311   1.990  0.0738 -0.1310 -0.0060
 2200W        W 6400   7.766   1.033  10.399  0.0760  0.3024  0.3066
 2201W        W 6401   8.720   5.262  11.034  0.6537 -0.1143  0.0205
 2202W        W 6402   8.962   0.968   2.966 -0.1040  0.0956  0.2209
 2203W        W 6403   6.319   1.987   3.514  0.0129  0.0121 -0.0547
 2204W        W 6404   7.702   1.119   1.131  0.3679  0.3308 -0.0287
 2205W        W 6405   2.615   4.332   2.856  0.3457  0.2349  0.3510
 2206W        W 6406   1.643   7.813   8.958 -0.2639 -0.2678  0.2763
 2207W        W 6407   1.545   7.378   1.235  0.2549  0.0703  0.0442
 2208W        W 6408   0.313   4.555   3.745  0.0112 -0.0156  0.1094
 2209W        W 6409   0.385   8.691  11.200  0.3683  0.0326 -0.1296
 2210W        W 6410   1.685   0.353   8.979 -0.0707 -0.2463 -0.0732
 2211W        W 6411   4.604   8.197  11.904  0.1049 -0.2889 -0.2525
 2212W        W 6412   9.386  10.165  10.263 -0.1840 -0.4002 -0.0823
 2213W        W 6413   1.803  10.472  13.139 -0.1228  0.0490  0.0270
 2214W        W 6414   3.871   9.411   0.450 -0.0947 -0.1158 -0.0525
 2215W        W 6415   0.750   7.869   9.129 -0.0630  0.1714 -0.3622
 2216W        W 6416   2.639   7.633   2.033 -0.0091  0.1784 -0.2940
 2217W        W 6417   3.484   2.594   9.644  0.0261 -0.2536 -0.1057
 2218W        W 6418   9.856   7.411   9.836  0.2987 -0.1009 -0.0088
 2219W        W 6419   3.247   5.859   1.173  0.1393  0.3138 -0.2367
 2220W        W 6420   7.730   5.582   3.133  0.0439 -0.1296  0.0657
 2221W        W 6421   5.262   2.456   2.703 -0.1324  0.2359 -0.0332
 2222W        W 6422   0.736   3.081   0.666  0.0783 -0.1523 -0.3114
 2223W        W 6423   0.218   6.595  10.952 -0.0067  0.1113  0.1493
 2224W        W 6424   2.492   0.374   9.528 -0.2390 -0.0502 -0.0457
 2225W        W 6425   2.477   1.152   2.194  0.1062  0.1676 -0.2370
 2226W        W 6426   4.534   6.458  12.195  0.2490  0.2239 -0.0956
 2227W        W 6427   1.699   8.593  13.254 -0.0690 -0.0265 -0.1256
 2228W        W 6428   7.490   9.803  11.850 -0.0298 -0.0978 -0.1253
 2229W        W 6429   1.934   5.509   5.232  0.0040 -0.2339  0.2695
 2230W        W 6430   6.202   3.526   1.261  0.2718 -0.1194  0.1487
 2231W        W 6431   7.616   0.094   9.835  0.3709  0.0321 -0.0220
 2232W        W 6432  10.241   4.882  12.793 -0.0316  0.3095 -0.0914
 2233W        W 6433   2.660   5.335  11.821  0.0782  0.0349 -0.1572
 2234W        W 6434   0.593   8.690   9.701  0.1234  0.1225 -0.0812
 2235W        W 6435   0.187   7.630  12.769  0.1324  0.0630  0.0963
 2236W        W 6436   6.162   6.202   0.273  0.3399  0.0103 -0.3101
 2237W        W 6437   0.952   1.243   4.480  0.0008 -0.0251  0.1479
 2238W        W 6438   2.333   9.086   9.761  0.4052 -0.0307 -0.0298
 2239W        W 6439   6.019   0.418   0.206  0.1372 -0.1691  0.0037
 2240W        W 6440   1.257   1.856  12.737  0.2287  0.1466  0.2499
 2241W        W 6441   0.210   9.811   1.519 -0.1884  0.1103  0.1163
 2242W        W 6442   8.380   3.679  12.238 -0.0567  0.1292 -0.0711
 2243W        W 6443   2.489   9.986   2.216 -0.1967 -0.1517 -0.3199
 2244W        W 6444   5.235   4.249   9.285 -0.2283  0.0432  0.0784
 2245W        W 6445   3.229   4.917  12.443  0.3289  0.0353  0.2056
 2246W        W 6446   0.137   9.053  12.386 -0.0387  0.1007 -0.0238
 2247W        W 6447   0.374   7.957  11.835  0.2313 -0.1685  0.0938
 2248W        W 6448   4.525   4.645   4.406 -0.2040  0.2137 -0.1959
 2249W        W 6449   2.600   6.494   8.676  0.3963  0.0963  0.2975
 2250W        W 6450   1.534   9.208   0.100 -0.1548 -0.1519 -0.0777
 2251W        W 6451  10.165   8.831  11.711  0.3027 -0.4957 -0.0825
 2252W        W 6452   6.036   7.221   2.090 -0.0315  0.0109  0.3542
 2253W        W 6453   2.836   5.973   1.570 -0.0104 -0.3071 -0.2076
 2254W        W 6454  10.205  10.433   9.812  0.0452 -0.0524  0.4280
 2255W        W 6455   3.261   6.471   4.307  0.0668 -0.0026  0.1742
 2256W        W 6456  10.002   1.134   1.238  0.1647  0.0877 -0.1593
 2257W        W 6457   9.752   6.073   4.027 -0.3606 -0.0942  0.1632
 2258W        W 6458   2.279   5.133   9.145  0.1160 -0.3724 -0.2351
 2259W        W 6459  10.326   2.765  11.348 -0.2179  0.1160  0.2104
 2260W        W 6460   0.483   0.810  12.582  0.0170  0.0820 -0.1275
 2261W        W 6461   4.848   2.704  10.156  0.1106 -0.0085  0.4901
 2262W        W 6462   5.294   7.803   2.112 -0.0792  0.1009  0.1374
 2263W        W 6463   3.000   8.100  10.497  0.0008  0.1438  0.0368
 2264W        W 6464   0.564   1.168   2.170  0.0083 -0.0668 -0.1192
 2265W        W 6465   2.895   6.859  11.172 -0.0839  0.0892  0.0092
 2266W        W 6466   6.087   1.858  12.090 -0.0622  0.1389 -0.1333
 2267W        W 6467   2.670  10.239  10.511 -0.1285  0.0206 -0.0702
 2268W        W 6468   4.179   3.553   1.152 -0.2072 -0.0855  0.0535
 2269W        W 6469   8.223   4.781  11.816  0.0114  0.1271  0.1382
 2270W        W 6470   4.298   1.761   0.620  0.0052 -0.5104 -0.0907
 2271W        W 6471   7.672   4.167  12.416  0.5128  0.1191 -0.1201
 2272W        W 6472   0.491   0.255  12.056 -0.2989  0.0894 -0.1330
 2273W        W 6473   6.295   3.221   1.636 -0.2053  0.1158  0.2378
 2274W        W 6474   4.959  10.007   9.564 -0.1983 -0.2019 -0.0125
 2275W        W 6475   8.191   1.303   3.322 -0.4414 -0.0012  0.0654
 2276W        W 6476   4.494   7.370   1.988  0.0283 -0.0509 -0.1249
 2277W        W 6477  10.195   7.403  11.609  0.4193  0.1877  0.2680
 2278W        W 6478   2.224   4.488  10.034 -0.1609  0.0374 -0.2704
 2279W        W 6479   6.928   7.309  10.056 -0.1240  0.1320  0.0126
 2280W        W 6480   2.101   8.866   4.285 -0.0296 -0.2504 -0.0973
 2281W        W 6481   3.775   6.643  11.469 -0.0457 -0.1930 -0.1797
 2282W        W 6482   2.743   7.560   9.751 -0.3865  0.1991 -0.0301
 2283W        W 6483   2.057   2.949   9.156 -0.1549 -0.0642 -0.1895
 2284W        W 6484   0.075   3.304  11.314 -0.0467  0.2931 -0.2148
 2285W        W 6485   4.986   9.830  13.321  0.3277 -0.0151 -0.0992
 2286W        W 6486   9.178   3.664   2.167 -0.1333  0.2166  0.1470
 2287W        W 6487   7.221   7.866   4.493  0.2582 -0.0828  0.0786
 2288W        W 6488   7.204   7.798   0.481 -0.1896 -0.6129 -0.3972
 2289W        W 6489   5.166   8.732   0.753  0.1850  0.1145 -0.2693
 2290W        W 6490   5.009   0.756   2.505 -0.1369 -0.2001  0.0656
 2291W        W 6491   2.895   1.249   3.006 -0.3004  0.2987 -0.0446
 2292W        W 6492   5.283   1.420  10.429  0.0590  0.4958  0.0154
 2293W        W 6493   6.126   9.315  11.606 -0.3662 -0.2805 -0.2442
 2294W        W 6494   3.656   8.353   1.049  0.0629 -0.1901  0.2423
 2295W        W 6495   1.171   5.312  10.899 -0.4470 -0.1791 -0.2073
 2296W        W 6496   8.709   4.197   9.684  0.1407 -0.0674 -0.2691
 2297W        W 6497   2.463  10.148  11.924 -0.3657  0.1691 -0.0792
 2298W        W 6498   6.909   3.654  10.313 -0.1283 -0.1548 -0.2385
 2299W        W 6499   0.667   9.342   9.183 -0.1574  0.3796  0.0159
 2300W        W 6500   2.330   6.650   1.815  0.1638  0.4345 -0.1869
 2301W        W 6501   2.233   8.292  11.455 -0.4669 -0.0352  0.2390
 2302W        W 6502   3.020   1.941  12.719 -0.0129  0.1447 -0.1900
 2303W        W 6503   4.266   2.744  10.263  0.1095  0.0470 -0.1214
 2304W        W 6504   1.999   3.785   9.519 -0.0697 -0.0864 -0.0733
 2305W        W 6505   1.911   1.421  10.715  0.0731 -0.0021 -0.1821
 2306W        W 6506   0.849   2.145  12.529  0.0297 -0.0505  0.1085
 2307W        W 6507   2.159   4.627   4.225 -0.2088 -0.2001 -0.2008
 2308W        W 6508   2.118   4.293   3.154 -0.3643  0.0411 -0.0899
 2309W        W 6509   1.242   7.456   0.385 -0.1865 -0.0714  0.2895
 2310W        W 6510   9.408   8.490  11.595 -0.0678  0.0400 -0.1785
 2311W        W 6511   0.942   6.243   2.551  0.0182 -0.1290 -0.2076
 2312W        W 6512   5.668   6.911   2.017 -0.0821 -0.2090  0.1024
 2313W        W 6513   6.955   2.507   3.970 -0.1725  0.0601  0.1810
 2314W        W 6514   2.142   3.998   3.523  0.0598 -0.0074 -0.0413
 2315W        W 6515   7.294   8.020  12.958  0.0553  0.1779 -0.0923
 2316W        W 6516   9.833   8.292  13.030  0.2032 -0.1220 -0.3884
 2317W        W 6517   4.203   7.590   9.976  0.1898  0.2920  0.0180
 2318W        W 6518   0.514   5.858  10.695  0.1489  0.1438  0.0584
 2319W        W 6519   3.667   7.451  12.359 -0.1701 -0.0694  0.2765
 2320W        W 6520   0.678   6.866   3.570  0.0726  0.1799  0.1789
 2321W        W 6521   8.410   9.992   1.994  0.0110  0.1719  0.0189
 2322W        W 6522   2.802   7.494   8.476 -0.0367 -0.1039  0.1926
 2323W        W 6523   4.275   3.328   2.851 -0.0119 -0.2588 -0.1709
 2324W        W 6524   9.283   4.881  10.116 -0.0366 -0.2179  0.1684
 2325W        W 6525   4.052   3.318  11.794 -0.0689  0.2043  0.1470
 2326W        W 6526   3.408   3.766  10.738 -0.0204  0.1655 -0.0410
 2327W        W 6527   5.138   2.643   9.760 -0.1472  0.0014 -0.2366
 2328W        W 6528   8.038   3.527   0.517  0.1464 -0.0083  0.1043
 2329W        W 6529   1.875   2.474  12.655 -0.1774 -0.0608 -0.1518
 2330W        W 6530   4.717   8.746  12.654 -0.0542 -0.1100  0.2235
 2331W        W 6531   3.850  10.147   3.482 -0.0699  0.1925 -0.1608
 2332W        W 6532   9.450   0.354   2.243  0.0729  0.0744  0.1468
 2333W        W 6533   9.278   1.352   0.173 -0.0909 -0.3333  0.1962
 2334W        W 6534   4.775   8.924   8.788  0.1499 -0.1040 -0.1015
 2335W        W 6535   3.193   2.331  10.380 -0.0104  0.0047 -0.0119
 2336W        W 6536   8.797   4.054  11.477 -0.0649  0.1244  0.1189
 2337W        W 6537   0.384   9.245   4.891  0.0486 -0.2921  0.0306
 2338W        W 6538   6.979   4.431   9.426 -0.0071  0.1550  0.1079
 2339W        W 6539   9.468   8.032   1.320  0.0005 -0.0137 -0.0854
 2340W        W 6540   4.219   4.741   4.808 -0.2853  0.1773  0.0123
 2341W        W 6541   0.824   9.646   0.851  0.0441  0.0443 -0.1476
 2342W        W 6542   5.470   4.717   4.510 -0.2277 -0.2364 -0.2422
 2343W        W 6543   7.971   8.113   0.955 -0.2279 -0.2335  0.0865
 2344W        W 6544   9.610   1.147   0.549 -0.0655  0.0313  0.0618
 2345W        W 6545  10.102   0.034  13.021 -0.0651  0.0906 -0.0413
 2346W        W 6546  10.222   9.951  10.007 -0.1727  0.0437  0.2859
 2347W        W 6547   6.392  10.147   8.552 -0.3925 -0.0835  0.1560
 2348W        W 6548   2.254   7.465   0.589  0.4556 -0.0779  0.1704
 2349W        W 6549   9.480   3.438   1.252 -0.0716  0.0295 -0.0924
 2350W        W 6550   1.100   2.779  12.645 -0.0968  0.0994 -0.1112
 2351W        W 6551   6.668   4.053   4.379 -0.2283  0.1977 -0.0934
 2352W        W 6552   8.497   5.345   9.959  0.2263 -0.2812  0.2070
 2353W        W 6553   9.973   7.129   1.521  0.0233 -0.0894  0.0453
 2354W        W 6554   9.137   9.185  10.098  0.0752 -0.1471  0.1525
 2355W        W 6555   0.607   7.269   3.281  0.1017 -0.0039  0.1231
 2356W        W 6556   1.119   3.971   0.899  0.3051  0.1019 -0.0881
 2357W        W 6557   9.656   8.889   0.806 -0.0808  0.1915  0.0253
 2358W        W 6558   3.312  10.181   2.103 -0.1064  0.0117 -0.0165
 2359W        W 6559   4.873   2.456   3.100 -0.2069  0.0480  0.0068
 2360W        W 6560   0.005   6.226  11.352 -0.3038 -0.0123 -0.0171
 2361W        W 6561   9.926   6.563   3.852  0.0817  0.1334 -0.0487
 2362W        W 6562   2.271   9.720  11.092  0.0065 -0.1880  0.0037
 2363W        W 6563   6.978   5.396   3.546  0.1604 -0.1291 -0.1004
 2364W        W 6564   8.869   8.308   0.524  0.0433  0.2927 -0.4128
 2365W        W 6565   8.951  10.419  10.981  0.1567 -0.2111 -0.3448
 2366W        W 6566   4.876   8.453  11.542 -0.3351  0.1231 -0.2377
 2367W        W 6567   3.662   4.099  10.485  0.1455 -0.1518  0.0037
 2368W        W 6568   9.703   1.987   0.944 -0.2465  0.3918 -0.1443
 2369W        W 6569   9.214   1.375   2.620 -0.0145  0.0479  0.0778
 2370W        W 6570   3.822   3.484  10.701 -0.0599  0.0326  0.2082
 2371W        W 6571  10.365   9.244   3.088  0.1115 -0.0307  0.0269
 2372W        W 6572   0.662   8.299   3.704 -0.1204 -0.1498  0.0306
 2373W        W 6573   2.061   6.375   9.772 -0.1614  0.1466  0.1147
 2374W        W 6574   2.645   2.640   5.057 -0.0574 -0.0094  0.0482
 2375W        W 6575   9.785   2.002  10.055  0.2449  0.4340  0.0024
 2376W        W 6576   7.384   8.037   9.588 -0.1860 -0.2348 -0.0258
 2377W        W 6577   6.441   8.218   2.407 -0.0685  0.2233  0.2830
 2378W        W 6578   6.791   2.222   4.350 -0.1217 -0.1575 -0.1811
 2379W        W 6579   6.687   0.755  11.800  0.2235 -0.0872  0.2070
 2380W        W 6580   2.548   6.141  12.080 -0.2288  0.0289  0.0542
 2381W        W 6581   2.014   2.227   2.001  0.2024  0.0749  0.3409
 2382W        W 6582   1.471  10.321   9.255  0.1796 -0.3964  0.0392
 2383W        W 6583   6.179   1.928   0.214  0.0774  0.1094 -0.0682
 2384W        W 6584   6.463   4.295  11.235  0.3295 -0.1439 -0.0488
 2385W        W 6585   8.277   8.336   1.211  0.1116 -0.1581 -0.0016
 2386W        W 6586   9.661   5.284   1.321 -0.0118  0.1641  0.2449
 2387W        W 6587   3.819   1.660   0.526 -0.0915 -0.2609 -0.2917
 2388W        W 6588   8.311   7.010   2.760 -0.3060 -0.2837 -0.1940
 2389W        W 6589   6.348   4.218   0.322  0.0618  0.1386 -0.2500
 2390W        W 6590   5.617   5.157   2.855  0.2241  0.1973  0.0453
 2391W        W 6591   8.618   4.592   2.739 -0.1712  0.0931 -0.1766
 2392W        W 6592   3.431   2.558  11.696  0.3263  0.1282  0.0418
 2393W        W 6593   4.033   7.058   9.112 -0.0498 -0.1315  0.1728
 2394W        W 6594   3.506   4.556   0.353  0.0286  0.1362 -0.2296
 2395W        W 6595   2.502  10.175  11.005 -0.1074 -0.1808 -0.1624
 2396W        W 6596   2.290   2.738  11.497  0.1377 -0.0975  0.0230
 2397W        W 6597   0.038   6.816   3.343  0.1570  0.3216  0.0012
 2398W        W 6598   6.973   4.866   2.897 -0.2601 -0.0300 -0.2305
 2399W        W 6599   2.590   5.386   1.684  0.1321  0.0836  0.0723
 2400W        W 6600   6.560   4.382  13.211 -0.1693 -0.4007 -0.4395
 2401W        W 6601   2.449   8.410   0.064 -0.1026  0.1719  0.1916
 2402W        W 6602   9.771   7.367  12.783 -0.1243  0.0557 -0.1698
 2403W        W 6603   3.474   2.716  12.175  0.1842 -0.0665 -0.1671
 2404W        W 6604   4.590  10.148   9.229 -0.2014 -0.0153 -0.3396
 2405W        W 6605   7.984   5.958   2.857 -0.1707 -0.1091  0.2764
 2406W        W 6606   4.567   7.060  12.364 -0.0760 -0.1518 -0.0985
 2407W        W 6607   0.629   7.997   2.032  0.3483 -0.0495  0.2297
 2408W        W 6608   3.300   9.773   4.549  0.0547  0.3826  0.1233
 2409W        W 6609   8.626   9.625   9.859  0.1521 -0.1584 -0.2640
 2410W        W 6610   4.723   4.258   4.616 -0.1233 -0.0016 -0.0584
 2411W        W 6611   1.116   1.824   1.625  0.5286 -0.2277  0.3346
 2412W        W 6612   4.505   6.917   0.018 -0.1940 -0.1204 -0.0170
 2413W        W 6613   1.788   7.259   8.675  0.3171 -0.0181  0.2461
 2414W        W 6614   0.744   2.665  12.291  0.0114  0.0332 -0.1139
 2415W        W 6615   5.593   9.412   1.446  0.1248 -0.0787 -0.1283
 2416W        W 6616   1.606   8.260  10.673 -0.2798 -0.1261  0.0506
 2417W        W 6617   5.845   9.855   4.648 -0.0084  0.1494  0.0572
 2418W        W 6618   7.174   4.856  11.795 -0.1455  0.0076 -0.2508
 2419W        W 6619   2.555   4.516   4.003 -0.4394  0.0283 -0.0070
 2420W        W 6620   0.666   0.583   9.829 -0.0158 -0.1323 -0.1953
 2421W        W 6621   0.463   9.171   9.658  0.0949  0.4281  0.2779
 2422W        W 6622   8.261   9.305  10.074  0.2216  0.2423  0.0816
 2423W        W 6623   4.374   2.923   3.634 -0.3434 -0.1325 -0.1240
 2424W        W 6624   4.055   2.317   9.052 -0.1427  0.1724  0.1583
 2425W        W 6625  10.428   1.238  11.225  0.2823  0.1700  0.4043
 2426W        W 6626   7.133   3.246   3.211  0.1066  0.1769  0.0262
 2427W        W 6627  10.101   2.698  11.981  0.1031 -0.1538 -0.0722
 2428W        W 6628   8.336   5.193   1.176  0.0644 -0.0148 -0.1278
 2429W        W 6629  10.475   7.007   1.570 -0.3131  0.2985 -0.2604
 2430W        W 6630   1.333   5.637   9.690 -0.3598  0.2569  0.0092
 2431W        W 6631   9.382  10.477   0.368 -0.3329  0.0605 -0.1822
 2432W        W 6632   1.094   7.002   3.852  0.0716 -0.1116  0.1371
 2433W        W 6633   9.498   9.907  11.730 -0.0621  0.0951 -0.0950
 2434W        W 6634   8.429   4.231   1.703 -0.2961 -0.1071 -0.1182
 2435W        W 6635   4.033  10.128  11.709 -0.2055  0.1236  0.1033
 2436W        W 6636   3.835   6.911  10.468  0.0526  0.4645 -0.1237
 2437W        W 6637   6.208   4.141   4.481 -0.1330 -0.1657 -0.2098
 2438W        W 6638   5.642   6.493  10.771 -0.2006 -0.1224  0.2716
 2439W        W 6639   3.569   8.173   3.397  0.2044 -0.0822 -0.2282
 2440W        W 6640   8.582   8.381   0.074  0.2418 -0.1153  0.1226
 2441W        W 6641   8.216   2.042   1.975 -0.1128  0.2374  0.0127
 2442W        W 6642   9.999   2.968  10.991  0.0143  0.1972  0.2237
 2443W        W 6643   0.364   3.741   2.487  0.0225  0.2569  0.5357
 2444W        W 6644   8.999   8.616  12.050 -0.1574  0.0790  0.0463
 2445W        W 6645   3.465   2.532   0.712 -0.3567  0.3182 -0.3653
 2446W        W 6646   9.249   0.953  10.480 -0.0796  0.0376 -0.2138
 2447W        W 6647   7.374   8.969  12.895 -0.0005  0.2254  0.1661
 2448W        W 6648   2.991   4.688   2.808 -0.2186  0.1670 -0.1468
 2449W        W 6649   8.918   9.269   1.513  0.0006  0.0623 -0.1471
 2450W        W 6650   3.071   0.199   3.394  0.1490 -0.1083  0.0352
 2451W        W 6651   3.057   3.433   1.944 -0.0887  0.1139 -0.0012
 2452W        W 6652   4.765   5.532   1.146 -0.0088 -0.3450 -0.0647
 2453W        W 6653   5.925   1.509   1.266 -0.0313 -0.1647 -0.2690
 2454W        W 6654   4.954   9.918   4.215  0.0364 -0.2292 -0.0317
 2455W        W 6655   6.610   8.806   1.479 -0.2951  0.2230  0.0190
 2456W        W 6656   6.388   4.778   4.121  0.1819 -0.1293  0.2188
 2457W        W 6657   5.887   9.634   2.391 -0.0725 -0.0083  0.0470
 2458W        W 6658   4.385   7.702   2.323  0.1246  0.2404 -0.0709
 2459W        W 6659   4.136   6.305  10.180  0.1022  0.1302 -0.1524
 2460W        W 6660   4.374   6.117   4.558  0.3222  0.0250 -0.1188
 2461W        W 6661   5.884   8.169   1.364 -0.1580 -0.3203  0.4684
 2462W        W 6662   8.402   3.970  12.675 -0.1134  0.1702 -0.0532
 2463W        W 6663   2.454   5.370   0.774  0.2322 -0.0551  0.1433
 2464W        W 6664   0.631   4.429  11.940 -0.1877  0.1989  0.1057
 2465W        W 6665   7.786   0.660  10.977 -0.1475  0.4338  0.2631
 2466W        W 6666   0.483   5.039  12.630 -0.2220 -0.1070 -0.2372
 2467W        W 6667   9.378   0.638  12.989 -0.0047 -0.3403 -0.0616
 2468W        W 6668   1.941   9.470   2.108  0.1415 -0.0687  0.0017
 2469W        W 6669   4.508   3.356   3.398  0.0944 -0.5037 -0.0207
 2470W        W 6670   5.506   2.832   0.985  0.0766  0.0405  0.0083
 2471W        W 6671   7.552   6.029   1.380 -0.0796  0.0890 -0.1918
 2472W        W 6672   3.519   6.570   0.796  0.2494 -0.0668 -0.1015
 2473W        W 6673   5.640   1.224  10.140 -0.1346  0.0287  0.1967
 2474W        W 6674   4.738   0.465  12.282 -0.0858 -0.0842 -0.1152
 2475W        W 6675   4.086   1.885   0.124 -0.4129  0.3010  0.3310
 2476W        W 6676   5.986  10.188   4.236  0.3456  0.0258  0.1848
 2477W        W 6677   2.684   9.538  12.161 -0.4375 -0.0150  0.0003
 2478W        W 6678   4.387   2.412   0.328 -0.0782  0.3075  0.0562
 2479W        W 6679   6.805  10.355   0.983 -0.2173 -0.0188  0.0108
 2480W        W 6680   4.355   7.104   1.427 -0.0892  0.0576  0.3204
 2481W        W 6681   8.481   1.328  13.144  0.1441 -0.0300  0.1040
 2482W        W 6682   6.191   7.332   8.638  0.0551  0.1769 -0.0455
 2483W        W 6683   4.980   1.723  12.140  0.1472  0.2638 -0.1982
 2484W        W 6684   8.868   6.295   2.851 -0.2619  0.1745 -0.1377
 2485W        W 6685   6.591   0.556   3.391 -0.0697  0.2245  0.1151
 2486W        W 6686   0.958   5.458   9.992 -0.0448 -0.1321  0.3510
 2487W        W 6687   0.737   2.599  12.928 -0.0321 -0.1558 -0.1732
 2488W        W 6688   5.420   5.481   5.227 -0.0645 -0.1037  0.0450
 2489W        W 6689   8.295   0.915  10.564 -0.0466 -0.0133  0.2182
 2490W        W 6690   7.508   2.081  12.342 -0.1453 -0.0817 -0.0654
 2491W        W 6691   0.437   1.881  12.408  0.0548  0.2703  0.2662
 2492W        W 6692   2.375   8.341  12.680  0.0653  0.3783  0.2976
 2493W        W 6693   4.247   3.689   4.912 -0.0865  0.0498  0.1034
 2494W        W 6694   8.423   2.144  12.668  0.4163 -0.2708  0.2233
 2495W        W 6695   5.851   8.103   0.829  0.0086 -0.0908 -0.1817
 2496W        W 6696   0.803   3.374  10.654  0.1658 -0.3886  0.2200
 2497W        W 6697   0.369   5.865   9.877  0.2832  0.1439 -0.0326
 2498W        W 6698   6.165   0.582   9.593  0.0481 -0.1417 -0.2951
 2499W        W 6699   4.423   9.385   0.361  0.0162  0.0716 -0.3310
 2500W        W 6700   6.108   9.403   0.638  0.0315 -0.1181  0.0720
 2501W        W 6701   1.773   9.395  12.037  0.0250  0.1054 -0.2363
 2502W        W 6702   6.428   5.227  12.717  0.0952  0.0033 -0.0713
 2503W        W 6703   0.626   6.610   0.945  0.0182  0.2614  0.1268
 2504W        W 6704   5.412   0.328   1.457  0.0935 -0.1972  0.2241
 2505W        W 6705   1.450   9.909   9.926  0.0255  0.3032 -0.0804
 2506W        W 6706   9.453   8.685   9.232 -0.2179  0.0353 -0.3093
 2507W        W 6707   4.626   1.339  10.087  0.1219 -0.2742 -0.0602
 2508W        W 6708   3.928   9.128   0.033 -0.1909  0.1700 -0.0401
 2509W        W 6709   9.492   0.822   0.007 -0.0500 -0.3310 -0.2847
 2510W        W 6710   5.244   8.275  11.814 -0.0155  0.0006 -0.1982
 2511W        W 6711  10.262   5.220   3.142 -0.4335 -0.2049 -0.1693
 2512W        W 6712   2.904   3.287   9.448 -0.2037 -0.0225 -0.1372
 2513W        W 6713   6.281   7.726   0.123  0.1685 -0.1980 -0.3524
 2514W        W 6714   6.533   5.232   1.828 -0.0167  0.1497  0.1698
 2515W        W 6715   0.166   0.661  13.275  0.0952 -0.0235 -0.1276
 2516W        W 6716   6.598  10.297   2.232 -0.1021 -0.0358 -0.0576
 2517W        W 6717   7.342   4.452  13.313  0.2485  0.1272 -0.0100
 2518W        W 6718   9.416   3.061   1.587 -0.1487  0.2563 -0.2860
 2519W        W 6719  10.285   2.438   2.099  0.1017 -0.4299  0.0714
 2520W        W 6720   9.463   9.733   9.342  0.1714 -0.0302  0.0522
 2521W        W 6721   0.402   3.171   3.751  0.0944 -0.0672  0.3005
 2522W        W 6722   5.817   4.419   8.852  0.2529 -0.0332  0.0347
 2523W        W 6723   3.070   4.333   3.699 -0.0406 -0.1255 -0.1685
 2524W        W 6724  10.161   3.690  10.640  0.3512  0.0016 -0.3524
 2525W        W 6725   4.171   1.284   0.679 -0.3484  0.1726  0.1282
 2526W        W 6726   0.817   4.061   1.335 -0.0472  0.1147  0.2797
 2527W        W 6727   9.018   7.553   8.660 -0.3989 -0.1573  0.0562
 2528W        W 6728   9.152   4.862  11.858 -0.0751  0.1547  0.0252
 2529W        W 6729   1.649   4.651  10.941  0.1144 -0.3587 -0.2118
 2530W        W 6730   5.644   3.613   2.420 -0.0312 -0.0236  0.1894
 2531W        W 6731   5.428   9.473   3.863 -0.1757 -0.2650  0.1349
 2532W        W 6732   0.977   0.189   9.755 -0.3361  0.1098  0.0399
 2533W        W 6733   0.103   7.271   3.180 -0.4551  0.0784 -0.2398
 2534W        W 6734   6.244   1.903   2.107  0.1844 -0.0039  0.1962
 2535W        W 6735   8.663   6.080   1.521 -0.0463 -0.0363  0.3318
 2536W        W 6736   8.592  10.183   3.363 -0.0574 -0.3610  0.0942
 2537W        W 6737   9.588   2.979   1.018  0.2026  0.2004  0.0348
 2538W        W 6738   3.214   0.097   1.574  0.2477  0.0255 -0.0873
 2539W        W 6739   7.254   6.823   0.456 -0.2417  0.1999 -0.0853
 2540W        W 6740   4.447   4.026   1.059  0.0072  0.1959 -0.1526
 2541W        W 6741   0.492   4.504  11.070 -0.0939  0.0140  0.1774
 2542W        W 6742   7.533   6.249   2.177  0.1695  0.0292 -0.0108
 2543W        W 6743   1.718   9.688   3.758  0.0636 -0.0156  0.0986
 2544W        W 6744   1.531   0.889   0.698 -0.1274  0.1523 -0.0417
 2545W        W 6745   1.470   8.023  12.127 -0.0497 -0.0402  0.1005
 2546W        W 6746  10.277   6.363   2.149 -0.2829  0.0486 -0.0016
 2547W        W 6747   4.838   1.790   1.507  0.1413  0.0401  0.1861
 2548W        W 6748   5.337   3.325   2.982  0.4732  0.2273  0.0354
 2549W        W 6749   8.191   1.382  10.323 -0.0987  0.0555 -0.3795
 2550W        W 6750   3.528   5.374   0.321 -0.4024  0.0710  0.0689
 2551W        W 6751  10.412   0.224   1.338  0.0455 -0.0228  0.2167
 2552W        W 6752   7.807   5.145  11.202  0.0089  0.0131 -0.2392
 2553W        W 6753   3.073   7.431   9.360 -0.0013  0.4217  0.1975
 2554W        W 6754   3.156   0.838   2.172  0.0215 -0.1995  0.0418
 2555W        W 6755   8.345   5.223   3.227  0.1919  0.1516  0.2245
 2556W        W 6756   4.434   1.080   0.285  0.1369 -0.0766  0.0432
 2557W        W 6757   3.453   4.008   3.823 -0.0198 -0.2528  0.2656
 2558W        W 6758  10.114   7.630  12.459  0.1854  0.1312  0.2166
 2559W        W 6759   3.129   3.259   0.543 -0.3399 -0.0114 -0.2603
 2560W        W 6760   4.798   8.210  12.332 -0.0648 -0.4830  0.0672
 2561W        W 6761   8.107   5.319   0.234  0.2800  0.3382 -0.1582
 2562W        W 6762   4.507   5.047  11.679  0.1530  0.0649  0.5721
 2563W        W 6763   7.388   4.820   1.222 -0.2211  0.0529 -0.1825
 2564W        W 6764   7.955   7.939  10.162  0.1289  0.0079 -0.0995
 2565W        W 6765   3.140  10.362  10.050 -0.0078 -0.0992 -0.2435
 2566W        W 6766   0.353   4.267  11.554 -0.0418 -0.0868 -0.0677
 2567W        W 6767   5.848   3.923  11.249 -0.0736  0.0201 -0.0209
 2568W        W 6768   1.488   9.917  12.834  0.0745 -0.1217 -0.3383
 2569W        W 6769   0.743   3.095   2.012  0.2004 -0.1083 -0.1794
 2570W        W 6770   0.145   3.433  12.554 -0.2419  0.0738 -0.0898
 2571W        W 6771   3.962   9.073   9.199 -0.0021 -0.3891  0.2544
 2572W        W 6772   8.512   1.195  11.451  0.0331  0.1177  0.0129
 2573W        W 6773   2.875  10.051   4.376 -0.2163  0.1658 -0.1187
 2574W        W 6774   4.788   6.606  11.758 -0.0292  0.2571  0.0801
 2575W        W 6775   3.619   0.727  12.423  0.0170  0.1548  0.0060
 2576W        W 6776  10.332   3.791  11.133 -0.1329  0.1603  0.2898
 2577W        W 6777   9.061   8.050   4.617  0.1067  0.1891 -0.2291
 2578W        W 6778   7.333   5.391  11.232  0.0783 -0.2185  0.1475
 2579W        W 6779   2.688   1.523   4.231  0.0245  0.1471 -0.1669
 2580W        W 6780   4.715   6.554   3.614 -0.0689 -0.2102 -0.2030
 2581W        W 6781   4.257   2.545   1.280 -0.1689 -0.2670  0.0780
 2582W        W 6782   0.322   9.365   3.569 -0.0117 -0.1153  0.1651
 2583W        W 6783   1.251   1.605   9.640 -0.0772 -0.5024  0.2117
 2584W        W 6784   4.000   7.878   3.938 -0.0212 -0.0355  0.1054
 2585W        W 6785   5.860   6.034   9.757  0.3787  0.0185 -0.0613
 2586W        W 6786   0.371   0.560   1.482  0.1709 -0.1058 -0.0219
 2587W        W 6787   7.433   8.053  11.587 -0.4674  0.0805 -0.0159
 2588W        W 6788   0.200   2.413   1.183 -0.2319  0.0211 -0.2378
 2589W        W 6789   2.329   2.576  10.508 -0.1800  0.1157 -0.0782
 2590W        W 6790   4.163   4.059   1.447  0.0152 -0.0776 -0.0733
 2591W        W 6791   7.442   3.267   0.815  0.0487  0.0230 -0.3251
 2592W        W 6792   2.793   6.612  12.216 -0.0291 -0.2047  0.2418
 2593W        W 6793   4.164   7.843  10.459  0.5011 -0.0504  0.1667
 2594W        W 6794   8.532   5.544   2.242  0.0022  0.1483 -0.2990
 2595W        W 6795   0.587   1.634  10.986 -0.4159 -0.2058 -0.2411
 2596W        W 6796   6.004   8.363   4.284 -0.0501  0.0373 -0.1132
 2597W        W 6797   9.127   0.569  12.085  0.1741  0.2080 -0.2087
 2598W        W 6798   6.776   1.938   1.050 -0.4126  0.1419 -0.1981
 2599W        W 6799   5.221   1.590  11.383 -0.0200  0.0577  0.1564
 2600W        W 6800   6.289   2.763  10.439  0.1610 -0.1190  0.1920
 2601W        W 6801   4.942   0.425   1.685  0.1890 -0.2461 -0.3219
 2602W        W 6802   3.232   5.593   3.005  0.1529 -0.2465 -0.3270
 2603W        W 6803   6.622   9.790   5.197  0.2645  0.0868 -0.0042
 2604W        W 6804   7.481   1.946   3.926 -0.0347  0.0621  0.0012
 2605W        W 6805   7.870   7.391  10.475  0.3317  0.2163  0.1399
 2606W        W 6806   9.506   3.224  10.876 -0.2500 -0.0674 -0.4791
 2607W        W 6807   1.761   0.052   8.299  0.1619 -0.0850  0.2031
 2608W        W 6808   9.986   6.758   3.375 -0.3017  0.0712 -0.1248
 2609W        W 6809   5.959   4.554   3.721 -0.1853 -0.5182  0.0355
 2610W        W 6810   1.612  10.474   3.897 -0.3361  0.0760 -0.2695
 2611W        W 6811   4.144   9.696   1.677 -0.1745 -0.0693 -0.1453
 2612W        W 6812   5.900   5.032   0.034  0.0669  0.0225  0.3299
 2613W        W 6813   4.259   9.582  10.763 -0.0900  0.1238 -0.4810
 2614W        W 6814   2.667   1.661  10.233 -0.2843 -0.0465  0.1638
 2615W        W 6815   0.673   3.906  11.789 -0.1697  0.1798 -0.0778
 2616W        W 6816   3.394   9.916  13.182  0.0196  0.0175 -0.2173
 2617W        W 6817   4.709   3.734  12.670  0.0937 -0.1231 -0.2027
 2618W        W 6818   4.834   2.749   9.323  0.0351 -0.1832  0.1270
 2619W        W 6819   3.883   0.610   4.505  0.0201  0.1514 -0.1204
 2620W        W 6820   7.061  10.310   4.701  0.1273 -0.1203 -0.0697
 2621W        W 6821   2.310   5.467  12.964 -0.1632 -0.1110 -0.3072
 2622W        W 6822   3.378   4.396  11.471 -0.1766  0.2374  0.3412
 2623W        W 6823   2.138   1.309  13.319 -0.1690 -0.1692  0.1721
 2624W        W 6824   7.255   8.681   4.505  0.0124  0.2343 -0.1165
 2625W        W 6825   8.320  10.418   3.756 -0.4472 -0.0529  0.2497
 2626W        W 6826   5.246   0.806   8.313  0.1449  0.2258 -0.2439
 2627W        W 6827   7.462   0.868  11.260  0.3484  0.0968 -0.3127
 2628W        W 6828   2.127   1.613   2.703  0.1633 -0.3680 -0.2723
 2629W        W 6829   2.204   8.357   8.262  0.1197 -0.2474  0.2490
 2630W        W 6830   7.937   4.895   2.507  0.0815 -0.1751  0.2053
 2631W        W 6831   3.861   7.461  11.057  0.1731  0.2213 -0.0633
 2632W        W 6832   4.656   0.328   2.144 -0.0285  0.0750 -0.0752
 2633W        W 6833   3.716   4.595  10.002  0.2382  0.0658  0.0015
 2634W        W 6834   1.362  10.058   4.014 -0.1473  0.0289  0.0133
 2635W        W 6835   3.845   5.873   0.323 -0.1287 -0.1805 -0.0485
 2636W        W 6836   7.788   2.718  10.745 -0.1671  0.2945 -0.0514
 2637W        W 6837   6.677   5.993   8.678  0.2285 -0.1733  0.3878
 2638W        W 6838   5.849   9.945   3.812  0.1398  0.1934 -0.0705
 2639W        W 6839   4.195   4.713   3.377 -0.1885  0.3224 -0.0837
 2640W        W 6840   4.414   4.631  12.442 -0.0699 -0.2431  0.1302
 2641W        W 6841   1.708   1.105  12.110  0.3556  0.3097 -0.0263
 2642W        W 6842   3.300   4.797   9.329  0.1942 -0.2203 -0.0068
 2643W        W 6843   5.289   8.913  12.357 -0.0480 -0.0711  0.0908
 2644W        W 6844  10.370   4.156   1.564  0.4687 -0.1703 -0.0134
 2645W        W 6845   1.630   8.478  12.382  0.3863 -0.2287  0.0557
 2646W        W 6846   0.431   1.954  11.727 -0.2282 -0.1810  0.0961
 2647W        W 6847   4.170   5.578  12.997 -0.0552  0.0207  0.0884
 2648W        W 6848   9.726   7.808  12.084 -0.0927 -0.0609 -0.0626
 2649W        W 6849   9.759   2.190   0.300 -0.0549  0.2750  0.1026
 2650W        W 6850   9.651   3.399  12.364 -0.0429  0.1687  0.0535
 2651W        W 6851   4.997   1.809  10.224  0.0462 -0.4801 -0.1888
 2652W        W 6852   2.785   1.542  11.221  0.2694 -0.1647  0.0095
 2653W        W 6853   0.104   7.472  12.283  0.0689 -0.1442 -0.3386
 2654W        W 6854   7.695   9.848   3.707  0.0083  0.2047 -0.1683
 2655W        W 6855   3.259   4.563   9.750 -0.4126  0.0175  0.1277
 2656W        W 6856   1.006   5.961   4.529  0.1510 -0.3828 -0.3331
 2657W        W 6857   8.933   0.193   3.441 -0.0748 -0.2821 -0.3105
 2658W        W 6858   0.848   2.666  10.258 -0.2099  0.2746 -0.3044
 2659W        W 6859   0.764   1.263  13.144  0.1761  0.0282  0.1262
 2660W        W 6860   7.487   3.252  12.376 -0.3575  0.0595 -0.2114
 2661W        W 6861   2.298   3.151   0.436  0.2175 -0.0981 -0.0743
 2662W        W 6862   5.016   8.775   9.739 -0.1615 -0.2323 -0.0290
 2663W        W 6863   1.213   0.232   9.118  0.0095  0.1399  0.3751
 2664W        W 6864   4.953   0.482  12.756  0.1156  0.3525  0.0093
 2665W        W 6865   3.360   3.362  10.463 -0.3262 -0.3105  0.1735
 2666W        W 6866   2.670   2.205  12.516 -0.0619 -0.2783 -0.0570
 2667W        W 6867   0.271   9.531  11.367 -0.2097  0.2573 -0.1566
 2668W        W 6868   5.530   3.625   4.113  0.1817 -0.1122 -0.0661
 2669W        W 6869   5.525  10.121  11.686  0.1651 -0.1855 -0.2029
 2670W        W 6870   9.888   7.827   1.124 -0.0054 -0.1279  0.1659
 2671W        W 6871   1.371   6.560   9.297  0.2391 -0.0448 -0.1383
 2672W        W 6872   6.328   7.202   1.641  0.2420 -0.0063 -0.0486
 2673W        W 6873   2.571   3.323   1.982 -0.2428  0.0886 -0.0196
 2674W        W 6874   2.141   9.097   2.434  0.3933 -0.0115 -0.0593
 2675W        W 6875   2.532   4.000   3.234 -0.0590 -0.1193  0.0818
 2676W        W 6876   9.363   6.880  12.166  0.1230  0.0325 -0.0041
 2677W        W 6877   5.330   7.872  10.475  0.0637 -0.2346 -0.0074
 2678W        W 6878   7.005   6.162  13.017  0.1314  0.2501  0.1745
 2679W        W 6879   0.652   5.549   0.376 -0.1221  0.1520 -0.2209
 2680W        W 6880   0.025   6.737   8.324 -0.0839 -0.0045 -0.0046
 2681W        W 6881   7.719   4.799  11.617 -0.1855  0.0077 -0.0721
 2682W        W 6882   8.967   1.404  12.737  0.0765  0.2630 -0.0068
 2683W        W 6883   3.504   1.082  10.521  0.0670 -0.2494  0.0748
 2684W        W 6884   8.977   8.004  13.213 -0.0995  0.0840  0.1929
 2685W        W 6885   2.744   8.090  10.964 -0.3413 -0.1074  0.1786
 2686W        W 6886   1.426   8.016  11.625  0.0225 -0.0477  0.0952
 2687W        W 6887   8.176   3.502  11.680 -0.2876 -0.0189  0.0481
 2688W        W 6888   5.596   8.656  11.991  0.0826 -0.1796 -0.0491
 2689W        W 6889   1.313   0.775   1.863 -0.2901 -0.1959 -0.0306
 2690W        W 6890   5.099   6.910   4.478  0.1290 -0.1565 -0.1298
 2691W        W 6891   6.029   0.298   4.908  0.1170 -0.1869 -0.2936
 2692W        W 6892   2.564   3.061  11.886 -0.0369  0.2539 -0.0613
 2693W        W 6893   0.658   0.777   1.895 -0.3519  0.2207 -0.1068
 2694W        W 6894   1.055  10.068  10.578 -0.0712 -0.1860  0.1621
 2695W        W 6895   0.178   8.280   3.449 -0.4046  0.2554 -0.3812
 2696W        W 6896   6.585   5.823   0.394 -0.0673 -0.1441  0.2556
 2697W        W 6897   8.603   2.407   1.919  0.1435 -0.2952 -0.2881
 2698W        W 6898   0.584   8.527   0.882 -0.1812  0.2823 -0.3464
 2699W        W 6899   4.040   1.333   3.876 -0.4658 -0.1116  0.4022
 2700W        W 6900   3.014   4.616   4.156 -0.0074 -0.1336  0.1326
 2701W        W 6901   4.281   5.374   9.640  0.0082 -0.0460 -0.1605
 2702W        W 6902   1.530   2.057   3.358  0.1067 -0.2762  0.0570
 2703W        W 6903   5.468   4.393   3.509  0.0191  0.1645 -0.0755
 2704W        W 6904   4.520   1.995   4.841 -0.0215  0.2417  0.0095
 2705W        W 6905   5.080   5.927  12.749  0.1766  0.1097 -0.0728
 2706W        W 6906   5.143   7.848   4.340 -0.1298 -0.0972  0.2355
 2707W        W 6907   4.035   2.454   4.324  0.0032 -0.0773 -0.2988
 2708W        W 6908   1.108   4.296   9.513 -0.0825  0.1323 -0.1586
 2709W        W 6909   5.562   7.937   8.869 -0.3256 -0.1931 -0.2602
 2710W        W 6910   2.837   0.279   1.904  0.0206  0.0120 -0.0032
 2711W        W 6911   4.809   3.586   9.956 -0.0226 -0.0416 -0.2695
 2712W        W 6912   0.997   6.439  12.764 -0.1643 -0.0142 -0.0617
 2713W        W 6913   5.613   9.961   9.894  0.0432 -0.3078  0.4468
 2714W        W 6914   4.811   3.375   2.927 -0.3350  0.1455 -0.1104
 2715W        W 6915   1.997   3.673  12.366 -0.2627 -0.0111  0.0972
 2716W        W 6916   2.744   1.137  10.789 -0.2346  0.0551 -0.2588
 2717W        W 6917   4.475   4.747  12.915  0.0290 -0.0129 -0.0518
 2718W        W 6918   8.096   5.791  10.175 -0.0585 -0.2618  0.0027
 2719W        W 6919   9.395   1.854   0.120 -0.1296 -0.0553  0.0419
 2720W        W 6920   0.859   4.860   1.765 -0.1253  0.3189 -0.0172
 2721W        W 6921   5.580   9.554  11.722 -0.2028 -0.3389  0.0515
 2722W        W 6922   2.201   2.830   9.625 -0.0706 -0.4207  0.0819
 2723W        W 6923   5.037   3.353  12.818  0.3712  0.0599  0.1521
 2724W        W 6924   9.897   6.046   0.881  0.0263  0.0822  0.0657
 2725W        W 6925   6.158   1.651   3.811  0.1568 -0.0986  0.0213
 2726W        W 6926   7.114   7.041  12.888 -0.0427 -0.0026  0.0298
 2727W        W 6927   2.403   9.272   9.268 -0.1648 -0.1498 -0.3330
 2728W        W 6928   5.223   5.329   2.144  0.1091  0.0114  0.0724
 2729W        W 6929   0.830   5.586   2.270  0.0696 -0.0041  0.3185
 2730W        W 6930   2.349   9.942  12.411  0.2925 -0.1747  0.1060
 2731W        W 6931   5.779   7.727   1.938  0.1699  0.0517  0.2466
 2732W        W 6932   1.209   9.517   1.406  0.2545  0.1910  0.0031
 2733W        W 6933   1.125   4.818  10.780  0.3500  0.0789 -0.3330
 2734W        W 6934   0.351   2.803  10.208  0.1010  0.0189 -0.1916
 2735W        W 6935   4.616   2.236  10.390  0.1864  0.3217  0.0906
 2736W        W 6936   5.348   8.385   9.921 -0.1205 -0.2153 -0.0157
 2737W        W 6937   9.299   7.480  13.046  0.0624  0.2570 -0.2960
 2738W        W 6938   4.128   3.449  12.739 -0.1433 -0.0349  0.0729
 2739W        W 6939   5.326   2.418  11.799 -0.0542  0.1041 -0.1531
 2740W        W 6940   2.620   0.964   0.450  0.1314  0.6375  0.1581
 2741W        W 6941   2.296   4.987   3.885  0.3799  0.1714  0.0541
 2742W        W 6942   8.196   3.135   2.162 -0.0360  0.0696 -0.1374
 2743W        W 6943   3.192   8.965  10.034 -0.2049  0.0034 -0.0487
 2744W        W 6944   7.759   6.921  11.208  0.1069  0.3344  0.0427
 2745W        W 6945   1.825   6.521   2.013 -0.0334 -0.3567  0.0671
 2746W        W 6946   5.209   5.551  13.117  0.0255 -0.0816 -0.0716
 2747W        W 6947   3.196   7.388   9.860 -0.0289  0.0448 -0.1864
 2748W        W 6948   7.275   9.401  12.031 -0.0121 -0.3845 -0.1361
 2749W        W 6949   5.094   6.470   2.612  0.1159  0.1302 -0.1134
 2750W        W 6950  10.305   1.545   0.404  0.0174 -0.2353  0.1909
 2751W        W 6951   6.216   6.218   2.553  0.1560  0.1287  0.1119
 2752W        W 6952   0.132   4.059  10.607 -0.1318  0.0910  0.2219
 2753W        W 6953   9.197   7.957  10.908  0.2608 -0.3315 -0.1882
 2754W        W 6954   4.673   0.021  12.082 -0.1863 -0.0938  0.0810
 2755W        W 6955   1.756   5.230   4.076  0.0507 -0.2200 -0.1175
 2756W        W 6956   0.131   9.033  11.440 -0.1130  0.0199 -0.1774
 2757W        W 6957   2.603   5.554   3.345 -0.0451 -0.2029 -0.2005
 2758W        W 6958   3.439   9.021   2.884 -0.1937  0.4096 -0.0444
 2759W        W 6959   0.051   4.322  11.052 -0.1158  0.0251  0.5758
 2760W        W 6960   8.407   2.881   1.797 -0.1549 -0.0003 -0.0598
 2761W        W 6961   4.260   7.548   3.284 -0.2611  0.1260 -0.0404
 2762W        W 6962   8.429   7.342   0.871 -0.0254 -0.2620  0.3232
 2763W        W 6963   0.096   2.889   0.600  0.0333  0.1580  0.0810
 2764W        W 6964   6.034   9.042   9.833  0.1464 -0.1261 -0.1489
 2765W        W 6965   5.821   8.687  10.751  0.0637  0.1273  0.1741
 2766W        W 6966   1.945   1.348   1.534 -0.0890 -0.3124 -0.1678
 2767W        W 6967   8.779  10.121   2.287 -0.1099 -0.1778  0.1524
 2768W        W 6968   6.873   3.350   0.756  0.0161  0.0058 -0.1237
 2769W        W 6969   4.855   5.553   0.663 -0.3644 -0.2241 -0.0304
 2770W        W 6970   3.601   5.036   1.117 -0.0626 -0.0324 -0.0785
 2771W        W 6971   6.007   2.347  12.871 -0.0714  0.1412  0.0534
 2772W        W 6972   5.867   2.074  11.172  0.1217  0.1736  0.0167
 2773W        W 6973   5.397   9.509   2.281 -0.2562  0.0702  0.0621
 2774W        W 6974   1.452   6.258   2.924  0.1392 -0.4594 -0.1710
 2775W        W 6975   3.820   8.597   9.219  0.0299 -0.0255  0.0684
 2776W        W 6976  10.138   9.125  12.626  0.2064  0.0921 -0.1479
 2777W        W 6977   4.916   8.143   3.442  0.1670  0.4106 -0.4630
 2778W        W 6978   5.904   2.608   3.209 -0.0416  0.0001  0.1977
 2779W        W 6979   4.024   1.867  10.662 -0.1435  0.1692  0.2549
 2780W        W 6980   4.434   9.100   2.209 -0.2535 -0.3169  0.2234
 2781W        W 6981   9.655   7.141   3.651 -0.1456 -0.1801  0.1666
 2782W        W 6982   7.967   4.817   3.344  0.0813  0.1847  0.2399
 2783W        W 6983   4.615   2.528   3.471  0.1864 -0.2363 -0.1569
 2784W        W 6984   6.339   7.377  10.822  0.0894 -0.0691  0.1328
 2785W        W 6985   9.460   8.053  11.403  0.2232  0.2560  0.3573
 2786W        W 6986   8.372   0.712  11.370 -0.0744 -0.3231 -0.1248
 2787W        W 6987   0.257   9.883   4.092  0.1552 -0.1445  0.1144
 2788W        W 6988   8.877   8.814  11.381  0.5265 -0.2128  0.1015
 2789W        W 6989   8.485   9.246   2.439 -0.0529 -0.1242 -0.1388
 2790W        W 6990   4.303   2.200   0.915  0.2295 -0.0662  0.0464
 2791W        W 6991   1.586   5.969  12.246 -0.1841 -0.1141 -0.1184
 2792W        W 6992   6.725   4.643   1.922  0.1759 -0.1258 -0.3322
 2793W        W 6993   7.866   1.679   2.100 -0.0702  0.0875  0.0478
 2794W        W 6994   0.597   3.832   2.041 -0.2760  0.0117  0.1748
 2795W        W 6995   9.962   5.365  11.862  0.3029 -0.1070 -0.0630
 2796W        W 6996   9.298   1.839  10.812  0.2891  0.0433  0.1203
 2797W        W 6997   9.131   0.531   2.606  0.1334 -0.0123 -0.1426
 2798W        W 6998   4.597   6.865   1.769  0.3695 -0.0809  0.1513
 2799W        W 6999   4.035   6.126  12.879  0.0527  0.0829 -0.1681
 2800W        W 7000   5.838   2.146  13.302  0.1095  0.0161  0.0086
 2801W        W 7001   1.737   0.604  11.775  0.0257 -0.0435  0.1318
 2802W        W 7002  10.269   7.886   1.724  0.2665  0.3090  0.0486
 2803W        W 7003   8.575   4.553  10.209 -0.1884  0.0051  0.6607
 2804W        W 7004   6.636   6.238   3.934 -0.1681  0.2515  0.4870
 2805W        W 7005   6.995   0.712  11.100  0.1172  0.0201 -0.0750
 2806W        W 7006   0.981   9.731   1.833 -0.4167 -0.0972  0.1722
 2807W        W 7007   1.564   4.324  12.901  0.0556  0.3205 -0.1243
 2808W        W 7008   3.644   9.564  11.053 -0.0070 -0.0080  0.1546
 2809W        W 7009   0.195  10.248  11.542  0.2577  0.0742 -0.1035
 2810W        W 7010   8.800   5.127   1.455  0.0345  0.2842  0.2662
 2811W        W 7011   0.334   4.226   1.148 -0.1262  0.1010  0.1618
 2812W        W 7012   7.251   2.297  11.575 -0.1487  0.3640  0.0785
 2813W        W 7013   7.080   7.236   5.120  0.2964 -0.2839 -0.1571
 2814W        W 7014   9.691   0.135   9.622  0.0321  0.0456 -0.0960
 2815W        W 7015   7.058   2.996   1.008 -0.1759 -0.0548 -0.1080
 2816W        W 7016   3.742   2.633   0.271  0.1510 -0.1033  0.0675
 2817W        W 7017   8.508   6.911  12.148 -0.1979  0.0675  0.0423
 2818W        W 7018   4.841   8.229  13.319 -0.0010 -0.0983  0.2314
 2819W        W 7019   1.522   6.810   5.509 -0.1031  0.0594  0.1588
 2820W        W 7020   6.295   4.451   8.673  0.0129  0.0817 -0.1146
 2821W        W 7021   7.263   4.890  11.295 -0.0114 -0.2925  0.1710
 2822W        W 7022   0.531   3.562   0.447 -0.0225 -0.2622 -0.1454
 2823W        W 7023   3.893   8.394  12.292  0.0417 -0.0560  0.0987
 2824W        W 7024   1.820   2.947  11.431 -0.1188  0.1777  0.1057
 2825W        W 7025   4.047   7.726  12.534  0.2065  0.2956  0.3272
 2826W        W 7026  10.274   6.181   2.653 -0.1570 -0.0886 -0.1754
 2827W        W 7027   8.164   0.394  12.425  0.0033  0.0783  0.3209
 2828W        W 7028   2.677   2.958   3.028 -0.1452 -0.0168 -0.1867
 2829W        W 7029   7.646   4.247  10.729  0.1375  0.2040 -0.1473
 2830W        W 7030   9.151   1.620  11.970 -0.1331  0.1001  0.1383
 2831W        W 7031   1.587   2.679   4.234 -0.1913 -0.0935 -0.1670
 2832W        W 7032   3.389   7.007   2.892 -0.0676  0.2617  0.2680
 2833W        W 7033   5.128   5.091   9.546 -0.0267 -0.1320  0.1225
 2834W        W 7034   5.593   8.038   4.578  0.2635 -0.2325  0.1039
 2835W        W 7035   7.310   1.026  10.317  0.2811  0.1721 -0.2264
 2836W        W 7036   6.394   4.834   9.883  0.3283 -0.2363 -0.0113
 2837W        W 7037   6.721   9.432  10.784  0.0033  0.1587 -0.3334
 2838W        W 7038   9.451   8.814   4.300  0.2678  0.0563 -0.2583
 2839W        W 7039   0.380   1.519   0.997  0.3223  0.1398 -0.3417
 2840W        W 7040   0.817   1.643  12.823 -0.1246 -0.0063 -0.1410
 2841W        W 7041   3.948   8.062   0.120  0.2413  0.3668  0.2082
 2842W        W 7042   7.829   1.613   2.992  0.0569 -0.3258  0.1478
 2843W        W 7043   9.730   8.177  10.939  0.4390  0.0553 -0.4323
 2844W        W 7044   3.297   0.321   0.216 -0.1076 -0.3019  0.0966
 2845W        W 7045   1.989   0.026   1.709  0.3589 -0.0206 -0.0227
 2846W        W 7046   0.362  10.024   0.187 -0.0059  0.0238  0.0853
 2847W        W 7047   2.393   1.921  11.059 -0.2299 -0.0337  0.3104
 2848W        W 7048   4.987   7.073   1.594 -0.0964  0.0597 -0.0146
 2849W        W 7049   9.939   5.607  12.347 -0.1059 -0.3694 -0.1433
 2850W        W 7050   4.815   1.590   3.469  0.1421  0.2428  0.0784
 2851W        W 7051   5.092   0.457   3.493 -0.0845 -0.3563 -0.1141
 2852W        W 7052   9.904   1.514   0.899  0.3589 -0.0349 -0.1810
 2853W        W 7053  10.299   0.283   0.134 -0.0477  0.1028  0.0232
 2854W        W 7054   2.684   2.876  10.968  0.0903  0.0209 -0.0289
 2855W        W 7055   1.164   9.947   1.015 -0.3189  0.1770 -0.1529
 2856W        W 7056   1.308   5.216  13.125 -0.0797 -0.0254  0.3111
 2857W        W 7057   3.801   1.895   9.749  0.0710 -0.0374  0.2921
 2858W        W 7058   4.461   8.667  11.676 -0.1438  0.0480 -0.3337
 2859W        W 7059   6.399   5.813  10.556  0.1453  0.2825 -0.0922
 2860W        W 7060   2.145   0.748   2.245  0.2284 -0.0774  0.3970
 2861W        W 7061   2.887   0.430   2.454 -0.1562 -0.1527 -0.0341
 2862W        W 7062   6.790   9.455   0.378  0.4903 -0.0975  0.0052
 2863W        W 7063   8.002   0.136  11.088 -0.2207 -0.0249  0.0562
 2864W        W 7064   6.508   3.327   3.930  0.4596  0.0210 -0.1110
 2865W        W 7065   0.174   5.799   4.218 -0.1448 -0.0565  0.1910
 2866W        W 7066   8.565   8.416  11.209  0.1166  0.2903 -0.0277
 2867W        W 7067   8.175   3.331  11.237 -0.0186  0.0503 -0.2046
 2868W        W 7068   3.173   9.418  11.837  0.1104 -0.1001 -0.3968
 2869W        W 7069   2.558   9.855   1.706  0.0218 -0.1508 -0.3803
 2870W        W 7070   4.966   3.798   9.541  0.1652  0.1259 -0.1624
 2871W        W 7071   4.768   7.900   9.432  0.0275  0.3532  0.0979
 2872W        W 7072   4.613   5.926   9.475  0.0122 -0.0597  0.3433
 2873W        W 7073   6.613   1.281   4.567  0.0474  0.1055 -0.2672
 2874W        W 7074   1.113   5.880   1.565  0.1303  0.3188  0.0233
 2875W        W 7075   2.983   5.827  11.255  0.2822 -0.0600  0.1446
 2876W        W 7076   4.179   8.427   3.845 -0.2678  0.0207 -0.2274
 2877W        W 7077   8.452   4.840   9.789 -0.0147 -0.0684  0.0876
 2878W        W 7078   7.026   6.213  12.180 -0.0732  0.2821  0.0644
 2879W        W 7079   0.804   4.801   0.900 -0.2675 -0.1628  0.3388
 2880W        W 7080   8.861   8.131  12.670 -0.0280  0.2040 -0.0742
 2881W        W 7081   7.433   6.154   8.996 -0.0452  0.0384  0.0406
 2882W        W 7082   6.307   6.688   0.302 -0.1630  0.3187 -0.2026
 2883W        W 7083   0.533   8.921  10.156 -0.0897 -0.1562  0.1310
 2884W        W 7084   0.275   5.327   0.120 -0.2413 -0.2162  0.2088
 2885W        W 7085   4.567   6.278   9.892  0.1583  0.2456 -0.0705
 2886W        W 7086   3.561   9.892   3.066 -0.2025 -0.0172  0.1218
 2887W        W 7087   8.828   0.883  11.792  0.0623 -0.0200 -0.1467
 2888W        W 7088   5.964   5.543   0.001  0.2661 -0.0097 -0.0300
 2889W        W 7089   9.063   7.129   0.482 -0.2985  0.0873 -0.2592
 2890W        W 7090   0.752   9.081   3.288  0.3395  0.0046 -0.0553
 2891W        W 7091  10.126   6.358  12.926  0.0548  0.2064  0.0754
 2892W        W 7092   1.660   4.713   4.073  0.0841  0.0886 -0.3022
 2893W        W 7093   7.202   5.918   8.485 -0.1192  0.2159 -0.2326
 2894W        W 7094   0.339   5.560   2.429 -0.1041 -0.1204 -0.2105
 2895W        W 7095   0.951   9.207  10.970  0.1677 -0.1652 -0.2028
 2896W        W 7096   4.326   1.580   1.591 -0.1288 -0.1771  0.0189
 2897W        W 7097   7.182   4.367  12.281 -0.2552  0.0549 -0.2026
 2898W        W 7098   8.420   3.470  10.353 -0.0039 -0.2382 -0.2716
 2899W        W 7099   3.484   5.374   9.426 -0.2915 -0.1205  0.2047
 2900W        W 7100   8.765   1.627  12.349  0.0338  0.2724  0.2006
 2901W        W 7101   1.618   0.765   9.939  0.1181 -0.1918  0.2468
 2902W        W 7102   4.788   5.563   0.003 -0.0791  0.0040  0.3205
 2903W        W 7103   0.865   6.760  12.314 -0.1112  0.1297 -0.0570
 2904W        W 7104   1.426   9.283  12.998 -0.0934  0.0483 -0.0072
 2905W        W 7105   3.535   0.142  10.269 -0.1547  0.2254 -0.2936
 2906W        W 7106   7.660  10.248   9.454  0.3322  0.0947  0.0001
 2907W        W 7107   2.523   5.978   3.643 -0.2860 -0.2535 -0.1218
 2908W        W 7108   5.171   0.050   9.105  0.2652  0.0512 -0.0378
 2909W        W 7109   2.261   8.284  10.817 -0.1623 -0.1920 -0.2971
 2910W        W 7110   6.735   6.386   2.083  0.2343 -0.0273  0.0792
 2911W        W 7111   3.314   2.808   8.786 -0.1179  0.2461 -0.2705
 2912W        W 7112   7.632   6.489   0.639 -0.2213 -0.3735 -0.1588
 2913W        W 7113   7.797   3.790   3.310 -0.3278  0.0824  0.0471
 2914W        W 7114   3.176   3.917  10.255  0.1146  0.0060  0.0782
 2915W        W 7115   6.215   3.080  12.078 -0.0585  0.3407 -0.4315
 2916W        W 7116   2.806   2.458   2.991 -0.0093 -0.1009  0.1079
 2917W        W 7117   0.029   6.839   4.166 -0.1233  0.0940 -0.2398
 2918W        W 7118   5.359   5.924  12.049 -0.1727  0.0811  0.3227
 2919W        W 7119   6.639   6.225  11.887  0.2298 -0.1920 -0.2030
 2920W        W 7120   4.074   5.178   4.330 -0.0663  0.3550  0.2923
 2921W        W 7121   8.901   5.177   2.023 -0.0484 -0.4052 -0.2764
 2922W        W 7122   4.343   6.399   1.843 -0.3507 -0.2899 -0.0157
 2923W        W 7123   5.703   4.979  10.973  0.0188  0.0544  0.0879
 2924W        W 7124   8.376   5.985   2.510 -0.2284  0.3196 -0.2415
 2925W        W 7125   3.899   9.768   4.754 -0.0784 -0.2016  0.2035
 2926W        W 7126  10.130   6.623   1.430 -0.3142  0.0138  0.1492
 2927W        W 7127   5.876   4.545   0.293  0.1683 -0.1403 -0.1873
 2928W        W 7128   7.970   5.754   3.742  0.0180  0.2073  0.0336
 2929W        W 7129   2.734  10.369   3.159  0.0029  0.1008 -0.0642
 2930W        W 7130   0.589   6.523  13.053  0.0124  0.2516 -0.0371
 2931W        W 7131  10.298   5.241  10.867  0.1223  0.1910  0.4252
 2932W        W 7132   8.575   8.865  13.282 -0.3950  0.1342 -0.4644
 2933W        W 7133   9.055   6.982   1.645  0.0791  0.1418  0.2089
 2934W        W 7134   6.795   0.713  10.588  0.3172  0.2125 -0.5150
 2935W        W 7135   9.540  10.081   2.125 -0.0654  0.1405  0.3485
 2936W        W 7136   7.801   4.628  11.112  0.2323  0.2669  0.2271
 2937W        W 7137   3.092   4.886   0.353  0.2907 -0.0940  0.2051
 2938W        W 7138   7.410   7.182   1.811 -0.2758 -0.5026  0.2071
 2939W        W 7139   2.936   1.059  11.281  0.0099  0.3420 -0.0302
 2940W        W 7140   0.663  10.263  11.804 -0.1524 -0.1010 -0.1609
 2941W        W 7141   2.236   9.370  12.210  0.0996  0.1126  0.0771
 2942W        W 7142   5.898   8.314   9.409 -0.0558 -0.1496  0.1392
 2943W        W 7143   3.349   6.905  10.956 -0.1865  0.0517 -0.3320
 2944W        W 7144   5.741   2.921   0.170  0.3158 -0.0047 -0.2848
 2945W        W 7145   5.888   3.733  10.480 -0.0958 -0.1664  0.0655
 2946W        W 7146  10.366   7.925   5.065 -0.0036  0.1534  0.2990
 2947W        W 7147   9.078   0.372   0.633  0.0279 -0.1365 -0.4487
 2948W        W 7148   0.823   1.021  12.171  0.3293 -0.2876  0.0559
 2949W        W 7149   1.657   9.662   3.274 -0.0247 -0.0102  0.1292
 2950W        W 7150   3.807   3.811  11.103  0.0019  0.1985 -0.0605
 2951W        W 7151   9.219   8.833   2.229 -0.2024  0.0911 -0.2311
 2952W        W 7152   0.529   0.236   9.506  0.1691  0.2064  0.2964
 2953W        W 7153   8.606   7.902   0.259  0.3732 -0.0178 -0.1702
 2954W        W 7154   5.081   3.050   0.224 -0.1591 -0.0068  0.3021
 2955W        W 7155   7.025   2.615   1.496 -0.2004 -0.0384 -0.0684
 2956W        W 7156   6.440   3.485   2.077 -0.1786 -0.0238 -0.1725
 2957W        W 7157   7.923   6.016  11.953  0.1058 -0.1849 -0.2703
 2958W        W 7158  10.249   4.322   3.791 -0.3919  0.1031  0.1330
 2959W        W 7159   6.911   5.305  10.895 -0.0150 -0.0831  0.0653
 2960W        W 7160   0.516   2.066  12.980 -0.1430  0.1333  0.3787
 2961W        W 7161   0.875   4.558  10.287  0.0589  0.2054 -0.0407
 2962W        W 7162  10.296   4.671  10.623 -0.0776  0.1500  0.2819
 2963W        W 7163   6.028   7.309   0.837 -0.0725  0.0766 -0.0713
 2964W        W 7164   8.971   6.366   9.421 -0.0615 -0.0351  0.3215
 2965W        W 7165   3.995   7.382   2.239  0.1454 -0.1953  0.0351
 2966W        W 7166   4.619   1.280   1.234 -0.0867  0.2093  0.0001
 2967W        W 7167   6.833   1.720   4.460 -0.1496 -0.0313  0.1512
 2968W        W 7168   5.470   5.281   9.059  0.0958  0.2961 -0.0690
 2969W        W 7169   1.822   9.846  11.731 -0.1692 -0.1913 -0.1751
 2970W        W 7170   9.799   6.845   2.587  0.0819 -0.2645  0.0511
 2971W        W 7171  10.072   4.402   9.957 -0.2377  0.1116 -0.0418
 2972W        W 7172   0.600   2.062   9.420 -0.1259 -0.4326  0.2778
 2973W        W 7173   8.879   9.884   3.107 -0.3042 -0.0874  0.0992
 2974W        W 7174   6.418   1.198  12.001 -0.3743  0.0482 -0.2566
 2975W        W 7175   5.662   5.096   2.294  0.3054  0.3564  0.1278
 2976W        W 7176   6.130   6.659  10.132  0.0651 -0.3350 -0.1500
 2977W        W 7177   5.127   9.871  10.855  0.1695  0.0683  0.0163
 2978W        W 7178   9.561   4.672  12.145 -0.0176 -0.1778 -0.2950
 2979W        W 7179   0.874   4.539   0.409 -0.1512  0.1005  0.2632
 2980W        W 7180   7.523   1.490  10.472 -0.1344  0.1432  0.0357
 2981W        W 7181   1.797   2.694   2.374  0.0526 -0.0384  0.0888
 2982W        W 7182   9.714   8.170   3.204 -0.0836 -0.2173  0.0919
 2983W        W 7183   6.305   9.525   8.626  0.0988 -0.3118  0.2035
 2984W        W 7184   6.135   8.361  12.032  0.0541  0.1587 -0.1494
 2985W        W 7185   2.095   9.285   0.380  0.1261 -0.0097  0.0913
 2986W        W 7186   0.216   1.955   2.983  0.0321 -0.0407 -0.1265
 2987W        W 7187  10.308   7.836  13.297  0.0027 -0.2152  0.1906
 2988W        W 7188   6.150   6.276  12.004 -0.0799  0.0524 -0.3863
 2989W        W 7189   3.850   6.927  10.969  0.4158 -0.0479 -0.0480
 2990W        W 7190   3.431   0.173  12.298  0.1381 -0.0624 -0.0399
 2991W        W 7191   4.797   5.477   9.676  0.1215  0.2411 -0.0445
 2992W        W 7192   9.573   0.570   0.524 -0.1229  0.2712  0.1481
 2993W        W 7193   2.098   6.554   2.417 -0.3286 -0.1412 -0.1342
 2994W        W 7194   7.819   8.478   8.993 -0.3140  0.3264  0.0467
 2995W        W 7195   3.987   8.767  11.830  0.4448 -0.1086  0.0414
 2996W        W 7196   0.906   4.974   2.377 -0.0826  0.1060  0.0608
 2997W        W 7197   6.594   6.590   9.264  0.0471 -0.0361  0.1791
 2998W        W 7198   3.264   3.705   9.783 -0.0895  0.1597  0.1861
 2999W        W 7199   1.256   8.236  12.517  0.1453 -0.2449 -0.3342
 3000W        W 7200   1.038   6.147   1.102 -0.1896 -0.1886  0.2313
 3001W        W 7201   6.145   3.005   4.159  0.0709 -0.0480 -0.1212
 3002W        W 7202   8.025   8.552   9.596  0.2607 -0.1195  0.0380
 3003W        W 7203   6.735   7.943   1.205 -0.0206 -0.2741  0.0557
 3004W        W 7204   7.105   5.555  11.634  0.0242 -0.0999  0.1509
 3005W        W 7205   2.369   4.298   0.616 -0.0721 -0.0207 -0.0638
 3006W        W 7206   7.835   7.515   1.679 -0.2004  0.0779  0.2370
 3007W        W 7207   5.788   6.567   9.716  0.0534  0.0196  0.4297
 3008W        W 7208   3.372   8.472   9.285 -0.1303 -0.1375  0.0075
 3009W        W 7209   6.630   3.140  12.655  0.0696 -0.0162  0.2250
 3010W        W 7210   3.801   5.301   2.944 -0.1445 -0.2655 -0.2189
 3011W        W 7211   8.391   7.375   3.129  0.0997  0.1280 -0.1990
 3012W        W 7212   3.896   7.130  13.142 -0.4380 -0.0153  0.0553
 3013W        W 7213   7.269   3.852  12.192 -0.3783 -0.1805  0.0102
 3014W        W 7214   3.516   6.302   1.237 -0.0264 -0.2269 -0.1987
 3015W        W 7215   5.588   4.077   2.384 -0.1693 -0.0464 -0.2000
 3016W        W 7216   9.191   9.328   2.191 -0.0190  0.0396  0.3842
 3017W        W 7217   5.431   0.156   0.054 -0.2058 -0.1799 -0.1453
 3018W        W 7218   2.723   2.903   1.187  0.0684  0.0827 -0.1910
 3019W        W 7219   3.870   2.232  11.002 -0.2146 -0.1946 -0.1329
 3020W        W 7220   5.634   7.804   3.034 -0.0651  0.3502  0.1610
 3021W        W 7221   1.967   4.249  12.564  0.3550 -0.3187 -0.0202
 3022W        W 7222   5.169   1.081  11.496  0.1780  0.0857 -0.0696
 3023W        W 7223   8.743   4.011  13.120 -0.0317  0.1383 -0.1023
 3024W        W 7224   8.586   3.114   0.858  0.1673 -0.0038 -0.0808
 3025W        W 7225   7.645   6.591  10.877  0.1452  0.0112 -0.1062
 3026W        W 7226   6.241   8.024  11.148  0.2956 -0.1335  0.3160
 3027W        W 7227   0.545  10.207   2.609 -0.1906 -0.1130 -0.0896
 3028W        W 7228   7.341  10.300   1.067 -0.3806  0.0257 -0.1436
 3029W        W 7229   8.722   5.317  12.460 -0.0236 -0.4713 -0.0585
 3030W        W 7230   9.517   8.015   1.786  0.2301 -0.2401 -0.0309
 3031W        W 7231   0.494   3.394   2.897  0.1352  0.0063  0.1654
 3032W        W 7232   6.107   1.291   4.570 -0.1064  0.4082  0.2863
 3033W        W 7233   9.081   6.687   3.166  0.1751  0.2422  0.2038
 3034W        W 7234   5.459   0.349  12.482  0.0859  0.1465  0.0473
 3035W        W 7235   5.869   7.795   9.842  0.1748 -0.0736  0.3093
 3036W        W 7236   2.999   8.516   4.372  0.0670  0.1113  0.1361
 3037W        W 7237   5.253   6.837   3.019  0.0787  0.2321  0.1602
 3038W        W 7238   2.436   6.667  10.036 -0.0698  0.0401  0.1892
 3039W        W 7239   1.837   4.812  12.011 -0.0685  0.0396  0.0195
 3040W        W 7240   0.713   8.405   2.642 -0.2468  0.1198 -0.3891
 3041W        W 7241   6.103   7.332  12.239 -0.0147 -0.0478 -0.0151
 3042W        W 7242   3.422   9.875   3.515  0.2563  0.1881 -0.0577
 3043W        W 7243   7.801   5.483   1.722 -0.4381 -0.1731  0.1072
 3044W        W 7244   1.498   3.140   3.793  0.0190 -0.3081  0.1687
 3045W        W 7245   8.426   1.038   1.412  0.0210  0.2930 -0.1534
 3046W        W 7246   4.520   1.750   5.302 -0.1698 -0.0205  0.0488
 3047W        W 7247   7.250  10.434   8.947  0.2416  0.1010 -0.0957
 3048W        W 7248   8.247   3.216  12.069 -0.0297 -0.1390 -0.2227
 3049W        W 7249   1.484   7.817   9.446 -0.4462  0.0111  0.0925
 3050W        W 7250   0.404   1.586   2.311  0.2021 -0.3648 -0.0596
 3051W        W 7251   3.860   3.456   2.699  0.2004 -0.3816  0.1816
 3052W        W 7252   7.880   1.436  12.864 -0.0909 -0.4562 -0.2169
 3053W        W 7253   0.978   1.478  10.043  0.1379  0.1232 -0.3304
 3054W        W 7254   6.297   5.848   9.563 -0.0933 -0.3783  0.0959
 3055W        W 7255   7.750   5.474   1.243  0.1592 -0.0381  0.4349
 3056W        W 7256   8.403   4.365  11.459 -0.1230 -0.0671  0.2325
 3057W        W 7257   3.968   2.984  12.775  0.2075 -0.1192  0.0396
 3058W        W 7258   7.560   0.179  10.844 -0.1524 -0.2748  0.2002
 3059W        W 7259   2.314   5.500   3.807 -0.0996  0.1577  0.3680
 3060W        W 7260   7.175   2.812  11.507  0.1640  0.1465 -0.1593
 3061W        W 7261   8.064   1.870   2.621 -0.1960 -0.2116 -0.0441
 3062W        W 7262   1.548   1.212   2.912  0.0253  0.0472  0.1717
 3063W        W 7263  10.417   7.789   2.248  0.0393  0.0077  0.1410
 3064W        W 7264   1.484   3.723  11.064  0.0075 -0.3837  0.2177
 3065W        W 7265   2.570   8.428   5.073  0.1018  0.2862  0.1601
 3066W        W 7266   4.289   6.859   2.146 -0.1313  0.0465 -0.3331
 3067W        W 7267   6.126   5.744   3.085  0.0644  0.2159  0.0068
 3068W        W 7268   8.054   9.668  13.077 -0.1021 -0.0653 -0.4149
 3069W        W 7269   4.289   6.446   1.313  0.3853  0.1524  0.1099
 3070W        W 7270   7.229   7.579   4.066 -0.0198  0.0437 -0.1223
 3071W        W 7271   8.560   9.050   4.247 -0.0945 -0.0234  0.2591
 3072W        W 7272   5.014   5.366  12.665 -0.0633 -0.1827  0.1139
 3073W        W 7273   8.866   8.757   1.344  0.0374  0.1045 -0.0459
 3074W        W 7274   6.975   0.526   1.241 -0.1086 -0.0942 -0.4817
 3075W        W 7275   4.799   3.341   9.299 -0.0188 -0.1406  0.1402
 3076W        W 7276   7.602   1.592  11.005  0.1920 -0.1729  0.2177
 3077W        W 7277   5.807   7.458  12.751 -0.0211 -0.7148 -0.4141
 3078W        W 7278   1.445   3.795   0.360 -0.0944 -0.2638 -0.0130
 3079W        W 7279   1.344   5.574   2.877  0.0070  0.0716  0.1491
 3080W        W 7280   5.260   2.675  11.380  0.0342 -0.0684 -0.0842
 3081W        W 7281   4.630   7.959  10.211 -0.1919 -0.1546  0.1305
 3082W        W 7282   0.593   5.725  11.954 -0.0695 -0.0188  0.1661
 3083W        W 7283   8.885   2.002   3.143  0.1760 -0.0811  0.0015
 3084W        W 7284   8.070   7.744   9.142 -0.1197 -0.1956  0.2398
 3085W        W 7285   8.701   7.915  10.085 -0.1982  0.4041  0.1960
 3086W        W 7286   8.141   5.716  10.688 -0.0977  0.2489 -0.1636
 3087W        W 7287   2.799   8.888   0.147  0.0647  0.1431  0.0182
 3088W        W 7288   7.896   7.365   3.447  0.2012 -0.1532 -0.2081
 3089W        W 7289   6.435   4.903  12.035 -0.1321  0.1690 -0.0217
 3090W        W 7290   0.658   7.856   0.229  0.3115 -0.1478 -0.1639
 3091W        W 7291   0.883   9.323  11.505  0.2486  0.0864 -0.1076
 3092W        W 7292   7.201   5.764   3.091  0.0233  0.2925 -0.1265
 3093W        W 7293   4.609   1.606   0.188  0.2424  0.1011  0.2625
 3094W        W 7294   7.416   8.169   2.791 -0.0050  0.2541  0.1542
 3095W        W 7295   1.639   8.225   2.817 -0.1942  0.0053 -0.0503
 3096W        W 7296   2.989  10.307   1.177  0.0397  0.0757  0.0073
 3097W        W 7297   1.955   5.534  10.504  0.0119  0.3151 -0.1803
 3098W        W 7298   3.840   5.701   2.456 -0.3622 -0.1527 -0.1749
 3099W        W 7299   8.336   7.097  13.136 -0.0635 -0.0404 -0.0399
 3100W        W 7300   6.925   3.680   3.350 -0.1612 -0.0387 -0.0930
 3101W        W 7301   9.180   4.535  13.139 -0.3595 -0.1265 -0.2812
 3102W        W 7302   3.390  10.299   3.182 -0.1515  0.0455 -0.3979
 3103W        W 7303   7.511   3.351  10.225 -0.1617  0.0453  0.1058
 3104W        W 7304   2.861   4.672  12.010  0.2518  0.0918  0.0486
 3105W        W 7305   7.206   1.548   1.118  0.1354 -0.0011  0.0262
 3106W        W 7306   6.269   8.051   1.958 -0.1198  0.0305 -0.4717
 3107W        W 7307   2.317   7.300   4.679  0.1332  0.0727  0.0751
 3108W        W 7308   4.948   8.237  10.975 -0.1708 -0.0033 -0.1855
 3109W        W 7309   0.255   0.510   0.998  0.3712  0.0664 -0.1120
 3110W        W 7310   3.514   1.161  12.178  0.0644 -0.2888  0.4853
 3111W        W 7311   7.768   9.133   0.300 -0.4945 -0.2664  0.4370
 3112W        W 7312  10.435   9.406  11.842  0.1305 -0.0006  0.3686
 3113W        W 7313   9.885   7.399   0.507  0.0417 -0.2817 -0.0761
 3114W        W 7314   8.182   1.016   0.958 -0.0361  0.1012 -0.0139
 3115W        W 7315   0.449   8.934   2.890 -0.1693 -0.0836  0.0926
 3116W        W 7316   3.845   4.979   3.773  0.1767  0.1338  0.1373
 3117W        W 7317   0.859   8.764   0.197  0.0508 -0.1408  0.1218
 3118W        W 7318   9.466   4.870  13.395 -0.0047 -0.1192 -0.1487
 3119W        W 7319   8.266   8.859  12.778 -0.0968 -0.0995  0.2553
 3120W        W 7320   2.419  10.117  13.387  0.1993 -0.0475  0.0043
 3121W        W 7321   1.356   4.800   1.578  0.3511 -0.0174 -0.0697
 3122W        W 7322   8.374   9.347   5.137 -0.2883 -0.0006 -0.1463
 3123W        W 7323   3.250   2.244  12.321 -0.0182 -0.1796  0.0359
 3124W        W 7324   9.721   2.463   0.935 -0.2326  0.2232  0.1960
 3125W        W 7325   0.031   3.687   2.818  0.4133  0.0516 -0.1296
 3126W        W 7326   7.267   6.428   8.566 -0.1466 -0.2461 -0.0043
 3127W        W 7327   3.402   6.161  11.747 -0.0872  0.0677 -0.0866
 3128W        W 7328   2.590   9.782   3.416 -0.0318 -0.0337 -0.2010
 3129W        W 7329   5.909   5.305   0.598 -0.1904 -0.1385  0.1066
 3130W        W 7330   2.720   7.389   3.011 -0.1259  0.0694 -0.1586
 3131W        W 7331   2.844   2.188   1.354 -0.1059 -0.0121 -0.0953
 3132W        W 7332   5.625   3.767   0.587 -0.2211  0.0435  0.0314
 3133W        W 7333   4.567   6.953  12.889 -0.1591  0.1290  0.0910
 3134W        W 7334   3.223   0.890   0.652  0.0044 -0.4225 -0.1226
 3135W        W 7335   6.614   1.552   3.884 -0.0801  0.0766  0.2353
 3136W        W 7336   9.657   6.565  12.862 -0.0476  0.0242  0.0843
 3137W        W 7337   7.245  10.136  12.555  0.0721 -0.1354 -0.1211
 3138W        W 7338   2.228   2.638   0.560 -0.0173 -0.3634 -0.2573
 3139W        W 7339   4.986   8.461   0.398 -0.1338  0.0608  0.1599
 3140W        W 7340   2.415   5.131   3.436  0.3113 -0.1896 -0.1652
 3141W        W 7341   6.287   7.741   8.977 -0.1594 -0.2582  0.1197
 3142W        W 7342   8.673   1.242  10.465  0.3291  0.2773  0.0384
 3143W        W 7343   9.279   7.110   9.953  0.0175 -0.1004  0.0837
 3144W        W 7344   0.398   5.281   1.590 -0.0897  0.0226 -0.4876
 3145W        W 7345   0.844   6.100  11.027  0.0140  0.0801 -0.0339
 3146W        W 7346   5.047   2.300   3.573  0.1227 -0.2399 -0.1641
 3147W        W 7347   3.156   3.737   0.610  0.0017 -0.3587 -0.2259
 3148W        W 7348   3.893   6.511   2.160  0.0331  0.0868 -0.1133
 3149W        W 7349   5.075  10.335  11.705  0.2121  0.1776  0.0395
 3150W        W 7350   2.648   8.100   3.587 -0.1329 -0.3247  0.0915
 3151W        W 7351   8.254   9.332  11.145 -0.0488 -0.1411 -0.2920
 3152W        W 7352   2.275   4.770   9.457  0.2678  0.2905  0.1073
 3153W        W 7353   5.212   2.107   1.474 -0.0002 -0.0109 -0.1200
 3154W        W 7354   4.730   9.986   1.275 -0.2836  0.1383 -0.3878
 3155W        W 7355   9.594   3.619  10.602 -0.3121  0.3929 -0.0014
 3156W        W 7356   9.475   7.181   0.802  0.2259 -0.3007  0.0761
 3157W        W 7357   5.042   6.946  11.064  0.4031  0.1113 -0.1072
 3158W        W 7358   6.858   2.372   0.294 -0.0628  0.0440  0.0075
 3159W        W 7359   0.472  10.269   9.185  0.0178 -0.2092 -0.1439
 3160W        W 7360   3.449   8.432   5.132 -0.4372 -0.0090 -0.1360
 3161W        W 7361   3.906   2.324   2.142  0.0688 -0.1997 -0.1722
 3162W        W 7362   2.619   0.983   4.134  0.3090 -0.2074  0.0212
 3163W        W 7363   7.762   0.757   4.183  0.0252 -0.2776  0.0162
 3164W        W 7364   7.439   6.834   0.959 -0.1753 -0.2871 -0.2443
 3165W        W 7365   1.086   1.938   9.277  0.0482  0.1042  0.0032
 3166W        W 7366   4.513   9.563  12.197 -0.0377  0.1087 -0.1103
 3167W        W 7367   2.116   7.976   8.665 -0.3200  0.0053  0.1117
 3168W        W 7368   1.539   4.971  10.576  0.4663 -0.1741 -0.0020
 3169W        W 7369   6.985   2.022   3.356  0.1021 -0.1189  0.0556
 3170W        W 7370   9.279   4.356  11.046  0.1537 -0.1917 -0.0591
 3171W        W 7371   6.584   9.251  12.403  0.0503 -0.2057 -0.1872
 3172W        W 7372   3.209   9.804   2.723 -0.0193 -0.3767 -0.3382
 3173W        W 7373   7.923   9.705   0.148 -0.0465  0.1036  0.0030
 3174W        W 7374   6.945   9.357  10.364 -0.0103  0.0566 -0.1489
 3175W        W 7375   5.085   7.365   4.223 -0.0315  0.1173 -0.2589
 3176W        W 7376   7.589   5.858  10.010  0.1683  0.0888  0.3367
 3177W        W 7377   3.121   1.534  12.437 -0.0405  0.1160  0.1044
 3178W        W 7378   3.452   3.657   4.448 -0.0096  0.1873  0.0097
 3179W        W 7379   7.026   0.142  10.940  0.0709 -0.0344  0.1322
 3180W        W 7380  10.043   6.145  12.199  0.0399  0.1800 -0.0078
 3181W        W 7381   3.793   8.397  12.824  0.1101 -0.0963  0.0457
 3182W        W 7382   3.992   4.466  13.367  0.1380 -0.0821 -0.2101
 3183W        W 7383   6.935   0.740   2.211  0.1057  0.3450  0.1755
 3184W        W 7384  10.241   1.880   1.118  0.0134  0.0050  0.0191
 3185W        W 7385   9.162   3.824   1.081 -0.4063  0.1601  0.0299
 3186W        W 7386   5.448   1.361   0.351  0.1109  0.1426 -0.0272
 3187W        W 7387   5.683   2.102   1.669 -0.0511 -0.0567  0.1708
 3188W        W 7388   7.293   1.783  11.348  0.1216 -0.2303  0.0520
 3189W        W 7389   2.013   5.518   0.077 -0.0147  0.0701 -0.3272
 3190W        W 7390   1.312   8.499  10.339 -0.2457 -0.0656  0.1273
 3191W        W 7391   4.259   4.126  11.111  0.4338 -0.0332  0.1783
 3192W        W 7392   3.695   9.591   4.298 -0.0370 -0.0096 -0.1309
 3193W        W 7393   8.606   2.996  11.144  0.1677 -0.2094 -0.0702
 3194W        W 7394   5.317   0.947   3.770 -0.0900 -0.0203  0.0453
 3195W        W 7395   1.915   9.885   2.410  0.3273  0.0651 -0.1909
 3196W        W 7396   4.001   3.805   0.795 -0.2228 -0.0543 -0.1766
 3197W        W 7397   1.379   0.465   9.569 -0.1043  0.0260 -0.1724
 3198W        W 7398   9.998   2.210   2.558  0.0037 -0.0521 -0.3561
 3199W        W 7399   9.177   6.672   4.477  0.0838 -0.2297  0.2174
 3200W        W 7400   8.708   4.867   3.185  0.1832  0.0277  0.2914
 3201W        W 7401   5.871   4.613  12.353  0.1104  0.1871 -0.1365
 3202W        W 7402   2.510   7.926  10.449  0.1576 -0.3463 -0.0343
 3203W        W 7403   5.371   8.335  10.775 -0.3381 -0.3562  0.0911
 3204W        W 7404   8.371   8.785  12.181 -0.3255  0.1240 -0.0003
 3205W        W 7405   2.942   3.474   1.016 -0.0212 -0.1340 -0.1397
 3206W        W 7406  10.362   2.935   2.108 -0.0095  0.4876 -0.1347
 3207W        W 7407   0.341   4.527  10.556 -0.0466 -0.0340  0.2395
 3208W        W 7408   8.304   6.224  11.647 -0.1554  0.0742 -0.6030
 3209W        W 7409   2.796  10.473  12.399  0.0503  0.2734 -0.0216
 3210W        W 7410   5.737   2.866   4.476  0.0851 -0.0797  0.2305
 3211W        W 7411   4.910   6.526   0.239 -0.3082 -0.0222  0.1508
 3212W        W 7412   0.858   3.084   0.182 -0.2635  0.1544  0.0392
 3213W        W 7413   4.141   0.752  11.427 -0.1184 -0.0059  0.1353
 3214W        W 7414   4.692   2.358   9.625  0.1008 -0.0682 -0.1233
 3215W        W 7415   6.714   5.653   0.941 -0.0278  0.1165  0.1030
 3216W        W 7416   2.982   1.038  12.222 -0.0972  0.1303 -0.2064
 3217W        W 7417   2.912   4.303  11.716 -0.3641 -0.2671  0.0829
 3218W        W 7418   0.008   5.356   9.026  0.1102 -0.0329 -0.3253
 3219W        W 7419   2.961   3.039   5.114 -0.1258  0.3330 -0.2045
 3220W        W 7420   1.035   2.544   0.471  0.1662 -0.0452  0.1619
 3221W        W 7421   8.741   5.788  10.026  0.0754  0.0113  0.0452
 3222W        W 7422   5.462   2.800  12.682  0.0447  0.0735  0.1022
 3223W        W 7423   5.226   3.194  12.352 -0.1850  0.0069  0.0926
 3224W        W 7424   0.409   2.329  12.051 -0.1344  0.0637 -0.1840
 3225W        W 7425   5.049   7.759  11.121 -0.0420 -0.1936  0.0674
 3226W        W 7426   1.268   7.054  10.695  0.0985 -0.3151  0.3493
 3227W        W 7427   7.614   8.493  10.778  0.0025 -0.0480  0.1632
 3228W        W 7428   5.997   5.120  11.332 -0.0920  0.0396  0.5018
 3229W        W 7429   3.968   4.654  12.720 -0.0727  0.1733  0.1068
 3230W        W 7430   7.371   7.401  12.113  0.3719  0.0700 -0.0443
 3231W        W 7431   3.594   4.080   0.660  0.0671  0.1396 -0.1688
 3232W        W 7432   7.504   0.139   2.102 -0.2578  0.0805  0.2035
 3233W        W 7433   1.315   2.606  10.466 -0.2637  0.1476  0.5109
 3234W        W 7434   3.045   2.509   9.971  0.0815 -0.0973  0.1864
 3235W        W 7435   1.814   0.666   9.396  0.4255 -0.1157 -0.3198
 3236W        W 7436   7.760   3.494   1.560  0.3734  0.1422 -0.2914
 3237W        W 7437   5.800   5.122   8.627  0.4432 -0.3046 -0.3031
 3238W        W 7438   7.234   2.604   2.998 -0.2641 -0.0311 -0.0800
 3239W        W 7439   3.475   7.961   1.310  0.2289  0.1313 -0.0675
 3240W        W 7440   8.029   7.745   5.127  0.1818 -0.1464 -0.1134
 3241W        W 7441   4.032  10.077   5.136  0.0949  0.0510 -0.1936
 3242W        W 7442   3.374   2.665  13.256 -0.3533  0.0077 -0.0988
 3243W        W 7443   4.078   2.089  10.202  0.0308 -0.3527 -0.2180
 3244W        W 7444   4.423   8.176   0.625 -0.0749  0.0372  0.0504
 3245W        W 7445   5.775   9.381   0.241 -0.2169  0.3315 -0.1032
 3246W        W 7446   2.303   3.413  12.808 -0.4029 -0.0239 -0.0375
 3247W        W 7447   9.979   5.573   0.504  0.1495  0.3881  0.1126
 3248W        W 7448   7.775   3.216  10.945  0.1899  0.1226  0.0405
 3249W        W 7449   4.214   7.476   2.765  0.1661 -0.2838  0.0804
 3250W        W 7450  10.158   7.272  12.090  0.2896  0.1001  0.2646
 3251W        W 7451   1.009   5.158   9.555 -0.0947 -0.0890 -0.0986
 3252W        W 7452   9.202   3.298  12.644  0.3228  0.2377  0.1058
 3253W        W 7453   9.370   1.286  13.020 -0.0695  0.0676 -0.0056
 3254W        W 7454   7.089   8.969   3.742 -0.1060 -0.1578  0.1640
 3255W        W 7455  10.189   1.124   1.745 -0.0450  0.0989 -0.1278
 3256W        W 7456   3.935   4.674   4.310  0.1707  0.1490 -0.0872
 3257W        W 7457  10.402   3.286   2.442 -0.0194 -0.2668 -0.1607
 3258W        W 7458   8.034   9.114   1.581 -0.2207  0.1438  0.0994
 3259W        W 7459   0.192   0.048  13.295 -0.0144  0.1158 -0.3406
 3260W        W 7460   2.937   7.093  12.887 -0.2702 -0.0630 -0.1366
 3261W        W 7461   1.059   3.264   9.340 -0.1346  0.0816  0.2665
 3262W        W 7462   5.146   7.816   4.832 -0.2021  0.0981  0.2326
 3263W        W 7463   5.229   2.713   3.773  0.0575 -0.0652 -0.2235
 3264W        W 7464  10.016   8.826   3.741  0.0470 -0.3062 -0.1620
 3265W        W 7465   9.688   9.329  12.436  0.0948 -0.1817 -0.2873
 3266W        W 7466   7.339   5.213   3.203  0.1729  0.2580 -0.0181
 3267W        W 7467   4.248   8.057  12.211 -0.1267  0.1381 -0.0634
 3268W        W 7468   9.247   7.857   4.184 -0.1019 -0.0593 -0.2527
 3269W        W 7469   7.549   9.977   4.216 -0.1460  0.3924  0.0659
 3270W        W 7470   2.103   8.088   1.153  0.1952  0.0058  0.5856
 3271W        W 7471   5.886   4.467   4.576 -0.1620 -0.2053  0.2878
 3272W        W 7472   3.552   4.119  11.924  0.1724  0.0659 -0.0007
 3273W        W 7473   3.192   5.426  10.978  0.4423 -0.2222  0.0348
 3274W        W 7474   1.905   2.465  11.613 -0.0904 -0.1641  0.1081
 3275W        W 7475   7.785   1.006   3.769  0.1847  0.1701  0.2692
 3276W        W 7476   9.022   6.240   1.209  0.2145 -0.0360 -0.0525
 3277W        W 7477   8.297   7.458   1.762  0.0880  0.1761 -0.0109
 3278W        W 7478   7.631   0.509   2.845  0.1479  0.1671  0.0709
 3279W        W 7479   9.362   0.640  11.407 -0.3038  0.0754  0.2737
 3280W        W 7480   2.139   9.566   1.528  0.4236  0.1580 -0.0589
 3281W        W 7481   3.010   5.051   2.429  0.1495 -0.0982 -0.1486
 3282W        W 7482   4.839   6.093   1.995  0.1972 -0.0137 -0.1890
 3283W        W 7483   3.524   0.487   1.339  0.0011 -0.3708 -0.2687
 3284W        W 7484   9.235   8.977  11.690 -0.1481 -0.0376  0.0639
 3285W        W 7485   6.100   0.090   2.060 -0.2067 -0.0592 -0.3051
 3286W        W 7486   9.653   6.944   3.101 -0.0324  0.0327  0.2287
 3287W        W 7487   3.724   7.737  10.668  0.1774  0.0145 -0.0014
 3288W        W 7488   4.841   2.329  11.001 -0.0287  0.0631  0.0420
 3289W        W 7489   1.063   4.766   9.846 -0.1248 -0.0762 -0.1139
 3290W        W 7490   9.356   4.691   2.260  0.0573 -0.0997 -0.0913
 3291W        W 7491   7.588   9.825  13.217  0.2605  0.0732 -0.1438
 3292W        W 7492   0.514   6.716   1.616 -0.0691  0.0298 -0.0908
 3293W        W 7493   5.310   9.487   0.117  0.5403  0.2267 -0.0571
 3294W        W 7494   9.454   6.375   0.979  0.0864  0.1686 -0.0540
 3295W        W 7495   7.941   8.586   0.855 -0.2233 -0.2145 -0.0074
 3296W        W 7496   8.916   2.296   2.719 -0.0211 -0.1586 -0.1660
 3297W        W 7497   1.390   0.378   1.215  0.0137 -0.1286 -0.3976
 3298W        W 7498   3.298   4.388  10.261 -0.0434  0.1810  0.1135
 3299W        W 7499   0.980   2.016   0.405 -0.0237 -0.1716  0.0892
 3300W        W 7500   7.864   8.136   2.134 -0.1363  0.0321  0.1557
 3301W        W 7501   3.532   4.503   4.089 -0.0699 -0.3489  0.2853
 3302W        W 7502   0.495   7.902  11.311  0.0747  0.0373  0.1088
 3303W        W 7503   1.219   0.510  12.046  0.1680 -0.1125  0.5089
 3304W        W 7504   6.967   7.551  12.840  0.1125 -0.0775 -0.1272
 3305W        W 7505   8.122   3.076   0.708  0.0303  0.1049 -0.2899
 3306W        W 7506   5.648   3.824  12.167 -0.1500 -0.0332 -0.1553
 3307W        W 7507   0.772   5.858  10.211  0.3003  0.2526 -0.0149
 3308W        W 7508   1.752  10.413   0.453  0.1476 -0.1693  0.0245
 3309W        W 7509   4.025   3.648   4.414 -0.1240  0.0627  0.0683
 3310W        W 7510   1.738   6.809  13.362 -0.3806 -0.0460  0.1858
 3311W        W 7511   3.179   4.176   2.694 -0.1627 -0.2643 -0.0876
 3312W        W 7512   5.111   4.670   3.230  0.1198  0.1120 -0.0951
 3313W        W 7513   0.984   1.148  12.659  0.2263 -0.2162  0.0927
 3314W        W 7514   5.851   8.062   0.255  0.0134  0.2953 -0.0327
 3315W        W 7515   2.396   3.748  10.413 -0.1061 -0.1284 -0.1188
 3316W        W 7516   0.983   0.479  10.187  0.0842  0.0354  0.2652
 3317W        W 7517   8.403   2.736   3.641  0.1638 -0.0948 -0.0396
 3318W        W 7518   4.521   0.750  12.773  0.2501  0.1333  0.0884
 3319W        W 7519   4.172   6.591  10.683 -0.0783  0.1013 -0.0421
 3320W        W 7520   3.748   9.655   9.545  0.2241 -0.0797 -0.0490
 3321W        W 7521   8.330   7.499   2.683 -0.2272 -0.2607  0.0471
 3322W        W 7522   1.183   4.025  13.159  0.0618 -0.1108  0.0148
 3323W        W 7523   3.321   2.308   0.275 -0.0670 -0.0552 -0.3086
 3324W        W 7524   3.108   5.228   1.125  0.2661 -0.3222  0.0332
 3325W        W 7525   4.225   2.044  11.441 -0.1375 -0.0152 -0.0190
 3326W        W 7526   5.246  10.125  10.431  0.0339 -0.1669 -0.0855
 3327W        W 7527   5.486   1.604   2.763 -0.1785  0.1707 -0.0345
 3328W        W 7528   0.001   7.838  11.492  0.0805  0.1291 -0.0191
 3329W        W 7529   7.108   1.316   2.508 -0.0356  0.2188 -0.0155
 3330W        W 7530   9.906   2.591   2.852 -0.0556 -0.0488 -0.1835
 3331W        W 7531   5.899   3.462   2.050  0.1435  0.1402  0.2319
 3332W        W 7532   1.506   8.982  11.828 -0.2245  0.1232  0.1831
 3333W        W 7533  10.125   7.203   2.386 -0.0284  0.0192  0.2575
 3334W        W 7534   2.023   6.047  12.055  0.3901  0.4137  0.0719
 3335W        W 7535   2.036   0.643  11.393  0.2571  0.0469  0.3540
 3336W        W 7536   7.640   7.869   4.210  0.0001 -0.4814  0.2841
 3337W        W 7537   0.338   5.246  11.273 -0.3785  0.2341  0.0145
 3338W        W 7538   0.369   2.809  11.466 -0.3972 -0.0720  0.1277
 3339W        W 7539   4.970   5.698  12.300 -0.0169 -0.2468  0.0733
 3340W        W 7540   1.368   3.966   3.180 -0.0546  0.1113  0.0619
 3341W        W 7541   6.196   2.434  12.342 -0.0320 -0.0457  0.0371
 3342W        W 7542   7.226   7.829   2.366 -0.0253  0.0297  0.1026
 3343W        W 7543   9.786   6.283   1.443 -0.0238  0.1104  0.0016
 3344W        W 7544   0.703   2.039   1.024 -0.0831 -0.1783  0.1741
 3345W        W 7545   9.492   5.107   2.891  0.2243 -0.1335 -0.4512
 3346W        W 7546   0.018   2.877   1.070 -0.0605 -0.4313 -0.0842
 3347W        W 7547   8.714   2.788   2.259 -0.0380 -0.0941 -0.2130
 3348W        W 7548   4.959   2.569   4.750 -0.1639 -0.3045  0.0139
 3349W        W 7549   8.379   9.331  13.183 -0.2634  0.0721  0.0710
 3350W        W 7550   9.062   1.555  10.351  0.1789  0.2434  0.2771
 3351W        W 7551   5.950   2.217  10.299 -0.0994 -0.1603 -0.1856
 3352W        W 7552   2.281   0.048  13.075 -0.0975 -0.0782  0.1110
 3353W        W 7553  10.484   8.453  12.519  0.2936 -0.1663  0.0078
 3354W        W 7554   5.059  10.333   4.491  0.0073  0.1686 -0.0105
 3355W        W 7555   2.453   2.107   2.743  0.0254 -0.0377  0.0067
 3356W        W 7556   3.346   0.698   3.417 -0.1643 -0.1914 -0.1059
 3357W        W 7557   1.539  10.075   3.539 -0.2191 -0.0050 -0.0116
 3358W        W 7558   1.890   0.940  13.134 -0.0734 -0.3163  0.0565
 3359W        W 7559   3.111   1.331   8.950  0.2371 -0.1930 -0.2790
 3360W        W 7560  10.038   7.831  10.701 -0.0991 -0.2861 -0.1897
 3361W        W 7561   4.627   6.797  10.887 -0.1308 -0.1265  0.2304
 3362W        W 7562   2.485   0.309  12.628  0.2328  0.0550 -0.0748
 3363W        W 7563   9.081   4.683   2.827 -0.4860 -0.1762 -0.2100
 3364W        W 7564   0.656   2.085   3.298 -0.1278  0.4956 -0.0106
 3365W        W 7565   5.727   3.111  12.209  0.1721  0.0666 -0.1867
 3366W        W 7566   1.370   0.407   3.553 -0.2438  0.1763 -0.4163
 3367W        W 7567  10.170   6.086   3.745  0.0147  0.1299 -0.1962
 3368W        W 7568   4.439   2.046  10.934  0.0481  0.1006  0.2068
 3369W        W 7569   2.124   4.101   0.256  0.1722 -0.1724 -0.0061
 3370W        W 7570   3.908   5.712  11.401  0.0217  0.3833 -0.2645
 3371W        W 7571   6.980   6.197  11.166 -0.1439  0.1079  0.0076
 3372W        W 7572   6.841   1.431   2.092 -0.1070  0.1504 -0.0952
 3373W        W 7573   8.287   6.941   4.694  0.2149  0.1241  0.0359
 3374W        W 7574   6.104   3.708   3.134 -0.2185  0.1085  0.0012
 3375W        W 7575   3.836   6.766   2.954 -0.1022 -0.2685  0.2758
 3376W        W 7576   7.119   9.140   4.265  0.0702  0.0969 -0.1341
 3377W        W 7577  10.456   4.887  12.263  0.0300 -0.2425  0.0034
 3378W        W 7578   2.012   5.192   0.905  0.1714  0.4099 -0.2583
 3379W        W 7579   8.715   9.097  10.968  0.1618 -0.1940 -0.1167
 3380W        W 7580   6.785   3.529   4.394  0.0612 -0.0169  0.1453
 3381W        W 7581   6.059   4.684  10.246  0.0814 -0.2816 -0.1751
 3382W        W 7582   9.245   2.347  10.859 -0.2144 -0.2185 -0.2102
 3383W        W 7583   2.823   5.528   3.823  0.0497 -0.4021 -0.0387
 3384W        W 7584   0.136   1.444  10.789 -0.0972  0.1296  0.2705
 3385W        W 7585   4.911   0.943   9.189  0.1255 -0.0182 -0.0617
 3386W        W 7586   6.988   8.127   3.399  0.0903 -0.0228  0.2910
 3387W        W 7587   6.794   4.546  12.079  0.0171 -0.1431  0.0456
 3388W        W 7588   6.738   6.910   2.751  0.1206  0.0520  0.2137
 3389W        W 7589   2.541   9.333  10.491 -0.0866 -0.0951 -0.1596
 3390W        W 7590   7.640   2.265  13.227 -0.0482 -0.1383 -0.0485
 3391W        W 7591   9.771   1.929   1.736 -0.0466  0.0282  0.1562
 3392W        W 7592   4.911   0.618  10.356 -0.0164  0.1968  0.0458
 3393W        W 7593   0.540   1.409  10.445  0.0673  0.3031 -0.0879
 3394W        W 7594   2.524   1.770   3.518 -0.1658 -0.3083 -0.0841
 3395W        W 7595   9.944   0.309   9.973  0.1111 -0.0349  0.2005
 3396W        W 7596   9.849   5.513  13.395 -0.0958 -0.2419  0.2277
 3397W        W 7597   1.265   5.874  11.138 -0.1468  0.1392 -0.2588
 3398W        W 7598   2.616   5.476   9.123 -0.1569 -0.0276  0.1538
 3399W        W 7599   6.853  10.186   3.663  0.0485 -0.3154 -0.0555
 3400W        W 7600   8.398   6.107  10.429  0.1287 -0.1641  0.3417
 3401W        W 7601   2.045   7.071   9.077 -0.1644 -0.0498 -0.0626
 3402W        W 7602   1.400   9.025   5.142 -0.3824 -0.4138  0.1787
 3403W        W 7603   9.583   7.279   2.424  0.1094  0.2894 -0.0466
 3404W        W 7604   4.906   9.003  11.562  0.0682  0.0198 -0.0342
 3405W        W 7605   0.218   7.457   1.443  0.1445  0.2242 -0.0946
 3406W        W 7606   0.472   2.722   0.904 -0.3012  0.0584 -0.5732
 3407W        W 7607   9.978   0.930   3.005 -0.2607 -0.0985  0.1949
 3408W        W 7608   7.482   6.974  10.496 -0.3831  0.0155  0.2153
 3409W        W 7609   5.099   9.238   9.941 -0.3908  0.0441  0.0678
 3410W        W 7610   4.277   6.504   2.623  0.1577  0.0455 -0.1893
 3411W        W 7611   2.650   9.683   3.924  0.1320 -0.1300  0.1464
 3412W        W 7612   1.996   6.001  11.547  0.0472  0.0459  0.0063
 3413W        W 7613   4.885   1.156  12.605 -0.1148 -0.0499  0.1788
 3414W        W 7614   7.270   8.400   3.715  0.1481 -0.0861  0.0678
 3415W        W 7615   7.035   3.034   3.722 -0.0771  0.0331  0.0271
 3416W        W 7616   5.717   0.357  12.038  0.0054 -0.2378  0.1259
 3417W        W 7617   1.303   3.357   9.776  0.5221  0.0905 -0.1172
 3418W        W 7618   5.453   3.219   0.564  0.0264 -0.0107 -0.0680
 3419W        W 7619   9.281   6.740   0.680 -0.2201 -0.0675 -0.2955
 3420W        W 7620   4.441   9.136  12.495 -0.0043 -0.2727 -0.4838
 3421W        W 7621   7.087   2.957   4.567  0.1721 -0.0994  0.1698
 3422W        W 7622   4.699   3.354   1.120  0.1838  0.0347 -0.3775
 3423W        W 7623   5.264   7.489   1.300  0.0097 -0.2356  0.1982
 3424W        W 7624   3.473   3.645   8.824 -0.3751 -0.0693 -0.1718
 3425W        W 7625   5.262   9.906   1.414 -0.1856 -0.1025 -0.3403
 3426W        W 7626   3.604   0.635   2.040 -0.0290 -0.0770 -0.1168
 3427W        W 7627   8.647   2.910  12.553  0.1693  0.0284 -0.2387
 3428W        W 7628   8.862   6.655   4.094  0.0740 -0.3587 -0.2059
 3429W        W 7629   0.898   3.451  11.960 -0.0360 -0.2367 -0.0630
 3430W        W 7630   3.136   2.316   3.994  0.0925  0.0454 -0.1621
 3431W        W 7631   1.309   9.395  12.292 -0.0636  0.0607 -0.1213
 3432W        W 7632   1.965   6.256  10.721 -0.1399  0.1861  0.1746
 3433W        W 7633   3.716   0.399  13.260  0.0399  0.2059 -0.1760
 3434W        W 7634   2.511   6.386   1.405 -0.0128 -0.0952  0.1193
 3435W        W 7635   2.254   6.866   8.581 -0.1525 -0.1624 -0.2129
 3436W        W 7636   7.776   9.503  10.063 -0.0002  0.1317 -0.2670
 3437W        W 7637   6.244   0.199  11.232 -0.1449  0.3251  0.2675
 3438W        W 7638   1.266   6.164   4.120  0.4931  0.0996  0.1229
 3439W        W 7639   9.481   0.853   2.358 -0.2623 -0.3945  0.3860
 3440W        W 7640   3.777   9.711  11.535 -0.0485 -0.1009  0.4000
 3441W        W 7641   6.454   3.295  10.912  0.1490 -0.0324 -0.0574
 3442W        W 7642   5.777   1.031   0.552 -0.0321  0.3635  0.1579
 3443W        W 7643   0.997  10.447   0.899  0.1338  0.1164  0.2448
 3444W        W 7644   8.457   4.422   3.225  0.1934 -0.1395 -0.0881
 3445W        W 7645   0.213   1.385   9.673  0.0336 -0.2932  0.0311
 3446W        W 7646   5.336   7.907   8.428 -0.2891 -0.2886  0.2409
 3447W        W 7647   1.054   4.465  13.379  0.0744  0.0021 -0.0331
 3448W        W 7648   5.721   1.713   2.276 -0.2347  0.1817 -0.1352
 3449W        W 7649   0.547   6.715   0.385 -0.1705  0.1075 -0.2083
 3450W        W 7650   9.269   9.030   0.294 -0.2013 -0.1511 -0.0966
 3451W        W 7651   2.041   0.574  12.349 -0.1233  0.2401  0.1176
 3452W        W 7652   2.949   3.143  10.715 -0.0484  0.0588  0.1426
 3453W        W 7653   8.695   1.776  11.646 -0.3291  0.1143  0.1067
 3454W        W 7654   3.686   6.505  12.014 -0.1309 -0.1631 -0.2930
 3455W        W 7655   6.963  10.430   3.175 -0.0763 -0.0048 -0.1927
 3456W        W 7656   6.305   7.291   2.668  0.1744  0.0113 -0.0550
 3457W        W 7657   5.905   1.981  12.506 -0.3221 -0.0464 -0.1428
 3458W        W 7658   2.665   8.662   9.806  0.1860  0.0803  0.1531
 3459W        W 7659   0.874   5.975  11.517  0.0774  0.3174 -0.2235
 3460W        W 7660   8.733   3.999   3.220  0.3696 -0.0970  0.3509
 3461W        W 7661   7.532   3.570   2.910 -0.0372 -0.0724  0.3636
 3462W        W 7662   9.716   0.823  12.305  0.2176 -0.1059  0.2006
 3463W        W 7663   6.771   0.511   4.918 -0.2835  0.1594 -0.1313
 3464W        W 7664   1.897   4.790   9.821 -0.2881  0.0377 -0.1310
 3465W        W 7665   0.524   3.472  13.378 -0.2841 -0.0802  0.2850
 3466W        W 7666   1.695   3.274  10.947 -0.2103 -0.0455  0.2542
 3467W        W 7667   5.054   0.770   5.343  0.0237 -0.3624  0.4488
 3468W        W 7668   2.173   0.018   4.050  0.0857 -0.2267  0.1978
 3469W        W 7669   0.286   8.000   1.528 -0.2821 -0.4623 -0.4142
 3470W        W 7670   9.890   6.678   9.264 -0.0583  0.2321  0.2443
 3471W        W 7671   8.708   9.409   4.526 -0.3691  0.1011 -0.3539
 3472W        W 7672   3.956   1.163   3.142  0.0894 -0.1316  0.3325
 3473W        W 7673   0.874   9.019   0.636  0.2451  0.1423 -0.2432
 3474W        W 7674   8.967   7.581   4.524  0.0001  0.0859  0.0061
 3475W        W 7675   3.979   9.233   4.022  0.2389  0.0962 -0.0743
 3476W        W 7676   8.892   2.813   2.774 -0.1345  0.0833 -0.0195
 3477W        W 7677   0.805   2.977  11.883  0.2723  0.0097 -0.0289
 3478W        W 7678   6.050   4.935   2.575 -0.0071 -0.0610  0.1757
 3479W        W 7679   3.500  10.136  12.291  0.0833 -0.2744  0.0931
 3480W        W 7680   3.075   5.578   1.580 -0.0940  0.2506  0.0572
 3481W        W 7681   3.786   2.981   2.032  0.2044 -0.2250  0.4222
 3482W        W 7682   8.260   0.480  13.016  0.0876 -0.0772  0.2936
 3483W        W 7683   6.661   3.741   0.416  0.2476  0.0329  0.0660
 3484W        W 7684   6.041  10.443  10.779  0.2021 -0.1629 -0.1010
 3485W        W 7685   9.387  10.097   9.773  0.0928  0.1287  0.1747
 3486W        W 7686   6.034   7.383  13.206  0.2047 -0.2127 -0.0246
 3487W        W 7687   4.377   4.217   2.975  0.3657  0.0229  0.2263
 3488W        W 7688   0.283   7.561  13.340 -0.1516 -0.0389  0.0176
 3489W        W 7689   5.219   5.101  10.668  0.0101 -0.1446  0.2175
 3490W        W 7690   9.415   5.699  10.166 -0.0719  0.1317  0.1952
 3491W        W 7691   0.587   4.626   2.186 -0.2498 -0.0232  0.0946
 3492W        W 7692   4.629   5.009   9.649  0.2496  0.2900 -0.0724
 3493W        W 7693   3.489   0.296   4.686  0.0088  0.2106 -0.1592
 3494W        W 7694   2.961   2.893   9.721 -0.3070 -0.0070  0.1146
 3495W        W 7695   1.085   6.248  10.415 -0.0525 -0.0308 -0.1727
 3496W        W 7696   8.821   2.392  12.760 -0.0424 -0.2492  0.0285
 3497W        W 7697   0.730   7.159   8.886  0.0703 -0.0078 -0.1298
 3498W        W 7698   9.079   3.416   1.722 -0.0516  0.3075 -0.0470
 3499W        W 7699   6.565   6.190   0.782 -0.3101 -0.2558  0.0615
 3500W        W 7700   7.215  10.194  13.334  0.3899 -0.0237  0.1152
 3501W        W 7701  10.303   8.656   9.529 -0.0674  0.2415  0.1980
 3502W        W 7702   8.530   0.489   9.780 -0.2785 -0.1156 -0.0193
 3503W        W 7703   5.617   1.210   1.543  0.0371  0.0346  0.2432
 3504W        W 7704   7.836   4.857   3.829 -0.0322 -0.0607  0.4247
 3505W        W 7705   0.708   6.345   3.502 -0.2701  0.1024  0.0374
 3506W        W 7706   9.013   4.121   2.796  0.2561  0.2537  0.0794
 3507W        W 7707   8.449   3.961  11.821 -0.0487  0.0268  0.2105
 3508W        W 7708   2.027   5.397   1.525 -0.2345  0.1134 -0.2667
 3509W        W 7709   9.465   2.382  10.027  0.2357 -0.0057  0.0707
 3510W        W 7710   5.291   6.296  13.114  0.3766  0.4503  0.0987
 3511W        W 7711   0.517   5.389   9.627 -0.0331  0.0254  0.1441
 3512W        W 7712   8.894   3.127   0.484 -0.3871 -0.0695  0.2468
 3513W        W 7713  10.132   6.737  12.139  0.4781  0.2288 -0.2992
 3514W        W 7714   2.837   9.991   0.266 -0.0760 -0.2026 -0.8107
 3515W        W 7715   5.570   7.035   4.291 -0.1284  0.0424  0.1732
 3516W        W 7716   8.627   7.410   9.707 -0.0573  0.1239  0.1695
 3517W        W 7717   4.208   1.659  11.790 -0.0102 -0.2668 -0.1519
 3518W        W 7718   2.515   8.432  10.375  0.2017  0.2674  0.1871
 3519W        W 7719   8.213  10.353  12.718  0.1491  0.1557 -0.2633
 3520W        W 7720   0.866  10.326   9.428  0.1176  0.0869  0.1049
 3521W        W 7721   5.349   5.736  11.555  0.0298  0.0561 -0.2827
 3522W        W 7722   6.749   6.764   0.522  0.0922  0.3254  0.1090
 3523W        W 7723   4.598   3.172  10.247  0.2364 -0.0446  0.2719
 3524W        W 7724   1.133   8.550   0.697  0.2093  0.1662 -0.1987
 3525W        W 7725   1.350   1.675   0.168  0.1797 -0.0821 -0.0341
 3526W        W 7726   6.321   2.681  11.776 -0.1660 -0.1451  0.1535
 3527W        W 7727  10.283   7.216   0.676  0.1076 -0.2738 -0.3000
 3528W        W 7728   6.565   2.322   1.311  0.1448 -0.0019  0.3861
 3529W        W 7729   4.969   7.435   3.710 -0.0228  0.1320 -0.3875
 3530W        W 7730   4.227   0.047   1.824  0.0308 -0.2564 -0.1212
 3531W        W 7731   7.971   6.786   2.353 -0.0417 -0.1152 -0.2198
 3532W        W 7732   7.241   4.639   1.813  0.1589  0.1215 -0.3547
 3533W        W 7733  10.486   6.162   9.556 -0.2298  0.1194 -0.0900
 3534W        W 7734   1.025   4.554   1.315 -0.1285 -0.1654 -0.0849
 3535W        W 7735  10.427   3.470   1.553 -0.0391  0.2440  0.1687
 3536W        W 7736   8.187   3.394   1.147 -0.1277 -0.3698 -0.2034
 3537W        W 7737   4.270   4.640   2.625  0.0573  0.1591  0.0989
 3538W        W 7738   0.642   8.868  12.092 -0.0645 -0.0530 -0.1152
 3539W        W 7739   0.696   5.277   2.833 -0.0655 -0.2233  0.0438
 3540W        W 7740  10.250   1.164   9.446 -0.0678 -0.0824  0.2836
 3541W        W 7741   3.490  10.461   0.574  0.0336  0.2311 -0.0442
 3542W        W 7742   7.483   8.135  10.443  0.0846  0.0300  0.1767
 3543W        W 7743   8.703   6.264  10.851 -0.0300  0.6067  0.0583
 3544W        W 7744   8.196   5.723   3.280  0.2006  0.3203 -0.1966
 3545W        W 7745   6.856   6.306   4.515  0.3873 -0.0682  0.0851
 3546W        W 7746   9.893   3.629  10.253  0.0819  0.2351  0.2395
 3547W        W 7747   2.144   5.881   9.730 -0.1135  0.1296 -0.0138
 3548W        W 7748  10.336   6.011   0.695  0.1729 -0.0491  0.3047
 3549W        W 7749   5.832   2.504   5.219  0.1795 -0.3491 -0.0438
 3550W        W 7750  10.286   5.229   3.628  0.1795  0.2282 -0.2207
 3551W        W 7751   9.238  10.032   3.922  0.1001 -0.3754  0.1401
 3552W        W 7752   6.742  10.262   1.701 -0.0708  0.1168 -0.0114
 3553W        W 7753   7.355   5.867  11.289  0.0986  0.0989  0.1205
 3554W        W 7754   9.201   6.190   9.823  0.0755 -0.0692  0.2780
 3555W        W 7755   9.272   5.616   2.214 -0.0317 -0.3088  0.1774
 3556W        W 7756   4.556   1.418   9.075 -0.0838 -0.2285 -0.1754
 3557W        W 7757  10.220   3.210  12.240 -0.3200  0.1312  0.3815
 3558W        W 7758   1.669   1.559   2.463 -0.0196 -0.1750  0.2065
 3559W        W 7759   4.226   6.295   3.618 -0.3382  0.0557 -0.1824
 3560W        W 7760   8.534   2.821  12.013  0.3776 -0.0720  0.1039
 3561W        W 7761   6.104   9.644  11.201 -0.1266 -0.0173 -0.1977
 3562W        W 7762   8.771   7.618  12.108 -0.1583 -0.0853 -0.2163
 3563W        W 7763   6.545   2.438   9.503  0.2062 -0.4031 -0.0579
 3564W        W 7764   3.107   8.535   0.161  0.0462 -0.1645  0.2006
 3565W        W 7765   5.630   2.533  13.105 -0.0379  0.0499 -0.0325
 3566W        W 7766   1.113   2.222  11.503 -0.0493  0.1663  0.2888
 3567W        W 7767   7.343   3.907  12.711 -0.3579  0.1727 -0.1740
 3568W        W 7768   6.256   3.606   0.185  0.1424 -0.2141 -0.1042
 3569W        W 7769   3.529   5.064  10.812  0.2115  0.3487 -0.3407
 3570W        W 7770   6.796   8.627   2.716 -0.1618 -0.2405 -0.0478
 3571W        W 7771   5.179   3.281   5.570 -0.1394  0.0817 -0.1567
 3572W        W 7772   9.043   5.882   3.028 -0.2025 -0.0167  0.0570
 3573W        W 7773  10.017   0.991   2.230  0.2542 -0.1696 -0.1065
 3574W        W 7774   1.125   7.938   0.063 -0.1316  0.0446 -0.0454
 3575W        W 7775   0.565   4.905   0.181 -0.0777 -0.0707 -0.4928
 3576W        W 7776   5.704   1.828  10.512  0.2100  0.0310 -0.1635
 3577W        W 7777   7.485   3.484   3.539  0.0532 -0.1065 -0.2163
 3578W        W 7778   0.096   8.191   4.306  0.0707 -0.1547  0.0556
 3579W        W 7779   6.024   6.964   1.204  0.2758  0.0683  0.1363
 3580W        W 7780   3.840   0.833  11.914 -0.0740  0.0135 -0.2142
 3581W        W 7781   5.527  10.468   2.082 -0.0868 -0.3713 -0.2799
 3582W        W 7782   4.090   1.565   9.956  0.2160 -0.1426 -0.1956
 3583W        W 7783  10.218   3.407   1.995  0.1909 -0.1136  0.1484
 3584W        W 7784  10.279   5.978   1.204 -0.1050 -0.2221 -0.0473
 3585W        W 7785   4.939   2.831  12.888 -0.0198 -0.0412  0.1865
 3586W        W 7786   7.327   5.317  12.671 -0.2098 -0.1905  0.2247
 3587W        W 7787   5.653   0.397   9.431 -0.0577  0.0725  0.0213
 3588W        W 7788   8.100   6.329  10.811  0.0770 -0.0992  0.1469
 3589W        W 7789   4.244   8.192   8.333 -0.1760  0.1201 -0.1857
 3590W        W 7790   6.929   4.026  12.518  0.2600  0.1021 -0.1050
 3591W        W 7791   2.934   4.498  11.195 -0.0836  0.3075  0.0676
 3592W        W 7792   5.107  10.405  10.809  0.2238 -0.1776 -0.0520
 3593W        W 7793   2.346   7.937   3.958  0.1059  0.0627  0.0154
 3594W        W 7794   0.508   9.716   2.507  0.2185  0.4182  0.1320
 3595W        W 7795   8.232   3.485   1.663  0.2143  0.0629 -0.1390
 3596W        W 7796   2.339   0.771   5.014 -0.0434 -0.1983 -0.0186
 3597W        W 7797   1.324   4.426  10.571  0.2864 -0.1708  0.1817
 3598W        W 7798   1.898   6.746   4.088 -0.1745 -0.0825 -0.0088
 3599W        W 7799   4.953   4.183  10.883 -0.1572 -0.3539 -0.2075
 3600W        W 7800   3.306   6.677  11.501 -0.1360  0.1518  0.3262
 3601W        W 7801   7.467   2.840   1.740  0.0678  0.1375  0.2799
 3602W        W 7802   4.587   1.242   4.675 -0.0128  0.0806  0.2593
 3603W        W 7803   6.635   0.343   0.863 -0.0700 -0.3712 -0.0960
 3604W        W 7804   3.308   8.806  11.001 -0.0159  0.2413 -0.0209
 3605W        W 7805   0.320   7.146   3.736  0.1296 -0.0241  0.1441
 3606W        W 7806   4.087   8.050  12.955  0.3289  0.0222 -0.2596
 3607W        W 7807   3.841   3.913   3.538  0.1429 -0.1834  0.0110
 3608W        W 7808   7.787   3.619   0.012 -0.2066 -0.0575  0.0499
 3609W        W 7809   4.942   6.937   3.887  0.2258  0.0085 -0.5793
 3610W        W 7810   4.571   7.062   2.524 -0.2145 -0.4721  0.0364
 3611W        W 7811   4.937   8.997   5.213  0.1952  0.2113  0.2723
 3612W        W 7812   3.375   5.459  10.086  0.2068 -0.1572 -0.0086
 3613W        W 7813   2.846   6.968   9.934 -0.0576 -0.0123  0.0824
 3614W        W 7814   5.743   3.538  10.963 -0.2553  0.1539 -0.2701
 3615W        W 7815   8.703   9.170   9.247 -0.0322 -0.1600  0.1221
 3616W        W 7816   8.269   1.375  12.248 -0.3390 -0.0820 -0.1131
 3617W        W 7817   0.200   6.868  12.312  0.1845 -0.1510 -0.3971
 3618W        W 7818   0.534   6.312   2.893  0.3836 -0.3235  0.4158
 3619W        W 7819   3.582   1.873   0.114 -0.1161 -0.1825  0.3578
 3620W        W 7820   0.245  10.475   0.937 -0.0154  0.4015 -0.0734
 3621W        W 7821   0.507   7.160  10.203 -0.2945  0.1758  0.1712
 3622W        W 7822   3.122   4.943  11.141  0.0461  0.1084 -0.0968
 3623W        W 7823   9.565   5.979  10.599 -0.0638  0.1118  0.4951
 3624W        W 7824   7.558   6.326   9.869 -0.0010 -0.0842  0.5344
 3625W        W 7825   7.930  10.035   2.694 -0.0940 -0.0573  0.1433
 3626W        W 7826   0.006   5.919   2.301 -0.0317  0.4327 -0.2019
 3627W        W 7827   7.568   5.388   9.648  0.1777  0.1038  0.0878
 3628W        W 7828   7.372   8.665   0.954  0.2205  0.3232  0.2566
 3629W        W 7829   2.321   2.793   2.246 -0.1157  0.1703 -0.1495
 3630W        W 7830   7.808   0.557   2.245 -0.2297  0.0342  0.1238
 3631W        W 7831   2.742   6.300  13.127  0.0753  0.2600  0.0435
 3632W        W 7832   2.327   6.349  12.828  0.1340 -0.4136  0.3448
 3633W        W 7833   3.573   9.367  12.651  0.1469 -0.3427  0.1060
 3634W        W 7834  10.029   7.417  10.446  0.3312  0.2819  0.3265
 3635W        W 7835   4.555   4.658   9.284 -0.0185  0.2692  0.0405
 3636W        W 7836   2.652   5.064   0.349  0.1223  0.0668 -0.2044
 3637W        W 7837   1.156   8.482  12.117 -0.0146  0.1050 -0.2386
 3638W        W 7838   7.062   5.847   0.132  0.0219 -0.0388 -0.1985
 3639W        W 7839   3.088   1.641   2.669 -0.1072  0.1976  0.0133
 3640W        W 7840   6.992   6.835  13.400  0.0473 -0.2323  0.3387
 3641W        W 7841   5.255   1.753   4.291 -0.2787 -0.1890 -0.2136
 3642W        W 7842   3.275   2.792  10.642 -0.2458  0.0164  0.2188
 3643W        W 7843   2.439   3.440   1.043 -0.0591 -0.0461 -0.3904
 3644W        W 7844   7.428   7.734   9.950  0.1867  0.1618 -0.2405
 3645W        W 7845   3.949   4.505   1.303 -0.0123  0.0098 -0.1698
 3646W        W 7846   7.204   6.604   1.932  0.0793  0.1210  0.1594
 3647W        W 7847   4.945   8.636  12.098  0.0138  0.0664  0.0324
 3648W        W 7848   4.884   2.015   0.167 -0.0227 -0.0629 -0.1592
 3649W        W 7849   3.059  10.434   8.190 -0.0681 -0.4099 -0.0344
 3650W        W 7850   0.167  10.375  10.115 -0.0689 -0.2140  0.0725
 3651W        W 7851   5.977   9.145   4.084  0.1666 -0.2545  0.3922
 3652W        W 7852   0.078  10.039   2.418 -0.4133 -0.1078  0.1420
 3653W        W 7853   7.662   7.328   1.217  0.1851  0.2943 -0.6239
 3654W        W 7854   4.690   8.357   3.843 -0.2238 -0.0938  0.2929
 3655W        W 7855   3.845   1.387   1.847 -0.0922 -0.1159 -0.0790
 3656W        W 7856   9.775   6.988  10.174 -0.3613  0.1001 -0.0496
 3657W        W 7857   4.747   1.043   9.716  0.1384  0.0169 -0.1135
 3658W        W 7858   3.957   8.298   4.345  0.1386  0.3372  0.2766
 3659W        W 7859   7.957   5.053   1.399 -0.0383  0.0622 -0.0094
 3660W        W 7860   1.953   0.423   0.401  0.1266  0.2568  0.2335
 3661W        W 7861   3.759   0.756  11.063  0.0692 -0.2863 -0.1085
 3662W        W 7862   4.704   7.131  10.039  0.2210  0.0233  0.1733
 3663W        W 7863   2.993   9.114  10.694  0.0065 -0.1532  0.1211
 3664W        W 7864  10.241   9.400  13.166  0.1784  0.1038 -0.1733
 3665W        W 7865  10.022   0.161  10.854  0.0271  0.1401  0.0667
 3666W        W 7866   3.609   7.959  11.087  0.1867 -0.1211 -0.1411
 3667W        W 7867   8.231   8.471   2.215 -0.3161 -0.0262 -0.1739
 3668W        W 7868   3.551   2.618   4.402  0.2324  0.0631 -0.2789
 3669W        W 7869   0.831   3.047   4.667 -0.1445 -0.0882 -0.0850
 3670W        W 7870   7.075   2.267   2.261 -0.3593 -0.3991  0.1205
 3671W        W 7871   4.419   8.028   4.228 -0.1074 -0.2937 -0.2917
 3672W        W 7872   9.401  10.303  12.655  0.2655  0.0690 -0.0454
 3673W        W 7873   3.514   8.480   4.346  0.1172  0.1607  0.1555
 3674W        W 7874   7.961   9.330   2.321 -0.0482 -0.2123  0.1974
 3675W        W 7875   2.819   4.987   3.707  0.1586 -0.3093 -0.0928
 3676W        W 7876   1.092   4.527   2.588 -0.2792 -0.0484  0.3175
 3677W        W 7877   1.121   1.944  11.087 -0.0410 -0.0223  0.0626
 3678W        W 7878   9.967   1.743  11.333  0.1481  0.0678 -0.0025
 3679W        W 7879   9.085   2.278   2.081 -0.2464  0.1382 -0.1558
 3680W        W 7880  10.361   2.725   3.044 -0.1979  0.0844  0.0247
 3681W        W 7881   0.181   6.552  10.379 -0.0966  0.0405 -0.0050
 3682W        W 7882   9.258   6.427  12.538 -0.0044 -0.1509  0.0236
 3683W        W 7883   3.329   0.686  12.060  0.0221  0.1447  0.1295
 3684W        W 7884   7.340   3.793  10.093 -0.0511 -0.0333 -0.4317
 3685W        W 7885   8.638   6.709  11.661 -0.1027 -0.1881 -0.0389
 3686W        W 7886   9.993   4.661   0.058 -0.1451 -0.0192  0.2597
 3687W        W 7887   9.792   2.664   0.071  0.2111 -0.0627  0.1690
 3688W        W 7888   0.063   8.050   9.998  0.2002 -0.0589  0.2200
 3689W        W 7889   1.939   0.199   4.429  0.1320 -0.3317 -0.1648
 3690W        W 7890   5.673   3.956   4.568  0.0740 -0.1647 -0.0116
 3691W        W 7891   0.771   0.995  10.192 -0.0746 -0.0516  0.5210
 3692W        W 7892   2.187   0.842   0.134  0.0608 -0.0982 -0.1426
 3693W        W 7893   1.730   5.805   1.597  0.1357  0.1039 -0.1022
 3694W        W 7894   1.009   6.607   2.876 -0.2100  0.0799 -0.1287
 3695W        W 7895   4.109   8.037  10.971  0.1319  0.3119 -0.2344
 3696W        W 7896   0.130   5.684   3.716 -0.1408  0.1034 -0.0035
 3697W        W 7897   6.786   1.793   1.522 -0.0010 -0.1259 -0.1163
 3698W        W 7898   7.131   4.452   3.400  0.0567  0.1296 -0.3177
 3699W        W 7899   7.201   5.410   0.358  0.1671  0.0454  0.2978
 3700W        W 7900   2.505   8.569  11.115 -0.1153  0.0517 -0.0881
 3701W        W 7901   7.400  10.264   3.858 -0.2343 -0.1500 -0.2526
 3702W        W 7902   7.877   5.532  12.017 -0.0490  0.2779 -0.0042
 3703W        W 7903   0.530   6.321  11.436  0.1153 -0.1908 -0.1394
 3704W        W 7904   7.398   8.244   0.292  0.0035 -0.3529  0.0100
 3705W        W 7905   2.123   5.330   9.611  0.0241 -0.2952 -0.2613
 3706W        W 7906   9.337   6.460  10.480 -0.1054  0.2470 -0.2340
 3707W        W 7907   3.256   8.432   9.796 -0.1873 -0.1040  0.1440
 3708W        W 7908   9.573   0.013   1.853 -0.1564  0.0691 -0.2416
 3709W        W 7909   3.788   4.982   9.283  0.0131  0.0176 -0.0250
 3710W        W 7910   2.162   2.022  10.105 -0.0789  0.4569 -0.0508
 3711W        W 7911   8.705   0.455  13.170  0.2932  0.1522  0.1089
 3712W        W 7912   4.779   6.832   0.602  0.2036 -0.0258  0.1449
 3713W        W 7913   4.510   9.458   5.227 -0.1468  0.2450  0.1895
 3714W        W 7914   6.323   7.428   3.392  0.2989  0.3742  0.3991
 3715W        W 7915   3.074   9.334  13.004 -0.1758 -0.2098  0.0528
 3716W        W 7916   2.726   1.887   8.930 -0.3678  0.0491 -0.1024
 3717W        W 7917   2.420   8.062   0.473 -0.2555 -0.2883  0.3138
 3718W        W 7918   2.968   2.621   1.582 -0.2462 -0.2023  0.0837
 3719W        W 7919   9.271   7.892   3.261 -0.0961 -0.0420  0.2272
 3720W        W 7920   0.438   3.080  10.651 -0.5122  0.1378  0.2654
 3721W        W 7921   3.145   8.123  13.257 -0.0979 -0.3777 -0.0712
 3722W        W 7922   8.891   5.952   2.489  0.2820  0.1810 -0.2738
 3723W        W 7923   3.168   1.010   1.397  0.1411  0.0795  0.0701
 3724W        W 7924  10.147   8.415   3.434 -0.1250  0.0348  0.0968
 3725W        W 7925   5.011   9.533   3.064  0.2651  0.0468 -0.2503
 3726W        W 7926   8.862   9.235   0.017 -0.1466  0.1092  0.3367
 3727W        W 7927   2.635   8.680  11.637 -0.1933 -0.1147  0.1156
 3728W        W 7928   3.677   9.143  10.040 -0.1022 -0.3314 -0.0631
 3729W        W 7929   7.732   2.942  12.037  0.3251 -0.2344  0.2816
 3730W        W 7930   3.904   6.966  11.840  0.2006  0.0446  0.0428
 3731W        W 7931   6.922   4.132  10.076  0.2029  0.1148  0.0402
 3732W        W 7932   8.904   6.583   1.940 -0.1568  0.0567 -0.0300
 3733W        W 7933   3.335   7.689  10.347  0.0514 -0.3335 -0.2718
 3734W        W 7934   7.139   5.206   4.126 -0.1748 -0.0970 -0.0452
 3735W        W 7935   0.192   1.859   0.264  0.1010  0.1964 -0.1194
 3736W        W 7936   1.298   4.103   2.655  0.0958 -0.1168 -0.0221
 3737W        W 7937   4.451   8.024   3.115  0.1185 -0.2004  0.2190
 3738W        W 7938   5.147   0.139  10.307 -0.1119  0.1710 -0.1386
 3739W        W 7939   8.986  10.002   9.243 -0.0494  0.2307  0.1055
 3740W        W 7940   6.083   1.736  10.127  0.2216  0.3538 -0.0030
 3741W        W 7941   7.479   4.438  12.812 -0.2196  0.0111  0.0146
 3742W        W 7942   2.997   8.129   4.831  0.0402  0.5115 -0.0973
 3743W        W 7943   1.344   2.765   1.500  0.1400  0.0521 -0.2331
 3744W        W 7944   1.132   3.405   1.950 -0.1749  0.1236 -0.0283
 3745W        W 7945   9.089   7.971   0.291  0.1155  0.1828  0.2236
 3746W        W 7946   9.704   1.282  10.649  0.3359 -0.0764  0.0327
 3747W        W 7947   2.930   1.332   2.258 -0.0264 -0.3018  0.1526
 3748W        W 7948   9.537   7.075  13.133 -0.2393  0.3524  0.1157
 3749W        W 7949   9.266   9.283   0.695  0.1127  0.2865  0.1466
 3750W        W 7950   7.384   2.972   9.871  0.1960 -0.0013 -0.1266
 3751W        W 7951   4.054   7.353  10.589 -0.2982 -0.1020  0.0548
 3752W        W 7952   8.775   0.898   9.618 -0.2085 -0.2242 -0.1705
 3753W        W 7953   5.553   7.310   2.953  0.0760 -0.3367  0.1269
 3754W        W 7954   6.237   2.845   9.519  0.0064 -0.2388 -0.0073
 3755W        W 7955   6.089   6.751  10.653 -0.0884  0.0096  0.2926
 3756W        W 7956   6.548  10.146  12.813  0.1115  0.1283  0.0213
 3757W        W 7957  10.417   7.770   4.533  0.2050 -0.0499 -0.1531
 3758W        W 7958   8.082   1.780  12.526 -0.4264 -0.1313  0.1155
 3759W        W 7959   3.464   2.209   2.365  0.0051  0.4501 -0.3910
 3760W        W 7960   9.213   5.879   1.568 -0.2055  0.2248  0.4716
 3761W        W 7961   8.876   6.155  12.324 -0.0234 -0.0262  0.0317
 3762W        W 7962   5.837   9.551  10.761  0.0100  0.0028 -0.1422
 3763W        W 7963   4.241   9.836   3.499  0.0017 -0.0313  0.3613
 3764W        W 7964   3.534   0.100   4.244 -0.2012  0.1520 -0.1642
 3765W        W 7965   9.839   9.899  10.419  0.0846 -0.1532  0.1255
 3766W        W 7966   3.402   2.256   3.343 -0.1316  0.2161  0.4817
 3767W        W 7967   6.464   0.837  13.227 -0.1343 -0.1255 -0.0643
 3768W        W 7968   4.108   4.544  10.361 -0.0270 -0.0277  0.3073
 3769W        W 7969   7.935   8.481   0.039  0.0092 -0.3802 -0.1361
 3770W        W 7970   8.266   1.113   0.461 -0.2919 -0.2613 -0.0385
 3771W        W 7971   8.047   8.951   4.216 -0.1083  0.1619 -0.1601
 3772W        W 7972   4.723   5.562   2.017  0.1372  0.1412  0.1107
 3773W        W 7973   9.352   0.109  10.022 -0.2815  0.2583  0.2074
 3774W        W 7974   4.686   1.316   0.725  0.0937 -0.1598  0.0561
 3775W        W 7975   6.116   9.918   3.408  0.1250 -0.0725 -0.1755
 3776W        W 7976   7.724   6.972   1.531  0.2195 -0.0712  0.5665
 3777W        W 7977   4.743   7.730   4.052  0.3379 -0.2751  0.0703
 3778W        W 7978   5.385   7.733  11.518  0.1369 -0.0083 -0.5496
 3779W        W 7979   1.637  10.174   1.878  0.2517 -0.1552 -0.0717
 3780W        W 7980   0.492   5.192   2.083  0.1573 -0.1691 -0.0659
 3781W        W 7981   2.347   7.615  11.940  0.0956 -0.0228 -0.1834
 3782W        W 7982   7.347   2.658  11.993 -0.1643  0.2432  0.3836
 3783W        W 7983   0.900   6.893   9.336  0.0182  0.2206  0.0482
 3784W        W 7984   9.964   0.792   3.958  0.1918  0.2155  0.2221
 3785W        W 7985   4.440   7.716  10.887  0.2968 -0.3869  0.0720
 3786W        W 7986   8.547   1.861  13.356 -0.2975 -0.0136  0.0921
 3787W        W 7987   6.327   9.238  13.101  0.2847  0.0332 -0.2708
 3788W        W 7988   0.530   8.869   4.172  0.1540  0.2992  0.0240
 3789W        W 7989   6.587   8.954   9.721 -0.0010  0.0712  0.1424
 3790W        W 7990   1.834   6.432   4.900 -0.0693  0.1191 -0.0653
 3791W        W 7991   5.882   6.154   2.921  0.0036  0.0250 -0.0107
 3792W        W 7992   5.337   1.470  11.847 -0.2014  0.0528 -0.0444
 3793W        W 7993   2.021   3.354  10.510 -0.1484  0.0917  0.0470
 3794W        W 7994   0.931   7.913   3.945 -0.0610 -0.0286  0.1118
 3795W        W 7995   6.461   1.822   2.892 -0.0549  0.4926  0.0738
 3796W        W 7996   1.012   7.482   2.557 -0.1474  0.3577  0.1220
 3797W        W 7997   9.080   5.828  13.140 -0.3513 -0.1116 -0.1364
 3798W        W 7998   5.366   9.793  13.009  0.3224  0.3624  0.2257
 3799W        W 7999   9.324   9.176  10.633  0.3370  0.0726  0.0388
 3800W        W 8000   5.877   3.006  13.077  0.1957 -0.0884  0.0791
 3801W        W 8001   6.923   8.717   2.207  0.3153 -0.2086 -0.1570
 3802W        W 8002   1.446   5.977   0.332 -0.0911 -0.0361 -0.3019
 3803W        W 8003   3.492   8.484  13.239  0.2255  0.1931  0.0987
 3804W        W 8004   4.459   5.092  10.994  0.2425 -0.0704 -0.0316
 3805W        W 8005   9.494   4.237   0.610  0.0119 -0.1094  0.2134
 3806W        W 8006   5.943   5.362   9.200 -0.3874 -0.0936 -0.1703
 3807W        W 8007   7.596   5.309   3.979 -0.1241 -0.0113 -0.1377
 3808W        W 8008   5.590   0.136   5.058 -0.2136  0.2511  0.3078
 3809W        W 8009   3.658   3.695  12.792 -0.0260 -0.1423  0.0021
 3810W        W 8010   5.898   3.425  13.249 -0.3367  0.0840  0.0473
 3811W        W 8011   0.612   3.876  10.665 -0.3685  0.0027 -0.1048
 3812W        W 8012   1.802   6.420   0.356 -0.3616 -0.1736 -0.0524
 3813W        W 8013   6.372   0.964  10.696  0.0536 -0.2102 -0.0735
 3814W        W 8014   9.892   7.601   2.084  0.0460  0.0946  0.1047
 3815W        W 8015   1.203   9.702   3.660 -0.2080  0.0858 -0.0158
 3816W        W 8016   6.323  10.310  11.597  0.1121 -0.1077  0.0692
 3817W        W 8017   7.415   4.909  10.066  0.1436  0.0657  0.3833
 3818W        W 8018   3.321   3.132   1.084 -0.1653 -0.1424 -0.2690
 3819W        W 8019   8.499   3.172   2.599 -0.1374 -0.1484 -0.1270
 3820W        W 8020   6.629   6.691   9.830  0.1128 -0.1658  0.1759
 3821W        W 8021   7.612   8.641  11.432 -0.1109  0.1789 -0.0344
 3822W        W 8022   6.527   8.393   4.578  0.0596  0.0487 -0.0698
 3823W        W 8023   8.563   3.626  11.416  0.0240 -0.2567 -0.1196
 3824W        W 8024   5.426   8.557   0.138  0.1127  0.0578  0.2830
 3825W        W 8025   5.804   9.002   0.999  0.0543 -0.1170 -0.2344
 3826W        W 8026   2.612   9.115   2.614  0.0200 -0.2359 -0.1474
 3827W        W 8027   0.716  10.235  11.332 -0.0626  0.2132 -0.3095
 3828W        W 8028  10.370   4.019  11.925 -0.0069 -0.0702 -0.0133
 3829W        W 8029   4.130   1.228  11.370 -0.0266  0.1048  0.1919
 3830W        W 8030   2.794   0.648  10.965 -0.3068 -0.0437 -0.1936
 3831W        W 8031   3.395   7.538  11.317  0.2344 -0.0168  0.2063
 3832W        W 8032   6.278   9.136   8.192 -0.0594  0.3633  0.2037
 3833W        W 8033   9.928   7.567   4.337  0.1658  0.1866 -0.0553
 3834W        W 8034   8.403   6.454   9.233  0.5057 -0.1764  0.0247
 3835W        W 8035   4.928   6.360   3.176 -0.1614  0.4855 -0.0055
 3836W        W 8036  10.432   8.268  13.075  0.2692  0.0132  0.0755
 3837W        W 8037   2.132   2.975  10.210 -0.1248  0.2853 -0.0929
 3838W        W 8038   8.036   7.545   8.651 -0.2674  0.0982  0.0824
 3839W        W 8039   4.890   7.066  11.934 -0.1562  0.1891 -0.1673
 3840W        W 8040   3.435   8.131   0.223 -0.0646  0.0269 -0.2534
 3841W        W 8041   8.903   0.932  10.107 -0.1860  0.0094  0.1881
 3842W        W 8042   6.414   4.135   3.397  0.1664 -0.3122  0.2170
 3843W        W 8043   3.334   7.269  12.058 -0.0479  0.1277  0.1513
 3844W        W 8044   5.945   5.915   9.217  0.3266  0.0004  0.0835
 3845W        W 8045   7.724   3.642   2.061 -0.0978 -0.0559  0.0369
 3846W        W 8046   2.406   5.214   1.237  0.2309 -0.1389 -0.0635
 3847W        W 8047   9.834  10.141   2.674 -0.0199  0.1155 -0.1848
 3848W        W 8048   2.541   2.753   9.988 -0.0943  0.1314 -0.0113
 3849W        W 8049   4.414   4.762   0.010  0.0690  0.1069  0.1788
 3850W        W 8050   9.014   6.048  10.480 -0.1849 -0.1097  0.1486
 3851W        W 8051   2.840   8.737   1.214  0.0905 -0.0529 -0.0196
 3852W        W 8052   3.907   4.156   0.311 -0.0412 -0.0906  0.0855
 3853W        W 8053   9.950   9.563   9.335 -0.1500  0.0438  0.0461
 3854W        W 8054   0.303   4.555   1.798 -0.0019  0.2177 -0.1293
 3855W        W 8055   4.511   2.440   4.471  0.3172  0.0412 -0.1888
 3856W        W 8056   9.734   6.461  12.366  0.1036 -0.1160  0.3968
 3857W        W 8057   3.284   8.355  12.820 -0.1786  0.3263 -0.1021
 3858W        W 8058   6.625   8.442  10.555  0.1701  0.2143 -0.1416
 3859W        W 8059   2.690   6.589   2.258 -0.0872  0.0569  0.1531
 3860W        W 8060   0.668   6.325  12.014  0.0746 -0.1459  0.2218
 3861W        W 8061   3.967   6.279  13.379  0.1003  0.3715 -0.2448
 3862W        W 8062   7.899   7.922  10.707 -0.1410 -0.1466  0.1300
 3863W        W 8063   2.814   9.491   2.307 -0.0127 -0.0966 -0.4127
 3864W        W 8064   3.850   4.371   2.663  0.0863  0.0675  0.0678
 3865W        W 8065   3.858   2.471   2.691 -0.0394  0.2003  0.0529
 3866W        W 8066   0.213   5.116  13.032 -0.1788  0.0568 -0.1630
 3867W        W 8067   9.761   4.659  13.023  0.0677 -0.0984  0.1074
 3868W        W 8068   9.978   4.991   0.624  0.4385 -0.0816 -0.2836
 3869W        W 8069   9.676   7.352   4.982  0.1141  0.0567 -0.2663
 3870W        W 8070   7.107   4.516   0.927 -0.1849 -0.0096  0.0845
 3871W        W 8071   7.641   2.363   3.245 -0.1626 -0.0435 -0.0859
 3872W        W 8072   5.786   1.275  12.961  0.1904 -0.1450 -0.2090
 3873W        W 8073   3.836   4.205  12.957 -0.0261  0.2771  0.5435
 3874W        W 8074   3.259   3.532   0.031  0.0055 -0.0890  0.0066
 3875W        W 8075   4.019   2.093   3.599  0.1161  0.2877 -0.1805
 3876W        W 8076   5.789   5.739   4.190  0.1854 -0.3122  0.0994
 3877W        W 8077  10.303   6.234   0.011  0.5217 -0.1107 -0.1845
 3878W        W 8078   1.127   6.188   2.107  0.1981 -0.1519 -0.3605
 3879W        W 8079   9.933   9.221   0.128 -0.0056  0.1493 -0.0527
 3880W        W 8080   9.585   5.227   0.291 -0.1545  0.2869  0.1025
 3881W        W 8081   1.031   7.448  13.371 -0.2923  0.0107  0.2413
 3882W        W 8082   9.684   9.950   1.618  0.2612  0.1226  0.0004
 3883W        W 8083   4.900   6.050  13.309 -0.1229  0.1400 -0.0467
 3884W        W 8084   8.593   6.576   4.579  0.1902  0.2759  0.0405
 3885W        W 8085  10.057   3.024  13.121 -0.1981 -0.0256  0.1539
 3886W        W 8086   1.448   0.345   2.589  0.0454 -0.2531 -0.3368
 3887W        W 8087   3.189   4.289   4.499 -0.2585  0.6011  0.2010
 3888W        W 8088   4.170   4.338   9.884 -0.1911 -0.1748  0.2596
 3889W        W 8089   6.910   4.751  13.209 -0.2970 -0.0599 -0.2669
 3890W        W 8090   6.530   2.762  10.881  0.1559 -0.2387  0.3163
 3891W        W 8091   1.067   6.769   4.721  0.0655  0.5701 -0.0428
 3892W        W 8092   2.423   1.374   1.741  0.0803  0.0310  0.0551
 3893W        W 8093   7.340   3.858  13.340 -0.0992  0.1052  0.2389
 3894W        W 8094   6.654   4.601  11.606 -0.0601 -0.1314 -0.0601
 3895W        W 8095   1.523   8.849   1.681 -0.1217  0.0178  0.2094
 3896W        W 8096   9.620   2.863   3.258  0.3040 -0.0474  0.0580
 3897W        W 8097   9.306   3.404   3.529 -0.1609 -0.2170 -0.0706
 3898W        W 8098   6.511   0.962   9.759 -0.2256 -0.0797  0.1122
 3899W        W 8099   6.750   1.090   3.734  0.2426  0.0129 -0.3025
 3900W        W 8100   2.370   5.849  11.172 -0.1642  0.2003 -0.1014
 3901W        W 8101   5.312   1.545  12.890  0.0350  0.3098  0.0477
 3902W        W 8102   2.575   7.975   9.481  0.0889  0.0153 -0.0330
 3903W        W 8103   6.445   4.634   0.668 -0.2222  0.0671  0.0788
 3904W        W 8104   2.475   5.914  13.322 -0.0275  0.1101 -0.0670
 3905W        W 8105   5.785   5.842  10.433  0.0857  0.0289  0.0084
 3906W        W 8106   4.728   7.713   4.599 -0.3031  0.0652  0.3089
 3907W        W 8107   6.192   4.061   1.248  0.0941 -0.0693  0.1850
 3908W        W 8108   7.624  10.094  12.247  0.1342  0.1850  0.0465
 3909W        W 8109  10.008   4.248   0.366  0.2996 -0.1613  0.0987
 3910W        W 8110   1.039   8.132   9.458  0.2591 -0.0119 -0.0864
 3911W        W 8111   0.599  10.141   1.125 -0.0671 -0.0851  0.0781
 3912W        W 8112   0.227   6.280   1.908 -0.0668  0.2620 -0.0402
 3913W        W 8113   7.513   5.242  11.667 -0.0993 -0.2467 -0.0960
 3914W        W 8114   6.070   0.920   2.390  0.3099  0.0649 -0.0207
 3915W        W 8115   8.711   1.357   3.420 -0.3158  0.1291  0.0608
 3916W        W 8116   3.499   7.149   9.053 -0.1551 -0.2166  0.1462
 3917W        W 8117  10.268   3.789   2.311 -0.1158  0.0396 -0.3139
 3918W        W 8118   1.314   6.612  13.115  0.3877  0.1149 -0.2465
 3919W        W 8119   3.578   6.533  13.108 -0.1287 -0.0875  0.3149
 3920W        W 8120   3.557   3.012   0.558  0.2249  0.1382  0.1112
 3921W        W 8121  10.148   0.779  13.381  0.1044 -0.0637 -0.0525
 3922W        W 8122   4.577   3.649   0.698  0.0601  0.0372  0.1693
 3923W        W 8123   2.806   6.728   1.802 -0.0114  0.2823 -0.2972
 3924W        W 8124   6.913   9.432   9.888  0.0127  0.0302  0.0380
 3925W        W 8125   0.824   5.582  11.092 -0.0787  0.0774  0.1872
 3926W        W 8126   1.023   1.675   2.267 -0.2341  0.3149 -0.1746
 3927W        W 8127   7.040   2.076  11.000 -0.0538  0.1048  0.1351
 3928W        W 8128   3.225   1.048  11.733 -0.1044 -0.0549  0.1855
 3929W        W 8129   0.778   6.104   4.057  0.3677  0.2663 -0.1817
 3930W        W 8130   8.090  10.363   9.137 -0.3109  0.0524 -0.3893
 3931W        W 8131   8.350   0.891   3.600  0.1178  0.1237  0.1830
 3932W        W 8132   5.106   9.999   3.315  0.0804 -0.1758 -0.0947
 3933W        W 8133  10.410   6.562  12.614 -0.0044 -0.3501  0.3808
 3934W        W 8134   5.888   0.465  10.137  0.2627  0.0703 -0.1748
 3935W        W 8135   8.206   4.838  12.321  0.0943 -0.0643  0.1338
 3936W        W 8136   8.021   9.633   1.884  0.1735 -0.0775  0.0836
 3937W        W 8137   0.326   8.779   4.988  0.0631 -0.1652 -0.1468
 3938W        W 8138   7.237   7.506  11.194 -0.0913 -0.2077  0.0790
 3939W        W 8139   9.433   8.332   4.238 -0.0102 -0.2661  0.1383
 3940W        W 8140   1.720   1.969  12.686  0.0231 -0.0415 -0.1662
 3941W        W 8141   1.126   4.699   4.279  0.0270  0.0910  0.0324
 3942W        W 8142   5.869   8.538   9.892  0.2383  0.3198 -0.0461
 3943W        W 8143   6.587   5.980  13.334  0.0194  0.2236  0.1717
 3944W        W 8144   2.821   6.124  10.543 -0.0323 -0.0441  0.0727
 3945W        W 8145   7.709   4.622   1.663  0.0426 -0.1568 -0.0466
 3946W        W 8146   5.791   4.555   2.308  0.1652  0.0165 -0.0215
 3947W        W 8147   9.148   6.721  13.032  0.0032  0.0401 -0.2837
 3948W        W 8148   5.984   3.789  12.775  0.2015 -0.2162 -0.2946
 3949W        W 8149  10.186   8.489   2.915 -0.2499  0.0139  0.1996
 3950W        W 8150   9.069   6.120   2.015 -0.2683 -0.1464  0.1018
 3951W        W 8151   6.257   1.547  13.309  0.1327 -0.0100  0.0672
 3952W        W 8152   6.421   4.181   0.838 -0.2484  0.1497 -0.0372
 3953W        W 8153   1.200   9.868   3.113  0.2701  0.0334  0.1214
 3954W        W 8154   1.314   8.302   3.895  0.1124 -0.1627  0.1737
 3955W        W 8155  10.178   6.266   9.147  0.0402  0.0007  0.1784
 3956W        W 8156   2.179   3.233  13.317  0.0736 -0.0876  0.0735
 3957W        W 8157   0.627   5.837   3.596  0.0732 -0.2380  0.1202
 3958W        W 8158   2.888   7.688  10.166  0.0381 -0.0380 -0.2744
 3959W        W 8159   5.021   2.979   3.378  0.0195  0.1675  0.2046
 3960W        W 8160  10.130   4.533   2.527  0.0587  0.3231 -0.0063
 3961W        W 8161   3.245   4.007  11.137 -0.0341 -0.4381  0.0849
 3962W        W 8162   8.469  10.167  11.907 -0.0926  0.1185 -0.2526
 3963W        W 8163   2.544   3.118   3.502 -0.0060  0.0319  0.2510
 3964W        W 8164   7.250   7.716   9.166  0.1109  0.0695 -0.0578
 3965W        W 8165   4.031   1.653  11.132  0.2605 -0.0431  0.1533
 3966W        W 8166   2.107   7.046  10.247  0.1274 -0.1271 -0.0184
 3967W        W 8167  10.262   3.786   3.243 -0.3126 -0.0460 -0.2136
 3968W        W 8168   6.914   0.368  11.539  0.1103  0.1236  0.4365
 3969W        W 8169   2.196   2.843   3.327  0.1594  0.2227  0.0047
 3970W        W 8170   2.284   7.449   3.783  0.0028 -0.1333 -0.1335
 3971W        W 8171   2.734   4.256  10.287 -0.2590  0.0281 -0.2689
 3972W        W 8172   0.109   6.419   1.093  0.0419 -0.1972 -0.2006
 3973W        W 8173   8.622   5.864  13.277  0.1532  0.0037 -0.2756
 3974W        W 8174   2.253   3.353   4.162  0.0175 -0.2183  0.1086
 3975W        W 8175  10.021   5.424  12.798  0.1025 -0.1384 -0.0174
 3976W        W 8176   0.521   5.431   3.968 -0.0698  0.1448  0.0625
 3977W        W 8177   3.420   6.572   1.820  0.1290  0.1692 -0.0610
 3978W        W 8178   6.422   2.551   4.204 -0.0807 -0.0652  0.0431
 3979W        W 8179   0.835   7.541  10.369  0.0693  0.2749 -0.1002
 3980W        W 8180   9.716   8.369   8.342  0.1743  0.1955 -0.0157
 3981W        W 8181   5.344   6.698  12.806  0.1710 -0.2580  0.1421
 3982W        W 8182   9.290   4.703   0.703  0.1898  0.1871  0.0210
 3983W        W 8183   8.170   9.793   9.984  0.2408 -0.1669 -0.1501
 3984W        W 8184   8.378   8.240   3.643  0.0168  0.0451  0.0946
 3985W        W 8185   5.680   2.338   0.745  0.0685 -0.1552 -0.0448
 3986W        W 8186   4.117   9.911  11.141 -0.1476 -0.0140  0.1556
 3987W        W 8187   5.689   6.018  13.326 -0.1672  0.0068  0.0973
 3988W        W 8188   2.012  10.019   3.312  0.0519  0.0400 -0.0740
 3989W        W 8189   3.580   0.422   8.759 -0.0804  0.1427 -0.0391
 3990W        W 8190   1.547   5.034   4.497  0.4064 -0.0840  0.1402
 3991W        W 8191   4.923   2.822  11.070  0.1008  0.1821 -0.0403
 3992W        W 8192   6.544   5.806   3.676  0.0584  0.0664 -0.0297
 3993W        W 8193   4.616   2.256   9.148 -0.0316  0.0445 -0.0095
 3994W        W 8194   1.835   5.550   4.477  0.0439  0.0986 -0.1726
 3995W        W 8195   2.151   8.271   2.700 -0.0131  0.0281 -0.1471
 3996W        W 8196   2.388  10.302   3.534  0.1086  0.1153  0.2333
 3997W        W 8197   4.862   7.517   2.301 -0.1071 -0.2460  0.2006
 3998W        W 8198   5.509   7.455  11.084  0.4339  0.0001 -0.0191
 3999W        W 8199   0.311   9.243  13.100 -0.0981 -0.1387 -0.2821
 4000W        W 8200   1.357   5.020  11.789 -0.0651  0.2538 -0.1638
 4001W        W 8201   0.946   6.505   0.574  0.1333  0.2305  0.0668
 4002W        W 8202   3.864   9.238  11.691 -0.3693  0.0442  0.1716
 4003W        W 8203   4.088   0.335   2.205 -0.0738 -0.0719 -0.0024
 4004W        W 8204   0.824   4.367   1.772 -0.1933 -0.0250 -0.2610
 4005W        W 8205   3.051   9.076   2.109  0.2266  0.0453  0.0976
 4006W        W 8206   4.904   8.072   0.734 -0.1708  0.0186 -0.1819
 4007W        W 8207   2.338   2.107   0.559 -0.1977  0.0284 -0.0657
 4008W        W 8208   8.941   7.147  12.351  0.3189  0.2240  0.1984
 4009W        W 8209   5.748   3.866   1.072  0.1114 -0.0436 -0.1703
 4010W        W 8210   7.306   9.453  11.541 -0.0087  0.2571  0.0966
 4011W        W 8211   4.815   1.587  10.667  0.1241  0.0672 -0.1881
 4012W        W 8212   8.930   7.355   0.912  0.1148  0.0781  0.1516
 4013W        W 8213   7.799   2.351   4.228 -0.2162  0.0269 -0.1378
 4014W        W 8214   4.125   7.299  11.546 -0.2371 -0.3024  0.3327
 4015W        W 8215  10.439   4.822  13.298  0.0883  0.0367  0.2917
 4016W        W 8216   0.045   8.936  12.916  0.2036  0.3210  0.0837
 4017W        W 8217   6.573   1.643  12.866 -0.1070  0.0080  0.1218
 4018W        W 8218  10.392   0.709  12.832 -0.0979 -0.0372  0.0280
 4019W        W 8219   7.469   9.003   9.544  0.0638  0.1639  0.2459
 4020W        W 8220   9.065   8.770   9.859 -0.3062  0.2659  0.2719
 4021W        W 8221   3.326   5.111   2.998  0.0700  0.3043  0.1348
 4022W        W 8222   0.559   7.596  12.138 -0.1264 -0.0578 -0.2475
 4023W        W 8223   1.561   7.573   4.910  0.0726  0.2875 -0.5082
 4024W        W 8224   3.217   7.816  12.876 -0.4047 -0.0229 -0.0450
 4025W        W 8225   8.600   8.384   9.008 -0.2114  0.0338 -0.0810
 4026W        W 8226   5.203   0.950  10.629 -0.4490  0.3128 -0.0101
 4027W        W 8227   7.202   7.352   3.128 -0.1684 -0.0298  0.0784
 4028W        W 8228   9.876   9.994   3.172  0.1738  0.4172 -0.0569
 4029W        W 8229   0.261   4.502   0.752 -0.0651 -0.1543 -0.2018
 4030W        W 8230   2.316   3.737   4.622  0.0164  0.1564 -0.2047
 4031W        W 8231   8.029   0.514   0.816  0.0210  0.3329 -0.0429
 4032W        W 8232   1.243  10.320   0.499  0.1062 -0.0405  0.2834
 4033W        W 8233   7.470   6.437   3.031  0.1473  0.1331  0.2107
 4034W        W 8234   3.700   6.980   2.058  0.2841 -0.1297 -0.0820
 4035W        W 8235   1.126   8.064   2.928 -0.1678 -0.0897 -0.0247
 4036W        W 8236   8.308  10.160   1.103 -0.0707 -0.0058  0.0316
 4037W        W 8237   6.285   4.387  11.980 -0.3303 -0.0004  0.3163
 4038W        W 8238   0.028   9.334  10.290  0.1046  0.1292  0.2246
 4039W        W 8239   4.829   9.494   1.457 -0.1542 -0.0565  0.1674
 4040W        W 8240   8.925   2.739  13.201 -0.1007 -0.1757  0.0071
 4041W        W 8241   5.350   6.659   0.543  0.2033 -0.1261 -0.1806
 4042W        W 8242   9.166   4.873   1.751 -0.4815 -0.2822  0.0371
 4043W        W 8243   6.418   1.719   4.833 -0.2460 -0.1738  0.1807
 4044W        W 8244   4.487   1.548   8.577 -0.2089 -0.2453 -0.0040
 4045W        W 8245   0.551   6.176   1.267 -0.0948  0.0462  0.0352
 4046W        W 8246   8.556   4.830  10.718 -0.0276 -0.3498 -0.0724
 4047W        W 8247   1.441   2.197   0.280 -0.2442 -0.0343 -0.0292
 4048W        W 8248   3.410   2.241  10.825  0.1073  0.0773 -0.4027
 4049W        W 8249   0.133   9.348   9.244 -0.1373 -0.1129  0.2086
 4050W        W 8250   1.486   5.534   3.746 -0.1961  0.1087 -0.0613
 4051W        W 8251   4.433   5.258  13.371  0.0601  0.1139 -0.0320
 4052W        W 8252   0.198   4.903  10.944  0.1895  0.2710 -0.1767
 4053W        W 8253   4.946   6.052   4.297 -0.0364  0.3581 -0.2061
 4054W        W 8254  10.122   6.594  11.304  0.1057 -0.1777  0.2582
 4055W        W 8255   6.205   7.250   0.355 -0.0381  0.0059 -0.2280
 4056W        W 8256   8.930   9.626  13.100  0.1347 -0.1282  0.0151
 4057W        W 8257   2.547   4.935  12.747 -0.1856  0.2199  0.0791
 4058W        W 8258   5.380   7.867   1.583 -0.2636  0.1196  0.0279
 4059W        W 8259   5.434   8.435   1.582  0.0293  0.0497 -0.3373
 4060W        W 8260   6.407   0.891  11.307 -0.0761 -0.0804 -0.1983
 4061W        W 8261   3.092   8.825  13.059  0.1959 -0.1986 -0.1942
 4062W        W 8262   1.558   2.394   1.188 -0.1472 -0.0944  0.0159
 4063W        W 8263   3.527   8.557   3.081 -0.1774 -0.0318  0.4033
 4064W        W 8264   0.525   7.469  10.715 -0.0023  0.0802 -0.0177
 4065W        W 8265   8.077   5.473   2.749  0.0621  0.1799  0.0124
 4066W        W 8266   2.441   2.166   3.253 -0.1947 -0.0317 -0.0981
 4067W        W 8267   1.230   5.668  11.631  0.0343  0.0856 -0.4407
 4068W        W 8268   5.169   6.666   1.786 -0.2027 -0.2096  0.3849
 4069W        W 8269   7.417   0.671   0.952 -0.1687  0.1232 -0.2354
 4070W        W 8270   8.577   9.590   1.767 -0.0857 -0.2137  0.1744
 4071W        W 8271   1.069   3.750   2.331 -0.0839 -0.3171 -0.2329
 4072W        W 8272   7.167   1.834   1.831  0.0650  0.1838  0.2823
 4073W        W 8273   6.972   3.533   1.247  0.1501 -0.4547 -0.0775
 4074W        W 8274   0.228   3.763   1.244  0.2469 -0.2337  0.0182
 4075W        W 8275  10.291   5.768   0.182  0.0149 -0.3187 -0.1700
 4076W        W 8276   5.768   9.544   0.995 -0.0023  0.2438  0.0263
 4077W        W 8277   3.906   4.785   2.038  0.1859 -0.0392 -0.2469
 4078W        W 8278   0.032   8.920  10.901  0.1631  0.0561  0.0606
 4079W        W 8279   7.669   6.604   4.030  0.1777 -0.2112 -0.1751
 4080W        W 8280   1.671   5.915  12.766 -0.0542 -0.1610  0.0228
 4081W        W 8281   3.433   3.289  12.476  0.0018  0.2361 -0.0490
 4082W        W 8282   5.216   5.458   2.908  0.1666 -0.2254 -0.0570
 4083W        W 8283   2.645   2.220  13.067  0.2888  0.1419  0.1240
 4084W        W 8284   3.470   6.276   2.230  0.0578  0.4410  0.0332
 4085W        W 8285   6.389   0.125  12.620 -0.0872  0.2062 -0.5494
 4086W        W 8286   6.662   3.907  13.312  0.0112 -0.2209  0.1444
 4087W        W 8287   2.540   7.262  10.844 -0.1814 -0.1278  0.1249
 4088W        W 8288   6.628   0.404  11.006  0.1171 -0.1145  0.3951
 4089W        W 8289   1.929   5.228   3.572 -0.4251 -0.2254  0.5461
 4090W        W 8290   2.205   3.172  11.196  0.2541 -0.2764  0.1274
 4091W        W 8291   0.805   5.790   4.972 -0.0210 -0.0171  0.0771
 4092W        W 8292   7.429   6.469  10.431 -0.1819  0.4106 -0.0273
 4093W        W 8293   1.790   5.887   2.567  0.2326  0.0642  0.2963
 4094W        W 8294   8.924   7.031  11.886  0.1939  0.0690  0.1661
 4095W        W 8295   7.289   4.455  10.991  0.0786  0.0420  0.1777
 4096W        W 8296   4.130   5.779  12.486  0.0351  0.0524  0.0599
 4097W        W 8297   4.826   5.136  13.063 -0.2291  0.4736 -0.2642
 4098W        W 8298   3.547   2.022   0.816 -0.2387 -0.0422  0.1261
 4099W        W 8299   0.179   2.449  10.643 -0.3250  0.0703 -0.2235
 4100W        W 8300   5.619   1.103   4.771 -0.1020 -0.1002 -0.0705
 4101W        W 8301   6.456   6.715   0.899 -0.1370 -0.2190  0.2192
 4102W        W 8302   4.288   0.512  11.878 -0.0262  0.1844 -0.1378
 4103W        W 8303   9.468   8.705   8.657 -0.4173  0.0676 -0.1244
 4104W        W 8304   8.872  10.373   3.006 -0.1367  0.2796 -0.0495
 4105W        W 8305   7.522  10.282  12.982  0.0697  0.0725 -0.0644
 4106W        W 8306   3.165  10.315   0.160  0.0048 -0.0322  0.0344
 4107W        W 8307   6.945   6.195   9.189  0.0851 -0.1054  0.1331
 4108W        W 8308   0.660   3.195   1.140  0.0347  0.2797 -0.0129
 4109W        W 8309   1.023   1.655   0.742 -0.1766  0.1834 -0.2101
 4110W        W 8310   3.263   7.749  10.868  0.2151  0.3673 -0.1567
 4111W        W 8311   4.756   6.409   1.554 -0.0374  0.0196  0.0530
 4112W        W 8312   3.351   4.895   3.835 -0.1078 -0.1173 -0.1527
 4113W        W 8313   3.997   3.399   1.753 -0.0264 -0.4738 -0.2527
 4114W        W 8314   2.588   7.891  12.913 -0.0013  0.1371  0.0741
 4115W        W 8315   3.093   8.309   1.104  0.0539 -0.1494  0.0158
 4116W        W 8316   4.467   3.333   4.410 -0.3290 -0.0757 -0.2462
 4117W        W 8317   7.333   7.902  10.882 -0.3638  0.4486  0.1141
 4118W        W 8318   1.322   5.298   2.468  0.0610  0.0864 -0.0448
 4119W        W 8319   1.000   8.105   1.127 -0.0405  0.0863  0.0930
 4120W        W 8320   9.761   0.973  12.909 -0.0624  0.0385 -0.2744
 4121W        W 8321   7.674  10.185   0.165 -0.5132  0.0260  0.3252
 4122W        W 8322   5.849   1.955   3.612  0.1193 -0.0474 -0.0067
 4123W        W 8323   5.052   0.326   0.293 -0.0242  0.2259  0.1377
 4124W        W 8324   3.598   9.021   3.378  0.0429  0.0918  0.2345
 4125W        W 8325   2.868   8.592  10.749  0.0041  0.0018  0.1180
 4126W        W 8326   4.013   7.395   0.659  0.3101 -0.0777  0.4155
 4127W        W 8327   7.147  10.268   1.978  0.5101 -0.0596  0.0283
 4128W        W 8328   3.295   2.972   1.992  0.2696 -0.1551 -0.1429
 4129W        W 8329   0.773   7.882   1.532  0.0366  0.1150  0.1434
 4130W        W 8330  10.257   9.914  11.898 -0.0545 -0.2061 -0.1366
 4131W        W 8331   2.886   7.010   2.642 -0.0063  0.0215 -0.1716
 4132W        W 8332   4.886   4.675  13.266 -0.0661 -0.1486  0.1175
 4133W        W 8333   8.693   5.668   3.373 -0.0072  0.2023 -0.0207
 4134W        W 8334   6.589   7.572   3.799  0.0569  0.0500  0.1981
 4135W        W 8335   5.618   7.454  10.351 -0.1588 -0.2498  0.1360
 4136W        W 8336   2.184   6.560   4.443  0.2208  0.0163 -0.0465
 4137W        W 8337   8.763   5.634   1.772 -0.1476  0.0094 -0.1232
 4138W        W 8338  10.001   8.350   0.096 -0.1215  0.0858  0.0649
 4139W        W 8339   0.155   2.903  11.020 -0.1472 -0.1227 -0.0934
 4140W        W 8340   3.197   0.529   9.983  0.0907  0.0924 -0.1188
 4141W        W 8341   7.412   2.654   4.159 -0.1702  0.0481 -0.1451
 4142W        W 8342   1.280   9.418   9.884  0.0493 -0.4339  0.2015
 4143W        W 8343  10.034   5.072  13.157  0.1899  0.0565 -0.2843
 4144W        W 8344   8.722   2.566  10.247 -0.2776 -0.1368 -0.1291
 4145W        W 8345   1.155   2.781   1.982  0.1203  0.4472  0.0486
 4146W        W 8346   5.624   8.734   1.956 -0.2862 -0.0402  0.3930
 4147W        W 8347   0.171   8.505   9.815 -0.0765 -0.1401  0.1915
 4148W        W 8348   1.479   9.087   9.450  0.4660 -0.0708  0.1219
 4149W        W 8349   1.448   8.373   0.249 -0.2179 -0.1686  0.0156
 4150W        W 8350   7.084   0.454   3.011 -0.1373  0.1828 -0.3131
 4151W        W 8351   6.537   9.002   4.073  0.1049  0.1747  0.3956
 4152W        W 8352   1.408   8.881   3.011 -0.2778  0.1702 -0.0122
 4153W        W 8353  10.342   7.360   5.039 -0.0504  0.0080 -0.2361
 4154W        W 8354   4.226   0.424   3.678  0.1726  0.1636 -0.0328
 4155W        W 8355   1.182   5.155   2.009 -0.1440  0.0444  0.0777
 4156W        W 8356  10.475   4.361  10.230 -0.0242  0.1291  0.4785
 4157W        W 8357   3.509   4.137   9.904  0.0952 -0.1942 -0.2770
 4158W        W 8358   0.452   6.553   9.415  0.0102 -0.1039 -0.0904
 4159W        W 8359   7.511   5.037   2.196 -0.0498  0.3230 -0.0685
 4160W        W 8360   8.119   5.457   0.768 -0.1034  0.1122 -0.2962
 4161W        W 8361   2.441   9.103  11.428  0.0549  0.0127 -0.0026
 4162W        W 8362  10.358  10.119  13.340 -0.0310 -0.3662  0.0244
 4163W        W 8363   6.672   1.279  11.564  0.2799  0.1036 -0.2622
 4164W        W 8364   6.444   8.237  12.448 -0.2231 -0.0319 -0.1268
 4165W        W 8365   6.937   7.107  10.486  0.0423 -0.1413  0.0188
 4166W        W 8366   5.467   0.618  10.267  0.3491  0.2961  0.0330
 4167W        W 8367   8.606   3.101   1.379 -0.2535  0.0754 -0.6087
 4168W        W 8368   0.480   6.022   9.390 -0.1332 -0.1724  0.0256
 4169W        W 8369   8.543   6.148   4.245  0.3917 -0.3271  0.0340
 4170W        W 8370   0.824   0.480   3.967  0.0109 -0.0982 -0.0188
 4171W        W 8371   1.648   3.144   2.538  0.0913 -0.0140  0.2247
 4172W        W 8372   4.921   1.362   4.137 -0.1711 -0.0052  0.0083
 4173W        W 8373   5.781   8.320  11.161  0.0722  0.2627 -0.4542
 4174W        W 8374   5.726   3.049   1.804 -0.0353 -0.0335 -0.0905
 4175W        W 8375   3.621   7.230   0.198  0.0497 -0.0625 -0.0184
 4176W        W 8376   8.560   6.050   2.014 -0.0558 -0.1312  0.0980
 4177W        W 8377   6.293   2.701   9.060 -0.0887 -0.0632 -0.2800
 4178W        W 8378   4.595   6.436  10.438  0.1770  0.1854 -0.0659
 4179W        W 8379   5.705   0.326   0.599  0.1475  0.2194  0.1990
 4180W        W 8380   6.965   5.384   4.603 -0.0004 -0.0173  0.0602
 4181W        W 8381   4.606   8.862   1.254  0.1347 -0.0155 -0.3049
 4182W        W 8382   8.931   4.905  13.339  0.1222  0.1426  0.1146
 4183W        W 8383   1.555   7.512  13.324  0.0447  0.3463  0.0131
 4184W        W 8384   9.413   9.323   3.617  0.2449 -0.0083 -0.0433
 4185W        W 8385   1.403   1.525  10.440  0.0048  0.1622  0.3978
 4186W        W 8386   6.469   3.907  10.108 -0.0128 -0.0001  0.0399
 4187W        W 8387   8.264   5.750  11.683 -0.1567 -0.0880  0.2244
 4188W        W 8388   8.928   9.955   0.071 -0.1152 -0.2848 -0.1980
 4189W        W 8389   4.807   7.459   9.203 -0.3570 -0.3424 -0.2415
 4190W        W 8390   3.346   3.682   2.643 -0.0957 -0.1959  0.1085
 4191W        W 8391   1.847   9.015  10.672  0.2349  0.0169 -0.0416
 4192W        W 8392   8.721   2.638   0.755  0.1686 -0.1538 -0.1142
 4193W        W 8393   2.222   1.118  12.347 -0.2221  0.1864  0.1756
 4194W        W 8394   8.278   3.175   3.943 -0.1106 -0.1792  0.0028
 4195W        W 8395   8.107  10.463   0.765  0.0218 -0.2885 -0.1648
 4196W        W 8396   7.478   2.138   1.041 -0.3880  0.0345  0.1391
 4197W        W 8397   9.890   2.170   1.340  0.1769 -0.1617  0.0118
 4198W        W 8398   2.275   4.738  12.344 -0.0859  0.2062  0.1068
 4199W        W 8399   4.288   9.320   3.627  0.3172 -0.1735  0.3419
 4200W        W 8400   5.751   1.012   1.965 -0.3919  0.1225  0.1703
 4201W        W 8401   1.576   3.700   1.159  0.2241  0.2900 -0.0814
 4202W        W 8402   2.192   7.534  12.607 -0.0320  0.0400 -0.1114
 4203W        W 8403   1.316   3.043  11.673  0.0686 -0.2159 -0.0622
 4204W        W 8404   7.083   4.438  11.472  0.0048  0.0465 -0.0081
 4205W        W 8405   8.424   5.145   0.593  0.0481  0.0623  0.0929
 4206W        W 8406   1.636   6.234  10.288 -0.0404  0.2685 -0.0966
 4207W        W 8407   8.679   3.451  10.938  0.1227 -0.1946 -0.1200
 4208W        W 8408   5.422   6.219  10.401 -0.2835 -0.3406 -0.0800
 4209W        W 8409   2.372   6.182   9.304  0.2905 -0.3579 -0.0340
 4210W        W 8410   9.958   3.469  11.053  0.1781  0.1000 -0.2111
 4211W        W 8411   5.891   1.515   4.970 -0.0573 -0.0058  0.0783
 4212W        W 8412   3.458   1.964   2.930  0.1860 -0.0343  0.1229
 4213W        W 8413   4.423  10.409   9.650  0.0646  0.2109  0.0903
 4214W        W 8414   9.083  10.412   2.114  0.2835 -0.0327  0.0253
 4215W        W 8415   8.720   4.355  11.904  0.1473  0.1220  0.1570
 4216W        W 8416   6.805   8.010  11.453  0.0246  0.4904  0.2109
 4217W        W 8417   5.984   9.403  10.235 -0.1525 -0.0607  0.1731
 4218W        W 8418   1.981   6.297  12.458 -0.1116  0.0893 -0.7045
 4219W        W 8419   2.114   2.617  12.086 -0.2215  0.0140  0.0634
 4220W        W 8420   7.017   2.163  10.483  0.0142  0.2958 -0.0885
 4221W        W 8421   2.806   4.724  10.214 -0.4456 -0.0759 -0.2237
 4222W        W 8422   4.503   9.475   1.907  0.1524 -0.1013  0.0924
 4223W        W 8423   7.168   2.622  13.287  0.3015 -0.0384 -0.1331
 4224W        W 8424   8.502   3.594  13.060  0.4266  0.0313  0.2133
 4225W        W 8425   7.168   5.796   1.145 -0.1375  0.1377 -0.1249
 4226W        W 8426   4.038   3.142   0.259  0.1508 -0.1938 -0.0214
 4227W        W 8427   2.286   3.305   9.363 -0.3180 -0.4882 -0.2718
 4228W        W 8428   4.022   5.514   1.788  0.0863  0.2762 -0.2711
 4229W        W 8429   6.985   1.786   2.476 -0.3533  0.1587 -0.0581
 4230W        W 8430   9.137   4.532   0.245  0.0973  0.2320  0.4004
 4231W        W 8431   7.359   9.415   3.503 -0.0339 -0.0227  0.1775
 4232W        W 8432   5.869   9.363   3.167 -0.0732  0.0954  0.1861
 4233W        W 8433  10.194   0.245   8.938  0.0947  0.0247  0.1082
 4234W        W 8434   2.941   3.337  10.007 -0.1471 -0.1932  0.1435
 4235W        W 8435   2.190   8.255   2.051 -0.0182 -0.2398 -0.1930
 4236W        W 8436   5.466   9.928   8.216  0.2226  0.4541  0.0777
 4237W        W 8437   9.087   5.353   4.284 -0.0151  0.0369  0.0106
 4238W        W 8438   4.708   8.651   2.142 -0.1279  0.0594  0.0586
 4239W        W 8439   3.611   5.018   0.625  0.0656 -0.0148 -0.0669
 4240W        W 8440   3.807   8.782   0.782 -0.2136  0.3457 -0.0195
 4241W        W 8441   6.842   2.571  11.862 -0.1592  0.1249 -0.0264
 4242W        W 8442   7.326   0.519   4.217 -0.1016 -0.0696 -0.1950
 4243W        W 8443   2.088   1.745   3.221 -0.5169 -0.0502  0.3167
 4244W        W 8444   8.890   2.377   0.315  0.1748 -0.0788 -0.2843
 4245W        W 8445   4.705   2.490   2.629  0.1528 -0.1935  0.1228
 4246W        W 8446   6.098   1.380   0.819  0.2710  0.0701  0.0792
 4247W        W 8447   5.011  10.122  12.177  0.2555  0.2255  0.0921
 4248W        W 8448   2.059   7.831   0.170 -0.1921  0.2588 -0.1204
 4249W        W 8449   3.876   1.932   2.486 -0.3385  0.0067 -0.0606
 4250W        W 8450   9.338   6.964   3.967 -0.3256 -0.1652 -0.2346
 4251W        W 8451   3.453   2.075  11.314 -0.1006  0.0165  0.0949
 4252W        W 8452   6.659   4.495   3.659 -0.4030 -0.2814  0.2113
 4253W        W 8453   3.985  10.216   0.747  0.3145  0.0658 -0.1772
 4254W        W 8454   5.304   4.746   2.278  0.1414  0.1570  0.0184
 4255W        W 8455   5.574   3.062   2.325 -0.3460 -0.1459 -0.0556
 4256W        W 8456   5.514  10.333   4.016 -0.0583 -0.0115  0.3970
 4257W        W 8457  10.462   4.781   3.400 -0.0267  0.0139 -0.1144
 4258W        W 8458   5.211   9.307  13.045  0.3875  0.2355  0.2597
 4259W        W 8459   2.065   3.733   1.228 -0.3321 -0.1967  0.2170
 4260W        W 8460   6.013   9.934  10.313 -0.0876  0.2743  0.2973
 4261W        W 8461   3.985   6.769   1.060  0.2971  0.0980 -0.2208
 4262W        W 8462   7.083   1.022  11.638 -0.1389 -0.0225  0.0393
 4263W        W 8463   3.281   5.013  13.328 -0.0228  0.0514  0.0092
 4264W        W 8464   9.627   4.260  11.912  0.0536 -0.0614  0.0163
 4265W        W 8465   9.984   2.731   1.342  0.2704 -0.2075  0.3049
 4266W        W 8466   9.623   3.575   1.692  0.4067  0.1516 -0.4123
 4267W        W 8467   5.548   6.620   4.626 -0.1644  0.0988  0.0440
 4268W        W 8468   1.608   5.870  10.603 -0.0942 -0.1996 -0.0171
 4269W        W 8469   4.398   4.170  10.311  0.0171 -0.1518 -0.0566
 4270W        W 8470   4.514   4.627  10.034 -0.0682  0.2590 -0.2712
 4271W        W 8471   2.429   9.123   7.873  0.2582  0.0460 -0.0277
 4272W        W 8472   4.931   2.766   5.546  0.2137  0.0928  0.1940
 4273W        W 8473   2.212   8.336   3.675  0.0246  0.1677  0.3168
 4274W        W 8474   8.059   1.522  11.174 -0.0612  0.2609  0.1165
 4275W        W 8475   1.446   1.299   2.012  0.2470  0.2425  0.0461
 4276W        W 8476   7.819   8.690  12.817  0.0601  0.0458  0.3193
 4277W        W 8477  10.235   6.425  10.830 -0.5270 -0.1050 -0.1763
 4278W        W 8478   5.073   9.136   3.445  0.0810  0.0960 -0.1296
 4279W        W 8479   6.031   0.219   3.992 -0.1377 -0.3276 -0.0829
 4280W        W 8480   5.190   8.007   3.831  0.2885  0.5585  0.0118
 4281W        W 8481   1.776   3.046   0.513 -0.1662  0.1215 -0.2673
 4282W        W 8482   6.538   0.202   3.733  0.0404 -0.1069 -0.1494
 4283W        W 8483  10.332   1.961  10.728 -0.0911  0.0350  0.1674
 4284W        W 8484   7.932   3.970  12.019  0.0150  0.0771 -0.2034
 4285W        W 8485   2.560   7.237   1.723 -0.0277  0.0084  0.0224
 4286W        W 8486   8.306   9.606  11.856 -0.1234 -0.1719 -0.1769
 4287W        W 8487   9.853   4.462  12.503 -0.0008  0.0542  0.2025
 4288W        W 8488   9.360   2.364  12.895 -0.0418  0.1777  0.3848
 4289W        W 8489   5.883   1.163   3.046  0.3089 -0.0037 -0.2824
 4290W        W 8490   5.671   4.532   9.356 -0.0300  0.0975 -0.2140
 4291W        W 8491   2.622   0.164   1.416 -0.2635  0.2080 -0.1224
 4292W        W 8492   1.659   3.041   1.913 -0.1031 -0.0023 -0.0983
 4293W        W 8493   8.151   5.868  12.402 -0.0485  0.2075  0.3239
 4294W        W 8494   3.914   2.823  11.864  0.0148 -0.2218 -0.0025
 4295W        W 8495   2.553   5.216   2.358 -0.0058 -0.0176  0.3621
 4296W        W 8496   5.526   8.082   9.604 -0.1583 -0.0214 -0.0298
 4297W        W 8497   6.160   4.525   1.163  0.0523 -0.1668  0.3280
 4298W        W 8498   1.577   4.048  12.294 -0.1845 -0.0841  0.0642
 4299W        W 8499   4.993   1.875  13.104 -0.3750  0.0455  0.0068
 4300W        W 8500   4.034   2.928   1.556  0.3020 -0.4605 -0.0307
 4301W        W 8501   1.422   1.409   1.508 -0.1001  0.0734  0.0150
 4302W        W 8502   7.761   6.078  11.103  0.1342 -0.3432 -0.3371
 4303W        W 8503   4.786   0.310  11.647  0.1221  0.1306  0.2368
 4304W        W 8504   6.067   7.874  12.234 -0.0331 -0.1479  0.1554
 4305W        W 8505   3.966   0.825  13.179 -0.2773 -0.1166  0.0105
 4306W        W 8506   1.417   9.614   2.189 -0.1149 -0.3300 -0.1069
 4307W        W 8507   1.069   8.820  10.666 -0.3718 -0.1919 -0.0164
 4308W        W 8508   9.862   5.135  11.236 -0.0043  0.2565  0.3322
 4309W        W 8509   3.337   5.792   2.474 -0.1636 -0.1073  0.2027
 4310W        W 8510  10.070   5.797   4.322  0.3068  0.2140  0.0021
 4311W        W 8511   4.966   6.185  10.194  0.1253 -0.1014  0.3853
 4312W        W 8512   1.875   7.892   9.886  0.0471 -0.3816 -0.1716
 4313W        W 8513   6.659   6.298   0.341  0.0656 -0.1407 -0.0958
 4314W        W 8514   0.673   5.841  12.464 -0.0938 -0.0275  0.0814
 4315W        W 8515   1.165   4.004  11.972 -0.3357  0.0863 -0.1566
 4316W        W 8516   5.964   7.680  10.855  0.3585 -0.0523 -0.1563
 4317W        W 8517   8.276   8.229   9.985 -0.0976  0.0890  0.1810
 4318W        W 8518   6.374   2.394   0.273 -0.1395  0.4872  0.1584
 4319W        W 8519   9.533   1.471   1.726 -0.0544  0.3978 -0.0185
 4320W        W 8520   4.352   3.007   1.133  0.0828 -0.3151 -0.1937
 4321W        W 8521   6.757   5.530  13.251 -0.0734  0.0112 -0.2890
 4322W        W 8522   0.260   6.093  11.810 -0.2059  0.1604 -0.2533
 4323W        W 8523  10.169   1.187   9.998  0.0505  0.0876 -0.1418
 4324W        W 8524   6.428   0.329  13.209 -0.2529  0.0405 -0.0992
 4325W        W 8525   0.008   4.688   2.866  0.3595  0.2622 -0.5654
 4326W        W 8526   5.953   1.894   4.656  0.2022 -0.0383 -0.3073
 4327W        W 8527   8.909   6.418  11.310  0.0053 -0.3407 -0.2265
 4328W        W 8528   7.830   4.201   1.244 -0.0659  0.4192  0.1282
 4329W        W 8529   6.806   9.897   9.876  0.0846  0.0447  0.3631
 4330W        W 8530   8.826   3.584   0.675  0.2849 -0.2638  0.2753
 4331W        W 8531   2.539  10.312   9.069  0.0724 -0.0617  0.0713
 4332W        W 8532   6.864   5.711  12.063  0.0478  0.0211 -0.3165
 4333W        W 8533   5.887   2.843   0.625 -0.1278 -0.0577 -0.0023
 4334W        W 8534   4.211   0.769   0.679 -0.1461  0.0964  0.3459
 4335W        W 8535   8.496  10.362  10.165  0.1651  0.1113  0.0690
 4336W        W 8536   9.211   2.832   2.403 -0.1414 -0.0475 -0.0248
 4337W        W 8537   4.530  10.059  12.008 -0.2863  0.1069 -0.1178
 4338W        W 8538   4.555   2.853   9.828  0.2176  0.1332 -0.3382
 4339W        W 8539  10.459   5.315  12.575  0.0272 -0.2761  0.0555
 4340W        W 8540   2.120   5.674   1.917  0.0019  0.0780  0.1955
 4341W        W 8541   9.419   9.494   1.121 -0.1456 -0.2300  0.4204
 4342W        W 8542   5.329   4.745   1.761 -0.0752 -0.1872  0.3253
 4343W        W 8543   8.335   3.114  10.767  0.1982  0.1739  0.3519
 4344W        W 8544   7.552   1.716   1.536 -0.0633 -0.2358  0.1636
 4345W        W 8545   5.187  10.024   5.103  0.0514  0.1342  0.0398
 4346W        W 8546   8.315   0.890  11.966  0.0715  0.0816  0.3125
 4347W        W 8547   6.798   3.044  11.699 -0.3301  0.0272 -0.1079
 4348W        W 8548   8.442   3.880  11.015  0.1425  0.0700  0.0543
 4349W        W 8549   3.688   0.269  11.241  0.0961  0.1868  0.4200
 4350W        W 8550   3.468   7.813   3.929  0.0971  0.2556 -0.0066
 4351W        W 8551   2.294   8.892   0.098 -0.1065 -0.0757 -0.2802
 4352W        W 8552   6.885   0.498  13.037 -0.2203 -0.1814  0.0479
 4353W        W 8553   3.580  10.029  10.327 -0.2637  0.3379 -0.1260
 4354W        W 8554  10.385   4.795   3.898  0.1658  0.1733 -0.3058
 4355W        W 8555   7.669   0.466   0.419  0.1199  0.1362 -0.3985
 4356W        W 8556   3.768   1.849   9.227 -0.2224 -0.0359 -0.0741
 4357W        W 8557   6.134   9.606   9.166 -0.0934  0.3850  0.1672
 4358W        W 8558   9.074   0.250  11.341  0.3291  0.1662  0.0646
 4359W        W 8559   6.137   8.555   2.168 -0.2319  0.0938  0.2035
 4360W        W 8560   5.771   9.903   9.406 -0.1747 -0.0989 -0.2343
 4361W        W 8561   0.678   2.433  11.634 -0.0700  0.1149 -0.1558
 4362W        W 8562   2.988   9.598   3.569  0.0793  0.2473 -0.3698
 4363W        W 8563   0.988   2.190  10.252  0.1228 -0.0640 -0.1229
 4364W        W 8564   3.490   0.343  12.807 -0.1007 -0.4192  0.1768
 4365W        W 8565   8.723   3.258  13.400 -0.1204  0.2334  0.0827
 4366W        W 8566  10.257   4.364  12.932  0.1911 -0.1417  0.1053
 4367W        W 8567   5.265   0.448  10.699  0.1330 -0.1903  0.0051
 4368W        W 8568   7.823   0.560  13.326  0.0755  0.0726  0.1295
 4369W        W 8569   8.830   7.859   0.747 -0.2205 -0.0684  0.3512
 4370W        W 8570   6.071   8.880   5.324 -0.2315 -0.0157  0.0217
 4371W        W 8571   0.421   9.057   1.858  0.1723  0.0794  0.1140
 4372W        W 8572   7.661   6.535   3.543  0.1623 -0.0463  0.4430
 4373W        W 8573   4.613   4.145   2.578  0.0843  0.1033  0.1407
 4374W        W 8574   2.824   6.793   3.106  0.0155  0.1431 -0.0129
 4375W        W 8575   6.669   0.264  10.116  0.3005 -0.0865  0.0643
 4376W        W 8576   9.686   8.787  11.933 -0.0359  0.0856  0.1541
 4377W        W 8577   4.195   8.440  10.169 -0.0523  0.0960  0.0400
 4378W        W 8578   3.442   4.257   3.352 -0.0591  0.2617 -0.2118
 4379W        W 8579   2.066   2.828   0.132  0.1262  0.0912 -0.0518
 4380W        W 8580   5.458   4.272   0.410 -0.3572  0.1397 -0.2733
 4381W        W 8581   2.300   1.216  12.880  0.0977 -0.1322 -0.3261
 4382W        W 8582   2.610   1.660   2.496 -0.2186  0.1151  0.0454
 4383W        W 8583   7.904   1.216  11.957 -0.0625  0.3409 -0.1613
 4384W        W 8584   3.118   5.992  10.003  0.2703  0.1145  0.0163
 4385W        W 8585  10.183   9.170   9.546 -0.1595  0.0268 -0.0611
 4386W        W 8586   9.732   2.550  11.078  0.1320 -0.0070  0.4192
 4387W        W 8587   6.086   7.831  10.267 -0.4313  0.0498  0.0628
 4388W        W 8588  10.441   0.355  11.368  0.0308 -0.1958 -0.0906
 4389W        W 8589   7.333   2.379   1.823 -0.1902  0.2370 -0.0120
 4390W        W 8590   2.444   7.017  11.977 -0.1527  0.1240  0.0426
 4391W        W 8591   1.198   2.696   2.932  0.0476 -0.1685 -0.4802
 4392W        W 8592   2.714   4.902   1.939  0.0882  0.1310  0.0771
 4393W        W 8593   6.075   8.856  12.028  0.4705  0.2114 -0.1796
 4394W        W 8594   5.762   3.345   1.038  0.3046  0.1204 -0.1178
 4395W        W 8595   4.950   6.192  12.174 -0.0125  0.0280 -0.1954
 4396W        W 8596   4.523   8.867  10.408 -0.1025  0.3232  0.3710
 4397W        W 8597   0.480   8.528   4.596 -0.0385 -0.1889 -0.0573
 4398W        W 8598   0.582   7.239  13.104 -0.0387  0.1686  0.3693
 4399W        W 8599   2.373   4.674  13.188 -0.1103  0.1774  0.0490
 4400W        W 8600   4.775   9.558  12.973 -0.0705 -0.0690  0.1128
 4401W        W 8601   3.223   3.245   3.124  0.1412  0.1363 -0.0109
 4402W        W 8602   0.597   6.782   9.876 -0.2119  0.2059 -0.1295
 4403W        W 8603   7.570   0.530   3.744  0.0002  0.2661  0.1736
 4404W        W 8604   6.797   1.323   2.908 -0.0567 -0.0331 -0.3316
 4405W        W 8605   3.320   8.993   0.604 -0.1906 -0.0715  0.0626
 4406W        W 8606   1.313   2.792   2.452  0.3303  0.1438 -0.2830
 4407W        W 8607   1.660   9.093   2.117 -0.0319  0.1522  0.0653
 4408W        W 8608   3.378   7.395   0.592  0.3930 -0.0601  0.0367
 4409W        W 8609   5.281   8.973   2.313 -0.0406 -0.1851 -0.1804
 4410W        W 8610   8.115  10.360   1.668 -0.4087 -0.2670 -0.0369
 4411W        W 8611   4.101   3.870   1.925  0.2437 -0.2996 -0.1152
 4412W        W 8612   5.469   5.905  10.885 -0.0099 -0.4146 -0.1115
 4413W        W 8613   5.296  10.150  12.571 -0.2751 -0.1371 -0.0275
 4414W        W 8614   7.603   0.904  11.767 -0.1039  0.4379  0.1408
 4415W        W 8615   7.094   9.813  10.570  0.2362 -0.2989 -0.1948
 4416W        W 8616   0.635   0.148   1.260  0.1193 -0.3023 -0.0087
 4417W        W 8617   5.594   1.970  12.915 -0.0593 -0.2256  0.0883
 4418W        W 8618   3.155  10.028   8.993  0.1191 -0.1250 -0.0901
 4419W        W 8619   5.770   2.028   9.222  0.3431  0.0297 -0.0853
 4420W        W 8620   6.971   7.029   0.939 -0.0325  0.1802 -0.3055
 4421W        W 8621   5.850   0.912   3.888  0.0359 -0.2635 -0.0549
 4422W        W 8622   8.161   6.206   1.552  0.1392  0.0285  0.0346
 4423W        W 8623   2.845   7.367  12.017  0.3292  0.0493  0.5363
 4424W        W 8624   2.924   6.297  11.771  0.1266  0.2797  0.0037
 4425W        W 8625   5.357   3.345   8.589  0.2394 -0.0588 -0.1327
 4426W        W 8626   7.876   3.881  10.964  0.0773 -0.2007 -0.0407
 4427W        W 8627   1.798   0.201  11.357 -0.2281  0.2333 -0.3243
 4428W        W 8628   0.028   9.439   9.806 -0.0762 -0.0945  0.2103
 4429W        W 8629   0.699   7.766  13.096 -0.2225  0.1933 -0.1016
 4430W        W 8630   1.110   9.957   9.562  0.0164 -0.1398 -0.2684
 4431W        W 8631   1.917   0.148   3.550  0.1969  0.1028  0.1148
 4432W        W 8632   0.990   5.058  12.785  0.1862 -0.2268  0.0390
 4433W        W 8633   0.841   6.986   1.924 -0.0478 -0.2625  0.0698
 4434W        W 8634   6.273  10.137  11.104 -0.0623  0.5972 -0.0340
 4435W        W 8635   2.775  10.081   9.413 -0.0432  0.1477 -0.0657
 4436W        W 8636   8.234   4.054  13.212 -0.1042  0.2543  0.1188
 4437W        W 8637   9.225   2.001  11.644  0.2274  0.1096  0.0984
 4438W        W 8638   9.795   9.346  10.551 -0.1097 -0.3356  0.1527
 4439W        W 8639   5.836  10.141  12.083 -0.0853  0.3754  0.1905
 4440W        W 8640   6.610   7.411   9.631  0.1506  0.2162  0.3321
 4441W        W 8641   7.013   4.120  13.052 -0.1669  0.0063 -0.1884
 4442W        W 8642   2.820   9.920  13.122 -0.1250  0.2083 -0.3960
 4443W        W 8643   3.474   4.547   2.937  0.0162 -0.0385  0.2449
 4444W        W 8644   6.737   2.872   3.023 -0.1743 -0.1734  0.0729
 4445W        W 8645   4.599  10.377   3.077 -0.0486 -0.0586 -0.0413
 4446W        W 8646   2.751   3.575  12.586 -0.1903 -0.0657 -0.3005
 4447W        W 8647   6.049   0.874  11.920 -0.1904 -0.0375  0.0663
 4448W        W 8648   9.733   7.340  12.291 -0.1838 -0.2911 -0.0005
 4449W        W 8649   1.518   9.871  10.797 -0.6180 -0.1645  0.0013
 4450W        W 8650   3.769   2.423   1.632  0.0713  0.2012  0.2222
 4451W        W 8651   5.003   8.496   1.259 -0.2406 -0.0735 -0.1251
 4452W        W 8652   4.847   6.457  12.714 -0.1411 -0.0449 -0.0871
 4453W        W 8653   5.168   3.288  10.276  0.0088  0.0500 -0.2764
 4454W        W 8654   8.665   3.430   2.158 -0.1293 -0.1931 -0.0363
 4455W        W 8655   2.631   8.767   4.089 -0.2563  0.0735 -0.0346
 4456W        W 8656   9.592   4.131  10.617  0.2295 -0.1060 -0.1185
 4457W        W 8657   7.713   6.220   4.337 -0.1033 -0.3246 -0.0346
 4458W        W 8658   3.840   0.586   3.248  0.2516 -0.1635 -0.1511
 4459W        W 8659   1.841   5.532  12.303 -0.0095  0.4600 -0.0871
 4460W        W 8660   5.752   7.091  11.944  0.0052  0.1236  0.2245
 4461W        W 8661   2.584   7.741   4.883  0.1738 -0.2109 -0.1606
 4462W        W 8662   9.043  10.082  11.859  0.1699  0.0289 -0.0990
 4463W        W 8663   8.992   0.946  11.309  0.1036 -0.0049 -0.1140
 4464W        W 8664   6.951   4.540  10.591  0.0282 -0.1328 -0.0663
 4465W        W 8665   1.394   0.787   4.667 -0.0341  0.0577 -0.1650
 4466W        W 8666   2.213   8.657  10.016 -0.3550 -0.1777 -0.0773
 4467W        W 8667   4.387   8.439   3.346 -0.0505  0.0843 -0.1159
 4468W        W 8668   9.801   1.757   2.450  0.0993 -0.0890 -0.3690
 4469W        W 8669   0.520   2.734   0.330  0.0403  0.0305 -0.0181
 4470W        W 8670   9.609   4.980  12.577 -0.0217  0.1047  0.1327
 4471W        W 8671   1.838   0.137   9.459 -0.1608  0.2206 -0.2977
 4472W        W 8672   5.217   0.894  12.241 -0.3090 -0.2066 -0.3301
 4473W        W 8673   6.881   6.615  12.586  0.1698 -0.0938  0.2500
 4474W        W 8674   4.308   9.913   9.752  0.1050  0.0360  0.2050
 4475W        W 8675   1.216   1.568   2.758 -0.0492  0.3577  0.0246
 4476W        W 8676  10.112   9.493  10.126 -0.3034 -0.1351 -0.1331
 4477W        W 8677   6.554   0.177   1.319  0.0466 -0.1105 -0.1515
 4478W        W 8678   7.295   3.815   1.409 -0.0063 -0.0503 -0.0571
 4479W        W 8679   7.484   5.099   1.681  0.3498 -0.1532 -0.0627
 4480W        W 8680   5.356   4.679  12.468  0.0735 -0.1770  0.0175
 4481W        W 8681   2.654   8.497   2.009  0.0616 -0.0614 -0.0228
 4482W        W 8682   2.507   4.158   9.474  0.1518 -0.1271 -0.2278
 4483W        W 8683   7.919   8.530  12.308 -0.0759 -0.4907 -0.1964
 4484W        W 8684   7.979   1.681  10.677 -0.0473 -0.1618  0.2074
 4485W        W 8685   0.391   5.584  12.787 -0.3110 -0.3009  0.0167
 4486W        W 8686   0.778   9.364  12.181 -0.1376  0.0262  0.1997
 4487W        W 8687   5.543   1.021  11.879 -0.0762 -0.2024  0.0619
 4488W        W 8688   2.378   7.777   2.817 -0.0528 -0.2052 -0.1527
 4489W        W 8689   2.719   3.496   9.031  0.0736  0.0038  0.0823
 4490W        W 8690   9.767   1.777  12.238 -0.0698 -0.1163  0.4903
 4491W        W 8691   1.062   3.834   3.766 -0.1525 -0.2715  0.2938
 4492W        W 8692   9.745   6.977  11.891 -0.1008  0.0412 -0.0343
 4493W        W 8693   1.922   5.046   0.443 -0.1074 -0.4514  0.3137
 4494W        W 8694   0.808   8.644  12.540 -0.3481 -0.0994  0.1023
 4495W        W 8695  10.284   3.399   9.830  0.2197  0.1222  0.1402
 4496W        W 8696   4.600   3.865  10.811  0.1227 -0.0942 -0.1880
 4497W        W 8697   8.513   8.626  11.740 -0.3951 -0.1258 -0.0532
 4498W        W 8698   1.781   3.883  12.826 -0.1952  0.2033 -0.0523
 4499W        W 8699   1.299   8.554   9.401 -0.1958  0.1202 -0.0548
 4500W        W 8700   7.198   4.053  10.539 -0.2533  0.1265  0.0482
 4501W        W 8701   8.882   5.597   8.828  0.3505  0.4613 -0.1348
 4502W        W 8702   1.088   9.068  12.600 -0.6333  0.0944 -0.2002
 4503W        W 8703   6.424   2.396   2.048  0.3446 -0.0097  0.0744
 4504W        W 8704   0.060   0.872   0.646 -0.2556  0.2552 -0.0252
 4505W        W 8705   6.348   1.260  10.148  0.2927  0.0132  0.0138
 4506W        W 8706   5.398   3.621  10.622 -0.5175 -0.2264  0.2624
 4507W        W 8707   7.129   0.862   2.772  0.0303  0.1133 -0.0550
 4508W        W 8708   4.316   3.543  11.015  0.0310 -0.2023 -0.0044
 4509W        W 8709   2.033   2.321   3.523  0.3680 -0.1390 -0.0450
 4510W        W 8710   7.554   0.630  10.166  0.2382  0.0600 -0.1965
 4511W        W 8711   0.407   7.207   4.208  0.2503  0.0518  0.1750
 4512W        W 8712   9.083   3.291  11.187 -0.2473 -0.1344 -0.0813
 4513W        W 8713   0.131   8.842  11.893 -0.1077  0.1680 -0.2639
 4514W        W 8714   1.856   9.567  12.898 -0.2221 -0.2014  0.4800
 4515W        W 8715   8.918   0.289   1.176 -0.2766  0.2019  0.0532
 4516W        W 8716   7.923   1.052   0.102  0.1107 -0.1308  0.0957
 4517W        W 8717   6.498   9.705   2.524 -0.0298 -0.0297 -0.0953
 4518W        W 8718   3.025   2.120   2.617 -0.0194 -0.0057 -0.1011
 4519W        W 8719   2.243   3.801   0.645 -0.1501 -0.3446 -0.0676
 4520W        W 8720   1.807   7.308   4.594 -0.0477 -0.1789  0.0446
 4521W        W 8721   3.457   2.702  12.671  0.0332  0.0238 -0.1607
 4522W        W 8722  10.184  10.137   1.516 -0.4903 -0.0386 -0.2600
 4523W        W 8723   1.856   7.973   2.430  0.2640 -0.1734 -0.2990
 4524W        W 8724   7.415   5.522   2.188 -0.1608  0.5215  0.1218
 4525W        W 8725   1.766   4.324   0.486  0.2193 -0.2842 -0.2214
 4526W        W 8726   8.530   7.218  10.952  0.1306  0.1663  0.1165
 4527W        W 8727   6.704   4.094  10.532  0.0540  0.2602  0.1367
 4528W        W 8728   9.833   6.492  10.400 -0.4624 -0.4021  0.3931
 4529W        W 8729   9.955   0.111   1.566 -0.0463 -0.0165  0.0278
 4530W        W 8730   7.550   0.263   1.196 -0.2383  0.3502 -0.0553
 4531W        W 8731   8.511   9.656  10.888  0.4242 -0.1809  0.1146
 4532W        W 8732   3.576   5.800   9.016 -0.1132 -0.0309  0.2252
 4533W        W 8733   2.799   1.990   0.248  0.0188  0.2615 -0.0524
 4534W        W 8734   2.107   0.500  10.401 -0.1002 -0.0225  0.1237
 4535W        W 8735   9.708   2.088  11.651 -0.3447  0.0257  0.0141
 4536W        W 8736   1.248   1.299  12.042 -0.0333  0.0806  0.0491
 4537W        W 8737   6.600   3.244   1.193  0.0972 -0.2417  0.0655
 4538W        W 8738   9.797   9.228   4.946 -0.0224  0.0788  0.1736
 4539W        W 8739   5.976   0.623   5.425 -0.2995 -0.0078 -0.5004
 4540W        W 8740   1.553  10.426   0.928  0.0572  0.0468 -0.2333
 4541W        W 8741   9.167   9.103   9.476  0.1311 -0.1081 -0.1320
 4542W        W 8742   9.332   8.520   1.306 -0.1466 -0.0507 -0.0088
 4543W        W 8743   6.616   5.730  12.769 -0.2655 -0.0889  0.1700
 4544W        W 8744   4.648   5.983   1.005 -0.1217  0.1857 -0.0565
 4545W        W 8745   6.676   7.528   1.486 -0.1951 -0.1355  0.0207
 4546W        W 8746   6.877   7.190   3.958 -0.1049 -0.0851  0.0207
 4547W        W 8747   2.667   6.396   0.699  0.0501  0.0436  0.0522
 4548W        W 8748  10.015   8.227   9.299 -0.0513 -0.2769  0.2737
 4549W        W 8749   4.614   6.593   9.387  0.2210 -0.3201 -0.1308
 4550W        W 8750   2.326   5.051  11.521 -0.2622 -0.1166 -0.1095
 4551W        W 8751   7.469   1.827   3.324  0.0646 -0.0773 -0.1763
 4552W        W 8752   0.556   8.079   4.309 -0.1053 -0.0374  0.0675
 4553W        W 8753   3.666   3.274   9.949 -0.1426  0.6832  0.1980
 4554W        W 8754   1.903   9.447  10.447  0.2177 -0.2485  0.1432
 4555W        W 8755   3.502   8.112   4.706 -0.4132 -0.0738 -0.2869
 4556W        W 8756   3.971   5.484   9.110  0.3892  0.4096 -0.0360
 4557W        W 8757   0.818   6.896  12.825 -0.0712 -0.0746 -0.0087
 4558W        W 8758   6.245   7.151  12.780  0.1187 -0.2350  0.0176
 4559W        W 8759   3.450   9.133  10.454  0.1249  0.0959  0.0203
 4560W        W 8760   6.879   9.825   2.784 -0.2148 -0.1504  0.0208
 4561W        W 8761   8.187   2.617   2.198  0.0682 -0.1802  0.1455
 4562W        W 8762   6.787   6.191  10.411  0.0213  0.0609 -0.2290
 4563W        W 8763   6.594   4.595   2.632  0.0098 -0.2445  0.3575
 4564W        W 8764   2.662   1.892   1.034 -0.3555 -0.4340  0.0167
 4565W        W 8765   5.278   5.492   9.732  0.0315  0.0597 -0.0920
 4566W        W 8766   7.681   6.995   3.730  0.1079  0.0945 -0.1614
 4567W        W 8767   6.482   0.175   9.648 -0.2181  0.3561 -0.3782
 4568W        W 8768   5.899   9.459   3.650  0.4649  0.2080 -0.1853
 4569W        W 8769   0.247   8.343  11.581  0.1232 -0.3458  0.0461
 4570W        W 8770   8.928   5.489   2.661  0.1066  0.3548 -0.1735
 4571W        W 8771   7.759   1.928  11.324  0.2934  0.0048  0.0624
 4572W        W 8772   9.465   0.320  11.759 -0.0893  0.2753 -0.1830
 4573W        W 8773   6.158   4.422  12.747 -0.1789  0.2034 -0.0253
 4574W        W 8774   2.192   7.013   0.839  0.0442  0.1852  0.1802
 4575W        W 8775   1.316   6.764   0.801 -0.1268  0.1483  0.3031
 4576W        W 8776   0.349   2.407   3.036 -0.0911  0.1231  0.2064
 4577W        W 8777   5.282   4.176  10.504  0.1626 -0.0060  0.1639
 4578W        W 8778   4.218   7.199   9.542 -0.0789 -0.0347  0.1762
 4579W        W 8779   2.028   4.367  13.138  0.0295  0.2799 -0.0531
 4580W        W 8780   8.639   1.318  11.950 -0.0039 -0.1150  0.1712
 4581W        W 8781   4.612   9.604  11.186  0.0268 -0.5861  0.0670
 4582W        W 8782   5.259   2.143  11.205  0.0409 -0.0959 -0.0322
 4583W        W 8783   2.190   1.037   9.411 -0.1674 -0.1378 -0.2152
 4584W        W 8784   9.209   7.093   3.424 -0.2786  0.0913  0.2572
 4585W        W 8785   1.555   2.032   1.587 -0.0745 -0.1131 -0.1898
 4586W        W 8786   4.374   5.980  12.042 -0.3849  0.3031  0.5275
 4587W        W 8787   3.292   4.934  10.150 -0.2451 -0.0204 -0.2110
 4588W        W 8788   3.949   5.922   3.561  0.0912  0.4345  0.0220
 4589W        W 8789   7.647   5.324   0.513  0.0612 -0.1235  0.0597
 4590W        W 8790   5.889   0.598  12.413  0.0098 -0.1864  0.0595
 4591W        W 8791   1.234   4.332  10.021 -0.1090 -0.1725 -0.1192
 4592W        W 8792   5.843   3.341   4.412 -0.1371  0.3311 -0.2180
 4593W        W 8793  10.170   8.009  12.730  0.0235  0.3083  0.1705
 4594W        W 8794   7.232   7.235   9.024 -0.0548  0.0024 -0.2438
 4595W        W 8795   5.286   5.045  12.927 -0.1021  0.0262  0.0395
 4596W        W 8796   5.112   2.398   1.871 -0.1431 -0.1421  0.1727
 4597W        W 8797   0.315   4.232   2.222 -0.1683 -0.2633  0.0048
 4598W        W 8798  10.325   7.361   1.886  0.0186  0.1527 -0.1091
 4599W        W 8799   8.326   7.173   2.275 -0.0822 -0.0711  0.0272
 4600W        W 8800   8.328   4.052   3.996  0.2472 -0.2266 -0.2460
 4601W        W 8801  10.439   2.392  12.264  0.0443  0.0600 -0.2314
 4602W        W 8802   4.429   2.823   4.119 -0.2879  0.2253 -0.2581
 4603W        W 8803   6.326   6.932   9.495  0.3531  0.3393 -0.0004
 4604W        W 8804   2.755   5.748  10.248  0.3027 -0.0899  0.3400
 4605W        W 8805   2.018   1.989   9.044  0.0570 -0.3214 -0.1431
 4606W        W 8806   8.391   6.588   1.986  0.0247  0.0661  0.1300
 4607W        W 8807   1.863   2.162   0.788 -0.0712  0.0976 -0.1615
 4608W        W 8808   1.854   4.107  11.199 -0.0304 -0.1875  0.0213
 4609W        W 8809   0.331   6.650  11.886  0.2146 -0.0501  0.1535
 4610W        W 8810   6.757   8.073   0.700 -0.0677 -0.1807  0.1030
 4611W        W 8811   9.734   8.908   1.426  0.1867  0.1102 -0.0222
 4612W        W 8812   2.037  10.004  10.678  0.0165 -0.1669  0.2181
 4613W        W 8813   4.181   8.696  12.654  0.1227 -0.0782 -0.1810
 4614W        W 8814   7.737   6.904   0.335  0.3300  0.2079  0.0515
 4615W        W 8815   0.595   9.624  13.314 -0.0936  0.1079 -0.3765
 4616W        W 8816   1.436   9.456  11.644  0.0855  0.0640  0.0692
 4617W        W 8817   6.934   9.164  11.126  0.2336 -0.1163  0.1090
 4618W        W 8818   6.227   5.309   9.596 -0.2918 -0.1792 -0.2397
 4619W        W 8819   3.579   2.759   2.417  0.1647  0.2631  0.0341
 4620W        W 8820   4.923   8.025   2.431  0.0931 -0.1081 -0.1207
 4621W        W 8821   9.950  10.179  10.901  0.4309 -0.1760  0.0398
 4622W        W 8822   4.586   9.293   9.044 -0.1921  0.1837  0.0343
 4623W        W 8823   5.038   3.681  11.548  0.0298  0.1039  0.2295
 4624W        W 8824   3.791   6.282   4.459 -0.1486  0.2321 -0.4542
 4625W        W 8825   0.147   2.068   0.805 -0.0939 -0.1715  0.1241
 4626W        W 8826   7.913   8.094   9.618 -0.3050  0.4051  0.0239
 4627W        W 8827   1.839   8.471   2.324 -0.3287 -0.2069 -0.1384
 4628W        W 8828   3.473   8.936   9.088  0.1371 -0.0686 -0.0948
 4629W        W 8829   1.136   7.997  10.595 -0.0284  0.1465  0.1199
 4630W        W 8830   9.192   4.040  13.258 -0.0166 -0.1692 -0.0851
 4631W        W 8831   9.986   6.703   9.813 -0.0536  0.2321 -0.1305
 4632W        W 8832   4.078   3.265   4.098 -0.0475  0.4413 -0.3115
 4633W        W 8833   7.895   9.708   1.045 -0.0024  0.2017 -0.0391
 4634W        W 8834   2.956   7.466   1.644  0.0934  0.0632 -0.0466
 4635W        W 8835   8.369   8.257   0.590  0.0639  0.1894  0.1800
 4636W        W 8836   0.627   8.809   1.435 -0.1662  0.1647  0.0722
 4637W        W 8837   8.523   8.078  13.018 -0.1933  0.1602 -0.1588
 4638W        W 8838   2.426   4.436  12.789  0.2667 -0.0328  0.1078
 4639W        W 8839   0.548   8.584   1.949 -0.1208 -0.0465  0.2517
 4640W        W 8840   1.833   5.096   4.963  0.1206 -0.1098 -0.0837
 4641W        W 8841   0.750   4.736   3.446 -0.3297 -0.1217  0.2200
 4642W        W 8842   6.822  10.126  10.891 -0.1525 -0.2558 -0.1906
 4643W        W 8843   5.244   7.213   9.212 -0.0540  0.3045  0.0444
 4644W        W 8844   9.543   3.600   3.138 -0.1240  0.0247  0.2237
 4645W        W 8845   4.375   4.486  10.778 -0.0261  0.0095  0.0146
 4646W        W 8846   5.657   1.173   0.979 -0.2685  0.3326 -0.1750
 4647W        W 8847   2.152   5.522   2.463 -0.0235 -0.3447  0.2435
 4648W        W 8848   6.337   9.452   3.383 -0.0543 -0.0415  0.3775
 4649W        W 8849   1.350   8.305   1.440  0.1435  0.2542 -0.2240
 4650W        W 8850   7.126   1.608   0.146 -0.0138 -0.0420 -0.2529
 4651W        W 8851   7.176   6.331   4.076  0.2654 -0.3898  0.2655
 4652W        W 8852   1.104  10.241  12.740 -0.0080 -0.3494  0.3538
 4653W        W 8853   1.678   3.682   9.853  0.1704 -0.0643 -0.1956
 4654W        W 8854   8.635   8.248   2.697 -0.3409 -0.2258  0.0985
 4655W        W 8855   2.877   6.045   9.562  0.3084 -0.2488 -0.0637
 4656W        W 8856   5.083   2.205  12.174 -0.1399 -0.2885  0.4239
 4657W        W 8857   4.714   6.547   2.210  0.1136  0.1404 -0.1310
 4658W        W 8858   5.909   3.365   0.409  0.1554  0.0385  0.0390
 4659W        W 8859  10.282   7.123   9.635  0.0679 -0.2402 -0.1587
 4660W        W 8860   8.677   4.893  12.192  0.0338 -0.2453  0.2005
 4661W        W 8861   7.331   9.701   9.984  0.2504 -0.2707  0.1864
 4662W        W 8862   7.016   7.993   3.898 -0.0250 -0.3025 -0.0125
 4663W        W 8863   3.353   1.136   1.827 -0.0266  0.1643  0.3250
 4664W        W 8864   8.865   0.044   2.542  0.1493  0.4966 -0.2542
 4665W        W 8865   3.199   6.541   0.006  0.1874  0.0329  0.1843
 4666W        W 8866   2.704   5.217  13.156  0.1344  0.0426 -0.1109
 4667W        W 8867   4.842   1.389  13.191  0.0294  0.1737  0.2232
 4668W        W 8868   3.330   9.549   1.538  0.0431 -0.0631  0.1100
 4669W        W 8869   9.897   4.946  10.759 -0.1791  0.1417 -0.1126
 4670W        W 8870   1.751   2.908  11.904 -0.4947  0.1564 -0.1204
 4671W        W 8871   4.227   1.150   9.792  0.3312  0.1931  0.2764
 4672W        W 8872   2.714   7.923   0.027 -0.0210 -0.1502  0.0620
 4673W        W 8873   2.667   0.194   0.937 -0.3527 -0.1022 -0.2118
 4674W        W 8874   8.757   7.073  11.338  0.0814 -0.1079  0.0466
 4675W        W 8875   2.848   4.414  13.040  0.2131  0.2103 -0.0527
 4676W        W 8876   0.813   3.962   0.509 -0.3682  0.3362 -0.1533
 4677W        W 8877   8.272   8.503  13.057 -0.2020  0.2223 -0.1465
 4678W        W 8878   1.879  10.166   9.648  0.2514 -0.0798  0.0048
 4679W        W 8879   2.627   2.713   9.448  0.1815  0.0655  0.0252
 4680W        W 8880   7.948   3.840   4.228 -0.0763  0.0409  0.0571
 4681W        W 8881   3.239   5.286   4.628 -0.4730 -0.0070 -0.1355
 4682W        W 8882   3.578   0.646  10.270 -0.1160  0.1866 -0.0326
 4683W        W 8883   5.901   7.172  10.849  0.1965  0.0878  0.0108
 4684W        W 8884   3.637   8.189   1.868  0.1178 -0.1656  0.0664
 4685W        W 8885   2.661   1.453   0.171 -0.1124 -0.1017  0.1453
 4686W        W 8886   7.541   7.683   2.052  0.0357  0.1566 -0.1842
 4687W        W 8887   2.523   6.219  10.921 -0.0983  0.1430 -0.4110
 4688W        W 8888   0.587   7.570   1.074 -0.0118 -0.0838 -0.0150
 4689W        W 8889   3.569   0.811  12.918  0.1549  0.1261  0.0678
 4690W        W 8890   9.006  10.395   0.659  0.3270  0.0304 -0.1304
 4691W        W 8891   0.430   4.454   0.146  0.1412  0.1026  0.0324
 4692W        W 8892   7.978   4.414   4.139 -0.1941  0.2161  0.4307
 4693W        W 8893   5.902   3.914   3.714 -0.0574  0.1855 -0.0351
 4694W        W 8894   2.197   7.697   9.532  0.1660 -0.1893  0.0104
 4695W        W 8895   2.600   7.477   4.206 -0.1777 -0.1093 -0.2116
 4696W        W 8896   0.079   1.233  12.534  0.0025 -0.0276 -0.1162
 4697W        W 8897   5.579   9.983   0.091  0.1734 -0.1981  0.3197
 4698W        W 8898   0.684  10.216   4.723  0.1246 -0.1668 -0.1628
 4699W        W 8899   2.087   6.310   2.822  0.0153 -0.0569 -0.0175
 4700W        W 8900   7.903   7.206  13.347  0.0657  0.0308 -0.1838
 4701W        W 8901   2.352   8.781  12.382 -0.1263  0.1578 -0.1602
 4702W        W 8902   1.389   2.067   9.664 -0.0448 -0.0746 -0.1664
 4703W        W 8903   9.073   9.550  11.693 -0.1760  0.2266 -0.0981
 4704W        W 8904   6.956   6.591  11.630 -0.0961 -0.0786 -0.0777
 4705W        W 8905   6.075   2.474   1.670  0.1658  0.0646 -0.1180
 4706W        W 8906   5.413  10.269   9.460 -0.1506  0.1919  0.2136
 4707W        W 8907   4.133   7.690   1.886  0.1031 -0.2906 -0.1786
 4708W        W 8908   8.299   0.378   2.903 -0.0252  0.1318 -0.2304
 4709W        W 8909   3.451   7.747   9.363 -0.1035 -0.2253  0.0279
 4710W        W 8910   9.512   7.658   8.664  0.1987 -0.1413 -0.0037
 4711W        W 8911   5.315   8.712  11.649 -0.1123 -0.1049 -0.0533
 4712W        W 8912   8.428   8.777   3.430 -0.0511  0.0773  0.0855
 4713W        W 8913   6.065   5.591   3.729 -0.1693  0.0361 -0.2407
 4714W        W 8914   4.168   4.951  10.152  0.0677 -0.2088 -0.0529
 4715W        W 8915   6.629   9.386   2.883  0.1436  0.0211 -0.1503
 4716W        W 8916   1.926   1.311   9.712  0.1049  0.2032 -0.4116
 4717W        W 8917   5.803   4.834   4.130  0.2071  0.1022  0.0727
 4718W        W 8918  10.199   9.716   3.378  0.0289  0.1039 -0.0741
 4719W        W 8919   7.800   7.624  11.997 -0.0425  0.0754 -0.2067
 4720W        W 8920   6.896   4.066   3.093 -0.0397 -0.0939  0.2454
 4721W        W 8921   0.333   9.299   4.106 -0.0629  0.0552 -0.0148
 4722W        W 8922   5.483  10.297   5.489  0.0665 -0.0094 -0.0322
 4723W        W 8923   8.411   0.203   3.336  0.2244 -0.3281 -0.0345
 4724W        W 8924   1.940   9.144   1.689 -0.1419  0.3344  0.0230
 4725W        W 8925   7.381   0.379  11.250  0.2783 -0.2085  0.1032
 4726W        W 8926   8.372   9.187   0.287 -0.1901 -0.0216 -0.2206
 4727W        W 8927   5.031  10.460   2.150  0.2234 -0.2239 -0.1140
 4728W        W 8928   1.992   9.473  11.422  0.3884  0.0512  0.2043
 4729W        W 8929   7.867   6.858   5.091  0.0334 -0.2994  0.0278
 4730W        W 8930   5.887   4.443   2.833 -0.0808  0.1637  0.2017
 4731W        W 8931   4.764   9.604   0.886 -0.4580  0.0257  0.0739
 4732W        W 8932   3.783   3.941   2.927 -0.0329  0.3510  0.0703
 4733W        W 8933   5.708   8.109  10.211  0.3826 -0.0892  0.2944
 4734W        W 8934   8.052   7.641   2.195  0.1009  0.2726  0.2514
 4735W        W 8935   0.511   3.540   1.642 -0.2523  0.2727  0.1186
 4736W        W 8936   7.620   6.208  11.603  0.0335 -0.1469 -0.1462
 4737W        W 8937   8.759   0.689   3.339  0.0167  0.0363  0.2353
 4738W        W 8938   1.595   5.276   3.239 -0.0829 -0.0523  0.1263
 4739W        W 8939   6.674   1.762  12.224  0.1318  0.1726 -0.0901
 4740W        W 8940   4.577   9.233   2.909 -0.0417  0.0186 -0.1851
 4741W        W 8941  10.131   6.984   0.321  0.1148 -0.0133  0.0750
 4742W        W 8942   2.923   8.185   0.453  0.0682 -0.0764  0.0015
 4743W        W 8943   8.584   1.645   1.496  0.0761 -0.1003  0.1908
 4744W        W 8944  10.413   9.998  10.836  0.1982 -0.1009  0.0946
 4745W        W 8945   6.708   5.455   3.972  0.5406  0.0304 -0.0038
 4746W        W 8946   2.710   4.643   9.717  0.1830  0.0341 -0.0952
 4747W        W 8947   8.257   0.252  11.893 -0.0375 -0.1678  0.1016
 4748W        W 8948   9.425   9.307  13.275  0.0013 -0.0560  0.2466
 4749W        W 8949   6.727   9.394  11.530 -0.0349 -0.0997  0.5268
 4750W        W 8950   7.174   3.023   0.440 -0.2412 -0.0858 -0.0690
 4751W        W 8951   0.558   0.677   2.351 -0.4830  0.1086  0.1803
 4752W        W 8952   7.624   1.121  10.882 -0.0893  0.3250 -0.0342
 4753W        W 8953   9.260   2.854   0.196 -0.0645 -0.1560  0.2612
 4754W        W 8954   0.830   7.088   2.861  0.1687  0.2995 -0.4063
 4755W        W 8955   9.894   7.931   8.501 -0.2101  0.1789 -0.3173
 4756W        W 8956  10.083   2.031   0.648 -0.3218  0.0823 -0.0959
 4757W        W 8957   7.979  10.033  11.893  0.0267  0.3857  0.3065
 4758W        W 8958   2.820   0.889   9.878  0.2175  0.0863  0.4140
 4759W        W 8959   6.933   0.778   0.687 -0.1233 -0.0407  0.1580
 4760W        W 8960   7.076   9.235  12.503 -0.1759 -0.1132  0.1195
 4761W        W 8961   8.138   6.515   4.303 -0.0113  0.1628 -0.0917
 4762W        W 8962   7.896   5.749   0.386 -0.1441  0.3005  0.2467
 4763W        W 8963   4.747   0.975   2.891 -0.0021  0.0204  0.1954
 4764W        W 8964   8.857   4.094  10.217 -0.0479 -0.1978 -0.1717
 4765W        W 8965   1.249   4.103   8.609 -0.1526 -0.4062 -0.0327
 4766W        W 8966   5.963   8.065  13.212  0.0008  0.2886 -0.2522
 4767W        W 8967   9.093  10.072  12.937 -0.1376  0.1620  0.2112
 4768W        W 8968   4.533   8.495  11.133 -0.2444  0.3022 -0.0852
 4769W        W 8969   1.588   5.748  13.295 -0.2068 -0.1605 -0.0163
 4770W        W 8970   3.599   0.505   9.609  0.1208  0.2111 -0.1234
 4771W        W 8971   0.484   1.210   9.203  0.1207 -0.0899 -0.0403
 4772W        W 8972   4.756   8.961   2.553  0.1753  0.4316 -0.1123
 4773W        W 8973   0.272   3.294   0.809 -0.2970 -0.2075  0.1876
 4774W        W 8974   2.385   2.661   1.441  0.0285  0.0152  0.0072
 4775W        W 8975   0.400   3.536  10.377 -0.1102  0.0425  0.2331
 4776W        W 8976   1.766   5.030   1.348 -0.1073  0.1411 -0.0111
 4777W        W 8977  10.352   5.202  11.430  0.4810  0.1557  0.0195
 4778W        W 8978   8.385   9.182   3.742  0.1790 -0.4330 -0.4617
 4779W        W 8979   7.021   1.484  13.024  0.0756 -0.1171 -0.1007
 4780W        W 8980   5.374   3.802   1.430 -0.0330 -0.1375  0.0941
 4781W        W 8981   8.057   2.564   0.022 -0.1099  0.3714  0.1973
 4782W        W 8982  10.136   4.999   2.170 -0.2223  0.0096  0.0779
 4783W        W 8983   0.799   0.723   2.891  0.0237  0.0631  0.1223
 4784W        W 8984   6.141   8.815   4.428  0.4033  0.2113  0.0582
 4785W        W 8985   2.717   3.795  10.073  0.1957 -0.4226 -0.1591
 4786W        W 8986   4.638   3.047   2.523 -0.0774  0.1417  0.2214
 4787W        W 8987   2.471   7.303  13.022  0.1660 -0.0844  0.1663
 4788W        W 8988   9.092   8.375  11.200  0.2052 -0.1250  0.4024
 4789W        W 8989   3.137   0.596  11.360  0.0189  0.0410  0.2096
 4790W        W 8990   8.515   5.660   2.915 -0.2223 -0.0695 -0.1812
 4791W        W 8991   9.642   9.251  10.102  0.0339  0.2302  0.2571
 4792W        W 8992   3.392   6.045   1.759 -0.0032 -0.2204  0.2419
 4793W        W 8993   1.744   0.881   8.911 -0.3646 -0.0143 -0.1562
 4794W        W 8994   4.250   2.450   9.867 -0.0442  0.1403 -0.3265
 4795W        W 8995   0.202   5.081  11.825  0.0679 -0.1891  0.1064
 4796W        W 8996   6.427   1.767   0.707  0.4840  0.2778  0.0229
 4797W        W 8997   9.886   8.161   2.707  0.1382  0.2750 -0.0240
 4798W        W 8998   5.873   7.707   8.605  0.0458 -0.0840 -0.2517
 4799W        W 8999   6.125   0.266   3.481 -0.0556  0.2979  0.1507
 4800W        W 9000   5.290   3.834  11.116 -0.1394  0.3036 -0.1968
 4801W        W 9001   3.586   9.891   5.105 -0.1677 -0.0078  0.0991
 4802W        W 9002   3.780   8.766   1.823 -0.3858  0.1880  0.0989
 4803W        W 9003   2.821   9.267   0.424 -0.1867 -0.0271  0.0473
 4804W        W 9004   7.071   6.569  10.734  0.2724 -0.0222  0.2671
 4805W        W 9005   0.482   0.247   3.677  0.1845 -0.0637 -0.1620
 4806W        W 9006   9.998   5.193   4.185 -0.0750  0.1648 -0.2450
 4807W        W 9007   6.079   1.447  10.522  0.3835  0.2190 -0.1625
 4808W        W 9008   2.871   7.938  12.051  0.0876  0.3137  0.2326
 4809W        W 9009   6.565   1.724  10.335 -0.0880  0.0873  0.2265
 4810W        W 9010   0.660   2.544   1.317 -0.2507 -0.4284  0.1635
 4811W        W 9011   0.747   6.820  11.649  0.1133  0.0131 -0.0440
 4812W        W 9012   2.173   6.517   8.995  0.0709  0.0418 -0.0787
 4813W        W 9013  10.345   7.629   9.680  0.2145 -0.1685 -0.1682
 4814W        W 9014  10.252   0.638  10.181 -0.0765 -0.3699 -0.1565
 4815W        W 9015   8.183  10.017   0.508 -0.0215  0.1955  0.1651
 4816W        W 9016   4.130   3.578   9.068 -0.2101 -0.0246 -0.0575
 4817W        W 9017   4.413   8.092   9.762  0.0355 -0.1086  0.3225
 4818W        W 9018   3.784   5.949  10.175 -0.1508  0.0558  0.3034
 4819W        W 9019   5.988   1.700  11.571  0.0990  0.0454  0.0353
 4820W        W 9020   3.176   6.925   5.111  0.1059  0.1972  0.2976
 4821W        W 9021   7.840   4.526  12.152  0.2270  0.3392 -0.1742
 4822W        W 9022   1.027   7.705  12.026  0.1276  0.3053 -0.0108
 4823W        W 9023   2.560   2.219   2.300 -0.1919 -0.1221 -0.3433
 4824W        W 9024   3.591   5.461   4.296 -0.2629 -0.2585 -0.2618
 4825W        W 9025   1.310   1.846  10.102  0.4857  0.0121  0.0170
 4826W        W 9026   3.619   2.075  10.383 -0.2834 -0.2232  0.0831
 4827W        W 9027   4.320   9.229   1.447 -0.0356 -0.1950 -0.0098
 4828W        W 9028   7.539   7.748   3.172  0.0066 -0.3186 -0.0414
 4829W        W 9029   7.797   1.237   1.655  0.2657 -0.0641 -0.1139
 4830W        W 9030   2.223   0.597   9.121  0.0607 -0.1667 -0.0973
 4831W        W 9031   0.134   0.853   3.451  0.2548  0.2642  0.3347
 4832W        W 9032   8.876   7.392  10.140  0.1600  0.2695  0.1390
 4833W        W 9033   9.692   4.588   0.960  0.2679 -0.1485 -0.1347
 4834W        W 9034   1.882   3.763   4.869 -0.1220  0.0071 -0.0179
 4835W        W 9035  10.397   7.990   0.403  0.1750  0.2250 -0.0741
 4836W        W 9036   7.825   6.306  13.000  0.0241  0.1323 -0.2357
 4837W        W 9037   4.561   3.191   1.611  0.1904  0.3590  0.1984
 4838W        W 9038   2.242   4.708   2.134  0.3198  0.0314  0.0839
 4839W        W 9039   5.059   1.456   9.353  0.1052  0.0564 -0.1555
 4840W        W 9040   6.686   1.249  13.379 -0.1738 -0.1651 -0.2562
 4841W        W 9041   8.375   2.356  10.015  0.1020 -0.0404 -0.2333
 4842W        W 9042   8.220   2.831   1.169  0.1685  0.1151  0.1856
 4843W        W 9043   5.720   8.540  13.102  0.0212 -0.1014  0.4145
 4844W        W 9044   7.631   4.183  11.319 -0.1829 -0.1193 -0.0084
 4845W        W 9045   6.908   1.040   9.452 -0.1454  0.2855  0.1668
 4846W        W 9046   4.382   4.161  11.692  0.1648 -0.0925  0.2563
 4847W        W 9047   7.978   8.913   9.148 -0.1630 -0.1020  0.1556
 4848W        W 9048   3.367   2.428   2.829 -0.0020 -0.0387 -0.0153
 4849W        W 9049   4.872   7.033   2.128  0.2589  0.1995  0.3256
 4850W        W 9050   5.544  10.297   4.669 -0.0145  0.1751 -0.0152
 4851W        W 9051   5.334   8.785  12.902  0.0400 -0.4098  0.1624
 4852W        W 9052   1.483   5.873   3.250 -0.0722  0.0334  0.0427
 4853W        W 9053   8.215   8.861   1.204  0.3012  0.0251 -0.0682
 4854W        W 9054   7.736   6.053   3.302  0.3240 -0.1200 -0.1974
 4855W        W 9055   7.355   7.323   3.619  0.2750 -0.3500 -0.0047
 4856W        W 9056   8.020   8.094  12.895 -0.0207 -0.1479 -0.1186
 4857W        W 9057   2.501   1.797   9.770 -0.1702  0.0633 -0.0052
 4858W        W 9058   9.850   6.497   1.886 -0.3266 -0.0705 -0.0693
 4859W        W 9059   9.043   6.191   4.470  0.0823 -0.1728 -0.1339
 4860W        W 9060   8.300  10.335   2.977  0.4629 -0.1821  0.0486
 4861W        W 9061   1.238   2.198   1.937 -0.1410  0.0489  0.4608
 4862W        W 9062   3.691   7.409  11.734  0.1398 -0.0104 -0.4150
 4863W        W 9063   1.940   7.446   2.525  0.0082 -0.3350 -0.1089
 4864W        W 9064   6.285   8.952   2.957  0.2483 -0.1627  0.2805
 4865W        W 9065   2.489  10.115   4.028  0.5243  0.0018 -0.0881
 4866W        W 9066   3.798   1.315  11.811 -0.1437 -0.1490 -0.0501
 4867W        W 9067   3.242   7.131   1.853 -0.2937  0.0505  0.2224
 4868W        W 9068   4.806   2.223   1.214 -0.0306  0.1464  0.1539
 4869W        W 9069   7.928   0.574  10.493  0.3415  0.1328  0.0683
 4870W        W 9070   3.854   4.330   1.809  0.0883  0.2109  0.1755
 4871W        W 9071   7.966   6.203   0.154 -0.1668  0.0248 -0.2296
 4872W        W 9072   0.505   2.965  13.250 -0.1254  0.1910 -0.0614
 4873W        W 9073   8.468   6.612   3.228  0.3030  0.1669 -0.2645
 4874W        W 9074   1.640   6.613  11.565  0.0062 -0.3887 -0.1289
 4875W        W 9075  10.284   4.838  11.743  0.0363 -0.0314 -0.0751
 4876W        W 9076   9.976   1.480   2.073  0.2515 -0.0084  0.0037
 4877W        W 9077   4.432   1.672   2.475  0.0661 -0.2580 -0.0888
 4878W        W 9078   7.572   6.523   0.043 -0.2901 -0.1361  0.1058
 4879W        W 9079   7.874   7.620  12.584 -0.2019  0.1068 -0.3696
 4880W        W 9080   6.158   7.318   9.721  0.0996  0.1651  0.1730
 4881W        W 9081   2.125   7.668   4.298  0.2018  0.0689 -0.2593
 4882W        W 9082   8.720   7.486   0.407  0.2296  0.1565 -0.0833
 4883W        W 9083   0.759   9.192   1.114 -0.2986  0.1538 -0.0186
 4884W        W 9084   9.346   0.120   3.029 -0.2971  0.0862 -0.1316
 4885W        W 9085   2.967   9.450  10.223  0.1199  0.2999 -0.4084
 4886W        W 9086   4.839   0.900   1.518  0.0217  0.2988  0.2237
 4887W        W 9087   4.740   5.579   3.060 -0.1624 -0.1547 -0.1857
 4888W        W 9088   7.034   3.682   2.821  0.1592  0.0393  0.0020
 4889W        W 9089   2.172   9.189   1.199  0.0654 -0.0702 -0.0129
 4890W        W 9090   3.595   9.061  13.035 -0.1479 -0.0587  0.3232
 4891W        W 9091   8.183   6.727   1.517  0.2930 -0.0730  0.1010
 4892W        W 9092   9.860   3.969   3.415 -0.1622  0.0454 -0.2335
 4893W        W 9093   6.535   0.460   0.309  0.0211  0.3786  0.1091
 4894W        W 9094   7.857   9.108  12.155 -0.2595  0.2658  0.1475
 4895W        W 9095   1.779   0.710   3.386  0.0498  0.3170 -0.1354
 4896W        W 9096   5.242   0.816   4.634 -0.0948 -0.0411 -0.0838
 4897W        W 9097   4.364   5.559  11.634 -0.1145 -0.2229 -0.1174
 4898W        W 9098   8.131   0.225   1.248  0.0176 -0.2821 -0.0020
 4899W        W 9099  10.417   1.810  12.240  0.2205 -0.2031 -0.0861
 4900W        W 9100   8.696   0.986   9.069  0.0576  0.1582  0.1170
 4901W        W 9101  10.255   6.392  10.116 -0.3400  0.0240  0.1127
 4902W        W 9102   2.471   0.464   0.194 -0.0626  0.0779  0.1490
 4903W        W 9103   3.867   0.002  12.595  0.0926 -0.0891 -0.1373
 4904W        W 9104   5.578   5.455  11.163  0.0765 -0.2069 -0.1676
 4905W        W 9105   5.444   1.788  10.946 -0.0613  0.0935  0.1403
 4906W        W 9106   8.536   9.981  12.994  0.0388 -0.1881 -0.1007
 4907W        W 9107   6.144   8.582   2.660 -0.1396  0.2205  0.0501
 4908W        W 9108   2.275   1.843   2.097 -0.0898  0.0013  0.0339
 4909W        W 9109   9.328   1.064  12.578 -0.1924 -0.1934 -0.0845
 4910W        W 9110   6.314   9.691  12.368  0.0080 -0.1292 -0.0129
 4911W        W 9111   0.288   2.958   2.478 -0.1038 -0.0650  0.0031
 4912W        W 9112   7.415   4.783   2.615  0.1678  0.0956 -0.1953
 4913W        W 9113   7.518   2.905   3.405 -0.2953 -0.0226 -0.0450
 4914W        W 9114   0.411   4.085   1.644 -0.0275  0.0672  0.3079
 4915W        W 9115   2.240   9.200  12.661 -0.0762 -0.0008 -0.1975
 4916W        W 9116   4.644   0.148  10.826  0.0840 -0.1760  0.3780
 4917W        W 9117   1.686   7.972   1.940 -0.2483  0.1428 -0.1003
 4918W        W 9118   5.882   3.444   2.813  0.2552  0.1849 -0.0308
 4919W        W 9119   2.535   4.509   3.443  0.0189  0.0373  0.0115
 4920W        W 9120   9.047   5.282   3.063 -0.1858  0.1509  0.0545
 4921W        W 9121   0.803   8.321  11.273  0.2034  0.2819  0.2123
 4922W        W 9122   2.926   6.710   3.990  0.1290 -0.0788  0.1514
 4923W        W 9123   7.577   1.523   2.539  0.0531  0.3402  0.0388
 4924W        W 9124   8.574   8.695   3.907  0.2138  0.1444  0.0435
 4925W        W 9125   2.700   3.499   0.586 -0.0785  0.1303 -0.1839
 4926W        W 9126   7.171   7.836   0.965  0.4586  0.2139 -0.2896
 4927W        W 9127   7.763  10.258  11.369  0.2101  0.1008  0.0743
 4928W        W 9128   3.510   6.835   3.862  0.3691 -0.0638 -0.1357
 4929W        W 9129  10.381   3.120  11.764 -0.3465 -0.1803 -0.1250
 4930W        W 9130   0.608   0.243   2.626 -0.0286 -0.1037  0.1055
 4931W        W 9131   8.612   0.300  11.139  0.0742 -0.2858 -0.0264
 4932W        W 9132   4.340   9.875  10.351 -0.2267 -0.2067  0.0570
 4933W        W 9133   2.666   8.202   2.922 -0.1262  0.2925 -0.0414
 4934W        W 9134   7.044   5.108   1.955  0.1651 -0.1160 -0.3587
 4935W        W 9135   4.877   9.043   8.280 -0.2463  0.0977  0.1150
 4936W        W 9136   0.121   5.890  13.171 -0.1580 -0.1470 -0.0239
 4937W        W 9137   1.423   7.713   2.699 -0.0618 -0.0675  0.0505
 4938W        W 9138   8.596  10.042   2.734  0.1064  0.2451  0.3485
 4939W        W 9139   9.468   8.357  12.100  0.0100 -0.0417  0.0119
 4940W        W 9140   1.132  10.052  12.231 -0.3091  0.3524  0.1352
 4941W        W 9141   9.170   5.671   3.471  0.1053  0.0284  0.3218
 4942W        W 9142   1.691   1.657  12.153  0.0552  0.0748  0.0747
 4943W        W 9143   9.153   5.364  13.306 -0.0987  0.1001 -0.0148
 4944W        W 9144   1.024   8.994   9.926 -0.3553  0.1218  0.2175
 4945W        W 9145   4.132   9.419  10.007  0.2748  0.0735  0.3307
 4946W        W 9146   5.423   6.132   4.032  0.2947  0.0846  0.1428
 4947W        W 9147   8.929   1.862   0.302 -0.0028 -0.2319 -0.1525
 4948W        W 9148   3.588  10.116   9.268  0.0932  0.0376 -0.0892
 4949W        W 9149   4.255  10.332  10.662 -0.1378 -0.0977  0.0205
 4950W        W 9150   6.839   9.774   1.269 -0.0753 -0.1946  0.0194
 4951W        W 9151   5.334   1.912   3.434 -0.1706 -0.0963 -0.1318
 4952W        W 9152   2.667   4.869   8.952 -0.0146  0.1371 -0.0834
 4953W        W 9153   6.763   4.895  12.488 -0.2077 -0.4473  0.1612
 4954W        W 9154   0.427   4.648  10.008  0.0480  0.1107  0.1308
 4955W        W 9155   6.409   1.638   1.187 -0.2016  0.1873  0.0700
 4956W        W 9156   4.527   6.424   0.771  0.0626  0.0486 -0.1662
 4957W        W 9157   6.520   1.542   2.404  0.0320 -0.0175 -0.6367
 4958W        W 9158   2.553   3.970  13.026 -0.0900  0.0973 -0.1245
 4959W        W 9159  10.076   7.815   3.058  0.2616 -0.0032 -0.0282
 4960W        W 9160   0.940   5.203   4.322  0.0038  0.3939 -0.3515
 4961W        W 9161   3.566   9.220   1.938  0.4455  0.0562  0.1485
 4962W        W 9162  10.088   6.939  13.015 -0.2326  0.0596  0.2017
 4963W        W 9163   7.355   9.671  12.545 -0.0566  0.0978  0.1956
 4964W        W 9164   5.881   0.283  13.077  0.1584 -0.0234 -0.2373
 4965W        W 9165  10.367   3.285  10.824 -0.0519 -0.1146 -0.0135
 4966W        W 9166   3.184   5.336  12.891  0.0605 -0.0980 -0.0732
 4967W        W 9167   7.267   2.072  10.080  0.0534 -0.0268  0.0586
 4968W        W 9168   1.277   8.879  13.277 -0.0963  0.4582  0.2084
 4969W        W 9169   3.717   1.077   0.640 -0.0139 -0.2256 -0.0247
 4970W        W 9170   6.110   5.228   4.097 -0.0663  0.1165  0.3666
 4971W        W 9171   1.079   1.445  11.053 -0.1632 -0.0073 -0.0450
 4972W        W 9172  10.252   2.844   2.566 -0.2436 -0.0531  0.1501
 4973W        W 9173   2.586   1.201  10.205 -0.1152 -0.1693 -0.0664
 4974W        W 9174   6.541   9.785   3.681 -0.0309 -0.2547 -0.3738
 4975W        W 9175   0.374   2.311  10.234  0.0784 -0.0926  0.2202
 4976W        W 9176   2.766   8.440  13.044  0.1117  0.3642 -0.3353
 4977W        W 9177   1.620   8.842   2.572  0.1948 -0.4049 -0.2900
 4978W        W 9178   6.495   3.054   9.953 -0.0095  0.1630 -0.0301
 4979W        W 9179   8.976   4.802  11.148  0.0762  0.1220  0.1479
 4980W        W 9180   5.902   0.128  11.642 -0.3228 -0.0689  0.0056
 4981W        W 9181   0.650   8.367   0.385  0.0265 -0.1089  0.1475
 4982W        W 9182   1.472   0.236   4.613  0.3516 -0.0877  0.0129
 4983W        W 9183   0.272   1.968   9.815  0.2544  0.0579 -0.4007
 4984W        W 9184   2.824   4.830   3.238  0.2886 -0.0501 -0.0614
 4985W        W 9185   1.276   0.946  12.357  0.3680  0.1593 -0.2683
 4986W        W 9186   1.421   0.313  10.112 -0.0695  0.1204 -0.3769
 4987W        W 9187   8.965   0.888  13.235  0.2221 -0.1421 -0.2051
 4988W        W 9188   1.089   3.633   1.336  0.2580  0.2336  0.2599
 4989W        W 9189   5.057   6.420   3.964 -0.2212 -0.0121  0.0172
 4990W        W 9190   2.734   9.552  12.715  0.3984  0.0075 -0.2175
 4991W        W 9191   5.500   9.062  13.326  0.2198  0.4347 -0.0957
 4992W        W 9192   8.076   0.189   2.103  0.0153 -0.0518 -0.0607
 4993W        W 9193  10.285   2.103   1.670 -0.2498 -0.3145 -0.0155
 4994W        W 9194   6.152   5.412   4.576  0.0783  0.4055  0.1454
 4995W        W 9195   9.168   4.103  11.865 -0.0974  0.1990 -0.2379
 4996W        W 9196   3.640   3.374   4.871 -0.2732 -0.0514  0.0119
 4997W        W 9197  10.289   5.850  12.622  0.2005  0.1593 -0.0841
 4998W        W 9198   9.202   1.073   3.324  0.1152 -0.1466 -0.1974
 4999W        W 9199   6.163   4.066  10.892  0.0220 -0.0743 -0.3006
 5000W        W 9200   9.059   0.769   4.282  0.3054  0.1459  0.0514
 5001W        W 9201   5.630   9.345   9.889  0.3151  0.0062  0.0192
 5002W        W 9202   5.768   9.148  12.869  0.0916 -0.2274 -0.1602
 5003W        W 9203   8.042   4.483   1.991  0.1127  0.2902 -0.0254
 5004W        W 9204   4.522   0.825  10.139 -0.0379 -0.1718 -0.1257
 5005W        W 9205   7.792   7.518   3.890 -0.1035  0.0770 -0.0188
 5006W        W 9206   6.878   5.228  12.909  0.0394 -0.0130 -0.0456
 5007W        W 9207   9.036   0.658  12.603 -0.1965  0.2753 -0.1083
 5008W        W 9208   2.571   5.681   9.566 -0.0704  0.4462 -0.0226
 5009W        W 9209   8.929   6.335  13.313  0.0808  0.1024 -0.1460
 5010W        W 9210   5.355   6.991  12.267 -0.1506  0.1457 -0.1837
 5011W        W 9211   0.182   8.288   0.691 -0.0044 -0.0076 -0.0862
 5012W        W 9212   7.339   3.437  10.734 -0.2221 -0.0277 -0.0257
 5013W        W 9213   3.331   6.228  10.410 -0.0888 -0.0082 -0.4308
 5014W        W 9214   6.225   4.929  10.654  0.1275  0.0284 -0.0943
 5015W        W 9215   3.825   1.458  10.435  0.2334  0.1022 -0.2049
 5016W        W 9216   1.611  10.195   8.680  0.1279 -0.0607  0.0101
 5017W        W 9217   3.443   5.346   2.565  0.3372 -0.3056 -0.0299
 5018W        W 9218   6.664   3.850  12.137 -0.2526  0.0881 -0.0137
 5019W        W 9219   8.287   9.126  11.732 -0.3901  0.1042  0.1502
 5020W        W 9220   7.796   6.379   2.653 -0.0437 -0.1428 -0.1645
 5021W        W 9221   7.316   7.618   1.514 -0.1169 -0.4859  0.0797
 5022W        W 9222   3.930   3.305  11.195 -0.0006  0.4026 -0.0317
 5023W        W 9223   7.534   6.321  12.177 -0.0737  0.0806  0.0854
 5024W        W 9224   1.011   9.273  10.462  0.3093 -0.0089 -0.0191
 5025W        W 9225   9.925   1.248   0.107  0.0270  0.1641  0.0804
 5026W        W 9226   7.371   8.677   2.566  0.0269  0.2114  0.0678
 5027W        W 9227   0.547   0.151   9.996  0.1350  0.0127 -0.1776
 5028W        W 9228   6.616   6.524  13.285  0.0629  0.3413 -0.0243
 5029W        W 9229   5.559   2.903   3.456 -0.0319 -0.2429 -0.1037
 5030W        W 9230   8.986   9.143   2.578 -0.0899  0.0442 -0.2928
 5031W        W 9231   1.652   1.267   0.107 -0.0140  0.2250  0.4209
 5032W        W 9232   3.006   5.873   3.412  0.2829 -0.2000  0.1357
 5033W        W 9233   4.991   7.115   1.056  0.0687  0.1947 -0.0048
 5034W        W 9234   3.632   2.983  11.419  0.1929  0.2088 -0.2768
 5035W        W 9235   4.370   8.933   0.005 -0.3049  0.1670 -0.0201
 5036W        W 9236   7.027   8.981  11.544 -0.0520  0.1172  0.3156
 5037W        W 9237   5.002   4.695   0.393  0.0574  0.1154  0.1415
 5038W        W 9238   1.318   1.818  11.778  0.1434  0.2074  0.0480
 5039W        W 9239   6.885   4.756   0.478  0.2519  0.0750  0.0323
 5040W        W 9240   8.022  10.157   3.383 -0.0861  0.1447 -0.0301
 5041W        W 9241   4.942   1.240  12.048 -0.1093  0.0136  0.0910
 5042W        W 9242   8.838   3.694  11.862 -0.3965 -0.0622  0.1433
 5043W        W 9243   2.951   5.333   0.680 -0.0150  0.1231  0.2957
 5044W        W 9244   2.538   2.840   8.211  0.3169 -0.0280  0.3069
 5045W        W 9245   1.782   1.810   1.154 -0.1941 -0.3396  0.0841
 5046W        W 9246   8.259   5.671   4.156 -0.0819  0.1075 -0.0277
 5047W        W 9247   8.098   6.689  13.312 -0.0696 -0.0463  0.2187
 5048W        W 9248   5.656   8.452   3.587 -0.0383  0.2361  0.1317
 5049W        W 9249  10.037   9.974   9.070  0.1820 -0.0449  0.1813
 5050W        W 9250   6.703   7.347   3.020 -0.1783  0.0564  0.1107
 5051W        W 9251   0.004   2.466  11.749 -0.3492  0.1831 -0.1468
 5052W        W 9252   7.326   2.905  10.653 -0.0678 -0.2523  0.1058
 5053W        W 9253   1.080   2.668   1.008 -0.0690 -0.4810 -0.2341
 5054W        W 9254   6.971   8.648   4.124  0.1613 -0.0095  0.5526
 5055W        W 9255   5.577   1.644   0.760 -0.1505  0.1339 -0.1506
 5056W        W 9256   2.577  10.089   0.771  0.0038 -0.1989 -0.0268
 5057W        W 9257   9.957   2.464   3.367  0.0489 -0.1489  0.0397
 5058W        W 9258   1.419   3.619   2.727  0.1061 -0.2600 -0.1086
 5059W        W 9259   5.081   9.165   3.947  0.0873  0.1189  0.0423
 5060W        W 9260   0.393   2.516   2.230  0.1109 -0.0565  0.0115
 5061W        W 9261   5.653   0.439   3.687 -0.0143  0.0896 -0.1634
 5062W        W 9262   6.594   1.026   2.546  0.0626  0.0294  0.0311
 5063W        W 9263   6.771   8.675  12.453  0.2018 -0.1032  0.2607
 5064W        W 9264   2.250   6.547   1.032  0.0042 -0.2641  0.1081
 5065W        W 9265   2.312   6.866  13.225 -0.4558 -0.0125  0.0380
 5066W        W 9266   6.531   7.526  13.090 -0.1491  0.0302  0.0254
 5067W        W 9267   1.152   0.556   0.839  0.2622 -0.1790 -0.0856
 5068W        W 9268   4.577   1.933   9.938  0.0865  0.0705 -0.1113
 5069W        W 9269  10.452   6.512   3.744 -0.4530  0.0015  0.2114
 5070W        W 9270   4.602   0.647   3.479 -0.0489  0.1750 -0.1671
 5071W        W 9271   2.969   5.271  10.387 -0.0123 -0.1530 -0.0397
 5072W        W 9272   5.810   6.511  12.512  0.1796 -0.1739  0.0053
 5073W        W 9273   9.343   8.199   2.830 -0.2821 -0.2375  0.1503
 5074W        W 9274   2.143   0.146   9.031  0.0340 -0.0067  0.2408
 5075W        W 9275   0.533   1.199   3.615  0.0372 -0.1619 -0.0837
 5076W        W 9276   5.042   6.645  12.214 -0.3749 -0.1142 -0.1110
 5077W        W 9277   6.184   1.497  12.467 -0.1511 -0.0176 -0.0807
 5078W        W 9278   1.287   5.066   3.965 -0.1374  0.0038 -0.0385
 5079W        W 9279   3.925   1.708   2.936  0.2844 -0.1977  0.0277
 5080W        W 9280   5.119   4.647   9.741 -0.0496  0.4226  0.5685
 5081W        W 9281   6.932   4.755   1.455  0.1765 -0.2553  0.1617
 5082W        W 9282   5.123   1.017  10.161  0.2875 -0.0693 -0.0890
 5083W        W 9283   9.045   8.664   0.792 -0.3126  0.0029 -0.1077
 5084W        W 9284   7.593   9.520   0.628 -0.1478  0.2153 -0.0237
 5085W        W 9285   1.444   3.218   3.019  0.2796  0.2025  0.1410
 5086W        W 9286   7.270   1.753   4.774  0.0925 -0.3967  0.3500
 5087W        W 9287   1.295   9.003   0.903  0.0714  0.0862  0.2426
 5088W        W 9288   9.517   1.043   1.432 -0.1818 -0.0925 -0.0425
 5089W        W 9289   9.652   9.219   9.596 -0.2401  0.0995  0.1395
 5090W        W 9290   0.891   7.575   1.953  0.2473  0.4039  0.0683
 5091W        W 9291   2.895   8.849   1.657  0.2434 -0.0574 -0.1414
 5092W        W 9292   8.283   9.387   1.243  0.1921 -0.1766 -0.4109
 5093W        W 9293   5.575   2.924   2.828 -0.1026 -0.0500  0.1421
 5094W        W 9294   4.023  10.140  13.361  0.0426  0.1095 -0.3182
 5095W        W 9295   2.338   0.879  10.953 -0.1296  0.4745 -0.1916
 5096W        W 9296   3.120   8.803  11.573  0.0790  0.0740 -0.0603
 5097W        W 9297   5.290   6.995   5.035  0.2303  0.1716 -0.3226
 5098W        W 9298   7.554   5.580   2.660 -0.2510 -0.0141  0.0652
 5099W        W 9299   4.199   0.930   3.651 -0.1674 -0.0029  0.2930
 5100W        W 9300   3.137   3.555  12.949 -0.2916  0.1095 -0.0930
 5101W        W 9301   1.144   3.044   3.363  0.4522 -0.3382 -0.1253
 5102W        W 9302   8.223   9.246   4.592  0.0410  0.0182 -0.1876
 5103W        W 9303   6.338   9.429   3.930 -0.4316 -0.3114  0.0561
 5104W        W 9304   4.151   2.906  11.441  0.2947  0.2429 -0.0838
 5105W        W 9305   3.429   1.050  11.264  0.0194  0.1939  0.1542
 5106W        W 9306   8.318   7.549  10.137 -0.1374  0.1119  0.1341
 5107W        W 9307   5.399   5.879  10.052 -0.3579  0.2535  0.0079
 5108W        W 9308   1.545   3.294  12.454 -0.0992 -0.0545 -0.2690
 5109W        W 9309   4.330   7.055   3.051 -0.0265 -0.1991 -0.2052
 5110W        W 9310   4.438   2.699  13.101 -0.0526 -0.0766 -0.1588
 5111W        W 9311   4.371   5.792   3.726  0.1288 -0.3843  0.1629
 5112W        W 9312   3.442   2.221   9.926  0.0545  0.1610 -0.0337
 5113W        W 9313   8.716   0.419  11.651 -0.0926  0.1459 -0.2216
 5114W        W 9314   5.204   1.089   2.839  0.1060 -0.2819  0.0264
 5115W        W 9315  10.133   2.538   0.399  0.3498  0.1128 -0.1983
 5116W        W 9316   4.688   6.719   1.123 -0.0351 -0.0570 -0.3416
 5117W        W 9317   7.900   0.065   3.130 -0.0306 -0.3120  0.1628
 5118W        W 9318  10.115   5.870  10.930 -0.2128  0.0245 -0.1386
 5119W        W 9319   3.335   8.135  12.161  0.0833  0.0775 -0.0209
 5120W        W 9320   3.253   7.696   4.717 -0.1450 -0.0923  0.1324
 5121W        W 9321   5.404   6.936  10.683 -0.1432  0.1010  0.3468
 5122W        W 9322   3.858   1.387   2.532  0.1304  0.1324  0.2172
 5123W        W 9323   0.604   3.592  11.376 -0.0608  0.0167 -0.1361
 5124W        W 9324   7.793   5.109   2.952 -0.0714 -0.1531  0.2926
 5125W        W 9325   5.728  10.111  12.923  0.1138  0.1809  0.0987
 5126W        W 9326   2.913   5.542   2.533  0.0616  0.0411 -0.1272
 5127W        W 9327   4.864   1.610   4.894 -0.2682 -0.2137  0.1648
 5128W        W 9328   9.824   3.354   0.820 -0.3725  0.1818  0.0064
 5129W        W 9329   6.175   8.644   4.858 -0.2072 -0.1593 -0.1155
 5130W        W 9330   8.533   5.178   2.722  0.3801  0.2160 -0.0404
 5131W        W 9331   6.774   9.723   1.775 -0.3526  0.0182  0.0723
 5132W        W 9332   9.062   9.176   4.135 -0.2059 -0.3539 -0.2759
 5133W        W 9333   3.383   6.535   3.114  0.0984 -0.2646 -0.2644
 5134W        W 9334   2.043   5.619   0.552 -0.0967  0.0047  0.1604
 5135W        W 9335   5.676   2.777   9.561  0.1190  0.3744 -0.2250
 5136W        W 9336   0.196   8.988   4.533 -0.1493 -0.0367 -0.0215
 5137W        W 9337   5.600   8.181   4.033 -0.1263  0.1236 -0.0635
 5138W        W 9338   1.167   4.825   4.825 -0.4204 -0.4983 -0.1475
 5139W        W 9339   5.878   0.747  11.485 -0.2911 -0.0879  0.1323
 5140W        W 9340   2.388   8.734   1.041 -0.1885  0.2332 -0.2780
 5141W        W 9341   4.612   7.138   4.190  0.0417 -0.0477  0.0740
 5142W        W 9342   4.718   3.641   2.505  0.1959  0.0697  0.1236
 5143W        W 9343   9.322   8.003  12.864  0.3222 -0.0498  0.0814
 5144W        W 9344   6.489   2.194  12.041 -0.0792 -0.0437 -0.2137
 5145W        W 9345   1.948   4.762  12.780 -0.0692  0.0218 -0.1816
 5146W        W 9346   6.174   6.252  10.474  0.2341 -0.0607  0.0517
 5147W        W 9347   2.646   0.655   2.126  0.2251  0.0756  0.2964
 5148W        W 9348   5.564   5.546   2.522  0.2723 -0.0139  0.1498
 5149W        W 9349   8.652   0.949  10.972  0.1320  0.1373  0.1269
 5150W        W 9350   7.985   1.968   0.146  0.2768 -0.0977 -0.0873
 5151W        W 9351   2.137   0.623  12.841  0.3528  0.0490 -0.0274
 5152W        W 9352   5.266   5.871   2.246  0.0298 -0.1556 -0.2179
 5153W        W 9353   4.196   2.400  10.604  0.4114  0.1118  0.1109
 5154W        W 9354   7.203   9.037   3.269  0.1351 -0.1713  0.0558
 5155W        W 9355   4.952   2.152   4.377 -0.1549  0.0667  0.1468
 5156W        W 9356   7.730   8.759   2.155  0.1077 -0.4060 -0.1824
 5157W        W 9357   2.239   4.178   2.267 -0.1541 -0.3463  0.0095
 5158W        W 9358   1.538   3.544   9.361  0.5415  0.3749  0.0248
 5159W        W 9359   8.799   9.089  11.936  0.1144  0.1782  0.0418
 5160W        W 9360   4.064   5.158  11.835  0.1095 -0.4267  0.2968
 5161W        W 9361   4.509   1.823  13.089 -0.0101  0.0242 -0.0052
 5162W        W 9362   6.841   3.175   2.153 -0.1719  0.0069 -0.4605
 5163W        W 9363   3.156   0.292  11.851  0.0547  0.2814 -0.1633
 5164W        W 9364   4.000   8.631  13.172  0.0874 -0.3392 -0.0128
 5165W        W 9365  10.404   4.379   0.093  0.1623  0.3155  0.1971
 5166W        W 9366   0.156   0.500   2.508 -0.1832  0.3876 -0.5548
 5167W        W 9367   4.788   3.324   2.051  0.0036  0.1068  0.3011
 5168W        W 9368   9.541   4.383   0.026 -0.2139  0.3016 -0.1090
 5169W        W 9369   3.769   1.013   9.514 -0.0423 -0.1721 -0.1201
 5170W        W 9370  10.263   8.196   1.344  0.1797 -0.7838 -0.1172
 5171W        W 9371   2.468   1.372   3.225 -0.0042 -0.2382  0.0042
 5172W        W 9372   2.185   1.748  13.014  0.2575  0.0472 -0.1700
 5173W        W 9373   4.104   0.389  10.874 -0.0836 -0.1946  0.2127
 5174W        W 9374   2.152   9.175  11.030 -0.1721  0.1447 -0.1142
 5175W        W 9375   7.376   8.307   2.237 -0.2021  0.2304 -0.0001
 5176W        W 9376   0.374   0.730   3.914 -0.1372  0.1398  0.1252
 5177W        W 9377   4.739   4.515  11.706 -0.0987  0.0041 -0.1949
 5178W        W 9378   1.489   8.208   0.787  0.2313  0.3315 -0.4496
 5179W        W 9379   0.036   2.708   3.711  0.0385 -0.4011 -0.1148
 5180W        W 9380   1.104   5.878  12.022  0.0680 -0.1714  0.3804
 5181W        W 9381   4.752   0.715   3.893 -0.0148  0.3273 -0.2223
 5182W        W 9382   9.305   1.842   1.957  0.1583  0.4260 -0.1583
 5183W        W 9383   0.699   3.244   3.314 -0.2535 -0.0641  0.0467
 5184W        W 9384   9.726   2.769   3.747  0.1495  0.0356 -0.0491
 5185W        W 9385   4.799   8.078   5.035  0.0364  0.3414  0.1216
 5186W        W 9386   1.309   9.553  11.196 -0.0009 -0.0457 -0.1832
 5187W        W 9387   3.078   3.089  13.227  0.2492  0.0172  0.1118
 5188W        W 9388   6.974   9.764  13.387  0.1686  0.1017  0.0667
 5189W        W 9389   8.592   0.190   0.791  0.2082  0.0559 -0.1073
 5190W        W 9390   5.381   9.084   9.498 -0.2598 -0.0076 -0.1192
 5191W        W 9391   7.041   6.788   3.126 -0.0562  0.0136 -0.3324
 5192W        W 9392   9.929   7.829   9.562 -0.1054  0.1203 -0.1755
 5193W        W 9393   5.420   0.793  11.170  0.1091  0.0434  0.1644
 5194W        W 9394   5.502   2.328   9.498 -0.4739 -0.1916 -0.1951
 5195W        W 9395   9.988   9.197  12.058  0.0329 -0.1664 -0.0683
 5196W        W 9396   9.785   0.588   1.975  0.0966  0.2458 -0.1532
 5197W        W 9397   3.762   9.926   1.358  0.3378 -0.1788  0.3779
 5198W        W 9398  10.023   5.302   9.618  0.2355 -0.1717 -0.0672
 5199W        W 9399  10.178   1.496  10.885  0.0325  0.4605 -0.0969
 5200W        W 9400   4.859   9.664   4.715 -0.0772 -0.0576 -0.4213
 5201W        W 9401   2.332   9.839   9.349  0.1104  0.0682 -0.0984
 5202W        W 9402   0.688   0.733   1.139  0.3374  0.2350  0.2697
 5203W        W 9403   7.430   6.048   2.694  0.2808 -0.2643  0.1683
 5204W        W 9404   8.669   9.276  11.509 -0.3227 -0.3736 -0.1384
 5205W        W 9405   2.324   5.571  10.037  0.0479  0.1234  0.2635
 5206W        W 9406   6.065   5.130  12.338  0.0036  0.0324 -0.3328
 5207W        W 9407   1.632  10.191   3.072  0.4497  0.0244  0.2210
 5208W        W 9408   8.875   9.538   0.975 -0.1618  0.1461  0.1623
 5209W        W 9409   8.886   6.158   3.942 -0.0641 -0.4999 -0.1647
 5210W        W 9410   4.037   1.197   1.136  0.0195  0.0323  0.1764
 5211W        W 9411   0.666   4.876  11.560  0.1648  0.2098  0.3967
 5212W        W 9412   6.979   3.595  13.062  0.0268  0.0962 -0.2077
 5213W        W 9413   4.980   7.235   2.875  0.1301  0.0593 -0.3229
 5214W        W 9414   8.181   5.416  13.211 -0.2039 -0.0154  0.0573
 5215W        W 9415   5.443   7.508   4.574 -0.0454  0.2349  0.0029
 5216W        W 9416  10.346   4.345  11.510  0.1963 -0.0496  0.2149
 5217W        W 9417   2.248   2.486   9.167 -0.0434 -0.2144  0.0535
 5218W        W 9418   3.672   4.101   4.332 -0.2270  0.1296  0.0582
 5219W        W 9419   4.360   9.190  11.623  0.0852 -0.4164 -0.0977
 5220W        W 9420   6.675   3.332  12.147 -0.2348 -0.1442  0.3464
 5221W        W 9421  10.119   5.137  10.378 -0.1450  0.1406 -0.2527
 5222W        W 9422   1.478   8.764   9.896  0.1186  0.0333  0.0453
 5223W        W 9423   1.138   2.323   1.414  0.2960 -0.0370 -0.1831
 5224W        W 9424   9.155   6.515   2.531  0.1659 -0.4070  0.1866
 5225W        W 9425   2.786   6.104   2.396 -0.1323 -0.0635  0.0023
 5226W        W 9426   1.359   7.614   9.873 -0.1066 -0.0803 -0.1101
 5227W        W 9427   7.861   3.716  12.490  0.0618  0.0813  0.1813
 5228W        W 9428   0.270   8.710   9.338 -0.2068 -0.1341 -0.4454
 5229W        W 9429   5.580   1.856   1.197 -0.1178 -0.1408 -0.1978
 5230W        W 9430   1.208   9.465   9.271 -0.0505  0.0064 -0.4160
 5231W        W 9431   8.389   8.318   8.551 -0.2304 -0.0929  0.1643
 5232W        W 9432   5.348   6.376   2.216  0.0559 -0.1247 -0.0130
 5233W        W 9433   2.747   9.788  11.262 -0.0741  0.0001  0.0359
 5234W        W 9434   8.849   7.605  12.769 -0.0922  0.1757 -0.3121
 5235W        W 9435   0.696   8.239  13.324 -0.4118 -0.0768  0.0038
 5236W        W 9436   7.943   7.012   4.273 -0.4461  0.2074 -0.0773
 5237W        W 9437   8.701   1.322   2.718 -0.0802 -0.0470  0.0755
 5238W        W 9438   5.114   2.109   9.805  0.3595 -0.2551 -0.1201
 5239W        W 9439   3.476   6.827   1.341 -0.0945  0.1618  0.1353
 5240W        W 9440   5.636   1.259  11.411 -0.2631  0.0461  0.1700
 5241W        W 9441  10.084   5.873   2.077  0.1479 -0.3387  0.0186
 5242W        W 9442   1.919   0.627  10.885 -0.0435  0.0912 -0.2753
 5243W        W 9443   7.451   7.042  13.340  0.1250 -0.1674  0.0313
 5244W        W 9444   6.186   7.664   2.318 -0.3219 -0.0371 -0.1284
 5245W        W 9445   7.755   8.019   1.646  0.0565  0.0030  0.0054
 5246W        W 9446   6.434   3.661  10.524 -0.0198  0.2258 -0.0202
 5247W        W 9447   2.019   6.173   1.206  0.2403 -0.0131  0.1004
 5248W        W 9448  10.266   2.553  13.303 -0.2026 -0.2825 -0.0378
 5249W        W 9449   9.477   7.490   0.106  0.0879  0.3960 -0.0090
 5250W        W 9450   1.216   2.966   8.868 -0.1782  0.1044 -0.0660
 5251W        W 9451   0.832   0.670   9.228  0.3394  0.0593 -0.2066
 5252W        W 9452   3.036   2.169   0.767  0.0493  0.1406  0.0345
 5253W        W 9453   4.573   9.105  12.992  0.0546  0.2329  0.0486
 5254W        W 9454   2.851   2.497   0.472  0.1377 -0.1544  0.0253
 5255W        W 9455   2.728   2.489   4.149  0.0877  0.1398 -0.0029
 5256W        W 9456   1.632   7.338   9.157 -0.0219 -0.0684  0.1756
 5257W        W 9457   2.036   7.265  12.153 -0.1590 -0.2314 -0.0657
 5258W        W 9458   4.727   0.648   0.103  0.1183  0.0154 -0.2292
 5259W        W 9459   7.111   6.693  12.104  0.1494  0.0383  0.0452
 5260W        W 9460   4.915   1.730   0.565  0.1762  0.4293 -0.0712
 5261W        W 9461   2.871   7.784   0.809  0.1908 -0.1435  0.0175
 5262W        W 9462   9.861   0.598   2.534 -0.1501 -0.1398  0.0463
 5263W        W 9463   9.065   3.474  10.664 -0.0096  0.2196  0.0542
 5264W        W 9464   4.642   0.061  13.343 -0.4477  0.0852 -0.0809
 5265W        W 9465   1.960   1.638  11.174  0.1642 -0.3349  0.0906
 5266W        W 9466   4.872   8.519   4.343  0.0211  0.1663 -0.0610
 5267W        W 9467   9.214   9.555   0.278  0.3007  0.2505 -0.0369
 5268W        W 9468  10.120   5.136   4.906 -0.0172 -0.1649  0.1501
 5269W        W 9469   6.316   7.505   1.175  0.2062  0.0028 -0.0962
 5270W        W 9470   4.718   7.893   0.282  0.2428 -0.0782  0.0900
 5271W        W 9471   3.423   9.996  10.910 -0.2149 -0.1750 -0.0778
 5272W        W 9472   6.598   3.248   3.377  0.0594  0.2058  0.1924
 5273W        W 9473   5.545   8.995   3.183  0.1671 -0.4246 -0.1208
 5274W        W 9474   4.409   0.257  10.035 -0.0392 -0.2636 -0.2401
 5275W        W 9475   7.081   8.446  11.615 -0.2771  0.0728  0.3163
 5276W        W 9476   1.618   4.113   0.006 -0.1020 -0.2834 -0.0072
 5277W        W 9477   6.740   6.727   3.689 -0.0828 -0.1650  0.2367
 5278W        W 9478   2.800   8.191   9.948  0.0315  0.0297  0.3868
 5279W        W 9479   8.920   5.798   0.255  0.0637  0.0345  0.0487
 5280W        W 9480   8.519   7.172  12.622  0.0852 -0.4461  0.2876
 5281W        W 9481   0.293   7.658   4.217 -0.1499 -0.0081 -0.0135
 5282W        W 9482   6.596   5.871   4.639 -0.1143  0.0649 -0.1045
 5283W        W 9483   0.822  10.021   2.195 -0.0527  0.1448 -0.2781
 5284W        W 9484   6.291   9.809  10.717  0.1058  0.0717 -0.1284
 5285W        W 9485   6.115   5.896   0.743  0.0041  0.3924 -0.0832
 5286W        W 9486   6.436   5.102   9.218 -0.1664  0.1661 -0.0498
 5287W        W 9487   5.964   9.570  12.005 -0.1142 -0.4088  0.1364
 5288W        W 9488   2.638   4.442  10.754 -0.2949 -0.2588  0.1695
 5289W        W 9489   2.495   8.029   2.409 -0.0643  0.2949  0.2034
 5290W        W 9490   5.624   5.969  12.813  0.0854 -0.1629 -0.0476
 5291W        W 9491   3.129   8.818   9.537 -0.0163  0.0542 -0.2952
 5292W        W 9492   6.047   6.199   1.548  0.1864  0.0272  0.2712
 5293W        W 9493   5.945   1.069  11.099  0.1763 -0.0522 -0.2760
 5294W        W 9494   2.246   1.810  12.283 -0.1115  0.1749  0.0338
 5295W        W 9495   1.982   4.283  12.023  0.0053 -0.0327  0.0269
 5296W        W 9496   5.896   6.570   2.287  0.0707 -0.1038 -0.0499
 5297W        W 9497   3.023   0.414  12.313  0.0017  0.0389 -0.2705
 5298W        W 9498   0.863   9.439   2.224 -0.2424  0.2948  0.0564
 5299W        W 9499   8.310   8.854  10.273 -0.1471  0.0159  0.2424
 5300W        W 9500   7.711   4.178   0.161  0.5603 -0.1063  0.0179
 5301W        W 9501   2.322   6.778   9.434  0.0456  0.0215  0.1351
 5302W        W 9502   4.299   2.417   3.864  0.1939  0.0135 -0.0647
 5303W        W 9503   4.366   1.171  11.852  0.1234  0.0749 -0.0835
 5304W        W 9504   5.466   6.916   8.901  0.0280 -0.0114 -0.1808
 5305W        W 9505   0.925   6.632   0.052  0.1804 -0.1262  0.1230
 5306W        W 9506   7.762   5.039  10.378  0.2095 -0.2981  0.0657
 5307W        W 9507  10.310   7.097  11.199  0.1124 -0.3468 -0.2890
 5308W        W 9508   8.372   2.339   0.957 -0.0156 -0.1365 -0.1531
 5309W        W 9509   7.319   3.147  13.357  0.2606 -0.1562 -0.0585
 5310W        W 9510   7.463   4.381  11.849 -0.0046  0.1636 -0.2273
 5311W        W 9511   2.279   9.440   2.893  0.1561 -0.2631 -0.1439
 5312W        W 9512   6.940   8.970   5.153 -0.0782  0.0395 -0.1475
 5313W        W 9513   9.256   5.102   2.496 -0.2352 -0.2452 -0.1893
 5314W        W 9514   6.354   2.256   0.844 -0.1947 -0.2021  0.4433
 5315W        W 9515   1.983   7.532   1.030 -0.1028 -0.0445  0.1171
 5316W        W 9516   0.820   9.959   9.152  0.0015 -0.2334  0.0734
 5317W        W 9517   7.647   2.776  10.222 -0.2397 -0.0477  0.0797
 5318W        W 9518   4.604   2.452  12.048 -0.1571  0.1218  0.4468
 5319W        W 9519   5.289   4.758   1.247  0.0296 -0.1345 -0.0604
 5320W        W 9520   6.089   2.801   2.072  0.0145  0.0036 -0.3544
 5321W        W 9521   4.640   2.745   2.027 -0.1071 -0.0729  0.0110
 5322W        W 9522   2.215   4.738   1.154  0.0851 -0.2566 -0.2599
 5323W        W 9523   0.528   7.295  12.553 -0.0278 -0.2015 -0.0275
 5324W        W 9524   9.784   5.296   3.760 -0.0677  0.0858  0.2430
 5325W        W 9525   4.307   4.200   9.426 -0.2054 -0.0883  0.1319
 5326W        W 9526   4.679   1.090  10.564 -0.1145 -0.2611  0.1831
 5327W        W 9527   4.852   5.870   1.543  0.2489 -0.2104  0.2557
 5328W        W 9528   3.028   2.711  12.413  0.1603  0.1257 -0.4462
 5329W        W 9529   5.399   7.684   9.969  0.1270 -0.2042 -0.3060
 5330W        W 9530  10.076   2.934   3.425 -0.1804  0.0575 -0.1419
 5331W        W 9531   6.553   2.746   1.112  0.0161 -0.2321  0.1178
 5332W        W 9532   2.806   8.611   3.621 -0.6456  0.0514 -0.0585
 5333W        W 9533   1.934   3.508   1.779 -0.1220  0.0435 -0.2424
 5334W        W 9534   3.455   0.667   4.214 -0.3508  0.3616  0.1445
 5335W        W 9535   4.418   3.663   9.498 -0.0198 -0.1014 -0.0416
 5336W        W 9536   2.792   4.410   1.015  0.0301 -0.5355  0.1069
 5337W        W 9537   9.845  10.372  11.918  0.0484 -0.4445 -0.0811
 5338W        W 9538   2.332   8.620   2.376  0.0341 -0.1218 -0.0084
 5339W        W 9539   0.266   5.612   1.945  0.0219 -0.1785 -0.1592
 5340W        W 9540   6.630   6.971  11.487  0.1329 -0.2899 -0.2757
 5341W        W 9541   0.400   2.380  12.526  0.4313  0.0654 -0.0831
 5342W        W 9542   0.560   2.089   0.076  0.0668 -0.0583 -0.2961
 5343W        W 9543   1.065   7.564  11.400  0.0206 -0.2975  0.6279
 5344W        W 9544   9.463   0.104   0.901  0.0134 -0.0630  0.2909
 5345W        W 9545  10.091   1.074   0.514 -0.3617  0.3145 -0.1319
 5346W        W 9546   6.849   5.827  10.756 -0.0908  0.1454  0.1538
 5347W        W 9547   9.699   3.986   9.969  0.1496  0.1512  0.1672
 5348W        W 9548   4.075   9.747   0.205  0.1467  0.2600  0.1687
 5349W        W 9549   5.614   3.069  11.283 -0.0229  0.0894 -0.0892
 5350W        W 9550   0.684   8.481   3.226  0.0744 -0.0188 -0.1940
 5351W        W 9551   8.100   7.464  11.540 -0.0868 -0.0686 -0.1293
 5352W        W 9552   8.002   7.030   1.912  0.0663  0.1306 -0.2268
 5353W        W 9553   2.324   9.988   9.895 -0.1009 -0.0051  0.1468
 5354W        W 9554   6.337   4.133   2.902 -0.1901 -0.1312  0.2487
 5355W        W 9555   7.251   7.501  10.579  0.1363 -0.2814 -0.1580
 5356W        W 9556   3.784   5.286   2.176  0.0161  0.1752  0.0319
 5357W        W 9557   4.622   5.025  12.164  0.0210  0.2620 -0.2092
 5358W        W 9558   4.467   3.087  12.739  0.1754  0.3429 -0.0832
 5359W        W 9559   8.819   9.111  12.905 -0.1897 -0.0048  0.0749
 5360W        W 9560   9.340   4.181  12.320 -0.0237  0.2496  0.1279
 5361W        W 9561   6.308   3.104  13.261 -0.4825 -0.0168 -0.0770
 5362W        W 9562   1.575   2.166   2.313 -0.2321  0.0612 -0.0518
 5363W        W 9563   8.675   7.048   0.112  0.2026  0.1629  0.1691
 5364W        W 9564   8.407   1.577   3.803 -0.1260 -0.3333 -0.3041
 5365W        W 9565   8.603   0.055   2.008  0.1159  0.5346  0.1092
 5366W        W 9566   9.362  10.300  13.289 -0.2594 -0.2045 -0.1214
 5367W        W 9567   1.511  10.168  10.403 -0.1132  0.1005 -0.0245
 5368W        W 9568  10.371   5.438  13.195  0.0303 -0.1529 -0.3886
 5369W        W 9569   8.425   5.010  13.371  0.1001  0.2689 -0.1185
 5370W        W 9570   2.447   8.482   1.520  0.2934 -0.1308 -0.2514
 5371W        W 9571   7.422   0.334  11.771  0.1828 -0.1693 -0.1724
 5372W        W 9572   3.540   2.829   1.561 -0.0268 -0.2144  0.0086
 5373W        W 9573   1.320   6.979   9.000  0.2886 -0.0381  0.2811
 5374W        W 9574   1.676   3.560   3.417 -0.0572  0.1713 -0.2554
 5375W        W 9575   1.816   5.042  13.241 -0.0427  0.0674 -0.3071
 5376W        W 9576   4.609   2.975   4.716 -0.1740 -0.0446  0.1099
 5377W        W 9577   3.883   7.122   3.682  0.0955  0.3654 -0.0186
 5378W        W 9578   2.053  10.189  11.286 -0.1828  0.0979  0.1296
 5379W        W 9579   8.631   6.958   9.373  0.0753  0.1266 -0.1394
 5380W        W 9580   9.112   8.723  10.353  0.3253 -0.2095 -0.1719
 5381W        W 9581   5.842   4.729   0.765 -0.0737 -0.1378  0.1271
 5382W        W 9582  10.410   1.855   2.539 -0.1026 -0.3939  0.1632
 5383W        W 9583   7.632   1.343  11.425  0.2951 -0.2526 -0.1183
 5384W        W 9584   7.464   4.976   4.841 -0.0187  0.1037 -0.6858
 5385W        W 9585   4.663   3.862   3.552  0.0503 -0.2277 -0.4825
 5386W        W 9586   1.340   9.718  13.312 -0.2606  0.1487 -0.2589
 5387W        W 9587   7.538   5.602   0.068 -0.0301 -0.0845  0.0781
 5388W        W 9588   3.730   9.113  10.815  0.0465  0.0881  0.2317
 5389W        W 9589   9.953   3.971  11.660  0.0538 -0.1200  0.1211
 5390W        W 9590   4.399   9.645   3.986 -0.1447 -0.0925  0.4933
 5391W        W 9591   5.731   5.540   1.021 -0.2004  0.0602 -0.0701
 5392W        W 9592   9.614   8.186   9.549 -0.2029  0.1665  0.3301
 5393W        W 9593   6.840   7.037   9.389 -0.3522 -0.3150  0.3910
 5394W        W 9594   5.717   7.579  11.848 -0.0289 -0.1646 -0.3170
 5395W        W 9595   2.021   2.589  11.060 -0.2144 -0.1888 -0.1716
 5396W        W 9596   9.098   5.431  12.771  0.1311 -0.4439 -0.1657
 5397W        W 9597   0.592   8.882  11.590  0.0238 -0.0932  0.0354
 5398W        W 9598   0.343   7.493   5.105 -0.0664 -0.1419  0.2490
 5399W        W 9599   7.074   9.899  12.922 -0.1812 -0.1858 -0.3863
 5400W        W 9600   4.686   1.276   1.837 -0.2255  0.4111 -0.1218
 5401W        W 9601   1.144  10.401   1.410 -0.0051  0.0935 -0.3486
 5402W        W 9602   6.214   9.650  12.853  0.2306 -0.0003 -0.2440
 5403W        W 9603   6.940   1.284   4.157  0.4007  0.1273 -0.1439
 5404W        W 9604   3.583   3.094  10.856  0.0687  0.2994  0.0882
 5405W        W 9605   2.396   3.611   0.233  0.2417 -0.3398  0.0947
 5406W        W 9606   3.298   9.430   3.212  0.1967 -0.0665 -0.3453
 5407W        W 9607   1.718   6.312   4.269  0.0512  0.1743  0.0252
 5408W        W 9608   3.300   1.153   2.587 -0.0660 -0.5127  0.3348
 5409W        W 9609   9.524   0.564   9.735 -0.0481 -0.1253  0.1886
 5410W        W 9610   7.006   8.472   0.560 -0.0227 -0.1017  0.3026
 5411W        W 9611   0.810   4.761   2.945  0.2790  0.1746  0.0727
 5412W        W 9612   3.870   9.447   2.280  0.0203  0.0425  0.0835
 5413W        W 9613   3.405   4.233   1.629  0.1883 -0.1477 -0.2120
 5414W        W 9614   6.379   3.480  11.739 -0.2018 -0.0809  0.3947
 5415W        W 9615   1.729   2.960  10.502  0.1761 -0.0102 -0.0440
 5416W        W 9616   2.784   7.557  12.594  0.0764 -0.2326  0.1932
 5417W        W 9617   2.655   1.740  13.156  0.0514  0.3272  0.3187
 5418W        W 9618   4.410   2.059   4.136  0.0596 -0.1111 -0.0132
 5419W        W 9619   9.755   9.018  10.915 -0.3931  0.0629  0.0180
 5420W        W 9620   6.986   4.460   4.054  0.0767  0.0037 -0.2446
 5421W        W 9621   5.219  10.287   9.945  0.2067 -0.0290  0.4067
 5422W        W 9622   1.187   8.634   2.557  0.2487  0.0761  0.1609
 5423W        W 9623   2.734   5.071  12.253 -0.0852  0.1340 -0.3131
 5424W        W 9624  10.464   6.843  10.079  0.0936 -0.0321  0.0362
 5425W        W 9625   2.214   3.698   2.197 -0.0841 -0.1227 -0.1696
 5426W        W 9626   3.451   7.471   1.519  0.0610 -0.1472  0.2293
 5427W        W 9627   1.431   0.362  11.006  0.0727  0.1141 -0.1899
 5428W        W 9628   5.136   9.337  10.423 -0.1273 -0.1574 -0.1620
 5429W        W 9629   2.660   1.314   9.186  0.0144  0.0215  0.0629
 5430W        W 9630   9.110   9.826   1.994 -0.2512  0.2394  0.0110
 5431W        W 9631  10.408   4.226   3.082  0.0371 -0.1025 -0.1150
 5432W        W 9632   6.029   0.825   4.375 -0.1447  0.2780 -0.1580
 5433W        W 9633   6.404   3.337   0.550 -0.1877 -0.0463  0.1212
 5434W        W 9634   9.048   2.004  12.607  0.0833 -0.0397  0.1105
 5435W        W 9635   8.157   6.284   3.494 -0.1501  0.0127 -0.3141
 5436W        W 9636   4.968   4.247  12.546  0.2963 -0.4027 -0.0008
 5437W        W 9637   2.083   1.429  10.195 -0.2445 -0.1164 -0.0092
 5438W        W 9638   4.383  10.179   3.960 -0.0898 -0.2391 -0.0581
 5439W        W 9639   7.360   1.758  12.807  0.0296 -0.2531  0.1350
 5440W        W 9640   4.550   1.029  12.289  0.0443  0.1651 -0.0476
 5441W        W 9641   9.314   6.139   3.697 -0.1731  0.0120  0.1632
 5442W        W 9642   4.992   8.408  10.297 -0.1813 -0.0653  0.4396
 5443W        W 9643   7.939   8.369  10.397  0.0508  0.1180  0.1940
 5444W        W 9644  10.249   8.211  11.008  0.1781 -0.0021  0.2008
 5445W        W 9645   6.045   5.165   3.096  0.0616  0.1490  0.2462
 5446W        W 9646   3.251   0.253   2.149  0.1300 -0.1107 -0.1535
 5447W        W 9647   1.026   0.286   2.864  0.1387 -0.0002 -0.0321
 5448W        W 9648   4.798   0.904   4.397  0.1167 -0.1051  0.0642
 5449W        W 9649   8.066   3.001  11.659 -0.4168  0.3290 -0.3884
 5450W        W 9650   3.553   6.964   3.358 -0.2388 -0.0375  0.1924
 5451W        W 9651  10.219   7.055   8.570  0.0290 -0.1492  0.1537
 5452W        W 9652  10.308   6.866   2.017  0.0566  0.2256  0.2117
 5453W        W 9653   8.005   2.315   9.594 -0.0085 -0.1489  0.0318
 5454W        W 9654   0.032   9.034   3.782  0.5429 -0.1539  0.3967
 5455W        W 9655   7.241   5.231  13.255 -0.1909 -0.0676  0.0299
 5456W        W 9656   6.675   7.926   4.755 -0.2524 -0.2057  0.2288
 5457W        W 9657   5.273   7.646   2.631 -0.0272 -0.2868  0.2037
 5458W        W 9658   5.543   7.992  12.141  0.2232  0.0120  0.0989
 5459W        W 9659   3.694   8.513  10.960  0.2109  0.3808  0.2430
 5460W        W 9660   4.801   1.563  11.661 -0.2067  0.0219 -0.0430
 5461W        W 9661   9.228   2.424  11.376 -0.1272 -0.3096  0.0144
 5462W        W 9662   4.775   4.330   9.583 -0.0843  0.0876  0.1339
 5463W        W 9663   1.172   3.069   4.179 -0.2190  0.1250  0.0780
 5464W        W 9664   2.728   4.587   0.452  0.1645  0.4314  0.0200
 5465W        W 9665   9.774   3.209  10.007  0.0271  0.1764  0.1259
 5466W        W 9666   6.421   5.891  12.308  0.0321 -0.1526  0.1827
 5467W        W 9667   4.903   8.941   9.278 -0.0311 -0.0401  0.0134
 5468W        W 9668   2.715   6.013   8.941  0.1034  0.0508  0.0026
 5469W        W 9669   3.800   9.758   0.865  0.0021  0.2484  0.1972
 5470W        W 9670   3.468   1.211  12.678 -0.0344 -0.0874 -0.3417
 5471W        W 9671   3.914   2.178  11.853 -0.0967 -0.0544 -0.2279
 5472W        W 9672   7.044   3.491  12.505  0.2785 -0.1422  0.0707
 5473W        W 9673   4.478   0.630   2.624  0.2604  0.3521  0.3528
 5474W        W 9674   3.694   0.587   0.582 -0.0602 -0.0705  0.1408
 5475W        W 9675   7.900   3.080  12.573 -0.1091  0.1076 -0.0012
 5476W        W 9676   7.305   9.540   2.557 -0.3512 -0.0635 -0.0131
 5477W        W 9677   5.843   8.141  10.714 -0.0497  0.0349  0.0641
 5478W        W 9678   8.233   1.954  11.435 -0.0142  0.0473 -0.0053
 5479W        W 9679   9.842   4.943   3.393 -0.1799 -0.1121  0.3135
 5480W        W 9680   5.645   6.713  10.265  0.1462 -0.0510  0.1085
 5481W        W 9681   7.159   6.464   2.550 -0.1965  0.0697  0.1112
 5482W        W 9682   8.791   6.592   1.464  0.0408 -0.3987  0.2221
 5483W        W 9683   4.429   9.781   4.887 -0.1394  0.2473  0.0198
 5484W        W 9684   9.544   8.068   0.010  0.0876 -0.3156  0.2088
 5485W        W 9685   2.848  10.416   2.249 -0.1303  0.4825  0.1376
 5486W        W 9686   3.034   4.837  12.934  0.1763  0.3057 -0.0163
 5487W        W 9687   3.955   3.354   9.551  0.0429  0.0377 -0.0991
 5488W        W 9688  10.005   0.414  11.676 -0.1906  0.2295 -0.0236
 5489W        W 9689   7.095   6.361   0.599 -0.1273  0.0458 -0.1239
 5490W        W 9690   3.898   2.313   9.538 -0.0562 -0.3290  0.0529
 5491W        W 9691   1.472   7.685   3.225  0.1316  0.0424  0.0824
 5492W        W 9692   4.040   6.303   3.132  0.0749  0.3895 -0.0756
 5493W        W 9693   1.557   3.584   2.249 -0.2509 -0.4907 -0.0190
 5494W        W 9694   0.559   7.196   0.747 -0.0476  0.1851  0.4105
 5495W        W 9695   8.597   8.922   2.832  0.4080 -0.4057 -0.1217
 5496W        W 9696   9.840   8.362  11.346  0.2209 -0.0916  0.0281
 5497W        W 9697   5.550   7.737  13.152 -0.1702 -0.1668 -0.0804
 5498W        W 9698   7.534   8.237   3.347 -0.0831 -0.0483 -0.2967
 5499W        W 9699   4.643   8.042   8.974  0.0607 -0.1080 -0.0351
 5500W        W 9700   0.162   9.866   0.664  0.1490  0.1885  0.0526
 5501W        W 9701   0.876   1.731  13.346 -0.1881  0.2232 -0.1191
 5502W        W 9702   2.496   3.102  12.499  0.1040  0.1226 -0.2332
 5503W        W 9703   4.254   0.017   9.166 -0.3645 -0.0025 -0.1191
 5504W        W 9704   9.352   8.373  10.608 -0.1678 -0.0570 -0.3229
 5505W        W 9705   8.485   0.584   1.672 -0.2242  0.2790  0.0446
 5506W        W 9706   5.123   1.575   1.014  0.3595 -0.1883  0.0815
 5507W        W 9707   1.914   8.622   3.271  0.2347  0.0119 -0.2450
 5508W        W 9708   8.413   6.425  12.188 -0.0676  0.0618  0.1018
 5509W        W 9709   0.845   8.520   9.079 -0.0107 -0.3537  0.1251
 5510W        W 9710  10.461   9.271   1.666  0.1874 -0.0590  0.1580
 5511W        W 9711   1.282   9.901   9.027  0.0106 -0.0589  0.0672
 5512W        W 9712   3.546   7.745   9.827 -0.0877  0.0228 -0.5228
 5513W        W 9713   5.288   8.570   3.984 -0.1456 -0.1346 -0.0078
 5514W        W 9714   3.103   2.836   9.251  0.2779  0.3243  0.5098
 5515W        W 9715   9.763   4.591   2.044 -0.0630  0.1354  0.1901
 5516W        W 9716   3.536   6.241   0.218 -0.1829 -0.1473 -0.0059
 5517W        W 9717   1.956   1.203   2.085 -0.2673  0.1487 -0.0296
 5518W        W 9718   6.217   2.885   4.612 -0.0689 -0.0557  0.0178
 5519W        W 9719   6.005   0.982   9.897 -0.0803 -0.1539 -0.1289
 5520W        W 9720  10.214  10.093   3.797  0.0501  0.4673 -0.3401
 5521W        W 9721   1.694   4.139  10.730 -0.0504  0.1293 -0.1876
 5522W        W 9722  10.438   1.141   0.035  0.1344  0.0914 -0.3110
 5523W        W 9723   1.209   5.954  12.590 -0.0090  0.1414  0.0502
 5524W        W 9724   9.998   9.260   2.739 -0.3208 -0.0271  0.1528
 5525W        W 9725   1.527   8.720  10.910  0.3345 -0.2036 -0.1585
 5526W        W 9726   2.411   9.622   0.566  0.4433  0.4084  0.2412
 5527W        W 9727   0.090   2.974   0.073 -0.0411 -0.0895  0.0295
 5528W        W 9728   0.302   7.452   8.846 -0.5537  0.0960  0.1278
 5529W        W 9729   1.865   3.713   4.279 -0.0062  0.3430 -0.1172
 5530W        W 9730   1.012   9.703  12.580  0.0010 -0.0538 -0.0128
 5531W        W 9731   0.616   0.499  11.095  0.0039 -0.2282 -0.0536
 5532W        W 9732   5.960   0.774  13.008 -0.3592 -0.1497  0.0372
 5533W        W 9733   1.281   8.451   3.216  0.0009  0.3223 -0.0040
 5534W        W 9734   7.623   9.210   3.117 -0.0521  0.0500 -0.3148
 5535W        W 9735   3.907   2.741   3.926 -0.0728  0.1197 -0.2224
 5536W        W 9736   4.908   3.722  10.453 -0.0100  0.0524  0.2188
 5537W        W 9737   2.679   2.658   2.550 -0.0875 -0.2342 -0.2549
 5538W        W 9738  10.167   3.555  11.560 -0.0333 -0.0737  0.0790
 5539W        W 9739   9.315   1.492   3.570 -0.1216  0.1937  0.2493
 5540W        W 9740   6.544   4.304  12.419 -0.1173  0.1803 -0.0093
 5541W        W 9741   2.992   5.560   9.758 -0.0511  0.0782  0.1040
 5542W        W 9742   5.229   9.442   4.319 -0.2421 -0.2337 -0.0259
 5543W        W 9743   4.973   9.702  12.424  0.4107 -0.0268  0.0237
 5544W        W 9744   7.397   1.417  11.902  0.0139  0.2536  0.0385
 5545W        W 9745   1.102   7.172  11.741  0.2282 -0.2004 -0.1290
 5546W        W 9746   6.891   9.410   3.866  0.0932 -0.4009 -0.0005
 5547W        W 9747   0.610   6.703   2.629  0.0807  0.4846  0.1114
 5548W        W 9748   4.711   6.100   3.872 -0.2769 -0.0512  0.1060
 5549W        W 9749   4.669   2.287  12.881  0.1516  0.4548 -0.3155
 5550W        W 9750   5.351   9.669   9.585  0.0578  0.2171 -0.1598
 5551W        W 9751   7.350   5.718   1.765 -0.1273  0.1494  0.1049
 5552W        W 9752   1.984   8.053  12.707 -0.3717 -0.2552 -0.0802
 5553W        W 9753   7.538   9.834  10.900 -0.0390  0.1407  0.3678
 5554W        W 9754   6.243   2.163   9.105 -0.2122 -0.1252  0.2250
 5555W        W 9755   9.955   5.652   4.818  0.2167  0.3035 -0.3150
 5556W        W 9756   6.935   9.024  12.052  0.1108 -0.2443  0.1442
 5557W        W 9757   8.607   4.118  10.622  0.3781 -0.0580  0.0682
 5558W        W 9758   0.185   6.817   0.793 -0.1301  0.1779 -0.2535
 5559W        W 9759   4.068   0.523   9.338  0.0944 -0.1958  0.2757
 5560W        W 9760   5.994   3.045  11.582 -0.1645 -0.0140 -0.1701
 5561W        W 9761   0.384   8.572  12.816  0.2355  0.1526 -0.2295
 5562W        W 9762   8.918   1.526  13.270 -0.1291  0.0400  0.2371
 5563W        W 9763   1.231   0.883   2.674  0.0663  0.0932  0.0333
 5564W        W 9764   3.175   5.726  10.485  0.2291  0.3107  0.1696
 5565W        W 9765   3.957   2.769  10.963 -0.0632 -0.3259  0.0216
 5566W        W 9766   3.680   1.242  13.139  0.1338  0.1238 -0.0985
 5567W        W 9767   8.274   7.958   3.172 -0.1517  0.0453  0.2085
 5568W        W 9768   5.278   6.552  11.287 -0.1179  0.0917 -0.0521
 5569W        W 9769   1.095   7.999   3.430  0.2691 -0.1157  0.0868
 5570W        W 9770  10.431   3.706   0.711 -0.2698 -0.0241  0.1596
 5571W        W 9771   4.934   7.426  11.486 -0.1686  0.0130 -0.1900
 5572W        W 9772   6.453   0.197   4.673  0.4022  0.0791 -0.0886
 5573W        W 9773   9.621   8.829  10.487  0.2693  0.2129 -0.0572
 5574W        W 9774   6.727   0.175  12.043 -0.1248  0.1401  0.1490
 5575W        W 9775   7.176   7.033  11.462  0.0486 -0.1584 -0.1246
 5576W        W 9776   2.031   4.331   9.608 -0.4089 -0.0170 -0.0793
 5577W        W 9777   2.576   5.968   4.281 -0.1784 -0.0780 -0.0004
 5578W        W 9778   8.854   7.157  10.591  0.0464 -0.3865  0.0040
 5579W        W 9779   4.639   4.849   3.553  0.2180  0.1046  0.2962
 5580W        W 9780   7.022   4.115  11.855  0.3331 -0.2185  0.0221
 5581W        W 9781   9.381   2.009   1.405 -0.0743 -0.1476 -0.0670
 5582W        W 9782   3.776   5.771   2.955  0.2677 -0.0179  0.3541
 5583W        W 9783   0.713   2.122   1.537  0.2245  0.3680 -0.2325
 5584W        W 9784   0.777   4.354  10.690  0.0982  0.0577  0.0780
 5585W        W 9785   2.821   0.698   3.490 -0.0925  0.1654 -0.1825
 5586W        W 9786   4.987   0.503   1.157  0.1000 -0.0041  0.0353
 5587W        W 9787   4.178   6.613   4.383 -0.2370 -0.0902  0.0162
 5588W        W 9788   2.591   8.767   9.341 -0.2690 -0.0953  0.0258
 5589W        W 9789   8.896   8.832   3.239  0.0170 -0.1205  0.0292
 5590W        W 9790   2.862   9.339   1.357  0.1696 -0.0282  0.1707
 5591W        W 9791   7.659   6.876   2.729 -0.1572  0.1733  0.0235
 5592W        W 9792   9.384   3.712   0.686  0.0114 -0.1323 -0.0477
 5593W        W 9793   6.750   4.963   3.862  0.0311  0.1995 -0.1736
 5594W        W 9794   8.036   2.856  11.149  0.3083 -0.1763  0.1739
 5595W        W 9795   8.781   4.366  11.009 -0.0034  0.0671  0.2298
 5596W        W 9796   5.663   7.049  13.002 -0.1335 -0.2803 -0.1352
 5597W        W 9797   4.211  10.414  12.987  0.0434  0.0125  0.1959
 5598W        W 9798   2.293   3.934   1.770  0.3244  0.0586 -0.0269
 5599W        W 9799   9.844   9.732  12.123  0.2734  0.1072 -0.4217
 5600W        W 9800   5.842   7.192  11.410 -0.0732  0.1864 -0.0884
 5601W        W 9801  10.387   1.312   2.408 -0.1541  0.0460  0.2097
 5602W        W 9802   7.463  10.120   2.427  0.4747 -0.2046 -0.1088
 5603W        W 9803   9.377   9.080  12.704  0.3843 -0.0021 -0.3015
 5604W        W 9804   2.426   4.281  12.208  0.1038 -0.1758  0.0330
 5605W        W 9805   0.741   5.021  11.070  0.4258  0.1333  0.0247
 5606W        W 9806   3.148   8.287   8.423 -0.0898 -0.0573  0.2395
 5607W        W 9807   4.875   0.994   4.953  0.0922  0.2702 -0.0661
 5608W        W 9808   5.709   7.074   9.921 -0.1530  0.0467  0.1491
 5609W        W 9809   8.963   7.890  11.375  0.3125 -0.1222 -0.0551
 5610W        W 9810   5.201   6.648   1.106  0.0056  0.1141  0.2309
 5611W        W 9811   0.959   8.832   2.947 -0.0714  0.2211 -0.2352
 5612W        W 9812   9.381   7.339   4.526 -0.0703 -0.1439  0.0071
 5613W        W 9813   3.107   6.359  11.165 -0.0662 -0.2169  0.0469
 5614W        W 9814   5.306   3.368   1.964  0.0619 -0.0020  0.0788
 5615W        W 9815   0.960   0.403   1.665 -0.1347 -0.0474 -0.0155
 5616W        W 9816   5.686   9.390   4.530 -0.0339  0.1707  0.0071
 5617W        W 9817   3.624   3.038   2.840 -0.0435  0.3331 -0.1352
 5618W        W 9818   4.906   1.811  11.086 -0.3217 -0.0793 -0.0110
 5619W        W 9819   1.927   1.865   3.678  0.1446  0.0547  0.0598
 5620W        W 9820   0.186   0.962  10.509 -0.1314 -0.3299  0.0471
 5621W        W 9821   0.542  10.150  10.335 -0.3417 -0.0503  0.1635
 5622W        W 9822   3.188  10.408  11.504  0.0444 -0.1321  0.2660
 5623W        W 9823   0.101   0.779  11.012 -0.2857 -0.1678  0.2644
 5624W        W 9824   0.623   7.962  10.503  0.2574 -0.2979 -0.0200
 5625W        W 9825   6.111   4.803   9.512  0.1989  0.0097  0.2202
 5626W        W 9826   0.193   3.804  11.609 -0.1085 -0.0798 -0.2980
 5627W        W 9827   6.381   6.756   2.261  0.0643 -0.1773 -0.2659
 5628W        W 9828   4.730   3.949  11.318 -0.1701  0.1256  0.3580
 5629W        W 9829   7.834   5.445  12.530  0.1314  0.3121  0.1548
 5630W        W 9830   8.984   2.153  13.150 -0.0027  0.1610 -0.0430
 5631W        W 9831   9.806   1.513  13.025 -0.1357  0.1521  0.1208
 5632W        W 9832  10.161  10.107   0.435 -0.0206 -0.0756  0.2323
 5633W        W 9833   9.018   0.168  12.458  0.1251 -0.3050 -0.2369
 5634W        W 9834   0.936   5.872   9.711  0.3363  0.1402  0.0055
 5635W        W 9835   0.142   1.897  11.135  0.5520  0.1178 -0.0232
 5636W        W 9836   7.378   3.849  11.682 -0.0836 -0.1516  0.2304
 5637W        W 9837   4.915   4.249  10.062 -0.0474  0.4196  0.2142
 5638W        W 9838   2.350   2.385   9.693  0.2084  0.0075  0.0164
 5639W        W 9839   0.729   0.322   0.740 -0.4489 -0.1807 -0.0295
 5640W        W 9840   2.288   3.161   1.636 -0.2279 -0.0231 -0.0241
 5641W        W 9841   6.304   4.804   1.535 -0.2819 -0.1238 -0.2698
 5642W        W 9842   2.489   6.127  10.000  0.1817 -0.0065 -0.0074
 5643W        W 9843   1.946   1.136  11.117 -0.1167 -0.1371 -0.0597
 5644W        W 9844   8.705   6.710  12.599 -0.2221 -0.1398  0.0711
 5645W        W 9845   9.269   9.745   3.346 -0.0321 -0.2377  0.2248
 5646W        W 9846   2.025   8.714   1.366  0.1018  0.3339  0.1755
 5647W        W 9847   0.437   1.022   0.132  0.0002 -0.1034  0.0120
 5648W        W 9848   0.341   8.104   2.450  0.1352  0.0296 -0.4053
 5649W        W 9849   9.995   0.040   3.160 -0.0232 -0.1781 -0.1256
 5650W        W 9850   3.285   6.135  13.004  0.3829 -0.0858 -0.3021
 5651W        W 9851   1.945   1.127   2.627 -0.0214  0.0747 -0.0504
 5652W        W 9852   5.665   9.176  12.125  0.2128  0.3245 -0.0816
 5653W        W 9853   2.404   1.209   2.705 -0.0236 -0.1153  0.0224
 5654W        W 9854   8.715   2.677   3.254 -0.1153  0.1557  0.1562
 5655W        W 9855   3.870   4.598  11.905  0.1167  0.0005  0.1780
 5656W        W 9856   1.576   2.279  10.145 -0.2460 -0.0966  0.1025
 5657W        W 9857   1.599   8.619   1.114  0.1088  0.3225  0.1408
 5658W        W 9858   4.790   6.445  11.273 -0.1383 -0.1011  0.1485
 5659W        W 9859   0.034   3.401   0.355 -0.1456 -0.1256  0.0571
 5660W        W 9860   4.504   1.588   3.859 -0.0893  0.0947 -0.0706
 5661W        W 9861   9.566   7.603  10.849  0.0565 -0.1537  0.0747
 5662W        W 9862   0.925   6.391   1.668  0.1427  0.1879  0.0492
 5663W        W 9863   8.466   1.772   1.052  0.0103  0.2516  0.0370
 5664W        W 9864   8.881   2.523  11.814 -0.1158 -0.0717 -0.1400
 5665W        W 9865   6.634   4.914  10.359 -0.1173 -0.2450  0.0058
 5666W        W 9866   6.722   6.196   9.635 -0.1980  0.0558 -0.1981
 5667W        W 9867   6.016   4.297  11.488  0.0726  0.2616 -0.0991
 5668W        W 9868   5.223   7.134  10.068 -0.2021 -0.1473  0.3216
 5669W        W 9869   9.871  10.465   9.186  0.0151  0.1469  0.0889
 5670W        W 9870   0.448   7.697  10.063  0.0946  0.0897 -0.2013
 5671W        W 9871   9.196   2.815  10.998  0.2552  0.0540 -0.0838
 5672W        W 9872   3.787   9.368   1.393  0.0599  0.1974 -0.1746
 5673W        W 9873   5.794   6.268   4.324 -0.0697 -0.0125  0.1744
 5674W        W 9874   3.114   7.455   1.104  0.0566  0.4820  0.1121
 5675W        W 9875   6.953   1.218   0.408  0.1548 -0.2503 -0.0938
 5676W        W 9876   6.445   6.218  10.014 -0.1937  0.2963 -0.0670
 5677W        W 9877   1.579   4.350   1.774 -0.0330 -0.0399 -0.0616
 5678W        W 9878   4.073   3.913  10.652 -0.0467 -0.0674 -0.0271
 5679W        W 9879  10.308   7.120  12.553  0.3525  0.2522 -0.0482
 5680W        W 9880   3.629   4.504   0.885  0.1739 -0.0615 -0.0260
 5681W        W 9881   8.932   4.501  12.350 -0.2186  0.0660 -0.2167
 5682W        W 9882   9.513   6.614  13.387 -0.0500  0.1920 -0.1955
 5683W        W 9883   9.190   3.285   0.890  0.0606 -0.2023 -0.1323
 5684W        W 9884   5.061   7.821  12.077 -0.4193  0.0553  0.1511
 5685W        W 9885   7.308   6.248   0.987  0.1072  0.0796 -0.0012
 5686W        W 9886   6.705   7.794   2.283 -0.3448 -0.0945 -0.0639
 5687W        W 9887   2.039   6.417  11.224 -0.0493  0.1980 -0.0601
 5688W        W 9888   6.851   6.662   1.483 -0.0990 -0.3540  0.1089
 5689W        W 9889   7.312   5.672  10.816  0.1027  0.0517  0.1370
 5690W        W 9890   6.965   2.637   2.572 -0.0645  0.2566  0.1578
 5691W        W 9891   1.988   6.543  10.265 -0.0231  0.2563 -0.0659
 5692W        W 9892   6.086   5.663  12.002  0.0143  0.0049 -0.0455
 5693W        W 9893   7.547   2.562   2.650  0.2231  0.3945 -0.0091
 5694W        W 9894   4.458   1.518  12.238  0.1332 -0.2799 -0.2249
 5695W        W 9895   5.717   6.079  11.729  0.2976  0.2495 -0.0325
 5696W        W 9896   8.779   9.152   2.032 -0.1597 -0.3129  0.2563
 5697W        W 9897   2.459   2.235   1.775 -0.1575  0.0479  0.2370
 5698W        W 9898   6.767   7.542   0.974 -0.0804  0.1940  0.1089
 5699W        W 9899   8.622   2.449  12.317 -0.2012  0.3710 -0.0924
 5700W        W 9900   2.990  10.208  11.022  0.1350 -0.1701  0.0468
 5701W        W 9901   8.647   0.686   2.624  0.0872 -0.1801 -0.2574
 5702W        W 9902   9.090   0.563  10.959  0.3956 -0.1392 -0.1378
 5703W        W 9903   2.334   9.030   3.206 -0.1989 -0.1018  0.0299
 5704W        W 9904   7.749   9.365  11.783  0.0061  0.1092 -0.1596
 5705W        W 9905   4.253   9.201   8.694  0.3483  0.1371 -0.3198
 5706W        W 9906   5.346   4.613  10.777 -0.0558  0.0798  0.0601
 5707W        W 9907   1.676   8.395  11.919 -0.1329  0.4104  0.3245
 5708W        W 9908   9.410   5.312  10.999 -0.0932  0.2044 -0.1314
 5709W        W 9909   4.209   7.966   1.100 -0.1699 -0.1275 -0.3055
 5710W        W 9910   1.811   3.882   3.013 -0.4406  0.3266  0.1093
 5711W        W 9911   1.202   3.042  12.200  0.1855  0.2007  0.0448
 5712W        W 9912   5.653   5.435  12.938 -0.0744 -0.1266 -0.1042
 5713W        W 9913   1.706   4.558   1.310 -0.0784 -0.0232 -0.0345
 5714W        W 9914   0.776   2.869   2.438 -0.2662 -0.0070  0.0510
 5715W        W 9915   6.541   3.793   3.975 -0.0966 -0.0432 -0.5752
 5716W        W 9916   7.755   5.247  13.008  0.2118 -0.4151  0.1644
 5717W        W 9917   1.276   9.308   1.833 -0.1218 -0.1507  0.2061
 5718W        W 9918  10.271   1.214  12.990  0.0289  0.0828 -0.1826
 5719W        W 9919   1.917   6.074   0.679 -0.0644  0.3232 -0.2088
 5720W        W 9920   5.328   4.626   0.760 -0.1273 -0.0579 -0.1393
 5721W        W 9921   3.636   1.357   4.243 -0.2520 -0.1932  0.1124
 5722W        W 9922   2.212   0.929   9.950 -0.1304  0.1755 -0.0675
 5723W        W 9923   6.309   1.305   2.819  0.0294 -0.1392  0.0981
 5724W        W 9924   1.784   9.525  11.023  0.0987 -0.1300  0.4588
 5725W        W 9925   5.212   0.331  12.031  0.3620 -0.1384 -0.0644
 5726W        W 9926   5.120   4.005   3.288 -0.2620 -0.3018 -0.1546
 5727W        W 9927   1.867   8.306   1.640 -0.1821  0.0157 -0.0882
 5728W        W 9928   8.479   0.222   0.241 -0.1523  0.0006 -0.0135
 5729W        W 9929   7.805   0.970   0.658 -0.0957  0.0542 -0.1706
 5730W        W 9930   3.721   7.743   0.463 -0.0761  0.2664 -0.1461
 5731W        W 9931   8.322   5.557   9.082 -0.4256 -0.0850 -0.1262
 5732W        W 9932   8.118  10.280  12.260 -0.0582 -0.0214  0.0815
 5733W        W 9933  10.326  10.016   2.889  0.2595  0.1247 -0.1585
 5734W        W 9934   0.528   1.712   1.751  0.1109 -0.0339 -0.2566
 5735W        W 9935   1.485   0.313   0.610  0.2374  0.0405  0.1098
 5736W        W 9936   0.363   4.425   3.227  0.1340 -0.0687  0.4483
 5737W        W 9937   9.658   2.265   2.113  0.0986 -0.0122  0.0543
 5738W        W 9938   6.871   7.118  11.867  0.2962  0.0432 -0.0809
 5739W        W 9939  10.165   1.110  10.544  0.0834  0.0361  0.3463
 5740W        W 9940   5.619   4.918  10.458 -0.2995 -0.2045 -0.2644
 5741W        W 9941   1.107   0.618  12.757  0.1732 -0.2752  0.0495
 5742W        W 9942   8.299   5.252   1.724 -0.1274  0.0006  0.0246
 5743W        W 9943   6.198   8.397  12.951  0.1406  0.0831  0.0448
 5744W        W 9944   4.720   9.134   0.820 -0.0143  0.2822 -0.0333
 5745W        W 9945   7.154   2.161   1.399  0.3712  0.1554 -0.1125
 5746W        W 9946   0.974   6.086   0.183 -0.1680 -0.1542 -0.1127
 5747W        W 9947   5.846  10.388   0.033 -0.0681 -0.0671  0.2451
 5748W        W 9948   0.179   6.796  11.425  0.0015 -0.2187 -0.3191
 5749W        W 9949   7.211   9.027   0.552  0.0203 -0.0204  0.0788
 5750W        W 9950   0.355   3.953   0.706 -0.1737  0.0096 -0.0834
 5751W        W 9951   9.818   9.038  13.000 -0.1514 -0.2823 -0.1426
 5752W        W 9952   4.810   7.360  10.938 -0.0483 -0.1987 -0.0853
 5753W        W 9953   3.061   8.305  11.788 -0.0840 -0.2581  0.2013
 5754W        W 9954   6.518   9.216  10.148  0.0279 -0.0078 -0.0192
 5755W        W 9955   6.417   8.488   4.022  0.3369  0.1318  0.0984
 5756W        W 9956  10.150   7.422   3.373 -0.1278  0.1113 -0.1760
 5757W        W 9957   9.774   7.944   4.022 -0.3906 -0.1050 -0.0540
 5758W        W 9958   3.361   4.056   0.158 -0.2263  0.0199 -0.2590
 5759W        W 9959   7.056   0.617  10.178 -0.1032 -0.1185  0.0720
 5760W        W 9960   6.847   5.517  10.356  0.2421 -0.3790 -0.2195
 5761W        W 9961   7.187   0.061  12.259 -0.1408 -0.0201  0.1539
 5762W        W 9962   4.939   4.292   2.933  0.1708  0.0409 -0.0723
 5763W        W 9963   6.888   3.614   1.769 -0.3693  0.2007 -0.1906
 5764W        W 9964   2.955   4.151   9.828 -0.0700 -0.1462 -0.1322
 5765W        W 9965   6.303   4.231   3.973 -0.1329  0.0064 -0.0025
 5766W        W 9966   6.979   4.049   1.053  0.1743  0.0745 -0.1138
 5767W        W 9967   5.882   7.235   3.856 -0.1445 -0.4594  0.2778
 5768W        W 9968   5.202   0.324  11.191 -0.0220 -0.0736 -0.1379
 5769W        W 9969   6.333   6.196   9.152 -0.1782 -0.1444  0.0362
 5770W        W 9970   3.564   0.946   1.096 -0.2700  0.1950 -0.2729
 5771W        W 9971   7.752   2.313   0.370 -0.2234 -0.0740 -0.0289
 5772W        W 9972   4.413   0.022   4.321 -0.2425 -0.2866  0.1303
 5773W        W 9973   8.163   7.158   3.813 -0.1144  0.0493  0.2336
 5774W        W 9974   6.431   8.374  11.436 -0.3772 -0.0866  0.2827
 5775W        W 9975   3.708   6.221   3.978  0.2371 -0.0201  0.0136
 5776W        W 9976   8.363   9.514   9.407  0.0736 -0.1286 -0.0342
 5777W        W 9977   4.981   5.944  10.627  0.0366  0.2797 -0.0306
 5778W        W 9978   2.525   3.189   9.771  0.1381  0.0774 -0.2145
 5779W        W 9979   7.114   1.401   1.589 -0.1045 -0.1462 -0.2522
 5780W        W 9980   6.825   9.377   2.248 -0.2785 -0.3128 -0.0585
 5781W        W 9981   7.906   4.730   9.371 -0.1276 -0.1623 -0.3818
 5782W        W 9982   6.777   2.921   9.011 -0.3298  0.0496  0.0690
 5783W        W 9983   9.639   6.146  10.083 -0.2562  0.0839  0.0315
 5784W        W 9984   2.294   1.474   3.816  0.0394  0.3123 -0.1503
 5785W        W 9985   4.257   0.307   3.167  0.1504 -0.4258 -0.1345
 5786W        W 9986   6.001   5.439   1.418 -0.1542  0.0495  0.1453
 5787W        W 9987   7.896   8.956   9.960  0.0739  0.3501 -0.0040
 5788W        W 9988   1.114   7.440   4.069 -0.1011  0.0800 -0.3035
 5789W        W 9989   5.343   0.841   1.734  0.1900 -0.0676 -0.0017
 5790W        W 9990   0.691  10.082   9.790  0.0346 -0.0380 -0.0353
 5791W        W 9991   0.732   4.507   4.024  0.1059  0.1092 -0.1573
 5792W        W 9992   1.172   2.798  13.124 -0.0477 -0.1236  0.1448
 5793W        W 9993   2.554   0.886   3.098  0.0163  0.1363  0.1665
 5794W        W 9994   9.381  10.102   1.093  0.1093  0.1107 -0.0862
 5795W        W 9995   2.588   7.427   9.247  0.1383 -0.2103  0.2221
 5796W        W 9996   1.150   8.392  10.900  0.2538  0.0989 -0.1479
 5797W        W 9997   4.262   5.847   9.863 -0.2920 -0.0528  0.3822
 5798W        W 9998   4.095   8.616  10.697 -0.1300 -0.3124  0.1407
 5799W        W 9999   1.656   7.019   9.491  0.0961  0.0533  0.0912
 5800W        W10000   4.390   2.528  11.136  0.0822  0.1604 -0.2909
 5801W        W10001   4.965   9.952  11.345 -0.0031  0.1777  0.2994
 5802W        W10002   4.275   2.872   5.136  0.0511  0.2368  0.1746
 5803W        W10003   6.175   1.929  10.688  0.1702 -0.2256 -0.1580
 5804W        W10004   4.031   0.651   1.170 -0.0392  0.0747  0.2512
 5805W        W10005   0.386   9.719   9.476 -0.0566  0.0415  0.1009
 5806W        W10006   6.906   1.259   9.964  0.0416  0.0236  0.0099
 5807W        W10007   2.816   0.798  11.798  0.0062  0.0406  0.0721
 5808W        W10008   9.846   7.168  10.872  0.0495 -0.0001  0.1957
 5809W        W10009   6.809  10.034   0.329 -0.0343 -0.1100  0.1750
 5810W        W10010   2.145   6.435  11.745  0.2894  0.0026  0.0933
 5811W        W10011   3.859   2.187   3.092 -0.1783 -0.3504 -0.0677
 5812W        W10012   4.217   1.856   2.038  0.2881 -0.0585 -0.1077
 5813W        W10013   8.757   9.203   9.776 -0.0121  0.2886  0.0288
 5814W        W10014   7.502   6.713  11.716 -0.0254 -0.0395 -0.0652
 5815W        W10015   8.515   4.567  13.158  0.1216 -0.2941 -0.1234
 5816W        W10016   8.594   8.377   1.579  0.3849  0.1230 -0.0909
 5817W        W10017   0.248   8.147   0.064  0.0057 -0.2403 -0.0004
 5818W        W10018   0.005   7.617  10.568  0.1628  0.0631  0.3960
 5819W        W10019   6.560   6.236  12.815  0.0910 -0.2168  0.0410
 5820W        W10020   1.479   4.721  10.124  0.1148  0.4385 -0.0850
 5821W        W10021   9.696   9.758   3.603  0.1328  0.1470  0.0657
 5822W        W10022   3.463   6.086   0.771  0.0708  0.3042 -0.0263
 5823W        W10023   7.755   8.410   1.291  0.3557  0.0170  0.0020
 5824W        W10024   3.879   8.224   0.589  0.3860  0.0059  0.0094
 5825W        W10025   6.171  10.139  12.507 -0.0441  0.0091 -0.0308
 5826W        W10026   8.084   4.344  12.739 -0.0808 -0.2295 -0.2443
 5827W        W10027   0.168   1.992   1.367 -0.0449 -0.3693 -0.0322
 5828W        W10028  10.345   0.195  10.314  0.0149 -0.0879  0.1509
 5829W        W10029   6.140   6.090   3.417  0.0267 -0.1166  0.3036
 5830W        W10030   0.710   7.344   1.525 -0.0564 -0.2368 -0.1404
 5831W        W10031   5.922   9.209   1.818  0.1641 -0.2676  0.2202
 5832W        W10032   4.451   5.532   9.208 -0.2738  0.0697  0.0630
 5833W        W10033   3.874   8.921   2.305  0.1784 -0.1589  0.0163
 5834W        W10034   4.167   1.088   8.569  0.0643  0.0507 -0.0652
 5835W        W10035   4.455   5.405   1.557 -0.0422 -0.1171 -0.1057
 5836W        W10036   8.819   2.071   1.252  0.0300  0.2882 -0.1795
 5837W        W10037   2.054   6.153   1.746  0.1460  0.1695  0.1494
 5838W        W10038   8.941   7.743   9.624  0.0965  0.0879  0.0450
 5839W        W10039   4.177   9.628   3.073 -0.1639  0.0453 -0.1296
 5840W        W10040   6.563   3.852   1.454 -0.0258  0.1265 -0.1406
 5841W        W10041   3.141  10.369   4.646  0.0275  0.0423  0.3156
 5842W        W10042   7.984   0.089   0.217 -0.1510  0.2044  0.1088
 5843W        W10043   3.113   6.612  12.924 -0.1532 -0.1421 -0.2794
 5844W        W10044   6.610   9.765  11.194 -0.1009 -0.0101 -0.0288
 5845W        W10045   5.400   0.891   9.261 -0.3494  0.2216 -0.1390
 5846W        W10046   7.028   8.749  13.320 -0.0408 -0.3239 -0.1718
 5847W        W10047   2.876   8.375   9.435  0.1775  0.2060 -0.3744
 5848W        W10048   8.766   8.513   4.734  0.0210 -0.0474  0.3332
 5849W        W10049   5.402   2.726   0.518 -0.2640  0.3774  0.0171
 5850W        W10050   0.125   6.040  10.906 -0.0517  0.0045 -0.1070
 5851W        W10051   1.210   4.674   2.098 -0.1043  0.1042  0.1711
 5852W        W10052   0.871   1.773  11.493 -0.2621 -0.4569 -0.1584
 5853W        W10053   7.652   2.709  12.933  0.3431 -0.0261  0.0844
 5854W        W10054   1.832   1.990   4.651  0.4036  0.1708  0.2220
 5855W        W10055   5.852   7.512   1.492  0.1093 -0.1393  0.2030
 5856W        W10056   7.461  10.334  11.802  0.3149  0.0090  0.1359
 5857W        W10057   4.474   8.722   9.541 -0.2353 -0.2220  0.1249
 5858W        W10058   1.045   3.642   0.162  0.2246  0.3475  0.3066
 5859W        W10059   7.873   3.350   2.583  0.0485  0.0813  0.0524
 5860W        W10060   7.324   6.615   1.447 -0.1217  0.0203  0.0452
 5861W        W10061   1.853   0.453   1.997  0.1703 -0.2031  0.0837
 5862W        W10062   6.806   5.203  11.865  0.0797 -0.7337 -0.0883
 5863W        W10063   3.511   4.958  12.813  0.1419 -0.0513 -0.1833
 5864W        W10064   6.415   9.903   9.485 -0.1699 -0.0669 -0.1978
 5865W        W10065   6.149   9.352   2.690  0.1411 -0.1539  0.2743
 5866W        W10066   4.564   6.015  12.542 -0.0983  0.2853  0.2109
 5867W        W10067   9.381   3.769  12.625  0.3308  0.0216 -0.1121
 5868W        W10068   2.943  10.090   3.663  0.3087  0.1007  0.0851
 5869W        W10069   9.724   7.851   9.083 -0.2135  0.0757  0.0892
 5870W        W10070   6.577   3.490   2.540 -0.0326  0.2104 -0.0216
 5871W        W10071   5.335  10.316  11.261  0.2431 -0.1732  0.1871
 5872W        W10072   5.070   0.380  13.212  0.0015 -0.0636 -0.0977
 5873W        W10073   7.558   0.068  10.365  0.0934  0.1322  0.3256
 5874W        W10074   4.937   9.658   3.824  0.1836  0.1539  0.0148
 5875W        W10075   8.044   6.803   9.515 -0.3729  0.2760 -0.2392
 5876W        W10076   5.429   5.040  10.000  0.4147 -0.1123 -0.0341
 5877W        W10077   2.295   1.214   0.837  0.0223  0.1138  0.0885
 5878W        W10078   8.646   1.783  12.868  0.0639 -0.1692  0.1856
 5879W        W10079   1.943   0.155  12.660 -0.2757 -0.0964  0.2060
 5880W        W10080   3.760   8.236  10.563  0.1840  0.0826 -0.3489
 5881W        W10081   7.634  10.387   4.950 -0.1168 -0.0278  0.2863
 5882W        W10082   9.104   3.000  12.224  0.0996 -0.0526 -0.1726
 5883W        W10083   5.226   6.158   3.565  0.0228  0.0820  0.2550
 5884W        W10084   8.604   9.621   3.528  0.0246 -0.1232 -0.3107
 5885W        W10085   6.581   3.723   0.936  0.3050  0.0158  0.1606
 5886W        W10086   1.480   4.763   9.137  0.1050  0.1008 -0.1448
 5887W        W10087  10.244   9.001   1.246 -0.3237 -0.3002 -0.2274
 5888W        W10088   6.343   8.888  11.566  0.1072  0.0482 -0.2272
 5889W        W10089   6.908   4.177  10.977  0.0055  0.3745 -0.0218
 5890W        W10090  10.186   7.715   0.761 -0.0651 -0.0970  0.1559
 5891W        W10091   8.717   5.888  11.434  0.0236 -0.0769 -0.1060
 5892W        W10092   7.423   0.719   3.293 -0.2303  0.2532 -0.3228
 5893W        W10093   5.462   0.265   9.879 -0.0278 -0.0787  0.1111
 5894W        W10094   4.343   7.527   9.195  0.1646 -0.1944  0.3362
 5895W        W10095   1.361   4.420  11.414  0.0087  0.0439  0.0660
 5896W        W10096   4.050   3.051   3.214 -0.1818  0.0529  0.1776
 5897W        W10097   5.357   2.608   4.251 -0.0052 -0.3474 -0.2429
 5898W        W10098   2.017   8.182  12.227  0.1756 -0.1048 -0.1465
 5899W        W10099   5.201   6.946   2.464  0.1306  0.2266 -0.2412
 5900W        W10100   2.969   8.459  11.238 -0.1902  0.0175 -0.1528
 5901W        W10101   4.596   9.010   3.362 -0.1056  0.0566 -0.3381
 5902W        W10102   9.985   3.547  13.265  0.1726 -0.1088  0.0510
 5903W        W10103   0.982   5.419  12.385 -0.0097  0.2072 -0.3217
 5904W        W10104   7.616   7.427   4.432 -0.0321 -0.1524 -0.0583
 5905W        W10105   3.585   1.546   8.903  0.0042  0.2139 -0.0172
 5906W        W10106   2.652   0.095   3.835 -0.0065 -0.3400 -0.2108
 5907W        W10107   3.766   3.238   9.055 -0.0510 -0.0219  0.1142
 5908W        W10108   2.068   0.936   3.994  0.0470 -0.0002 -0.1209
 5909W        W10109   4.310   2.469  11.693 -0.0505 -0.0149  0.2842
 5910W        W10110   8.121   8.934  13.354  0.0394  0.3821  0.1992
 5911W        W10111   9.486   4.371   2.648  0.2081 -0.1996 -0.0966
 5912W        W10112   4.660   2.844  11.472 -0.1163  0.3327 -0.1473
 5913W        W10113   7.396   1.425   2.049 -0.1334  0.2469 -0.0133
 5914W        W10114   6.691   6.684  10.320  0.0407 -0.1698 -0.0518
 5915W        W10115   8.560  10.010   9.516  0.1833 -0.0333  0.1509
 5916W        W10116   3.905   7.928   2.252  0.4829  0.0875  0.0296
 5917W        W10117   6.082   5.642   2.459 -0.0750  0.0086  0.1780
 5918W        W10118   8.236   7.216   0.359  0.3614  0.2416 -0.1285
 5919W        W10119   7.862   0.958   3.020 -0.1703 -0.1616  0.0136
 5920W        W10120   1.212   7.520  10.875 -0.1507  0.2533  0.0573
 5921W        W10121   7.045   0.046   1.436  0.0981 -0.2207  0.1666
 5922W        W10122   8.985   4.858   4.124  0.0266 -0.1462 -0.1107
 5923W        W10123   6.795   0.634   4.010 -0.1213 -0.1766 -0.2815
 5924W        W10124   9.349   1.953   3.282 -0.0057  0.0760  0.2141
 5925W        W10125   8.053   1.313   9.660 -0.2122  0.2757 -0.1992
 5926W        W10126   2.281   5.103   0.035 -0.1948 -0.1088 -0.0316
 5927W        W10127   3.785   0.375  12.091 -0.2770 -0.1701  0.0468
 5928W        W10128   7.537   8.493   9.381 -0.1705 -0.0918  0.2240
 5929W        W10129   1.769   0.250  12.116  0.0441  0.0304  0.1255
 5930W        W10130   2.908   8.605  12.586 -0.2818  0.1284  0.3022
 5931W        W10131   3.358   5.029   2.023  0.1402  0.2801  0.2245
 5932W        W10132   3.855   8.441   2.309  0.0470 -0.3239 -0.2879
 5933W        W10133   8.466   2.246  11.763  0.2640 -0.0038 -0.2468
 5934W        W10134   9.569   0.128  12.977  0.3200  0.0603 -0.0112
 5935W        W10135   9.424   1.337  10.105  0.0326 -0.2758  0.1042
 5936W        W10136   0.361   4.074  12.096  0.0653  0.0504  0.1901
 5937W        W10137   6.115   3.450  11.299 -0.0032 -0.0940  0.2929
 5938W        W10138   4.046   1.183  12.235 -0.0697 -0.0759  0.0763
 5939W        W10139   7.154   7.187   1.353  0.0938  0.0301 -0.3009
 5940W        W10140   2.879   2.214   9.585  0.0613  0.0758  0.0669
 5941W        W10141   0.287   6.146   3.272 -0.0401 -0.2218  0.2775
 5942W        W10142   0.046   2.866  12.442 -0.0650  0.4429 -0.4295
 5943W        W10143   4.824   8.656  10.732 -0.1036  0.0084  0.2644
 5944W        W10144   9.546   4.635   3.125  0.1408  0.2702  0.3661
 5945W        W10145   7.154   3.742   0.687  0.0606  0.0506 -0.1446
 5946W        W10146   9.729   6.784   1.206  0.0660  0.0247 -0.1186
 5947W        W10147   3.486   0.898   9.071  0.0659 -0.1973 -0.2071
 5948W        W10148   1.095   7.174   1.009  0.0743  0.0227  0.0938
 5949W        W10149   7.245   6.079   9.526  0.0892 -0.0807 -0.1582
 5950W        W10150   6.670   8.331   9.736 -0.1459  0.1290  0.1744
 5951W        W10151   6.336   5.257  13.236  0.0815 -0.0692 -0.0475
 5952W        W10152   0.454   5.862  11.266  0.1262 -0.1833  0.2856
 5953W        W10153   3.598   9.510   0.070  0.3568  0.0869 -0.2974
 5954W        W10154   2.299   4.187  11.647  0.0177  0.1136  0.0659
 5955W        W10155   1.319   5.662   5.232  0.1268  0.0684 -0.0993
 5956W        W10156   7.505   2.776  11.149  0.0122  0.1345  0.0492
 5957W        W10157  10.109   7.845  10.085  0.1367  0.0458 -0.3012
 5958W        W10158   1.629   5.266   1.788 -0.4750  0.0605  0.2301
 5959W        W10159   9.254   5.919  12.650  0.3049  0.2947  0.1115
 5960W        W10160   3.681   3.162   4.414  0.0653  0.0686 -0.0638
 5961W        W10161   7.046   4.333   2.134 -0.0481  0.0660 -0.1563
 5962W        W10162   6.456   4.823  12.939 -0.2217  0.2089 -0.0629
 5963W        W10163   6.174   0.074  12.170  0.0239  0.2085 -0.0105
 5964W        W10164   5.509   7.787   0.626  0.2051 -0.0286 -0.1176
 5965W        W10165   2.998   9.187   0.897 -0.1536 -0.1217  0.0166
 5966W        W10166   2.388   2.328   0.116  0.3884 -0.0127 -0.0674
 5967W        W10167   7.389   3.967   2.539 -0.0353  0.0659 -0.0077
 5968W        W10168   7.033   7.653   3.514 -0.2244 -0.0300 -0.2691
 5969W        W10169   8.615   1.983   3.983  0.2780  0.0614  0.3084
 5970W        W10170  10.040  10.070  11.488  0.1744 -0.4825  0.1818
 5971W        W10171   8.180   5.779   1.870  0.0257  0.0278  0.0044
 5972W        W10172   5.118   8.298   4.756  0.1497 -0.3746  0.0870
 5973W        W10173   7.744   9.315  12.721 -0.1274 -0.3234 -0.1146
 5974W        W10174   2.023   0.058  10.925  0.2764 -0.0815 -0.1727
 5975W        W10175   4.057   4.873  10.771 -0.0152 -0.0276  0.2290
 5976W        W10176   9.022   8.407   8.382 -0.0901  0.0402 -0.2348
 5977W        W10177   0.087   6.296  12.214  0.0252  0.1692 -0.0300
 5978W        W10178   4.161   9.233   2.652  0.0956 -0.2554  0.1596
 5979W        W10179   3.373   9.278   9.638  0.1739 -0.0482 -0.1258
 5980W        W10180   6.349  10.359   0.222  0.0358 -0.1618 -0.1791
 5981W        W10181   4.167   8.468   0.998  0.3049  0.2137 -0.0196
 5982W        W10182   0.733   4.973   3.920 -0.3763  0.0027  0.3123
 5983W        W10183   0.510   1.144  10.894 -0.0906  0.0568  0.2441
 5984W        W10184   3.935   0.131  11.635  0.2296 -0.0636  0.1939
 5985W        W10185   6.058   9.811   2.918  0.2320 -0.0016 -0.0546
 5986W        W10186   9.894   4.561  11.460 -0.1960 -0.2813  0.1700
 5987W        W10187   8.639   9.779   1.326 -0.0424  0.0912 -0.0568
 5988W        W10188   0.953   3.311   3.742  0.0865  0.0891 -0.2049
 5989W        W10189   7.782   5.065   0.918 -0.0009 -0.2654 -0.2127
 5990W        W10190   8.236   2.446   4.026 -0.0018  0.0021 -0.2075
 5991W        W10191   5.704   0.273  10.570  0.4651 -0.0416 -0.0589
 5992W        W10192   8.952  10.013   8.722 -0.2864  0.0737 -0.1311
 5993W        W10193   3.949   7.831   9.543  0.1623 -0.0652 -0.3587
 5994W        W10194   1.292  10.442   3.276  0.0948 -0.2937 -0.0662
 5995W        W10195   6.103   6.364   0.872 -0.1975 -0.0724  0.1300
 5996W        W10196   9.647   5.831  11.691  0.0974  0.2825 -0.1929
 5997W        W10197   1.859   6.601   9.346  0.1772  0.1422 -0.1817
 5998W        W10198   9.034   0.503   9.820  0.0460  0.1852 -0.2261
 5999W        W10199   0.213   5.981   2.785 -0.0671  0.3559  0.0473
 6000W        W10200   0.400   4.907   3.091  0.2261 -0.2235  0.2435
 6001W        W10201   5.289   3.475   9.686 -0.0887  0.3836  0.0783
 6002W        W10202   2.434   5.749  11.686  0.1712 -0.1488 -0.0117
 6003W        W10203   2.850   3.085   2.297  0.1942 -0.2848  0.2846
 6004W        W10204   1.814   0.979  12.601  0.2550  0.0019  0.1369
 6005W        W10205   3.291   1.843   0.462  0.2285 -0.1606 -0.0547
 6006W        W10206  10.455   2.387   2.623 -0.1535  0.0392 -0.3762
 6007W        W10207   8.542   1.426   9.980 -0.4149  0.2267 -0.2768
 6008W        W10208   5.027   9.546   5.276  0.0954  0.0220 -0.2117
 6009W        W10209   4.133   1.476   4.414  0.0381  0.3340 -0.0914
 6010W        W10210  10.446   8.278  12.046  0.1843  0.3665  0.1138
 6011W        W10211   2.177   5.217  11.985  0.4223 -0.1518  0.0575
 6012W        W10212   3.256   8.264  10.883 -0.0489  0.0243  0.2471
 6013W        W10213   3.895   8.392  11.363  0.0352  0.0476  0.2150
 6014W        W10214   0.612   7.530   3.806 -0.3004 -0.2168 -0.2711
 6015W        W10215   7.686   3.643   0.988  0.1616 -0.0330  0.1211
 6016W        W10216   0.183   5.839  12.244 -0.0042 -0.0824  0.0985
 6017W        W10217   3.848   5.475   5.218  0.0186  0.1160 -0.1082
 6018W        W10218   7.946   2.871   2.503  0.1035 -0.3621 -0.1441
 6019W        W10219   6.232   7.866   1.510  0.0494  0.0930 -0.0197
 6020W        W10220   7.251   8.067   1.824  0.0916  0.1244  0.1082
 6021W        W10221  10.431   8.026   2.717 -0.0725 -0.1224 -0.1669
 6022W        W10222   6.874   4.189   0.627 -0.0468  0.1140  0.0694
 6023W        W10223   5.711   6.831  11.168  0.0375 -0.0344  0.2663
 6024W        W10224  10.208   9.625  12.437 -0.0603  0.1287  0.2436
 6025W        W10225   8.017   2.388  11.275 -0.3114  0.1376 -0.1738
 6026W        W10226   4.268   6.715  11.298  0.0928 -0.0901  0.0127
 6027W        W10227   3.513   0.103   8.315  0.1887  0.1019  0.2885
 6028W        W10228   8.950   7.851   1.212 -0.0049  0.0953 -0.1975
 6029W        W10229   3.752   0.934   1.539 -0.1540  0.0855 -0.0911
 6030W        W10230   3.314   1.589  12.926  0.4449 -0.2127  0.0170
 6031W        W10231   4.099   1.044   4.584 -0.1507  0.2473 -0.1279
 6032W        W10232   8.183   8.055  13.370  0.0510  0.1000  0.0679
 6033W        W10233   3.570   3.223  12.989 -0.2981  0.2924  0.2826
 6034W        W10234   2.097   5.471  11.419 -0.1787  0.2725 -0.2620
 6035W        W10235   3.582   4.606  12.358 -0.0858  0.2589 -0.0610
 6036W        W10236   1.146   6.352  12.246 -0.1643 -0.1870  0.0176
 6037W        W10237   6.725   1.278  10.509  0.1513  0.2701  0.3693
 6038W        W10238   8.140   1.370   2.687  0.0574  0.1061 -0.1392
 6039W        W10239   4.904   3.148   9.750  0.0664  0.2242 -0.0850
 6040W        W10240   5.409   1.693   1.737 -0.0801 -0.1337  0.0884
 6041W        W10241   1.408   7.672   2.235 -0.2215  0.1541 -0.3574
 6042W        W10242   7.604   6.945   3.268 -0.0177 -0.0808 -0.1443
 6043W        W10243   1.648   7.325   2.991 -0.2200  0.1236  0.3343
 6044W        W10244   5.953  10.241   0.573  0.2833 -0.2031 -0.0073
 6045W        W10245   3.905   4.359   3.183 -0.0809  0.2253 -0.2671
 6046W        W10246   1.229   9.591   0.422  0.0202 -0.0836 -0.0207
 6047W        W10247  10.383   8.127  10.449  0.0242  0.0631  0.1249
 6048W        W10248   5.602   6.657   4.020  0.2317  0.2260 -0.1923
 6049W        W10249   5.889   2.427   0.313 -0.0881 -0.0959  0.3339
 6050W        W10250   4.232   5.973   0.651  0.0815  0.0615 -0.2464
 6051W        W10251   3.656   6.325  12.591  0.1411  0.1179  0.0624
 6052W        W10252  10.273   0.757   1.006 -0.0062 -0.0082 -0.2459
 6053W        W10253   4.523   7.500  10.423 -0.1823 -0.1119 -0.5429
 6054W        W10254   1.299   7.476  10.368 -0.1906 -0.0497 -0.0662
 6055W        W10255   6.678   4.492   1.142  0.0574  0.3296 -0.0853
 6056W        W10256   5.143   3.283   2.461 -0.1207  0.0236  0.2188
 6057W        W10257   5.681   4.468  11.129  0.2045 -0.2691  0.0700
 6058W        W10258   8.407   5.950   0.334  0.0351  0.2252 -0.2509
 6059W        W10259   8.322   3.827   0.848 -0.0971 -0.0062  0.4228
 6060W        W10260   6.158   4.703   2.015 -0.2906 -0.1276  0.3050
 6061W        W10261   7.774   8.540   4.392  0.0147 -0.0694  0.0102
 6062W        W10262   2.669   4.706   1.400  0.0457 -0.0182 -0.0610
 6063W        W10263   8.187   4.304  11.037  0.0776  0.2853 -0.2267
 6064W        W10264   0.079  10.432   0.406  0.2530  0.2192  0.3409
 6065W        W10265   9.279   9.029   1.151 -0.1432 -0.1071  0.3587
 6066W        W10266   4.995   7.576   0.784  0.2148 -0.0161  0.0215
 6067W        W10267   0.171   5.618  11.712  0.3010  0.3462  0.1107
 6068W        W10268   2.084   3.144  12.224  0.0782 -0.2873  0.4387
 6069W        W10269   0.439   0.260  11.534 -0.2475  0.1267  0.2273
 6070W        W10270   2.579   5.678   2.208 -0.1497  0.1442 -0.0202
 6071W        W10271  10.051   1.028  11.063 -0.1796  0.4806  0.0865
 6072W        W10272   9.269   9.540  12.194 -0.2373  0.0039  0.4568
 6073W        W10273   2.980   2.727   4.528  0.1441 -0.4368  0.2805
 6074W        W10274   4.928   4.385   1.019 -0.2214  0.0730 -0.0345
 6075W        W10275   5.699   8.910   0.503 -0.2087  0.0062 -0.1371
 6076W        W10276   5.830   3.448  11.850  0.0724  0.2215  0.0340
 6077W        W10277   8.278   7.971   1.932 -0.2627 -0.1175 -0.2624
 6078W        W10278   9.311   9.011  12.227  0.0126 -0.1174  0.2958
 6079W        W10279   5.532   4.125  11.575  0.0762 -0.0436  0.2289
 6080W        W10280   5.730   7.631   1.029  0.0176 -0.1274  0.1446
 6081W        W10281   4.755   3.835   0.197  0.0340 -0.0274 -0.0607
 6082W        W10282   5.116   6.533   8.748 -0.0513  0.2025  0.2833
 6083W        W10283   9.443   4.882  11.305  0.0137  0.1922 -0.0438
 6084W        W10284   7.908   7.641   0.169 -0.1231 -0.2767  0.1375
 6085W        W10285   2.942   3.586  10.562 -0.1119  0.2705 -0.0039
 6086W        W10286   6.022   6.696   1.682  0.0714  0.1817 -0.1494
 6087W        W10287   9.813   6.993  11.380 -0.1843  0.0180  0.0657
 6088W        W10288   9.930   5.709   1.354  0.0280 -0.0076 -0.0286
 6089W        W10289   4.781   6.381   5.229  0.0237  0.1806  0.1231
 6090W        W10290   6.957   0.250   2.105 -0.1310 -0.0543 -0.0461
 6091W        W10291   4.062   5.063   2.546  0.2798  0.0092  0.4641
 6092W        W10292   9.433   3.691  11.012 -0.4368  0.1666 -0.0612
 6093W        W10293   8.592   9.537   4.024 -0.0340  0.4450  0.1609
 6094W        W10294   2.609   2.662  12.153 -0.0459  0.0397  0.0798
 6095W        W10295   5.896   8.133   2.279 -0.0136 -0.3467 -0.1586
 6096W        W10296   1.306   0.356   4.113  0.1545  0.0577  0.0686
 6097W        W10297   1.486   1.179  10.870 -0.1006 -0.1221 -0.2204
 6098W        W10298   5.414   8.603   2.926  0.0743  0.3484  0.2020
 6099W        W10299   6.057   4.124   9.413  0.0457  0.3444  0.0432
 6100W        W10300   9.964   3.902   0.729  0.0535 -0.0459  0.0897
 6101W        W10301   6.885   2.393   9.038 -0.1611 -0.0613  0.2352
 6102W        W10302   6.118   2.428  10.772 -0.1917  0.1898  0.2867
 6103W        W10303   3.449   8.093   2.477  0.2105  0.1502  0.0691
 6104W        W10304   4.985   6.229   9.251  0.0983 -0.2951  0.2451
 6105W        W10305   3.262   9.148  12.366  0.1280  0.2029  0.1331
 6106W        W10306   0.807   1.559   1.229  0.0766  0.2200 -0.0747
 6107W        W10307   4.234   5.679  11.053 -0.1811  0.1243 -0.1212
 6108W        W10308   2.978   5.175   4.189 -0.2848  0.0662  0.2035
 6109W        W10309   0.466   8.891   3.651 -0.4530 -0.1466 -0.3018
 6110W        W10310   5.747   7.030  12.529 -0.2247  0.1733 -0.0806
 6111W        W10311   9.238   5.802   4.127  0.0869  0.0874  0.0487
 6112W        W10312   2.099   4.743   3.481  0.3519 -0.2723  0.1765
 6113W        W10313   6.512  10.371   3.375  0.3565 -0.4294  0.0713
 6114W        W10314   1.515   1.836   0.741 -0.0178 -0.1100  0.1696
 6115W        W10315   0.852   7.589   0.651  0.0730 -0.0513 -0.0930
 6116W        W10316   6.792   8.724  11.139  0.2639  0.2371 -0.1300
 6117W        W10317   8.543   8.397   3.157 -0.0690 -0.1502 -0.2935
 6118W        W10318   8.221   5.641   9.658  0.0899 -0.0862 -0.3044
 6119W        W10319   8.186   8.296  11.937 -0.1750 -0.1462 -0.2509
 6120W        W10320   6.723   1.905   0.334  0.1260 -0.1845 -0.2416
 6121W        W10321   2.181   4.568  10.905  0.1995  0.0032  0.0431
 6122W        W10322   8.789   1.161   0.195  0.0348  0.3961  0.1353
 6123W        W10323   8.434   6.926   4.218  0.1750  0.2877 -0.1937
 6124W        W10324   5.808   1.446  11.971 -0.3164  0.0763  0.1406
 6125W        W10325   6.531   5.048   2.875 -0.2152  0.0463  0.1579
 6126W        W10326   1.331   4.278   9.099 -0.0797  0.2534  0.0977
 6127W        W10327   9.107   5.704  11.191 -0.1203 -0.1042 -0.0235
 6128W        W10328   2.504   8.992   2.085 -0.4095 -0.0317  0.0250
 6129W        W10329   5.982   9.891  11.639 -0.2522  0.0771  0.1269
 6130W        W10330   5.688   8.430   4.894 -0.0074 -0.1331  0.2677
 6131W        W10331   7.258   5.892  10.338  0.1615 -0.0730  0.1024
 6132W        W10332   2.055   9.255   4.619  0.0412 -0.2065 -0.1477
 6133W        W10333   3.983  10.226   9.581 -0.2385  0.0500  0.2557
 6134W        W10334   1.829   4.780   1.803  0.0715  0.2759  0.0737
 6135W        W10335   8.924   9.964  10.866  0.2436 -0.1714 -0.0072
 6136W        W10336   4.868   4.985   2.028 -0.3004 -0.0587  0.1227
 6137W        W10337   0.666   3.663   1.058  0.1599 -0.2269  0.0990
 6138W        W10338   0.686   6.486   2.126 -0.0379 -0.0596  0.1982
 6139W        W10339   5.363   8.227  13.140  0.1237 -0.0410  0.0521
 6140W        W10340   5.009   3.908   1.775 -0.2630  0.0461  0.4336
 6141W        W10341   9.757   9.600  12.942 -0.4737  0.1646 -0.1206
 6142W        W10342   1.401   3.980  10.324 -0.1673 -0.3026 -0.0246
 6143W        W10343   0.660  10.231  10.827  0.1335  0.1515  0.2184
 6144W        W10344   9.514   2.597   1.468  0.0606  0.0768  0.0659
 6145W        W10345   9.089   2.825  12.741 -0.0139 -0.2531 -0.0009
 6146W        W10346   8.177   7.223   1.360  0.1994 -0.0409 -0.0034
 6147W        W10347   0.580   5.478   0.896 -0.0157 -0.2005  0.0542
 6148W        W10348   1.601   0.753   2.311  0.1153 -0.3317  0.1700
 6149W        W10349   4.213  10.297  10.060  0.0988  0.2769 -0.2807
 6150W        W10350   1.063   6.450  11.395 -0.0469  0.2278 -0.1861
 6151W        W10351   1.782   4.430   2.244 -0.0862  0.1201  0.2157
 6152W        W10352   1.114   2.398  10.922 -0.1129 -0.1063 -0.0157
 6153W        W10353  10.451   1.943  11.674 -0.1863  0.0008  0.2105
 6154W        W10354   1.658   1.821   2.939 -0.2406  0.1597 -0.0511
 6155W        W10355   6.890   3.660  10.864 -0.1423 -0.2373  0.3035
 6156W        W10356   4.717   9.554  11.675 -0.1372 -0.0688 -0.0626
 6157W        W10357   6.255   0.158   0.647  0.3169 -0.3386 -0.1517
 6158W        W10358   1.606   9.091  11.302 -0.1407  0.2362  0.0536
 6159W        W10359   5.125   5.185  12.230  0.0267  0.4175 -0.1675
 6160W        W10360   9.019   7.839   2.034 -0.1261  0.0901  0.2299
 6161W        W10361   0.983   5.204   0.626 -0.0943 -0.0247 -0.2572
 6162W        W10362   3.103   3.179   3.655 -0.2062 -0.2054  0.0108
 6163W        W10363   6.678   0.775   2.948 -0.2218  0.0180  0.0491
 6164W        W10364   5.648   4.105  13.222  0.2778 -0.0246  0.0554
 6165W        W10365   6.831   9.245   1.368 -0.0945 -0.0484  0.0593
 6166W        W10366   9.354  10.362   2.530  0.2617  0.2884  0.2265
 6167W        W10367   6.294  10.079  12.022 -0.0752  0.0506 -0.0639
 6168W        W10368   9.772   9.666   2.734 -0.1533 -0.1252  0.1427
 6169W        W10369   7.090   5.061  10.471 -0.0058  0.3663  0.2329
 6170W        W10370   6.171   3.660  12.180  0.0387 -0.0009 -0.0072
 6171W        W10371   4.573   3.975   2.074 -0.6095 -0.1528  0.2475
 6172W        W10372   3.582   4.840   2.557 -0.0498  0.0424  0.2820
 6173W        W10373  10.145   9.194  11.199 -0.1536 -0.2473 -0.2290
 6174W        W10374   6.462   6.369  12.352  0.2119  0.0583 -0.0683
 6175W        W10375   5.918   4.975   1.228  0.0104  0.0984 -0.0457
 6176W        W10376   2.384   8.122  11.899  0.0996  0.3207  0.2714
 6177W        W10377   3.845   6.779  12.734 -0.0410 -0.0237  0.0039
 6178W        W10378   7.039  10.346   2.499  0.2767 -0.3067  0.1882
 6179W        W10379   2.506   7.150  12.442  0.0513  0.1454  0.2039
 6180W        W10380   2.713   1.745   2.991  0.1651  0.2502 -0.1135
 6181W        W10381   8.335   1.340  10.797  0.1385 -0.0348 -0.0643
 6182W        W10382   8.916   4.407   1.770 -0.3073  0.0515 -0.3572
 6183W        W10383   6.809   7.852   9.484  0.1073 -0.1940 -0.3048
 6184W        W10384  10.337   0.112   1.865 -0.0441  0.1970 -0.1170
 6185W        W10385   0.411   5.112   0.644  0.1597  0.2208  0.0365
 6186W        W10386  10.167   9.827   0.847 -0.1045  0.0428 -0.1855
 6187W        W10387  10.359  10.357  11.179 -0.0541 -0.0238 -0.2698
 6188W        W10388   2.867   2.457   1.996  0.2592 -0.0713 -0.0140
 6189W        W10389   1.933   7.860  11.691 -0.1144  0.3421  0.0743
 6190W        W10390   2.566   6.799  10.512  0.2539 -0.0823  0.1014
 6191W        W10391   5.122   4.118   3.775 -0.1422 -0.2733 -0.1865
 6192W        W10392   5.832   8.808   9.419  0.0932 -0.3278  0.0787
 6193W        W10393   9.515   1.762  10.394  0.3280  0.0905  0.0810
 6194W        W10394   6.269   7.981   0.969  0.0806  0.2052 -0.3760
 6195W        W10395   8.117   8.921   2.575 -0.0082  0.0081 -0.3216
 6196W        W10396   7.488   6.865   2.208 -0.2655  0.0623 -0.2092
 6197W        W10397   7.303   6.919  11.001  0.0514 -0.2874 -0.0171
 6198W        W10398   4.313   7.522   4.273  0.0725  0.0025  0.0244
 6199W        W10399   5.440   2.280  10.280  0.3557  0.0304  0.2757
 6200W        W10400  10.060   8.618   1.025 -0.1058 -0.2085  0.2856
 6201W        W10401   0.756   2.572   1.816 -0.0250 -0.1707  0.0394
 6202W        W10402   4.589   9.052  11.134  0.0553  0.0315 -0.4250
 6203W        W10403   0.797   7.793  10.941 -0.1965 -0.0185 -0.1073
 6204W        W10404   7.225  10.378  11.367  0.0671 -0.1803 -0.0299
 6205W        W10405   9.522   8.646  11.117  0.0198 -0.1375 -0.0179
 6206W        W10406   4.492   5.414  10.182 -0.0897  0.0983  0.5233
 6207W        W10407   9.277   0.705   1.806  0.0609  0.3484 -0.1932
 6208W        W10408   2.963   8.313   1.550 -0.3386 -0.2001  0.0281
 6209W        W10409   1.214   0.166  12.989 -0.3437  0.2490  0.1046
 6210W        W10410  10.382   2.020  10.223 -0.1658  0.3662  0.1843
 6211W        W10411   9.941   8.090   2.148 -0.4710 -0.0534  0.0086
 6212W        W10412   2.986   7.926   8.672 -0.0299  0.0840  0.0357
 6213W        W10413   2.521   3.550  12.166 -0.3926 -0.0537 -0.1179
 6214W        W10414  10.109   8.891   1.728 -0.1529  0.0757  0.1836
 6215W        W10415  10.479   8.786   2.065  0.1993 -0.0893  0.0761
 6216W        W10416   5.105   3.589   0.471 -0.0169  0.1067 -0.0759
 6217W        W10417   7.512  10.415   1.621  0.0461 -0.3859 -0.1341
 6218W        W10418   1.518   1.671  10.924 -0.2856  0.0488 -0.0894
 6219W        W10419   9.824   6.003  12.678  0.2427  0.0470 -0.0026
 6220W        W10420   6.495   9.735  10.237 -0.1049  0.0841  0.2800
 6221W        W10421   7.216   1.120  13.343  0.1169  0.2049 -0.1831
 6222W        W10422   3.033   4.563   1.794 -0.1930  0.1721  0.2702
 6223W        W10423   5.285   9.871   4.645 -0.2600 -0.1207 -0.2864
 6224W        W10424   5.867   2.921   1.358 -0.2283  0.0123 -0.0978
 6225W        W10425   3.595   2.137   4.280 -0.1015  0.1809  0.0449
 6226W        W10426   2.301   5.373   4.799 -0.1476 -0.3089 -0.0006
 6227W        W10427   4.025   0.940   1.970 -0.5252  0.3809  0.0268
 6228W        W10428   0.922   8.456   4.191  0.2566 -0.1186 -0.1147
 6229W        W10429   6.709  10.191  10.320  0.0550 -0.2897 -0.3331
 6230W        W10430   8.323   5.611   4.640 -0.1766 -0.0350 -0.3036
 6231W        W10431   4.739   4.346   3.430 -0.1900 -0.1189  0.0763
 6232W        W10432   7.411   0.878   2.051  0.1522  0.2445 -0.1721
 6233W        W10433   3.950   9.760   3.891 -0.0439  0.4038 -0.1229
 6234W        W10434   3.123   4.326   0.575 -0.0119  0.1222  0.2556
 6235W        W10435   6.551   9.748  13.171  0.0582 -0.2990 -0.1980
 6236W        W10436   0.975   9.933   0.080  0.0409 -0.1807 -0.2304
 6237W        W10437   2.069   3.198   2.154 -0.0649  0.1291  0.2253
 6238W        W10438   1.114   6.792   9.783  0.1317 -0.1596  0.0540
 6239W        W10439   5.165   9.289  11.933  0.3047 -0.1093 -0.0439
 6240W        W10440   6.995   7.347  13.324 -0.2802 -0.0825  0.3456
 6241W        W10441   1.570   5.485  11.345 -0.0754 -0.1472  0.0547
 6242W        W10442   2.316   6.753   3.084 -0.2288 -0.2625 -0.0416
 6243W        W10443   4.980  10.241   3.863  0.1857 -0.1013  0.4616
 6244W        W10444   5.493   7.935  11.006 -0.2431 -0.0740 -0.0557
 6245W        W10445  10.331   5.615   1.679  0.1856 -0.1414  0.0232
 6246W        W10446   5.571   2.056   5.609 -0.4031 -0.2192  0.0121
 6247W        W10447   0.109   7.790   3.184  0.0576 -0.1512 -0.0670
 6248W        W10448   4.377   9.456  13.281  0.0265  0.0396  0.1173
 6249W        W10449   4.253   2.241  13.242 -0.0998 -0.1702  0.2706
 6250W        W10450   3.855   7.253   1.623 -0.0012  0.2414 -0.0519
 6251W        W10451   3.531   8.645   2.620 -0.2396  0.1161  0.0596
 6252W        W10452   7.719   3.181   2.140  0.0362  0.0622 -0.1038
 6253W        W10453   3.900   9.401  10.437 -0.0073  0.0858 -0.1885
 6254W        W10454   3.316   5.789   0.369 -0.0241  0.0809  0.2026
 6255W        W10455   5.659   5.859   3.608 -0.0353  0.1030 -0.1018
 6256W        W10456   8.615   4.823   1.875  0.3359 -0.0469 -0.2827
 6257W        W10457   6.993   2.990  12.182 -0.2432  0.2120 -0.0554
 6258W        W10458   3.116   7.519   4.219 -0.0643 -0.1454  0.0191
 6259W        W10459   7.540   1.038  12.235 -0.0380  0.4575 -0.1398
 6260W        W10460   0.527   2.917  12.611 -0.0849 -0.0340 -0.0396
 6261W        W10461   5.620   4.164  12.672  0.2171  0.0049 -0.0840
 6262W        W10462   4.039   6.270  12.231 -0.0566 -0.0095 -0.1210
 6263W        W10463   7.677   5.504  10.513  0.0565 -0.0477  0.0030
 6264W        W10464   8.314   9.740   2.432  0.2263 -0.0857 -0.0951
 6265W        W10465   2.542   6.168   1.926  0.1976 -0.0658  0.0244
 6266W        W10466   4.662   9.531   3.385  0.0132  0.0375 -0.1093
 6267W        W10467   1.455   8.479   1.982  0.0430  0.1848 -0.0863
 6268W        W10468   3.806   5.818   1.017  0.3370  0.1685  0.0962
 6269W        W10469   3.955   0.533   1.688  0.0516  0.0271  0.0914
 6270W        W10470   6.857   0.356  12.517 -0.2975  0.0174  0.2657
 6271W        W10471   8.027   4.664  10.679  0.3176 -0.2732  0.1906
 6272W        W10472   3.013  10.463   9.136  0.0077 -0.2749 -0.2423
 6273W        W10473   3.886   4.056   9.202  0.1337  0.0951  0.2969
 6274W        W10474   5.513   3.538  11.452 -0.0780 -0.1575  0.0020
 6275W        W10475   1.354   8.789   4.038 -0.0020 -0.0185 -0.2616
 6276W        W10476   3.649   0.189   2.461  0.0292  0.0577  0.2050
 6277W        W10477   4.096   8.303  11.809  0.0705  0.0978  0.1492
 6278W        W10478   3.166   6.778  11.942 -0.5200 -0.0963 -0.1753
 6279W        W10479   0.699   9.799  11.630  0.0144 -0.0420  0.2677
 6280W        W10480   0.313   2.468  13.249  0.1727  0.0668  0.0199
 6281W        W10481   6.377   0.532  12.249  0.3045  0.4621  0.0806
 6282W        W10482   0.109   6.042  10.312  0.0034  0.2899 -0.0815
 6283W        W10483  10.253   6.891  11.667  0.2885  0.1495  0.1971
 6284W        W10484   0.181  10.343  12.009  0.1344  0.0549  0.1751
 6285W        W10485   6.109   8.791  11.125  0.2003  0.0008  0.3555
 6286W        W10486   7.997   1.015  11.489 -0.0770 -0.0846 -0.1587
 6287W        W10487   3.108   5.099  11.921 -0.0305  0.2018 -0.1055
 6288W        W10488   4.370   6.140  11.454  0.1955 -0.1097  0.3064
 6289W        W10489   4.311   6.827   0.561  0.3047  0.4684 -0.0252
 6290W        W10490   9.449   7.389   1.958  0.1564  0.1598  0.1760
 6291W        W10491   2.340   0.103  11.315 -0.2381  0.2083 -0.0798
 6292W        W10492   6.118   7.679   3.840  0.0347  0.1100 -0.3375
 6293W        W10493   8.146   0.951  11.026 -0.1718 -0.0593 -0.1611
 6294W        W10494   3.879  10.309   3.951  0.1584  0.1613 -0.1271
 6295W        W10495   4.991   0.507   8.984 -0.1385 -0.3824 -0.2393
 6296W        W10496  10.221   7.445  12.946 -0.4734 -0.3935  0.0316
 6297W        W10497   4.959   3.365   4.822 -0.0193 -0.1209 -0.4475
 6298W        W10498   6.270   8.455   3.471  0.2028  0.2244 -0.0008
 6299W        W10499   4.475   8.171  10.655 -0.0469 -0.2531  0.0341
 6300W        W10500   0.844   7.032   4.291 -0.0455  0.4771 -0.0499
 6301W        W10501   4.560  10.116   2.546  0.2483  0.2100 -0.4046
 6302W        W10502   2.984   4.352   3.199  0.0665  0.0354 -0.3266
 6303W        W10503   6.102   9.246  12.404 -0.1457  0.0143  0.0135
 6304W        W10504   7.281   7.795   0.020  0.0425 -0.2356 -0.2743
 6305W        W10505   2.873   5.878   0.677 -0.0970 -0.3074  0.0965
 6306W        W10506   2.107   5.637   1.074  0.1720 -0.1671 -0.0834
 6307W        W10507   3.481   5.339   8.867  0.3555  0.0335  0.0867
 6308W        W10508   7.962  10.140  10.914 -0.0133 -0.0898  0.1702
 6309W        W10509   0.992   5.514   3.870 -0.0009  0.4062 -0.0084
 6310W        W10510   0.416   3.985  11.161  0.0559 -0.0259 -0.0379
 6311W        W10511   8.083   5.174  10.762 -0.0422  0.1046 -0.1268
 6312W        W10512   7.320   5.839   4.371 -0.0421  0.0264  0.2490
 6313W        W10513   6.784   2.597  11.332 -0.1063  0.1444  0.0869
 6314W        W10514   1.277   4.151   1.423 -0.1841  0.2223 -0.1001
 6315W        W10515   9.947   0.486  13.056  0.0345  0.1232 -0.1814
 6316W        W10516   1.338   6.065   9.393 -0.3057  0.2249  0.5341
 6317W        W10517   4.328   7.429   3.755  0.0047  0.2426 -0.0618
 6318W        W10518   8.462   6.121   3.108 -0.0684  0.2729  0.1326
 6319W        W10519   8.174   6.974   3.332  0.0735 -0.0174 -0.2821
 6320W        W10520   5.199   4.150   5.259 -0.0694  0.3715 -0.1011
 6321W        W10521   0.758   0.159  12.696 -0.0250  0.0035  0.0421
 6322W        W10522   0.692   5.282   3.535  0.4066 -0.1994  0.3785
 6323W        W10523   4.091   5.188  11.304  0.1255  0.1568  0.0098
 6324W        W10524   4.459   8.436   0.221  0.1652 -0.0380  0.1896
 6325W        W10525   8.059   3.151   0.148 -0.1727  0.0668  0.1099
 6326W        W10526   2.990   2.579  11.385  0.0789  0.1419 -0.3677
 6327W        W10527   4.626   4.444  11.157 -0.0149  0.2548 -0.1953
 6328W        W10528   2.857   6.466  10.220  0.3835  0.2044  0.1786
 6329W        W10529   3.871   7.701   1.417 -0.3041  0.1819 -0.3737
 6330W        W10530   0.603   6.397  10.677 -0.1875  0.1318  0.0180
 6331W        W10531   6.968   5.795   2.620 -0.1088  0.2185 -0.2636
 6332W        W10532   6.945   4.643   9.933 -0.0618  0.3369 -0.3160
 6333W        W10533   7.806   0.392   1.711 -0.0174 -0.1654  0.0212
 6334W        W10534   4.704   1.128  11.477  0.0876 -0.1034  0.2307
 6335W        W10535   4.348   8.702  12.178  0.0527  0.0917  0.2125
 6336W        W10536   0.905   1.352   1.854 -0.0042 -0.1665 -0.2113
 6337W        W10537   5.600   0.667   0.147  0.0481 -0.2253  0.2050
 6338W        W10538   7.356   8.959  10.626 -0.1121  0.2413 -0.2240
 6339W        W10539   3.446   2.607  11.142 -0.1364 -0.2205 -0.0104
 6340W        W10540   9.893   3.695   2.747 -0.0330  0.0651  0.2786
 6341W        W10541   1.345   5.866  10.161  0.1371 -0.0433 -0.2329
 6342W        W10542  10.254   6.387  11.779  0.3573 -0.2532  0.1876
 6343W        W10543   6.428   9.140  11.161 -0.1546 -0.2412  0.2624
 6344W        W10544   3.544   1.494   3.754  0.0974  0.2202  0.0206
 6345W        W10545   7.717   4.033  13.042  0.0363 -0.0479 -0.2550
 6346W        W10546   9.742   6.230  13.225 -0.1569 -0.2161  0.1435
 6347W        W10547   6.432   0.709  10.192 -0.1872 -0.0560 -0.0855
 6348W        W10548   1.863  10.014  13.262 -0.1190 -0.1044  0.0489
 6349W        W10549   8.194   7.303   9.324  0.2391 -0.3372 -0.0602
 6350W        W10550   4.296   9.902  12.867  0.1709  0.2004 -0.0991
 6351W        W10551   9.407   2.704   1.942  0.1694  0.2649 -0.2029
 6352W        W10552   8.594   3.189  11.688  0.0888  0.0284 -0.2437
 6353W        W10553   1.454   8.750   3.545 -0.0232  0.0046 -0.1461
 6354W        W10554   0.206   5.858   1.477 -0.0977 -0.2177  0.2160
 6355W        W10555   7.910   3.884   2.793  0.1799 -0.0940  0.2307
 6356W        W10556  10.102   3.074   0.401  0.0595  0.0494  0.2039
 6357W        W10557   5.212   6.956   8.437 -0.5129 -0.2397 -0.1280
 6358W        W10558   6.021   5.959  10.930 -0.1288  0.2151 -0.0587
 6359W        W10559   0.477   6.099   8.865 -0.0160  0.2533 -0.1309
 6360W        W10560   4.820   9.820   2.216  0.3221  0.1306  0.3153
 6361W        W10561   2.069   1.876  11.834 -0.3749  0.2419  0.2824
 6362W        W10562   2.252   1.633   9.364 -0.3688 -0.0192 -0.1169
 6363W        W10563   5.872   0.456   2.452  0.0242 -0.1384 -0.0159
 6364W        W10564   6.174  10.271   2.990  0.2473  0.0887  0.0303
 6365W        W10565   4.197   8.012   2.705  0.2952 -0.0146  0.4143
 6366W        W10566   1.627   9.665   1.775  0.1010  0.3237 -0.0590
 6367W        W10567   6.124   0.632   0.636 -0.0676 -0.0963 -0.1167
 6368W        W10568   0.293   7.046   9.269 -0.1442 -0.0813  0.3492
 6369W        W10569   5.454   6.026   9.493 -0.1640 -0.0355 -0.1990
 6370W        W10570   0.533   9.573   1.871  0.1590 -0.0847  0.2080
 6371W        W10571   1.238   3.013   0.627 -0.1437  0.0907 -0.0680
 6372W        W10572   5.343   6.840   9.581  0.3280 -0.0263 -0.0470
 6373W        W10573   2.695   3.043   4.171 -0.0542 -0.0242 -0.0667
 6374W        W10574   0.260   3.068   1.412  0.0074  0.3151 -0.2292
 6375W        W10575   6.963   8.062  10.575  0.1382 -0.0252 -0.3189
 6376W        W10576   2.675   2.111  10.609 -0.0770  0.1969 -0.4295
 6377W        W10577   2.925   5.968   0.096  0.0221  0.0317 -0.2570
 6378W        W10578   1.156   7.527   9.035 -0.2913  0.0760  0.2587
 6379W        W10579   9.428  10.441  12.177 -0.1869 -0.3816  0.4462
 6380W        W10580   6.233   9.869   0.374 -0.0595 -0.1230  0.2665
 6381W        W10581   7.655   4.541   0.912  0.3616  0.2403  0.3227
 6382W        W10582   7.636   7.814   1.163 -0.0177  0.1209  0.1854
 6383W        W10583   6.745   3.470   9.911  0.0682 -0.0382 -0.0165
 6384W        W10584   7.620   0.999  13.026 -0.0784 -0.0610  0.1585
 6385W        W10585   8.310   2.969   3.162 -0.2692 -0.0959 -0.2741
 6386W        W10586   3.927   1.615   8.528 -0.1436 -0.0910 -0.0446
 6387W        W10587   3.666   8.530  10.014  0.0338 -0.1234 -0.2216
 6388W        W10588   1.531   6.033   1.205 -0.0950  0.1523  0.2722
 6389W        W10589   8.840   4.860   2.406  0.1627 -0.5278 -0.1812
 6390W        W10590   2.627   9.266  13.247 -0.4156  0.0771  0.1194
 6391W        W10591   5.502   2.131   2.091  0.0249 -0.0106 -0.2425
 6392W        W10592   1.563   9.332   8.812  0.3898  0.1942  0.1124
 6393W        W10593   5.291   2.187  13.332  0.1970  0.0990  0.1683
 6394W        W10594   1.404   3.305   0.236 -0.0157 -0.0700  0.0573
 6395W        W10595   3.368  10.111   1.623  0.0493  0.0660 -0.2599
 6396W        W10596   2.438   6.920   3.901 -0.0255 -0.0998 -0.1014
 6397W        W10597   4.369   8.112  11.431 -0.1634  0.0327 -0.2291
 6398W        W10598   0.008   4.787   0.424  0.1044  0.2293  0.0014
 6399W        W10599   1.328   1.310   1.018  0.2650 -0.0943 -0.2530
 6400W        W10600   9.778   1.807   2.980 -0.2649  0.0132  0.3187
 6401W        W10601   3.359   3.809   3.121 -0.1868 -0.1186  0.2317
 6402W        W10602   4.244   8.698   1.990  0.2425 -0.2085 -0.1922
 6403W        W10603   2.586   7.260  10.331  0.2388 -0.0474 -0.1442
 6404W        W10604   5.466   2.519   4.862 -0.2972  0.0841  0.1937
 6405W        W10605   1.810   8.371  10.101 -0.0142  0.0703  0.0039
 6406W        W10606   5.092   9.071   1.176 -0.0298  0.0234  0.3529
 6407W        W10607   1.067   1.615  12.359  0.0394  0.1860  0.2773
 6408W        W10608   2.981   7.248   8.900 -0.1600 -0.1664  0.1143
 6409W        W10609   7.483   4.078   0.886  0.1152  0.3618  0.0639
 6410W        W10610   1.636   2.847   9.947  0.0116 -0.0471  0.0308
 6411W        W10611   6.342   6.681   4.107 -0.1637 -0.0302 -0.1639
 6412W        W10612   5.079   5.508   4.772  0.2850  0.1085 -0.4026
 6413W        W10613   6.717  10.310  11.307  0.3463  0.0931 -0.0427
 6414W        W10614   6.492   0.275   1.818 -0.0787 -0.0407 -0.0284
 6415W        W10615   6.126   5.828  10.100  0.0899 -0.1976  0.2380
 6416W        W10616   9.445   1.666   0.642  0.0046  0.0730  0.2305
 6417W        W10617   1.055   5.226  11.445 -0.0790 -0.0948  0.2993
 6418W        W10618   3.268   7.388   3.183 -0.1713  0.0940 -0.1227
 6419W        W10619   5.265   9.643   0.937 -0.0293 -0.1672 -0.1737
 6420W        W10620  10.039   5.598  11.416  0.1190 -0.1540  0.1328
 6421W        W10621   6.456   0.656  12.771  0.1790 -0.1326  0.0847
 6422W        W10622   2.972   1.394   9.811  0.1994 -0.0971 -0.0656
 6423W        W10623   0.906   1.730  10.533  0.0625 -0.1172  0.3140
 6424W        W10624   3.709   0.560   3.771 -0.3371  0.0553 -0.4653
 6425W        W10625   2.134   9.488   3.358  0.0493 -0.1063  0.0364
 6426W        W10626   6.094   7.865   3.367  0.0067 -0.0163 -0.1500
 6427W        W10627   3.341   8.964   1.521 -0.5013 -0.1394 -0.1722
 6428W        W10628   1.727   9.332   2.573 -0.1290 -0.1826  0.1652
 6429W        W10629   4.002  10.060   4.366  0.3096  0.2281  0.2620
 6430W        W10630   3.765   2.211  12.326 -0.3133 -0.1603 -0.2250
 6431W        W10631   1.936   2.138   9.671  0.1368 -0.2304 -0.5104
 6432W        W10632   3.713   4.383   9.534  0.1906  0.1186  0.2519
 6433W        W10633   9.451   3.226   0.446 -0.3502  0.1144  0.2031
 6434W        W10634   6.882   0.243   4.400 -0.1934  0.0820 -0.1256
 6435W        W10635   0.726   6.277   9.944  0.0510  0.0780 -0.0270
 6436W        W10636   5.728   9.802   0.591 -0.2169  0.2261  0.0899
 6437W        W10637   8.612   6.665  13.114 -0.1806 -0.0448  0.0685
 6438W        W10638   3.848   8.879   8.739 -0.5391  0.1513 -0.1938
 6439W        W10639   2.079   3.251  11.699 -0.0482  0.2677 -0.3036
 6440W        W10640   7.722   6.838  13.002 -0.2714 -0.1124  0.2343
 6441W        W10641   8.957   7.096   4.321  0.5053 -0.3116 -0.1790
 6442W        W10642   7.766   7.239   2.364  0.3360  0.0315 -0.3478
 6443W        W10643   4.270   2.688   2.911  0.0193 -0.1095 -0.1380
 6444W        W10644   7.367   4.966   3.647 -0.3346 -0.2970 -0.2189
 6445W        W10645   2.784   5.643  10.841 -0.1266  0.0016  0.0716
 6446W        W10646   1.980   4.111   9.164  0.2217  0.3387  0.4245
 6447W        W10647   6.553   2.820   2.367 -0.0664 -0.1799  0.2304
 6448W        W10648   7.947   3.508   3.833  0.0157 -0.0541  0.1877
 6449W        W10649   6.200   7.325   9.184  0.1291 -0.1181  0.0330
 6450W        W10650   2.385   4.291   1.328 -0.0856  0.0140  0.0776
 6451W        W10651   7.831   8.994  10.475  0.1699  0.0685 -0.1837
 6452W        W10652   8.655   4.038   2.146 -0.0932 -0.2168 -0.2077
 6453W        W10653   7.602   9.946  10.360  0.1513  0.1281 -0.0781
 6454W        W10654   0.951   3.284  12.527 -0.2293 -0.2204 -0.3786
 6455W        W10655   4.775   2.010   2.724 -0.2766  0.2744 -0.2279
 6456W        W10656   5.815   2.664  11.819  0.3268  0.2436 -0.2717
 6457W        W10657  10.100   3.799   1.782 -0.0750  0.0472  0.0543
 6458W        W10658   9.114   2.055  10.376 -0.3811 -0.0765 -0.1345
 6459W        W10659   8.053   9.418   4.054 -0.1511  0.0132 -0.2197
 6460W        W10660   4.278   7.787  11.817  0.4533 -0.1397  0.3040
 6461W        W10661   9.342   1.808  13.019  0.0280  0.2539  0.2747
 6462W        W10662   6.199   4.710  11.602  0.1388  0.1678 -0.1071
 6463W        W10663   9.577   1.484  11.111 -0.0523 -0.1054  0.1179
 6464W        W10664   7.161   2.089   0.666 -0.1080  0.0317 -0.1347
 6465W        W10665   3.421   2.110  11.818 -0.0758  0.2845 -0.0941
 6466W        W10666   6.209   2.619   9.964 -0.1924  0.1469 -0.1064
 6467W        W10667   6.705   8.468  12.893  0.1638  0.1462  0.4511
 6468W        W10668   5.719   8.854   1.488 -0.1328 -0.0081  0.0701
 6469W        W10669   6.252   8.873   0.335  0.1431 -0.1761  0.1540
 6470W        W10670   1.097   3.767  10.702  0.0373  0.2807 -0.0178
 6471W        W10671   8.675   5.782  10.803  0.1951 -0.2367  0.3755
 6472W        W10672   6.297   5.728   1.863 -0.2074  0.0033 -0.0662
 6473W        W10673   0.104   3.774   1.924  0.3097 -0.1282 -0.2305
 6474W        W10674   0.640   3.155  11.146  0.1578 -0.3473  0.3169
 6475W        W10675   8.437   6.514  11.221 -0.2858 -0.1999  0.0016
 6476W        W10676   1.027   6.624  10.791 -0.1099 -0.0580 -0.0362
 6477W        W10677   3.236   7.861   3.524 -0.2130  0.1321 -0.2857
 6478W        W10678   0.596   2.901   2.895 -0.1635  0.1115 -0.1732
 6479W        W10679   2.622   0.529  13.071 -0.0435 -0.4897 -0.0040
 6480W        W10680   1.468  10.335  10.872 -0.0392 -0.1160 -0.2419
 6481W        W10681   6.426   1.079   4.167 -0.0389 -0.0011  0.3014
 6482W        W10682   1.858   0.436   0.946  0.2401  0.2384  0.0503
 6483W        W10683   6.376   8.016   4.215  0.1404 -0.3282 -0.3098
 6484W        W10684   2.613   8.221   0.961  0.0107 -0.2030 -0.1874
 6485W        W10685   0.541   9.158   0.156  0.0472 -0.3387 -0.0659
 6486W        W10686   9.389   5.679   0.133  0.0807  0.2628  0.3001
 6487W        W10687   9.461   0.386  12.477  0.1459  0.3023  0.0310
 6488W        W10688   1.007   9.279   0.034  0.2424 -0.1058  0.1021
 6489W        W10689   7.891   1.078  12.573 -0.2980 -0.0539  0.1597
 6490W        W10690   5.055   3.977  13.023 -0.0648 -0.4446  0.1395
 6491W        W10691   1.219   2.895   9.590 -0.0369  0.1121  0.0822
 6492W        W10692   2.715   1.321  11.677 -0.1004  0.3168  0.3604
 6493W        W10693   5.926   4.148   3.214  0.3785  0.0062 -0.2547
 6494W        W10694   6.659   6.213   3.447  0.3208 -0.2398  0.2659
 6495W        W10695   4.062   2.647   0.670  0.1966 -0.2950 -0.3985
 6496W        W10696   7.148   2.583  10.057 -0.0968  0.2558 -0.1980
 6497W        W10697   5.726   5.637   2.015  0.2047 -0.0366  0.0972
 6498W        W10698   9.835   4.260   1.675  0.0498  0.0689 -0.0098
 6499W        W10699   1.687   6.296  13.166 -0.2994 -0.1051  0.0660
 6500W        W10700   9.041   0.167  12.961  0.0437  0.0137 -0.1163
 6501W        W10701   5.159   5.776   0.299 -0.2509  0.0683  0.2250
 6502W        W10702   5.700   0.592   4.708 -0.0674 -0.3055 -0.0571
 6503W        W10703   2.017   8.588  10.481 -0.0428  0.2375 -0.1610
 6504W        W10704   2.637   1.795   1.603 -0.1141 -0.1064 -0.0102
 6505W        W10705   5.527   8.961   3.775  0.2127  0.2238 -0.0850
 6506W        W10706   4.300   7.354  13.030  0.1685  0.0302 -0.0397
 6507W        W10707   6.421   7.598   1.881 -0.1605  0.3069  0.1287
 6508W        W10708   5.727   7.593   0.239 -0.0091  0.2519  0.0471
 6509W        W10709   0.017   1.671   1.863  0.0783  0.1444 -0.1457
 6510W        W10710   5.036   8.200   1.702 -0.0953 -0.1059 -0.0445
 6511W        W10711   5.881   9.865   1.436 -0.1134 -0.0826 -0.1060
 6512W        W10712   0.324   2.356   1.702  0.0745  0.1010  0.0889
 6513W        W10713   8.065   5.240  11.656 -0.1907  0.0793  0.3309
 6514W        W10714  10.020   1.653  10.375  0.1786  0.1089 -0.1301
 6515W        W10715   2.516   9.529   9.976  0.0887  0.3249  0.0151
 6516W        W10716   4.628   3.364   0.231 -0.1076 -0.4349  0.2493
 6517W        W10717   7.674   5.893  12.365  0.2665 -0.1253 -0.0815
 6518W        W10718   2.428   7.754   0.990  0.1168  0.0130 -0.0902
 6519W        W10719   0.981   9.717   4.738  0.0330 -0.0793 -0.2284
 6520W        W10720   8.400   4.353   1.070 -0.0462 -0.0553  0.2145
 6521W        W10721   3.000   3.190   1.480  0.2181 -0.1566  0.0975
 6522W        W10722   0.817   6.647  10.270 -0.1467 -0.1887 -0.0802
 6523W        W10723   9.930   7.328   0.021 -0.4296  0.1722 -0.0311
 6524W        W10724   2.165   7.150   4.243 -0.1493 -0.0547  0.3038
 6525W        W10725   4.694  10.142   9.968  0.3822  0.0607  0.0865
 6526W        W10726   1.204   3.159  11.112 -0.2223 -0.0868  0.0124
 6527W        W10727   8.317   1.977  10.903 -0.0562 -0.0408 -0.4662
 6528W        W10728   0.400   1.567   3.895  0.2554  0.0458  0.1126
 6529W        W10729   2.535   2.786   0.196  0.0431  0.1706 -0.0751
 6530W        W10730   0.778   9.321   2.771  0.0171  0.1960  0.2122
 6531W        W10731   7.359   4.843  12.330  0.1831 -0.2625 -0.2674
 6532W        W10732   6.457  10.168   0.729  0.0663  0.5053 -0.0968
 6533W        W10733   1.168   1.037   0.027 -0.0263 -0.2756 -0.2518
 6534W        W10734   3.610   5.285  13.131  0.0869 -0.0085  0.1013
 6535W        W10735   3.707  10.314  13.052  0.0599  0.1926  0.0658
 6536W        W10736   8.790   5.198   3.610  0.0423 -0.0307 -0.0996
 6537W        W10737   4.957   7.534  10.253 -0.1281  0.0036 -0.1467
 6538W        W10738   6.230   2.919   0.320 -0.0747 -0.1631 -0.0930
 6539W        W10739   4.420   5.278  12.737 -0.0502  0.2990  0.1331
 6540W        W10740   5.798   7.043   8.521  0.0894 -0.0609  0.0980
 6541W        W10741   2.101   7.694  13.055  0.2924 -0.1366 -0.1269
 6542W        W10742   3.837   5.758   9.574  0.1728  0.1951  0.0097
 6543W        W10743   3.752   5.121   9.811 -0.3273  0.0020  0.0770
 6544W        W10744   4.268   5.905   1.324 -0.2450  0.0364  0.0274
 6545W        W10745   2.132   5.840  12.616  0.0219 -0.1966 -0.1728
 6546W        W10746   8.690   3.336   3.092 -0.0772  0.0809  0.3260
 6547W        W10747   1.475   3.731   1.712  0.0824 -0.1103 -0.0547
 6548W        W10748   3.075   0.572   9.512  0.0357 -0.4347  0.0776
 6549W        W10749   4.053   4.340  12.282  0.1699  0.1717 -0.2776
 6550W        W10750   5.689   1.199   2.540  0.3115  0.0593 -0.0034
 6551W        W10751   4.988   6.287   0.655  0.0609  0.1755 -0.2869
 6552W        W10752   3.618   5.556   3.346  0.2483  0.3626 -0.3643
 6553W        W10753   0.655   0.837   0.623 -0.2785 -0.0295 -0.0014
 6554W        W10754   4.807   5.381  11.340  0.0680 -0.1322 -0.0434
 6555W        W10755   9.841   6.910  12.516 -0.1481 -0.2485  0.0502
 6556W        W10756   4.177   3.107  10.687 -0.2042 -0.3338 -0.1373
 6557W        W10757   5.744   6.717   2.801  0.0159  0.5038  0.0656
 6558W        W10758   7.499   8.870   0.002 -0.0229  0.0960  0.1431
 6559W        W10759   3.895   1.784   4.050 -0.1209 -0.0150 -0.1380
 6560W        W10760   1.423   9.073  10.291  0.6611  0.1451 -0.1147
 6561W        W10761   7.803   4.843  12.610  0.3369  0.3074  0.2072
 6562W        W10762  10.018   7.701   2.518  0.0278  0.0580  0.1114
 6563W        W10763   7.950   5.986   1.117  0.2786 -0.3133  0.0114
 6564W        W10764   7.456   1.925  11.849 -0.2025  0.2264  0.1032
 6565W        W10765   3.261   1.301   8.346 -0.0307  0.1530 -0.0577
 6566W        W10766   4.533   5.884  10.403 -0.1147 -0.1170  0.0714
 6567W        W10767   6.484   1.394   0.430 -0.0627  0.3683  0.1144
 6568W        W10768  10.096   0.765   9.185 -0.2385  0.0426  0.1294
 6569W        W10769   5.410   3.133   4.165 -0.0861  0.0866 -0.5657
 6570W        W10770   9.153   2.492  12.301 -0.2979 -0.1397 -0.1664
 6571W        W10771   0.931   6.116   3.103  0.1700  0.2616  0.3550
 6572W        W10772   3.420   9.585  10.075 -0.2055  0.0450 -0.2333
 6573W        W10773   7.929   7.258   9.708  0.1349 -0.2045 -0.2051
 6574W        W10774   5.435   4.689   2.779 -0.2900 -0.0079 -0.0906
 6575W        W10775   0.331   5.767   8.510 -0.0304  0.2530 -0.2485
 6576W        W10776   7.163   6.018   4.875  0.0937 -0.4655 -0.0374
 6577W        W10777   6.484   1.062   2.073 -0.0905 -0.0414  0.1734
 6578W        W10778   5.486   0.877   3.317 -0.4543 -0.1715  0.0094
 6579W        W10779   7.598   2.768   0.070 -0.1608 -0.3093 -0.2500
 6580W        W10780   6.592  10.067   4.657 -0.1434  0.1904  0.0578
 6581W        W10781   0.137   8.700   1.562 -0.3195  0.0047 -0.0419
 6582W        W10782   1.847   1.752   0.272  0.0451  0.0616  0.4387
 6583W        W10783   7.521   4.627   3.128 -0.0878 -0.1410 -0.4748
 6584W        W10784   2.666   3.901   1.050  0.0554 -0.1023 -0.1915
 6585W        W10785   6.805   2.132  11.486 -0.0409 -0.0765 -0.0649
 6586W        W10786   7.450   1.238   3.453  0.0765  0.0698  0.0304
 6587W        W10787   9.651   8.042   9.992 -0.3252  0.4722  0.1288
 6588W        W10788   8.081   5.207   4.079  0.0848  0.0801  0.2176
 6589W        W10789  10.178   8.340   3.950 -0.1038  0.3469  0.0725
 6590W        W10790   5.136   0.148   3.094  0.1756  0.0266  0.0164
 6591W        W10791   6.460  10.441   4.148  0.0760  0.0624 -0.0834
 6592W        W10792   5.033   5.489  11.806  0.1880  0.2892 -0.2578
 6593W        W10793   9.978   7.454   3.834 -0.2670  0.3959  0.1241
 6594W        W10794   4.341   3.164   9.404  0.3568  0.0321  0.1208
 6595W        W10795  10.030   1.532   1.530 -0.0126  0.0647 -0.0771
 6596W        W10796   1.120   0.844   9.825  0.0253  0.1191 -0.3548
 6597W        W10797   0.609   0.682   3.475  0.0836  0.3837 -0.0604
 6598W        W10798   7.979   2.998   1.661  0.0455 -0.2597 -0.0425
 6599W        W10799  10.019   4.368   4.321 -0.3231 -0.0253  0.0818
 6600W        W10800   5.895   3.969   0.213 -0.1088  0.1118  0.0542
 6601W        W10801   5.023   1.168   3.275  0.1641  0.0050  0.1264
 6602W        W10802   0.797   7.876   5.164 -0.0447 -0.1254  0.2092
 6603W        W10803   3.214  10.101   8.440  0.0287  0.0499 -0.0104
 6604W        W10804   7.308   0.636  13.272 -0.0084 -0.2111  0.1388
 6605W        W10805   8.853   7.419   3.469  0.3197 -0.2167 -0.0636
 6606W        W10806   7.672   8.298   9.966 -0.0145 -0.2296  0.1626
 6607W        W10807   9.704   4.821   1.534 -0.3186  0.0803  0.0937
 6608W        W10808   5.487   5.447   0.079  0.0366  0.0752 -0.2878
 6609W        W10809   4.698   3.820   3.076  0.3896  0.1992  0.1080
 6610W        W10810   9.653   8.395   0.931 -0.0011  0.3107  0.1529
 6611W        W10811   4.690   2.094  12.405  0.0487  0.2714  0.2346
 6612W        W10812   5.743   0.065   1.036 -0.0154 -0.0903  0.3039
 6613W        W10813   2.645   5.415  11.312 -0.0378  0.0972  0.0178
 6614W        W10814   6.203   3.461   3.562 -0.2207 -0.4256  0.2568
 6615W        W10815   2.831   1.123   1.772  0.0929  0.1004 -0.0089
 6616W        W10816   8.272   8.701   8.861 -0.1411  0.1110  0.1080
 6617W        W10817   8.172   4.910  12.951  0.1720  0.1869 -0.0561
 6618W        W10818   4.528   4.190  12.195 -0.2246  0.1065  0.2149
 6619W        W10819   6.528   0.028  10.738  0.1630  0.0521 -0.0616
 6620W        W10820   4.171   7.479   1.141 -0.0227 -0.0322 -0.1155
 6621W        W10821   2.306   4.955   1.614  0.3629 -0.0759  0.1338
 6622W        W10822   5.758   9.574  13.167 -0.2747  0.2877  0.3337
 6623W        W10823   9.089   7.484   3.005 -0.1712  0.1941  0.0333
 6624W        W10824   5.534   0.722   9.769  0.0685 -0.3259 -0.2318
 6625W        W10825   4.959   3.176   0.675  0.0217  0.0554 -0.1098
 6626W        W10826   4.208   7.135  10.082 -0.5150 -0.0594  0.1343
 6627W        W10827   2.173   3.457   9.970  0.1961 -0.2376 -0.1902
 6628W        W10828   9.567   5.206   2.088 -0.0821 -0.0334  0.0837
 6629W        W10829   6.770   1.911  13.243 -0.3382 -0.2834 -0.1649
 6630W        W10830   4.077   1.676   1.133  0.1707 -0.1140 -0.2636
 6631W        W10831   3.718   8.952  12.278  0.1182  0.0990 -0.2597
 6632W        W10832   1.455   7.254   2.530 -0.0367 -0.1149 -0.1487
 6633W        W10833   1.689   3.056  13.300 -0.0164  0.0182 -0.0046
 6634W        W10834   5.657   4.025  10.806  0.3727  0.1522  0.1267
 6635W        W10835   1.692   9.720   1.213 -0.1914  0.2815  0.0149
 6636W        W10836   8.827   6.850  10.075 -0.0445 -0.3099  0.2125
 6637W        W10837   8.368   6.163   9.868  0.0164  0.1757 -0.2520
 6638W        W10838   3.187   8.072   4.253  0.2075  0.1824  0.1372
 6639W        W10839   0.853   8.370  10.404 -0.1076  0.0037  0.3153
 6640W        W10840   2.664   5.477  12.600  0.4063 -0.1075  0.1330
 6641W        W10841   6.438   3.714   9.630 -0.1803 -0.0161  0.1663
 6642W        W10842   3.063   9.286   9.177  0.0361  0.0801 -0.1129
 6643W        W10843  10.478   5.653  11.240  0.1621 -0.6057  0.1060
 6644W        W10844   8.916   9.575   9.459 -0.1015  0.0207 -0.0136
 6645W        W10845   6.762   8.852   4.572 -0.3830 -0.3025  0.0303
 6646W        W10846   6.573   8.078  10.215 -0.1099  0.3412 -0.0086
 6647W        W10847   5.207   1.436   3.670  0.1521  0.3239  0.1805
 6648W        W10848   3.165   7.490   2.710 -0.0017  0.2469  0.0353
 6649W        W10849   3.607   9.222   0.951 -0.2565  0.0289  0.0397
 6650W        W10850   3.083   2.026   1.720 -0.1398  0.1953 -0.2006
 6651W        W10851  10.230   7.491   1.332  0.2511  0.0769  0.2160
 6652W        W10852   7.782   4.816   4.431  0.2498  0.3505  0.0542
 6653W        W10853   7.246   7.360   0.795 -0.3571 -0.0448 -0.0649
 6654W        W10854   6.083   3.252  10.566 -0.0856  0.5212 -0.2311
 6655W        W10855   1.146   3.522   3.255 -0.1912 -0.0235  0.1125
 6656W        W10856   2.834   0.193  10.242  0.0998 -0.3882  0.2372
 6657W        W10857   6.884   5.689  11.212 -0.2782  0.1414 -0.3771
 6658W        W10858   4.815   9.962   1.725 -0.2565  0.2776 -0.0545
 6659W        W10859   8.400   9.709   0.886 -0.0040  0.1900 -0.1533
 6660W        W10860   0.233   6.222   4.050 -0.1882 -0.0844 -0.0063
 6661W        W10861   2.671   8.440  12.124 -0.1033 -0.2528  0.1147
 6662W        W10862   8.119   7.503  10.910 -0.1807  0.0299 -0.1117
 6663W        W10863   3.187   0.516  13.184 -0.0607 -0.4741 -0.0808
 6664W        W10864   8.920  10.223  10.470 -0.2626 -0.1886 -0.2314
 6665W        W10865   7.299   6.575  13.034  0.1257  0.0103  0.0939
 6666W        W10866   5.938   9.046   2.256  0.0343 -0.0346  0.1132
 6667W        W10867   4.052   1.366   8.959  0.2213  0.0604 -0.1257
 6668W        W10868   2.617   4.075   3.732  0.0658 -0.1582  0.0598
 6669W        W10869   9.667   7.959  12.544  0.0391  0.1205  0.3940
 6670W        W10870   6.360   4.297   1.639 -0.2194  0.1119 -0.1548
 6671W        W10871   3.336   2.959  10.131 -0.0235  0.0264 -0.0613
 6672W        W10872   0.290   7.297   9.742  0.1147  0.1102 -0.2203
 6673W        W10873   3.975   9.587   8.962 -0.2996  0.1681  0.4840
 6674W        W10874   6.939   3.029  10.972 -0.1125 -0.0328 -0.1131
 6675W        W10875   4.668   5.966   0.497  0.1429 -0.1860 -0.0852
 6676W        W10876   7.310   4.854   0.189  0.2751 -0.0019 -0.0929
 6677W        W10877   9.649   2.412  12.199  0.0021  0.1715  0.1779
 6678W        W10878   6.279   0.973   0.348  0.2140 -0.2412  0.0875
 6679W        W10879   5.194   7.395  10.627  0.0257 -0.2668 -0.0871
 6680W        W10880   0.219   0.704   2.972  0.0041 -0.0739 -0.1592
 6681W        W10881   2.084   4.358   1.745 -0.3231  0.1861  0.1260
 6682W        W10882   3.344   2.099   4.996 -0.0366  0.1561  0.1152
 6683W        W10883   2.778   4.773  13.377 -0.2052  0.1023  0.2309
 6684W        W10884   0.072   0.328   9.871 -0.0207 -0.0083 -0.3803
 6685W        W10885   4.039  10.291   2.385  0.0523 -0.0283 -0.1955
 6686W        W10886   4.442   8.774   2.949 -0.1334 -0.0916 -0.3214
 6687W        W10887   6.844   1.097   5.428 -0.0140  0.0085 -0.3471
 6688W        W10888   1.767   1.319   9.204 -0.0081 -0.2472  0.2260
 6689W        W10889   1.455   3.270   1.437  0.3603 -0.2731 -0.3326
 6690W        W10890   8.387   6.579  10.224  0.2437  0.0687 -0.0941
 6691W        W10891   7.434   9.792   1.059  0.0536  0.1637  0.1226
 6692W        W10892   2.905   8.119  12.555 -0.0524 -0.0473 -0.0579
 6693W        W10893   6.790   7.775  13.382  0.0833  0.0710  0.4353
 6694W        W10894   0.595   4.922  12.097 -0.0662  0.2132 -0.0111
 6695W        W10895   6.448   2.984  11.323  0.0791 -0.2307  0.1715
 6696W        W10896   6.789   5.277   0.605 -0.0489  0.0714 -0.3894
 6697W        W10897   9.863   8.351  10.348 -0.1820 -0.2283  0.0454
 6698W        W10898   1.066   2.219   3.625 -0.1443 -0.1414 -0.0263
 6699W        W10899   7.449   2.422  10.509 -0.2799  0.1669 -0.0057
 6700W        W10900   0.479   0.303   3.134  0.1247  0.0603 -0.1652
 6701W        W10901   0.971   6.754   1.261  0.1159 -0.2092 -0.3241
 6702W        W10902   2.553   4.946   4.296  0.0751  0.2604  0.1858
 6703W        W10903   8.079   9.481   0.606  0.0309 -0.0423 -0.0313
 6704W        W10904   9.701   8.638   9.682 -0.1681 -0.2647 -0.2188
 6705W        W10905   3.122   2.532   2.397  0.1939 -0.0659 -0.3104
 6706W        W10906   7.042   0.184  10.438 -0.0109  0.0013 -0.1749
 6707W        W10907   8.651   9.797  10.345  0.2854  0.0454  0.1607
 6708W        W10908   4.600   2.682  10.644  0.0314 -0.3489 -0.1196
 6709W        W10909   7.331   4.308   1.326 -0.0207 -0.0823 -0.0600
 6710W        W10910   5.921   5.607  12.529 -0.1974 -0.0558  0.3144
 6711W        W10911   9.889   9.776   0.062 -0.3333  0.1168  0.3419
 6712W        W10912   9.551   9.308  11.868 -0.1366  0.1322  0.1927
 6713W        W10913   9.755   2.569  11.550 -0.1621 -0.3145  0.0827
 6714W        W10914   8.748   4.123   1.330 -0.1141  0.0430 -0.3515
 6715W        W10915   8.989   1.457   0.607 -0.2709  0.0596  0.1215
 6716W        W10916   5.157   1.635   2.381 -0.2129  0.1744 -0.0232
 6717W        W10917   9.318   9.088   2.966  0.0332 -0.1756  0.0732
 6718W        W10918   8.210   3.633   2.404  0.0554 -0.1899  0.1395
 6719W        W10919   8.783   6.973   4.881  0.2090 -0.2839 -0.1088
 6720W        W10920   9.508   2.973  11.313  0.2739  0.0958 -0.0455
 6721W        W10921   5.142   9.798  11.807 -0.0901  0.1045 -0.3268
 6722W        W10922   8.737   3.130   3.565 -0.0636  0.1674  0.1391
 6723W        W10923   0.755   1.288   2.646 -0.0334 -0.0543  0.2463
 6724W        W10924   2.917   4.268   5.023 -0.0758 -0.1214  0.2229
 6725W        W10925   8.749   9.038  10.409 -0.1300  0.0660 -0.0839
 6726W        W10926   4.418   6.936  10.444  0.0448  0.1629 -0.2101
 6727W        W10927   6.119   4.501   5.017  0.1636 -0.2754 -0.3354
 6728W        W10928   3.494   3.612   9.328  0.2329  0.0255 -0.0889
 6729W        W10929   0.317   2.897   3.337  0.1552  0.3903 -0.1484
 6730W        W10930   0.940   8.926   9.379 -0.3137 -0.0480 -0.1351
 6731W        W10931   0.071   9.469  12.750 -0.3028 -0.3623  0.2379
 6732W        W10932   4.770   9.373  10.790 -0.2017  0.1158  0.0947
 6733W        W10933   7.127   3.986   4.165  0.0395  0.0830  0.0907
 6734W        W10934   5.013   7.777  13.188 -0.0866  0.1666  0.3665
 6735W        W10935   1.139   2.218   0.854 -0.1273  0.0973 -0.0425
 6736W        W10936   7.260   0.599  10.681 -0.0378  0.2316  0.2100
 6737W        W10937   5.117   5.581   8.831  0.4383 -0.0531  0.2585
 6738W        W10938   1.545   3.603  10.608 -0.1430 -0.3975 -0.0700
 6739W        W10939   0.430   8.415  12.260  0.0300  0.1560  0.1706
 6740W        W10940   2.806   3.645   2.357  0.2194  0.1900  0.3308
 6741W        W10941   7.629   9.937   1.795 -0.3148  0.4202 -0.2428
 6742W        W10942   1.640   7.161   0.796  0.2156 -0.0157  0.2195
 6743W        W10943   5.440   0.170  11.590 -0.1665  0.1394  0.1989
 6744W        W10944   8.726   8.737  12.571  0.2651 -0.1760  0.0913
 6745W        W10945  10.473   6.719   9.553  0.1713  0.2635 -0.0927
 6746W        W10946   9.301   7.080  11.495  0.1336 -0.3947 -0.3080
 6747W        W10947   0.657   4.175  12.775  0.2120 -0.1141  0.0741
 6748W        W10948   5.242   0.443   2.193 -0.0165  0.0015  0.1000
 6749W        W10949   1.963   4.618  11.492 -0.1467 -0.1030  0.2178
 6750W        W10950   2.604   4.339   1.940  0.0633 -0.1342  0.1419
 6751W        W10951   8.107   0.613   0.322 -0.0947  0.3380  0.0885
 6752W        W10952   2.495   9.595   1.151 -0.0762 -0.0806 -0.0272
 6753W        W10953   4.429   8.282  12.635 -0.1369 -0.1375  0.4660
 6754W        W10954   6.367   9.470   1.203  0.1212  0.4259  0.1464
 6755W        W10955   2.675   5.839   2.936 -0.0716  0.1051  0.1411
 6756W        W10956   6.222   7.208   4.787 -0.2087  0.1853  0.0115
 6757W        W10957  10.095   8.648  12.784 -0.2640 -0.0015  0.0502
 6758W        W10958  10.318   6.695   2.496  0.4705 -0.1870 -0.1231
 6759W        W10959   8.191   8.040   2.511  0.3665  0.2120  0.0582
 6760W        W10960   2.274   1.291   4.313  0.0090 -0.3028  0.2082
 6761W        W10961   8.089   6.253   2.140  0.0908 -0.0211  0.0617
 6762W        W10962   8.655   6.421   2.395 -0.1924  0.3211 -0.2761
 6763W        W10963   4.882   4.665   1.530 -0.0868 -0.1256 -0.0609
 6764W        W10964   4.414   4.085   0.572 -0.1833  0.1775 -0.0303
 6765W        W10965   4.984   8.891  10.229  0.0393 -0.0150 -0.4023
 6766W        W10966   2.858   2.811  10.351 -0.1206 -0.1583 -0.1355
 6767W        W10967   2.398   2.598  12.581  0.0498  0.0248  0.3330
 6768W        W10968   1.926   0.295   2.568  0.0874 -0.0434 -0.0088
 6769W        W10969   2.630   0.367   3.199  0.0667  0.2305 -0.0359
 6770W        W10970   0.326   5.920   0.905  0.2958 -0.0082  0.1095
 6771W        W10971   5.638   2.438   3.576  0.0264 -0.0207  0.1406
 6772W        W10972   9.595   7.840   4.516 -0.2670  0.0601  0.1407
 6773W        W10973   6.289   5.867   1.229 -0.2949 -0.1681  0.1276
 6774W        W10974   1.551   7.124  11.546  0.1613 -0.0453  0.0050
 6775W        W10975   4.652   8.507   9.963  0.2293 -0.0282 -0.1817
 6776W        W10976   9.625   5.561   4.163 -0.0960 -0.4400 -0.3771
 6777W        W10977   9.380   2.414   2.536  0.0303  0.1078  0.0706
 6778W        W10978   6.259   9.836   2.029 -0.0053 -0.0895  0.1415
 6779W        W10979   6.390   5.357  11.541 -0.5872  0.1573  0.3442
 6780W        W10980   5.017   5.677   3.854  0.1751 -0.0852  0.1869
 6781W        W10981   9.184   6.643  11.648  0.0043  0.0576 -0.0955
 6782W        W10982   4.205   3.355  13.241 -0.2893  0.0873  0.1919
 6783W        W10983   1.964   3.612   3.811  0.0478 -0.2156  0.3039
 6784W        W10984   8.719   4.862  12.755 -0.0236  0.0785 -0.0028
 6785W        W10985   1.682   1.369   0.596  0.1683  0.2640 -0.3306
 6786W        W10986   2.170   6.430  13.392 -0.0989  0.1894 -0.0479
 6787W        W10987   9.415   9.943   4.408 -0.0828  0.0956 -0.2054
 6788W        W10988   9.420   2.107   3.837 -0.2259  0.0022  0.2749
 6789W        W10989   3.457   3.236   8.538  0.0874 -0.0001  0.2232
 6790W        W10990   9.499   2.037  11.194 -0.1703  0.1849  0.2827
 6791W        W10991   6.120   0.699   1.912  0.2538  0.2058  0.1391
 6792W        W10992   0.293   1.506   2.828 -0.3386  0.1180  0.2435
 6793W        W10993   2.654   0.839  12.604 -0.0825 -0.2648  0.0454
 6794W        W10994   5.699  10.329   1.470 -0.0905  0.0241  0.0425
 6795W        W10995  10.105   2.008  12.990  0.0933 -0.1473 -0.2117
 6796W        W10996   4.838   1.240  11.017 -0.2003 -0.0533  0.0391
 6797W        W10997   2.279   1.740  10.555 -0.0946 -0.1208  0.1715
 6798W        W10998   5.149   9.607   1.779  0.2048  0.3705  0.1845
 6799W        W10999   8.399   7.649   3.596 -0.0614 -0.2657  0.3027
 6800W        W11000   6.455   5.823  11.700  0.0163 -0.3855 -0.4752
 6801W        W11001   5.055   4.614   3.757  0.1041  0.2108  0.0564
 6802W        W11002   5.253   3.798  12.581 -0.1117  0.3012 -0.1252
 6803W        W11003   9.274   7.449  12.554 -0.0837 -0.0201  0.1277
 6804W        W11004   3.759   7.722   0.937 -0.0111  0.0248  0.0920
 6805W        W11005   3.676   3.499   0.389  0.1219 -0.3711  0.2273
 6806W        W11006   6.045   9.730   9.790 -0.3481 -0.2671 -0.2894
 6807W        W11007   6.497   7.151   4.314  0.2304  0.0240 -0.0382
 6808W        W11008   8.023   4.243   0.668  0.0306  0.0210 -0.6508
 6809W        W11009   5.215   6.676   3.574  0.1373  0.4758  0.4138
 6810W        W11010   1.613   8.353  11.266  0.1401 -0.2300 -0.2051
 6811W        W11011   2.634   6.430   0.201 -0.0141  0.0754 -0.0957
 6812W        W11012   8.124   3.933   1.971 -0.2933 -0.0315 -0.0251
 6813W        W11013   6.137   6.080  11.438  0.4326  0.1445 -0.2190
 6814W        W11014   1.718   5.504   2.222  0.0610  0.2308 -0.1024
 6815W        W11015   1.980   7.861   8.108  0.1797 -0.3087 -0.0705
 6816W        W11016   9.210   8.515  12.474 -0.1108 -0.0032 -0.0770
 6817W        W11017   9.889  10.032   9.527  0.2614 -0.3110  0.0693
 6818W        W11018   3.381   1.902   8.521  0.0746  0.0592  0.0752
 6819W        W11019   7.826   0.597  12.752 -0.0644 -0.1954  0.0008
 6820W        W11020   8.100   2.536  11.917 -0.3364 -0.0973 -0.1010
 6821W        W11021   4.295   2.025   9.473  0.0559  0.2029 -0.0934
 6822W        W11022   9.140   4.996  12.371 -0.1960 -0.2178 -0.1873
 6823W        W11023  10.074   0.585   0.484 -0.0551 -0.2658  0.1431
 6824W        W11024   2.406   5.525   4.280  0.1429 -0.0771 -0.2046
 6825W        W11025  10.463   1.118   2.987 -0.3459  0.0788  0.1963
 6826W        W11026   8.221   8.487   2.734  0.0179  0.2006  0.5403
 6827W        W11027   2.970   8.049   2.214  0.1715 -0.2862 -0.0031
 6828W        W11028   8.041   5.357   2.179  0.2551 -0.2763 -0.3492
 6829W        W11029   8.427   4.454   2.318  0.1910  0.1849  0.1516
 6830W        W11030   4.515   0.833   1.082  0.0936 -0.1464  0.0321
 6831W        W11031   2.160   0.855  11.944  0.0418  0.0533  0.0654
 6832W        W11032   2.674   4.949   0.906  0.0937  0.0696  0.0762
 6833W        W11033   8.513   8.904   1.690 -0.4156  0.0327  0.1346
 6834W        W11034  10.090   5.624   3.888  0.2338  0.0373 -0.2646
 6835W        W11035   5.289   3.052   9.387  0.1093  0.0738 -0.6046
 6836W        W11036   3.385   7.922   3.009  0.0267  0.0171 -0.1817
 6837W        W11037   3.112   2.887  11.825 -0.0120  0.1076  0.0334
 6838W        W11038   9.019   5.871   0.952 -0.0923  0.2948  0.5125
 6839W        W11039   1.043  10.467   1.899  0.2687  0.1924 -0.0079
 6840W        W11040   0.042   0.943   1.459  0.1959  0.2610 -0.2033
 6841W        W11041   6.626  10.262   2.801 -0.3167  0.0692  0.1826
 6842W        W11042   8.720   5.928   9.557 -0.0962  0.4471 -0.1464
 6843W        W11043   6.163   4.256   9.920  0.2032 -0.2147  0.0103
 6844W        W11044   5.451   3.641  13.079 -0.1184 -0.2942 -0.1492
 6845W        W11045   9.431   9.781  13.303  0.0752 -0.0651  0.1448
 6846W        W11046   7.752   0.222   4.089  0.1318  0.0647  0.0949
 6847W        W11047  10.258  10.192  10.423  0.1585  0.0324  0.1933
 6848W        W11048   3.460   6.058   3.234 -0.2574  0.2616  0.0296
 6849W        W11049   7.262   9.626   2.021 -0.1506  0.0696 -0.2042
 6850W        W11050   8.280   6.953  11.346  0.2389 -0.2738 -0.0709
 6851W        W11051   3.191   7.675  12.320 -0.2430  0.2279  0.0061
 6852W        W11052  10.230   0.534   2.189  0.2933 -0.2591 -0.0599
 6853W        W11053   5.743   6.102   1.029 -0.2362 -0.0752 -0.1638
 6854W        W11054   4.546   9.338  10.337  0.0358 -0.1916  0.0036
 6855W        W11055   3.512   0.830   0.122 -0.4606 -0.2469 -0.2089
 6856W        W11056   4.959   6.608   9.867 -0.0025  0.4241  0.0415
 6857W        W11057   0.606  10.176  12.616  0.0268 -0.0642 -0.3761
 6858W        W11058   5.665   1.541   4.428  0.0213  0.1844 -0.2972
 6859W        W11059   9.626   4.194  12.829  0.2357 -0.0140  0.0498
 6860W        W11060   1.506   0.190   1.679  0.1559  0.2136  0.1654
 6861W        W11061   0.258   9.875   3.530  0.0981  0.1118 -0.0814
 6862W        W11062   9.830   6.881   0.711  0.0765  0.1812 -0.2879
 6863W        W11063   4.780   2.145   0.695 -0.2885 -0.0621 -0.2331
 6864W        W11064   3.763   5.122  10.370  0.0341 -0.1913 -0.0970
 6865W        W11065   8.596   6.877   0.620 -0.1659 -0.0518 -0.0354
 6866W        W11066   8.227   2.629   0.525 -0.0015 -0.0553 -0.0063
 6867W        W11067   2.943   1.495   1.340  0.1039 -0.0594 -0.0385
 6868W        W11068   1.117   1.763   3.258  0.1056 -0.1081  0.0502
 6869W        W11069   4.951   9.217  12.631 -0.1013 -0.0007 -0.2587
 6870W        W11070   2.414   6.346  10.445  0.0389  0.0094  0.0139
 6871W        W11071   1.498   2.270   3.833  0.1714  0.0645 -0.1797
 6872W        W11072   0.643  10.118   0.620 -0.1586  0.1383  0.1142
 6873W        W11073   5.710   5.717   0.440 -0.2448 -0.0552 -0.4601
 6874W        W11074   5.478   7.975  12.676 -0.0904  0.1780  0.0318
 6875W        W11075   4.521   5.493  12.319 -0.1959 -0.1745 -0.0460
 6876W        W11076   2.981   9.942   2.304  0.0892  0.0186 -0.1512
 6877W        W11077   9.371   3.835   2.570 -0.0859 -0.0061 -0.0028
 6878W        W11078   9.943   9.294   3.529  0.2653 -0.0657  0.0111
 6879W        W11079   5.708   8.728  12.559 -0.0955  0.2031 -0.0082
 6880W        W11080   4.240   5.477   2.681 -0.3537 -0.2400 -0.0564
 6881W        W11081   1.103   4.620   3.768 -0.0764  0.0616 -0.0255
 6882W        W11082   0.700   2.917   9.821 -0.0600 -0.0073  0.0539
 6883W        W11083   0.662   4.715  13.062  0.0059  0.2095  0.0803
 6884W        W11084   4.277  10.472   3.505 -0.1543  0.3823  0.2060
 6885W        W11085   8.159   7.840   1.421 -0.1848  0.1200 -0.1468
 6886W        W11086   0.024  10.067   1.130 -0.0645  0.0658 -0.2778
 6887W        W11087   3.895   2.199   0.439 -0.0008 -0.2186  0.1166
 6888W        W11088   2.065   8.838   2.826 -0.1429 -0.5500  0.0600
 6889W        W11089   7.193   1.601   0.633  0.1202 -0.3819 -0.2610
 6890W        W11090   1.749   5.276   2.707 -0.4675  0.0689  0.1454
 6891W        W11091   0.647   1.087   9.732  0.1452 -0.3709  0.1177
 6892W        W11092   4.312   8.687   2.475 -0.3525 -0.0172 -0.2125
 6893W        W11093   7.795   5.651  11.540 -0.3155  0.0780  0.1448
 6894W        W11094   1.961  10.174  12.202  0.1211 -0.2748 -0.0961
 6895W        W11095   1.602   6.301   8.968 -0.1876 -0.1054  0.2533
 6896W        W11096   5.440   2.180   4.539 -0.0293 -0.1092  0.0349
 6897W        W11097   6.796   9.571  12.019 -0.2751 -0.3329 -0.0396
 6898W        W11098   7.850   2.183   2.360 -0.0634 -0.2199 -0.1947
 6899W        W11099   1.754   3.496  11.392  0.3416 -0.1951  0.0674
 6900W        W11100   4.999   6.996  12.633 -0.0905 -0.1529  0.3747
 6901W        W11101   1.356   1.567   4.356 -0.0059 -0.0306 -0.0268
 6902W        W11102   2.639   2.854   1.825  0.0357 -0.2157  0.0921
 6903W        W11103   6.914   6.290   3.011 -0.0672  0.2268  0.1964
 6904W        W11104   7.213   8.788   1.399  0.0542  0.2914  0.0166
 6905W        W11105   1.646   7.696  12.856  0.3883 -0.2019  0.0480
 6906W        W11106   1.901   2.909   1.422  0.0105  0.1458 -0.1001
 6907W        W11107   8.852   0.850   0.928 -0.3131  0.2691  0.1481
 6908W        W11108   2.437   7.687   3.330 -0.0400  0.0285  0.0539
 6909W        W11109   9.554   8.448   0.404  0.6197  0.0348 -0.0231
 6910W        W11110   0.626   7.242   0.157 -0.2087 -0.1985  0.0450
 6911W        W11111   2.408   9.977   2.988  0.0527  0.0678 -0.2870
 6912W        W11112   2.839   6.983   9.393  0.1621 -0.0604 -0.1265
 6913W        W11113   1.053   5.025   0.145 -0.1728  0.2062 -0.2263
 6914W        W11114   4.518   4.762   5.372 -0.1125 -0.1956 -0.0455
 6915W        W11115   2.289   0.483   3.575 -0.3070 -0.3665 -0.1008
 6916W        W11116   5.353   1.001  12.725  0.0203  0.3801  0.1115
 6917W        W11117   6.417   8.198  13.337 -0.3449  0.1937 -0.0463
 6918W        W11118   2.105   0.089   1.237 -0.0980  0.2861  0.0874
 6919W        W11119   4.165   8.501   5.136  0.5045 -0.2967  0.2379
 6920W        W11120   7.109   9.993  12.070 -0.0196 -0.0254 -0.1756
 6921W        W11121   7.881   3.317   3.137 -0.3176  0.0511 -0.1876
 6922W        W11122   2.924   1.998  11.021  0.0079  0.0440  0.0282
 6923W        W11123   8.109   0.769   2.579 -0.0546 -0.0964  0.1648
 6924W        W11124   4.533   0.691   4.762  0.1997  0.0456  0.2068
 6925W        W11125   9.348   2.742  11.813  0.1167  0.2390  0.4115
 6926W        W11126   4.778   5.921   3.413 -0.2492  0.0313 -0.0895
 6927W        W11127   6.382   5.366  10.056 -0.1107 -0.2423  0.0784
 6928W        W11128   9.043   9.323   3.281  0.2110  0.1788  0.2278
 6929W        W11129   5.917   2.407   4.713 -0.3035 -0.0191 -0.1332
 6930W        W11130   8.702   9.854   0.517  0.2721  0.0107 -0.0629
 6931W        W11131   3.451   5.971  10.865  0.1796  0.1199  0.0771
 6932W        W11132   6.401   8.946   1.949 -0.2563  0.0962  0.3112
 6933W        W11133   1.623   9.770   9.411 -0.4156  0.1868 -0.3060
 6934W        W11134   2.911   7.819   3.160 -0.0508  0.1563 -0.1513
 6935W        W11135   5.380  10.419   0.583  0.1793  0.1207 -0.0350
 6936W        W11136   8.832   7.991   3.436  0.0010  0.2797 -0.1298
 6937W        W11137  10.479   6.610  13.137  0.0841  0.4108 -0.1560
 6938W        W11138  10.221   5.265   0.221  0.0785  0.3555  0.1411
 6939W        W11139   8.755   8.827   0.375 -0.0514 -0.1758 -0.0474
 6940W        W11140  10.443   5.759   3.123  0.0928 -0.1788  0.1168
 6941W        W11141   1.965   4.655   4.657  0.1051  0.3559 -0.1476
 6942W        W11142   5.734   0.351   8.440  0.2073 -0.1042 -0.3214
 6943W        W11143   9.630   7.912   0.624  0.0777 -0.1693 -0.0061
 6944W        W11144   9.335   9.738  12.672  0.5843  0.1623  0.0936
 6945W        W11145   1.580   5.183  10.055  0.0667  0.2462  0.1017
 6946W        W11146   2.855   6.251   3.142 -0.1833 -0.2131 -0.0320
 6947W        W11147   8.133   6.035   4.567 -0.1920 -0.0491  0.1883
 6948W        W11148   8.457   3.290   0.437 -0.0008 -0.5083  0.0113
 6949W        W11149   8.992   6.192   0.572 -0.4378  0.2182 -0.2343
 6950W        W11150   2.376   4.408   9.042 -0.2168 -0.2714 -0.2294
 6951W        W11151   6.495   8.782  13.214 -0.1410  0.3866  0.2681
 6952W        W11152   9.326   2.024  12.194  0.0230  0.2735 -0.2862
 6953W        W11153   9.316   6.171   0.177  0.1492  0.2823 -0.1515
 6954W        W11154   1.200  10.277   2.817  0.0226  0.2894 -0.1360
 6955W        W11155   4.949   9.437   2.583  0.1911 -0.0438  0.0804
 6956W        W11156   5.089   1.282   4.594 -0.0532  0.1714  0.0972
 6957W        W11157   2.334   7.727  11.426 -0.1017 -0.0686  0.0819
 6958W        W11158  10.047   2.860   0.822  0.2017 -0.4424 -0.1237
 6959W        W11159   8.596   5.394  11.593  0.0451 -0.0797  0.0626
 6960W        W11160   4.639   0.251   3.950 -0.0028  0.1276 -0.0343
 6961W        W11161   7.438   0.045   2.915  0.0739  0.0388  0.0182
 6962W        W11162   6.564   6.368   4.958 -0.2439 -0.0491  0.1944
 6963W        W11163   8.186   3.954   0.338  0.0694  0.0243 -0.0490
 6964W        W11164   7.257   3.931   1.902  0.0005  0.1305 -0.2353
 6965W        W11165   0.328   1.861  10.598 -0.2288  0.1874 -0.0845
 6966W        W11166   1.592   2.885   1.069  0.3700  0.1193  0.1411
 6967W        W11167   1.373   2.534   3.436  0.0419 -0.0534 -0.2452
 6968W        W11168   5.206   1.658   0.091 -0.0550  0.1912  0.1257
 6969W        W11169   8.907   3.862   4.083  0.0666 -0.1443 -0.0174
 6970W        W11170   9.030   5.244  11.448 -0.0104  0.2239 -0.1287
 6971W        W11171   5.058   7.749   8.826  0.0042  0.1976  0.1099
 6972W        W11172   3.620   9.908   8.743  0.3893  0.3070  0.3257
 6973W        W11173   1.583   6.568   9.785  0.2305 -0.1268 -0.0920
 6974W        W11174   5.930   8.910  13.338 -0.0085 -0.2185  0.0662
 6975W        W11175   6.384   2.033   1.650 -0.2538  0.0524  0.0396
 6976W        W11176   3.260   9.869   9.652 -0.1010  0.0846  0.0740
 6977W        W11177   6.504   7.603  12.563 -0.1490  0.1041  0.1194
 6978W        W11178  10.201   1.596  12.667 -0.0766 -0.0099 -0.0496
 6979W        W11179   9.930   3.567  11.968 -0.1033  0.1509 -0.0938
 6980W        W11180   1.338   0.065  11.435 -0.1402  0.1241 -0.1117
 6981W        W11181   6.514   6.736   4.600 -0.0806 -0.1785 -0.2632
 6982W        W11182   5.286   0.534   0.749  0.0787  0.0729  0.0359
 6983W        W11183   2.276   1.842   4.135  0.0065 -0.0706 -0.5385
 6984W        W11184   0.902   4.050  10.282  0.1525  0.0528 -0.2026
 6985W        W11185   6.739   7.139   3.452 -0.0566 -0.2711  0.3671
 6986W        W11186   5.196   6.477   4.951  0.1646 -0.1608  0.1682
 6987W        W11187   3.598   0.377  10.723  0.0524 -0.1526  0.2710
 6988W        W11188   3.420   8.401  11.377 -0.1501  0.0880 -0.2263
 6989W        W11189   8.814   3.186  12.903  0.1690 -0.0133  0.1199
 6990W        W11190   6.482   5.361  12.201 -0.1418 -0.2764  0.2126
 6991W        W11191   2.210   3.961   2.725  0.0272  0.2159 -0.1005
 6992W        W11192   6.413   9.899   4.138  0.1392  0.0704 -0.0857
 6993W        W11193   9.824   1.690   0.333 -0.1197 -0.2433 -0.3454
 6994W        W11194   0.571   2.647  10.944 -0.3438  0.1103 -0.2872
 6995W        W11195   9.141   8.221   9.681 -0.0191  0.0464  0.0385
 6996W        W11196   7.990   6.522  11.900 -0.0862  0.2819 -0.3450
 6997W        W11197   1.392   2.766   0.210  0.1272  0.2280  0.0227
 6998W        W11198   7.344   5.309   1.002  0.0377 -0.1835 -0.2829
 6999W        W11199   1.808   4.702   0.830 -0.2433 -0.2172 -0.3553
 7000W        W11200   2.082   1.017   3.140  0.0730  0.2028 -0.0751
 7001W        W11201   1.167   3.812   9.249 -0.1491 -0.1712 -0.1497
 7002W        W11202   4.489   3.348  11.470  0.2167  0.0417  0.0944
 7003W        W11203   3.523   4.737   1.594  0.3235 -0.0950 -0.1718
 7004W        W11204   8.389   6.381   1.175 -0.1434 -0.1499 -0.1588
 7005W        W11205   7.615   5.718  12.879  0.2090 -0.3735  0.2770
 7006W        W11206   7.155   1.682  12.258 -0.2296  0.1494 -0.2669
 7007W        W11207   0.212   4.644   4.708 -0.0950  0.0705 -0.2715
 7008W        W11208   3.709   7.368   9.600  0.0502 -0.2322  0.1274
 7009W        W11209   2.728   2.979   0.643 -0.0202  0.0075 -0.0636
 7010W        W11210   7.468   8.460  13.113 -0.3844 -0.0997 -0.0640
 7011W        W11211   2.093   4.612   0.237  0.1700 -0.4639 -0.0240
 7012W        W11212  10.258   0.593   1.692 -0.3073  0.3501  0.0366
 7013W        W11213   7.279   8.801  11.067 -0.2091  0.0150  0.2025
 7014W        W11214   4.909   7.941  11.614 -0.1599 -0.3063 -0.2253
 7015W        W11215  10.439   9.086   0.244 -0.0002 -0.2664 -0.0967
 7016W        W11216   7.462   8.942  11.891 -0.3025 -0.0255  0.2418
 7017W        W11217   7.534   7.042   4.745 -0.0333 -0.1429 -0.2459
 7018W        W11218   4.698  10.481   1.715 -0.1869 -0.1826 -0.0284
 7019W        W11219   4.972   0.840   2.001  0.2295  0.2771 -0.2813
 7020W        W11220   9.317   2.360   0.090 -0.3198 -0.4119 -0.0750
 7021W        W11221   4.613   5.165   2.494  0.1213 -0.1373  0.1256
 7022W        W11222   6.388   0.447   4.247  0.2701 -0.5859  0.0789
 7023W        W11223   7.035   0.547   3.564  0.0733  0.1821  0.3020
 7024W        W11224   5.590   9.594   9.092  0.1466 -0.0824  0.3483
 7025W        W11225   0.923   9.676  10.154  0.1126  0.1500 -0.3268
 7026W        W11226   2.730   4.017   0.536 -0.0908 -0.2910 -0.2342
 7027W        W11227   7.972   0.529   3.249 -0.0507 -0.1135  0.2814
 7028W        W11228   3.335   7.574   8.881  0.0606  0.2018 -0.0424
 7029W        W11229   9.818  10.230  10.026 -0.2623  0.0120 -0.2187
 7030W        W11230   0.610   1.890  10.172  0.1228 -0.0346  0.1175
 7031W        W11231   4.229   4.680   3.920  0.0552  0.3221  0.1957
 7032W        W11232   3.826   5.551   3.853  0.3279 -0.0202  0.1325
 7033W        W11233   6.383   9.607   4.788 -0.0138 -0.3152  0.1117
 7034W        W11234   4.143   3.650   0.312  0.0377  0.0734  0.0097
 7035W        W11235   4.238   2.158   2.749  0.0415 -0.1800 -0.0871
 7036W        W11236   2.139   7.358   0.066  0.2554  0.3468  0.0662
 7037W        W11237   4.886   7.792  10.658 -0.1630  0.0812  0.0800
 7038W        W11238   5.943   0.055   9.865 -0.1482 -0.0359  0.0330
 7039W        W11239   9.649   7.498   3.224 -0.4239  0.2715  0.0371
 7040W        W11240   8.713   1.753   9.572 -0.1296 -0.0192  0.0735
 7041W        W11241   3.041   7.130  10.470 -0.1965  0.1385  0.1632
 7042W        W11242   9.776   1.370  12.539  0.0458  0.0377  0.1221
 7043W        W11243   7.847   9.374   8.974 -0.3156  0.3068 -0.1981
 7044W        W11244  10.007   8.950   9.931 -0.0718 -0.3690  0.0877
 7045W        W11245   0.040   5.900   9.105 -0.0627  0.2055 -0.0664
 7046W        W11246   9.973   6.487   2.949  0.0065  0.0796 -0.0363
 7047W        W11247   6.729   8.965   0.358  0.1254  0.2979 -0.0050
 7048W        W11248   2.276   6.642  12.312 -0.2294  0.0091 -0.0175
 7049W        W11249   1.224   7.060   3.272 -0.2219  0.1649  0.4120
 7050W        W11250   4.030   3.010   2.513 -0.0672  0.0106  0.0067
 7051W        W11251   5.688   1.583  13.360 -0.2209 -0.0801  0.1355
 7052W        W11252   7.312   1.267  12.645  0.0156  0.2199  0.1185
 7053W        W11253   5.296   3.761  10.154 -0.3506 -0.0404  0.4099
 7054W        W11254   9.452   0.906   2.897  0.3650  0.0538 -0.0117
 7055W        W11255   8.885  10.018   9.894 -0.2957 -0.0059 -0.3202
 7056W        W11256   6.949   0.847   4.405 -0.2746  0.1569  0.0084
 7057W        W11257   6.993   1.948   3.983 -0.0449  0.0106  0.3936
 7058W        W11258   6.546   6.889  10.753 -0.0480  0.1001  0.2099
 7059W        W11259   4.393   5.895   1.837 -0.0868 -0.2380 -0.1523
 7060W        W11260   4.633   5.409   3.511 -0.1048 -0.3518 -0.2884
 7061W        W11261   5.812  10.059   2.093 -0.2265 -0.0904 -0.1472
 7062W        W11262   3.855   2.484  11.494  0.0332  0.2861  0.2022
 7063W        W11263   1.589   7.752  10.738 -0.1478 -0.1171 -0.0643
 7064W        W11264   1.429   1.105   9.495 -0.1210  0.3638  0.1059
 7065W        W11265   6.997   3.207   2.666 -0.1712 -0.2803 -0.0740
 7066W        W11266   9.004   7.921   2.542 -0.1125  0.1717 -0.3042
 7067W        W11267   5.000   0.623   9.874  0.4289  0.0098 -0.0714
 7068W        W11268   3.553   1.782  10.877  0.1632 -0.0014  0.0355
 7069W        W11269   5.588   5.678   4.725 -0.1365 -0.0553  0.1856
 7070W        W11270   9.639   5.286   4.602  0.0538  0.0584 -0.3493
 7071W        W11271   7.292   3.374   1.945  0.1385  0.0080 -0.1908
 7072W        W11272   9.054   3.986   0.407  0.1344 -0.0367  0.0586
 7073W        W11273   1.810   8.080   3.959 -0.1149 -0.1146  0.3026
 7074W        W11274   8.772   5.268   4.669 -0.2174  0.3220 -0.0373
 7075W        W11275   7.447   0.540   9.644 -0.2681 -0.0341  0.1335
 7076W        W11276   2.983  10.396   0.655  0.1770 -0.2601 -0.0737
 7077W        W11277   9.325   1.564  12.493  0.1483 -0.2558  0.0520
 7078W        W11278   9.093   4.155  12.771 -0.1586 -0.0218 -0.1232
 7079W        W11279   6.597   7.853   3.254  0.2328 -0.0828  0.2565
 7080W        W11280   1.273   5.008   1.088 -0.1310 -0.1239  0.0709
 7081W        W11281   0.385   4.038   2.962 -0.0630  0.1696 -0.0558
 7082W        W11282   5.744   2.608  11.336  0.1546 -0.0132  0.1916
 7083W        W11283   5.209  10.455   1.167  0.0791  0.0265 -0.0572
 7084W        W11284   3.119   5.717   4.857 -0.0047 -0.0800  0.0375
 7085W        W11285   6.775   2.355  12.909  0.2739  0.3190 -0.1944
 7086W        W11286   2.581   4.209   0.061  0.0357 -0.3405 -0.2919
 7087W        W11287   8.360   0.631   2.163 -0.1549 -0.0991  0.0328
 7088W        W11288   8.681   4.714   1.247 -0.0184 -0.3483  0.2890
 7089W        W11289   3.601   2.688   9.175  0.1338 -0.1185 -0.0907
 7090W        W11290   2.824   0.163  10.779  0.0225 -0.2841 -0.1500
 7091W        W11291   8.014   7.595   0.998  0.1073 -0.2024 -0.0138
 7092W        W11292   9.438   5.549   2.688 -0.2051 -0.1725 -0.1290
 7093W        W11293   4.222   2.549   1.815  0.0732 -0.0208  0.1930
 7094W        W11294   8.987   3.253   2.547 -0.1880 -0.1686 -0.0566
 7095W        W11295   7.943   7.291   4.746 -0.2255 -0.2576 -0.4091
 7096W        W11296   9.057   2.963   1.313 -0.1239  0.1432 -0.1147
 7097W        W11297   5.290   9.131   8.570 -0.0305  0.1553  0.1596
 7098W        W11298   4.793   4.464  10.469 -0.1114  0.2440 -0.1797
 7099W        W11299   8.602   5.711  12.066  0.0444 -0.0657  0.1503
 7100W        W11300   1.007   2.161  13.139  0.0090 -0.2281  0.3196
 7101W        W11301   2.686   6.812   1.004 -0.1402 -0.0029 -0.2870
 7102W        W11302   4.108   5.421   4.827  0.0329 -0.2221 -0.2496
 7103W        W11303   1.699   2.963   3.391 -0.2781  0.0130 -0.0232
 7104W        W11304   8.676   7.767   2.936  0.4088 -0.0143  0.4448
 7105W        W11305   9.471   7.890   2.314  0.0263 -0.0080 -0.0438
 7106W        W11306   5.944   5.624  11.519  0.0188 -0.1694 -0.0068
 7107W        W11307   8.263   3.380   3.433 -0.0986  0.2414 -0.0293
 7108W        W11308   7.477   7.221  12.612  0.0152 -0.3040 -0.2003
 7109W        W11309   6.458   4.915   3.393  0.3844  0.2005 -0.3203
 7110W        W11310   2.704  10.321  11.578  0.3122  0.0207  0.3258
 7111W        W11311   7.010   6.878   4.719 -0.4983 -0.0478 -0.1603
 7112W        W11312   5.474   6.316   3.140  0.2479  0.5385 -0.3131
 7113W        W11313  10.075   8.210   4.464 -0.0459  0.1555 -0.0999
 7114W        W11314   5.631  10.017   1.013 -0.0899  0.0881 -0.2221
 7115W        W11315   3.721   9.915  12.767 -0.0789  0.0214  0.1059
 7116W        W11316   8.945   2.844   1.834 -0.1883  0.1158 -0.1377
 7117W        W11317   6.044   4.126  12.311  0.1448 -0.2256 -0.0741
 7118W        W11318   4.876   4.679   2.609 -0.0428  0.0105  0.1328
 7119W        W11319   5.403   5.658  12.519  0.0558 -0.1465  0.2827
 7120W        W11320   2.076   2.753   1.832 -0.1966  0.0963 -0.1183
 7121W        W11321   4.527   4.616   2.190 -0.2340  0.0327 -0.1540
 7122W        W11322   9.489   8.876   3.413  0.0704  0.0299  0.0562
 7123W        W11323   3.066   6.467   2.573 -0.0533  0.1511  0.2197
 7124W        W11324   6.142   0.404   1.109 -0.0312 -0.0711  0.0304
 7125W        W11325   2.910   5.801  11.739 -0.1027  0.0798 -0.1419
 7126W        W11326   4.280   1.820   8.997  0.0392  0.1335 -0.0095
 7127W        W11327   3.142   3.015  11.119 -0.0696 -0.0397 -0.3610
 7128W        W11328   3.803  10.396   2.833 -0.2159  0.2960 -0.0670
 7129W        W11329   8.389   6.199  12.667  0.1631 -0.1634  0.0163
 7130W        W11330   2.667   1.087  13.250 -0.0960 -0.1721  0.2093
 7131W        W11331   8.491  10.225   0.205 -0.3096 -0.3562  0.2214
 7132W        W11332   4.018   8.350   8.752  0.2734  0.2045  0.0049
 7133W        W11333   4.427   3.594  12.287 -0.4298 -0.0708 -0.2408
 7134W        W11334   1.563   0.620  10.554 -0.1498 -0.0375  0.1828
 7135W        W11335   6.239   6.654  12.712  0.0713  0.5390 -0.0016
 7136W        W11336   9.523   5.464   9.382  0.2003 -0.2180 -0.3218
 7137W        W11337   6.903   0.154   0.023 -0.0547 -0.1261 -0.2390
 7138W        W11338   0.586   1.757   0.639  0.0685  0.0106 -0.2890
 7139W        W11339   5.147   6.231  11.673  0.4264 -0.0324  0.1088
 7140W        W11340   5.667   5.281   4.389 -0.2418  0.3390 -0.0542
 7141W        W11341   7.067   0.142   3.898  0.0051  0.0635 -0.0496
 7142W        W11342   7.724   2.075   1.834  0.3573 -0.3051 -0.1814
 7143W        W11343   8.349   8.346  12.574  0.2361 -0.0083  0.1227
 7144W        W11344   8.585  10.160   9.031  0.0328 -0.1476  0.1662
 7145W        W11345   3.073   9.781   1.840  0.2138  0.1050 -0.0328
 7146W        W11346   3.065   5.646   8.949 -0.3409 -0.2163 -0.2768
 7147W        W11347   1.733   6.206   3.794 -0.1412  0.1005  0.2026
 7148W        W11348   2.107   3.099   3.738 -0.1417 -0.1573  0.3923
 7149W        W11349   6.906   2.582   3.414  0.2633 -0.5123  0.2280
 7150W        W11350   4.013   4.897  12.255 -0.0957  0.0127 -0.1163
 7151W        W11351   2.961   7.838   8.069 -0.2974  0.3076 -0.1089
 7152W        W11352   5.695   1.937   0.414 -0.2471 -0.2764  0.2380
 7153W        W11353   9.621   1.098  11.453 -0.1236 -0.1733 -0.0155
 7154W        W11354   0.563   9.653  12.796 -0.0476  0.0483 -0.1080
 7155W        W11355   2.793   1.227   3.690  0.1250  0.0129 -0.1856
 7156W        W11356  10.076   8.765   2.551 -0.2094 -0.3173 -0.1692
 7157W        W11357   9.222   9.728  10.355 -0.0622  0.2648 -0.0158
 7158W        W11358   4.276  10.377  11.215  0.0469  0.0281 -0.0388
 7159W        W11359   0.582   5.684  13.316 -0.0739  0.1401  0.0815
 7160W        W11360   7.539   6.617  12.543 -0.1192 -0.2621  0.0771
 7161W        W11361   7.477   0.199   0.009  0.2220 -0.2234  0.1187
 7162W        W11362   5.619   2.057   5.074 -0.0225  0.1199  0.1777
 7163W        W11363   8.373   5.016   2.262  0.0786  0.1689 -0.0117
 7164W        W11364   4.904   4.805  10.845 -0.0568  0.2433  0.1177
 7165W        W11365   0.706   5.968   1.857  0.2507  0.1266 -0.0991
 7166W        W11366   0.290   1.260   1.769 -0.0623 -0.0049 -0.1043
 7167W        W11367   4.134   7.175  12.576 -0.2369 -0.0831 -0.3256
 7168W        W11368   9.340   6.754   9.154  0.1608 -0.3028  0.0089
 7169W        W11369   3.380   9.229  11.391 -0.2038  0.0154 -0.2607
 7170W        W11370   3.771   4.077   1.162  0.4228 -0.2130  0.0652
 7171W        W11371   6.844   0.998  12.957 -0.1157  0.2110  0.1948
 7172W        W11372   0.703   7.866  12.635 -0.0418  0.1941 -0.2044
 7173W        W11373   4.437   4.918   1.772  0.3171 -0.0687  0.0231
 7174W        W11374   1.761   8.298   9.479  0.1302 -0.1935  0.0107
 7175W        W11375   8.948   0.070  11.952  0.0454  0.1858 -0.1954
 7176W        W11376   5.365   7.070  11.385  0.3105 -0.1593  0.0103
 7177W        W11377   9.884   3.511   0.338  0.0207 -0.1779  0.0308
 7178W        W11378   8.812   6.306  10.068  0.1719  0.0283 -0.1272
 7179W        W11379   6.448   9.813  11.662 -0.1920 -0.1596 -0.0154
 7180W        W11380   7.655   9.102   2.650 -0.0941 -0.1299  0.2734
 7181W        W11381  10.112   1.739   9.778  0.3376 -0.1037  0.0793
 7182W        W11382   3.157   4.271  12.263  0.2595 -0.0938 -0.0802
 7183W        W11383   1.305  10.468  12.024  0.0398 -0.0356  0.3125
 7184W        W11384   6.065   6.099  12.649 -0.0327 -0.4096  0.3247
 7185W        W11385  10.327  10.325   9.323 -0.0568  0.1689  0.0941
 7186W        W11386   7.604   7.338  10.938  0.2891 -0.0724 -0.0142
 7187W        W11387   0.225   6.945   8.773  0.2805  0.2094  0.1114
 7188W        W11388   7.793   9.895  12.699 -0.1614  0.0180  0.0838
 7189W        W11389   2.329   6.162   3.240  0.1616  0.1060 -0.1817
 7190W        W11390   6.188  10.392  13.086  0.2026  0.1372  0.0848
 7191W        W11391   0.488   6.784   3.108  0.0712 -0.2585  0.2260
 7192W        W11392   9.827   1.895  10.791 -0.1437 -0.0428 -0.1319
 7193W        W11393   5.272   6.066   1.757  0.1192  0.1658 -0.1368
 7194W        W11394   6.898   7.443   2.585 -0.0818 -0.0690 -0.0453
 7195W        W11395   8.375   0.952  10.033 -0.1609 -0.1014 -0.0095
 7196W        W11396   0.938   3.155   1.562 -0.0031 -0.0608 -0.2846
 7197W        W11397   4.750   4.906   4.038 -0.2656 -0.4128 -0.2510
 7198W        W11398   3.256   6.483  12.345 -0.0753  0.0895  0.0206
 7199W        W11399   8.244   5.472  11.214 -0.1150  0.1540 -0.1203
 7200W        W11400   0.236   9.529   0.283 -0.1333  0.2863 -0.0810
 7201W        W11401   9.247   7.787  11.794 -0.1440 -0.0283  0.3337
 7202W        W11402   9.996   0.476  12.561  0.1859  0.1137  0.0736
 7203W        W11403   3.621   8.007  13.105 -0.0005  0.0805  0.3096
 7204W        W11404   4.681   7.386  12.692 -0.0436 -0.2342  0.1821
 7205W        W11405   4.994   5.911   9.805 -0.1736 -0.0214 -0.0179
 7206W        W11406   4.849   3.488  11.136 -0.0855 -0.2257  0.3213
 7207W        W11407   2.589   4.715   2.530 -0.0966  0.0205  0.2406
 7208W        W11408   1.820  10.432  10.063  0.2929  0.1194  0.2359
 7209W        W11409   3.258   3.617  12.036  0.1482  0.2954 -0.0733
 7210W        W11410  10.292   1.584  13.312  0.1919 -0.4622  0.2617
 7211W        W11411   9.150   8.092  10.278  0.1380  0.0759  0.1725
 7212W        W11412   7.179   1.695   9.746 -0.4052 -0.1072  0.2927
 7213W        W11413   2.510   7.461   2.507  0.1555 -0.0124  0.0043
 7214W        W11414   2.856   7.199   3.929  0.0688  0.2010  0.2559
 7215W        W11415   1.509   7.908   0.405  0.4784  0.2084  0.2734
 7216W        W11416   8.859   2.084  12.033  0.1087 -0.1079 -0.1012
 7217W        W11417   8.971   8.632   9.393 -0.3482  0.0751  0.0245
 7218W        W11418   6.865   3.042  13.112 -0.1480  0.2322  0.2316
 7219W        W11419   3.444   3.523   3.539 -0.2694 -0.0046  0.4423
 7220W        W11420   1.917   2.341   0.307 -0.0790  0.0971  0.1144
 7221W        W11421   2.195   7.560   8.427 -0.2678  0.2078 -0.3329
 7222W        W11422   1.083   8.825  11.301 -0.2844  0.0382  0.1465
 7223W        W11423   4.390   1.004   9.305  0.1150 -0.0768 -0.0578
 7224W        W11424   6.745   0.841  12.367  0.1921  0.1795  0.2020
 7225W        W11425   3.012   2.680   8.227 -0.1556 -0.1039 -0.2185
 7226W        W11426   7.727   6.552   1.802 -0.0445 -0.2124  0.1693
 7227W        W11427   1.150   6.024   3.653 -0.2107 -0.1416  0.0092
 7228W        W11428  10.224   9.533   0.388  0.0763 -0.5769 -0.0169
 7229W        W11429   6.141   8.351  10.392  0.2700 -0.0456 -0.1154
 7230W        W11430   7.413   5.648   9.243  0.3947  0.0967  0.0245
 7231W        W11431   9.324   2.252   0.667  0.1239 -0.0484  0.0991
 7232W        W11432   8.432   9.584   8.617  0.3015  0.1181  0.0696
 7233W        W11433   5.617   6.872   3.372 -0.0143 -0.0108  0.1168
 7234W        W11434   4.833   4.329   8.961 -0.0839 -0.0238 -0.0937
 7235W        W11435   5.628   5.070   9.496 -0.2148 -0.1725  0.1859
 7236W        W11436   2.459   1.318   9.687 -0.0980  0.3133  0.1377
 7237W        W11437  10.022   1.722  11.821  0.0077 -0.2616  0.1849
 7238W        W11438   3.996   7.333   4.578  0.0662 -0.0982  0.0823
 7239W        W11439   0.219   0.043   2.253 -0.1622  0.0157 -0.1575
 7240W        W11440   7.364   3.480   2.402  0.0573 -0.1083 -0.2115
 7241W        W11441   0.038   2.057  13.209 -0.1303 -0.1598  0.2035
 7242W        W11442   4.919   5.541   2.518  0.2140  0.0020  0.0265
 7243W        W11443   3.154   2.855   2.780  0.0205 -0.3392 -0.0213
 7244W        W11444   3.477   9.032  11.891 -0.2921 -0.1929  0.1558
 7245W        W11445   0.331   0.427  12.870  0.1099  0.1056 -0.2412
 7246W        W11446   0.640   9.745   3.840  0.0769 -0.0950 -0.0759
 7247W        W11447   2.411   8.553   0.560 -0.2301  0.1942  0.0650
 7248W        W11448   0.352   0.906  12.074 -0.1552 -0.2682 -0.2151
 7249W        W11449   1.828   5.439  12.915 -0.2295  0.1951 -0.5464
 7250W        W11450   4.799   2.494   4.013 -0.0865  0.0199 -0.3015
 7251W        W11451   0.508   7.517   2.875  0.0954 -0.2924  0.0177
 7252W        W11452   3.523   4.516   2.175  0.4062  0.1514 -0.0261
 7253W        W11453   0.267   5.054   3.725  0.4430  0.2488  0.0802
 7254W        W11454   2.250   2.987  10.728  0.1024 -0.0165  0.1739
 7255W        W11455   7.776   3.340   4.240 -0.1161  0.1160  0.1197
 7256W        W11456   9.981   4.731   2.951  0.1715 -0.1208 -0.0313
 7257W        W11457   9.567   7.753   2.812  0.0064  0.3608  0.2110
 7258W        W11458   5.979   6.546   3.223  0.0554 -0.0766  0.2538
 7259W        W11459   7.776  10.131   1.302  0.1211 -0.0441  0.0439
 7260W        W11460  10.013   4.934   1.087 -0.1014 -0.1810  0.2965
 7261W        W11461   3.709   3.761   1.525  0.0545  0.1515  0.0584
 7262W        W11462   4.101   3.898  12.525  0.2998  0.1373  0.0290
 7263W        W11463   1.751   4.229  10.085  0.0081  0.1550 -0.0678
 7264W        W11464   2.259   8.840   3.748 -0.3688 -0.0178  0.2222
 7265W        W11465   8.089   8.406  11.468  0.2077 -0.1561  0.0877
 7266W        W11466   3.612   8.169   9.588 -0.0452 -0.2478 -0.3161
 7267W        W11467   1.942   6.977   2.735  0.1153  0.0783  0.0111
 7268W        W11468   5.118   6.055  11.254  0.0184  0.2276 -0.0969
 7269W        W11469   2.398   7.160   9.737 -0.2116  0.0534 -0.0200
 7270W        W11470   1.436   1.353  12.618 -0.1709 -0.1228 -0.1992
 7271W        W11471   4.475   4.529   1.232 -0.2315  0.0411 -0.3675
 7272W        W11472  10.454   2.499  12.854  0.1672  0.0996  0.1890
 7273W        W11473   3.305   7.410   5.189 -0.5006  0.1539 -0.3004
 7274W        W11474   6.554   9.843   3.107  0.1262 -0.1616 -0.2232
 7275W        W11475   8.715   0.626  10.444  0.1477 -0.0285 -0.0584
 7276W        W11476   5.441   0.581   5.106 -0.2739 -0.2958  0.0267
 7277W        W11477   3.403   1.523   9.394  0.2065  0.0567 -0.0118
 7278W        W11478   4.665   2.609   1.536  0.0295 -0.1517 -0.1032
 7279W        W11479   7.226   9.656   4.367  0.3650 -0.3304 -0.0821
 7280W        W11480   9.109   2.420   1.622 -0.0343  0.1564  0.2053
 7281W        W11481   1.971   0.523   1.463  0.2725 -0.1300 -0.3961
 7282W        W11482   0.498  10.074  13.103 -0.2302  0.0246 -0.2872
 7283W        W11483   8.981   6.620  12.178 -0.2005  0.2990  0.1813
 7284W        W11484   4.499   9.963  11.488 -0.0334  0.1622 -0.0653
 7285W        W11485  10.464   8.135   9.499 -0.1339 -0.0200 -0.0432
 7286W        W11486   1.128  10.097  11.648 -0.1610  0.3343 -0.2634
 7287W        W11487   2.693   9.815   8.583 -0.0458  0.1053  0.2015
 7288W        W11488   1.980  10.456   2.207  0.2102 -0.0168  0.1001
 7289W        W11489   4.158   9.675  11.835  0.1258 -0.1693 -0.1025
 7290W        W11490   3.143   2.814   4.039  0.2349 -0.0307  0.0312
 7291W        W11491   3.274   4.761   3.363  0.0709  0.4187 -0.1735
 7292W        W11492   9.764  10.120  12.994 -0.0799  0.0299  0.0084
 7293W        W11493   6.474   8.991   2.489  0.1063 -0.1389  0.1571
 7294W        W11494   9.700   0.481   3.056  0.2234  0.0884  0.0454
 7295W        W11495   5.772   3.363   3.302  0.2821 -0.2703  0.2212
 7296W        W11496  10.408  10.231   3.365  0.1892  0.4181 -0.2204
 7297W        W11497   2.638   3.621   1.515 -0.1561 -0.2298 -0.0540
 7298W        W11498   2.981   6.603  10.744 -0.1596 -0.0576  0.1274
 7299W        W11499   6.100   9.856   0.932 -0.1007 -0.0607  0.0253
 7300W        W11500   1.735   0.962   1.717  0.2638 -0.2648 -0.0013
 7301W        W11501   9.943   7.513  11.189  0.4987 -0.2875  0.3295
 7302W        W11502   1.178   5.070   3.422 -0.0793 -0.3527 -0.2929
 7303W        W11503   9.851   3.403   3.505  0.0751  0.2775  0.2254
 7304W        W11504   1.774   6.637   0.827  0.0086  0.0444 -0.0202
 7305W        W11505   2.416   0.529   1.195 -0.1406 -0.4144 -0.2542
 7306W        W11506   0.737   8.064  12.216 -0.1724 -0.1405  0.1940
 7307W        W11507   3.688   1.777   3.355  0.2120  0.1544  0.0088
 7308W        W11508   1.971   5.981   0.197  0.2228  0.1874 -0.0763
 7309W        W11509   8.921   7.103  12.951  0.1730  0.0515  0.0196
 7310W        W11510   0.794   5.280   9.101  0.0427  0.1925 -0.1261
 7311W        W11511   5.207   4.320   2.504  0.0068  0.0854 -0.3027
 7312W        W11512   1.975   3.767  10.882 -0.2252  0.1827 -0.2053
 7313W        W11513   1.375   4.294   4.069 -0.5396 -0.3291 -0.0961
 7314W        W11514   5.479   4.642  13.385  0.3685 -0.1392 -0.1916
 7315W        W11515  10.144   8.797  13.268 -0.2464  0.0171 -0.1735
 7316W        W11516  10.276   8.411   1.784 -0.1540 -0.0221  0.0855
 7317W        W11517   3.705   2.576  10.631  0.1256 -0.1926  0.1032
 7318W        W11518   1.376   6.240  10.823 -0.0245 -0.0955 -0.0604
 7319W        W11519   2.339   9.554   2.372 -0.1072 -0.1686 -0.1110
 7320W        W11520  10.432   5.318  10.011  0.0096  0.0068 -0.0418
 7321W        W11521   7.203   9.436  12.996 -0.1220 -0.2112 -0.1381
 7322W        W11522   0.904   6.372   9.413 -0.0785  0.0734  0.1168
 7323W        W11523   0.278   3.553   3.300  0.0666 -0.1633 -0.0030
 7324W        W11524   2.206   0.294  11.772  0.1083 -0.2406  0.2977
 7325W        W11525   6.931   4.986   1.017  0.2484 -0.0059  0.1673
 7326W        W11526   7.184   8.587   3.168 -0.2136 -0.0185 -0.0354
 7327W        W11527   5.275   5.552   1.747 -0.1607  0.0765 -0.2420
 7328W        W11528   8.956   8.758   5.109 -0.1764 -0.2505  0.0523
 7329W        W11529   0.936   8.722   3.602 -0.4181  0.2597  0.2488
 7330W        W11530   7.450   1.919   2.237  0.3421 -0.0634 -0.0735
 7331W        W11531   0.694   1.880   3.764  0.0008 -0.2421  0.0340
 7332W        W11532   3.012   2.621   0.955  0.2453 -0.0538 -0.4772
 7333W        W11533   7.304   9.795   0.330  0.1127 -0.0403 -0.2246
 7334W        W11534   2.248  10.074   0.439  0.0962 -0.2665 -0.0580
 7335W        W11535   8.761   7.288   2.697  0.0379 -0.5114 -0.0805
 7336W        W11536   4.149   9.137   3.201 -0.1203 -0.2681 -0.0520
 7337W        W11537   4.812   5.192   9.178 -0.0481 -0.0006 -0.0713
 7338W        W11538   3.369   9.477   0.531 -0.0707  0.0556  0.2024
 7339W        W11539   8.399   8.187   4.879 -0.4111 -0.3131 -0.1754
 7340W        W11540   8.070   2.577  10.371 -0.1614 -0.0029 -0.5344
 7341W        W11541   0.275   0.514  10.258 -0.1223 -0.1294 -0.0033
 7342W        W11542   5.620   5.457  12.085  0.2130 -0.2576  0.1075
 7343W        W11543   1.490   1.292   9.954  0.0070 -0.1245  0.0573
 7344W        W11544   1.843   6.833  12.376 -0.1966 -0.2664  0.0261
 7345W        W11545   1.507   4.570   9.600 -0.0109 -0.3468 -0.3877
 7346W        W11546   2.750   8.448   2.493  0.2563  0.0518 -0.1632
 7347W        W11547   3.484   0.599   8.140 -0.1425  0.1628 -0.1700
 7348W        W11548   7.426   9.390  10.412  0.2308 -0.0268 -0.0599
 7349W        W11549   0.840   0.534  12.334 -0.0615  0.0829  0.1811
 7350W        W11550   4.523   0.552   9.627  0.1615 -0.0152 -0.1450
 7351W        W11551   6.989   3.574  11.805  0.0985  0.0548 -0.2383
 7352W        W11552   4.301   3.527   2.229 -0.1228 -0.2216 -0.0383
 7353W        W11553   5.691   4.398   1.115 -0.1148 -0.1055  0.0722
 7354W        W11554   7.049   9.942   0.745 -0.1958  0.2483 -0.0133
 7355W        W11555   7.615   9.135   1.827 -0.0759 -0.2096  0.1063
 7356W        W11556   2.651   2.212  10.088  0.0028  0.1100 -0.1342
 7357W        W11557   2.867   4.095  12.677 -0.0859  0.5211  0.3384
 7358W        W11558   6.336   4.872   0.154  0.0352 -0.0405  0.1330
 7359W        W11559  10.421   9.572   3.810  0.0983 -0.2806  0.0484
 7360W        W11560   8.663   0.004   4.832 -0.2265 -0.0742  0.0824
 7361W        W11561   3.191   6.123   9.094  0.0671  0.0672  0.0589
 7362W        W11562   1.255   2.384  12.785  0.2294 -0.0003  0.0290
 7363W        W11563   2.273   8.165  10.036 -0.0652 -0.2276 -0.0131
 7364W        W11564  10.133   3.289  12.700 -0.1158 -0.0952 -0.0151
 7365W        W11565   1.024   9.741   2.589  0.0694 -0.0845  0.1764
 7366W        W11566   9.784   9.542   0.613 -0.1488 -0.4091 -0.1348
 7367W        W11567   6.444   8.690  10.139 -0.1189 -0.0480  0.1156
 7368W        W11568   4.925   4.843  12.653  0.1855 -0.0492 -0.0492
 7369W        W11569   2.724   3.969  10.757  0.1002 -0.0164 -0.0102
 7370W        W11570   2.357   5.672  12.186 -0.0095 -0.0452  0.1112
 7371W        W11571   4.823   1.761   2.006 -0.2111 -0.2284 -0.3377
 7372W        W11572   2.622   9.400  11.015  0.0305  0.2058  0.2454
 7373W        W11573   1.454   2.615  12.328  0.0865 -0.0215 -0.1721
 7374W        W11574   9.768  10.103   0.722  0.0006  0.1072  0.1514
 7375W        W11575   2.388   8.070   4.552 -0.2439 -0.4484  0.3454
 7376W        W11576   9.438   4.076   3.047  0.1092  0.1136  0.0169
 7377W        W11577   8.500   6.407   0.152 -0.2536  0.4765  0.1717
 7378W        W11578   4.448   0.480  10.498  0.0302  0.0211 -0.0812
 7379W        W11579   5.962   9.636   4.186  0.2097  0.0687  0.1949
 7380W        W11580   5.781   2.785   3.938 -0.0569 -0.1608  0.0862
 7381W        W11581   1.977   3.478   2.548 -0.0594 -0.0535  0.3785
 7382W        W11582   4.997   1.873   3.866  0.1072  0.2459 -0.2398
 7383W        W11583   9.843   9.168   4.412 -0.0438 -0.3149  0.1394
 7384W        W11584   1.653   9.210   1.232 -0.0750  0.0320 -0.1635
 7385W        W11585   4.532   7.875   3.635  0.2521 -0.1300 -0.1692
 7386W        W11586   9.175   4.891   3.312 -0.0860  0.1054 -0.4262
 7387W        W11587   5.375   2.772  10.330  0.0094  0.0087  0.0145
 7388W        W11588   5.771   4.214   4.157 -0.0233 -0.0952  0.4091
 7389W        W11589  10.287   4.247  12.407  0.2598 -0.1979  0.1097
 7390W        W11590   0.365   8.093  12.931 -0.0248  0.0025  0.0737
 7391W        W11591   6.260   6.766   2.788  0.0783  0.3160  0.1309
 7392W        W11592   5.581   9.154  10.396 -0.3602  0.2716 -0.5063
 7393W        W11593  10.481   7.130  13.328  0.1120  0.3768 -0.1932
 7394W        W11594   9.685   5.800   9.726 -0.0505  0.4138 -0.0488
 7395W        W11595   1.327   9.490   0.914 -0.1758  0.1239 -0.0310
 7396W        W11596   0.035   6.383   4.639  0.3032 -0.0350  0.0489
 7397W        W11597   7.619   1.551  12.354 -0.0415 -0.3117 -0.3443
 7398W        W11598   7.392   6.977   4.317 -0.1960 -0.0497 -0.0487
 7399W        W11599   2.250   7.251   2.114  0.0289  0.1285 -0.0018
 7400W        W11600   6.411   2.633   3.321  0.0503 -0.2458  0.0297
 7401W        W11601   8.821   8.481  13.042 -0.0006  0.1218  0.3332
 7402W        W11602   7.983   2.363   2.814 -0.1426  0.1000 -0.1552
 7403W        W11603   5.412   9.167   1.829 -0.3508 -0.0570  0.2476
 7404W        W11604   7.422   5.411  12.215 -0.2883 -0.2284  0.0917
 7405W        W11605   0.856   7.717   9.669  0.4173  0.1535 -0.0949
 7406W        W11606   5.002   4.745   9.222  0.2791 -0.2206 -0.0379
 7407W        W11607   8.295   7.711  11.953  0.0863 -0.2021  0.1056
 7408W        W11608   2.582   0.637  10.473  0.0943  0.0287 -0.3085
 7409W        W11609   2.002  10.161   9.147  0.2458  0.1020 -0.0287
 7410W        W11610   2.008   2.118  11.263 -0.0189  0.0191 -0.2046
 7411W        W11611   7.005   2.070  11.976  0.1925 -0.1381 -0.3917
 7412W        W11612   1.165   3.027  10.117 -0.0510 -0.2121  0.1004
 7413W        W11613   2.429   7.699   1.567 -0.0445  0.1462 -0.1880
 7414W        W11614   3.653   6.732   9.393  0.0390  0.3266 -0.1992
 7415W        W11615   4.524   6.212  10.919 -0.3951 -0.0172 -0.1568
 7416W        W11616  10.222   4.778   1.687  0.0562  0.0689 -0.0983
 7417W        W11617   5.904   1.898   4.173 -0.1303  0.3160 -0.2383
 7418W        W11618   2.969   4.078   4.121  0.0518  0.3145  0.1566
 7419W        W11619   4.542   3.181   8.931 -0.1417  0.1551 -0.1450
 7420W        W11620   4.465   0.213  12.668  0.1754 -0.3414  0.1540
 7421W        W11621   2.815   4.597  12.505  0.0240  0.1493 -0.0831
 7422W        W11622   8.219   7.701   0.557 -0.0178 -0.0353  0.0682
 7423W        W11623   7.336   4.909   0.714 -0.1174 -0.0099 -0.2623
 7424W        W11624   0.150   5.094  10.428  0.0405  0.0505 -0.3694
 7425W        W11625   3.865   4.331  10.884 -0.2166 -0.1085  0.0514
 7426W        W11626   1.011   0.614  10.780  0.0617  0.4492 -0.0566
 7427W        W11627   5.284   6.751  11.741  0.2479 -0.1704  0.0504
 7428W        W11628   0.942   8.414   2.167 -0.2532  0.0211 -0.0551
 7429W        W11629   9.651   0.778  11.840  0.0858  0.0116  0.0851
 7430W        W11630   8.900  10.182  12.315  0.0507  0.1236 -0.0535
 7431W        W11631  10.482   1.222  11.727  0.2294  0.1856 -0.1981
 7432W        W11632   2.566   1.692  12.646 -0.1995  0.4443 -0.0696
 7433W        W11633   9.829   2.977   1.868  0.1688  0.1914  0.1631
 7434W        W11634   9.201   7.642   1.545 -0.1741  0.3895  0.0750
 7435W        W11635   0.253   3.895   9.431  0.1497 -0.1987 -0.0732
 7436W        W11636   6.641   6.740  12.024 -0.2077  0.3400 -0.3664
 7437W        W11637   0.977   0.090  10.958 -0.1169  0.0647 -0.2085
 7438W        W11638  10.167   1.337  12.129 -0.1435  0.3170 -0.1907
 7439W        W11639   1.689   7.589  11.277 -0.0024  0.2182 -0.3362
 7440W        W11640   6.396   0.657   1.480  0.2890 -0.2087  0.1441
 7441W        W11641   1.140   8.934   2.059 -0.1117  0.4020  0.1240
 7442W        W11642   7.844   4.156   2.303  0.4944  0.0595 -0.0943
 7443W        W11643   1.823   9.246   3.063 -0.0209  0.0277  0.3042
 7444W        W11644   3.086   1.544   1.818 -0.1681 -0.2315 -0.1017
 7445W        W11645   9.679   4.696   0.453  0.1713  0.0407 -0.1996
 7446W        W11646   3.806   8.008   8.494  0.2346  0.2532 -0.0910
 7447W        W11647   8.552   6.598   9.727  0.2747  0.1734 -0.1437
 7448W        W11648   7.724   8.206  11.142  0.0139 -0.1368  0.0580
 7449W        W11649   3.826   1.113  10.089 -0.2382 -0.2247  0.0630
 7450W        W11650   1.682   6.797   4.543 -0.2841  0.1210  0.1984
 7451W        W11651   1.665   3.312  10.143 -0.2144 -0.1248 -0.1223
 7452W        W11652   0.229   6.340   0.592  0.0150  0.1317  0.2817
 7453W        W11653   7.694   8.669   2.983 -0.0867  0.3033  0.1334
 7454W        W11654   9.871  10.336   0.061  0.0423 -0.2214  0.1004
 7455W        W11655   5.063   2.263   9.310 -0.2166 -0.0162  0.2749
 7456W        W11656   4.947   2.614  12.451 -0.0019 -0.0336 -0.0008
 7457W        W11657   0.063   6.501   2.897  0.1537 -0.0862  0.0584
 7458W        W11658   7.934  10.263   3.988  0.0721 -0.1598  0.2356
 7459W        W11659   2.192   9.105  10.250  0.0987  0.2320 -0.0738
 7460W        W11660   8.447   9.752   0.055 -0.0679 -0.0573  0.0184
 7461W        W11661   8.548   1.799   2.746  0.0354  0.2041  0.1330
 7462W        W11662   4.926   9.003   4.397  0.0163 -0.2769 -0.0332
 7463W        W11663   0.270   1.071  13.002  0.0859 -0.0568 -0.2134
 7464W        W11664   5.528   8.527   1.072 -0.1637  0.1001 -0.1008
 7465W        W11665   5.594   2.255  10.772  0.0034  0.2214  0.1352
 7466W        W11666   1.997   8.025  10.478 -0.1955  0.0535 -0.0176
 7467W        W11667   8.764   4.281   0.092  0.2501  0.2169 -0.0180
 7468W        W11668   8.999   4.500   9.897  0.3275 -0.0403  0.0574
 7469W        W11669   8.741   5.657   4.986  0.0625  0.0790 -0.1290
 7470W        W11670   7.795   3.100   1.195  0.0737  0.1880 -0.1589
 7471W        W11671   0.720   3.888   3.266  0.0232 -0.1932  0.1683
 7472W        W11672   1.709   5.073  12.420 -0.0779  0.2252 -0.1166
 7473W        W11673   2.713   8.225   4.092  0.1417  0.1028  0.0621
 7474W        W11674   4.630   8.965   1.754 -0.1588 -0.0089 -0.3438
 7475W        W11675   8.772   5.650   3.916 -0.0119  0.0532 -0.1626
 7476W        W11676   6.319   7.562  11.343 -0.0884  0.2486 -0.1746
 7477W        W11677   1.728   7.242  10.691 -0.0162  0.2000  0.0040
 7478W        W11678   8.901   0.020   0.095 -0.0735  0.1270 -0.3017
 7479W        W11679   5.677   8.169   1.887  0.1702 -0.1395 -0.0240
 7480W        W11680   1.011   7.953  10.083  0.2180 -0.0503 -0.0539
 7481W        W11681   1.993  10.157   3.787 -0.0168 -0.2669 -0.0502
 7482W        W11682   7.136   7.466   9.547 -0.1466 -0.0212  0.2116
 7483W        W11683   2.272   1.117   8.919  0.2225 -0.0111  0.3089
 7484W        W11684   2.600   8.085   1.821  0.1413  0.1062 -0.0754
 7485W        W11685   4.673   3.337  10.699  0.2621 -0.1002 -0.1129
 7486W        W11686   9.446   0.415   4.348  0.2825  0.1731  0.1041
 7487W        W11687   7.804   5.025  12.060  0.1059 -0.1059 -0.3014
 7488W        W11688   8.127   7.955   4.013 -0.0470  0.3541 -0.0041
 7489W        W11689   9.818   4.001  12.295 -0.0208 -0.3357 -0.1404
 7490W        W11690   8.628   6.970   1.195  0.1336 -0.0523  0.4381
 7491W        W11691   6.158   9.028   1.372  0.1657 -0.1116  0.3290
 7492W        W11692   4.070   2.388  12.777 -0.0563  0.0616  0.0466
 7493W        W11693   6.268   4.607   3.066  0.2997 -0.0350 -0.2268
 7494W        W11694   3.024   0.684   3.023  0.1441 -0.1883 -0.1208
 7495W        W11695   6.803   1.495   4.983 -0.0727 -0.1761 -0.0506
 7496W        W11696   7.302   3.113  12.859 -0.2138 -0.0347 -0.0881
 7497W        W11697   9.700   1.044   1.879 -0.0512  0.2640 -0.0496
 7498W        W11698   7.746   9.603   2.779  0.2563 -0.2639  0.0060
 7499W        W11699   1.739   5.619   9.418  0.2928 -0.1972  0.0110
 7500W        W11700   5.274   8.355  12.345  0.0132 -0.3034  0.0983
 7501W        W11701   5.529   8.529   4.413 -0.3854 -0.0993 -0.2130
 7502W        W11702   9.480   3.644  13.206 -0.0983 -0.5434 -0.1033
 7503W        W11703   0.156   4.013   3.499  0.0901  0.3163  0.0242
 7504W        W11704  10.333   9.274   4.258 -0.3937 -0.1558  0.2215
 7505W        W11705   9.416   6.445   4.135  0.1273  0.0710  0.1591
 7506W        W11706   3.939   1.197   0.136 -0.0477  0.0328 -0.1057
 7507W        W11707   9.381   6.054   2.482 -0.1030 -0.0859 -0.1908
 7508W        W11708   3.140   0.364  10.514  0.0112  0.1272  0.2625
 7509W        W11709   7.230   4.370   2.780  0.1467  0.0188  0.1253
 7510W        W11710   0.767   1.187   0.906  0.2109  0.0934 -0.3512
 7511W        W11711   7.761   6.029  10.494 -0.1923  0.2367  0.2045
 7512W        W11712   8.622   8.286   9.667 -0.3408 -0.2323 -0.0150
 7513W        W11713   9.183   6.591   8.623 -0.5219 -0.2399  0.0479
 7514W        W11714  10.200   0.826  11.484 -0.2543 -0.2237  0.6205
 7515W        W11715   8.401   4.100   2.784 -0.0963  0.0249  0.0464
 7516W        W11716   2.685   9.625   9.083 -0.1339 -0.0343 -0.2537
 7517W        W11717   9.557   1.598  11.631  0.1452 -0.0524  0.2471
 7518W        W11718   3.363   0.055   9.580 -0.1037  0.2517 -0.1085
 7519W        W11719   1.234   7.927   4.873  0.1799 -0.3367  0.0246
 7520W        W11720   9.182   0.931   0.536 -0.2072  0.1573 -0.0662
 7521W        W11721   0.041   7.490   9.259  0.0100 -0.1008 -0.1733
 7522W        W11722   5.033   3.513  13.369  0.0265 -0.1030 -0.1592
 7523W        W11723   5.457   4.254   2.957  0.1790 -0.2891  0.2481
 7524W        W11724   4.674   4.407   3.970 -0.1723 -0.0074 -0.1852
 7525W        W11725   8.736   0.919   1.864 -0.0095  0.0628 -0.1581
 7526W        W11726   0.054   1.472   1.399  0.1012  0.1087 -0.4297
 7527W        W11727   1.841   9.712   8.895  0.3198 -0.0851 -0.1076
 7528W        W11728   1.389   8.178   2.376 -0.0171 -0.1127 -0.5304
 7529W        W11729   2.193   9.691   3.752 -0.1055 -0.0465 -0.1375
 7530W        W11730   5.429   3.426   4.658  0.2687 -0.0027 -0.2768
 7531W        W11731   1.033   3.908   1.789 -0.1314 -0.0497  0.0021
 7532W        W11732   6.588   5.955   2.258  0.3696 -0.0890  0.3368
 7533W        W11733   8.256   5.657   1.363 -0.0888 -0.1037  0.2598
 7534W        W11734   4.679   2.661   0.880 -0.2226  0.0024 -0.5710
 7535W        W11735   0.288   1.461  13.312  0.0469 -0.1557  0.2275
 7536W        W11736   9.650   6.901   4.463  0.1618 -0.1513  0.0293
 7537W        W11737   8.511   7.415   4.049  0.1110  0.1522 -0.1403
 7538W        W11738   3.670   8.307   3.884  0.0201  0.0378 -0.2923
 7539W        W11739   2.473   4.516  11.305  0.1977 -0.0789  0.1192
 7540W        W11740   3.077   9.534   0.084 -0.0213 -0.2119  0.2661
 7541W        W11741   1.755   7.472   0.409 -0.1542 -0.0806  0.2611
 7542W        W11742   3.742   3.749  13.379 -0.2205 -0.2196 -0.0735
 7543W        W11743   7.284   8.330   8.800  0.0674  0.1537  0.0934
 7544W        W11744   4.677  10.073   8.301  0.0895 -0.0631 -0.0806
 7545W        W11745   7.551   2.498   1.388 -0.1848 -0.1048 -0.1572
 7546W        W11746   2.044  10.005   1.427 -0.1702  0.1367  0.1296
 7547W        W11747   7.792   6.648   4.594 -0.0412  0.1582 -0.0726
 7548W        W11748   3.111   5.754  12.655 -0.0200 -0.5110  0.1666
 7549W        W11749   2.048   2.516  10.089  0.2817  0.1497  0.0157
 7550W        W11750   5.209   1.138   0.729  0.0764  0.0080  0.1607
 7551W        W11751   5.441   4.261  12.185  0.1703  0.1733  0.0519
 7552W        W11752   2.467   3.692   9.617 -0.0130  0.1767  0.0256
 7553W        W11753   3.534   0.940   3.008 -0.0386 -0.0600 -0.0369
 7554W        W11754   3.616   1.464   0.954 -0.2414 -0.0804 -0.2273
 7555W        W11755   5.292   5.507   1.230 -0.0175  0.1754  0.3343
 7556W        W11756   9.937   4.243   2.903 -0.1683 -0.3173 -0.1533
 7557W        W11757  10.350   8.346   2.318 -0.0467  0.0203 -0.2639
 7558W        W11758   6.729   9.501  12.812 -0.0963  0.1101  0.1196
 7559W        W11759   8.197   6.809   0.976 -0.2242  0.1172 -0.0679
 7560W        W11760   5.501   8.858   9.956  0.1235 -0.2260  0.0017
 7561W        W11761   3.615   3.723  10.167 -0.0311  0.0084  0.0466
 7562W        W11762  10.373   1.299   0.916  0.1978 -0.2371 -0.0856
 7563W        W11763   1.580   5.501   1.217  0.0850  0.1577 -0.1081
 7564W        W11764   5.020   6.790   9.146 -0.0541 -0.0601  0.1529
 7565W        W11765   1.070   5.664   3.287 -0.2145  0.0481 -0.1154
 7566W        W11766   2.216   2.875   4.255  0.0771 -0.1252  0.1443
 7567W        W11767   1.643   8.171   3.363  0.2523  0.0858  0.3012
 7568W        W11768   3.186   4.787   0.825 -0.2854 -0.2975 -0.1757
 7569W        W11769   1.080   5.593   1.107 -0.4702  0.0657 -0.0720
 7570W        W11770   9.721   9.059  11.467 -0.1141 -0.0781 -0.0881
 7571W        W11771   0.248   8.479   3.909  0.0206 -0.0750 -0.0779
 7572W        W11772   6.391   9.976   1.335 -0.2047  0.1031  0.2669
 7573W        W11773   9.345  10.374  11.574  0.1582  0.2242 -0.2622
 7574W        W11774   4.236   1.209  10.398 -0.2038  0.0260 -0.3495
 7575W        W11775   4.175   0.605  12.352  0.0285 -0.5502  0.3003
 7576W        W11776   0.555   1.101   3.107  0.2259 -0.1286 -0.1449
 7577W        W11777   1.071  10.239  10.055 -0.3655 -0.1636  0.0273
 7578W        W11778   3.660   9.489   2.779 -0.1177  0.0058 -0.1150
 7579W        W11779   5.992   1.426   0.361  0.3695  0.3488  0.1119
 7580W        W11780   9.708   1.266  12.010 -0.0227 -0.0338  0.0038
 7581W        W11781   1.192   0.712   0.347 -0.1586  0.1431 -0.1530
 7582W        W11782  10.300   6.983   3.745 -0.1801  0.0258 -0.4902
 7583W        W11783   3.953   8.778   4.238 -0.3017 -0.2088 -0.0375
 7584W        W11784   3.783   6.163  11.227  0.2198 -0.3553  0.1592
 7585W        W11785   4.924   6.456   4.564  0.2020 -0.1141 -0.3251
 7586W        W11786   9.701   3.138   0.006  0.0387 -0.0764  0.2319
 7587W        W11787   0.213  10.377  10.633  0.1499 -0.0014  0.1721
 7588W        W11788   7.868   8.022  12.290  0.1792  0.0987  0.0763
 7589W        W11789   2.330   0.404   1.790 -0.1472  0.1314 -0.2489
 7590W        W11790   4.425   2.562  12.469  0.2912 -0.3069  0.1264
 7591W        W11791   6.096   4.837   8.968 -0.0787 -0.2214 -0.0215
 7592W        W11792   8.463   2.252   3.000 -0.0490  0.4757 -0.0703
 7593W        W11793   1.420   5.432  12.056  0.0046  0.1189 -0.0835
 7594W        W11794   4.296   4.050   0.010  0.1649 -0.1428 -0.1971
 7595W        W11795  10.310   0.126  12.586 -0.3556 -0.1308 -0.1520
 7596W        W11796   1.210   6.323   9.928 -0.1011  0.0017  0.2386
 7597W        W11797   5.602   2.381   1.215 -0.1115 -0.2453 -0.3316
 7598W        W11798   7.983   3.699  10.138 -0.1655  0.0795  0.0172
 7599W        W11799   2.337   4.101  11.003 -0.0568 -0.2760  0.0882
 7600W        W11800   6.873  10.296  11.746 -0.4258 -0.1829 -0.3450
 7601W        W11801   8.186   9.879   3.811  0.0723  0.0103 -0.1259
 7602W        W11802   4.317   9.760   0.696 -0.2029 -0.0676 -0.0723
 7603W        W11803   9.834   4.019  13.256 -0.1425 -0.1987  0.3204
 7604W        W11804  10.172   8.799  12.228 -0.0183 -0.1758 -0.1899
 7605W        W11805   6.450   9.172  11.963  0.0456  0.3536  0.1130
 7606W        W11806   1.256   0.894  11.677 -0.3154 -0.2431  0.1354
 7607W        W11807   9.061   1.580   1.602  0.0566 -0.0286 -0.1195
 7608W        W11808   1.897   3.488   0.311  0.4080  0.1371  0.1226
 7609W        W11809   3.336   4.610  11.926  0.1250 -0.1118 -0.0497
 7610W        W11810   8.855   4.676   3.680  0.2878  0.0907 -0.2120
 7611W        W11811   2.916  10.222   1.786 -0.2251 -0.0061  0.3011
 7612W        W11812   1.063   5.723   0.586  0.1090  0.2481 -0.1701
 7613W        W11813   5.151   3.738   2.300 -0.1906 -0.3687 -0.1457
 7614W        W11814   0.768   4.295   9.844  0.3671 -0.1104 -0.5697
 7615W        W11815   6.975   4.247   0.158 -0.0633  0.0004  0.4137
 7616W        W11816   0.211   9.813  10.511 -0.4406  0.0685  0.1734
 7617W        W11817   6.907   6.854   2.237  0.1611 -0.1720 -0.0164
 7618W        W11818   2.757   4.020  11.309 -0.1766  0.1446 -0.1006
 7619W        W11819   7.416   8.303  12.441 -0.2969  0.1973 -0.0683
 7620W        W11820   4.207   6.058   9.237 -0.0278  0.4434  0.0313
 7621W        W11821   3.679   4.989   3.333  0.0037 -0.0465  0.0034
 7622W        W11822   0.849   2.551   3.272 -0.0988 -0.0138 -0.0013
 7623W        W11823   5.671   2.485   9.931  0.0840  0.1988  0.0510
 7624W        W11824   5.150   1.389   8.796  0.2604  0.3144  0.0645
 7625W        W11825   5.551   2.602   1.939  0.0951 -0.0295 -0.1275
 7626W        W11826   3.752   0.237   0.963 -0.1883 -0.0675 -0.0449
 7627W        W11827   8.945   7.431  11.625 -0.0844  0.2648  0.2203
 7628W        W11828   3.305   7.161   8.537 -0.1505  0.3120 -0.2322
 7629W        W11829   1.769   1.322   1.068 -0.3364 -0.0665 -0.1090
 7630W        W11830   0.746   9.530   0.410  0.0076  0.0401  0.0226
 7631W        W11831   6.757   4.678  11.124  0.4514 -0.1093  0.0699
 7632W        W11832   7.621   0.078   0.718  0.0845  0.1839 -0.3265
 7633W        W11833   3.176   2.719   3.352  0.0238  0.2708  0.0157
 7634W        W11834   2.105   3.707  13.202 -0.1328 -0.0829 -0.2378
 7635W        W11835   3.910   2.732  13.174  0.3061  0.0516  0.2506
 7636W        W11836   6.243   7.000  11.148  0.1175  0.1603  0.1030
 7637W        W11837   5.462   1.838  12.153  0.1697  0.0250 -0.2923
 7638W        W11838   9.529   6.665   3.509  0.1236  0.0003 -0.0074
 7639W        W11839   0.294   2.823  12.000  0.1224  0.2937  0.2579
 7640W        W11840   6.043   9.090   8.919 -0.0015  0.2102 -0.3721
 7641W        W11841   6.851   5.200  11.359 -0.1149 -0.0282 -0.0196
 7642W        W11842   2.641   3.715   4.202  0.1357 -0.3076  0.1495
 7643W        W11843   0.660   0.777  13.115  0.1143 -0.1728  0.1043
 7644W        W11844   6.957   7.599  12.323  0.0464 -0.2010 -0.0907
 7645W        W11845   6.880   5.749   9.381 -0.1470  0.2229  0.2584
 7646W        W11846   8.402   9.524  12.743 -0.4793 -0.1324  0.0376
 7647W        W11847   4.120   3.732  11.473 -0.0989  0.4211  0.0459
 7648W        W11848   3.216   6.994   0.871 -0.0324 -0.1831  0.0196
 7649W        W11849   8.282   4.796  11.171 -0.2270  0.0080  0.0250
 7650W        W11850   8.804   6.571   0.934  0.0783  0.1205 -0.2407
 7651W        W11851   8.752   9.645  12.081 -0.0331  0.0211  0.1673
 7652W        W11852   9.716   9.532   2.085 -0.0495 -0.0539 -0.0392
 7653W        W11853   4.040   6.766   1.642 -0.0185  0.1184 -0.0278
 7654W        W11854   8.105   2.473   3.311 -0.0983 -0.1245  0.3920
 7655W        W11855   2.136   1.355   0.382  0.2090 -0.4176  0.0300
 7656W        W11856   9.405   7.616   1.021  0.4110  0.0023  0.2627
 7657W        W11857   3.047   7.912   9.190  0.0171 -0.1357 -0.0142
 7658W        W11858   3.061   9.084   3.541 -0.0462  0.5206  0.2661
 7659W        W11859   4.303  10.270   0.308  0.1936  0.0310 -0.0295
 7660W        W11860   4.264   2.612   2.372 -0.0043 -0.1637  0.4410
 7661W        W11861   9.716   4.927   2.463  0.0721  0.0642  0.0041
 7662W        W11862   5.500   3.056  11.767 -0.0519  0.0076 -0.0228
 7663W        W11863   6.880   4.079   3.638  0.1184  0.1322 -0.0760
 7664W        W11864   9.211   1.133  12.051 -0.1700 -0.0605 -0.3651
 7665W        W11865   6.159  10.095   2.436 -0.1025  0.0659  0.0848
 7666W        W11866   7.244   0.910   3.813 -0.0072  0.0785  0.3647
 7667W        W11867   4.060   3.869  11.949 -0.0352 -0.1077 -0.1002
 7668W        W11868   0.522   8.049   2.931  0.1734 -0.0508  0.2119
 7669W        W11869   6.876   1.931  12.651 -0.1885  0.1278  0.0999
 7670W        W11870  10.332   4.331   2.063 -0.1163  0.2054  0.0922
 7671W        W11871   2.124   2.203  10.779  0.2609 -0.2319  0.2713
 7672W        W11872   1.943   8.339   0.277  0.0563 -0.0671  0.1085
 7673W        W11873   2.159   8.538   8.720  0.0526 -0.1872  0.3157
 7674W        W11874   0.190   5.359   3.329 -0.2188  0.0847 -0.2738
 7675W        W11875   4.016   0.338   4.090 -0.1246 -0.1398 -0.0494
 7676W        W11876   8.307   5.294  12.078  0.0019 -0.0814 -0.3718
 7677W        W11877  10.387   0.539   3.783 -0.0635 -0.2634  0.0492
 7678W        W11878   0.374   7.775   9.533 -0.1995 -0.0959  0.4651
 7679W        W11879   3.577   0.526  11.634 -0.1276 -0.1546 -0.0770
 7680W        W11880   1.553   2.308   2.806 -0.3164  0.0261  0.2859
 7681W        W11881   6.277   2.499  11.249 -0.0811 -0.1675  0.2859
 7682W        W11882   2.190   1.029  10.513  0.0969  0.1020  0.0994
 7683W        W11883   7.866  10.260   2.177  0.0990  0.2691  0.2397
 7684W        W11884   2.521   2.496   0.919  0.1690  0.1779 -0.0421
 7685W        W11885   4.935   7.899   1.317 -0.3619 -0.3827  0.0379
 7686W        W11886   7.714   8.065  13.307  0.0792  0.4408  0.0140
 7687W        W11887  10.230   2.488  10.890 -0.2259 -0.1649 -0.1011
 7688W        W11888   2.067   5.648   8.364  0.0436 -0.1583  0.3743
 7689W        W11889   1.647   4.306   3.390 -0.0481  0.1805  0.0569
 7690W        W11890   2.653   6.913   4.850 -0.0484  0.0422 -0.0317
 7691W        W11891   0.835   3.697  13.008  0.0609  0.1970 -0.0078
 7692W        W11892   8.195   9.944  11.270  0.1812 -0.0352 -0.1142
 7693W        W11893   2.604   5.796   4.741  0.3171  0.0555 -0.2407
 7694W        W11894   5.987   1.930   0.823 -0.1890  0.0138  0.0331
 7695W        W11895  10.346   5.420   2.187 -0.2541 -0.2252  0.0059
 7696W        W11896   4.727  10.320  10.444 -0.1091 -0.5561  0.2036
 7697W        W11897   4.620   7.955   1.982 -0.0515  0.2109 -0.0893
 7698W        W11898   0.196   2.378  11.251  0.0206 -0.2663 -0.0254
 7699W        W11899   4.209   5.078   0.388 -0.3697  0.1689 -0.0201
 7700W        W11900   5.902   8.269  12.552 -0.0851  0.2198  0.0263
 7701W        W11901   5.144   8.753  11.152  0.4785  0.0493  0.0519
 7702W        W11902   1.439   6.266   1.709 -0.0490 -0.0467  0.1158
 7703W        W11903   0.024   9.546   2.583  0.0721 -0.2825  0.0420
 7704W        W11904   7.783   9.668  11.368  0.1120  0.2074  0.3391
 7705W        W11905   7.063   6.928   8.641  0.2604 -0.0148  0.1347
 7706W        W11906   2.087   9.988   1.910  0.2343  0.2742 -0.1698
 7707W        W11907   3.140   9.531  11.077 -0.0704 -0.0052 -0.0904
 7708W        W11908   8.565   0.117   1.455  0.0676  0.1706 -0.0650
 7709W        W11909   2.731   4.173   2.424  0.1070 -0.0404  0.0454
 7710W        W11910   6.380   0.985   3.249 -0.1890  0.0312  0.0601
 7711W        W11911   5.973   3.808   9.810  0.0988 -0.2792  0.0136
 7712W        W11912   5.752   3.498  10.080  0.1524 -0.1019  0.1284
 7713W        W11913   6.309   0.114   2.527 -0.1239 -0.0424 -0.1009
 7714W        W11914   9.873   4.445  10.885  0.2502  0.0486  0.0343
 7715W        W11915   4.463   3.049  11.086 -0.0234  0.1732  0.1566
 7716W        W11916   4.774   7.469   3.231 -0.1325  0.0622 -0.0942
 7717W        W11917   7.825   9.423   9.589  0.3074  0.0284 -0.3124
 7718W        W11918   3.216   6.434   3.646 -0.2356  0.4374 -0.2192
 7719W        W11919   8.675   8.693   2.383  0.2086  0.3808 -0.0767
 7720W        W11920   9.307   0.640   1.012 -0.0415  0.0074  0.2326
 7721W        W11921   1.569   4.230   1.008  0.0255  0.2337  0.5292
 7722W        W11922   6.302   8.952  10.630 -0.2076  0.2204  0.2276
 7723W        W11923   4.858   9.290   0.011  0.1678  0.0935 -0.1138
 7724W        W11924   7.710   9.161  11.324 -0.0902  0.3841 -0.2355
 7725W        W11925   3.980   5.432   0.071 -0.1541  0.0368 -0.3182
 7726W        W11926   3.789   8.079   9.148 -0.0738 -0.2855 -0.0466
 7727W        W11927  10.408   7.344   4.144  0.1240 -0.2070 -0.0733
 7728W        W11928   6.834   5.876   4.173 -0.0622  0.3977  0.2156
 7729W        W11929   8.367   8.087  10.482  0.1393  0.0634  0.0557
 7730W        W11930  10.176   9.927  12.915 -0.2732  0.0424  0.1072
 7731W        W11931   8.301   7.136   5.150  0.0548 -0.0068 -0.1635
 7732W        W11932   2.918   3.374   2.754 -0.0934 -0.0707  0.0037
 7733W        W11933   4.323   5.262   2.090  0.0054  0.1368  0.1990
 7734W        W11934   5.289   3.498   9.174 -0.2848 -0.0143 -0.0696
 7735W        W11935  10.253   6.187   1.662 -0.0191 -0.4265  0.1089
 7736W        W11936   1.443   6.706  11.101 -0.2660  0.0284  0.0813
 7737W        W11937   3.981   4.869   2.961  0.1121  0.2406  0.3290
 7738W        W11938   3.204   3.760  12.501 -0.0350 -0.0403  0.0364
 7739W        W11939   0.213   7.989  12.383 -0.0507 -0.0334 -0.2204
 7740W        W11940   8.463   7.862   1.064 -0.3686  0.1346  0.0391
 7741W        W11941   8.086   1.687   1.663 -0.1795  0.1217 -0.0649
 7742W        W11942   8.276   6.199  13.176 -0.0638  0.0415  0.1243
 7743W        W11943   4.907   5.222   1.524  0.0395  0.3414 -0.3917
 7744W        W11944   9.084   6.788   9.613 -0.1132 -0.1101  0.0279
 7745W        W11945   5.811  10.340   3.541 -0.3518  0.1243 -0.0613
 7746W        W11946   7.943   3.079  10.467 -0.2280 -0.0001 -0.1889
 7747W        W11947   4.084   5.328   3.514 -0.0685  0.0964  0.1728
 7748W        W11948   6.046   4.205   1.978 -0.2262 -0.1474  0.2208
 7749W        W11949   3.894   5.992  11.776 -0.0550 -0.2247  0.1532
 7750W        W11950   4.947   4.656  12.206  0.2177  0.1458  0.1917
 7751W        W11951   4.472   7.149   0.919  0.1385  0.0576  0.0930
 7752W        W11952   5.443   1.201   9.659  0.1726 -0.0279  0.1092
 7753W        W11953   6.138   2.211   2.829  0.1511  0.0948 -0.0960
 7754W        W11954   3.693   6.457  10.795  0.0917  0.1970  0.0771
 7755W        W11955   3.518  10.451  11.846 -0.0843 -0.0993 -0.2443
 7756W        W11956   9.841   5.952   2.574  0.0170  0.2059  0.0124
 7757W        W11957   7.104   6.349   0.090 -0.2226 -0.0154 -0.2506
 7758W        W11958   2.899   6.775   0.519  0.3887 -0.2939 -0.0583
 7759W        W11959   2.164   5.997   3.963 -0.2882  0.0534 -0.0601
 7760W        W11960   9.083   6.578   3.683 -0.1387  0.0230  0.1912
 7761W        W11961   3.906   1.887   1.556 -0.2479  0.0520 -0.2003
 7762W        W11962   2.592   3.574   3.693 -0.0781 -0.0401  0.2433
 7763W        W11963   7.547   8.023   5.132  0.0531 -0.1866  0.1349
 7764W        W11964   1.698   7.340   5.425  0.2308  0.6404  0.0306
 7765W        W11965   1.893   8.881  12.183 -0.0398 -0.0689 -0.1030
 7766W        W11966   8.216   0.388   4.208  0.0194  0.1235  0.1126
 7767W        W11967   7.313   6.221  12.645  0.0893  0.0481 -0.2575
 7768W        W11968   4.707   5.805  11.063 -0.1924 -0.1812  0.0924
 7769W        W11969   0.866   4.275   2.977  0.0044  0.3945 -0.4256
 7770W        W11970   7.651   8.953   1.337  0.2226  0.4198  0.2546
 7771W        W11971   8.830  10.242   1.156 -0.2095 -0.2759  0.3507
 7772W        W11972   6.248   3.466  10.132  0.2694  0.1219 -0.2849
 7773W        W11973   4.880   6.602  13.172  0.2773  0.3001 -0.0268
 7774W        W11974   2.408   7.014   0.331 -0.2603  0.0993  0.1237
 7775W        W11975   8.883   3.553  10.187  0.1700 -0.0322  0.1088
 7776W        W11976   5.702   6.256   1.880 -0.0225  0.2029  0.1755
 7777W        W11977   4.266   1.359   2.119 -0.2990  0.1263  0.2256
 7778W        W11978   8.638   1.575  11.174 -0.1141 -0.1982  0.3761
 7779W        W11979   5.785   5.552   9.721 -0.1806  0.5286 -0.2831
 7780W        W11980   0.818   5.089   1.332  0.0543  0.0525  0.1154
 7781W        W11981   4.056   0.881   2.480 -0.0274  0.0303 -0.0937
 7782W        W11982   5.133   5.570  10.989  0.1156  0.1466  0.0824
 7783W        W11983   6.982   8.828  10.212 -0.1174 -0.2257 -0.0108
 7784W        W11984   1.079  10.003  11.085 -0.3591 -0.0614  0.0063
 7785W        W11985   6.014   5.184  11.838  0.1511 -0.2451 -0.1659
 7786W        W11986   6.587   0.222   2.974 -0.0399 -0.1321 -0.1275
 7787W        W11987   0.054   3.165   2.929 -0.1020 -0.0370 -0.2984
 7788W        W11988   2.922   8.940  12.039 -0.1121 -0.2738 -0.1139
 7789W        W11989   1.805   3.383  12.909 -0.1838  0.0968 -0.2375
 7790W        W11990   3.019   1.696  11.631 -0.4727  0.0549  0.0644
 7791W        W11991   1.185   9.605   4.242 -0.0189  0.1784 -0.2448
 7792W        W11992   9.562   9.093   2.490  0.1240 -0.2282  0.0312
 7793W        W11993   4.645   1.977  11.860 -0.2548  0.2649 -0.1392
 7794W        W11994   1.826   6.136   9.353  0.2149 -0.2837  0.1238
 7795W        W11995  10.381   5.551  10.495 -0.0229 -0.0165 -0.1559
 7796W        W11996   4.948   7.605   1.773 -0.1102  0.1769  0.1626
 7797W        W11997   8.759   2.242  10.719  0.1718 -0.2151 -0.0379
 7798W        W11998   3.754   5.797  13.213 -0.2376  0.2018  0.2331
 7799W        W11999   1.179   4.456  12.359  0.1924  0.5120 -0.0852
 7800W        W12000   9.796   0.068  10.395 -0.0071 -0.4838  0.0474
 7801W        W12001   2.542   8.304   9.029  0.0376  0.2427 -0.1050
 7802W        W12002   0.553   4.369   4.516  0.1690  0.0078  0.2248
 7803W        W12003   9.176   3.561   0.204  0.1771 -0.1133  0.2645
 7804W        W12004   3.582  10.204   9.844  0.0345  0.2154 -0.0402
 7805W        W12005   7.761   3.456  11.976 -0.1191 -0.0216  0.0380
 7806W        W12006   0.271   9.993  11.144 -0.1980 -0.4114  0.0362
 7807W        W12007  10.043   7.058   5.290  0.0884 -0.3379 -0.1359
 7808W        W12008   8.159   6.708   0.406 -0.0495  0.0646 -0.3499
 7809W        W12009   8.276  10.268   2.416  0.0172  0.2143  0.2137
 7810W        W12010   3.357   2.059   9.411  0.0068 -0.1127  0.0405
 7811W        W12011   3.105   7.545   2.206  0.0648  0.0200 -0.0294
 7812W        W12012   7.592   8.802   3.505 -0.0046 -0.0127 -0.2812
 7813W        W12013   5.815   9.319   9.422 -0.2036  0.1114  0.1296
 7814W        W12014   1.568   6.686   3.770  0.0934  0.0085 -0.1389
 7815W        W12015   8.756   6.964   3.774 -0.3011 -0.1242  0.1324
 7816W        W12016   9.974   6.235   9.681  0.4678  0.0638 -0.3273
 7817W        W12017   1.918   8.841   9.623  0.3019  0.1240  0.1316
 7818W        W12018   6.857   0.819   1.659  0.0499 -0.2561 -0.4820
 7819W        W12019   9.222   9.613   9.823 -0.2891  0.1784  0.2525
 7820W        W12020   0.630   5.104  10.089 -0.3016  0.2143  0.0995
 7821W        W12021  10.180  10.212  12.322  0.4269  0.1953  0.2647
 7822W        W12022   0.607   0.285  13.242  0.1976 -0.0484 -0.0138
 7823W        W12023   9.230   5.503   0.562 -0.1488  0.3821  0.1141
 7824W        W12024   9.204   8.869  13.156  0.2815  0.2611 -0.1215
 7825W        W12025   3.894   6.225   1.605 -0.1612 -0.2054 -0.1971
 7826W        W12026   1.220   6.106  13.089  0.0334 -0.1236 -0.1440
 7827W        W12027   3.791   6.456   8.359 -0.2864 -0.3246 -0.0835
 7828W        W12028   9.296   4.916   1.250  0.0413  0.1678 -0.2752
 7829W        W12029   1.887   6.993   1.221  0.3766  0.1874 -0.2707
 7830W        W12030   9.944   9.500   3.988 -0.1336  0.0013 -0.0626
 7831W        W12031   4.097   8.828  11.148 -0.5261 -0.0071  0.0466
 7832W        W12032   7.880   2.082   1.353  0.1857  0.1247 -0.1273
 7833W        W12033   5.142   4.290   0.071  0.0481  0.0743  0.1101
 7834W        W12034   8.015   7.147  12.766  0.1071  0.1405  0.3002
 7835W        W12035   9.877   7.311   1.067  0.0583  0.2208  0.1914
 7836W        W12036   2.905   8.861   3.055  0.0044 -0.0139  0.2816
 7837W        W12037   4.074   1.523   9.423 -0.0369  0.0265 -0.0170
 7838W        W12038   0.113   8.453  10.765  0.1164 -0.1148 -0.2356
 7839W        W12039   1.207   2.025   2.656 -0.0066 -0.3077  0.1112
 7840W        W12040   2.081   1.671   0.785 -0.1236 -0.3552  0.2196
 7841W        W12041   7.911   8.179   0.453 -0.1621 -0.0942  0.0945
 7842W        W12042   9.912   0.269   1.044 -0.0312  0.2166  0.1975
 7843W        W12043   7.996   0.397   9.842 -0.0161  0.0959 -0.0584
 7844W        W12044   3.532   1.799  12.532  0.2514 -0.1587 -0.1903
 7845W        W12045   2.745   5.117  10.860  0.3048 -0.1697 -0.1106
 7846W        W12046   5.782   2.630  10.516  0.2436  0.0510  0.0561
 7847W        W12047   2.151   8.159   3.195  0.0733  0.1801  0.0707
 7848W        W12048   3.994   5.368   1.274 -0.0123 -0.1304 -0.1200
 7849W        W12049   5.128   6.681  10.316 -0.0915  0.0519 -0.0251
 7850W        W12050  10.041   4.104  10.392 -0.2077 -0.0104 -0.2938
 7851W        W12051   3.359   8.026   0.771  0.0230 -0.2265  0.0266
 7852W        W12052   0.998   3.489   0.684  0.1895 -0.1791 -0.0732
 7853W        W12053   4.599   2.893   3.174 -0.2373 -0.0146  0.2567
 7854W        W12054   5.859   7.786   9.217 -0.0581 -0.2530 -0.0554
 7855W        W12055  10.256   0.226  12.107  0.1442 -0.1190 -0.1444
 7856W        W12056   9.190   3.682  11.449  0.1614 -0.0530  0.0265
 7857W        W12057   9.004   5.075   0.390  0.1672  0.0427  0.0068
 7858W        W12058   6.043   1.747  12.903  0.0270  0.0053 -0.0321
 7859W        W12059   3.222   1.836   8.970  0.1328  0.0543 -0.0741
 7860W        W12060   6.363   2.672  12.872 -0.2936  0.0194 -0.0775
 7861W        W12061   2.708   3.500  13.191  0.2794 -0.1200  0.0863
 7862W        W12062   5.385   5.887   0.739 -0.1349 -0.1901  0.0276
 7863W        W12063   2.356   4.795  10.414  0.1990 -0.3576 -0.0255
 7864W        W12064   6.735   9.538   4.300  0.2881  0.0918 -0.1007
 7865W        W12065   0.308   0.046  11.124 -0.0971  0.0154 -0.4137
 7866W        W12066   0.938   0.927  11.168  0.0083  0.4532  0.0121
 7867W        W12067   1.893   7.746   2.982  0.1301  0.2255  0.0659
 7868W        W12068   4.908   4.103   0.585 -0.0001 -0.1119 -0.3394
 7869W        W12069   3.905  10.397   8.765  0.2287  0.1346 -0.1821
 7870W        W12070   1.453   1.099   3.391  0.1455 -0.1469 -0.1882
 7871W        W12071   0.685   1.104   1.487 -0.2026  0.0857  0.1092
 7872W        W12072   3.102   7.191   0.232  0.3422  0.1199 -0.0715
 7873W        W12073   9.530   3.904   0.223  0.0483  0.0291  0.0626
 7874W        W12074   5.859   2.980  10.179  0.0524 -0.4473 -0.2208
 7875W        W12075   1.857   5.641   8.845  0.2485  0.4322 -0.4197
 7876W        W12076   6.960   2.683   2.015  0.2029 -0.1907 -0.0154
 7877W        W12077   6.185   6.823  13.179  0.0716 -0.3479  0.0366
 7878W        W12078   7.627   0.063   8.644 -0.0714 -0.1872  0.0870
 7879W        W12079   8.501   1.293   9.477 -0.1700  0.3410  0.4441
 7880W        W12080   2.589   0.563  11.434  0.0091 -0.0694 -0.1019
 7881W        W12081   1.852   7.729  12.236  0.0733  0.1108  0.1626
 7882W        W12082   5.016   7.982   9.850  0.0429  0.1904 -0.0612
 7883W        W12083   4.541   9.276   4.718 -0.1133  0.1673  0.0272
 7884W        W12084   9.949   5.980   3.026 -0.0156  0.1059  0.1078
 7885W        W12085   1.693   4.568  12.367  0.0417  0.0057  0.2534
 7886W        W12086  10.272   6.912   1.073  0.0347 -0.0490 -0.0143
 7887W        W12087   8.108   0.964  13.009  0.0335  0.4211  0.1627
 7888W        W12088   2.702   9.692   2.737 -0.2547  0.0137  0.0250
 7889W        W12089   6.217   8.139   9.808  0.1401 -0.0869 -0.2459
 7890W        W12090   2.767   9.402  11.614  0.1487  0.1863  0.3603
 7891W        W12091   5.693   9.999   2.644  0.0340  0.0420  0.1832
 7892W        W12092   6.778   7.708   4.271 -0.0566  0.1685 -0.0692
 7893W        W12093   0.403   6.849  13.324  0.0582  0.1452  0.1707
 7894W        W12094   3.202   7.900   1.746 -0.0506 -0.0341 -0.1557
 7895W        W12095   0.127   7.197  11.855  0.3244 -0.0950  0.2534
 7896W        W12096   5.410   9.197   0.788  0.2063 -0.0597 -0.0103
 7897W        W12097   4.302   6.550  12.630  0.2672  0.0686 -0.2029
 7898W        W12098   5.061   3.889   4.766  0.2869  0.4065  0.1070
 7899W        W12099   2.099   9.498  13.305 -0.0088 -0.1654 -0.1243
 7900W        W12100   7.676  10.098   0.678 -0.0341  0.0986  0.1789
 7901W        W12101   9.324   7.551   3.611  0.2416 -0.0008  0.1071
 7902W        W12102   1.411   8.136   9.823 -0.1315 -0.0114 -0.2306
 7903W        W12103   9.353   4.594  12.643 -0.0393  0.0795  0.1718
 7904W        W12104  10.328   4.091   1.035  0.0089 -0.1381  0.1978
 7905W        W12105   1.749   1.759   1.960  0.1626  0.1208 -0.3447
 7906W        W12106   1.801   9.148   3.723 -0.0557  0.0269 -0.0879
 7907W        W12107   3.832   7.762   4.441 -0.0663  0.0606  0.0223
 7908W        W12108   8.517   8.195   5.376  0.1332 -0.3224  0.1560
 7909W        W12109   9.673   7.503  11.699 -0.1832 -0.0506 -0.0268
 7910W        W12110   0.697   5.204  13.159 -0.0697  0.1525 -0.0005
 7911W        W12111   6.648   7.530   0.419  0.5185 -0.1023 -0.0828
 7912W        W12112   1.756   1.088  10.366  0.2077  0.1988  0.0091
 7913W        W12113   5.118   2.529   0.915 -0.2358  0.1893 -0.2208
 7914W        W12114   1.352   2.029  10.577  0.0854  0.0691 -0.0373
 7915W        W12115   2.998   0.793   0.190 -0.0212  0.1565  0.0516
 7916W        W12116   0.136   9.724  13.200  0.2062 -0.0109 -0.1333
 7917W        W12117  10.388   8.764   4.207 -0.1896 -0.0166  0.0640
 7918W        W12118   9.070   6.038   4.987  0.2463  0.1379  0.1855
 7919W        W12119   4.429   0.365  11.324  0.1070  0.0064 -0.0625
 7920W        W12120   5.538   4.913  12.040 -0.1296 -0.4094 -0.2386
 7921W        W12121   6.739   3.115   0.236  0.3993 -0.1514  0.0771
 7922W        W12122   4.253   9.098  10.740 -0.0987  0.0268  0.0675
 7923W        W12123   5.932   8.612   3.135  0.0463  0.1965 -0.0440
 7924W        W12124   8.053   6.157   0.700  0.0968  0.1431  0.0314
 7925W        W12125   6.526   8.677  11.998 -0.0543 -0.4286  0.2435
 7926W        W12126  10.225   4.581   0.785  0.1040 -0.1403  0.2805
 7927W        W12127   5.969   3.944  11.816 -0.0221  0.1752  0.2107
 7928W        W12128   3.963   6.683   3.950  0.2085 -0.0846 -0.0491
 7929W        W12129   7.403   7.935  12.073 -0.0936 -0.3061  0.1693
 7930W        W12130   0.696   1.786   2.795  0.0195 -0.3540 -0.1319
 7931W        W12131   1.571   7.905   1.232 -0.0387 -0.2031  0.2178
 7932W        W12132   6.817   8.934  10.652 -0.1112 -0.1832  0.0719
 7933W        W12133   0.344   3.538  10.880 -0.0420  0.1269  0.1850
 7934W        W12134   1.713   2.792   2.907  0.0366  0.1829 -0.0382
 7935W        W12135   5.229   2.611   1.473 -0.0491  0.2116  0.1182
 7936W        W12136   2.555   0.648   4.571 -0.0719 -0.2281 -0.0020
 7937W        W12137   6.625   8.507   0.232  0.1205 -0.0608 -0.1198
 7938W        W12138   4.599   7.846  12.884 -0.0546  0.1585 -0.0583
 7939W        W12139   4.028   5.588  12.048  0.1017  0.3788  0.0571
 7940W        W12140  10.219   1.554   2.909  0.2021  0.1333 -0.2920
 7941W        W12141   8.832   0.391   2.985  0.0468  0.1919 -0.2037
 7942W        W12142   1.803   1.837  10.480  0.4402 -0.2987  0.1058
 7943W        W12143   2.970   8.804   9.087  0.0292  0.0442  0.3277
 7944W        W12144   1.275   9.355   2.988  0.2736  0.3528  0.2082
 7945W        W12145   1.007   2.419   2.344 -0.1471  0.0806 -0.0895
 7946W        W12146   2.166   7.456  10.540 -0.2020 -0.1415 -0.2597
 7947W        W12147   6.518   8.478   1.849 -0.1000  0.0449  0.0704
 7948W        W12148   2.760   9.406   3.110  0.0479 -0.2178 -0.1550
 7949W        W12149   6.124   5.250   2.175 -0.0984  0.3027  0.1070
 7950W        W12150   3.873   3.514  12.332  0.4574  0.2406  0.1143
 7951W        W12151   4.120   4.834   9.647  0.1208  0.0039 -0.0806
 7952W        W12152   5.020   9.379   0.483  0.0446 -0.1861  0.1403
 7953W        W12153   7.132   0.174   9.978 -0.0458  0.0276  0.1084
 7954W        W12154   0.561   1.929   4.229  0.2366 -0.0958 -0.2461
 7955W        W12155   7.692   7.780   4.767  0.2778  0.2908  0.2593
 7956W        W12156   6.324   9.374   2.172  0.0313 -0.0764  0.0292
 7957W        W12157   6.598   0.828   1.033 -0.2714  0.0193 -0.1084
 7958W        W12158   2.268   9.710  11.848  0.1941  0.0066 -0.0270
 7959W        W12159   2.263   6.565   0.518 -0.0895  0.1430  0.2195
 7960W        W12160   7.857   0.488  11.537 -0.0638  0.1538  0.3593
 7961W        W12161   0.399   5.371  12.257  0.1803  0.1337  0.0404
 7962W        W12162   4.790   1.610  12.651  0.1058 -0.4116 -0.0338
 7963W        W12163   2.792  10.167   2.673  0.2005  0.0823 -0.1118
 7964W        W12164   5.571   5.451  10.169 -0.0922  0.1354 -0.0042
 7965W        W12165   1.552   5.415   0.227  0.0604  0.1241  0.0019
 7966W        W12166   6.755   3.437  11.369 -0.0425 -0.2125  0.1085
 7967W        W12167   2.547   2.174   3.832 -0.2545 -0.1320  0.0765
 7968W        W12168   8.903   0.705   1.435 -0.0406  0.0548  0.2410
 7969W        W12169  10.071   5.859  13.091  0.1054 -0.0918 -0.1027
 7970W        W12170   1.288   2.144  12.305  0.2785  0.0770  0.1197
 7971W        W12171   3.500   1.365   0.248  0.3406 -0.1417  0.0214
 7972W        W12172   3.534   3.142  11.909 -0.1379 -0.0677 -0.2123
 7973W        W12173   7.116   0.206   0.803 -0.1613 -0.0440  0.0236
 7974W        W12174   6.234   5.429   0.946 -0.0829 -0.0624 -0.2293
 7975W        W12175   9.399  10.091   2.982  0.1476  0.1919 -0.0156
 7976W        W12176  10.486   8.756   3.317 -0.1755 -0.1601 -0.0765
 7977W        W12177   8.377   8.723  10.775  0.1984  0.1307 -0.0566
 7978W        W12178   7.314   0.762  12.669  0.3768 -0.1007 -0.0029
 7979W        W12179   0.104  10.373   3.829  0.2234 -0.1246  0.3253
 7980W        W12180   6.408   6.473   1.332 -0.2053 -0.0429  0.3292
 7981W        W12181   3.960  10.110   1.897 -0.0939 -0.2185  0.2278
 7982W        W12182   3.880   9.851  10.682  0.0168 -0.0021 -0.1611
 7983W        W12183   0.735   8.858   2.417  0.1255  0.0642 -0.2016
 7984W        W12184   4.949   2.785  11.850 -0.2964  0.0558 -0.1318
 7985W        W12185   5.524   3.787   1.931  0.0347 -0.1456 -0.1091
 7986W        W12186   0.249   0.488   0.352  0.1843  0.0599  0.1827
 7987W        W12187   5.485   8.349   0.602  0.3128 -0.1199 -0.1434
 7988W        W12188   7.223  10.430   5.330  0.0236 -0.0218 -0.1558
 7989W        W12189   9.988   5.069  12.281 -0.1025  0.1636  0.1921
 7990W        W12190  10.331   7.508   0.248 -0.3611 -0.1383  0.0656
 7991W        W12191   1.556   4.706   2.648 -0.2182  0.1202 -0.2061
 7992W        W12192   8.034   9.017   3.268 -0.1062  0.3966 -0.0103
 7993W        W12193   4.577   5.578   4.741 -0.0111  0.3188  0.1270
 7994W        W12194   6.619   9.060   3.596  0.1295 -0.1609 -0.1205
 7995W        W12195   6.542   2.164   2.508  0.3133 -0.3513 -0.2327
 7996W        W12196   6.859   6.781   4.233 -0.1908 -0.2955  0.0189
 7997W        W12197   6.524   3.655   4.958  0.3601 -0.0945 -0.3315
 7998W        W12198   7.437   3.043   2.777  0.1124  0.1621 -0.1617
 7999W        W12199   5.393   1.123  13.223  0.2354  0.1539 -0.1834
 8000W        W12200   2.359   1.038  11.448  0.1477  0.0179  0.0379
 8001W        W12201   9.177   2.821   3.558  0.0371 -0.0849 -0.0056
 8002W        W12202   9.581   8.520   2.428 -0.0129 -0.1286  0.0448
 8003W        W12203   9.231   9.574   2.894  0.0918 -0.2459  0.1682
 8004W        W12204  10.418   5.117   0.811 -0.1432  0.3951  0.1014
 8005W        W12205  10.106   1.004  12.550 -0.1891 -0.1750 -0.1631
 8006W        W12206   1.586   4.809   3.552 -0.1151 -0.0683 -0.1403
 8007W        W12207   3.326   9.584  10.612 -0.1200  0.1324  0.1231
 8008W        W12208   6.008   2.086   1.317  0.0120  0.1274 -0.0019
 8009W        W12209   9.698   9.415   3.142 -0.0086  0.1736 -0.2690
 8010W        W12210   3.793   1.262  10.974  0.0837 -0.0578  0.1683
 8011W        W12211   5.435   3.756   3.597 -0.4725 -0.1819 -0.1828
 8012W        W12212   6.890   6.712  11.160 -0.1438 -0.1719 -0.0553
 8013W        W12213   4.712   2.497   5.158 -0.3038 -0.2007 -0.1569
 8014W        W12214   6.040   1.703   2.679 -0.1863  0.3627  0.1232
 8015W        W12215   8.333   8.867  11.250 -0.2820  0.1925  0.0642
 8016W        W12216   6.314   7.638   4.553 -0.2284  0.0620  0.0082
 8017W        W12217   0.514   8.919   8.920 -0.0281  0.0160  0.1689
 8018W        W12218   2.506   8.896   8.857  0.0480  0.2655  0.0168
 8019W        W12219   3.190   8.476   2.215  0.1767  0.1447  0.0223
 8020W        W12220   0.992   7.816   4.404  0.0027  0.1289 -0.4371
 8021W        W12221   3.554   6.738   2.486  0.0235 -0.4047 -0.0889
 8022W        W12222   2.453   9.243   4.078  0.1684 -0.0592 -0.5763
 8023W        W12223   7.166   9.825   3.882  0.1946 -0.0719  0.0756
 8024W        W12224   4.052   9.154   1.879  0.0556 -0.3570 -0.0964
 8025W        W12225   7.891   9.420  10.798  0.2313  0.1899 -0.2270
 8026W        W12226   1.656   9.180  12.563 -0.1798  0.0920 -0.3905
 8027W        W12227   0.078   8.973   9.902 -0.1809 -0.1110 -0.0025
 8028W        W12228   6.046   8.529   1.656 -0.0895 -0.1328  0.1336
 8029W        W12229   0.295   9.551  12.272 -0.0233  0.0500 -0.1063
 8030W        W12230   2.752   0.691   1.597  0.3925  0.0170  0.0549
 8031W        W12231   6.090   8.933   3.573 -0.0267  0.2747  0.0408
 8032W        W12232   9.848   0.018  12.495 -0.1057  0.1912 -0.1642
 8033W        W12233   8.535   1.577   0.367  0.0083  0.1977 -0.2205
 8034W        W12234   9.015   1.010   2.430  0.2208  0.1150 -0.1559
 8035W        W12235   7.453   7.496   2.700  0.1007 -0.2999  0.1043
 8036W        W12236   6.668   2.595   4.686  0.3093  0.0287  0.1665
 8037W        W12237   3.045   8.333   8.918  0.2120 -0.0132 -0.2473
 8038W        W12238   7.182   8.759   9.171  0.0562 -0.0032 -0.0670
 8039W        W12239   2.817   2.397   9.097  0.3282 -0.0243 -0.1301
 8040W        W12240   8.731   7.397   5.175  0.2539 -0.1405 -0.2500
 8041W        W12241   3.408   7.787   8.311 -0.0184 -0.1628  0.4297
 8042W        W12242   6.142   3.247  12.696 -0.3521 -0.2252  0.3380
 8043W        W12243   4.328   8.738   9.033  0.1471  0.0300  0.2508
 8044W        W12244   9.852   6.423   2.387  0.2429 -0.0976 -0.1456
 8045W        W12245   6.557   3.992  12.849 -0.0196  0.2722 -0.1306
 8046W        W12246   7.889   9.171   0.941 -0.1057 -0.1507 -0.0519
 8047W        W12247   8.243   5.977   9.318 -0.1996 -0.0566  0.1747
 8048W        W12248  10.304   8.645  11.257  0.1881  0.3229  0.1295
 8049W        W12249   9.704   3.106  11.894  0.3776 -0.1023 -0.0072
 8050W        W12250   4.632   4.996   1.158  0.1551  0.3425  0.1632
 8051W        W12251   6.226  10.220   1.734  0.2634 -0.0499 -0.0425
 8052W        W12252   3.502  10.297   1.157  0.0718 -0.4556  0.3186
 8053W        W12253   2.464   2.049   9.278  0.1883 -0.3025  0.1648
 8054W        W12254   6.125   2.591  13.294  0.1692  0.2982  0.2078
 8055W        W12255   5.276   5.010   4.153  0.1207 -0.2186 -0.2030
 8056W        W12256   1.506   9.789  12.045 -0.1402  0.1900  0.1048
 8057W        W12257  10.301   0.852   2.583 -0.1585 -0.1935  0.0892
 8058W        W12258   1.941   3.486   9.012  0.1591 -0.0229 -0.0278
 8059W        W12259   8.119   1.517   0.063 -0.2457  0.0853 -0.1996
 8060W        W12260   1.111   6.264   8.890  0.0865 -0.0956  0.1455
 8061W        W12261   2.765   3.923   4.633  0.1918 -0.4510  0.1949
 8062W        W12262   7.573   4.447   3.689 -0.1140  0.3459 -0.3167
 8063W        W12263   9.530   2.778  13.024 -0.4115  0.2393 -0.2990
 8064W        W12264   7.234   2.116  13.167  0.2011  0.2194 -0.0345
 8065W        W12265   7.019   2.787  12.666  0.0081  0.2830  0.0644
 8066W        W12266   5.537   2.307  12.552  0.1493 -0.3877 -0.2884
 8067W        W12267   2.697   0.235  11.883  0.1869  0.4270  0.1104
 8068W        W12268   1.526   7.992  10.281 -0.0201  0.2074  0.2062
 8069W        W12269   6.343   5.759   4.226  0.3919 -0.2306  0.0046
 8070W        W12270   4.586   3.729  11.810 -0.1115  0.0242 -0.0593
 8071W        W12271   4.171   4.965   0.936  0.4831 -0.1408  0.2026
 8072W        W12272   8.516   9.245   3.245 -0.0483  0.0632  0.2131
 8073W        W12273   5.699   4.677   9.904 -0.1958  0.2755  0.1756
 8074W        W12274   9.886   9.681  11.007  0.2688 -0.0727 -0.1077
 8075W        W12275   9.539   5.105   0.856  0.1013  0.2714  0.2887
 8076W        W12276   3.943   6.369   0.447  0.0269 -0.2203  0.2615
 8077W        W12277   0.287   3.941   0.178 -0.0009  0.4613  0.0806
 8078W        W12278   6.445   8.322   1.378  0.1326 -0.0552  0.2885
 8079W        W12279   9.177   5.576   9.748 -0.0849 -0.0139 -0.1180
 8080W        W12280   4.597   2.217   1.946  0.0052 -0.0996  0.3098
 8081W        W12281   7.727   7.880   2.570 -0.0614  0.3826 -0.1206
 8082W        W12282   5.019   0.066  12.435  0.1729 -0.0408 -0.3015
 8083W        W12283   7.284   9.320   0.160 -0.0604  0.1566 -0.2489
 8084W        W12284   8.597   1.280   0.878 -0.0426 -0.1927  0.0104
 8085W        W12285   0.171   9.228   8.703  0.2343  0.1055  0.1377
 8086W        W12286   9.269   6.972  10.399 -0.0109 -0.0450 -0.0490
 8087W        W12287   0.833   9.464   9.701  0.0108  0.1028  0.1017
 8088W        W12288   7.267  10.280  10.637  0.1086  0.0749 -0.1392
 8089W        W12289   5.398   9.462  12.534 -0.1039 -0.0900 -0.0582
 8090W        W12290   4.939   3.819   1.140  0.0813  0.1617 -0.1300
 8091W        W12291   5.467   4.863   3.715  0.1272 -0.0737 -0.0102
 8092W        W12292   8.882   0.237  10.245 -0.1567  0.3942 -0.0267
 8093W        W12293   3.622   6.278   2.757  0.1634  0.3220  0.2802
 8094W        W12294   8.381   2.614   2.617  0.0450  0.0622 -0.0937
 8095W        W12295   1.569   2.003  11.411 -0.0902 -0.0788  0.0327
 8096W        W12296   1.087   6.875   2.484  0.1552  0.1211  0.1927
 8097W        W12297   5.405   4.517   4.072  0.2132  0.1891 -0.1635
 8098W        W12298   3.250   0.357   3.805  0.0151  0.4950 -0.3255
 8099W        W12299   3.015   1.265   0.423  0.0036  0.4690  0.1056
 8100W        W12300   1.343   4.177   2.177 -0.2308  0.0264 -0.4313
 8101W        W12301   6.495   3.623  12.561  0.1504 -0.3364  0.0259
 8102W        W12302   8.345   3.343  12.605 -0.5072 -0.0583 -0.1792
 8103W        W12303   2.331   0.065  12.220  0.0345  0.0349  0.0459
 8104W        W12304   7.206   5.651   3.935 -0.3147  0.1322 -0.1469
 8105W        W12305   9.429   3.181  10.402  0.0231  0.1421  0.4026
 8106W        W12306   6.601   2.640  13.346 -0.2234  0.0600  0.1464
 8107W        W12307   9.055  10.032   2.643 -0.0411  0.0973 -0.2350
 8108W        W12308   7.596   6.986  12.170  0.2938  0.5209 -0.0133
 8109W        W12309   8.868   6.625  10.490  0.1415  0.1467  0.0687
 8110W        W12310   0.969   5.563  12.893 -0.1917  0.0477  0.0447
 8111W        W12311   0.147   7.295   2.294 -0.0188  0.0792  0.1197
 8112W        W12312   0.006   5.121   1.841 -0.2494  0.2538  0.0539
 8113W        W12313   5.123   4.566  11.209  0.0823  0.0917 -0.1469
 8114W        W12314   0.218  10.365   1.514  0.1289  0.0213 -0.0149
 8115W        W12315   7.475   7.535  13.006  0.1109  0.1528 -0.0757
 8116W        W12316   7.001   9.120   9.443  0.2428  0.2264 -0.1683
 8117W        W12317   5.370   8.010   1.044 -0.0402  0.0292  0.4085
 8118W        W12318   7.087   3.478   0.226 -0.1282 -0.2758  0.1809
 8119W        W12319   7.391   4.876  12.904 -0.1713 -0.3686  0.1340
 8120W        W12320   3.314  10.337   2.679 -0.0295  0.0871  0.2574
 8121W        W12321   5.601   5.753   2.963 -0.3253 -0.1469 -0.1458
 8122W        W12322   6.811   2.267   1.758 -0.2074  0.0930 -0.1316
 8123W        W12323   2.157   4.979   2.555 -0.3050 -0.0138  0.3241
 8124W        W12324   0.477   6.743   3.980  0.3112  0.1797  0.0138
 8125W        W12325   5.502   6.315   1.404  0.0498  0.1050 -0.2261
 8126W        W12326   1.782   5.669  11.813 -0.0760  0.1332 -0.0256
 8127W        W12327   9.908   8.640   2.114  0.0979  0.0616  0.1453
 8128W        W12328   1.333   5.630   1.924  0.2428 -0.2441 -0.0000
 8129W        W12329   1.531  10.298  12.399 -0.2883 -0.2797 -0.0311
 8130W        W12330   9.546   5.192  10.349 -0.0202  0.0051  0.2171
 8131W        W12331   0.082  10.077   1.908 -0.1082 -0.3428 -0.2016
 8132W        W12332   1.814   2.496  10.562 -0.0526 -0.0707  0.0919
 8133W        W12333   3.402   7.663  13.400  0.0841  0.0819 -0.0417
 8134W        W12334   6.995   7.659  11.743  0.0479  0.5581 -0.0492
 8135W        W12335   4.217   3.781   3.857  0.0059 -0.0410  0.3892
 8136W        W12336   5.031   8.518   2.586 -0.0675 -0.0238  0.1033
 8137W        W12337   6.049   5.877   4.654  0.3157  0.0462  0.0292
 8138W        W12338   0.918   5.301  11.933 -0.2242 -0.4875  0.3798
 8139W        W12339   5.433   3.040   9.892 -0.2975 -0.4285 -0.0056
 8140W        W12340   4.600  10.034  10.976  0.0014 -0.0977 -0.0262
 8141W        W12341   5.742   6.536   0.115  0.0747 -0.1141 -0.0198
 8142W        W12342   1.989   6.851   9.857  0.2033  0.0416 -0.0634
 8143W        W12343   3.034   6.348   1.988 -0.0149  0.1859 -0.1259
 8144W        W12344   4.916   2.636   0.461  0.0556  0.2246  0.3439
 8145W        W12345   1.581   0.857   3.870  0.2891 -0.3114 -0.2325
 8146W        W12346   0.422   7.034   1.227  0.0321 -0.2498 -0.0660
 8147W        W12347   3.289   3.251   2.421  0.1359 -0.1496  0.0018
 8148W        W12348   0.843  10.441  12.228 -0.0481 -0.3323  0.1189
 8149W        W12349   3.175   1.379  10.321  0.2360  0.2059 -0.0216
 8150W        W12350   1.061   9.647  11.902 -0.1021  0.0111 -0.2622
 8151W        W12351   7.777   7.225   0.713  0.0273 -0.0683 -0.1345
 8152W        W12352   1.300   5.404   9.159 -0.1340 -0.2148  0.1488
 8153W        W12353   5.576   7.455  12.320 -0.1898  0.2001  0.0642
 8154W        W12354   5.643   9.969   3.154  0.0807 -0.1528  0.1653
 8155W        W12355   2.429   9.195   0.743 -0.0191 -0.0595 -0.3669
 8156W        W12356   2.474   9.065  11.922 -0.0889 -0.1704  0.0613
 8157W        W12357   8.449   8.676   9.830 -0.1451  0.0989 -0.2971
 8158W        W12358   9.874   6.027   0.312  0.0773 -0.0240  0.0049
 8159W        W12359   6.125   2.197  11.645 -0.0254 -0.0334  0.0855
 8160W        W12360   7.232  10.042   1.448 -0.1086  0.0336  0.2992
 8161W        W12361   2.832   3.864   1.888  0.0447  0.0338  0.0189
 8162W        W12362   2.340   7.792  10.912 -0.0745  0.2781  0.0165
 8163W        W12363   1.706   8.330   9.013 -0.3303 -0.2230 -0.0610
 8164W        W12364   3.234   0.389   0.769  0.1591 -0.4196  0.2232
 8165W        W12365   3.658   8.828   9.633  0.2304 -0.2195  0.0557
 8166W        W12366   0.190   7.095   0.392 -0.2121  0.1657 -0.1848
 8167W        W12367   5.173   2.408  12.944  0.2706  0.4192  0.2691
 8168W        W12368   7.370   9.936   2.858  0.5136 -0.1458 -0.2664
 8169W        W12369   0.664   4.207   3.619 -0.2286  0.0383  0.2089
 8170W        W12370   7.950   6.344  10.209 -0.1213 -0.2298  0.1161
 8171W        W12371   0.576   8.009   0.838  0.1646  0.0156  0.1647
 8172W        W12372   3.819   1.674  12.132 -0.1527 -0.2224 -0.4810
 8173W        W12373   7.307   3.269  11.193  0.0830 -0.0701  0.0833
 8174W        W12374   3.798   4.759  11.208  0.0491 -0.3061 -0.2982
 8175W        W12375   1.589   2.220  11.890  0.2066  0.1483 -0.1673
 8176W        W12376   8.607   3.745   0.149  0.1767  0.0102  0.3497
 8177W        W12377   6.573   6.384  10.900  0.3738 -0.0789  0.4872
 8178W        W12378   8.474   2.288  13.137 -0.3344  0.0248  0.0647
 8179W        W12379   1.152   9.002   1.423 -0.1384 -0.0685  0.0849
 8180W        W12380   1.397   7.626   1.677 -0.3295 -0.3015  0.1192
 8181W        W12381   3.498   2.567   3.701 -0.0404 -0.2014 -0.2772
 8182W        W12382   8.525   8.002  11.565 -0.0785  0.1200  0.4095
 8183W        W12383   0.044   0.352  10.783 -0.0181  0.2502 -0.0870
 8184W        W12384   1.144   2.223   3.081  0.0480  0.2365  0.0294
 8185W        W12385   2.074   7.354  11.604 -0.3189  0.1630 -0.2238
 8186W        W12386   7.598   9.126   4.446 -0.0595 -0.0815 -0.0851
 8187W        W12387   1.961   2.342   1.512 -0.1292  0.0223  0.0325
 8188W        W12388   8.600   8.273   4.344  0.1725  0.1980 -0.1828
 8189W        W12389   3.764   4.525   3.623  0.1977  0.2455 -0.1414
 8190W        W12390   8.278   2.061  10.447 -0.1009 -0.5416  0.0707
 8191W        W12391   0.957   2.699  11.315  0.2178  0.1883  0.1735
 8192W        W12392   7.736   5.061   0.028  0.0330  0.0961 -0.0448
 8193W        W12393   9.445   5.971   0.592 -0.1066  0.0577 -0.0425
 8194W        W12394   3.941   6.257   0.941  0.0579 -0.3162  0.0440
 8195W        W12395   6.218   3.167   5.008 -0.2465 -0.1503  0.2510
 8196W        W12396   3.100   1.269   4.130  0.0253 -0.1230 -0.0753
 8197W        W12397   2.300   1.827   0.121 -0.0186  0.0793  0.3057
 8198W        W12398   4.341   4.641  11.960  0.3118 -0.0847  0.0818
 8199W        W12399   0.573   3.690  12.405  0.0630 -0.1146  0.1363
 8200W        W12400   1.260   0.934  10.276 -0.0312  0.0299  0.0304
 8201W        W12401   3.691   8.785   0.270  0.1987  0.0219 -0.1352
 8202W        W12402   4.778   0.055   3.514  0.0294 -0.1081 -0.1695
 8203W        W12403   5.500   9.434   2.782  0.1434  0.2248  0.1869
 8204W        W12404   5.430   2.142   3.936  0.3088  0.1134 -0.0803
 8205W        W12405   7.233   3.444   9.817  0.0355  0.2806 -0.1524
 8206W        W12406   4.117   7.398  12.067 -0.1039  0.1625 -0.2679
 8207W        W12407   1.161   7.158   1.522 -0.3203 -0.1552 -0.0124
 8208W        W12408   3.863   9.811  10.004  0.2422  0.0186 -0.0538
 8209W        W12409   2.813   6.887  13.382 -0.2181  0.0904  0.0145
 8210W        W12410   5.947   5.097   9.996  0.0104  0.1212  0.1637
 8211W        W12411   7.326   3.170   1.398  0.1627 -0.3369  0.0870
 8212W        W12412   0.242   6.408   9.890  0.1723 -0.1783 -0.1160
 8213W        W12413   3.225   1.193   3.435  0.1159 -0.3417  0.1047
 8214W        W12414   3.884   1.451  12.618 -0.0761  0.0630  0.1159
 8215W        W12415   3.923   8.062   9.966  0.0533  0.0373 -0.3306
 8216W        W12416   8.447   5.422  10.436  0.0196 -0.1867 -0.3279
 8217W        W12417   6.474   7.779   2.743 -0.1656  0.2183  0.1602
 8218W        W12418   0.924  10.111   3.502  0.0911 -0.0748 -0.0827
 8219W        W12419   6.375   6.281   3.036  0.0404 -0.0303  0.1732
 8220W        W12420  10.453   7.466  10.081  0.1216  0.4327  0.1195
 8221W        W12421   6.257   1.173   3.697  0.2253 -0.2267  0.0279
 8222W        W12422   6.127   6.228  13.141 -0.0474 -0.4100  0.0854
 8223W        W12423   6.249   8.181   2.975  0.0035  0.0804  0.2940
 8224W        W12424   7.961  10.296  10.252  0.0759  0.0723 -0.1068
 8225W        W12425   0.448   4.090  10.230  0.1139  0.0500 -0.0335
 8226W        W12426   6.503   5.982  11.149  0.2559  0.1135  0.1018
 8227W        W12427   7.747   9.755   2.288 -0.5009 -0.0701 -0.1656
 8228W        W12428   0.698  10.112   1.651 -0.0750 -0.1219  0.0741
 8229W        W12429   6.159   3.160   2.493 -0.0435 -0.0763  0.1899
 8230W        W12430   5.751   2.934   5.012 -0.1033 -0.1702  0.4706
 8231W        W12431   4.120  10.412   1.184 -0.0635 -0.1719  0.1122
 8232W        W12432   2.087  10.462   3.085  0.0765 -0.1162  0.1017
 8233W        W12433   1.527   0.559  12.481  0.0223 -0.3249 -0.0314
 8234W        W12434   8.656   3.686   2.635 -0.0439 -0.0728  0.1157
 8235W        W12435   9.760   4.666  10.346  0.0100 -0.0715  0.0681
 8236W        W12436   6.726   1.928   2.077  0.1698  0.0042  0.1138
 8237W        W12437   6.655   6.442   2.574  0.1349  0.3634  0.0571
 8238W        W12438   3.978   3.450   5.278 -0.0776 -0.0393 -0.1981
 8239W        W12439   9.107   1.545  11.369 -0.0635  0.0062 -0.1704
 8240W        W12440   0.563   9.061  12.642  0.0499 -0.0292  0.0960
 8241W        W12441   5.841   7.125   2.543 -0.2027  0.1363 -0.0574
 8242W        W12442   8.217   4.726   0.690 -0.1004  0.0181  0.0324
 8243W        W12443   5.925   1.326   4.084  0.3078 -0.1673  0.0026
 8244W        W12444   9.317   0.526  10.205 -0.0764  0.1619  0.0359
 8245W        W12445   0.362   3.838  13.033  0.1688 -0.1144  0.0327
 8246W        W12446   1.678   0.786   0.185  0.3961  0.0964  0.0048
 8247W        W12447   4.462   3.661   1.637  0.2718 -0.1485  0.4473
 8248W        W12448   8.797   9.323   0.503  0.2470 -0.3522  0.1937
 8249W        W12449   5.784   6.014  12.237 -0.1644 -0.0043 -0.2373
 8250W        W12450   2.199   8.574  11.893 -0.1570 -0.0080 -0.2820
 8251W        W12451   8.417   2.278   0.229 -0.0902 -0.0193  0.0643
 8252W        W12452   9.602   6.054   1.962  0.0457  0.3229 -0.1381
 8253W        W12453   1.346  10.304  13.329 -0.2326 -0.4072  0.2354
 8254W        W12454   5.542   5.086   0.899 -0.0812  0.0448  0.0798
 8255W        W12455   6.655   2.978   4.267  0.1295 -0.3458 -0.2715
 8256W        W12456   1.444   7.763   3.818  0.0172 -0.2655 -0.0633
 8257W        W12457   0.236   7.631   1.910  0.0389 -0.1295  0.1233
 8258W        W12458   7.085   9.920   3.282  0.0800  0.3608  0.1803
 8259W        W12459   2.650   6.727  12.722  0.5023  0.0423 -0.2444
 8260W        W12460   8.006   2.479   1.753  0.1987  0.2280 -0.1325
 8261W        W12461   8.818   8.451   3.586 -0.2910 -0.0957 -0.0526
 8262W        W12462   3.313   0.091  11.006  0.0674 -0.0211 -0.1934
 8263W        W12463   8.551   7.009   1.730 -0.2764  0.0281 -0.1559
 8264W        W12464   7.194   0.051   9.491 -0.1540  0.3351 -0.2065
 8265W        W12465   5.366   0.640  11.657 -0.0606  0.2095  0.1345
 8266W        W12466   3.956   0.197   9.849 -0.1309  0.0208  0.2169
 8267W        W12467   2.553   0.036   0.449 -0.1686  0.1115 -0.1207
 8268W        W12468   2.345   3.795   9.176  0.1786 -0.1967  0.2218
 8269W        W12469   1.705  10.305  11.756  0.1425  0.0377  0.0722
 8270W        W12470   1.248   5.818   2.444 -0.2284  0.2506 -0.1095
 8271W        W12471   1.534   5.921   4.612  0.0632  0.0302 -0.2750
 8272W        W12472   1.785   6.981   2.279  0.1191  0.0592  0.2817
 8273W        W12473   9.238   9.839   0.710  0.1785  0.0656 -0.0118
 8274W        W12474   1.500   5.226   0.723 -0.3177  0.4415 -0.0863
 8275W        W12475   9.229   8.737   3.831  0.0761 -0.2592  0.1875
 8276W        W12476   6.963   1.009   3.241 -0.0914 -0.1065  0.2094
 8277W        W12477   3.442   5.776  11.404 -0.0523  0.1353  0.0752
 8278W        W12478   7.115   1.012   1.190 -0.0877  0.0279 -0.0401
 8279W        W12479   1.467   3.606   3.996 -0.2883 -0.2750 -0.1343
 8280W        W12480   8.767  10.141   1.682  0.2499 -0.1763 -0.0302
 8281W        W12481   3.680   6.226   9.223  0.1690 -0.0677 -0.0262
 8282W        W12482   3.678   6.499  10.234  0.0048  0.1406  0.2676
 8283W        W12483   7.868   4.028   3.773 -0.0682 -0.0855  0.1573
 8284W        W12484   5.650   0.795   2.840  0.0554  0.0811  0.3487
 8285W        W12485   9.349   0.087   3.831  0.4141  0.0319 -0.1005
 8286W        W12486   5.294   7.303  11.832 -0.0835  0.2855  0.1199
 8287W        W12487   3.428   8.498   1.492  0.1835 -0.3109 -0.1440
 8288W        W12488   5.359   1.623   4.861 -0.1309  0.0937 -0.0331
 8289W        W12489   8.591   0.579  12.196  0.1607  0.0426 -0.0911
 8290W        W12490  10.229   3.776  12.393  0.3283  0.3396  0.1417
 8291W        W12491   6.088   8.578   1.102 -0.0089 -0.0187 -0.1245
 8292W        W12492   0.130   6.488   9.062 -0.2164 -0.1877  0.2978
 8293W        W12493   3.204   8.835   4.018 -0.1477 -0.1913  0.0681
 8294W        W12494   4.726   2.133   8.544  0.2116 -0.0662 -0.3386
 8295W        W12495   0.191   5.383   2.856  0.1495 -0.3091 -0.0349
 8296W        W12496   1.200   5.304   1.517  0.0481  0.1336 -0.2192
 8297W        W12497   2.633   3.626   4.966  0.1382  0.2800 -0.2257
 8298W        W12498   6.390   1.936  11.244  0.1606  0.0697  0.0718
 8299W        W12499   4.298   8.302   9.255 -0.1868 -0.1734 -0.0319
 8300W        W12500   2.118   5.149   2.064  0.0973  0.2160 -0.1180
 8301W        W12501   9.485   4.351   3.491  0.3039  0.2082  0.3283
 8302W        W12502   2.523   0.586  12.219  0.0104  0.1664  0.3082
 8303W        W12503   1.188   6.684  11.896  0.0454  0.1684  0.1845
 8304W        W12504   4.019   0.190  10.412  0.4501 -0.1632  0.0754
 8305W        W12505   9.951   2.442   1.773 -0.0088 -0.1084  0.1061
 8306W        W12506   5.477   3.352   0.126  0.0811  0.2762 -0.0361
 8307W        W12507   2.924   7.490  13.245  0.0212  0.0470  0.0600
 8308W        W12508   9.883   5.486  10.659 -0.0329  0.0639 -0.0804
 8309W        W12509  10.409   2.607   1.639 -0.0455 -0.1268 -0.1535
 8310W        W12510   5.239   8.965  10.722 -0.1087  0.1493 -0.2436
 8311W        W12511   8.941   1.848   2.383 -0.1036  0.3635  0.0630
 8312W        W12512   6.528   5.365   1.336  0.0016 -0.0150  0.0633
 8313W        W12513   7.864  10.273   4.508 -0.1844  0.2663 -0.0765
 8314W        W12514   2.853   0.190  11.277 -0.1572 -0.0093 -0.1442
 8315W        W12515   9.146   7.072   0.017  0.0616 -0.0560  0.0867
 8316W        W12516   1.975   8.847   8.282 -0.1801  0.1222  0.3627
 8317W        W12517   7.410   4.705   4.100 -0.0184 -0.3090 -0.0029
 8318W        W12518   4.094   4.693   8.556 -0.1247  0.2375 -0.0089
 8319W        W12519   9.674   2.721   0.552 -0.3597  0.0800  0.3672
 8320W        W12520   8.286   2.638  12.850  0.1096 -0.0199  0.3010
 8321W        W12521   3.119   0.882   3.857 -0.0866 -0.0069  0.0449
 8322W        W12522   9.679   1.921  12.690 -0.2362 -0.0008 -0.0712
 8323W        W12523   7.119   8.526  10.661 -0.1678 -0.1770  0.1390
 8324W        W12524  10.102   1.948   2.109 -0.2211 -0.0043 -0.5520
 8325W        W12525   7.011   3.605   3.907  0.3145 -0.1465 -0.5241
 8326W        W12526   3.500   7.260  10.654 -0.0609 -0.4296  0.1389
 8327W        W12527   4.988   7.816  12.556 -0.0337 -0.2317 -0.4089
 8328W        W12528   4.412   2.081   1.482  0.1020  0.1123  0.0158
 8329W        W12529   3.015   3.142  12.764 -0.1715  0.0778  0.2349
 8330W        W12530   0.502   7.635   2.343 -0.2267 -0.1275 -0.3077
 8331W        W12531   4.210   4.606  11.484  0.2784 -0.1707 -0.0961
 8332W        W12532   7.932   4.234   3.227 -0.3564 -0.2638  0.2226
 8333W        W12533   3.046  10.255  12.024  0.1060 -0.1235 -0.0123
 8334W        W12534   3.056   8.862   2.570  0.0535 -0.0540 -0.2742
 8335W        W12535   7.913   8.887  10.949 -0.0229  0.1526 -0.1246
 8336W        W12536   8.628   0.747   4.119 -0.2118  0.1704 -0.1095
 8337W        W12537   6.452   7.677   9.949  0.0285 -0.0388  0.0650
 8338W        W12538   3.767  10.468   1.554 -0.2966 -0.1930 -0.2080
 8339W        W12539   7.209   7.307   2.244  0.0854  0.1667  0.1064
 8340W        W12540   0.859   8.731   8.528 -0.0632  0.1487  0.1870
 8341W        W12541   8.578   7.565  11.356  0.0506  0.2969  0.1392
 8342W        W12542   2.843   9.966  12.385  0.1194  0.3009  0.3396
 8343W        W12543   5.523   5.161   1.458 -0.0680  0.2262 -0.2177
 8344W        W12544   9.617   8.633   2.928  0.0817  0.1430  0.1746
 8345W        W12545   7.008   9.904   4.970 -0.1548  0.0607 -0.2110
 8346W        W12546   7.752   4.656   0.429  0.0715  0.3352  0.0709
 8347W        W12547   8.389   2.152   1.535 -0.2097  0.1497  0.0985
 8348W        W12548   0.423   5.373  10.782 -0.0289  0.0461  0.1900
 8349W        W12549   5.905   5.088   3.629  0.0478 -0.0980  0.1009
 8350W        W12550   3.681   6.422   3.528  0.1684 -0.0517  0.0909
 8351W        W12551   3.449   8.653  10.497  0.0305  0.0016  0.1436
 8352W        W12552   7.778   1.828  10.256  0.2130  0.0401  0.0295
 8353W        W12553   2.871   2.568  13.319 -0.2018 -0.0727 -0.2193
 8354W        W12554   2.313   5.845  10.622 -0.0185  0.1294 -0.1335
 8355W        W12555   8.209   4.815   2.900  0.0461  0.1290  0.2329
 8356W        W12556   0.772   2.452   2.753 -0.0798  0.3959  0.0422
 8357W        W12557   2.604   2.948  13.042 -0.1175  0.0443 -0.0885
 8358W        W12558   7.217   6.845   3.873  0.0495  0.1277  0.2178
 8359W        W12559   3.378   5.364   3.809 -0.1016 -0.0818  0.2139
 8360W        W12560   0.257   8.970   1.107  0.2015 -0.1944  0.1627
 8361W        W12561   1.113   4.259   3.456  0.4198  0.0830  0.2508
 8362W        W12562   8.933   1.188   1.321 -0.2031  0.2253 -0.3205
 8363W        W12563   6.069   0.943   1.136  0.3328  0.0476  0.0157
 8364W        W12564   2.934   8.621   0.699  0.0316 -0.0937  0.1350
 8365W        W12565   8.313   5.394  12.670 -0.0644  0.1406  0.0632
 8366W        W12566   6.917   8.236   4.322  0.2980  0.1604 -0.1082
 8367W        W12567   0.018   6.607   0.238 -0.0195  0.0870  0.1501
 8368W        W12568   9.129   3.923   1.624  0.1029  0.0407 -0.3418
 8369W        W12569   9.385   9.600  10.857  0.0611 -0.1156 -0.1229
 8370W        W12570   2.656   1.399  12.199  0.2512  0.2023 -0.0391
 8371W        W12571   1.837   4.249   4.871  0.3433  0.0975  0.0801
 8372W        W12572   2.648   6.976   4.357 -0.0007 -0.0376 -0.3071
 8373W        W12573   1.269   4.261   0.410 -0.3202  0.0515  0.2276
 8374W        W12574   5.190   9.831   2.640 -0.2823  0.1791 -0.2430
 8375W        W12575   6.816   8.988  12.881 -0.1284 -0.4018 -0.0078
 8376W        W12576   3.883   0.725   8.411 -0.0886 -0.0743 -0.3684
 8377W        W12577   0.742   6.037  12.973 -0.1451 -0.1515 -0.2754
 8378W        W12578   9.253   8.490   3.277 -0.1380  0.1862 -0.1149
 8379W        W12579   3.341   1.599  11.999  0.0371 -0.1798 -0.0559
 8380W        W12580   5.205   7.199   3.346 -0.0565 -0.1706  0.1504
 8381W        W12581   4.975   2.242   2.315 -0.1525 -0.2542  0.0124
 8382W        W12582  10.136   5.503   0.992  0.0838 -0.1141 -0.0127
 8383W        W12583   5.734   6.600   1.030  0.2344 -0.1746 -0.0546
 8384W        W12584   6.566   5.484   2.573  0.2758 -0.0462 -0.0706
 8385W        W12585   2.249   3.535   3.270  0.0675 -0.3691 -0.1676
 8386W        W12586   6.267   8.608   9.632 -0.0064  0.1868  0.0251
 8387W        W12587   9.754   0.883   0.921 -0.0882 -0.2230  0.0411
 8388W        W12588   0.152   8.474   1.133  0.0674 -0.0030 -0.0490
 8389W        W12589   7.543   1.605  13.242  0.1791 -0.1267  0.1610
 8390W        W12590   3.735   2.746   1.074 -0.1748  0.2245  0.1727
 8391W        W12591   6.896   1.232  12.070 -0.1307  0.0757 -0.2168
 8392W        W12592   5.412   7.369   1.724 -0.0635 -0.0609 -0.2532
 8393W        W12593  10.355   8.515  10.218  0.0570 -0.0763  0.0034
 8394W        W12594   2.574   5.939  12.531 -0.4014 -0.2191  0.2852
 8395W        W12595   0.718   3.393   2.429 -0.0484  0.1427  0.4470
 8396W        W12596   3.275   4.417   8.998 -0.1877  0.0633  0.2493
 8397W        W12597   9.746   0.136   2.686  0.2768  0.1456 -0.2490
 8398W        W12598   1.238   1.754   3.791 -0.0699  0.1732 -0.0394
 8399W        W12599   9.190   6.212  10.925  0.0969 -0.1925  0.1150
 8400W        W12600   9.831   9.901  12.565  0.0561  0.1359  0.2823
 8401W        W12601   4.992   3.617   3.869 -0.1421  0.1832 -0.1067
 8402W        W12602   0.278   6.147  12.756  0.0234 -0.1666  0.2278
 8403W        W12603   0.332   9.652   1.061  0.0890 -0.0423  0.0131
 8404W        W12604   6.195  10.376   1.154  0.0789 -0.4777  0.1017
 8405W        W12605   7.965   6.321  12.461 -0.0741  0.0069 -0.1812
 8406W        W12606   4.410   6.928  11.861  0.0368  0.1871  0.0486
 8407W        W12607   1.803   5.145  11.647 -0.2732  0.3343  0.0239
 8408W        W12608   7.540   4.532   2.194  0.0052 -0.0511  0.0405
 8409W        W12609  10.196   7.859   9.009 -0.1050  0.1438 -0.0197
 8410W        W12610   9.940   2.506  12.934  0.4145 -0.0893  0.0373
 8411W        W12611   7.377   9.327  10.941 -0.3820  0.2553  0.0742
 8412W        W12612   5.363   1.794   9.537 -0.0427 -0.1277 -0.0773
 8413W        W12613   0.962   3.280   2.871 -0.3708  0.2905 -0.0512
 8414W        W12614   5.940   5.088   1.753  0.0980  0.0254  0.0403
 8415W        W12615   7.527   0.447  12.376 -0.0440  0.1742  0.3672
 8416W        W12616   3.145   1.687   0.925 -0.1586  0.3109 -0.3466
 8417W        W12617   6.591   4.175   2.115  0.0640  0.1361  0.3795
 8418W        W12618   9.854  10.462  11.365  0.2295 -0.2699  0.1777
 8419W        W12619   6.004   2.873  10.961  0.0569  0.3081 -0.1787
 8420W        W12620   4.421   6.734   9.882 -0.2139 -0.0348 -0.1279
 8421W        W12621   6.414   2.121  12.653  0.2267 -0.2042  0.1807
 8422W        W12622   9.677   8.724  12.573 -0.0214  0.0835  0.2182
 8423W        W12623   6.715   8.220  10.974 -0.0417 -0.2550 -0.0542
 8424W        W12624   8.088   0.075  10.642 -0.2534 -0.1875  0.1240
 8425W        W12625   0.551   0.013   0.276  0.0217 -0.4175  0.0513
 8426W        W12626   4.333  10.118   1.549 -0.1107 -0.1036  0.0860
 8427W        W12627  10.106   2.170  11.945  0.0192  0.0845  0.0294
 8428W        W12628   4.155   3.153  12.317 -0.2404  0.2263 -0.0397
 8429W        W12629   9.202  10.250   3.458  0.0247 -0.0482 -0.2906
 8430W        W12630   0.206   8.180   1.989  0.1892 -0.0345 -0.1024
 8431W        W12631   3.745   3.042  10.423  0.5231  0.0607  0.3233
 8432W        W12632   5.124   8.800   1.776  0.0373 -0.2852  0.0033
 8433W        W12633   3.216   0.615   1.726 -0.3161 -0.3144 -0.2692
 8434W        W12634   3.960   7.777  11.389  0.0822  0.2524 -0.0219
 8435W        W12635   3.891   2.191   1.175  0.3542 -0.0917  0.0701
 8436W        W12636   5.118   1.367   1.468  0.2123 -0.0542  0.1029
 8437W        W12637   5.673   6.392   3.610 -0.0150  0.0055 -0.2720
 8438W        W12638   3.217   9.792  12.749  0.1195 -0.0595  0.4202
 8439W        W12639   4.309   3.347   8.117 -0.2218 -0.0154  0.2877
 8440W        W12640   7.123   0.429   0.352 -0.2158  0.0670 -0.0589
 8441W        W12641   4.198   8.651   1.493  0.1395 -0.2945 -0.3710
 8442W        W12642   7.453   7.872   3.683  0.2230  0.1155  0.0600
 8443W        W12643   2.210   5.685   9.210  0.1891  0.0652  0.1386
 8444W        W12644   1.636   8.858   9.054 -0.4396  0.0607  0.2642
 8445W        W12645   6.301   9.021   9.349  0.3853 -0.0513  0.1533
 8446W        W12646   7.284   0.467   1.820 -0.2627  0.2917  0.3289
 8447W        W12647   1.792   3.184   4.205  0.3003 -0.1344  0.1709
 8448W        W12648   4.210   6.195   4.110 -0.0676 -0.0006  0.1706
 8449W        W12649   6.967   2.436   0.970  0.4427 -0.0608  0.1746
 8450W        W12650   2.661   0.301   9.005  0.1215 -0.0461 -0.3264
 8451W        W12651   9.553   0.937  11.021  0.0513  0.0452 -0.0410
 8452W        W12652   8.916   6.628   0.331  0.2342 -0.0097  0.1899
 8453W        W12653   5.199   5.656   3.367  0.0851  0.0659  0.1847
 8454W        W12654   5.214   5.108   2.579  0.0235  0.0018  0.2041
 8455W        W12655   0.493   9.430  10.106  0.0362  0.1667 -0.0877
 8456W        W12656   5.257   0.891   1.206  0.4840  0.1634  0.1217
 8457W        W12657   9.153   4.429   1.118  0.2153  0.2947  0.2101
 8458W        W12658   5.797   2.250  12.121  0.0269 -0.0496 -0.1428
 8459W        W12659   6.647   5.788   9.930 -0.1023  0.0596  0.0820
 8460W        W12660   3.121   7.338   8.130  0.5455 -0.0632  0.1586
 8461W        W12661   4.110   6.388   9.695 -0.0050 -0.2901  0.0020
 8462W        W12662   1.288   7.661  12.480  0.0168 -0.3142 -0.2248
 8463W        W12663   0.236   8.465   3.014  0.4065 -0.0772  0.1371
 8464W        W12664   8.322   3.112  13.132 -0.0849  0.0821 -0.1198
 8465W        W12665   6.304   1.202  12.945 -0.1300 -0.1016 -0.1106
 8466W        W12666   0.933   1.983   9.820 -0.0847 -0.1306 -0.0016
 8467W        W12667   8.928   4.553  10.578  0.0772  0.1553  0.3070
 8468W        W12668   2.893   1.908  12.195 -0.1004  0.1254  0.1397
 8469W        W12669   3.727   7.565  12.903  0.0128 -0.0840 -0.0186
 8470W        W12670   4.567   6.106   2.987  0.0575 -0.0105 -0.0214
 8471W        W12671   6.178   7.969  11.651 -0.0662  0.3722  0.2520
 8472W        W12672   4.052   5.012  13.142 -0.1762 -0.1426  0.2928
 8473W        W12673   1.201   6.483   3.354  0.3142  0.0474  0.0202
 8474W        W12674   6.080   7.755   0.606  0.2914 -0.1792 -0.0560
 8475W        W12675   9.077   5.378  10.213 -0.0147 -0.2471 -0.2992
 8476W        W12676   1.332   7.961  11.124 -0.0671  0.3261  0.1317
 8477W        W12677   4.094   9.598  12.490  0.0471  0.0010 -0.2128
 8478W        W12678   0.394   4.975   2.535  0.0124 -0.2291 -0.3942
 8479W        W12679   2.722   9.097  12.484 -0.1564  0.0098 -0.0353
 8480W        W12680   8.901   6.819  10.962  0.4624 -0.0214 -0.3005
 8481W        W12681   7.740   0.000  12.618 -0.1762 -0.1089 -0.1085
 8482W        W12682   7.500   8.247   4.666  0.2669 -0.2351  0.0817
 8483W        W12683   3.504   8.002  11.652 -0.1897 -0.0034  0.1280
 8484W        W12684   1.920   3.347   0.891 -0.2132  0.2351  0.0332
 8485W        W12685   3.040   7.266  10.974 -0.2318 -0.2824 -0.1375
 8486W        W12686   5.705   1.573  12.533  0.0707  0.0864  0.0289
 8487W        W12687   3.233  10.209   5.278 -0.0030  0.0643  0.1928
 8488W        W12688   4.664  10.035   3.550 -0.0418 -0.3197  0.0499
 8489W        W12689   9.698   4.220   3.911 -0.2336 -0.1501 -0.0259
 8490W        W12690   0.998   1.051   2.290 -0.0187  0.0022  0.2557
 8491W        W12691   4.772   4.012   8.529 -0.0666 -0.1777 -0.1195
 8492W        W12692   7.365   8.278   4.165 -0.1583  0.1329  0.0979
 8493W        W12693   9.670   5.593   1.774 -0.3414 -0.0929 -0.1230
 8494W        W12694  10.044   7.400   9.271  0.0962  0.1340 -0.1840
 8495W        W12695   7.079   1.643  10.289 -0.1840 -0.1410 -0.3925
 8496W        W12696   5.421   9.021   4.302  0.0164 -0.3031  0.0088
 8497W        W12697   7.076   3.918   4.778  0.0508  0.4344 -0.0547
 8498W        W12698   3.087   4.450   0.062 -0.0166  0.1046  0.1404
 8499W        W12699   2.997   7.059   1.328  0.1373  0.0161 -0.0368
 8500W        W12700   3.672   7.311   4.096 -0.0776  0.1279 -0.1452
 8501W        W12701   8.359   6.994   9.903 -0.1055 -0.1819 -0.0646
 8502W        W12702   2.029   2.593   1.066  0.2653 -0.0608 -0.0136
 8503W        W12703   4.861   0.199   0.763 -0.2160 -0.0152  0.1947
 8504W        W12704   0.426   6.729   4.456 -0.1050  0.0244  0.1929
 8505W        W12705   3.570   5.254   1.560  0.2321  0.1234  0.1742
 8506W        W12706  10.036   4.475   1.286 -0.0137  0.0892 -0.0795
 8507W        W12707   3.569   6.036  12.231 -0.0177 -0.0363 -0.1985
 8508W        W12708   7.067   8.551  12.086  0.0142  0.2038  0.0563
 8509W        W12709   1.240   3.219  10.530 -0.0597  0.1572 -0.3065
 8510W        W12710   0.837   8.279  12.838  0.1227 -0.0304  0.0591
 8511W        W12711   9.442   8.494  10.101 -0.1296 -0.1675  0.0793
 8512W        W12712   4.170   7.852   8.813 -0.1765 -0.2340  0.1050
 8513W        W12713   2.781   6.455   9.128 -0.1094  0.3697 -0.0027
 8514W        W12714   3.466   8.778  12.666 -0.1671 -0.3293 -0.2385
 8515W        W12715   7.570   8.712   0.508 -0.3598 -0.3662 -0.1439
 8516W        W12716   4.772   7.071   9.530 -0.0197  0.0161  0.0185
 8517W        W12717   4.988   7.299   4.711  0.2455  0.1455 -0.3184
 8518W        W12718   4.819   0.763   0.709  0.1808 -0.0436  0.0914
 8519W        W12719   2.196   8.205  13.115  0.0699 -0.0167 -0.1058
 8520W        W12720   5.685   8.593   2.408  0.0575 -0.1969  0.0783
 8521W        W12721   3.996   4.965   5.154 -0.2748 -0.0583  0.0116
 8522W        W12722   4.453   1.256   3.325 -0.3101  0.0689 -0.1470
 8523W        W12723  10.235   4.779  11.132  0.5648 -0.1026  0.1710
 8524W        W12724   8.379   4.964   3.685  0.3539 -0.1036 -0.1117
 8525W        W12725   3.253   0.749  10.857 -0.0136  0.1791  0.0434
 8526W        W12726   6.905   8.116  12.540 -0.0378  0.3034 -0.2447
 8527W        W12727   7.899   1.135   2.177  0.0724  0.0063 -0.4800
 8528W        W12728   6.446   0.754   4.611  0.2279  0.0188  0.0933
 8529W        W12729   8.565   0.040  12.253 -0.1265  0.2164  0.0492
 8530W        W12730   7.878   5.405  10.043  0.1960 -0.2931  0.1019
 8531W        W12731   3.678  10.221  11.318  0.4438  0.3561 -0.2132
 8532W        W12732   7.352   0.246   3.436 -0.1112  0.2047  0.2522
 8533W        W12733   6.559   7.256   2.231  0.2668 -0.1025 -0.2999
 8534W        W12734   3.341   8.642   3.535  0.0238 -0.1466  0.0691
 8535ION    NA+12735   2.023   0.437  13.295  0.3507 -0.3721  0.0185
 8536ION    NA+12736   5.726   7.410   3.403 -0.0400  0.0107 -0.2448
 8537ION    NA+12737   6.595   7.070   1.288  0.1786 -0.0401  0.1401
 8538ION    NA+12738   0.470   9.270  10.560 -0.1126  0.0220 -0.1918
 8539ION    NA+12739   5.448   0.373   2.675 -0.2058 -0.2468  0.1404
 8540ION    NA+12740   7.714   6.806   9.850 -0.2355  0.1301 -0.1801
 8541ION    NA+12741  10.446   6.220   8.664  0.1068 -0.1217 -0.1672
 8542ION    NA+12742   5.686   5.428   3.360 -0.0904 -0.1059  0.1345
 8543ION    NA+12743   9.887   7.842   0.231 -0.0371 -0.0673 -0.2015
 8544ION    NA+12744   6.762   0.021   0.498  0.2122 -0.3953  0.1411
 8545ION    NA+12745   1.482   3.450   4.514  0.1310  0.0348 -0.1218
 8546ION    NA+12746   0.283   0.299   4.140  0.0956 -0.1608  0.0782
 8547ION    NA+12747   5.245   8.664   3.482 -0.0338  0.0271  0.0362
 8548ION    NA+12748   3.113   1.737   3.432 -0.0283  0.2024  0.2312
 8549ION    NA+12749   0.046   4.624   1.218 -0.2542  0.0558 -0.3472
 8550ION    NA+12750   7.493   5.149  10.801  0.1455 -0.0093 -0.0612
 8551ION    NA+12751   1.906   7.266  13.023  0.0103  0.0748  0.3423
 8552ION    NA+12752  10.229   6.931   2.935 -0.1537 -0.2306 -0.2034
 8553ION    NA+12753   2.013   8.700  11.060  0.1825  0.1565  0.2569
 8554ION    NA+12754   3.847   7.878  12.070  0.3216 -0.0087  0.4593
 8555ION    NA+12755   0.046   8.404   5.153 -0.0091 -0.0131  0.2752
 8556ION    NA+12756   9.462   5.293   3.344 -0.0677 -0.2782 -0.0664
 8557ION    NA+12757   4.742   6.779   2.903 -0.3175 -0.2263 -0.2230
 8558ION    NA+12758   6.731  10.340  12.373 -0.3521 -0.1119 -0.1009
 8559ION    NA+12759   7.074   9.723  11.095  0.0824  0.2557  0.0673
 8560ION    NA+12760   7.181   1.305  11.252  0.1157 -0.3236 -0.0243
 8561ION    NA+12761   8.694   1.903  10.142 -0.0065 -0.0382  0.1160
 8562ION    NA+12762   9.249   3.206  11.693  0.1526 -0.0984 -0.3185
 8563ION    NA+12763   5.883   1.586  10.962  0.1695 -0.0823  0.0149
 8564ION    NA+12764   5.234   3.343   1.017  0.2267 -0.2098  0.0255
 8565ION    NA+12765   4.883   5.131   3.067  0.0766  0.0049  0.1475
 8566ION    NA+12766   2.776   3.944  12.155  0.0916 -0.1082 -0.0417
 8567ION    NA+12767  10.072   5.677   3.423 -0.3102  0.0763  0.2317
 8568ION    NA+12768   8.642   3.777   1.729 -0.0635 -0.0621 -0.2040
 8569ION    NA+12769   8.502   9.134   8.461  0.1182 -0.0090  0.1221
 8570ION    NA+12770   6.094   5.510  11.025 -0.0828  0.3325 -0.1767
 8571ION    NA+12771   0.759   1.667  11.971  0.1971  0.1089  0.0331
 8572ION    NA+12772   9.200   8.290   2.228  0.1157 -0.1495  0.2178
 8573ION    NA+12773   8.835   3.695  12.645  0.4395 -0.0305  0.2925
 8574ION    NA+12774   5.902   7.655   5.328 -0.2940  0.4068 -0.1060
 8575ION    NA+12775   9.619   9.112   3.970 -0.2898 -0.1033 -0.0373
 8576ION    NA+12776   3.034   2.490  12.859  0.2660 -0.2854  0.0081
 8577ION    NA+12777   4.820   2.626   8.801  0.0974 -0.1453  0.2514
 8578ION    NA+12778   4.627   9.873   2.996  0.0800  0.0401  0.2789
 8579ION    NA+12779   6.515   1.696  11.747  0.3134 -0.0437 -0.0092
 8580ION    NA+12780   7.705   7.748   0.614 -0.2768  0.1303 -0.0335
 8581ION    NA+12781   4.616   8.302   2.763 -0.1084  0.0790 -0.1576
 8582ION    NA+12782   6.456   4.513  10.683  0.2537  0.1845 -0.1289
 8583ION    NA+12783   0.398   7.172   1.855  0.0671 -0.0165  0.0360
 8584ION    NA+12784   8.374   7.536   0.026 -0.1627 -0.4203 -0.2221
 8585ION    NA+12785   7.013   5.118   9.954 -0.0761 -0.3065 -0.1469
 8586ION    NA+12786   4.491   0.275   0.397  0.0280  0.0452  0.0655
 8587ION    NA+12787   4.135   0.213   4.972  0.3054 -0.1294  0.2440
 8588ION    NA+12788   7.189   8.267  11.162  0.0910  0.0515 -0.1913
 8589ION    NA+12789   6.299   5.299   8.733  0.1605  0.1504 -0.1690
 8590ION    NA+12790   5.708   4.154  10.237  0.0080  0.2416 -0.3501
 8591ION    NA+12791   4.070  10.047   9.106  0.1085  0.1224  0.0448
 8592ION    NA+12792   5.279   3.271  10.959  0.2502 -0.2001  0.0680
 8593ION    NA+12793   4.195   8.741   8.398  0.1601 -0.0053 -0.3781
 8594ION    NA+12794   5.122  10.275  13.308 -0.1605 -0.1204 -0.1033
 8595ION    NA+12795   1.192   2.481   9.944  0.1212 -0.0135 -0.0959
 8596ION    NA+12796   0.376   8.385  10.361  0.0696  0.3078  0.0018
 8597ION    NA+12797   8.813   6.235  11.833 -0.0332 -0.1210 -0.0054
 8598ION    NA+12798   0.880   1.543   4.092 -0.1068 -0.0878 -0.1625
 8599ION    NA+12799   1.562   2.911  12.773  0.0590 -0.0241  0.0688
 8600ION    NA+12800   9.508   9.509  11.362 -0.0544 -0.0824  0.3657
 8601ION    NA+12801   1.278   6.104   5.018  0.1778 -0.1041  0.0493
 8602ION    NA+12802   1.739   7.432   1.980 -0.4398 -0.3411 -0.0623
 8603ION    NA+12803   6.819   2.707  10.456 -0.0910 -0.2768 -0.1099
 8604ION    NA+12804   4.711   5.142   0.452  0.1245 -0.0084 -0.0384
 8605ION    NA+12805   1.392   9.631  10.368 -0.2333 -0.1221  0.1799
 8606ION    NA+12806   6.005   0.865  10.410  0.1034 -0.1155  0.0851
 8607ION    NA+12807   7.708  10.125   8.981 -0.3111  0.1820  0.1327
 8608ION    NA+12808   8.554   7.739   2.337 -0.1108  0.0615  0.0462
 8609ION    NA+12809   0.727   8.411  11.834 -0.0744 -0.1436 -0.0278
 8610ION    NA+12810   7.021   8.688   8.422 -0.0315 -0.2131 -0.1317
 8611ION    NA+12811  10.158   9.742   1.851 -0.0316 -0.1658 -0.3902
 8612ION    NA+12812   9.498   7.315   9.189 -0.1521  0.0051 -0.0476
 8613ION    NA+12813   8.366   1.607   2.303 -0.0777 -0.2395 -0.1707
 8614ION    NA+12814   8.627   9.807  11.521  0.0070  0.1113 -0.1409
 8615ION    NA+12815   2.101   8.069   9.183  0.0877 -0.0898  0.1866
 8616ION    NA+12816   9.726   6.436   0.499  0.0843  0.0329 -0.0907
 8617ION    NA+12817   4.422   0.632   1.828 -0.2178  0.2954  0.0205
 8618ION    NA+12818   9.799   6.231  11.005 -0.1569 -0.1634  0.0718
 8619ION    NA+12819   3.627   3.030   3.464  0.0746 -0.0903  0.0052
 8620ION    NA+12820   1.941   7.413   3.374 -0.1906 -0.0324  0.0403
 8621ION    NA+12821   1.336   6.708   2.076  0.1038 -0.3152 -0.0343
 8622ION    NA+12822   6.672   7.539  10.484 -0.0185 -0.0812 -0.0514
 8623ION    NA+12823   6.547   2.317   5.458  0.0994  0.0799  0.0485
 8624ION    NA+12824   4.483   9.594   2.560 -0.0435  0.1510 -0.2118
 8625ION    CL-12825   9.291   6.219  11.979 -0.1319 -0.2835  0.0620
 8626ION    CL-12826   0.853   2.155  12.044 -0.3412  0.0067  0.1796
 8627ION    CL-12827   4.966   3.452   1.510  0.0735  0.1583  0.1628
 8628ION    CL-12828  10.069  10.175   1.999 -0.1497 -0.0412 -0.0249
 8629ION    CL-12829   5.828   4.506  10.629 -0.1370  0.2292 -0.2708
 8630ION    CL-12830   5.660   1.208  10.652 -0.2691  0.0112 -0.3387
 8631ION    CL-12831   1.817   8.627   3.877  0.3203  0.2193 -0.0774
 8632ION    CL-12832   9.625   6.989   0.250 -0.2466 -0.0806  0.2318
 8633ION    CL-12833   4.976   3.023   4.333  0.2916  0.1457 -0.0142
 8634ION    CL-12834   9.968   9.576  11.611 -0.3218 -0.0805  0.5037
 8635ION    CL-12835   8.825   6.246  12.837  0.2184 -0.3220 -0.1850
 8636ION    CL-12836   3.287   9.075   0.104  0.0228  0.1613  0.0631
 8637ION    CL-12837  10.088   9.678   2.358 -0.1676 -0.0407  0.2689
 8638ION    CL-12838   4.419   0.363   1.360 -0.2730  0.1823 -0.0330
 8639ION    CL-12839   5.115   3.205  11.482  0.4870 -0.1003 -0.0324
 8640ION    CL-12840   6.694   5.351   9.634 -0.4326  0.2432 -0.2665
 8641ION    CL-12841   2.420   8.991   1.556 -0.1804  0.1363  0.0883
 8642ION    CL-12842   4.871   1.233   2.382 -0.0637  0.1011  0.0722
 8643ION    CL-12843   1.833   7.479   3.929 -0.3904 -0.2185 -0.2226
 8644ION    CL-12844   2.266   8.428   9.514 -0.1159 -0.0107  0.1414
 8645ION    CL-12845   6.653   6.916  12.970  0.2540  0.2289 -0.1000
 8646ION    CL-12846   7.144   6.425   3.469  0.1090 -0.1200 -0.0976
 8647ION    CL-12847   5.336   7.709   9.306 -0.0358 -0.2518  0.1111
 8648ION    CL-12848   3.968   3.362   3.618  0.1025 -0.0868  0.1418
 8649ION    CL-12849   9.846   5.407   2.910 -0.0889 -0.1945 -0.3541
 8650ION    CL-12850   6.103   6.102   3.890  0.1718 -0.1435 -0.1695
 8651ION    CL-12851   6.747   3.177  10.551 -0.1245 -0.1631 -0.2803
 8652ION    CL-12852   9.278   8.104   9.164  0.0941 -0.0225 -0.0732
 8653ION    CL-12853   6.847   4.197   2.571  0.0141  0.1373 -0.0228
 8654ION    CL-12854   7.989   6.957  10.212 -0.1147  0.0442  0.1472
 8655ION    CL-12855   1.288   6.708   4.231 -0.2143 -0.2631  0.0329
 8656ION    CL-12856   8.649   1.710  10.647 -0.0927  0.0330  0.0425
 8657ION    CL-12857   0.983   1.234  10.559 -0.0954 -0.0508 -0.0458
 8658ION    CL-12858   8.946   9.538  11.187  0.0526  0.3324  0.1386
 8659ION    CL-12859   5.473   7.617   3.936  0.0630 -0.0879  0.1187
 8660ION    CL-12860   9.369   4.379   1.572 -0.1330  0.0099  0.2408
 8661ION    CL-12861   2.036   7.344   1.564  0.3425 -0.1519 -0.1085
 8662ION    CL-12862   7.201   5.766  12.546 -0.0434  0.0111 -0.1150
 8663ION    CL-12863   6.077   7.554   2.988  0.1524 -0.1015 -0.1570
 8664ION    CL-12864   8.685  10.049   3.915  0.1809  0.3367  0.0315
 8665ION    CL-12865   6.475   5.373  10.682 -0.0897  0.0479  0.1646
 8666ION    CL-12866   7.339   4.840   9.584  0.0642 -0.0833  0.3293
 8667ION    CL-12867   9.223   5.300   3.822 -0.0274 -0.0871 -0.1831
 8668ION    CL-12868   6.289   1.465  11.205 -0.0505  0.2776  0.1356
 8669ION    CL-12869   7.090   1.595  10.816 -0.1001  0.2020 -0.1948
 8670ION    CL-12870   8.689   8.179   2.190  0.0277  0.1936 -0.1544
 8671ION    CL-12871   9.444   9.588   4.027 -0.3197  0.3957 -0.0008
 8672ION    CL-12872   5.834   0.160   4.433  0.0679  0.2019  0.0220
 8673ION    CL-12873   4.237   9.828   2.181  0.2549  0.0985  0.1414
 8674ION    CL-12874   8.678   3.565   1.257  0.0404 -0.4693 -0.1910
 8675ION    CL-12875   2.762   2.729   3.672  0.0410  0.1862 -0.2642
 8676ION    CL-12876   3.156   2.796   0.273 -0.1027 -0.2870  0.2782
 8677ION    CL-12877   9.216   0.436   0.107  0.5168 -0.1687 -0.0783
 8678ION    CL-12878   6.673   2.505  10.044  0.2891 -0.0263  0.0331
 8679ION    CL-12879   4.392   0.611   4.247  0.2993  0.2973  0.0312
 8680ION    CL-12880   9.281   7.014   2.810 -0.0359 -0.1283  0.3636
 8681ION    CL-12881   2.039   2.927  12.891  0.2140  0.3043  0.2020
 8682ION    CL-12882   2.139   6.479   3.667  0.2414 -0.1102 -0.0376
 8683ION    CL-12883   0.104   5.533   0.592 -0.0942 -0.0055 -0.1810
 8684ION    CL-12884   9.481   8.539   1.842  0.0103 -0.1242 -0.2203
 8685ION    CL-12885   4.135  10.131   3.101 -0.3521  0.0560 -0.0661
 8686ION    CL-12886   4.845   8.520   3.129 -0.0954  0.0914  0.0873
 8687ION    CL-12887   7.605   8.038   9.076  0.1743 -0.1215  0.1697
 8688ION    CL-12888   8.763   3.329  12.199  0.1934 -0.0883 -0.4113
 8689ION    CL-12889   3.621   4.652  10.532 -0.1888  0.0688 -0.3068
 8690ION    CL-12890   1.886   1.214   3.583 -0.0044  0.2582  0.1484
 8691ION    CL-12891   9.644   5.796  11.122 -0.1796 -0.2327 -0.0251
 8692ION    CL-12892   0.796   9.248   3.742 -0.0820  0.1747 -0.3317
 8693ION    CL-12893   1.907   2.440   4.512 -0.1485 -0.0699 -0.2277
 8694ION    CL-12894   2.526   0.487  10.009 -0.0825 -0.0044 -0.2745
 8695ION    CL-12895  10.148   8.968  10.458 -0.2457  0.0188 -0.1755
 8696ION    CL-12896   1.440   4.831  12.809  0.2401 -0.0283  0.0436
 8697ION    CL-12897   1.113   9.618  10.776  0.1108  0.0251  0.0502
 8698ION    CL-12898   7.262  10.345   0.425 -0.2458  0.1962 -0.0216
 8699ION    CL-12899   6.206   8.655   9.012 -0.1829 -0.0819  0.1073
 8700ION    CL-12900   7.039  10.478  12.955  0.1664 -0.4710 -0.2818
 8701ION    CL-12901   1.292   7.240   2.021  0.2805  0.4638 -0.1239
 8702ION    CL-12902   6.339   7.907  10.672 -0.1160 -0.1539  0.4474
 8703ION    CL-12903   8.212   1.801   9.947  0.0045 -0.0970 -0.1185
 8704ION    CL-12904   4.442   6.538   3.228 -0.1795  0.1032  0.0141
 8705ION    CL-12905   6.540   4.460  10.192  0.1773 -0.2446  0.0637
 8706ION    CL-12906   5.327   5.118   3.291  0.1527  0.1549 -0.4369
 8707ION    CL-12907   0.566   8.764  10.704 -0.4337  0.0126 -0.0734
 8708ION    CL-12908   8.474   5.983   3.703 -0.0572 -0.0677  0.0729
 8709ION    CL-12909   7.485   4.654  10.528 -0.1524 -0.1136 -0.1466
 8710ION    CL-12910   5.629   3.130  10.615 -0.1168  0.0814  0.0651
 8711ION    CL-12911   4.880  10.277   0.359  0.0765  0.0661 -0.0960
 8712ION    CL-12912   1.645   8.034  13.354 -0.0104  0.0794  0.2796
 8713ION    CL-12913   3.135   7.980  11.297  0.0237 -0.2336 -0.0143
 8714ION    CL-12914   7.358   5.383  10.174 -0.0478  0.3785  0.1237
  10.48737  10.48737  13.40671
