Protein in INSANE! Membrane UpperLeaflet>POPC=1.0 LowerLeaflet>POPC=1.0
12676
    1AU     AUC    1   5.749   5.866   6.009
    1AU     AUC    2   6.012   5.861   5.854
    1AU     AUC    3   6.002   5.848   6.159
    1AU     AUC    4   5.501   5.874   5.847
    1AU     AUC    5   5.486   5.887   6.156
    1AU     AUC    6   5.607   6.129   6.015
    1AU     AUC    7   5.917   6.117   5.995
    1AU     AUC    8   5.588   5.613   6.014
    1AU     AUC    9   5.881   5.605   6.029
    1AU     AUC   10   5.734   5.713   6.270
    1AU     AUC   11   5.772   6.025   6.264
    1AU     AUC   12   5.749   5.708   5.750
    1AU     AUC   13   5.741   6.009   5.749
    1AU     AUC   14   6.260   5.854   5.686
    1AU     AUC   15   6.270   5.854   5.999
    1AU     AUC   16   6.259   5.842   6.308
    1AU     AUC   17   5.240   5.869   5.687
    1AU     AUC   18   5.229   5.893   5.993
    1AU     AUC   19   5.238   5.907   6.316
    1AU     AUC   20   5.472   6.403   6.020
    1AU     AUC   21   5.778   6.392   6.008
    1AU     AUC   22   6.071   6.378   6.008
    1AU     AUC   23   5.400   5.363   6.016
    1AU     AUC   24   5.718   5.342   6.004
    1AU     AUC   25   6.031   5.337   6.032
    1AU     AUC   26   5.708   5.555   6.518
    1AU     AUC   27   5.748   5.867   6.538
    1AU     AUC   28   5.778   6.179   6.529
    1AU     AUC   29   5.754   5.540   5.502
    1AU     AUC   30   5.757   5.859   5.487
    1AU     AUC   31   5.746   6.170   5.487
    1AU     AUC   32   6.010   5.702   6.433
    1AU     AUC   33   6.022   5.997   6.429
    1AU     AUC   34   6.016   5.698   5.589
    1AU     AUC   35   6.024   6.007   5.581
    1AU     AUC   36   5.474   5.736   6.433
    1AU     AUC   37   5.499   6.045   6.437
    1AU     AUC   38   5.498   5.713   5.574
    1AU     AUC   39   5.488   6.022   5.588
    1AU     AUC   40   6.175   6.123   5.837
    1AU     AUC   41   6.185   6.096   6.154
    1AU     AUC   42   5.338   6.138   5.860
    1AU     AUC   43   5.347   6.155   6.178
    1AU     AUC   44   6.155   5.592   5.859
    1AU     AUC   45   6.157   5.589   6.175
    1AU     AUC   46   5.321   5.622   5.842
    1AU     AUC   47   5.321   5.635   6.182
    1AU     AUC   48   5.613   6.289   6.282
    1AU     AUC   49   5.934   6.285   6.254
    1AU     AUC   50   5.558   5.446   6.262
    1AU     AUC   51   5.877   5.444   6.288
    1AU     AUC   52   5.600   6.288   5.751
    1AU     AUC   53   5.920   6.271   5.740
    1AU     AUC   54   5.571   5.466   5.746
    1AU     AUC   55   5.897   5.437   5.767
    1AU    AUSL   56   6.086   5.793   6.603
    1AU    AUSL   57   6.034   5.367   6.644
    1AU     AUL   58   6.269   5.442   6.908
    1AU       S   59   6.316   5.054   6.623
    1AU     LIG   60   6.399   4.712   6.888
    1AU     LIG   61   6.544   4.379   7.197
    1AU     LIG   62   6.705   4.070   7.521
    1AU     LIG   63   6.663   3.850   7.945
    1AU     LIG   64   6.751   3.695   8.386
    1AU     LIG   65   7.038   3.599   8.742
    1AU       S   66   6.152   5.805   7.172
    1AU     LIG   67   6.316   5.588   7.562
    1AU     LIG   68   6.597   5.357   7.894
    1AU     LIG   69   6.993   5.245   8.159
    1AU     LIG   70   7.378   5.291   8.454
    1AU     LIG   71   7.645   5.545   8.764
    1AU     LIG   72   7.870   5.627   9.164
    1AU    AUSL   73   5.805   5.640   6.873
    1AU    AUSL   74   5.695   6.044   6.798
    1AU     AUL   75   5.746   5.996   7.219
    1AU       S   76   5.873   5.622   7.019
    1AU     LIG   77   5.850   5.367   7.444
    1AU     LIG   78   6.112   5.163   7.808
    1AU     LIG   79   6.283   4.965   8.230
    1AU     LIG   80   6.285   4.738   8.677
    1AU     LIG   81   6.424   4.639   9.131
    1AU     LIG   82   6.555   4.826   9.549
    1AU       S   83   5.373   5.755   7.156
    1AU     LIG   84   5.323   5.681   7.629
    1AU     LIG   85   5.138   5.626   8.070
    1AU     LIG   86   5.053   5.797   8.511
    1AU     LIG   87   5.139   6.055   8.915
    1AU     LIG   88   5.006   6.275   9.314
    1AU     LIG   89   4.702   6.475   9.625
    1AU    AUSL   90   6.088   6.159   6.797
    1AU    AUSL   91   6.414   6.028   6.485
    1AU     AUL   92   6.381   5.879   6.792
    1AU       S   93   6.105   6.185   7.000
    1AU     LIG   94   6.165   6.537   7.308
    1AU     LIG   95   6.367   6.613   7.738
    1AU     LIG   96   6.448   6.674   8.210
    1AU     LIG   97   6.517   6.790   8.686
    1AU     LIG   98   6.640   6.855   9.161
    1AU     LIG   99   6.600   6.822   9.640
    1AU       S  100   6.700   6.089   6.531
    1AU     LIG  101   7.006   6.111   6.866
    1AU     LIG  102   7.182   6.384   7.204
    1AU     LIG  103   7.433   6.677   7.491
    1AU     LIG  104   7.744   6.782   7.852
    1AU     LIG  105   8.171   6.840   8.105
    1AU     LIG  106   8.578   6.993   8.333
    1AU    AUSL  107   6.267   5.900   5.392
    1AU    AUSL  108   6.082   6.301   5.350
    1AU     AUL  109   6.280   6.136   5.097
    1AU       S  110   6.296   5.713   4.857
    1AU     LIG  111   6.647   5.767   4.618
    1AU     LIG  112   6.815   5.541   4.261
    1AU     LIG  113   6.935   5.441   3.828
    1AU     LIG  114   7.337   5.463   3.573
    1AU     LIG  115   7.650   5.686   3.299
    1AU     LIG  116   7.829   5.746   2.854
    1AU       S  117   6.526   6.508   5.239
    1AU     LIG  118   6.767   6.552   4.879
    1AU     LIG  119   6.993   6.720   4.512
    1AU     LIG  120   7.159   6.878   4.123
    1AU     LIG  121   7.294   7.171   3.800
    1AU     LIG  122   7.532   7.551   3.693
    1AU     LIG  123   7.535   8.000   3.538
    1AU    AUSL  124   6.014   5.603   5.213
    1AU    AUSL  125   6.363   5.514   5.503
    1AU     AUL  126   6.476   5.699   5.274
    1AU       S  127   6.414   5.220   5.292
    1AU     LIG  128   6.643   4.898   5.034
    1AU     LIG  129   6.885   4.552   4.803
    1AU     LIG  130   7.122   4.338   4.442
    1AU     LIG  131   7.493   4.405   4.133
    1AU     LIG  132   7.859   4.460   3.825
    1AU     LIG  133   8.239   4.277   3.608
    1AU       S  134   6.153   5.501   4.982
    1AU     LIG  135   6.261   5.124   4.766
    1AU     LIG  136   6.264   5.038   4.287
    1AU     LIG  137   6.298   5.074   3.789
    1AU     LIG  138   6.319   5.012   3.295
    1AU     LIG  139   6.400   5.010   2.805
    1AU     LIG  140   6.630   5.001   2.365
    1AU    AUSL  141   5.857   5.963   5.402
    1AU    AUSL  142   5.614   5.715   5.160
    1AU     AUL  143   5.891   5.906   5.011
    1AU       S  144   5.277   5.774   4.870
    1AU     LIG  145   5.308   5.481   4.471
    1AU     LIG  146   5.184   5.216   4.069
    1AU     LIG  147   5.057   4.884   3.729
    1AU     LIG  148   5.000   4.745   3.267
    1AU     LIG  149   4.805   4.907   2.862
    1AU     LIG  150   4.675   5.126   2.449
    1AU       S  151   6.013   5.474   5.079
    1AU     LIG  152   6.026   5.487   4.506
    1AU     LIG  153   6.320   5.515   4.089
    1AU     LIG  154   6.453   5.541   3.607
    1AU     LIG  155   6.514   5.784   3.183
    1AU     LIG  156   6.716   6.147   2.922
    1AU     LIG  157   6.849   6.365   2.520
    1AU    AUSL  158   5.302   5.933   6.733
    1AU    AUSL  159   5.451   6.342   6.643
    1AU     AUL  160   5.507   6.256   6.937
    1AU       S  161   5.226   5.949   7.160
    1AU     LIG  162   4.895   5.681   7.357
    1AU     LIG  163   4.757   5.459   7.763
    1AU     LIG  164   4.524   5.339   8.181
    1AU     LIG  165   4.192   5.301   8.552
    1AU     LIG  166   3.980   5.456   8.969
    1AU     LIG  167   3.626   5.742   9.162
    1AU       S  168   5.062   6.339   6.856
    1AU     LIG  169   5.032   6.518   7.295
    1AU     LIG  170   4.895   6.800   7.674
    1AU     LIG  171   4.800   6.948   8.127
    1AU     LIG  172   4.769   7.288   8.466
    1AU     LIG  173   4.570   7.660   8.701
    1AU     LIG  174   4.317   8.068   8.788
    1AU    AUSL  175   5.600   5.727   6.529
    1AU    AUSL  176   5.074   5.668   6.509
    1AU     AUL  177   5.107   5.774   6.750
    1AU       S  178   4.899   5.346   6.716
    1AU     LIG  179   4.473   5.126   6.593
    1AU     LIG  180   4.086   4.899   6.747
    1AU     LIG  181   3.889   4.627   7.072
    1AU     LIG  182   3.712   4.329   7.385
    1AU     LIG  183   3.436   4.155   7.717
    1AU     LIG  184   3.142   4.276   8.077
    1AU       S  185   5.397   5.638   7.097
    1AU     LIG  186   5.311   5.269   7.327
    1AU     LIG  187   5.199   5.185   7.775
    1AU     LIG  188   5.003   5.128   8.203
    1AU     LIG  189   4.867   4.888   8.600
    1AU     LIG  190   4.844   4.741   9.056
    1AU     LIG  191   4.728   4.900   9.477
    1AU    AUSL  192   5.337   5.839   5.439
    1AU    AUSL  193   5.510   5.425   5.435
    1AU     AUL  194   5.481   5.459   5.124
    1AU       S  195   5.086   5.684   5.087
    1AU     LIG  196   4.882   5.459   4.761
    1AU     LIG  197   4.788   5.451   4.291
    1AU     LIG  198   4.672   5.260   3.850
    1AU     LIG  199   4.318   5.135   3.511
    1AU     LIG  200   3.998   5.186   3.137
    1AU     LIG  201   3.824   5.522   2.832
    1AU       S  202   5.071   5.173   5.218
    1AU     LIG  203   4.920   4.727   5.251
    1AU     LIG  204   4.514   4.502   5.125
    1AU     LIG  205   4.215   4.308   4.784
    1AU     LIG  206   4.192   4.093   4.344
    1AU     LIG  207   4.303   3.808   3.950
    1AU     LIG  208   4.146   3.494   3.615
    1AU    AUSL  209   5.550   6.146   5.185
    1AU    AUSL  210   5.103   6.182   5.478
    1AU     AUL  211   5.196   6.102   5.209
    1AU       S  212   4.950   6.490   5.283
    1AU     LIG  213   4.673   6.642   4.935
    1AU     LIG  214   4.532   6.700   4.478
    1AU     LIG  215   4.402   6.834   4.046
    1AU     LIG  216   4.099   7.013   3.740
    1AU     LIG  217   3.650   7.148   3.730
    1AU     LIG  218   3.409   7.516   3.553
    1AU       S  219   5.440   5.899   4.879
    1AU     LIG  220   5.191   5.977   4.438
    1AU     LIG  221   5.118   5.754   4.019
    1AU     LIG  222   5.091   5.836   3.543
    1AU     LIG  223   5.184   6.061   3.120
    1AU     LIG  224   5.127   6.225   2.669
    1AU     LIG  225   4.882   6.308   2.269
    1AU    AUSL  226   6.383   6.477   5.956
    1AU    AUSL  227   6.417   6.223   5.608
    1AU     AUL  228   6.502   6.676   5.726
    1AU       S  229   6.650   6.220   5.388
    1AU     LIG  230   6.954   6.116   5.079
    1AU     LIG  231   7.211   6.302   4.723
    1AU     LIG  232   7.479   6.545   4.398
    1AU     LIG  233   7.904   6.561   4.163
    1AU     LIG  234   8.274   6.811   3.994
    1AU     LIG  235   8.449   7.036   3.594
    1AU       S  236   6.827   6.362   5.875
    1AU     LIG  237   7.292   6.456   5.994
    1AU     LIG  238   7.795   6.537   6.015
    1AU     LIG  239   8.286   6.616   5.990
    1AU     LIG  240   8.667   6.952   6.005
    1AU     LIG  241   8.977   7.351   6.021
    1AU     LIG  242   9.222   7.752   6.172
    1AU    AUSL  243   6.602   5.886   5.748
    1AU    AUSL  244   6.586   5.729   6.166
    1AU     AUL  245   6.868   5.661   5.941
    1AU       S  246   6.822   6.112   5.836
    1AU     LIG  247   7.236   6.126   5.616
    1AU     LIG  248   7.740   6.128   5.710
    1AU     LIG  249   8.254   6.151   5.697
    1AU     LIG  250   8.753   6.079   5.663
    1AU     LIG  251   9.198   6.277   5.660
    1AU     LIG  252   9.568   6.574   5.490
    1AU       S  253   6.874   5.247   6.195
    1AU     LIG  254   7.069   4.857   6.291
    1AU     LIG  255   7.528   4.692   6.293
    1AU     LIG  256   8.007   4.580   6.252
    1AU     LIG  257   8.467   4.425   6.242
    1AU     LIG  258   8.865   4.341   6.475
    1AU     LIG  259   9.197   4.423   6.813
    1AU    AUSL  260   6.385   6.075   6.073
    1AU    AUSL  261   6.281   6.405   6.357
    1AU     AUL  262   6.528   6.410   6.230
    1AU       S  263   6.583   6.293   6.659
    1AU     LIG  264   6.927   6.610   6.770
    1AU     LIG  265   7.159   6.887   7.094
    1AU     LIG  266   7.473   7.202   7.295
    1AU     LIG  267   7.699   7.652   7.290
    1AU     LIG  268   7.886   8.106   7.375
    1AU     LIG  269   8.113   8.476   7.596
    1AU       S  270   6.845   6.131   6.068
    1AU     LIG  271   7.182   6.099   6.343
    1AU     LIG  272   7.653   6.093   6.237
    1AU     LIG  273   8.141   6.147   6.191
    1AU     LIG  274   8.635   6.191   6.147
    1AU     LIG  275   9.121   6.309   6.181
    1AU     LIG  276   9.470   6.573   6.404
    1AU    AUSL  277   5.095   6.440   6.101
    1AU    AUSL  278   5.147   6.156   6.423
    1AU     AUL  279   5.114   6.617   6.356
    1AU       S  280   4.948   6.234   6.619
    1AU     LIG  281   4.647   6.220   7.052
    1AU     LIG  282   4.527   6.540   7.412
    1AU     LIG  283   4.394   6.703   7.869
    1AU     LIG  284   4.046   6.818   8.218
    1AU     LIG  285   3.603   7.029   8.333
    1AU     LIG  286   3.231   7.260   8.543
    1AU       S  287   4.724   6.467   6.172
    1AU     LIG  288   4.567   6.921   6.049
    1AU     LIG  289   4.356   7.383   6.113
    1AU     LIG  290   4.033   7.754   6.175
    1AU     LIG  291   3.567   7.902   6.064
    1AU     LIG  292   3.120   8.130   6.136
    1AU     LIG  293   2.706   8.156   6.424
    1AU    AUSL  294   5.175   6.103   5.872
    1AU    AUSL  295   5.268   6.522   5.726
    1AU     AUL  296   4.994   6.440   5.757
    1AU       S  297   4.604   6.391   6.010
    1AU     LIG  298   4.391   6.630   5.634
    1AU     LIG  299   3.994   6.772   5.372
    1AU     LIG  300   3.501   6.813   5.278
    1AU     LIG  301   3.036   6.951   5.192
    1AU     LIG  302   2.578   6.761   5.204
    1AU     LIG  303   2.118   6.899   5.108
    1AU       S  304   5.090   6.715   5.384
    1AU     LIG  305   4.989   7.024   5.068
    1AU     LIG  306   4.912   7.392   4.795
    1AU     LIG  307   4.567   7.698   4.802
    1AU     LIG  308   4.449   8.088   4.571
    1AU     LIG  309   4.175   8.410   4.368
    1AU     LIG  310   3.814   8.712   4.316
    1AU    AUSL  311   4.877   6.016   6.155
    1AU    AUSL  312   4.935   5.779   5.787
    1AU     AUL  313   4.772   6.038   5.778
    1AU       S  314   4.575   5.580   5.915
    1AU     LIG  315   4.235   5.481   6.269
    1AU     LIG  316   3.745   5.401   6.260
    1AU     LIG  317   3.295   5.250   6.140
    1AU     LIG  318   2.883   5.050   5.905
    1AU     LIG  319   2.387   4.981   5.910
    1AU     LIG  320   1.981   4.920   5.648
    1AU       S  321   4.684   6.071   6.250
    1AU     LIG  322   4.462   6.349   6.582
    1AU     LIG  323   4.051   6.549   6.748
    1AU     LIG  324   3.572   6.683   6.777
    1AU     LIG  325   3.103   6.829   6.811
    1AU     LIG  326   2.682   7.041   6.879
    1AU     LIG  327   2.252   6.874   6.812
    1AU    AUSL  328   6.432   5.338   6.076
    1AU    AUSL  329   6.380   5.541   6.466
    1AU     AUL  330   6.681   5.593   6.424
    1AU       S  331   6.583   5.068   6.041
    1AU     LIG  332   6.738   4.680   5.908
    1AU     LIG  333   7.183   4.484   5.944
    1AU     LIG  334   7.652   4.319   5.952
    1AU     LIG  335   8.112   4.148   5.970
    1AU     LIG  336   8.492   3.910   6.160
    1AU     LIG  337   8.853   3.824   6.502
    1AU       S  338   6.394   5.226   6.527
    1AU     LIG  339   6.797   5.004   6.708
    1AU     LIG  340   6.942   4.653   7.018
    1AU     LIG  341   7.109   4.383   7.397
    1AU     LIG  342   7.421   4.260   7.766
    1AU     LIG  343   7.782   4.239   8.115
    1AU     LIG  344   8.199   4.225   8.373
    1AU    AUSL  345   6.281   5.673   5.874
    1AU    AUSL  346   6.201   5.211   5.757
    1AU     AUL  347   6.547   5.409   5.705
    1AU       S  348   6.642   5.242   6.108
    1AU     LIG  349   7.077   5.034   5.809
    1AU     LIG  350   7.540   4.827   5.791
    1AU     LIG  351   8.003   4.639   5.745
    1AU     LIG  352   8.449   4.444   5.716
    1AU     LIG  353   8.850   4.426   5.476
    1AU     LIG  354   9.226   4.676   5.523
    1AU       S  355   6.421   5.000   5.511
    1AU     LIG  356   6.531   4.573   5.417
    1AU     LIG  357   6.645   4.211   5.114
    1AU     LIG  358   6.857   3.817   4.911
    1AU     LIG  359   7.071   3.356   4.882
    1AU     LIG  360   7.491   3.129   4.778
    1AU     LIG  361   7.967   3.123   4.659
    1AU    AUSL  362   5.017   5.390   5.964
    1AU    AUSL  363   5.118   5.506   5.541
    1AU     AUL  364   4.843   5.619   5.527
    1AU       S  365   4.987   5.184   5.483
    1AU     LIG  366   4.544   5.061   5.374
    1AU     LIG  367   4.171   4.893   5.133
    1AU     LIG  368   3.863   4.680   4.865
    1AU     LIG  369   3.725   4.402   4.528
    1AU     LIG  370   3.395   4.414   4.187
    1AU     LIG  371   3.118   4.388   3.801
    1AU       S  372   4.731   5.369   5.900
    1AU     LIG  373   4.415   5.075   6.013
    1AU     LIG  374   4.040   4.987   6.247
    1AU     LIG  375   3.586   4.855   6.294
    1AU     LIG  376   3.120   4.710   6.215
    1AU     LIG  377   2.713   4.447   6.099
    1AU     LIG  378   2.502   4.037   5.961
    1AU    AUSL  379   5.187   5.748   6.129
    1AU    AUSL  380   5.264   5.352   6.303
    1AU     AUL  381   4.894   5.544   6.294
    1AU       S  382   4.983   5.163   6.528
    1AU     LIG  383   4.788   4.845   6.298
    1AU     LIG  384   4.382   4.628   6.413
    1AU     LIG  385   4.088   4.351   6.689
    1AU     LIG  386   3.834   4.042   6.980
    1AU     LIG  387   3.614   3.732   7.292
    1AU     LIG  388   3.462   3.269   7.380
    1AU       S  389   4.611   5.650   5.960
    1AU     LIG  390   4.095   5.600   5.802
    1AU     LIG  391   3.581   5.601   5.808
    1AU     LIG  392   3.091   5.530   5.774
    1AU     LIG  393   2.831   5.462   6.173
    1AU     LIG  394   2.377   5.335   6.305
    1AU     LIG  395   1.948   5.213   6.497
    1AU    AUSL  396   5.805   6.540   6.546
    1AU    AUSL  397   5.474   6.334   6.230
    1AU     AUL  398   5.507   6.630   6.628
    1AU       S  399   5.109   6.452   6.775
    1AU     LIG  400   4.741   6.722   6.925
    1AU     LIG  401   4.688   7.073   7.265
    1AU     LIG  402   4.671   7.566   7.404
    1AU     LIG  403   4.573   8.066   7.430
    1AU     LIG  404   4.296   8.466   7.506
    1AU     LIG  405   3.853   8.573   7.651
    1AU       S  406   5.871   6.926   6.518
    1AU     LIG  407   6.022   7.125   6.884
    1AU     LIG  408   6.065   7.557   7.048
    1AU     LIG  409   6.110   7.881   7.396
    1AU     LIG  410   6.090   8.154   7.796
    1AU     LIG  411   5.933   8.496   8.099
    1AU     LIG  412   5.864   8.953   8.214
    1AU    AUSL  413   5.558   6.730   6.188
    1AU    AUSL  414   6.014   6.699   5.766
    1AU     AUL  415   5.695   6.971   5.946
    1AU       S  416   5.718   7.004   6.402
    1AU     LIG  417   5.813   7.446   6.546
    1AU     LIG  418   5.760   7.870   6.744
    1AU     LIG  419   5.503   8.269   6.811
    1AU     LIG  420   5.383   8.733   6.895
    1AU     LIG  421   5.309   9.213   7.000
    1AU     LIG  422   5.170   9.650   7.138
    1AU       S  423   6.082   6.976   5.666
    1AU     LIG  424   6.325   7.348   5.603
    1AU     LIG  425   6.433   7.746   5.348
    1AU     LIG  426   6.744   8.136   5.260
    1AU     LIG  427   6.857   8.613   5.250
    1AU     LIG  428   6.875   9.094   5.198
    1AU     LIG  429   6.866   9.570   5.119
    1AU    AUSL  430   5.961   6.569   6.159
    1AU    AUSL  431   5.940   6.176   6.419
    1AU     AUL  432   6.134   6.555   6.567
    1AU       S  433   6.509   6.329   6.751
    1AU     LIG  434   6.656   6.428   7.172
    1AU     LIG  435   6.888   6.690   7.512
    1AU     LIG  436   7.153   6.886   7.876
    1AU     LIG  437   7.245   7.125   8.294
    1AU     LIG  438   7.290   7.532   8.562
    1AU     LIG  439   7.439   7.875   8.872
    1AU       S  440   6.049   6.862   6.230
    1AU     LIG  441   6.263   7.229   6.417
    1AU     LIG  442   6.340   7.684   6.614
    1AU     LIG  443   6.645   8.104   6.673
    1AU     LIG  444   6.788   8.586   6.756
    1AU     LIG  445   6.651   9.053   6.762
    1AU     LIG  446   6.685   9.535   6.839
    1AU    AUSL  447   5.692   5.289   6.425
    1AU    AUSL  448   6.057   5.412   6.228
    1AU     AUL  449   5.878   5.162   6.680
    1AU       S  450   5.754   4.743   6.541
    1AU     LIG  451   5.662   4.376   6.802
    1AU     LIG  452   5.353   4.048   6.856
    1AU     LIG  453   5.313   3.592   6.886
    1AU     LIG  454   5.340   3.249   7.216
    1AU     LIG  455   5.381   3.065   7.665
    1AU     LIG  456   5.479   2.770   8.031
    1AU       S  457   6.331   5.053   6.444
    1AU     LIG  458   6.560   4.678   6.391
    1AU     LIG  459   6.710   4.334   6.688
    1AU     LIG  460   6.923   4.061   7.034
    1AU     LIG  461   7.196   3.727   7.281
    1AU     LIG  462   7.507   3.330   7.362
    1AU     LIG  463   7.896   3.032   7.396
    1AU    AUSL  464   5.505   5.058   6.140
    1AU    AUSL  465   5.408   5.412   6.701
    1AU     AUL  466   5.429   5.077   6.504
    1AU       S  467   5.582   4.659   6.400
    1AU     LIG  468   5.369   4.273   6.372
    1AU     LIG  469   5.200   3.829   6.413
    1AU     LIG  470   4.982   3.424   6.510
    1AU     LIG  471   4.732   3.024   6.534
    1AU     LIG  472   4.627   2.642   6.772
    1AU     LIG  473   4.674   2.204   6.870
    1AU       S  474   5.144   5.288   6.797
    1AU     LIG  475   4.846   4.884   6.907
    1AU     LIG  476   4.456   4.609   6.957
    1AU     LIG  477   4.230   4.269   7.213
    1AU     LIG  478   4.035   3.948   7.513
    1AU     LIG  479   4.026   3.698   7.925
    1AU     LIG  480   4.046   3.625   8.399
    1AU    AUSL  481   5.949   5.016   6.199
    1AU    AUSL  482   5.466   5.062   5.724
    1AU     AUL  483   5.642   4.817   5.979
    1AU       S  484   5.387   4.710   5.592
    1AU     LIG  485   5.122   4.367   5.573
    1AU     LIG  486   5.064   3.892   5.542
    1AU     LIG  487   5.068   3.418   5.461
    1AU     LIG  488   4.815   3.001   5.394
    1AU     LIG  489   4.692   2.536   5.296
    1AU     LIG  490   4.704   2.177   4.982
    1AU       S  491   5.903   4.819   6.354
    1AU     LIG  492   5.933   4.310   6.357
    1AU     LIG  493   5.711   3.901   6.508
    1AU     LIG  494   5.670   3.415   6.538
    1AU     LIG  495   5.910   2.971   6.526
    1AU     LIG  496   6.106   2.563   6.709
    1AU     LIG  497   6.286   2.173   6.914
    1AU    AUSL  498   5.748   6.524   5.450
    1AU    AUSL  499   6.056   6.290   5.785
    1AU     AUL  500   6.118   6.564   5.457
    1AU       S  501   5.808   6.875   5.306
    1AU     LIG  502   6.133   7.084   5.068
    1AU     LIG  503   6.155   7.513   4.869
    1AU     LIG  504   6.079   7.776   4.463
    1AU     LIG  505   6.016   8.101   4.107
    1AU     LIG  506   5.990   8.553   3.939
    1AU     LIG  507   6.054   8.887   3.598
    1AU       S  508   6.531   6.295   5.484
    1AU     LIG  509   7.013   6.537   5.362
    1AU     LIG  510   7.235   6.758   4.982
    1AU     LIG  511   7.432   7.115   4.716
    1AU     LIG  512   7.645   7.571   4.698
    1AU     LIG  513   7.832   8.015   4.588
    1AU     LIG  514   7.816   8.414   4.316
    1AU    AUSL  515   5.657   6.503   5.860
    1AU    AUSL  516   5.513   6.218   5.583
    1AU     AUL  517   5.497   6.702   5.614
    1AU       S  518   5.889   6.969   5.536
    1AU     LIG  519   5.887   7.420   5.356
    1AU     LIG  520   5.932   7.882   5.182
    1AU     LIG  521   5.795   8.358   5.091
    1AU     LIG  522   5.479   8.751   4.999
    1AU     LIG  523   5.409   9.234   4.854
    1AU     LIG  524   4.962   9.409   4.762
    1AU       S  525   5.302   6.554   5.226
    1AU     LIG  526   5.170   6.634   4.797
    1AU     LIG  527   4.975   6.947   4.482
    1AU     LIG  528   4.908   6.993   3.992
    1AU     LIG  529   4.948   7.326   3.634
    1AU     LIG  530   4.700   7.699   3.459
    1AU     LIG  531   4.491   8.090   3.250
    1AU    AUSL  532   5.820   5.158   5.466
    1AU    AUSL  533   5.405   5.446   5.846
    1AU     AUL  534   5.453   5.146   5.463
    1AU       S  535   5.015   5.058   5.632
    1AU     LIG  536   4.729   4.764   5.748
    1AU     LIG  537   4.292   4.645   5.580
    1AU     LIG  538   4.012   4.394   5.265
    1AU     LIG  539   3.740   4.101   4.974
    1AU     LIG  540   3.451   3.684   4.898
    1AU     LIG  541   3.265   3.341   4.621
    1AU       S  542   5.721   4.794   5.362
    1AU     LIG  543   5.403   4.562   5.115
    1AU     LIG  544   5.264   4.126   5.129
    1AU     LIG  545   5.279   3.665   5.059
    1AU     LIG  546   5.381   3.296   4.791
    1AU     LIG  547   5.376   3.115   4.340
    1AU     LIG  548   5.472   2.833   3.970
    1AU    AUSL  549   5.809   5.238   5.885
    1AU    AUSL  550   5.945   5.521   5.601
    1AU     AUL  551   5.991   5.003   5.690
    1AU       S  552   5.645   4.721   5.540
    1AU     LIG  553   5.633   4.268   5.484
    1AU     LIG  554   5.564   3.802   5.459
    1AU     LIG  555   5.627   3.339   5.349
    1AU     LIG  556   5.970   2.972   5.406
    1AU     LIG  557   6.278   2.606   5.320
    1AU     LIG  558   6.497   2.212   5.120
    1AU       S  559   6.239   5.112   5.289
    1AU     LIG  560   6.158   4.730   5.093
    1AU     LIG  561   6.372   4.496   4.770
    1AU     LIG  562   6.630   4.162   4.557
    1AU     LIG  563   6.743   3.934   4.157
    1AU     LIG  564   6.929   3.727   3.779
    1AU     LIG  565   7.225   3.571   3.460
    2POPC   NC3  566   1.386   2.516   7.936
    2POPC   PO4  567   1.160   3.090   8.152
    2POPC   GL1  568   1.244   2.990   7.728
    2POPC   GL2  569   0.912   2.843   7.706
    2POPC   C1A  570   1.246   2.719   7.328
    2POPC   D2A  571   1.479   2.697   6.954
    2POPC   C3A  572   1.362   2.749   6.547
    2POPC   C4A  573   1.661   2.975   6.304
    2POPC   C1B  574   0.878   3.063   7.300
    2POPC   C2B  575   1.010   3.043   6.864
    2POPC   C3B  576   0.867   2.867   6.467
    2POPC   C4B  577   1.123   2.760   6.083
    3POPC   NC3  578   2.754   1.969   8.095
    3POPC   PO4  579   3.227   2.336   7.722
    3POPC   GL1  580   3.012   1.927   7.594
    3POPC   GL2  581   2.687   1.743   7.645
    3POPC   C1A  582   3.047   1.900   7.175
    3POPC   D2A  583   3.144   2.006   6.781
    3POPC   C3A  584   2.992   1.874   6.466
    3POPC   C4A  585   3.061   1.950   6.098
    3POPC   C1B  586   2.558   1.939   7.280
    3POPC   C2B  587   2.599   2.102   6.855
    3POPC   C3B  588   2.500   2.036   6.439
    3POPC   C4B  589   2.606   2.145   6.011
    4POPC   NC3  590   8.539   5.205   8.169
    4POPC   PO4  591   9.024   5.463   8.253
    4POPC   GL1  592   8.924   5.279   7.810
    4POPC   GL2  593   8.958   4.921   7.676
    4POPC   C1A  594   8.949   5.294   7.314
    4POPC   D2A  595   9.185   5.207   6.891
    4POPC   C3A  596   9.030   5.256   6.431
    4POPC   C4A  597   8.752   5.276   6.052
    4POPC   C1B  598   9.000   4.793   7.189
    4POPC   C2B  599   8.877   4.826   6.722
    4POPC   C3B  600   8.829   4.806   6.271
    4POPC   C4B  601   8.916   4.496   5.973
    5POPC   NC3  602   1.409   0.517   8.098
    5POPC   PO4  603   0.851   0.819   7.979
    5POPC   GL1  604   1.015   0.448   7.723
    5POPC   GL2  605   1.249   0.151   7.769
    5POPC   C1A  606   0.926   0.338   7.289
    5POPC   D2A  607   0.818   0.518   6.888
    5POPC   C3A  608   0.845   0.181   6.602
    5POPC   C4A  609   0.869  11.486   6.229
    5POPC   C1B  610   1.436   0.380   7.404
    5POPC   C2B  611   1.334   0.530   6.968
    5POPC   C3B  612   1.220   0.514   6.524
    5POPC   C4B  613   1.288   0.258   6.171
    6POPC   NC3  614   7.828   2.587   8.010
    6POPC   PO4  615   7.587   3.167   8.021
    6POPC   GL1  616   7.481   2.862   7.665
    6POPC   GL2  617   7.121   2.751   7.659
    6POPC   C1A  618   7.474   2.810   7.186
    6POPC   D2A  619   7.348   2.876   6.727
    6POPC   C3A  620   7.589   2.776   6.326
    6POPC   C4A  621   7.645   2.913   5.878
    6POPC   C1B  622   7.184   2.428   7.359
    6POPC   C2B  623   7.188   2.403   6.905
    6POPC   C3B  624   7.099   2.508   6.459
    6POPC   C4B  625   7.266   2.479   6.048
    7POPC   NC3  626   2.107   5.670   8.143
    7POPC   PO4  627   1.638   6.108   8.055
    7POPC   GL1  628   1.657   5.952   7.671
    7POPC   GL2  629   2.015   5.922   7.659
    7POPC   C1A  630   1.648   6.131   7.254
    7POPC   D2A  631   1.835   6.011   6.884
    7POPC   C3A  632   1.684   6.056   6.461
    7POPC   C4A  633   1.716   5.690   6.225
    7POPC   C1B  634   1.849   5.656   7.313
    7POPC   C2B  635   1.991   5.523   6.914
    7POPC   C3B  636   2.096   5.734   6.536
    7POPC   C4B  637   2.181   5.767   6.067
    8POPC   NC3  638   0.399   5.473   8.150
    8POPC   PO4  639   0.033   4.969   8.126
    8POPC   GL1  640   0.237   5.006   7.794
    8POPC   GL2  641   0.559   5.062   7.857
    8POPC   C1A  642   0.117   4.846   7.376
    8POPC   D2A  643   0.176   4.640   6.968
    8POPC   C3A  644   0.003   4.784   6.596
    8POPC   C4A  645   0.208   4.861   6.237
    8POPC   C1B  646   0.562   5.141   7.438
    8POPC   C2B  647   0.500   5.029   7.026
    8POPC   C3B  648   0.445   5.154   6.572
    8POPC   C4B  649   0.621   5.155   6.149
    9POPC   NC3  650  11.195   5.285   8.139
    9POPC   PO4  651  11.081   4.634   8.346
    9POPC   GL1  652  11.132   4.777   7.851
    9POPC   GL2  653  11.257   5.102   7.694
    9POPC   C1A  654  11.069   4.795   7.374
    9POPC   D2A  655  11.046   5.077   6.980
    9POPC   C3A  656  10.972   4.903   6.584
    9POPC   C4A  657  11.087   4.821   6.184
    9POPC   C1B  658  11.370   5.288   7.313
    9POPC   C2B  659   0.046   5.197   6.889
    9POPC   C3B  660  11.414   5.267   6.408
    9POPC   C4B  661  11.179   5.291   5.979
   10POPC   NC3  662  11.327   8.220   8.123
   10POPC   PO4  663  10.672   8.378   8.076
   10POPC   GL1  664  10.921   8.261   7.676
   10POPC   GL2  665  11.282   8.243   7.618
   10POPC   C1A  666  10.994   8.272   7.200
   10POPC   D2A  667  10.912   8.476   6.835
   10POPC   C3A  668  11.044   8.196   6.583
   10POPC   C4A  669  10.992   8.043   6.193
   10POPC   C1B  670  11.387   7.942   7.289
   10POPC   C2B  671  11.459   8.098   6.888
   10POPC   C3B  672  11.477   7.977   6.476
   10POPC   C4B  673  11.422   8.294   6.193
   11POPC   NC3  674   3.552   2.429   8.046
   11POPC   PO4  675   4.204   2.538   8.293
   11POPC   GL1  676   3.970   2.518   7.797
   11POPC   GL2  677   3.616   2.741   7.641
   11POPC   C1A  678   3.854   2.415   7.358
   11POPC   D2A  679   3.673   2.668   7.082
   11POPC   C3A  680   3.780   2.542   6.697
   11POPC   C4A  681   3.737   2.805   6.372
   11POPC   C1B  682   3.222   2.811   7.299
   11POPC   C2B  683   3.087   2.960   6.878
   11POPC   C3B  684   3.202   2.840   6.446
   11POPC   C4B  685   3.408   3.159   6.187
   12POPC   NC3  686   4.784   7.970   8.047
   12POPC   PO4  687   5.155   7.566   7.953
   12POPC   GL1  688   5.047   7.882   7.600
   12POPC   GL2  689   5.091   8.230   7.706
   12POPC   C1A  690   4.961   7.903   7.122
   12POPC   D2A  691   5.129   7.902   6.680
   12POPC   C3A  692   4.801   7.953   6.342
   12POPC   C4A  693   4.427   8.086   6.084
   12POPC   C1B  694   5.207   8.318   7.257
   12POPC   C2B  695   5.004   8.385   6.830
   12POPC   C3B  696   5.183   8.316   6.381
   12POPC   C4B  697   5.252   7.955   6.087
   13POPC   NC3  698   8.496   0.971   7.965
   13POPC   PO4  699   7.791   0.992   8.152
   13POPC   GL1  700   8.028   1.134   7.765
   13POPC   GL2  701   7.814   1.370   7.554
   13POPC   C1A  702   8.141   0.933   7.361
   13POPC   D2A  703   7.973   1.043   6.936
   13POPC   C3A  704   8.252   0.965   6.588
   13POPC   C4A  705   8.288   1.105   6.164
   13POPC   C1B  706   8.165   1.431   7.256
   13POPC   C2B  707   8.249   1.454   6.800
   13POPC   C3B  708   7.946   1.355   6.459
   13POPC   C4B  709   7.762   1.641   6.164
   14POPC   NC3  710   1.119   9.585   8.106
   14POPC   PO4  711   0.857  10.202   8.130
   14POPC   GL1  712   1.031   9.944   7.753
   14POPC   GL2  713   1.401   9.861   7.747
   14POPC   C1A  714   0.864   9.937   7.336
   14POPC   D2A  715   1.121   9.936   6.969
   14POPC   C3A  716   1.074   9.660   6.615
   14POPC   C4A  717   1.146   9.874   6.237
   14POPC   C1B  718   1.297   9.647   7.370
   14POPC   C2B  719   1.473   9.539   6.972
   14POPC   C3B  720   1.595   9.644   6.578
   14POPC   C4B  721   1.476   9.497   6.181
   15POPC   NC3  722   1.263  10.570   8.193
   15POPC   PO4  723   0.726  10.700   7.824
   15POPC   GL1  724   0.972  10.437   7.652
   15POPC   GL2  725   1.338  10.403   7.698
   15POPC   C1A  726   1.062  10.395   7.244
   15POPC   D2A  727   1.317  10.481   6.921
   15POPC   C3A  728   1.138  10.282   6.566
   15POPC   C4A  729   0.910  10.323   6.190
   15POPC   C1B  730   1.533  10.204   7.316
   15POPC   C2B  731   1.610  10.055   6.874
   15POPC   C3B  732   1.612  10.133   6.408
   15POPC   C4B  733   1.396  10.371   6.099
   16POPC   NC3  734   3.614   9.382   8.261
   16POPC   PO4  735   3.075   9.224   7.979
   16POPC   GL1  736   3.443   9.476   7.765
   16POPC   GL2  737   3.673   9.777   7.823
   16POPC   C1A  738   3.473   9.568   7.316
   16POPC   D2A  739   3.333   9.735   6.904
   16POPC   C3A  740   3.303   9.546   6.462
   16POPC   C4A  741   3.200   9.521   6.019
   16POPC   C1B  742   3.739   9.996   7.386
   16POPC   C2B  743   3.827   9.952   6.911
   16POPC   C3B  744   3.788   9.735   6.475
   16POPC   C4B  745   3.670   9.733   6.012
   17POPC   NC3  746  10.447   1.248   8.264
   17POPC   PO4  747  10.396   1.826   7.986
   17POPC   GL1  748  10.335   1.540   7.657
   17POPC   GL2  749  10.461   1.202   7.722
   17POPC   C1A  750  10.560   1.433   7.263
   17POPC   D2A  751  10.672   1.243   6.879
   17POPC   C3A  752  10.617   1.570   6.616
   17POPC   C4A  753  10.509   1.555   6.212
   17POPC   C1B  754  10.127   1.167   7.374
   17POPC   C2B  755  10.203   1.043   6.963
   17POPC   C3B  756  10.233   1.211   6.544
   17POPC   C4B  757  10.245   1.068   6.089
   18POPC   NC3  758   3.823  11.344   8.164
   18POPC   PO4  759   3.278   0.054   7.844
   18POPC   GL1  760   3.633  11.393   7.684
   18POPC   GL2  761   3.563  11.047   7.687
   18POPC   C1A  762   3.760  11.339   7.278
   18POPC   D2A  763   3.718  11.041   6.950
   18POPC   C3A  764   3.686  11.199   6.573
   18POPC   C4A  765   3.738   0.018   6.289
   18POPC   C1B  766   3.298  11.067   7.292
   18POPC   C2B  767   3.229  10.920   6.851
   18POPC   C3B  768   3.271  10.990   6.398
   18POPC   C4B  769   3.596  11.002   6.072
   19POPC   NC3  770  11.308   6.278   8.096
   19POPC   PO4  771  11.200   6.907   7.895
   19POPC   GL1  772  11.223   6.727   7.565
   19POPC   GL2  773  11.278   6.380   7.612
   19POPC   C1A  774  11.120   6.850   7.173
   19POPC   D2A  775  11.101   7.009   6.762
   19POPC   C3A  776  11.212   6.803   6.324
   19POPC   C4A  777  10.898   6.945   5.943
   19POPC   C1B  778  11.198   6.344   7.198
   19POPC   C2B  779  11.047   6.500   6.812
   19POPC   C3B  780  11.063   6.312   6.445
   19POPC   C4B  781  11.467   6.239   6.262
   20POPC   NC3  782  10.459   0.264   8.444
   20POPC   PO4  783  10.971   0.057   8.123
   20POPC   GL1  784  10.737   0.251   7.743
   20POPC   GL2  785  10.359   0.350   7.745
   20POPC   C1A  786  10.567   0.244   7.283
   20POPC   D2A  787  10.482   0.009   6.907
   20POPC   C3A  788  10.559   0.235   6.534
   20POPC   C4A  789  10.679   0.191   6.109
   20POPC   C1B  790  10.328   0.673   7.373
   20POPC   C2B  791  10.466   0.609   6.921
   20POPC   C3B  792  10.283   0.693   6.512
   20POPC   C4B  793  10.222   0.428   6.184
   21POPC   NC3  794   6.970   1.075   7.967
   21POPC   PO4  795   6.280   1.140   8.047
   21POPC   GL1  796   6.523   0.946   7.701
   21POPC   GL2  797   6.293   0.754   7.496
   21POPC   C1A  798   6.845   1.021   7.348
   21POPC   D2A  799   6.796   1.241   6.979
   21POPC   C3A  800   6.596   0.998   6.689
   21POPC   C4A  801   6.558   1.236   6.341
   21POPC   C1B  802   6.339   1.138   7.237
   21POPC   C2B  803   6.295   1.467   6.906
   21POPC   C3B  804   6.361   1.685   6.490
   21POPC   C4B  805   6.207   1.506   6.103
   22POPC   NC3  806   9.056  11.028   8.109
   22POPC   PO4  807   9.299  10.502   7.891
   22POPC   GL1  808   9.082  10.834   7.633
   22POPC   GL2  809   9.014  11.233   7.654
   22POPC   C1A  810   8.928  10.899   7.225
   22POPC   D2A  811   8.643  10.775   6.901
   22POPC   C3A  812   8.687  10.986   6.524
   22POPC   C4A  813   8.995  10.978   6.267
   22POPC   C1B  814   8.649  11.300   7.378
   22POPC   C2B  815   8.752  11.305   6.936
   22POPC   C3B  816   8.667   0.007   6.535
   22POPC   C4B  817   8.750  11.424   6.109
   23POPC   NC3  818   0.487   1.087   7.864
   23POPC   PO4  819   0.814   1.604   7.985
   23POPC   GL1  820   0.665   1.491   7.605
   23POPC   GL2  821   0.275   1.480   7.632
   23POPC   C1A  822   0.577   1.558   7.188
   23POPC   D2A  823   0.490   1.309   6.832
   23POPC   C3A  824   0.469   1.590   6.494
   23POPC   C4A  825   0.289   1.542   6.093
   23POPC   C1B  826   0.141   1.241   7.270
   23POPC   C2B  827  11.463   1.080   6.911
   23POPC   C3B  828   0.078   1.230   6.505
   23POPC   C4B  829   0.464   1.063   6.309
   24POPC   NC3  830   4.244   8.609   8.189
   24POPC   PO4  831   4.056   9.222   8.172
   24POPC   GL1  832   4.065   9.013   7.802
   24POPC   GL2  833   4.388   8.954   7.722
   24POPC   C1A  834   4.037   8.942   7.339
   24POPC   D2A  835   4.148   8.621   7.019
   24POPC   C3A  836   4.096   8.719   6.554
   24POPC   C4A  837   4.094   8.485   6.162
   24POPC   C1B  838   4.536   8.880   7.278
   24POPC   C2B  839   4.420   9.013   6.838
   24POPC   C3B  840   4.529   8.939   6.395
   24POPC   C4B  841   4.684   9.137   6.036
   25POPC   NC3  842   3.541   1.356   8.174
   25POPC   PO4  843   3.215   0.703   8.058
   25POPC   GL1  844   3.264   0.880   7.647
   25POPC   GL2  845   3.527   1.129   7.560
   25POPC   C1A  846   3.155   1.025   7.235
   25POPC   D2A  847   3.351   1.083   6.833
   25POPC   C3A  848   3.148   1.096   6.429
   25POPC   C4A  849   3.167   1.462   6.140
   25POPC   C1B  850   3.828   1.392   7.279
   25POPC   C2B  851   3.988   1.515   6.854
   25POPC   C3B  852   3.914   1.463   6.414
   25POPC   C4B  853   3.618   1.188   6.340
   26POPC   NC3  854   5.621   9.647   8.263
   26POPC   PO4  855   6.103   9.983   8.218
   26POPC   GL1  856   5.935   9.739   7.793
   26POPC   GL2  857   5.603   9.551   7.759
   26POPC   C1A  858   5.948   9.873   7.313
   26POPC   D2A  859   6.166   9.766   6.897
   26POPC   C3A  860   5.951   9.815   6.486
   26POPC   C4A  861   5.992   9.869   6.037
   26POPC   C1B  862   5.638   9.469   7.316
   26POPC   C2B  863   5.633   9.635   6.885
   26POPC   C3B  864   5.505   9.499   6.460
   26POPC   C4B  865   5.714   9.443   6.042
   27POPC   NC3  866  11.117  10.425   8.010
   27POPC   PO4  867  10.725   9.904   7.773
   27POPC   GL1  868  11.092  10.101   7.594
   27POPC   GL2  869  11.110  10.481   7.514
   27POPC   C1A  870  11.189  10.057   7.180
   27POPC   D2A  871  10.926  10.123   6.833
   27POPC   C3A  872  11.180  10.312   6.566
   27POPC   C4A  873  11.247  10.153   6.166
   27POPC   C1B  874  10.811  10.773   7.302
   27POPC   C2B  875  10.991  10.673   6.921
   27POPC   C3B  876  11.085  10.846   6.525
   27POPC   C4B  877  11.326  10.661   6.232
   28POPC   NC3  878   5.442   0.126   7.912
   28POPC   PO4  879   5.014   0.592   8.222
   28POPC   GL1  880   5.217   0.548   7.761
   28POPC   GL2  881   5.121   0.275   7.537
   28POPC   C1A  882   5.366   0.606   7.270
   28POPC   D2A  883   5.075   0.358   6.972
   28POPC   C3A  884   5.164   0.325   6.522
   28POPC   C4A  885   5.266   0.668   6.293
   28POPC   C1B  886   4.878   0.645   7.385
   28POPC   C2B  887   4.637   0.682   7.019
   28POPC   C3B  888   4.767   0.679   6.583
   28POPC   C4B  889   4.802   0.980   6.251
   29POPC   NC3  890   8.698   2.606   8.078
   29POPC   PO4  891   8.179   2.902   8.002
   29POPC   GL1  892   8.542   2.914   7.673
   29POPC   GL2  893   8.750   2.601   7.547
   29POPC   C1A  894   8.839   3.068   7.337
   29POPC   D2A  895   8.943   3.349   6.969
   29POPC   C3A  896   8.977   3.182   6.539
   29POPC   C4A  897   8.684   3.034   6.185
   29POPC   C1B  898   9.061   2.627   7.182
   29POPC   C2B  899   8.992   2.651   6.740
   29POPC   C3B  900   9.054   2.709   6.313
   29POPC   C4B  901   9.049   2.565   5.883
   30POPC   NC3  902   7.316  10.629   8.239
   30POPC   PO4  903   7.155  10.821   7.690
   30POPC   GL1  904   7.318  10.458   7.550
   30POPC   GL2  905   7.448  10.223   7.807
   30POPC   C1A  906   7.292  10.414   7.120
   30POPC   D2A  907   7.013  10.514   6.790
   30POPC   C3A  908   7.249  10.738   6.502
   30POPC   C4A  909   7.534  10.677   6.193
   30POPC   C1B  910   7.661  10.103   7.403
   30POPC   C2B  911   7.675  10.147   6.960
   30POPC   C3B  912   7.510  10.306   6.594
   30POPC   C4B  913   7.482  10.134   6.188
   31POPC   NC3  914  10.248   4.554   7.650
   31POPC   PO4  915  10.088   4.035   7.902
   31POPC   GL1  916   9.972   4.143   7.491
   31POPC   GL2  917   9.703   4.349   7.511
   31POPC   C1A  918  10.039   4.308   7.057
   31POPC   D2A  919  10.168   4.671   6.775
   31POPC   C3A  920  10.060   4.600   6.336
   31POPC   C4A  921   9.783   4.262   6.210
   31POPC   C1B  922   9.537   4.097   7.153
   31POPC   C2B  923   9.328   3.911   6.773
   31POPC   C3B  924   9.319   4.133   6.393
   31POPC   C4B  925   9.319   4.593   6.333
   32POPC   NC3  926   0.337   2.101   7.988
   32POPC   PO4  927   0.963   2.360   7.912
   32POPC   GL1  928   0.792   2.020   7.636
   32POPC   GL2  929   0.452   1.945   7.542
   32POPC   C1A  930   0.752   2.116   7.201
   32POPC   D2A  931   0.476   1.969   6.885
   32POPC   C3A  932   0.721   2.057   6.549
   32POPC   C4A  933   0.857   1.915   6.165
   32POPC   C1B  934   0.132   1.819   7.279
   32POPC   C2B  935   0.083   1.609   6.891
   32POPC   C3B  936  11.480   1.762   6.471
   32POPC   C4B  937   0.294   2.035   6.270
   33POPC   NC3  938   9.424   5.659   8.275
   33POPC   PO4  939   9.876   6.064   8.154
   33POPC   GL1  940   9.930   5.805   7.759
   33POPC   GL2  941  10.129   6.004   7.562
   33POPC   C1A  942   9.888   5.651   7.304
   33POPC   D2A  943   9.853   5.797   6.863
   33POPC   C3A  944   9.743   5.593   6.481
   33POPC   C4A  945   9.865   5.669   6.065
   33POPC   C1B  946   9.899   6.179   7.208
   33POPC   C2B  947   9.802   6.302   6.754
   33POPC   C3B  948   9.699   6.091   6.357
   33POPC   C4B  949   9.431   5.915   6.035
   34POPC   NC3  950   5.077   1.079   8.176
   34POPC   PO4  951   5.681   0.726   8.127
   34POPC   GL1  952   5.426   0.996   7.774
   34POPC   GL2  953   5.174   1.286   7.720
   34POPC   C1A  954   5.382   1.100   7.307
   34POPC   D2A  955   5.083   0.947   6.987
   34POPC   C3A  956   5.186   1.066   6.586
   34POPC   C4A  957   5.257   1.179   6.136
   34POPC   C1B  958   4.904   1.299   7.329
   34POPC   C2B  959   4.775   1.391   6.895
   34POPC   C3B  960   4.898   1.457   6.455
   34POPC   C4B  961   4.998   1.611   6.036
   35POPC   NC3  962   7.693   9.178   8.065
   35POPC   PO4  963   8.429   9.242   8.036
   35POPC   GL1  964   8.313   9.039   7.651
   35POPC   GL2  965   7.985   9.025   7.677
   35POPC   C1A  966   8.172   8.837   7.237
   35POPC   D2A  967   8.078   8.707   6.792
   35POPC   C3A  968   8.376   8.704   6.441
   35POPC   C4A  969   8.317   8.841   6.024
   35POPC   C1B  970   7.788   9.149   7.284
   35POPC   C2B  971   7.962   9.205   6.852
   35POPC   C3B  972   8.039   9.104   6.396
   35POPC   C4B  973   7.853   9.057   5.949
   36POPC   NC3  974   8.911  10.359   8.111
   36POPC   PO4  975   8.558  11.013   8.111
   36POPC   GL1  976   8.591  10.632   7.736
   36POPC   GL2  977   8.860  10.363   7.621
   36POPC   C1A  978   8.518  10.460   7.274
   36POPC   D2A  979   8.595  10.267   6.838
   36POPC   C3A  980   8.387  10.554   6.499
   36POPC   C4A  981   8.548  10.726   6.094
   36POPC   C1B  982   9.066  10.401   7.211
   36POPC   C2B  983   9.127  10.641   6.816
   36POPC   C3B  984   8.900  10.513   6.457
   36POPC   C4B  985   8.949  10.125   6.297
   37POPC   NC3  986   7.078   8.779   7.959
   37POPC   PO4  987   7.753   8.632   8.185
   37POPC   GL1  988   7.665   8.635   7.772
   37POPC   GL2  989   7.505   8.874   7.684
   37POPC   C1A  990   7.691   8.604   7.302
   37POPC   D2A  991   7.595   8.842   6.922
   37POPC   C3A  992   7.481   8.633   6.556
   37POPC   C4A  993   7.838   8.649   6.279
   37POPC   C1B  994   7.298   8.980   7.320
   37POPC   C2B  995   7.128   9.032   6.919
   37POPC   C3B  996   7.151   9.079   6.483
   37POPC   C4B  997   7.397   8.966   6.149
   38POPC   NC3  998   0.569  11.041   8.076
   38POPC   PO4  999   1.126  10.980   8.446
   38POPC   GL1 1000   1.168  10.975   7.905
   38POPC   GL2 1001   0.936  11.210   7.736
   38POPC   C1A 1002   1.242  10.864   7.411
   38POPC   D2A 1003   1.226  11.046   6.961
   38POPC   C3A 1004   1.217  10.819   6.553
   38POPC   C4A 1005   0.963  10.851   6.194
   38POPC   C1B 1006   1.155  11.375   7.358
   38POPC   C2B 1007   1.432   0.020   7.036
   38POPC   C3B 1008   1.348   0.023   6.622
   38POPC   C4B 1009   1.306  11.255   6.287
   39POPC   NC3 1010   9.374   8.534   8.047
   39POPC   PO4 1011   9.278   7.877   8.026
   39POPC   GL1 1012   9.586   8.054   7.703
   39POPC   GL2 1013   9.826   8.344   7.680
   39POPC   C1A 1014   9.632   8.021   7.248
   39POPC   D2A 1015   9.829   7.782   6.902
   39POPC   C3A 1016   9.666   7.805   6.461
   39POPC   C4A 1017   9.721   7.788   6.017
   39POPC   C1B 1018   9.669   8.548   7.306
   39POPC   C2B 1019   9.535   8.431   6.894
   39POPC   C3B 1020   9.700   8.435   6.485
   39POPC   C4B 1021   9.512   8.220   6.134
   40POPC   NC3 1022   1.161   1.284   8.001
   40POPC   PO4 1023   1.726   0.864   8.100
   40POPC   GL1 1024   1.505   0.913   7.735
   40POPC   GL2 1025   1.557   1.243   7.651
   40POPC   C1A 1026   1.596   0.867   7.283
   40POPC   D2A 1027   1.743   0.825   6.842
   40POPC   C3A 1028   1.413   0.977   6.553
   40POPC   C4A 1029   1.030   0.964   6.288
   40POPC   C1B 1030   1.283   1.301   7.305
   40POPC   C2B 1031   1.286   1.364   6.857
   40POPC   C3B 1032   0.937   1.378   6.567
   40POPC   C4B 1033   0.803   1.408   6.140
   41POPC   NC3 1034   8.009   3.330   8.028
   41POPC   PO4 1035   8.341   3.815   7.915
   41POPC   GL1 1036   8.340   3.424   7.664
   41POPC   GL2 1037   8.003   3.503   7.533
   41POPC   C1A 1038   8.375   3.264   7.253
   41POPC   D2A 1039   8.438   3.554   6.909
   41POPC   C3A 1040   8.521   3.426   6.502
   41POPC   C4A 1041   8.316   3.387   6.118
   41POPC   C1B 1042   7.931   3.443   7.070
   41POPC   C2B 1043   8.037   3.289   6.637
   41POPC   C3B 1044   7.826   3.250   6.229
   41POPC   C4B 1045   7.474   3.392   5.958
   42POPC   NC3 1046  11.124   9.762   7.974
   42POPC   PO4 1047  10.671   9.195   7.851
   42POPC   GL1 1048  10.928   9.459   7.592
   42POPC   GL2 1049  11.292   9.556   7.551
   42POPC   C1A 1050  10.857   9.608   7.180
   42POPC   D2A 1051  10.660   9.457   6.790
   42POPC   C3A 1052  10.700   9.783   6.485
   42POPC   C4A 1053  10.894   9.800   6.056
   42POPC   C1B 1054  11.401   9.598   7.114
   42POPC   C2B 1055  11.138   9.646   6.753
   42POPC   C3B 1056  11.032   9.416   6.400
   42POPC   C4B 1057  11.339   9.524   6.091
   43POPC   NC3 1058  11.417   7.224   8.139
   43POPC   PO4 1059  11.152   7.824   7.917
   43POPC   GL1 1060  11.265   7.419   7.676
   43POPC   GL2 1061  10.983   7.204   7.560
   43POPC   C1A 1062  11.419   7.236   7.265
   43POPC   D2A 1063   0.068   6.938   6.926
   43POPC   C3A 1064   0.010   7.170   6.521
   43POPC   C4A 1065  11.369   7.536   6.268
   43POPC   C1B 1066  10.965   7.555   7.277
   43POPC   C2B 1067  11.016   7.799   6.911
   43POPC   C3B 1068  10.897   7.667   6.502
   43POPC   C4B 1069  10.967   7.248   6.350
   44POPC   NC3 1070   1.523   8.061   8.244
   44POPC   PO4 1071   0.850   8.140   8.284
   44POPC   GL1 1072   1.150   8.151   7.884
   44POPC   GL2 1073   1.077   8.489   7.728
   44POPC   C1A 1074   1.391   8.182   7.452
   44POPC   D2A 1075   1.507   8.271   7.002
   44POPC   C3A 1076   1.616   8.214   6.568
   44POPC   C4A 1077   1.373   8.109   6.194
   44POPC   C1B 1078   0.898   8.341   7.329
   44POPC   C2B 1079   1.047   8.069   7.032
   44POPC   C3B 1080   1.111   8.193   6.629
   44POPC   C4B 1081   0.894   8.291   6.251
   45POPC   NC3 1082   3.336   3.405   8.072
   45POPC   PO4 1083   2.698   3.240   8.062
   45POPC   GL1 1084   2.667   3.194   7.641
   45POPC   GL2 1085   2.471   3.492   7.599
   45POPC   C1A 1086   2.883   3.287   7.233
   45POPC   D2A 1087   2.749   3.386   6.792
   45POPC   C3A 1088   2.936   3.370   6.364
   45POPC   C4A 1089   2.980   3.816   6.160
   45POPC   C1B 1090   2.342   3.280   7.238
   45POPC   C2B 1091   2.141   3.507   6.935
   45POPC   C3B 1092   2.344   3.634   6.590
   45POPC   C4B 1093   2.413   3.276   6.374
   46POPC   NC3 1094  10.744   8.853   8.141
   46POPC   PO4 1095  11.306   9.328   8.083
   46POPC   GL1 1096  11.304   9.047   7.745
   46POPC   GL2 1097  11.163   8.704   7.860
   46POPC   C1A 1098  11.420   9.099   7.300
   46POPC   D2A 1099  11.264   9.150   6.864
   46POPC   C3A 1100  11.493   9.154   6.475
   46POPC   C4A 1101  11.209   9.012   6.168
   46POPC   C1B 1102  11.068   8.726   7.406
   46POPC   C2B 1103  11.353   8.645   7.025
   46POPC   C3B 1104  11.324   8.655   6.556
   46POPC   C4B 1105  10.991   8.562   6.238
   47POPC   NC3 1106   0.654   3.039   8.129
   47POPC   PO4 1107   0.195   2.526   8.106
   47POPC   GL1 1108   0.401   2.746   7.770
   47POPC   GL2 1109   0.539   2.462   7.634
   47POPC   C1A 1110   0.413   2.843   7.315
   47POPC   D2A 1111   0.507   2.971   6.918
   47POPC   C3A 1112   0.214   2.998   6.604
   47POPC   C4A 1113   0.415   2.942   6.215
   47POPC   C1B 1114   0.293   2.339   7.281
   47POPC   C2B 1115   0.336   2.477   6.881
   47POPC   C3B 1116   0.352   2.501   6.477
   47POPC   C4B 1117   0.685   2.447   6.213
   48POPC   NC3 1118   5.419   0.410   8.344
   48POPC   PO4 1119   5.949   0.205   7.920
   48POPC   GL1 1120   5.702   0.339   7.574
   48POPC   GL2 1121   5.752   0.626   7.608
   48POPC   C1A 1122   5.516   0.141   7.213
   48POPC   D2A 1123   5.592   0.368   6.819
   48POPC   C3A 1124   5.669   0.127   6.456
   48POPC   C4A 1125   5.415  11.404   6.215
   48POPC   C1B 1126   5.967   0.456   7.194
   48POPC   C2B 1127   6.244   0.694   6.987
   48POPC   C3B 1128   6.112   0.814   6.609
   48POPC   C4B 1129   5.875   0.550   6.251
   49POPC   NC3 1130  10.748   4.887   8.188
   49POPC   PO4 1131  10.767   5.519   8.093
   49POPC   GL1 1132  10.749   5.206   7.735
   49POPC   GL2 1133  10.467   5.015   7.761
   49POPC   C1A 1134  10.631   5.015   7.278
   49POPC   D2A 1135  10.536   5.070   6.829
   49POPC   C3A 1136  10.462   4.922   6.433
   49POPC   C4A 1137  10.666   5.088   6.128
   49POPC   C1B 1138  10.250   5.294   7.452
   49POPC   C2B 1139  10.176   5.383   6.976
   49POPC   C3B 1140  10.201   5.358   6.503
   49POPC   C4B 1141   9.884   5.165   6.195
   50POPC   NC3 1142   8.189  10.715   8.090
   50POPC   PO4 1143   8.499  10.175   8.019
   50POPC   GL1 1144   8.382  10.126   7.630
   50POPC   GL2 1145   8.104  10.399   7.625
   50POPC   C1A 1146   8.159  10.082   7.241
   50POPC   D2A 1147   8.106  10.397   6.934
   50POPC   C3A 1148   8.155  10.084   6.621
   50POPC   C4A 1149   8.422  10.104   6.254
   50POPC   C1B 1150   7.762  10.577   7.322
   50POPC   C2B 1151   7.633  10.747   6.920
   50POPC   C3B 1152   7.883  10.705   6.566
   50POPC   C4B 1153   7.943  10.370   6.269
   51POPC   NC3 1154   9.942   1.781   8.033
   51POPC   PO4 1155   9.349   1.565   8.301
   51POPC   GL1 1156   9.433   1.791   7.841
   51POPC   GL2 1157   9.631   2.128   7.772
   51POPC   C1A 1158   9.433   1.881   7.357
   51POPC   D2A 1159   9.708   1.894   6.943
   51POPC   C3A 1160   9.524   1.938   6.521
   51POPC   C4A 1161   9.323   1.782   6.142
   51POPC   C1B 1162   9.795   2.242   7.339
   51POPC   C2B 1163   9.510   2.378   6.979
   51POPC   C3B 1164   9.512   2.462   6.521
   51POPC   C4B 1165   9.852   2.256   6.252
   52POPC   NC3 1166  10.486   2.245   8.194
   52POPC   PO4 1167  10.829   1.746   8.313
   52POPC   GL1 1168  10.786   2.083   7.812
   52POPC   GL2 1169  10.408   2.077   7.570
   52POPC   C1A 1170  10.815   2.143   7.316
   52POPC   D2A 1171  10.562   1.912   6.994
   52POPC   C3A 1172  10.548   2.084   6.546
   52POPC   C4A 1173  10.552   2.071   6.087
   52POPC   C1B 1174  10.101   1.811   7.317
   52POPC   C2B 1175  10.144   1.554   6.953
   52POPC   C3B 1176  10.123   1.739   6.562
   52POPC   C4B 1177  10.106   1.832   6.138
   53POPC   NC3 1178   2.863   5.780   8.250
   53POPC   PO4 1179   3.268   6.132   8.026
   53POPC   GL1 1180   2.903   5.959   7.753
   53POPC   GL2 1181   2.595   5.703   7.718
   53POPC   C1A 1182   2.887   5.849   7.306
   53POPC   D2A 1183   2.960   6.083   6.916
   53POPC   C3A 1184   3.026   5.813   6.560
   53POPC   C4A 1185   3.172   5.864   6.139
   53POPC   C1B 1186   2.383   5.713   7.262
   53POPC   C2B 1187   2.512   5.570   6.804
   53POPC   C3B 1188   2.557   5.801   6.387
   53POPC   C4B 1189   2.676   5.919   5.955
   54POPC   NC3 1190   8.961   9.308   8.082
   54POPC   PO4 1191   9.084   9.963   8.263
   54POPC   GL1 1192   8.839   9.870   7.803
   54POPC   GL2 1193   8.817   9.545   7.649
   54POPC   C1A 1194   8.756   9.961   7.310
   54POPC   D2A 1195   8.955   9.881   6.854
   54POPC   C3A 1196   8.694   9.719   6.478
   54POPC   C4A 1197   8.729   9.617   5.992
   54POPC   C1B 1198   9.132   9.602   7.293
   54POPC   C2B 1199   9.201   9.341   6.953
   54POPC   C3B 1200   9.152   9.330   6.531
   54POPC   C4B 1201   9.145   9.656   6.252
   55POPC   NC3 1202   9.781   0.245   7.974
   55POPC   PO4 1203   9.277  11.423   8.097
   55POPC   GL1 1204   9.298   0.171   7.713
   55POPC   GL2 1205   9.457   0.507   7.633
   55POPC   C1A 1206   9.523   0.098   7.312
   55POPC   D2A 1207   9.472   0.345   6.944
   55POPC   C3A 1208   9.330   0.127   6.585
   55POPC   C4A 1209   9.308   0.328   6.188
   55POPC   C1B 1210   9.833   0.509   7.321
   55POPC   C2B 1211   9.913   0.620   6.866
   55POPC   C3B 1212   9.741   0.448   6.468
   55POPC   C4B 1213   9.764   0.493   6.007
   56POPC   NC3 1214   0.466   8.339   8.458
   56POPC   PO4 1215   0.215   8.194   7.881
   56POPC   GL1 1216   0.363   8.010   7.553
   56POPC   GL2 1217   0.690   8.047   7.677
   56POPC   C1A 1218   0.421   8.082   7.141
   56POPC   D2A 1219   0.635   8.255   6.826
   56POPC   C3A 1220   0.394   8.264   6.513
   56POPC   C4A 1221   0.365   8.069   6.147
   56POPC   C1B 1222   0.762   7.747   7.341
   56POPC   C2B 1223   0.709   7.704   6.878
   56POPC   C3B 1224   0.736   7.871   6.452
   56POPC   C4B 1225   0.763   7.867   5.937
   57POPC   NC3 1226   0.600   4.086   7.945
   57POPC   PO4 1227   0.415   3.442   8.144
   57POPC   GL1 1228   0.437   3.602   7.738
   57POPC   GL2 1229   0.579   3.273   7.650
   57POPC   C1A 1230   0.418   3.835   7.337
   57POPC   D2A 1231   0.638   3.917   6.932
   57POPC   C3A 1232   0.481   3.831   6.549
   57POPC   C4A 1233   0.651   3.713   6.132
   57POPC   C1B 1234   0.265   3.334   7.317
   57POPC   C2B 1235   0.394   3.466   6.919
   57POPC   C3B 1236   0.588   3.339   6.527
   57POPC   C4B 1237   0.225   3.439   6.243
   58POPC   NC3 1238   5.198  10.960   8.124
   58POPC   PO4 1239   4.962   0.058   7.966
   58POPC   GL1 1240   4.816  11.356   7.611
   58POPC   GL2 1241   4.945  11.068   7.680
   58POPC   C1A 1242   5.068  11.368   7.236
   58POPC   D2A 1243   5.255  11.378   6.831
   58POPC   C3A 1244   4.895  11.401   6.540
   58POPC   C4A 1245   4.917  11.471   6.108
   58POPC   C1B 1246   5.096  10.868   7.301
   58POPC   C2B 1247   5.209  10.828   6.873
   58POPC   C3B 1248   5.209  11.014   6.463
   58POPC   C4B 1249   5.163  10.938   6.037
   59POPC   NC3 1250   2.928   0.284   8.084
   59POPC   PO4 1251   2.470   0.819   7.949
   59POPC   GL1 1252   2.786   0.644   7.694
   59POPC   GL2 1253   2.593   0.348   7.677
   59POPC   C1A 1254   3.000   0.538   7.315
   59POPC   D2A 1255   2.908   0.296   6.948
   59POPC   C3A 1256   2.896   0.442   6.537
   59POPC   C4A 1257   2.879   0.235   6.157
   59POPC   C1B 1258   2.477   0.441   7.242
   59POPC   C2B 1259   2.305   0.706   6.898
   59POPC   C3B 1260   2.203   0.756   6.466
   59POPC   C4B 1261   2.492   0.727   6.057
   60POPC   NC3 1262   9.003   1.245   8.262
   60POPC   PO4 1263   8.385   1.412   8.087
   60POPC   GL1 1264   8.570   1.360   7.629
   60POPC   GL2 1265   8.803   1.091   7.577
   60POPC   C1A 1266   8.635   1.298   7.154
   60POPC   D2A 1267   8.877   1.258   6.778
   60POPC   C3A 1268   8.616   1.387   6.443
   60POPC   C4A 1269   8.673   1.358   5.966
   60POPC   C1B 1270   9.110   1.116   7.236
   60POPC   C2B 1271   9.208   0.819   6.933
   60POPC   C3B 1272   9.246   0.981   6.561
   60POPC   C4B 1273   9.081   1.292   6.264
   61POPC   NC3 1274   2.332  10.412   7.940
   61POPC   PO4 1275   1.729  10.691   8.120
   61POPC   GL1 1276   1.854  10.513   7.726
   61POPC   GL2 1277   1.861  10.132   7.739
   61POPC   C1A 1278   1.790  10.664   7.315
   61POPC   D2A 1279   1.686  10.846   6.930
   61POPC   C3A 1280   1.906  10.717   6.581
   61POPC   C4A 1281   1.808  10.660   6.181
   61POPC   C1B 1282   2.060  10.219   7.342
   61POPC   C2B 1283   1.996  10.373   6.935
   61POPC   C3B 1284   2.111  10.204   6.513
   61POPC   C4B 1285   2.026  10.235   6.060
   62POPC   NC3 1286   0.266   4.590   8.244
   62POPC   PO4 1287   0.070   4.070   7.984
   62POPC   GL1 1288   0.047   4.442   7.752
   62POPC   GL2 1289   0.380   4.530   7.743
   62POPC   C1A 1290   0.188   4.307   7.337
   62POPC   D2A 1291   0.157   4.081   6.966
   62POPC   C3A 1292   0.175   4.269   6.582
   62POPC   C4A 1293   0.240   4.066   6.190
   62POPC   C1B 1294   0.583   4.625   7.371
   62POPC   C2B 1295   0.688   4.502   6.956
   62POPC   C3B 1296   0.524   4.640   6.583
   62POPC   C4B 1297   0.553   4.462   6.183
   63POPC   NC3 1298   1.193   8.887   8.043
   63POPC   PO4 1299   1.564   9.495   8.104
   63POPC   GL1 1300   1.446   9.293   7.720
   63POPC   GL2 1301   1.097   9.237   7.670
   63POPC   C1A 1302   1.378   9.143   7.279
   63POPC   D2A 1303   1.095   9.173   6.941
   63POPC   C3A 1304   1.320   9.191   6.576
   63POPC   C4A 1305   1.237   9.067   6.183
   63POPC   C1B 1306   0.955   8.878   7.375
   63POPC   C2B 1307   1.144   8.653   6.982
   63POPC   C3B 1308   1.099   8.703   6.526
   63POPC   C4B 1309   0.809   8.770   6.163
   64POPC   NC3 1310   9.812  10.883   8.069
   64POPC   PO4 1311  10.187   0.044   8.134
   64POPC   GL1 1312  10.003  11.266   7.810
   64POPC   GL2 1313   9.630  11.269   7.735
   64POPC   C1A 1314   9.942  11.012   7.414
   64POPC   D2A 1315   9.787  11.167   7.012
   64POPC   C3A 1316   9.923  11.084   6.591
   64POPC   C4A 1317   9.859  10.831   6.230
   64POPC   C1B 1318   9.406  11.102   7.347
   64POPC   C2B 1319   9.277  11.149   6.881
   64POPC   C3B 1320   9.434  11.150   6.423
   64POPC   C4B 1321   9.246  11.325   6.001
   65POPC   NC3 1322   0.784   7.716   8.059
   65POPC   PO4 1323   1.406   7.648   8.068
   65POPC   GL1 1324   1.155   7.603   7.726
   65POPC   GL2 1325   1.116   7.252   7.804
   65POPC   C1A 1326   1.268   7.705   7.318
   65POPC   D2A 1327   1.454   7.765   6.940
   65POPC   C3A 1328   1.194   7.682   6.629
   65POPC   C4A 1329   1.130   7.652   6.225
   65POPC   C1B 1330   1.085   7.232   7.345
   65POPC   C2B 1331   0.939   7.126   6.908
   65POPC   C3B 1332   1.020   7.187   6.462
   65POPC   C4B 1333   1.462   7.277   6.339
   66POPC   NC3 1334   8.927   0.257   8.128
   66POPC   PO4 1335   9.198   0.833   8.145
   66POPC   GL1 1336   8.951   0.624   7.753
   66POPC   GL2 1337   8.763   0.288   7.656
   66POPC   C1A 1338   8.855   0.669   7.294
   66POPC   D2A 1339   8.658   0.820   6.888
   66POPC   C3A 1340   8.731   0.899   6.399
   66POPC   C4A 1341   8.635   0.832   5.926
   66POPC   C1B 1342   8.994   0.167   7.294
   66POPC   C2B 1343   8.838   0.316   6.921
   66POPC   C3B 1344   8.973   0.495   6.576
   66POPC   C4B 1345   8.770   0.424   6.203
   67POPC   NC3 1346   4.310   3.001   8.258
   67POPC   PO4 1347   3.692   3.134   8.100
   67POPC   GL1 1348   4.031   3.038   7.782
   67POPC   GL2 1349   4.359   2.824   7.730
   67POPC   C1A 1350   4.029   2.923   7.345
   67POPC   D2A 1351   4.167   2.769   6.939
   67POPC   C3A 1352   4.219   2.922   6.505
   67POPC   C4A 1353   4.406   3.090   6.121
   67POPC   C1B 1354   4.348   2.479   7.353
   67POPC   C2B 1355   4.171   2.271   6.943
   67POPC   C3B 1356   4.243   2.409   6.521
   67POPC   C4B 1357   4.572   2.585   6.257
   68POPC   NC3 1358   9.960   9.341   8.123
   68POPC   PO4 1359   9.803   8.729   8.018
   68POPC   GL1 1360   9.705   8.940   7.663
   68POPC   GL2 1361   9.336   9.006   7.732
   68POPC   C1A 1362   9.974   8.996   7.292
   68POPC   D2A 1363   9.930   8.758   6.873
   68POPC   C3A 1364   9.891   8.915   6.423
   68POPC   C4A 1365  10.024   9.206   6.056
   68POPC   C1B 1366   9.333   8.944   7.261
   68POPC   C2B 1367   9.441   8.928   6.785
   68POPC   C3B 1368   9.389   8.882   6.367
   68POPC   C4B 1369   9.183   8.485   6.400
   69POPC   NC3 1370  11.466   3.640   8.161
   69POPC   PO4 1371  10.729   3.550   7.944
   69POPC   GL1 1372  10.838   3.506   7.555
   69POPC   GL2 1373  11.125   3.316   7.675
   69POPC   C1A 1374  10.813   3.746   7.198
   69POPC   D2A 1375  10.864   3.622   6.769
   69POPC   C3A 1376  10.741   3.881   6.434
   69POPC   C4A 1377  10.968   3.730   6.049
   69POPC   C1B 1378  11.258   3.125   7.306
   69POPC   C2B 1379  11.342   3.261   6.875
   69POPC   C3B 1380  11.256   3.264   6.413
   69POPC   C4B 1381  11.016   2.985   6.143
   70POPC   NC3 1382   1.194   5.999   7.906
   70POPC   PO4 1383   0.884   5.443   8.098
   70POPC   GL1 1384   0.985   5.591   7.680
   70POPC   GL2 1385   1.339   5.544   7.694
   70POPC   C1A 1386   0.881   5.475   7.246
   70POPC   D2A 1387   0.675   5.492   6.863
   70POPC   C3A 1388   0.923   5.376   6.486
   70POPC   C4A 1389   1.055   5.456   6.047
   70POPC   C1B 1390   1.311   5.747   7.279
   70POPC   C2B 1391   1.223   5.589   6.860
   70POPC   C3B 1392   1.249   5.757   6.435
   70POPC   C4B 1393   1.324   5.914   6.025
   71POPC   NC3 1394   9.785   6.575   8.103
   71POPC   PO4 1395  10.412   6.430   7.881
   71POPC   GL1 1396  10.518   6.314   7.544
   71POPC   GL2 1397  10.797   6.452   7.523
   71POPC   C1A 1398  10.412   6.220   7.155
   71POPC   D2A 1399  10.569   6.317   6.761
   71POPC   C3A 1400  10.273   6.554   6.554
   71POPC   C4A 1401   9.977   6.526   6.258
   71POPC   C1B 1402  10.673   6.641   7.179
   71POPC   C2B 1403  10.640   6.822   6.814
   71POPC   C3B 1404  10.724   6.729   6.396
   71POPC   C4B 1405  10.419   6.759   6.078
   72POPC   NC3 1406   2.876   1.027   8.024
   72POPC   PO4 1407   3.071   1.610   8.064
   72POPC   GL1 1408   3.016   1.354   7.666
   72POPC   GL2 1409   2.690   1.179   7.598
   72POPC   C1A 1410   2.874   1.433   7.220
   72POPC   D2A 1411   2.743   1.629   6.874
   72POPC   C3A 1412   2.779   1.428   6.515
   72POPC   C4A 1413   2.632   1.633   6.174
   72POPC   C1B 1414   2.632   0.945   7.247
   72POPC   C2B 1415   2.844   0.829   6.876
   72POPC   C3B 1416   2.684   0.918   6.487
   72POPC   C4B 1417   2.391   1.191   6.297
   73POPC   NC3 1418   9.668   7.636   8.056
   73POPC   PO4 1419   9.621   7.003   8.096
   73POPC   GL1 1420   9.605   7.304   7.664
   73POPC   GL2 1421   9.823   7.611   7.560
   73POPC   C1A 1422   9.454   7.482   7.221
   73POPC   D2A 1423   9.488   7.412   6.737
   73POPC   C3A 1424   9.329   7.097   6.382
   73POPC   C4A 1425   9.368   6.847   5.962
   73POPC   C1B 1426   9.942   7.351   7.184
   73POPC   C2B 1427  10.018   7.333   6.735
   73POPC   C3B 1428   9.810   7.283   6.353
   73POPC   C4B 1429   9.864   7.007   6.008
   74POPC   NC3 1430  10.509   3.922   8.083
   74POPC   PO4 1431  10.658   4.546   7.891
   74POPC   GL1 1432  10.714   4.404   7.524
   74POPC   GL2 1433  10.494   4.121   7.581
   74POPC   C1A 1434  10.735   4.272   7.123
   74POPC   D2A 1435  10.669   4.571   6.834
   74POPC   C3A 1436  10.655   4.463   6.435
   74POPC   C4A 1437  10.643   4.604   6.015
   74POPC   C1B 1438  10.343   3.928   7.236
   74POPC   C2B 1439  10.451   3.943   6.852
   74POPC   C3B 1440  10.256   4.179   6.593
   74POPC   C4B 1441  10.321   4.157   6.205
   75POPC   NC3 1442   4.930  10.354   8.140
   75POPC   PO4 1443   5.498   9.991   7.996
   75POPC   GL1 1444   5.270  10.254   7.689
   75POPC   GL2 1445   5.103  10.585   7.727
   75POPC   C1A 1446   5.160  10.205   7.225
   75POPC   D2A 1447   5.072  10.248   6.758
   75POPC   C3A 1448   4.974   9.925   6.391
   75POPC   C4A 1449   4.953   9.913   5.885
   75POPC   C1B 1450   4.764  10.500   7.396
   75POPC   C2B 1451   4.693  10.629   6.926
   75POPC   C3B 1452   4.885  10.617   6.472
   75POPC   C4B 1453   5.070  10.357   6.121
   76POPC   NC3 1454   7.606   8.199   8.057
   76POPC   PO4 1455   7.018   8.329   7.915
   76POPC   GL1 1456   7.210   8.483   7.544
   76POPC   GL2 1457   7.433   8.236   7.575
   76POPC   C1A 1458   7.213   8.526   7.086
   76POPC   D2A 1459   7.160   8.222   6.763
   76POPC   C3A 1460   7.068   8.369   6.374
   76POPC   C4A 1461   7.058   8.609   6.001
   76POPC   C1B 1462   7.402   8.064   7.197
   76POPC   C2B 1463   7.613   7.996   6.814
   76POPC   C3B 1464   7.427   7.956   6.388
   76POPC   C4B 1465   7.526   7.826   5.946
   77POPC   NC3 1466   2.437  11.236   8.496
   77POPC   PO4 1467   3.055  11.391   8.311
   77POPC   GL1 1468   2.777  11.392   7.823
   77POPC   GL2 1469   2.551  11.120   7.793
   77POPC   C1A 1470   2.780  11.495   7.356
   77POPC   D2A 1471   2.894  11.296   6.942
   77POPC   C3A 1472   2.708  11.451   6.547
   77POPC   C4A 1473   2.439  11.425   6.182
   77POPC   C1B 1474   2.740  10.987   7.375
   77POPC   C2B 1475   2.690  10.845   6.955
   77POPC   C3B 1476   2.786  10.952   6.534
   77POPC   C4B 1477   2.627  10.927   6.113
   78POPC   NC3 1478   7.814   0.542   8.022
   78POPC   PO4 1479   8.525   0.512   8.069
   78POPC   GL1 1480   8.291   0.552   7.722
   78POPC   GL2 1481   8.146   0.234   7.725
   78POPC   C1A 1482   8.388   0.446   7.311
   78POPC   D2A 1483   8.208   0.585   6.954
   78POPC   C3A 1484   8.420   0.472   6.583
   78POPC   C4A 1485   8.237   0.584   6.208
   78POPC   C1B 1486   7.866   0.366   7.382
   78POPC   C2B 1487   7.820   0.247   6.967
   78POPC   C3B 1488   7.863   0.460   6.576
   78POPC   C4B 1489   7.727   0.193   6.268
   79POPC   NC3 1490   2.042   0.515   8.009
   79POPC   PO4 1491   2.456   0.064   8.182
   79POPC   GL1 1492   2.179   0.043   7.789
   79POPC   GL2 1493   1.921   0.269   7.586
   79POPC   C1A 1494   2.233  11.462   7.349
   79POPC   D2A 1495   2.420  11.498   6.960
   79POPC   C3A 1496   2.178   0.097   6.585
   79POPC   C4A 1497   2.156   0.345   6.201
   79POPC   C1B 1498   1.918   0.420   7.158
   79POPC   C2B 1499   1.755   0.323   6.745
   79POPC   C3B 1500   1.710   0.567   6.369
   79POPC   C4B 1501   1.699   0.439   5.950
   80POPC   NC3 1502  10.798   3.269   8.297
   80POPC   PO4 1503  10.117   3.319   8.240
   80POPC   GL1 1504  10.314   3.331   7.754
   80POPC   GL2 1505  10.337   3.644   7.644
   80POPC   C1A 1506  10.632   3.057   7.480
   80POPC   D2A 1507  10.811   3.234   7.098
   80POPC   C3A 1508  10.812   3.095   6.658
   80POPC   C4A 1509  10.732   3.382   6.331
   80POPC   C1B 1510  10.341   3.422   7.248
   80POPC   C2B 1511  10.217   3.493   6.828
   80POPC   C3B 1512  10.275   3.661   6.407
   80POPC   C4B 1513  10.476   3.709   6.007
   81POPC   NC3 1514  10.749   6.762   7.926
   81POPC   PO4 1515  10.543   7.389   8.058
   81POPC   GL1 1516  10.480   7.139   7.688
   81POPC   GL2 1517  10.127   7.197   7.663
   81POPC   C1A 1518  10.593   7.149   7.237
   81POPC   D2A 1519  10.705   7.334   6.842
   81POPC   C3A 1520  10.458   7.171   6.491
   81POPC   C4A 1521  10.545   7.267   6.097
   81POPC   C1B 1522  10.331   7.554   7.430
   81POPC   C2B 1523  10.337   7.650   6.992
   81POPC   C3B 1524  10.376   7.673   6.541
   81POPC   C4B 1525  10.156   7.570   6.145
   82POPC   NC3 1526   0.549   9.927   7.915
   82POPC   PO4 1527   0.800   9.241   8.079
   82POPC   GL1 1528   0.639   9.441   7.710
   82POPC   GL2 1529   0.274   9.471   7.711
   82POPC   C1A 1530   0.808   9.440   7.273
   82POPC   D2A 1531   0.650   9.712   6.905
   82POPC   C3A 1532   0.525   9.564   6.490
   82POPC   C4A 1533   0.838   9.453   6.190
   82POPC   C1B 1534   0.362   9.697   7.335
   82POPC   C2B 1535   0.259  10.026   7.052
   82POPC   C3B 1536   0.044   9.945   6.681
   82POPC   C4B 1537   0.173   9.883   6.256
   83POPC   NC3 1538   3.333   1.977   7.979
   83POPC   PO4 1539   3.916   1.645   8.240
   83POPC   GL1 1540   3.644   1.610   7.746
   83POPC   GL2 1541   3.532   1.954   7.511
   83POPC   C1A 1542   3.352   1.535   7.362
   83POPC   D2A 1543   3.478   1.664   6.992
   83POPC   C3A 1544   3.379   1.561   6.603
   83POPC   C4A 1545   3.524   1.815   6.275
   83POPC   C1B 1546   3.455   2.203   7.131
   83POPC   C2B 1547   3.291   2.474   6.814
   83POPC   C3B 1548   3.406   2.319   6.416
   83POPC   C4B 1549   3.812   2.313   6.234
   84POPC   NC3 1550   6.733  10.726   7.848
   84POPC   PO4 1551   7.072  10.233   8.183
   84POPC   GL1 1552   6.897  10.233   7.737
   84POPC   GL2 1553   6.515  10.274   7.718
   84POPC   C1A 1554   6.819  10.396   7.282
   84POPC   D2A 1555   6.500  10.565   6.977
   84POPC   C3A 1556   6.566  10.454   6.535
   84POPC   C4A 1557   6.743  10.810   6.363
   84POPC   C1B 1558   6.417  10.098   7.304
   84POPC   C2B 1559   6.595  10.063   6.867
   84POPC   C3B 1560   6.466   9.944   6.423
   84POPC   C4B 1561   6.520   9.937   5.943
   85POPC   NC3 1562   9.688   2.646   7.940
   85POPC   PO4 1563   9.078   2.435   7.900
   85POPC   GL1 1564   9.237   2.794   7.653
   85POPC   GL2 1565   9.447   2.569   7.498
   85POPC   C1A 1566   9.347   3.068   7.262
   85POPC   D2A 1567   9.427   2.883   6.850
   85POPC   C3A 1568   9.485   3.001   6.430
   85POPC   C4A 1569   9.488   2.769   6.070
   85POPC   C1B 1570   9.735   2.751   7.228
   85POPC   C2B 1571   9.970   2.630   6.878
   85POPC   C3B 1572   9.965   2.712   6.446
   85POPC   C4B 1573   9.951   2.990   6.127
   86POPC   NC3 1574   0.225   9.136   8.090
   86POPC   PO4 1575   0.069   8.556   8.363
   86POPC   GL1 1576   0.217   8.690   7.846
   86POPC   GL2 1577   0.568   8.877   7.779
   86POPC   C1A 1578   0.424   8.571   7.388
   86POPC   D2A 1579   0.633   8.733   6.992
   86POPC   C3A 1580   0.359   8.770   6.610
   86POPC   C4A 1581   0.307   8.625   6.171
   86POPC   C1B 1582   0.440   9.089   7.380
   86POPC   C2B 1583   0.495   9.217   6.933
   86POPC   C3B 1584   0.745   9.107   6.563
   86POPC   C4B 1585   0.450   9.119   6.205
   87POPC   NC3 1586   6.327   2.388   8.064
   87POPC   PO4 1587   6.952   2.394   7.999
   87POPC   GL1 1588   6.778   2.278   7.630
   87POPC   GL2 1589   6.601   2.575   7.588
   87POPC   C1A 1590   6.723   2.280   7.172
   87POPC   D2A 1591   6.680   2.491   6.773
   87POPC   C3A 1592   6.579   2.360   6.363
   87POPC   C4A 1593   6.780   2.633   6.039
   87POPC   C1B 1594   6.458   2.737   7.166
   87POPC   C2B 1595   6.436   2.942   6.736
   87POPC   C3B 1596   6.356   2.814   6.303
   87POPC   C4B 1597   6.124   2.933   5.921
   88POPC   NC3 1598   5.890  10.225   7.889
   88POPC   PO4 1599   5.379  10.544   8.250
   88POPC   GL1 1600   5.597  10.654   7.816
   88POPC   GL2 1601   5.848  10.846   7.617
   88POPC   C1A 1602   5.518  10.579   7.335
   88POPC   D2A 1603   5.625  10.500   6.874
   88POPC   C3A 1604   5.402  10.552   6.461
   88POPC   C4A 1605   5.494  10.574   5.971
   88POPC   C1B 1606   6.056  10.550   7.303
   88POPC   C2B 1607   6.082  10.270   6.966
   88POPC   C3B 1608   6.039  10.359   6.573
   88POPC   C4B 1609   5.740  10.236   6.272
   89POPC   NC3 1610   1.138   1.924   7.996
   89POPC   PO4 1611   1.588   2.341   8.323
   89POPC   GL1 1612   1.597   2.085   7.844
   89POPC   GL2 1613   1.289   2.176   7.582
   89POPC   C1A 1614   1.674   2.007   7.365
   89POPC   D2A 1615   1.372   2.187   7.063
   89POPC   C3A 1616   1.484   2.212   6.631
   89POPC   C4A 1617   1.158   2.310   6.332
   89POPC   C1B 1618   1.158   1.803   7.340
   89POPC   C2B 1619   0.990   1.773   6.921
   89POPC   C3B 1620   1.193   1.816   6.542
   89POPC   C4B 1621   1.281   1.559   6.214
   90POPC   NC3 1622   6.142   0.693   7.992
   90POPC   PO4 1623   6.890   0.596   7.976
   90POPC   GL1 1624   6.821   0.548   7.565
   90POPC   GL2 1625   6.921   0.230   7.475
   90POPC   C1A 1626   6.750   0.586   7.106
   90POPC   D2A 1627   6.606   0.465   6.723
   90POPC   C3A 1628   6.855   0.600   6.441
   90POPC   C4A 1629   6.705   0.825   6.113
   90POPC   C1B 1630   6.444   0.283   7.367
   90POPC   C2B 1631   6.307   0.141   6.982
   90POPC   C3B 1632   6.106   0.315   6.661
   90POPC   C4B 1633   6.213   0.188   6.268
   91POPC   NC3 1634   4.226   2.073   8.303
   91POPC   PO4 1635   3.787   2.048   7.922
   91POPC   GL1 1636   4.036   2.011   7.587
   91POPC   GL2 1637   4.139   1.692   7.557
   91POPC   C1A 1638   3.887   1.916   7.159
   91POPC   D2A 1639   3.745   2.013   6.722
   91POPC   C3A 1640   4.077   1.938   6.425
   91POPC   C4A 1641   4.286   2.177   6.065
   91POPC   C1B 1642   4.392   1.878   7.219
   91POPC   C2B 1643   4.416   1.780   6.782
   91POPC   C3B 1644   4.573   1.842   6.350
   91POPC   C4B 1645   4.541   1.772   5.893
   92POPC   NC3 1646   7.479  11.121   7.821
   92POPC   PO4 1647   6.805  11.179   7.996
   92POPC   GL1 1648   6.841  11.153   7.541
   92POPC   GL2 1649   7.169  11.247   7.408
   92POPC   C1A 1650   6.890  10.924   7.117
   92POPC   D2A 1651   7.204  11.121   6.853
   92POPC   C3A 1652   7.057  11.203   6.426
   92POPC   C4A 1653   7.099  10.904   6.026
   92POPC   C1B 1654   7.611  11.216   7.202
   92POPC   C2B 1655   7.801  11.230   6.816
   92POPC   C3B 1656   7.664  11.149   6.408
   92POPC   C4B 1657   7.415  11.317   6.095
   93POPC   NC3 1658   0.474  10.492   8.142
   93POPC   PO4 1659   0.094   9.932   7.925
   93POPC   GL1 1660   0.117  10.150   7.547
   93POPC   GL2 1661   0.430  10.327   7.604
   93POPC   C1A 1662   0.025  10.455   7.209
   93POPC   D2A 1663   0.226  10.618   6.819
   93POPC   C3A 1664   0.232  10.364   6.478
   93POPC   C4A 1665   0.595  10.072   6.508
   93POPC   C1B 1666   0.549  10.553   7.230
   93POPC   C2B 1667   0.815  10.723   6.922
   93POPC   C3B 1668   0.701  10.597   6.555
   93POPC   C4B 1669   0.519  10.629   6.162
   94POPC   NC3 1670   4.561   0.568   8.081
   94POPC   PO4 1671   4.038   0.162   7.883
   94POPC   GL1 1672   4.277   0.391   7.565
   94POPC   GL2 1673   4.606   0.318   7.649
   94POPC   C1A 1674   4.160   0.450   7.103
   94POPC   D2A 1675   3.857   0.314   6.733
   94POPC   C3A 1676   4.019   0.451   6.301
   94POPC   C4A 1677   4.382   0.710   6.165
   94POPC   C1B 1678   4.639   0.187   7.229
   94POPC   C2B 1679   4.564   0.227   6.791
   94POPC   C3B 1680   4.499   0.207   6.362
   94POPC   C4B 1681   4.418  11.363   6.077
   95POPC   NC3 1682   7.134   1.981   7.923
   95POPC   PO4 1683   7.750   2.134   8.163
   95POPC   GL1 1684   7.578   2.126   7.681
   95POPC   GL2 1685   7.437   1.791   7.537
   95POPC   C1A 1686   7.571   2.144   7.186
   95POPC   D2A 1687   7.409   1.949   6.792
   95POPC   C3A 1688   7.496   2.146   6.397
   95POPC   C4A 1689   7.466   2.013   5.979
   95POPC   C1B 1690   7.100   1.931   7.210
   95POPC   C2B 1691   6.897   2.003   6.759
   95POPC   C3B 1692   6.986   2.033   6.293
   95POPC   C4B 1693   6.751   2.143   5.927
   96POPC   NC3 1694  11.127   4.291   8.048
   96POPC   PO4 1695  11.042   3.678   8.352
   96POPC   GL1 1696  11.147   3.813   7.834
   96POPC   GL2 1697  10.966   3.992   7.660
   96POPC   C1A 1698  11.315   3.794   7.347
   96POPC   D2A 1699  11.161   4.015   6.917
   96POPC   C3A 1700  11.255   3.953   6.438
   96POPC   C4A 1701  10.962   4.211   6.138
   96POPC   C1B 1702  11.186   4.295   7.371
   96POPC   C2B 1703  11.177   4.531   6.965
   96POPC   C3B 1704  11.151   4.428   6.557
   96POPC   C4B 1705  11.410   4.445   6.185
   97POPC   NC3 1706   8.072   1.763   8.191
   97POPC   PO4 1707   8.571   2.180   8.174
   97POPC   GL1 1708   8.519   1.857   7.803
   97POPC   GL2 1709   8.195   1.699   7.708
   97POPC   C1A 1710   8.523   1.800   7.335
   97POPC   D2A 1711   8.274   1.936   6.974
   97POPC   C3A 1712   8.418   1.889   6.526
   97POPC   C4A 1713   8.271   1.653   6.192
   97POPC   C1B 1714   7.942   1.861   7.402
   97POPC   C2B 1715   7.798   1.690   7.013
   97POPC   C3B 1716   7.892   1.838   6.611
   97POPC   C4B 1717   8.017   2.103   6.266
   98POPC   NC3 1718  11.028   5.857   8.249
   98POPC   PO4 1719   0.120   6.000   7.888
   98POPC   GL1 1720  11.289   5.877   7.631
   98POPC   GL2 1721  11.112   5.599   7.724
   98POPC   C1A 1722  11.322   5.796   7.198
   98POPC   D2A 1723  11.240   5.573   6.815
   98POPC   C3A 1724  11.232   5.773   6.400
   98POPC   C4A 1725  11.016   5.979   6.048
   98POPC   C1B 1726  10.897   5.480   7.335
   98POPC   C2B 1727  10.748   5.518   6.927
   98POPC   C3B 1728  10.852   5.392   6.520
   98POPC   C4B 1729  10.773   5.566   6.146
   99POPC   NC3 1730   1.492   6.509   8.239
   99POPC   PO4 1731   0.897   6.386   7.963
   99POPC   GL1 1732   1.213   6.435   7.658
   99POPC   GL2 1733   1.310   6.776   7.694
   99POPC   C1A 1734   1.154   6.248   7.247
   99POPC   D2A 1735   1.309   6.098   6.838
   99POPC   C3A 1736   1.183   6.270   6.424
   99POPC   C4A 1737   1.491   6.393   6.114
   99POPC   C1B 1738   1.019   6.736   7.301
   99POPC   C2B 1739   1.152   6.622   6.879
   99POPC   C3B 1740   1.311   6.765   6.471
   99POPC   C4B 1741   1.086   6.716   6.097
  100POPC   NC3 1742   1.373   4.407   8.003
  100POPC   PO4 1743   0.716   4.614   8.101
  100POPC   GL1 1744   0.940   4.429   7.671
  100POPC   GL2 1745   1.286   4.157   7.568
  100POPC   C1A 1746   0.866   4.164   7.307
  100POPC   D2A 1747   1.109   4.072   6.920
  100POPC   C3A 1748   0.856   4.205   6.548
  100POPC   C4A 1749   1.006   4.148   6.127
  100POPC   C1B 1750   1.319   4.447   7.253
  100POPC   C2B 1751   1.247   4.546   6.833
  100POPC   C3B 1752   1.343   4.329   6.461
  100POPC   C4B 1753   1.402   4.531   6.089
  101POPC   NC3 1754   7.252   9.813   8.107
  101POPC   PO4 1755   7.242   9.211   7.934
  101POPC   GL1 1756   7.503   9.390   7.633
  101POPC   GL2 1757   7.462   9.720   7.658
  101POPC   C1A 1758   7.403   9.486   7.188
  101POPC   D2A 1759   7.483   9.392   6.767
  101POPC   C3A 1760   7.223   9.626   6.455
  101POPC   C4A 1761   7.152   9.425   6.067
  101POPC   C1B 1762   7.181   9.951   7.334
  101POPC   C2B 1763   7.144   9.996   6.852
  101POPC   C3B 1764   6.999  10.127   6.414
  101POPC   C4B 1765   7.039   9.943   5.974
  102POPC   NC3 1766   2.139   8.571   7.978
  102POPC   PO4 1767   1.495   8.521   8.083
  102POPC   GL1 1768   1.635   8.574   7.693
  102POPC   GL2 1769   1.772   8.889   7.730
  102POPC   C1A 1770   1.581   8.686   7.263
  102POPC   D2A 1771   1.656   8.927   6.876
  102POPC   C3A 1772   1.635   8.729   6.453
  102POPC   C4A 1773   1.775   8.438   6.107
  102POPC   C1B 1774   2.056   8.791   7.386
  102POPC   C2B 1775   2.172   8.892   7.012
  102POPC   C3B 1776   2.134   8.870   6.629
  102POPC   C4B 1777   2.118   8.827   6.224
  103POPC   NC3 1778   2.981   6.466   7.973
  103POPC   PO4 1779   2.448   5.987   8.120
  103POPC   GL1 1780   2.454   6.191   7.691
  103POPC   GL2 1781   2.526   6.523   7.696
  103POPC   C1A 1782   2.536   6.201   7.237
  103POPC   D2A 1783   2.470   6.063   6.806
  103POPC   C3A 1784   2.746   6.246   6.432
  103POPC   C4A 1785   2.559   6.439   6.050
  103POPC   C1B 1786   2.650   6.689   7.278
  103POPC   C2B 1787   2.657   6.534   6.856
  103POPC   C3B 1788   2.705   6.738   6.469
  103POPC   C4B 1789   2.914   6.828   6.092
  104POPC   NC3 1790   7.703   1.346   8.445
  104POPC   PO4 1791   7.185   1.509   7.954
  104POPC   GL1 1792   7.286   1.287   7.575
  104POPC   GL2 1793   7.484   0.986   7.714
  104POPC   C1A 1794   7.333   1.467   7.125
  104POPC   D2A 1795   7.474   1.451   6.664
  104POPC   C3A 1796   7.263   1.601   6.249
  104POPC   C4A 1797   7.443   1.501   5.800
  104POPC   C1B 1798   7.567   1.008   7.256
  104POPC   C2B 1799   7.238   1.002   6.919
  104POPC   C3B 1800   7.102   1.091   6.496
  104POPC   C4B 1801   7.486   1.144   6.242
  105POPC   NC3 1802   3.722  10.281   8.019
  105POPC   PO4 1803   3.272   9.842   8.154
  105POPC   GL1 1804   3.272  10.096   7.776
  105POPC   GL2 1805   3.254  10.478   7.787
  105POPC   C1A 1806   3.223  10.038   7.336
  105POPC   D2A 1807   3.363  10.241   6.957
  105POPC   C3A 1808   3.228  10.089   6.550
  105POPC   C4A 1809   3.508  10.154   6.239
  105POPC   C1B 1810   3.528  10.496   7.404
  105POPC   C2B 1811   3.772  10.536   7.017
  105POPC   C3B 1812   3.591  10.602   6.582
  105POPC   C4B 1813   3.839  10.560   6.194
  106POPC   NC3 1814   0.618   6.815   7.863
  106POPC   PO4 1815   0.182   6.508   8.284
  106POPC   GL1 1816   0.204   6.528   7.819
  106POPC   GL2 1817   0.462   6.328   7.647
  106POPC   C1A 1818   0.155   6.616   7.342
  106POPC   D2A 1819   0.134   6.406   6.926
  106POPC   C3A 1820   0.232   6.636   6.542
  106POPC   C4A 1821   0.275   6.640   6.107
  106POPC   C1B 1822   0.614   6.411   7.224
  106POPC   C2B 1823   0.607   6.730   6.908
  106POPC   C3B 1824   0.792   6.677   6.515
  106POPC   C4B 1825   0.694   6.367   6.235
  107POPC   NC3 1826   5.850  10.562   8.288
  107POPC   PO4 1827   5.607  11.229   8.107
  107POPC   GL1 1828   5.444  11.159   7.681
  107POPC   GL2 1829   5.716  11.340   7.601
  107POPC   C1A 1830   5.545  11.092   7.217
  107POPC   D2A 1831   5.889  10.933   6.996
  107POPC   C3A 1832   5.716  10.957   6.611
  107POPC   C4A 1833   5.838  10.741   6.265
  107POPC   C1B 1834   5.970  11.412   7.290
  107POPC   C2B 1835   5.849  11.427   6.899
  107POPC   C3B 1836   6.097  11.317   6.616
  107POPC   C4B 1837   5.958  11.236   6.253
  108POPC   NC3 1838   9.927   3.617   7.951
  108POPC   PO4 1839   9.878   3.030   7.809
  108POPC   GL1 1840   9.874   3.295   7.485
  108POPC   GL2 1841   9.875   3.648   7.427
  108POPC   C1A 1842   9.835   3.243   7.083
  108POPC   D2A 1843   9.875   3.113   6.731
  108POPC   C3A 1844   9.822   3.409   6.410
  108POPC   C4A 1845   9.636   3.384   6.008
  108POPC   C1B 1846   9.478   3.578   7.177
  108POPC   C2B 1847   9.412   3.399   6.754
  108POPC   C3B 1848   9.296   3.593   6.337
  108POPC   C4B 1849   9.479   3.863   5.991
  109POPC   NC3 1850   2.053   4.592   8.062
  109POPC   PO4 1851   2.047   3.995   8.139
  109POPC   GL1 1852   1.814   4.167   7.781
  109POPC   GL2 1853   2.145   4.186   7.646
  109POPC   C1A 1854   1.754   4.165   7.307
  109POPC   D2A 1855   1.628   4.185   6.857
  109POPC   C3A 1856   1.835   4.441   6.503
  109POPC   C4A 1857   1.899   4.757   6.147
  109POPC   C1B 1858   2.207   3.901   7.280
  109POPC   C2B 1859   2.123   4.018   6.854
  109POPC   C3B 1860   2.271   4.136   6.428
  109POPC   C4B 1861   2.001   4.189   6.080
  110POPC   NC3 1862  10.197   8.475   8.044
  110POPC   PO4 1863  10.345   9.119   8.262
  110POPC   GL1 1864  10.247   8.904   7.776
  110POPC   GL2 1865  10.553   8.693   7.694
  110POPC   C1A 1866  10.188   8.554   7.369
  110POPC   D2A 1867  10.424   8.568   6.943
  110POPC   C3A 1868  10.281   8.600   6.508
  110POPC   C4A 1869  10.251   8.753   6.065
  110POPC   C1B 1870  10.556   8.891   7.308
  110POPC   C2B 1871  10.798   8.983   6.989
  110POPC   C3B 1872  10.773   8.899   6.576
  110POPC   C4B 1873  10.696   8.978   6.171
  111POPC   NC3 1874   0.504   0.538   8.118
  111POPC   PO4 1875   0.304  11.415   8.078
  111POPC   GL1 1876   0.542   0.106   7.718
  111POPC   GL2 1877   0.516   0.470   7.596
  111POPC   C1A 1878   0.490   0.042   7.266
  111POPC   D2A 1879   0.376   0.254   6.866
  111POPC   C3A 1880   0.376   0.027   6.438
  111POPC   C4A 1881   0.469   0.139   5.967
  111POPC   C1B 1882   0.368   0.757   7.239
  111POPC   C2B 1883   0.365   0.797   6.784
  111POPC   C3B 1884   0.521   0.550   6.458
  111POPC   C4B 1885   0.830   0.506   6.169
  112POPC   NC3 1886  10.595   9.575   8.080
  112POPC   PO4 1887   9.953   9.812   8.202
  112POPC   GL1 1888  10.203   9.821   7.794
  112POPC   GL2 1889  10.366   9.533   7.641
  112POPC   C1A 1890  10.256   9.881   7.309
  112POPC   D2A 1891  10.061   9.660   6.970
  112POPC   C3A 1892  10.223   9.645   6.574
  112POPC   C4A 1893  10.018   9.707   6.167
  112POPC   C1B 1894  10.379   9.362   7.237
  112POPC   C2B 1895  10.289   9.110   6.879
  112POPC   C3B 1896  10.332   9.162   6.461
  112POPC   C4B 1897  10.486   9.464   6.148
  113POPC   NC3 1898   9.559  10.046   8.350
  113POPC   PO4 1899   9.302   9.588   7.916
  113POPC   GL1 1900   9.688   9.686   7.749
  113POPC   GL2 1901   9.876   9.428   7.630
  113POPC   C1A 1902   9.722   9.843   7.325
  113POPC   D2A 1903   9.543   9.725   6.921
  113POPC   C3A 1904   9.748   9.892   6.574
  113POPC   C4A 1905   9.542   9.937   6.193
  113POPC   C1B 1906   9.610   9.357   7.306
  113POPC   C2B 1907   9.771   9.259   6.922
  113POPC   C3B 1908   9.805   9.384   6.556
  113POPC   C4B 1909   9.579   9.403   6.239
  114POPC   NC3 1910  10.194  10.313   8.109
  114POPC   PO4 1911  10.869  10.096   8.237
  114POPC   GL1 1912  10.666  10.390   7.790
  114POPC   GL2 1913  10.352  10.289   7.637
  114POPC   C1A 1914  10.704  10.287   7.277
  114POPC   D2A 1915  10.497  10.418   6.910
  114POPC   C3A 1916  10.680  10.536   6.538
  114POPC   C4A 1917  10.755  10.233   6.288
  114POPC   C1B 1918  10.311  10.622   7.342
  114POPC   C2B 1919  10.068  10.715   6.976
  114POPC   C3B 1920  10.184  10.635   6.552
  114POPC   C4B 1921  10.352  10.481   6.130
  115POPC   NC3 1922  10.644   7.838   7.981
  115POPC   PO4 1923   9.975   8.014   8.054
  115POPC   GL1 1924  10.179   7.960   7.696
  115POPC   GL2 1925  10.414   8.191   7.663
  115POPC   C1A 1926  10.133   8.032   7.265
  115POPC   D2A 1927  10.018   8.261   6.927
  115POPC   C3A 1928  10.078   8.087   6.539
  115POPC   C4A 1929  10.084   8.263   6.140
  115POPC   C1B 1930  10.626   7.959   7.317
  115POPC   C2B 1931  10.580   8.077   6.872
  115POPC   C3B 1932  10.562   8.173   6.442
  115POPC   C4B 1933  10.522   7.907   6.095
  116POPC   NC3 1934   0.114   7.750   7.917
  116POPC   PO4 1935   0.602   7.297   7.869
  116POPC   GL1 1936   0.279   7.366   7.633
  116POPC   GL2 1937   0.150   7.029   7.667
  116POPC   C1A 1938   0.273   7.591   7.237
  116POPC   D2A 1939   0.037   7.587   6.841
  116POPC   C3A 1940   0.326   7.584   6.470
  116POPC   C4A 1941   0.661   7.449   6.183
  116POPC   C1B 1942   0.429   7.059   7.269
  116POPC   C2B 1943   0.449   7.258   6.868
  116POPC   C3B 1944   0.502   7.079   6.484
  116POPC   C4B 1945   0.675   6.969   6.080
  117POPC   NC3 1946   8.381   9.734   8.057
  117POPC   PO4 1947   7.679   9.629   8.150
  117POPC   GL1 1948   7.994   9.523   7.811
  117POPC   GL2 1949   7.968   9.860   7.736
  117POPC   C1A 1950   8.343   9.600   7.424
  117POPC   D2A 1951   8.436   9.734   6.957
  117POPC   C3A 1952   8.221   9.562   6.570
  117POPC   C4A 1953   8.074   9.733   6.211
  117POPC   C1B 1954   7.858   9.649   7.343
  117POPC   C2B 1955   7.903   9.710   6.935
  117POPC   C3B 1956   7.706   9.799   6.544
  117POPC   C4B 1957   7.656   9.418   6.270
  118POPC   NC3 1958   3.590   0.389   7.924
  118POPC   PO4 1959   3.803   1.038   7.965
  118POPC   GL1 1960   3.802   0.705   7.603
  118POPC   GL2 1961   3.784   0.345   7.461
  118POPC   C1A 1962   3.557   0.717   7.207
  118POPC   D2A 1963   3.343   0.554   6.835
  118POPC   C3A 1964   3.587   0.717   6.512
  118POPC   C4A 1965   3.649   0.756   6.058
  118POPC   C1B 1966   3.414   0.219   7.235
  118POPC   C2B 1967   3.373  11.446   6.910
  118POPC   C3B 1968   3.234   0.021   6.511
  118POPC   C4B 1969   3.360   0.367   6.247
  119POPC   NC3 1970  11.274   2.394   8.202
  119POPC   PO4 1971  10.726   2.737   8.231
  119POPC   GL1 1972  10.907   2.593   7.861
  119POPC   GL2 1973  11.231   2.788   7.862
  119POPC   C1A 1974  10.987   2.650   7.432
  119POPC   D2A 1975  10.867   2.736   7.037
  119POPC   C3A 1976  10.921   2.412   6.766
  119POPC   C4A 1977  10.917   2.409   6.316
  119POPC   C1B 1978  11.475   2.681   7.499
  119POPC   C2B 1979  11.428   2.725   7.044
  119POPC   C3B 1980  11.237   2.793   6.656
  119POPC   C4B 1981  11.417   2.718   6.292
  120POPC   NC3 1982   8.134  11.371   8.112
  120POPC   PO4 1983   7.740  10.832   8.120
  120POPC   GL1 1984   7.931  10.906   7.672
  120POPC   GL2 1985   7.941  11.251   7.612
  120POPC   C1A 1986   8.081  10.938   7.190
  120POPC   D2A 1987   8.286  11.108   6.811
  120POPC   C3A 1988   8.195  11.065   6.361
  120POPC   C4A 1989   8.011  10.823   6.033
  120POPC   C1B 1990   8.152  11.447   7.284
  120POPC   C2B 1991   8.328   0.095   6.936
  120POPC   C3B 1992   8.137   0.037   6.561
  120POPC   C4B 1993   8.269   0.078   6.171
  121POPC   NC3 1994   6.038   1.527   8.093
  121POPC   PO4 1995   5.377   1.569   8.108
  121POPC   GL1 1996   5.692   1.417   7.741
  121POPC   GL2 1997   5.921   1.101   7.695
  121POPC   C1A 1998   5.915   1.450   7.333
  121POPC   D2A 1999   5.773   1.354   6.921
  121POPC   C3A 2000   5.968   1.345   6.514
  121POPC   C4A 2001   5.744   1.314   6.084
  121POPC   C1B 2002   5.859   0.949   7.244
  121POPC   C2B 2003   5.599   0.877   6.868
  121POPC   C3B 2004   5.664   0.963   6.430
  121POPC   C4B 2005   6.111   0.990   6.149
  122POPC   NC3 2006  10.782   1.582   7.889
  122POPC   PO4 2007  11.382   1.948   8.097
  122POPC   GL1 2008  11.305   2.207   7.715
  122POPC   GL2 2009  11.201   1.879   7.576
  122POPC   C1A 2010  11.294   2.268   7.248
  122POPC   D2A 2011  11.477   2.111   6.893
  122POPC   C3A 2012  11.377   2.280   6.548
  122POPC   C4A 2013  11.364   2.240   6.137
  122POPC   C1B 2014  11.130   1.783   7.131
  122POPC   C2B 2015  11.019   1.922   6.720
  122POPC   C3B 2016  10.993   1.869   6.283
  122POPC   C4B 2017  10.899   1.676   5.880
  123POPC   NC3 2018   1.323   3.507   8.035
  123POPC   PO4 2019   1.060   4.074   7.998
  123POPC   GL1 2020   0.949   3.739   7.683
  123POPC   GL2 2021   1.275   3.594   7.531
  123POPC   C1A 2022   0.846   3.571   7.262
  123POPC   D2A 2023   1.125   3.547   6.912
  123POPC   C3A 2024   0.991   3.701   6.531
  123POPC   C4A 2025   1.148   3.657   6.125
  123POPC   C1B 2026   1.365   3.235   7.246
  123POPC   C2B 2027   1.497   3.190   6.791
  123POPC   C3B 2028   1.249   3.243   6.412
  123POPC   C4B 2029   1.333   3.200   5.928
  124POPC   NC3 2030   9.308  10.047   7.850
  124POPC   PO4 2031   9.746  10.456   8.233
  124POPC   GL1 2032   9.809  10.505   7.749
  124POPC   GL2 2033   9.831  10.173   7.730
  124POPC   C1A 2034   9.583  10.606   7.310
  124POPC   D2A 2035   9.528  10.236   7.003
  124POPC   C3A 2036   9.383  10.262   6.572
  124POPC   C4A 2037   9.388  10.633   6.332
  124POPC   C1B 2038   9.957  10.283   7.303
  124POPC   C2B 2039  10.059  10.164   6.892
  124POPC   C3B 2040  10.226  10.134   6.479
  124POPC   C4B 2041   9.896  10.290   6.225
  125POPC   NC3 2042  11.082   0.648   7.972
  125POPC   PO4 2043   0.163   0.850   8.071
  125POPC   GL1 2044   0.034   0.528   7.739
  125POPC   GL2 2045  11.293   0.230   7.739
  125POPC   C1A 2046   0.078   0.349   7.315
  125POPC   D2A 2047  11.414   0.536   6.941
  125POPC   C3A 2048   0.029   0.492   6.540
  125POPC   C4A 2049   0.020   0.273   6.189
  125POPC   C1B 2050  11.072   0.316   7.343
  125POPC   C2B 2051  10.957   0.231   6.917
  125POPC   C3B 2052  11.069   0.274   6.482
  125POPC   C4B 2053  11.068   0.530   6.176
  126POPC   NC3 2054   0.469   6.176   8.132
  126POPC   PO4 2055  11.456   5.653   8.243
  126POPC   GL1 2056   0.121   5.505   7.743
  126POPC   GL2 2057   0.480   5.674   7.707
  126POPC   C1A 2058   0.296   5.550   7.274
  126POPC   D2A 2059   0.316   5.873   6.987
  126POPC   C3A 2060   0.223   5.655   6.621
  126POPC   C4A 2061   0.377   5.622   6.227
  126POPC   C1B 2062   0.702   5.930   7.397
  126POPC   C2B 2063   0.831   5.969   6.964
  126POPC   C3B 2064   0.747   5.891   6.527
  126POPC   C4B 2065   0.813   5.893   6.090
  127POPC   NC3 2066  10.328   6.003   8.022
  127POPC   PO4 2067  10.854   6.283   8.204
  127POPC   GL1 2068  10.827   6.022   7.809
  127POPC   GL2 2069  10.600   5.755   7.677
  127POPC   C1A 2070  10.858   5.992   7.326
  127POPC   D2A 2071  10.969   5.995   6.881
  127POPC   C3A 2072  10.743   5.910   6.517
  127POPC   C4A 2073  10.574   6.237   6.242
  127POPC   C1B 2074  10.427   5.725   7.268
  127POPC   C2B 2075  10.358   5.839   6.845
  127POPC   C3B 2076  10.182   6.039   6.525
  127POPC   C4B 2077  10.318   5.793   6.252
  128POPC   NC3 2078   2.074   6.307   8.014
  128POPC   PO4 2079   1.772   6.848   8.107
  128POPC   GL1 2080   1.837   6.743   7.664
  128POPC   GL2 2081   1.726   6.443   7.668
  128POPC   C1A 2082   1.671   6.647   7.202
  128POPC   D2A 2083   1.646   6.482   6.757
  128POPC   C3A 2084   1.837   6.727   6.410
  128POPC   C4A 2085   2.264   6.891   6.297
  128POPC   C1B 2086   2.077   6.368   7.377
  128POPC   C2B 2087   2.137   6.409   6.954
  128POPC   C3B 2088   2.251   6.417   6.512
  128POPC   C4B 2089   2.018   6.327   6.143
  129POPC   NC3 2090  10.295   2.946   8.044
  129POPC   PO4 2091  10.021   2.324   8.071
  129POPC   GL1 2092  10.314   2.518   7.791
  129POPC   GL2 2093  10.059   2.612   7.585
  129POPC   C1A 2094  10.505   2.548   7.374
  129POPC   D2A 2095  10.442   2.420   6.950
  129POPC   C3A 2096  10.488   2.633   6.535
  129POPC   C4A 2097  10.303   2.524   6.116
  129POPC   C1B 2098  10.196   2.926   7.268
  129POPC   C2B 2099  10.371   2.994   6.904
  129POPC   C3B 2100  10.311   3.126   6.483
  129POPC   C4B 2101  10.474   3.010   6.117
  130POPC   NC3 2102   4.351  10.519   7.961
  130POPC   PO4 2103   3.725  10.729   8.061
  130POPC   GL1 2104   3.929  10.677   7.704
  130POPC   GL2 2105   4.005  10.366   7.606
  130POPC   C1A 2106   3.988  10.890   7.362
  130POPC   D2A 2107   4.211  10.931   6.995
  130POPC   C3A 2108   4.095  10.721   6.644
  130POPC   C4A 2109   4.354  10.627   6.295
  130POPC   C1B 2110   4.251  10.464   7.263
  130POPC   C2B 2111   4.247  10.291   6.870
  130POPC   C3B 2112   4.562  10.256   6.570
  130POPC   C4B 2113   4.588  10.176   6.146
  131POPC   NC3 2114   0.997   4.990   8.104
  131POPC   PO4 2115   1.639   4.784   8.013
  131POPC   GL1 2116   1.278   4.816   7.646
  131POPC   GL2 2117   1.040   5.099   7.624
  131POPC   C1A 2118   1.007   4.839   7.206
  131POPC   D2A 2119   0.918   4.946   6.770
  131POPC   C3A 2120   0.992   4.700   6.415
  131POPC   C4A 2121   1.100   4.970   6.149
  131POPC   C1B 2122   1.330   5.226   7.292
  131POPC   C2B 2123   1.417   5.029   6.899
  131POPC   C3B 2124   1.489   4.881   6.485
  131POPC   C4B 2125   1.474   5.268   6.285
  132POPC   NC3 2126   5.398   2.020   8.063
  132POPC   PO4 2127   6.048   2.018   8.089
  132POPC   GL1 2128   5.945   1.868   7.661
  132POPC   GL2 2129   5.593   1.899   7.610
  132POPC   C1A 2130   5.874   1.926   7.177
  132POPC   D2A 2131   5.921   1.815   6.733
  132POPC   C3A 2132   6.100   2.130   6.441
  132POPC   C4A 2133   5.976   2.494   6.202
  132POPC   C1B 2134   5.411   1.602   7.323
  132POPC   C2B 2135   5.279   1.456   6.905
  132POPC   C3B 2136   5.473   1.511   6.480
  132POPC   C4B 2137   5.788   1.788   6.225
  133POPC   NC3 2138  11.485  11.252   7.784
  133POPC   PO4 2139   0.175  10.864   8.278
  133POPC   GL1 2140   0.236  10.812   7.742
  133POPC   GL2 2141   0.439  11.103   7.608
  133POPC   C1A 2142   0.173  10.939   7.234
  133POPC   D2A 2143  11.463  11.041   6.814
  133POPC   C3A 2144   0.195  10.949   6.396
  133POPC   C4A 2145   0.157  10.821   5.893
  133POPC   C1B 2146   0.731  11.075   7.285
  133POPC   C2B 2147   0.772  11.278   6.907
  133POPC   C3B 2148   0.677  11.112   6.517
  133POPC   C4B 2149   0.544  11.137   6.073
  134POPC   NC3 2150   2.311   3.618   8.084
  134POPC   PO4 2151   1.703   3.269   7.967
  134POPC   GL1 2152   1.943   3.327   7.595
  134POPC   GL2 2153   1.974   3.677   7.665
  134POPC   C1A 2154   1.854   3.142   7.171
  134POPC   D2A 2155   1.999   3.019   6.766
  134POPC   C3A 2156   1.921   3.360   6.488
  134POPC   C4A 2157   1.638   3.509   6.178
  134POPC   C1B 2158   1.732   3.647   7.257
  134POPC   C2B 2159   1.653   3.677   6.815
  134POPC   C3B 2160   1.832   3.877   6.455
  134POPC   C4B 2161   2.143   3.703   6.139
  135POPC   NC3 2162   1.639   2.888   8.210
  135POPC   PO4 2163   2.234   2.465   8.039
  135POPC   GL1 2164   1.895   2.491   7.792
  135POPC   GL2 2165   1.871   2.833   7.739
  135POPC   C1A 2166   1.715   2.509   7.373
  135POPC   D2A 2167   1.853   2.355   6.979
  135POPC   C3A 2168   1.839   2.564   6.583
  135POPC   C4A 2169   1.626   2.471   6.185
  135POPC   C1B 2170   2.142   2.780   7.360
  135POPC   C2B 2171   2.333   2.507   7.039
  135POPC   C3B 2172   2.350   2.511   6.597
  135POPC   C4B 2173   2.171   2.824   6.302
  136POPC   NC3 2174   2.772   8.890   8.036
  136POPC   PO4 2175   2.514   8.422   7.775
  136POPC   GL1 2176   2.474   8.897   7.623
  136POPC   GL2 2177   2.781   9.109   7.561
  136POPC   C1A 2178   2.393   9.232   7.280
  136POPC   D2A 2179   2.572   9.179   6.855
  136POPC   C3A 2180   2.564   9.068   6.418
  136POPC   C4A 2181   2.584   8.858   5.999
  136POPC   C1B 2182   2.675   8.794   7.187
  136POPC   C2B 2183   2.574   8.627   6.753
  136POPC   C3B 2184   2.856   8.653   6.385
  136POPC   C4B 2185   3.074   9.050   6.237
  137POPC   NC3 2186   2.020   2.065   8.160
  137POPC   PO4 2187   1.508   1.602   8.016
  137POPC   GL1 2188   1.833   1.662   7.713
  137POPC   GL2 2189   2.081   1.924   7.689
  137POPC   C1A 2190   1.863   1.548   7.293
  137POPC   D2A 2191   1.616   1.747   6.934
  137POPC   C3A 2192   1.691   1.660   6.515
  137POPC   C4A 2193   1.754   1.949   6.167
  137POPC   C1B 2194   2.138   2.190   7.383
  137POPC   C2B 2195   2.125   1.929   6.991
  137POPC   C3B 2196   2.013   2.071   6.584
  137POPC   C4B 2197   2.124   2.301   6.192
  138POPC   NC3 2198   1.763  11.115   8.343
  138POPC   PO4 2199   1.701   0.186   8.032
  138POPC   GL1 2200   1.682  11.310   7.774
  138POPC   GL2 2201   1.963  11.064   7.817
  138POPC   C1A 2202   1.705  11.185   7.338
  138POPC   D2A 2203   1.923  11.315   6.960
  138POPC   C3A 2204   1.769  11.223   6.563
  138POPC   C4A 2205   1.753   0.024   6.251
  138POPC   C1B 2206   2.203  10.954   7.443
  138POPC   C2B 2207   2.193  10.865   7.007
  138POPC   C3B 2208   2.297  11.093   6.644
  138POPC   C4B 2209   2.149  11.030   6.250
  139POPC   NC3 2210   4.496  11.483   8.041
  139POPC   PO4 2211   4.723  10.777   8.062
  139POPC   GL1 2212   4.444  10.965   7.725
  139POPC   GL2 2213   4.128  11.156   7.785
  139POPC   C1A 2214   4.594  10.976   7.316
  139POPC   D2A 2215   4.641  11.231   6.968
  139POPC   C3A 2216   4.531  11.021   6.603
  139POPC   C4A 2217   4.708  11.011   6.242
  139POPC   C1B 2218   4.272  11.348   7.382
  139POPC   C2B 2219   4.160  11.449   6.973
  139POPC   C3B 2220   4.166  11.378   6.554
  139POPC   C4B 2221   4.065  11.051   6.266
  140POPC   NC3 2222   9.469   1.192   8.039
  140POPC   PO4 2223  10.061   1.325   8.037
  140POPC   GL1 2224   9.776   1.421   7.663
  140POPC   GL2 2225   9.510   1.147   7.551
  140POPC   C1A 2226   9.695   1.461   7.205
  140POPC   D2A 2227   9.359   1.444   6.879
  140POPC   C3A 2228   9.514   1.429   6.467
  140POPC   C4A 2229   9.878   1.411   6.245
  140POPC   C1B 2230   9.649   0.961   7.172
  140POPC   C2B 2231   9.746   1.101   6.768
  140POPC   C3B 2232   9.796   0.934   6.363
  140POPC   C4B 2233   9.427   0.848   6.126
  141POPC   NC3 2234   2.871  10.051   8.281
  141POPC   PO4 2235   2.726  10.673   8.047
  141POPC   GL1 2236   2.735  10.566   7.652
  141POPC   GL2 2237   2.796  10.221   7.608
  141POPC   C1A 2238   2.466  10.525   7.296
  141POPC   D2A 2239   2.492  10.365   6.898
  141POPC   C3A 2240   2.423  10.602   6.555
  141POPC   C4A 2241   2.502  10.420   6.180
  141POPC   C1B 2242   2.971  10.475   7.213
  141POPC   C2B 2243   2.972  10.496   6.739
  141POPC   C3B 2244   3.010  10.543   6.314
  141POPC   C4B 2245   2.955  10.192   6.099
  142POPC   NC3 2246   6.982   0.122   7.967
  142POPC   PO4 2247   7.724   0.045   7.965
  142POPC   GL1 2248   7.439   0.142   7.614
  142POPC   GL2 2249   7.332   0.473   7.721
  142POPC   C1A 2250   7.327   0.134   7.142
  142POPC   D2A 2251   7.428   0.057   6.680
  142POPC   C3A 2252   7.203   0.221   6.323
  142POPC   C4A 2253   7.385   0.288   5.895
  142POPC   C1B 2254   7.238   0.618   7.294
  142POPC   C2B 2255   7.191   0.509   6.837
  142POPC   C3B 2256   7.397   0.663   6.485
  142POPC   C4B 2257   7.210   0.731   6.108
  143POPC   NC3 2258   2.966   9.644   7.855
  143POPC   PO4 2259   2.436   9.984   8.100
  143POPC   GL1 2260   2.346   9.916   7.667
  143POPC   GL2 2261   2.517   9.601   7.597
  143POPC   C1A 2262   2.522   9.987   7.245
  143POPC   D2A 2263   2.873  10.033   6.949
  143POPC   C3A 2264   2.691  10.062   6.520
  143POPC   C4A 2265   2.417   9.901   6.161
  143POPC   C1B 2266   2.814   9.556   7.212
  143POPC   C2B 2267   2.867   9.574   6.751
  143POPC   C3B 2268   2.775   9.570   6.331
  143POPC   C4B 2269   2.721   9.328   5.990
  144POPC   NC3 2270   1.693   7.299   8.037
  144POPC   PO4 2271   1.962   7.837   8.370
  144POPC   GL1 2272   1.849   7.863   7.889
  144POPC   GL2 2273   2.085   8.101   7.762
  144POPC   C1A 2274   1.770   7.817   7.394
  144POPC   D2A 2275   1.921   7.941   6.928
  144POPC   C3A 2276   1.745   7.732   6.506
  144POPC   C4A 2277   1.783   7.854   6.052
  144POPC   C1B 2278   1.919   8.299   7.356
  144POPC   C2B 2279   1.963   8.456   6.912
  144POPC   C3B 2280   2.122   8.369   6.489
  144POPC   C4B 2281   2.227   8.131   6.102
  145POPC   NC3 2282   2.614   2.771   8.022
  145POPC   PO4 2283   3.113   2.321   8.229
  145POPC   GL1 2284   2.751   2.352   7.762
  145POPC   GL2 2285   2.491   2.517   7.590
  145POPC   C1A 2286   2.833   2.368   7.241
  145POPC   D2A 2287   2.800   2.559   6.838
  145POPC   C3A 2288   2.885   2.373   6.468
  145POPC   C4A 2289   3.053   2.456   6.086
  145POPC   C1B 2290   2.644   2.840   7.263
  145POPC   C2B 2291   2.507   2.957   6.817
  145POPC   C3B 2292   2.684   2.854   6.369
  145POPC   C4B 2293   2.517   3.022   5.929
  146POPC   NC3 2294  11.241   1.561   8.331
  146POPC   PO4 2295  10.838   1.047   8.087
  146POPC   GL1 2296  11.028   1.151   7.674
  146POPC   GL2 2297  11.397   1.082   7.697
  146POPC   C1A 2298  11.082   1.275   7.209
  146POPC   D2A 2299  11.140   1.435   6.748
  146POPC   C3A 2300  10.973   1.320   6.375
  146POPC   C4A 2301  10.676   1.007   6.394
  146POPC   C1B 2302  11.284   0.813   7.348
  146POPC   C2B 2303  10.992   0.812   6.972
  146POPC   C3B 2304  11.157   0.869   6.550
  146POPC   C4B 2305  11.457   0.854   6.193
  147POPC   NC3 2306   1.914   1.296   8.060
  147POPC   PO4 2307   2.345   1.734   8.090
  147POPC   GL1 2308   2.275   1.438   7.700
  147POPC   GL2 2309   2.076   1.119   7.624
  147POPC   C1A 2310   2.373   1.451   7.252
  147POPC   D2A 2311   2.409   1.248   6.834
  147POPC   C3A 2312   2.227   1.588   6.544
  147POPC   C4A 2313   1.996   1.514   6.132
  147POPC   C1B 2314   2.061   1.061   7.192
  147POPC   C2B 2315   1.903   1.306   6.850
  147POPC   C3B 2316   1.885   1.156   6.459
  147POPC   C4B 2317   1.606   1.166   6.121
  148POPC   NC3 2318  11.424  11.281   8.340
  148POPC   PO4 2319  11.239  10.864   7.849
  148POPC   GL1 2320  11.199  11.040   7.448
  148POPC   GL2 2321  10.977  11.293   7.656
  148POPC   C1A 2322  11.353  11.399   7.179
  148POPC   D2A 2323  11.420   0.047   6.767
  148POPC   C3A 2324  11.347  11.322   6.384
  148POPC   C4A 2325   0.079  11.301   5.998
  148POPC   C1B 2326  10.837  11.324   7.267
  148POPC   C2B 2327  10.972  11.190   6.924
  148POPC   C3B 2328  10.876  11.325   6.582
  148POPC   C4B 2329  10.864  11.184   6.203
  149POPC   NC3 2330   5.220   8.760   8.030
  149POPC   PO4 2331   4.649   8.419   8.083
  149POPC   GL1 2332   4.811   8.658   7.694
  149POPC   GL2 2333   4.894   9.026   7.732
  149POPC   C1A 2334   5.040   8.788   7.298
  149POPC   D2A 2335   4.908   8.935   6.897
  149POPC   C3A 2336   4.996   8.783   6.507
  149POPC   C4A 2337   4.696   8.456   6.362
  149POPC   C1B 2338   4.862   9.272   7.342
  149POPC   C2B 2339   4.743   9.408   6.932
  149POPC   C3B 2340   4.846   9.341   6.496
  149POPC   C4B 2341   5.091   9.466   6.114
  150POPC   NC3 2342   4.383   9.525   8.066
  150POPC   PO4 2343   4.506  10.107   8.049
  150POPC   GL1 2344   4.190   9.897   7.729
  150POPC   GL2 2345   4.087   9.520   7.658
  150POPC   C1A 2346   4.238   9.894   7.260
  150POPC   D2A 2347   4.543   9.872   6.904
  150POPC   C3A 2348   4.308   9.835   6.501
  150POPC   C4A 2349   4.068  10.086   6.217
  150POPC   C1B 2350   4.336   9.372   7.300
  150POPC   C2B 2351   4.215   9.479   6.875
  150POPC   C3B 2352   4.218   9.339   6.443
  150POPC   C4B 2353   4.122   9.524   6.052
  151POPC   NC3 2354   8.963   1.985   8.032
  151POPC   PO4 2355   9.099   1.395   7.840
  151POPC   GL1 2356   8.976   1.700   7.578
  151POPC   GL2 2357   8.949   2.075   7.541
  151POPC   C1A 2358   9.001   1.668   7.172
  151POPC   D2A 2359   8.751   1.733   6.867
  151POPC   C3A 2360   9.008   1.711   6.543
  151POPC   C4A 2361   8.811   1.783   6.180
  151POPC   C1B 2362   8.851   2.166   7.125
  151POPC   C2B 2363   9.116   2.146   6.769
  151POPC   C3B 2364   9.091   2.202   6.329
  151POPC   C4B 2365   8.689   2.308   6.145
  152POPC   NC3 2366  10.594  11.277   8.028
  152POPC   PO4 2367  10.255  10.759   7.989
  152POPC   GL1 2368  10.444  11.008   7.625
  152POPC   GL2 2369  10.438  11.365   7.577
  152POPC   C1A 2370  10.385  11.091   7.177
  152POPC   D2A 2371  10.546  10.922   6.865
  152POPC   C3A 2372  10.427  11.114   6.562
  152POPC   C4A 2373  10.409  10.958   6.202
  152POPC   C1B 2374  10.083   0.023   7.373
  152POPC   C2B 2375   9.969   0.136   6.978
  152POPC   C3B 2376  10.070   0.077   6.565
  152POPC   C4B 2377  10.239  11.425   6.204
  153POPC   NC3 2378   2.021   9.538   8.163
  153POPC   PO4 2379   2.332   8.990   8.085
  153POPC   GL1 2380   2.115   9.268   7.718
  153POPC   GL2 2381   1.885   9.589   7.687
  153POPC   C1A 2382   1.870   9.250   7.305
  153POPC   D2A 2383   1.951   9.354   6.876
  153POPC   C3A 2384   1.854   9.235   6.434
  153POPC   C4A 2385   2.212   9.330   6.172
  153POPC   C1B 2386   1.811   9.770   7.295
  153POPC   C2B 2387   2.091   9.860   6.954
  153POPC   C3B 2388   2.179   9.687   6.561
  153POPC   C4B 2389   1.929   9.750   6.208
  154POPC   NC3 2390   6.061  11.252   7.952
  154POPC   PO4 2391   6.185  10.620   7.930
  154POPC   GL1 2392   6.346  10.955   7.605
  154POPC   GL2 2393   6.389  11.340   7.571
  154POPC   C1A 2394   6.367  11.048   7.165
  154POPC   D2A 2395   6.547  11.103   6.764
  154POPC   C3A 2396   6.257  10.851   6.536
  154POPC   C4A 2397   6.294  10.793   6.098
  154POPC   C1B 2398   6.721  11.414   7.154
  154POPC   C2B 2399   6.916   0.069   6.784
  154POPC   C3B 2400   6.710   0.088   6.383
  154POPC   C4B 2401   6.479  11.244   6.251
  155POPC   NC3 2402   8.411   8.785   8.141
  155POPC   PO4 2403   9.027   8.835   8.170
  155POPC   GL1 2404   8.805   8.909   7.797
  155POPC   GL2 2405   8.629   8.617   7.697
  155POPC   C1A 2406   8.761   9.020   7.362
  155POPC   D2A 2407   8.593   8.828   6.979
  155POPC   C3A 2408   8.471   9.134   6.698
  155POPC   C4A 2409   8.666   9.227   6.313
  155POPC   C1B 2410   9.014   8.574   7.431
  155POPC   C2B 2411   9.064   8.630   6.962
  155POPC   C3B 2412   8.921   8.873   6.590
  155POPC   C4B 2413   8.811   8.762   6.150
  156POPC   NC3 2414   4.120   1.362   7.938
  156POPC   PO4 2415   4.653   1.009   7.965
  156POPC   GL1 2416   4.486   1.209   7.617
  156POPC   GL2 2417   4.441   0.890   7.460
  156POPC   C1A 2418   4.359   1.355   7.220
  156POPC   D2A 2419   4.359   1.093   6.878
  156POPC   C3A 2420   4.395   1.326   6.549
  156POPC   C4A 2421   4.450   1.362   6.169
  156POPC   C1B 2422   4.053   0.939   7.259
  156POPC   C2B 2423   3.855   1.004   6.869
  156POPC   C3B 2424   4.049   0.948   6.475
  156POPC   C4B 2425   4.041   1.078   6.054
  157POPC   NC3 2426   0.910   8.128   3.993
  157POPC   PO4 2427   1.445   7.753   3.953
  157POPC   GL1 2428   1.315   7.969   4.316
  157POPC   GL2 2429   1.259   8.309   4.319
  157POPC   C1A 2430   1.377   7.972   4.756
  157POPC   D2A 2431   1.286   7.634   5.030
  157POPC   C3A 2432   1.298   7.864   5.385
  157POPC   C4A 2433   1.338   7.745   5.792
  157POPC   C1B 2434   0.951   8.237   4.658
  157POPC   C2B 2435   0.909   7.993   5.022
  157POPC   C3B 2436   0.852   8.112   5.441
  157POPC   C4B 2437   1.092   8.193   5.777
  158POPC   NC3 2438   3.578   1.775   4.102
  158POPC   PO4 2439   4.106   2.241   3.885
  158POPC   GL1 2440   3.826   2.183   4.358
  158POPC   GL2 2441   3.501   2.023   4.537
  158POPC   C1A 2442   3.853   2.236   4.797
  158POPC   D2A 2443   3.529   2.022   5.068
  158POPC   C3A 2444   3.548   2.181   5.480
  158POPC   C4A 2445   3.468   2.187   5.907
  158POPC   C1B 2446   3.457   1.607   4.743
  158POPC   C2B 2447   3.586   1.417   5.129
  158POPC   C3B 2448   3.710   1.655   5.466
  158POPC   C4B 2449   3.341   1.743   5.717
  159POPC   NC3 2450   0.717   5.676   3.946
  159POPC   PO4 2451   0.872   6.274   3.935
  159POPC   GL1 2452   0.606   6.135   4.272
  159POPC   GL2 2453   0.386   5.876   4.254
  159POPC   C1A 2454   0.617   5.945   4.698
  159POPC   D2A 2455   0.783   5.844   5.116
  159POPC   C3A 2456   0.510   5.792   5.462
  159POPC   C4A 2457   0.613   5.537   5.793
  159POPC   C1B 2458   0.285   5.575   4.626
  159POPC   C2B 2459   0.177   5.727   5.055
  159POPC   C3B 2460   0.033   5.571   5.480
  159POPC   C4B 2461  11.465   5.730   5.921
  160POPC   NC3 2462   2.038   4.543   4.119
  160POPC   PO4 2463   1.715   4.103   3.793
  160POPC   GL1 2464   1.594   4.068   4.242
  160POPC   GL2 2465   1.913   4.078   4.455
  160POPC   C1A 2466   1.476   4.290   4.631
  160POPC   D2A 2467   1.771   4.437   4.910
  160POPC   C3A 2468   1.666   4.327   5.329
  160POPC   C4A 2469   1.748   4.452   5.736
  160POPC   C1B 2470   2.202   3.792   4.747
  160POPC   C2B 2471   2.258   3.788   5.222
  160POPC   C3B 2472   2.135   4.074   5.591
  160POPC   C4B 2473   2.270   4.494   5.787
  161POPC   NC3 2474   0.480   1.500   4.196
  161POPC   PO4 2475   0.431   1.022   3.732
  161POPC   GL1 2476   0.404   0.982   4.248
  161POPC   GL2 2477   0.551   1.155   4.557
  161POPC   C1A 2478   0.136   0.902   4.674
  161POPC   D2A 2479   0.249   1.189   5.025
  161POPC   C3A 2480   0.403   1.064   5.420
  161POPC   C4A 2481   0.234   1.093   5.841
  161POPC   C1B 2482   0.632   1.523   4.841
  161POPC   C2B 2483   0.589   1.531   5.279
  161POPC   C3B 2484   0.583   1.440   5.694
  161POPC   C4B 2485   0.729   0.987   5.848
  162POPC   NC3 2486   2.263   1.532   4.092
  162POPC   PO4 2487   2.538   0.910   3.912
  162POPC   GL1 2488   2.397   1.062   4.327
  162POPC   GL2 2489   2.036   1.113   4.338
  162POPC   C1A 2490   2.320   0.900   4.763
  162POPC   D2A 2491   2.034   0.918   5.147
  162POPC   C3A 2492   2.226   1.007   5.533
  162POPC   C4A 2493   2.065   1.000   5.981
  162POPC   C1B 2494   1.950   1.277   4.759
  162POPC   C2B 2495   1.850   1.382   5.203
  162POPC   C3B 2496   1.857   1.348   5.640
  162POPC   C4B 2497   1.571   1.602   5.816
  163POPC   NC3 2498   1.248   3.283   4.063
  163POPC   PO4 2499   0.810   3.681   3.740
  163POPC   GL1 2500   0.850   3.504   4.292
  163POPC   GL2 2501   1.165   3.523   4.501
  163POPC   C1A 2502   0.835   3.354   4.795
  163POPC   D2A 2503   0.973   3.558   5.218
  163POPC   C3A 2504   0.916   3.433   5.680
  163POPC   C4A 2505   0.853   3.219   6.095
  163POPC   C1B 2506   1.454   3.297   4.712
  163POPC   C2B 2507   1.510   3.451   5.073
  163POPC   C3B 2508   1.510   3.348   5.463
  163POPC   C4B 2509   1.357   3.687   5.679
  164POPC   NC3 2510   9.626   7.511   3.852
  164POPC   PO4 2511   9.801   6.980   4.009
  164POPC   GL1 2512   9.707   7.252   4.334
  164POPC   GL2 2513   9.947   7.478   4.371
  164POPC   C1A 2514   9.614   7.282   4.785
  164POPC   D2A 2515   9.343   7.514   5.104
  164POPC   C3A 2516   9.390   7.337   5.532
  164POPC   C4A 2517   9.483   7.353   5.960
  164POPC   C1B 2518  10.147   7.388   4.770
  164POPC   C2B 2519  10.090   7.066   5.091
  164POPC   C3B 2520   9.849   7.069   5.465
  164POPC   C4B 2521   9.917   7.453   5.694
  165POPC   NC3 2522  11.161   3.103   3.990
  165POPC   PO4 2523  10.882   2.430   3.990
  165POPC   GL1 2524  10.993   2.529   4.375
  165POPC   GL2 2525  11.305   2.723   4.352
  165POPC   C1A 2526  11.156   2.430   4.770
  165POPC   D2A 2527  10.912   2.557   5.100
  165POPC   C3A 2528  11.121   2.447   5.436
  165POPC   C4A 2529  11.239   2.627   5.822
  165POPC   C1B 2530  11.491   2.831   4.775
  165POPC   C2B 2531  11.303   2.898   5.180
  165POPC   C3B 2532  11.276   3.082   5.564
  165POPC   C4B 2533   0.009   3.049   5.937
  166POPC   NC3 2534  11.130   8.769   3.721
  166POPC   PO4 2535  10.945   9.094   4.332
  166POPC   GL1 2536  11.015   8.694   4.494
  166POPC   GL2 2537  11.229   8.637   4.236
  166POPC   C1A 2538  11.150   8.659   4.923
  166POPC   D2A 2539  11.246   9.038   5.153
  166POPC   C3A 2540  10.925   9.074   5.440
  166POPC   C4A 2541  10.929   8.790   5.771
  166POPC   C1B 2542  11.417   8.377   4.589
  166POPC   C2B 2543   0.027   8.333   5.067
  166POPC   C3B 2544  11.496   8.643   5.423
  166POPC   C4B 2545  11.411   8.679   5.861
  167POPC   NC3 2546   8.822   5.406   3.926
  167POPC   PO4 2547   8.541   5.973   3.957
  167POPC   GL1 2548   8.687   5.711   4.320
  167POPC   GL2 2549   9.045   5.610   4.344
  167POPC   C1A 2550   8.764   5.705   4.774
  167POPC   D2A 2551   8.729   5.441   5.143
  167POPC   C3A 2552   8.712   5.556   5.590
  167POPC   C4A 2553   8.457   5.735   5.949
  167POPC   C1B 2554   9.278   5.812   4.701
  167POPC   C2B 2555   9.124   5.830   5.148
  167POPC   C3B 2556   9.186   5.763   5.604
  167POPC   C4B 2557   8.967   5.739   6.015
  168POPC   NC3 2558   8.316   3.548   4.024
  168POPC   PO4 2559   8.014   3.959   4.223
  168POPC   GL1 2560   8.128   3.601   4.517
  168POPC   GL2 2561   8.419   3.372   4.493
  168POPC   C1A 2562   8.243   3.479   4.954
  168POPC   D2A 2563   8.549   3.558   5.285
  168POPC   C3A 2564   8.344   3.673   5.694
  168POPC   C4A 2565   7.933   3.665   5.922
  168POPC   C1B 2566   8.480   3.034   4.809
  168POPC   C2B 2567   8.389   3.052   5.266
  168POPC   C3B 2568   8.222   3.122   5.694
  168POPC   C4B 2569   8.152   2.872   6.080
  169POPC   NC3 2570   8.987   9.043   4.102
  169POPC   PO4 2571   8.444   9.152   3.703
  169POPC   GL1 2572   8.533   8.838   4.200
  169POPC   GL2 2573   8.785   8.619   4.315
  169POPC   C1A 2574   8.597   8.866   4.717
  169POPC   D2A 2575   8.709   8.637   5.134
  169POPC   C3A 2576   8.606   8.760   5.574
  169POPC   C4A 2577   8.681   9.114   5.797
  169POPC   C1B 2578   9.065   8.674   4.707
  169POPC   C2B 2579   9.216   8.627   5.138
  169POPC   C3B 2580   9.106   8.825   5.526
  169POPC   C4B 2581   9.249   8.696   5.921
  170POPC   NC3 2582  10.510   1.366   3.902
  170POPC   PO4 2583   9.991   0.819   3.926
  170POPC   GL1 2584  10.062   1.233   4.128
  170POPC   GL2 2585  10.341   1.110   4.318
  170POPC   C1A 2586  10.064   1.507   4.511
  170POPC   D2A 2587  10.183   1.381   4.912
  170POPC   C3A 2588  10.126   1.490   5.334
  170POPC   C4A 2589  10.007   1.418   5.755
  170POPC   C1B 2590  10.590   1.178   4.692
  170POPC   C2B 2591  10.514   1.098   5.158
  170POPC   C3B 2592  10.457   1.206   5.597
  170POPC   C4B 2593  10.718   1.211   5.921
  171POPC   NC3 2594   8.205   8.755   3.836
  171POPC   PO4 2595   8.513   9.330   4.178
  171POPC   GL1 2596   8.201   9.150   4.426
  171POPC   GL2 2597   8.030   8.907   4.275
  171POPC   C1A 2598   8.160   9.091   4.836
  171POPC   D2A 2599   8.287   8.929   5.213
  171POPC   C3A 2600   8.211   9.121   5.596
  171POPC   C4A 2601   8.287   9.344   6.002
  171POPC   C1B 2602   8.186   8.622   4.580
  171POPC   C2B 2603   8.242   8.474   4.980
  171POPC   C3B 2604   8.215   8.465   5.435
  171POPC   C4B 2605   7.977   8.538   5.806
  172POPC   NC3 2606   6.642   0.322   3.688
  172POPC   PO4 2607   7.094   0.632   3.909
  172POPC   GL1 2608   6.907   0.306   4.174
  172POPC   GL2 2609   6.544   0.328   4.197
  172POPC   C1A 2610   6.847   0.235   4.622
  172POPC   D2A 2611   6.893   0.392   5.058
  172POPC   C3A 2612   6.746   0.365   5.493
  172POPC   C4A 2613   6.860   0.382   5.956
  172POPC   C1B 2614   6.340   0.413   4.604
  172POPC   C2B 2615   6.356   0.526   5.061
  172POPC   C3B 2616   6.244   0.385   5.498
  172POPC   C4B 2617   6.302   0.568   5.914
  173POPC   NC3 2618   3.650   8.068   4.013
  173POPC   PO4 2619   3.047   8.098   3.987
  173POPC   GL1 2620   3.049   8.333   4.387
  173POPC   GL2 2621   3.409   8.293   4.422
  173POPC   C1A 2622   3.154   8.371   4.862
  173POPC   D2A 2623   3.354   8.125   5.239
  173POPC   C3A 2624   3.424   8.256   5.694
  173POPC   C4A 2625   3.574   8.422   6.099
  173POPC   C1B 2626   3.445   7.941   4.732
  173POPC   C2B 2627   3.682   7.742   5.100
  173POPC   C3B 2628   3.717   7.837   5.552
  173POPC   C4B 2629   3.969   8.118   5.812
  174POPC   NC3 2630   9.518   9.792   3.937
  174POPC   PO4 2631  10.023   9.333   4.026
  174POPC   GL1 2632   9.932   9.682   4.245
  174POPC   GL2 2633   9.636   9.508   4.357
  174POPC   C1A 2634   9.841   9.856   4.663
  174POPC   D2A 2635   9.832  10.069   5.064
  174POPC   C3A 2636   9.580   9.993   5.436
  174POPC   C4A 2637   9.824   9.998   5.789
  174POPC   C1B 2638   9.617   9.392   4.792
  174POPC   C2B 2639   9.896   9.333   5.163
  174POPC   C3B 2640   9.877   9.482   5.614
  174POPC   C4B 2641   9.462   9.591   5.790
  175POPC   NC3 2642   8.909   0.447   3.811
  175POPC   PO4 2643   8.467   0.804   3.681
  175POPC   GL1 2644   8.924   0.678   4.242
  175POPC   GL2 2645   8.895   0.311   4.297
  175POPC   C1A 2646   8.828   0.679   4.727
  175POPC   D2A 2647   8.621   0.631   5.156
  175POPC   C3A 2648   8.912   0.637   5.514
  175POPC   C4A 2649   9.377   0.687   5.655
  175POPC   C1B 2650   8.725   0.157   4.685
  175POPC   C2B 2651   8.869   0.183   5.095
  175POPC   C3B 2652   8.650   0.174   5.473
  175POPC   C4B 2653   8.469   0.367   5.799
  176POPC   NC3 2654   8.122   9.427   3.897
  176POPC   PO4 2655   7.732   8.894   3.860
  176POPC   GL1 2656   7.743   9.311   4.195
  176POPC   GL2 2657   8.037   9.616   4.340
  176POPC   C1A 2658   7.762   9.358   4.650
  176POPC   D2A 2659   7.746   9.273   5.063
  176POPC   C3A 2660   7.765   9.627   5.327
  176POPC   C4A 2661   7.966   9.578   5.701
  176POPC   C1B 2662   8.182   9.640   4.777
  176POPC   C2B 2663   8.247   9.453   5.187
  176POPC   C3B 2664   8.482   9.542   5.536
  176POPC   C4B 2665   8.364   9.889   5.788
  177POPC   NC3 2666   2.946   0.303   4.066
  177POPC   PO4 2667   2.386   0.114   3.856
  177POPC   GL1 2668   2.487   0.264   4.271
  177POPC   GL2 2669   2.629   0.607   4.327
  177POPC   C1A 2670   2.404   0.342   4.703
  177POPC   D2A 2671   2.219   0.460   5.066
  177POPC   C3A 2672   2.503   0.488   5.403
  177POPC   C4A 2673   2.521   0.272   5.804
  177POPC   C1B 2674   2.820   0.679   4.763
  177POPC   C2B 2675   2.974   0.636   5.213
  177POPC   C3B 2676   2.895   0.754   5.661
  177POPC   C4B 2677   3.011   0.718   6.112
  178POPC   NC3 2678   2.075  11.278   3.960
  178POPC   PO4 2679   1.505  10.961   3.681
  178POPC   GL1 2680   1.585  11.178   4.164
  178POPC   GL2 2681   1.879  11.045   4.382
  178POPC   C1A 2682   1.583  11.334   4.635
  178POPC   D2A 2683   1.887  11.164   4.980
  178POPC   C3A 2684   1.769  11.247   5.436
  178POPC   C4A 2685   1.841  11.086   5.862
  178POPC   C1B 2686   2.211  11.329   4.574
  178POPC   C2B 2687   2.376  11.388   4.963
  178POPC   C3B 2688   2.390  11.103   5.280
  178POPC   C4B 2689   2.348  11.159   5.728
  179POPC   NC3 2690  10.691   8.771   4.106
  179POPC   PO4 2691  10.076   8.504   3.960
  179POPC   GL1 2692  10.158   8.879   4.244
  179POPC   GL2 2693  10.372   8.793   4.491
  179POPC   C1A 2694   9.982   9.047   4.665
  179POPC   D2A 2695  10.172   8.900   5.072
  179POPC   C3A 2696  10.015   8.923   5.510
  179POPC   C4A 2697  10.088   8.470   5.656
  179POPC   C1B 2698  10.638   8.786   4.823
  179POPC   C2B 2699  10.703   8.689   5.205
  179POPC   C3B 2700  10.490   8.752   5.547
  179POPC   C4B 2701  10.445   9.127   5.760
  180POPC   NC3 2702   2.355  10.305   4.003
  180POPC   PO4 2703   3.003   9.975   3.887
  180POPC   GL1 2704   2.791  10.136   4.255
  180POPC   GL2 2705   2.690  10.461   4.341
  180POPC   C1A 2706   2.697  10.038   4.695
  180POPC   D2A 2707   3.003  10.125   5.048
  180POPC   C3A 2708   2.853  10.156   5.473
  180POPC   C4A 2709   2.456  10.170   5.727
  180POPC   C1B 2710   2.874  10.501   4.712
  180POPC   C2B 2711   2.577  10.431   5.056
  180POPC   C3B 2712   2.502  10.599   5.445
  180POPC   C4B 2713   2.805  10.567   5.791
  181POPC   NC3 2714  11.348   4.289   4.022
  181POPC   PO4 2715  11.245   4.935   3.805
  181POPC   GL1 2716  11.275   4.733   4.259
  181POPC   GL2 2717  11.037   4.443   4.376
  181POPC   C1A 2718  11.425   4.609   4.676
  181POPC   D2A 2719  11.170   4.442   5.031
  181POPC   C3A 2720  11.351   4.492   5.438
  181POPC   C4A 2721  11.089   4.497   5.767
  181POPC   C1B 2722  11.226   4.133   4.641
  181POPC   C2B 2723  11.355   3.935   5.044
  181POPC   C3B 2724  11.210   3.998   5.458
  181POPC   C4B 2725  11.346   4.034   5.863
  182POPC   NC3 2726   2.721  11.111   3.536
  182POPC   PO4 2727   2.930  10.532   3.890
  182POPC   GL1 2728   2.836  10.930   4.228
  182POPC   GL2 2729   2.671  11.273   4.180
  182POPC   C1A 2730   2.776  11.002   4.684
  182POPC   D2A 2731   2.880  10.831   5.109
  182POPC   C3A 2732   2.842  10.995   5.514
  182POPC   C4A 2733   3.099  10.964   5.921
  182POPC   C1B 2734   2.752  11.489   4.593
  182POPC   C2B 2735   2.815   0.171   5.005
  182POPC   C3B 2736   2.704  11.495   5.415
  182POPC   C4B 2737   2.803  11.358   5.849
  183POPC   NC3 2738   9.036   8.214   3.966
  183POPC   PO4 2739   8.450   8.362   3.936
  183POPC   GL1 2740   8.657   8.137   4.322
  183POPC   GL2 2741   8.996   7.960   4.395
  183POPC   C1A 2742   8.757   8.269   4.758
  183POPC   D2A 2743   8.581   8.132   5.158
  183POPC   C3A 2744   8.711   8.255   5.559
  183POPC   C4A 2745   8.514   8.377   5.952
  183POPC   C1B 2746   9.172   7.937   4.816
  183POPC   C2B 2747   9.046   7.917   5.255
  183POPC   C3B 2748   9.084   7.803   5.680
  183POPC   C4B 2749   8.731   7.828   5.986
  184POPC   NC3 2750   1.254  10.293   3.901
  184POPC   PO4 2751   1.703  10.675   4.089
  184POPC   GL1 2752   1.511  10.378   4.339
  184POPC   GL2 2753   1.216  10.574   4.305
  184POPC   C1A 2754   1.595  10.136   4.723
  184POPC   D2A 2755   1.658  10.309   5.145
  184POPC   C3A 2756   1.551  10.064   5.501
  184POPC   C4A 2757   1.551   9.918   5.915
  184POPC   C1B 2758   1.134  10.372   4.669
  184POPC   C2B 2759   1.144  10.554   5.044
  184POPC   C3B 2760   1.222  10.452   5.423
  184POPC   C4B 2761   1.067  10.602   5.770
  185POPC   NC3 2762   4.591   8.936   3.877
  185POPC   PO4 2763   4.066   9.158   3.853
  185POPC   GL1 2764   4.127   9.159   4.308
  185POPC   GL2 2765   4.340   8.912   4.393
  185POPC   C1A 2766   4.060   9.213   4.784
  185POPC   D2A 2767   4.189   9.383   5.227
  185POPC   C3A 2768   4.044   9.225   5.639
  185POPC   C4A 2769   4.153   9.003   6.042
  185POPC   C1B 2770   4.550   9.075   4.771
  185POPC   C2B 2771   4.565   8.954   5.186
  185POPC   C3B 2772   4.475   8.955   5.609
  185POPC   C4B 2773   4.517   8.640   5.928
  186POPC   NC3 2774  11.155   9.392   4.052
  186POPC   PO4 2775  10.753  10.015   3.992
  186POPC   GL1 2776  10.920   9.977   4.416
  186POPC   GL2 2777  11.156   9.717   4.443
  186POPC   C1A 2778  10.796   9.718   4.810
  186POPC   D2A 2779  10.871   9.571   5.244
  186POPC   C3A 2780  11.021   9.862   5.531
  186POPC   C4A 2781  11.411   9.918   5.745
  186POPC   C1B 2782  11.264   9.473   4.821
  186POPC   C2B 2783  11.432   9.561   5.230
  186POPC   C3B 2784  11.260   9.425   5.594
  186POPC   C4B 2785  10.916   9.327   5.874
  187POPC   NC3 2786   2.368   5.974   3.727
  187POPC   PO4 2787   3.035   6.179   3.841
  187POPC   GL1 2788   2.748   6.054   4.198
  187POPC   GL2 2789   2.516   5.750   4.173
  187POPC   C1A 2790   2.904   5.933   4.645
  187POPC   D2A 2791   3.159   5.967   5.052
  187POPC   C3A 2792   2.982   5.977   5.493
  187POPC   C4A 2793   3.019   6.274   5.857
  187POPC   C1B 2794   2.415   5.788   4.613
  187POPC   C2B 2795   2.313   5.879   5.057
  187POPC   C3B 2796   2.468   5.784   5.469
  187POPC   C4B 2797   2.502   5.463   5.793
  188POPC   NC3 2798  11.416   8.019   3.994
  188POPC   PO4 2799  10.719   8.252   3.850
  188POPC   GL1 2800  10.964   8.210   4.231
  188POPC   GL2 2801  11.055   7.889   4.348
  188POPC   C1A 2802  10.935   8.225   4.692
  188POPC   D2A 2803  10.783   8.185   5.085
  188POPC   C3A 2804  11.055   8.378   5.371
  188POPC   C4A 2805  11.091   8.302   5.781
  188POPC   C1B 2806  11.361   7.893   4.682
  188POPC   C2B 2807  11.215   7.892   5.072
  188POPC   C3B 2808  11.346   7.971   5.457
  188POPC   C4B 2809  11.349   7.869   5.882
  189POPC   NC3 2810   1.773   9.772   4.075
  189POPC   PO4 2811   1.185   9.869   3.739
  189POPC   GL1 2812   1.268   9.879   4.204
  189POPC   GL2 2813   1.332   9.566   4.255
  189POPC   C1A 2814   1.140   9.858   4.653
  189POPC   D2A 2815   1.215  10.021   5.073
  189POPC   C3A 2816   0.921   9.953   5.407
  189POPC   C4A 2817   1.091  10.091   5.776
  189POPC   C1B 2818   1.547   9.541   4.672
  189POPC   C2B 2819   1.405   9.436   5.085
  189POPC   C3B 2820   1.443   9.571   5.501
  189POPC   C4B 2821   1.129   9.588   5.801
  190POPC   NC3 2822   1.270   7.307   3.900
  190POPC   PO4 2823   1.546   6.790   3.722
  190POPC   GL1 2824   1.492   6.930   4.166
  190POPC   GL2 2825   1.167   6.853   4.290
  190POPC   C1A 2826   1.505   7.014   4.641
  190POPC   D2A 2827   1.659   7.171   5.059
  190POPC   C3A 2828   1.454   7.339   5.455
  190POPC   C4A 2829   1.669   7.365   5.866
  190POPC   C1B 2830   0.974   6.953   4.713
  190POPC   C2B 2831   0.842   7.051   5.158
  190POPC   C3B 2832   0.926   6.986   5.608
  190POPC   C4B 2833   1.136   7.223   5.937
  191POPC   NC3 2834   9.815   5.512   3.881
  191POPC   PO4 2835   9.259   5.254   3.991
  191POPC   GL1 2836   9.525   5.424   4.381
  191POPC   GL2 2837   9.786   5.699   4.393
  191POPC   C1A 2838   9.641   5.466   4.854
  191POPC   D2A 2839   9.604   5.688   5.272
  191POPC   C3A 2840   9.603   5.467   5.678
  191POPC   C4A 2841   9.406   5.405   6.099
  191POPC   C1B 2842   9.846   5.938   4.809
  191POPC   C2B 2843   9.883   6.111   5.231
  191POPC   C3B 2844   9.680   6.078   5.624
  191POPC   C4B 2845   9.607   6.382   5.952
  192POPC   NC3 2846   2.810   2.237   3.898
  192POPC   PO4 2847   3.428   2.208   4.066
  192POPC   GL1 2848   3.092   1.903   4.262
  192POPC   GL2 2849   2.800   2.090   4.373
  192POPC   C1A 2850   2.985   1.751   4.677
  192POPC   D2A 2851   2.920   2.089   4.939
  192POPC   C3A 2852   3.065   1.978   5.317
  192POPC   C4A 2853   3.024   2.184   5.661
  192POPC   C1B 2854   2.513   1.930   4.679
  192POPC   C2B 2855   2.523   1.820   5.090
  192POPC   C3B 2856   2.571   1.976   5.500
  192POPC   C4B 2857   2.827   1.684   5.721
  193POPC   NC3 2858   1.932   2.362   3.752
  193POPC   PO4 2859   1.821   1.659   4.044
  193POPC   GL1 2860   1.905   2.092   4.221
  193POPC   GL2 2861   2.266   2.083   4.274
  193POPC   C1A 2862   2.008   2.308   4.668
  193POPC   D2A 2863   2.284   2.286   5.042
  193POPC   C3A 2864   2.150   2.289   5.453
  193POPC   C4A 2865   1.820   2.272   5.758
  193POPC   C1B 2866   2.036   1.803   4.642
  193POPC   C2B 2867   2.016   1.847   5.080
  193POPC   C3B 2868   1.905   1.842   5.503
  193POPC   C4B 2869   2.187   1.895   5.858
  194POPC   NC3 2870   8.225   1.922   3.906
  194POPC   PO4 2871   7.710   2.356   3.860
  194POPC   GL1 2872   7.949   2.207   4.240
  194POPC   GL2 2873   8.052   1.851   4.365
  194POPC   C1A 2874   8.100   2.268   4.670
  194POPC   D2A 2875   7.919   2.371   5.064
  194POPC   C3A 2876   8.082   2.353   5.485
  194POPC   C4A 2877   8.258   2.391   5.894
  194POPC   C1B 2878   8.145   1.767   4.816
  194POPC   C2B 2879   8.106   1.502   5.176
  194POPC   C3B 2880   7.830   1.624   5.493
  194POPC   C4B 2881   7.945   1.948   5.785
  195POPC   NC3 2882   0.877   1.099   3.633
  195POPC   PO4 2883   0.880   1.679   4.046
  195POPC   GL1 2884   0.950   1.306   4.263
  195POPC   GL2 2885   1.281   1.235   4.214
  195POPC   C1A 2886   1.039   1.230   4.700
  195POPC   D2A 2887   1.093   1.481   5.087
  195POPC   C3A 2888   0.994   1.252   5.458
  195POPC   C4A 2889   1.198   1.195   5.839
  195POPC   C1B 2890   1.507   1.074   4.530
  195POPC   C2B 2891   1.479   1.103   4.960
  195POPC   C3B 2892   1.465   1.063   5.387
  195POPC   C4B 2893   1.661   0.880   5.704
  196POPC   NC3 2894  11.015  10.380   4.090
  196POPC   PO4 2895  10.899  10.924   3.799
  196POPC   GL1 2896  10.964  10.852   4.249
  196POPC   GL2 2897  11.354  10.733   4.270
  196POPC   C1A 2898  10.849  10.670   4.670
  196POPC   D2A 2899  10.822  10.824   5.093
  196POPC   C3A 2900  10.889  10.694   5.529
  196POPC   C4A 2901  10.840  10.686   6.041
  196POPC   C1B 2902  11.333  10.484   4.647
  196POPC   C2B 2903  11.075  10.329   4.984
  196POPC   C3B 2904  11.216  10.312   5.391
  196POPC   C4B 2905  11.268  10.482   5.776
  197POPC   NC3 2906   7.217   1.035   4.089
  197POPC   PO4 2907   7.798   1.463   3.984
  197POPC   GL1 2908   7.673   1.193   4.284
  197POPC   GL2 2909   7.405   1.382   4.437
  197POPC   C1A 2910   7.583   0.948   4.657
  197POPC   D2A 2911   7.215   1.058   4.912
  197POPC   C3A 2912   7.285   1.043   5.350
  197POPC   C4A 2913   7.425   1.011   5.757
  197POPC   C1B 2914   7.376   1.551   4.872
  197POPC   C2B 2915   7.236   1.558   5.306
  197POPC   C3B 2916   6.928   1.352   5.576
  197POPC   C4B 2917   7.002   1.221   5.997
  198POPC   NC3 2918   9.722   8.986   3.986
  198POPC   PO4 2919   9.217   8.628   4.062
  198POPC   GL1 2920   9.462   8.765   4.380
  198POPC   GL2 2921   9.761   8.595   4.361
  198POPC   C1A 2922   9.524   8.875   4.807
  198POPC   D2A 2923   9.276   9.131   5.103
  198POPC   C3A 2924   9.505   9.154   5.459
  198POPC   C4A 2925   9.585   9.080   5.855
  198POPC   C1B 2926   9.960   8.540   4.753
  198POPC   C2B 2927   9.787   8.577   5.169
  198POPC   C3B 2928   9.596   8.647   5.556
  198POPC   C4B 2929   9.754   8.639   6.004
  199POPC   NC3 2930   8.863  10.536   4.074
  199POPC   PO4 2931   9.065   9.907   3.911
  199POPC   GL1 2932   9.089  10.145   4.304
  199POPC   GL2 2933   8.718  10.172   4.395
  199POPC   C1A 2934   9.046  10.359   4.731
  199POPC   D2A 2935   8.946  10.157   5.141
  199POPC   C3A 2936   9.075  10.373   5.522
  199POPC   C4A 2937   9.056  10.601   5.933
  199POPC   C1B 2938   8.552  10.133   4.795
  199POPC   C2B 2939   8.457   9.936   5.175
  199POPC   C3B 2940   8.531  10.241   5.458
  199POPC   C4B 2941   8.712  10.255   5.865
  200POPC   NC3 2942   1.516   8.904   3.900
  200POPC   PO4 2943   0.907   8.598   3.990
  200POPC   GL1 2944   1.137   8.788   4.352
  200POPC   GL2 2945   1.127   9.106   4.316
  200POPC   C1A 2946   1.302   8.612   4.783
  200POPC   D2A 2947   1.240   8.397   5.209
  200POPC   C3A 2948   1.066   8.647   5.578
  200POPC   C4A 2949   1.282   8.603   6.005
  200POPC   C1B 2950   1.129   9.105   4.788
  200POPC   C2B 2951   1.334   8.948   5.213
  200POPC   C3B 2952   1.304   9.096   5.649
  200POPC   C4B 2953   0.905   9.122   5.820
  201POPC   NC3 2954   9.727   4.039   3.865
  201POPC   PO4 2955   9.690   3.347   3.879
  201POPC   GL1 2956   9.748   3.648   4.265
  201POPC   GL2 2957   9.427   3.794   4.394
  201POPC   C1A 2958   9.780   3.754   4.753
  201POPC   D2A 2959   9.549   3.846   5.153
  201POPC   C3A 2960   9.772   3.978   5.563
  201POPC   C4A 2961   9.980   3.845   5.980
  201POPC   C1B 2962   9.383   3.429   4.704
  201POPC   C2B 2963   9.492   3.287   5.117
  201POPC   C3B 2964   9.509   3.485   5.518
  201POPC   C4B 2965   9.165   3.571   5.737
  202POPC   NC3 2966   5.906   1.147   3.965
  202POPC   PO4 2967   5.397   1.578   3.879
  202POPC   GL1 2968   5.504   1.550   4.293
  202POPC   GL2 2969   5.541   1.206   4.310
  202POPC   C1A 2970   5.664   1.429   4.725
  202POPC   D2A 2971   5.462   1.399   5.098
  202POPC   C3A 2972   5.770   1.478   5.376
  202POPC   C4A 2973   5.951   1.672   5.719
  202POPC   C1B 2974   5.431   0.973   4.707
  202POPC   C2B 2975   5.474   0.827   5.122
  202POPC   C3B 2976   5.499   1.052   5.502
  202POPC   C4B 2977   5.954   1.108   5.676
  203POPC   NC3 2978   9.570   2.861   3.866
  203POPC   PO4 2979  10.125   2.446   3.886
  203POPC   GL1 2980   9.886   2.412   4.262
  203POPC   GL2 2981   9.625   2.669   4.346
  203POPC   C1A 2982   9.985   2.497   4.684
  203POPC   D2A 2983   9.879   2.283   5.047
  203POPC   C3A 2984   9.922   2.536   5.405
  203POPC   C4A 2985   9.875   2.569   5.843
  203POPC   C1B 2986   9.530   2.789   4.789
  203POPC   C2B 2987   9.412   2.548   5.149
  203POPC   C3B 2988   9.448   2.653   5.563
  203POPC   C4B 2989   9.700   3.018   5.665
  204POPC   NC3 2990  11.352   5.219   4.153
  204POPC   PO4 2991  10.777   4.833   4.198
  204POPC   GL1 2992  10.835   4.898   4.543
  204POPC   GL2 2993  10.950   5.246   4.480
  204POPC   C1A 2994  10.741   4.732   4.951
  204POPC   D2A 2995  10.978   4.804   5.319
  204POPC   C3A 2996  10.885   4.964   5.682
  204POPC   C4A 2997  10.722   5.345   5.700
  204POPC   C1B 2998  11.191   5.048   4.841
  204POPC   C2B 2999  11.475   4.901   5.124
  204POPC   C3B 3000  11.407   5.050   5.507
  204POPC   C4B 3001  11.445   4.831   5.827
  205POPC   NC3 3002  10.317   3.628   3.871
  205POPC   PO4 3003  10.933   3.998   3.962
  205POPC   GL1 3004  10.615   3.712   4.287
  205POPC   GL2 3005  10.279   3.524   4.353
  205POPC   C1A 3006  10.618   3.410   4.703
  205POPC   D2A 3007  10.543   3.583   5.130
  205POPC   C3A 3008  10.515   3.308   5.488
  205POPC   C4A 3009  10.782   3.297   5.825
  205POPC   C1B 3010  10.294   3.805   4.713
  205POPC   C2B 3011  10.118   3.888   5.127
  205POPC   C3B 3012  10.233   3.740   5.548
  205POPC   C4B 3013  10.142   3.370   5.851
  206POPC   NC3 3014   3.668   1.034   3.788
  206POPC   PO4 3015   3.579   1.598   3.684
  206POPC   GL1 3016   3.418   1.363   4.297
  206POPC   GL2 3017   3.441   1.004   4.250
  206POPC   C1A 3018   3.681   1.154   4.695
  206POPC   D2A 3019   3.830   0.922   5.111
  206POPC   C3A 3020   3.730   1.103   5.554
  206POPC   C4A 3021   3.668   1.409   5.906
  206POPC   C1B 3022   3.319   0.805   4.630
  206POPC   C2B 3023   3.318   0.981   5.045
  206POPC   C3B 3024   3.227   1.158   5.443
  206POPC   C4B 3025   3.294   1.056   5.866
  207POPC   NC3 3026   5.782   9.750   3.898
  207POPC   PO4 3027   5.668   9.172   4.064
  207POPC   GL1 3028   5.667   9.460   4.432
  207POPC   GL2 3029   5.628   9.799   4.396
  207POPC   C1A 3030   5.790   9.590   4.876
  207POPC   D2A 3031   5.718   9.482   5.335
  207POPC   C3A 3032   6.076   9.526   5.668
  207POPC   C4A 3033   6.302   9.477   6.102
  207POPC   C1B 3034   5.325   9.764   4.751
  207POPC   C2B 3035   5.217   9.591   5.210
  207POPC   C3B 3036   5.358   9.641   5.679
  207POPC   C4B 3037   5.431   9.866   6.107
  208POPC   NC3 3038   0.464  11.409   3.935
  208POPC   PO4 3039   0.731  10.803   3.890
  208POPC   GL1 3040   0.658  11.044   4.247
  208POPC   GL2 3041   0.285  11.096   4.315
  208POPC   C1A 3042   0.676  11.135   4.676
  208POPC   D2A 3043   0.760  11.245   5.101
  208POPC   C3A 3044   0.897  10.913   5.359
  208POPC   C4A 3045   0.623  10.825   5.686
  208POPC   C1B 3046   0.238  10.838   4.719
  208POPC   C2B 3047   0.374  10.865   5.193
  208POPC   C3B 3048   0.316  11.200   5.535
  208POPC   C4B 3049   0.128   0.122   5.586
  209POPC   NC3 3050   3.290  10.296   3.648
  209POPC   PO4 3051   3.677   9.878   4.013
  209POPC   GL1 3052   3.658   9.812   4.409
  209POPC   GL2 3053   3.722   9.470   4.370
  209POPC   C1A 3054   3.308   9.831   4.714
  209POPC   D2A 3055   3.268   9.678   5.113
  209POPC   C3A 3056   3.477   9.790   5.494
  209POPC   C4A 3057   3.284   9.992   5.795
  209POPC   C1B 3058   3.554   9.383   4.794
  209POPC   C2B 3059   3.670   9.379   5.247
  209POPC   C3B 3060   3.547   9.329   5.698
  209POPC   C4B 3061   3.671   9.246   6.152
  210POPC   NC3 3062   0.211   8.023   3.397
  210POPC   PO4 3063   0.314   7.796   4.063
  210POPC   GL1 3064   0.262   8.005   4.387
  210POPC   GL2 3065   0.556   8.169   4.347
  210POPC   C1A 3066   0.429   7.874   4.778
  210POPC   D2A 3067   0.234   7.773   5.138
  210POPC   C3A 3068   0.362   7.976   5.514
  210POPC   C4A 3069   0.151   8.268   5.738
  210POPC   C1B 3070   0.410   8.371   4.705
  210POPC   C2B 3071   0.550   8.343   5.069
  210POPC   C3B 3072   0.507   8.495   5.432
  210POPC   C4B 3073   0.634   8.393   5.835
  211POPC   NC3 3074   7.843  10.387   3.913
  211POPC   PO4 3075   8.475  10.757   3.878
  211POPC   GL1 3076   8.223  10.579   4.247
  211POPC   GL2 3077   8.197  10.193   4.227
  211POPC   C1A 3078   8.114  10.682   4.710
  211POPC   D2A 3079   7.886  10.749   5.125
  211POPC   C3A 3080   8.161  10.620   5.472
  211POPC   C4A 3081   8.238  10.404   5.850
  211POPC   C1B 3082   8.069  10.150   4.637
  211POPC   C2B 3083   8.117  10.289   5.061
  211POPC   C3B 3084   8.007  10.104   5.460
  211POPC   C4B 3085   7.889  10.046   5.885
  212POPC   NC3 3086   1.637   5.349   4.000
  212POPC   PO4 3087   1.847   5.998   3.801
  212POPC   GL1 3088   1.789   5.988   4.244
  212POPC   GL2 3089   1.979   5.743   4.346
  212POPC   C1A 3090   1.600   5.998   4.641
  212POPC   D2A 3091   1.656   5.993   5.058
  212POPC   C3A 3092   1.924   6.053   5.379
  212POPC   C4A 3093   1.780   5.961   5.806
  212POPC   C1B 3094   1.931   5.637   4.770
  212POPC   C2B 3095   1.955   5.551   5.196
  212POPC   C3B 3096   2.013   5.541   5.633
  212POPC   C4B 3097   1.953   5.288   6.001
  213POPC   NC3 3098   5.620  11.275   3.586
  213POPC   PO4 3099   6.185   0.177   3.807
  213POPC   GL1 3100   6.093   0.035   4.234
  213POPC   GL2 3101   5.789  11.328   4.229
  213POPC   C1A 3102   5.994   0.033   4.698
  213POPC   D2A 3103   6.085  11.214   5.034
  213POPC   C3A 3104   6.090  11.393   5.429
  213POPC   C4A 3105   6.154  11.210   5.806
  213POPC   C1B 3106   5.768  11.083   4.620
  213POPC   C2B 3107   5.618  10.954   5.049
  213POPC   C3B 3108   5.674  11.101   5.468
  213POPC   C4B 3109   5.637  11.077   5.903
  214POPC   NC3 3110   0.220   4.946   3.802
  214POPC   PO4 3111   0.883   4.565   3.885
  214POPC   GL1 3112   0.691   4.752   4.300
  214POPC   GL2 3113   0.402   4.977   4.297
  214POPC   C1A 3114   0.748   4.976   4.697
  214POPC   D2A 3115   0.768   4.832   5.118
  214POPC   C3A 3116   0.401   4.691   5.371
  214POPC   C4A 3117   0.468   4.808   5.804
  214POPC   C1B 3118   0.229   5.046   4.692
  214POPC   C2B 3119   0.409   5.242   5.048
  214POPC   C3B 3120   0.404   5.202   5.484
  214POPC   C4B 3121   0.190   5.266   5.898
  215POPC   NC3 3122   5.673   0.220   3.911
  215POPC   PO4 3123   5.482   0.878   3.923
  215POPC   GL1 3124   5.647   0.684   4.314
  215POPC   GL2 3125   5.698   0.325   4.392
  215POPC   C1A 3126   5.820   0.627   4.767
  215POPC   D2A 3127   5.847   0.405   5.165
  215POPC   C3A 3128   5.791   0.601   5.601
  215POPC   C4A 3129   5.593   0.826   5.938
  215POPC   C1B 3130   5.479   0.018   4.650
  215POPC   C2B 3131   5.630  11.449   5.084
  215POPC   C3B 3132   5.629   0.109   5.519
  215POPC   C4B 3133   5.835   0.125   5.921
  216POPC   NC3 3134   2.881   7.657   4.007
  216POPC   PO4 3135   2.362   8.093   3.963
  216POPC   GL1 3136   2.637   8.024   4.306
  216POPC   GL2 3137   2.367   8.031   4.495
  216POPC   C1A 3138   2.896   7.950   4.706
  216POPC   D2A 3139   2.845   8.109   5.170
  216POPC   C3A 3140   2.961   8.041   5.625
  216POPC   C4A 3141   2.694   7.863   5.977
  216POPC   C1B 3142   2.560   8.326   4.774
  216POPC   C2B 3143   2.378   8.303   5.186
  216POPC   C3B 3144   2.484   8.210   5.600
  216POPC   C4B 3145   2.667   8.367   5.972
  217POPC   NC3 3146   1.854   6.495   3.917
  217POPC   PO4 3147   2.449   6.391   3.868
  217POPC   GL1 3148   2.240   6.202   4.230
  217POPC   GL2 3149   2.074   6.502   4.370
  217POPC   C1A 3150   2.069   6.144   4.702
  217POPC   D2A 3151   2.232   6.393   5.066
  217POPC   C3A 3152   2.142   6.549   5.477
  217POPC   C4A 3153   1.779   6.445   5.703
  217POPC   C1B 3154   1.818   6.583   4.766
  217POPC   C2B 3155   1.717   6.566   5.202
  217POPC   C3B 3156   1.761   6.914   5.510
  217POPC   C4B 3157   2.013   6.867   5.875
  218POPC   NC3 3158   0.506   3.360   3.947
  218POPC   PO4 3159   0.117   3.924   3.932
  218POPC   GL1 3160   0.396   3.760   4.278
  218POPC   GL2 3161   0.377   3.439   4.421
  218POPC   C1A 3162   0.621   3.808   4.679
  218POPC   D2A 3163   0.378   3.795   5.069
  218POPC   C3A 3164   0.506   3.677   5.478
  218POPC   C4A 3165   0.276   3.758   5.809
  218POPC   C1B 3166   0.357   3.211   4.760
  218POPC   C2B 3167   0.489   3.298   5.149
  218POPC   C3B 3168   0.283   3.188   5.482
  218POPC   C4B 3169   0.447   3.276   5.825
  219POPC   NC3 3170  10.258   7.080   4.022
  219POPC   PO4 3171  10.922   7.355   3.969
  219POPC   GL1 3172  10.811   7.142   4.306
  219POPC   GL2 3173  10.499   7.276   4.412
  219POPC   C1A 3174  10.832   7.042   4.723
  219POPC   D2A 3175  10.692   6.910   5.130
  219POPC   C3A 3176  10.656   7.128   5.508
  219POPC   C4A 3177  10.277   7.100   5.723
  219POPC   C1B 3178  10.624   7.650   4.651
  219POPC   C2B 3179  10.463   7.762   5.053
  219POPC   C3B 3180  10.304   7.481   5.337
  219POPC   C4B 3181  10.480   7.574   5.706
  220POPC   NC3 3182  10.586   4.491   3.968
  220POPC   PO4 3183  10.122   3.993   4.086
  220POPC   GL1 3184  10.243   4.347   4.333
  220POPC   GL2 3185  10.540   4.480   4.472
  220POPC   C1A 3186  10.191   4.294   4.767
  220POPC   D2A 3187  10.434   4.312   5.079
  220POPC   C3A 3188  10.203   4.267   5.447
  220POPC   C4A 3189  10.098   4.402   5.836
  220POPC   C1B 3190  10.699   4.118   4.647
  220POPC   C2B 3191  10.852   4.016   5.057
  220POPC   C3B 3192  10.797   4.288   5.419
  220POPC   C4B 3193  10.576   4.177   5.782
  221POPC   NC3 3194   5.038   8.152   3.865
  221POPC   PO4 3195   4.832   7.641   4.168
  221POPC   GL1 3196   4.957   7.923   4.490
  221POPC   GL2 3197   4.914   8.237   4.355
  221POPC   C1A 3198   4.850   8.109   4.901
  221POPC   D2A 3199   4.587   8.248   5.248
  221POPC   C3A 3200   4.572   7.968   5.604
  221POPC   C4A 3201   4.732   7.677   5.905
  221POPC   C1B 3202   5.196   8.408   4.664
  221POPC   C2B 3203   5.307   8.230   5.086
  221POPC   C3B 3204   5.057   8.178   5.482
  221POPC   C4B 3205   4.879   8.260   5.908
  222POPC   NC3 3206   1.307   4.315   3.888
  222POPC   PO4 3207   1.215   3.748   4.075
  222POPC   GL1 3208   1.061   4.022   4.394
  222POPC   GL2 3209   1.079   4.387   4.332
  222POPC   C1A 3210   1.068   4.004   4.855
  222POPC   D2A 3211   1.316   3.951   5.226
  222POPC   C3A 3212   1.277   4.194   5.651
  222POPC   C4A 3213   1.516   4.030   6.040
  222POPC   C1B 3214   1.012   4.513   4.751
  222POPC   C2B 3215   1.127   4.424   5.173
  222POPC   C3B 3216   0.872   4.525   5.512
  222POPC   C4B 3217   0.940   4.587   5.888
  223POPC   NC3 3218   2.708   8.396   3.951
  223POPC   PO4 3219   2.699   9.034   3.939
  223POPC   GL1 3220   2.788   8.785   4.300
  223POPC   GL2 3221   2.489   8.634   4.383
  223POPC   C1A 3222   2.861   8.791   4.761
  223POPC   D2A 3223   2.767   8.623   5.154
  223POPC   C3A 3224   2.799   8.661   5.578
  223POPC   C4A 3225   3.107   8.617   5.929
  223POPC   C1B 3226   2.484   9.075   4.598
  223POPC   C2B 3227   2.552   9.187   5.051
  223POPC   C3B 3228   2.654   9.167   5.504
  223POPC   C4B 3229   3.073   9.087   5.715
  224POPC   NC3 3230  10.260   0.398   3.873
  224POPC   PO4 3231  10.676   0.108   4.212
  224POPC   GL1 3232  10.269   0.226   4.391
  224POPC   GL2 3233  10.223   0.601   4.377
  224POPC   C1A 3234  10.178   0.325   4.831
  224POPC   D2A 3235  10.357   0.496   5.208
  224POPC   C3A 3236  10.430   0.220   5.563
  224POPC   C4A 3237  10.051   0.127   5.776
  224POPC   C1B 3238  10.535   0.681   4.726
  224POPC   C2B 3239  10.825   0.696   5.095
  224POPC   C3B 3240  10.658   0.755   5.526
  224POPC   C4B 3241  10.617   0.702   5.992
  225POPC   NC3 3242   2.214   3.027   4.036
  225POPC   PO4 3243   1.778   2.796   3.682
  225POPC   GL1 3244   1.763   2.641   4.150
  225POPC   GL2 3245   2.082   2.582   4.254
  225POPC   C1A 3246   1.676   2.731   4.628
  225POPC   D2A 3247   1.629   2.934   5.051
  225POPC   C3A 3248   1.775   2.696   5.421
  225POPC   C4A 3249   1.715   2.843   5.832
  225POPC   C1B 3250   2.186   2.815   4.643
  225POPC   C2B 3251   2.131   2.858   5.079
  225POPC   C3B 3252   2.345   2.777   5.441
  225POPC   C4B 3253   2.183   2.647   5.825
  226POPC   NC3 3254   6.908   7.899   3.871
  226POPC   PO4 3255   6.993   8.457   3.834
  226POPC   GL1 3256   7.062   8.412   4.304
  226POPC   GL2 3257   7.355   8.235   4.407
  226POPC   C1A 3258   7.054   8.406   4.797
  226POPC   D2A 3259   7.287   8.333   5.198
  226POPC   C3A 3260   7.117   8.310   5.601
  226POPC   C4A 3261   7.062   8.052   5.977
  226POPC   C1B 3262   7.575   8.406   4.783
  226POPC   C2B 3263   7.790   8.288   5.186
  226POPC   C3B 3264   7.625   8.220   5.614
  226POPC   C4B 3265   7.496   8.336   6.060
  227POPC   NC3 3266   1.291   0.296   4.063
  227POPC   PO4 3267   1.021   0.870   3.990
  227POPC   GL1 3268   1.129   0.712   4.400
  227POPC   GL2 3269   0.982   0.379   4.477
  227POPC   C1A 3270   1.090   0.739   4.847
  227POPC   D2A 3271   0.825   0.873   5.157
  227POPC   C3A 3272   1.025   0.705   5.523
  227POPC   C4A 3273   1.241   0.687   5.913
  227POPC   C1B 3274   1.386   0.345   4.732
  227POPC   C2B 3275   1.250   0.304   5.163
  227POPC   C3B 3276   1.407   0.296   5.562
  227POPC   C4B 3277   1.473  11.434   5.825
  228POPC   NC3 3278  10.870   7.810   3.894
  228POPC   PO4 3279  11.468   7.699   3.658
  228POPC   GL1 3280  11.367   7.537   4.167
  228POPC   GL2 3281  11.331   7.206   4.257
  228POPC   C1A 3282  11.102   7.469   4.629
  228POPC   D2A 3283  10.863   7.415   5.072
  228POPC   C3A 3284  11.005   7.568   5.498
  228POPC   C4A 3285  10.917   7.598   5.966
  228POPC   C1B 3286  11.343   7.028   4.666
  228POPC   C2B 3287  11.200   6.890   5.057
  228POPC   C3B 3288  11.166   7.070   5.466
  228POPC   C4B 3289  11.268   7.261   5.863
  229POPC   NC3 3290   4.406   2.595   3.925
  229POPC   PO4 3291   3.989   2.946   4.039
  229POPC   GL1 3292   4.037   2.663   4.415
  229POPC   GL2 3293   4.284   2.378   4.364
  229POPC   C1A 3294   3.884   2.739   4.844
  229POPC   D2A 3295   3.676   2.645   5.248
  229POPC   C3A 3296   3.895   2.734   5.632
  229POPC   C4A 3297   4.113   2.667   6.040
  229POPC   C1B 3298   4.326   2.466   4.793
  229POPC   C2B 3299   4.171   2.482   5.199
  229POPC   C3B 3300   4.296   2.419   5.605
  229POPC   C4B 3301   4.557   2.740   5.772
  230POPC   NC3 3302   4.819   9.859   4.087
  230POPC   PO4 3303   5.450  10.062   3.981
  230POPC   GL1 3304   5.394  10.268   4.358
  230POPC   GL2 3305   5.264  10.616   4.324
  230POPC   C1A 3306   5.233  10.293   4.751
  230POPC   D2A 3307   5.068  10.482   5.107
  230POPC   C3A 3308   5.113  10.146   5.390
  230POPC   C4A 3309   5.378  10.162   5.709
  230POPC   C1B 3310   4.898  10.706   4.604
  230POPC   C2B 3311   4.792  10.920   5.008
  230POPC   C3B 3312   4.738  10.754   5.408
  230POPC   C4B 3313   5.111  10.610   5.631
  231POPC   NC3 3314  10.499   2.666   4.077
  231POPC   PO4 3315  10.686   3.284   3.938
  231POPC   GL1 3316  10.788   3.041   4.320
  231POPC   GL2 3317  10.484   2.973   4.488
  231POPC   C1A 3318  10.963   2.938   4.729
  231POPC   D2A 3319  10.822   3.093   5.133
  231POPC   C3A 3320  10.815   2.862   5.522
  231POPC   C4A 3321  10.738   2.634   5.892
  231POPC   C1B 3322  10.543   2.580   4.724
  231POPC   C2B 3323  10.416   2.363   5.107
  231POPC   C3B 3324  10.412   2.512   5.525
  231POPC   C4B 3325  10.246   2.888   5.690
  232POPC   NC3 3326   7.263  10.820   4.025
  232POPC   PO4 3327   6.943  11.446   3.813
  232POPC   GL1 3328   7.024  11.250   4.256
  232POPC   GL2 3329   7.359  11.108   4.428
  232POPC   C1A 3330   6.941  11.220   4.725
  232POPC   D2A 3331   7.000  11.403   5.148
  232POPC   C3A 3332   7.066  11.182   5.554
  232POPC   C4A 3333   6.944  11.390   5.951
  232POPC   C1B 3334   7.376  10.936   4.862
  232POPC   C2B 3335   7.504  11.254   5.178
  232POPC   C3B 3336   7.551  11.385   5.586
  232POPC   C4B 3337   7.527  10.960   5.766
  233POPC   NC3 3338   1.543   3.687   3.766
  233POPC   PO4 3339   1.701   3.150   4.095
  233POPC   GL1 3340   1.645   3.546   4.289
  233POPC   GL2 3341   1.976   3.581   4.335
  233POPC   C1A 3342   1.559   3.786   4.673
  233POPC   D2A 3343   1.786   3.938   4.993
  233POPC   C3A 3344   1.766   3.791   5.381
  233POPC   C4A 3345   1.863   3.624   5.739
  233POPC   C1B 3346   1.958   3.325   4.730
  233POPC   C2B 3347   1.992   3.354   5.168
  233POPC   C3B 3348   2.003   3.150   5.548
  233POPC   C4B 3349   2.042   3.213   5.998
  234POPC   NC3 3350   9.053   1.999   3.867
  234POPC   PO4 3351   8.462   2.352   4.032
  234POPC   GL1 3352   8.839   2.228   4.263
  234POPC   GL2 3353   8.786   1.899   4.285
  234POPC   C1A 3354   9.021   2.123   4.695
  234POPC   D2A 3355   8.967   2.298   5.093
  234POPC   C3A 3356   9.037   2.016   5.412
  234POPC   C4A 3357   9.004   2.065   5.821
  234POPC   C1B 3358   8.541   2.009   4.627
  234POPC   C2B 3359   8.592   1.873   5.052
  234POPC   C3B 3360   8.330   1.915   5.408
  234POPC   C4B 3361   8.486   1.941   5.826
  235POPC   NC3 3362   9.509   0.236   3.787
  235POPC   PO4 3363   9.221   0.825   3.874
  235POPC   GL1 3364   9.406   0.522   4.202
  235POPC   GL2 3365   9.777   0.412   4.177
  235POPC   C1A 3366   9.257   0.401   4.643
  235POPC   D2A 3367   9.201   0.595   5.066
  235POPC   C3A 3368   9.297   0.301   5.358
  235POPC   C4A 3369   9.508   0.181   5.720
  235POPC   C1B 3370   9.758   0.520   4.607
  235POPC   C2B 3371   9.697   0.406   5.042
  235POPC   C3B 3372   9.842   0.498   5.467
  235POPC   C4B 3373  10.195   0.639   5.725
  236POPC   NC3 3374   8.798   1.034   3.915
  236POPC   PO4 3375   8.611   1.683   3.841
  236POPC   GL1 3376   8.648   1.421   4.208
  236POPC   GL2 3377   9.035   1.437   4.193
  236POPC   C1A 3378   8.580   1.487   4.666
  236POPC   D2A 3379   8.601   1.349   5.105
  236POPC   C3A 3380   8.721   1.597   5.485
  236POPC   C4A 3381   9.091   1.569   5.736
  236POPC   C1B 3382   8.984   1.161   4.562
  236POPC   C2B 3383   9.089   1.107   5.006
  236POPC   C3B 3384   8.946   1.137   5.431
  236POPC   C4B 3385   9.072   1.052   5.827
  237POPC   NC3 3386   0.259   7.354   3.891
  237POPC   PO4 3387   0.886   7.017   3.908
  237POPC   GL1 3388   0.664   7.126   4.337
  237POPC   GL2 3389   0.328   7.265   4.370
  237POPC   C1A 3390   0.613   7.329   4.787
  237POPC   D2A 3391   0.355   7.245   5.181
  237POPC   C3A 3392   0.480   7.246   5.654
  237POPC   C4A 3393   0.217   7.157   6.051
  237POPC   C1B 3394   0.116   7.451   4.710
  237POPC   C2B 3395  11.375   7.399   5.098
  237POPC   C3B 3396   0.038   7.501   5.525
  237POPC   C4B 3397   0.281   7.637   5.906
  238POPC   NC3 3398   5.533   2.005   3.974
  238POPC   PO4 3399   5.947   2.378   4.117
  238POPC   GL1 3400   5.859   1.995   4.360
  238POPC   GL2 3401   6.002   1.676   4.240
  238POPC   C1A 3402   5.530   1.906   4.684
  238POPC   D2A 3403   5.330   1.904   5.109
  238POPC   C3A 3404   5.590   1.950   5.484
  238POPC   C4A 3405   5.808   2.153   5.848
  238POPC   C1B 3406   6.086   1.720   4.728
  238POPC   C2B 3407   6.049   1.877   5.178
  238POPC   C3B 3408   6.230   2.085   5.546
  238POPC   C4B 3409   6.278   1.989   5.994
  239POPC   NC3 3410   0.689   6.658   4.129
  239POPC   PO4 3411   0.096   6.905   3.960
  239POPC   GL1 3412   0.224   6.758   4.328
  239POPC   GL2 3413   0.170   6.405   4.261
  239POPC   C1A 3414   0.325   6.900   4.735
  239POPC   D2A 3415   0.452   6.739   5.089
  239POPC   C3A 3416   0.335   6.784   5.509
  239POPC   C4A 3417   0.642   6.584   5.767
  239POPC   C1B 3418   0.374   6.384   4.675
  239POPC   C2B 3419   0.455   6.223   5.101
  239POPC   C3B 3420   0.312   6.274   5.507
  239POPC   C4B 3421   0.366   6.100   5.923
  240POPC   NC3 3422  10.359   9.648   3.909
  240POPC   PO4 3423  10.847   9.122   3.809
  240POPC   GL1 3424  10.513   9.253   4.175
  240POPC   GL2 3425  10.677   9.550   4.294
  240POPC   C1A 3426  10.427   9.292   4.662
  240POPC   D2A 3427  10.558   9.209   5.089
  240POPC   C3A 3428  10.356   9.436   5.380
  240POPC   C4A 3429  10.571   9.666   5.678
  240POPC   C1B 3430  10.356   9.796   4.547
  240POPC   C2B 3431  10.246   9.763   4.993
  240POPC   C3B 3432  10.187   9.920   5.441
  240POPC   C4B 3433  10.321  10.037   5.906
  241POPC   NC3 3434   4.842  11.177   3.849
  241POPC   PO4 3435   5.503  10.950   3.881
  241POPC   GL1 3436   5.319  11.129   4.253
  241POPC   GL2 3437   5.012  11.279   4.321
  241POPC   C1A 3438   5.256  11.049   4.695
  241POPC   D2A 3439   5.135  11.315   5.017
  241POPC   C3A 3440   5.160  11.093   5.392
  241POPC   C4A 3441   5.242  11.358   5.732
  241POPC   C1B 3442   4.728  11.308   4.689
  241POPC   C2B 3443   4.621  11.460   5.108
  241POPC   C3B 3444   4.542  11.315   5.516
  241POPC   C4B 3445   4.785  11.114   5.761
  242POPC   NC3 3446  11.286   5.987   3.592
  242POPC   PO4 3447  10.950   5.625   4.053
  242POPC   GL1 3448  11.122   5.727   4.420
  242POPC   GL2 3449  11.425   5.703   4.268
  242POPC   C1A 3450  11.213   5.564   4.845
  242POPC   D2A 3451  11.060   5.371   5.268
  242POPC   C3A 3452  11.045   5.710   5.595
  242POPC   C4A 3453  10.893   6.127   5.549
  242POPC   C1B 3454   0.008   6.012   4.596
  242POPC   C2B 3455  11.250   6.085   4.939
  242POPC   C3B 3456  11.368   6.049   5.357
  242POPC   C4B 3457  11.372   6.210   5.771
  243POPC   NC3 3458   8.075  11.117   3.870
  243POPC   PO4 3459   7.693  10.755   4.201
  243POPC   GL1 3460   7.953  11.064   4.376
  243POPC   GL2 3461   8.337  11.109   4.295
  243POPC   C1A 3462   7.842  11.136   4.784
  243POPC   D2A 3463   8.025  11.252   5.150
  243POPC   C3A 3464   7.966  11.078   5.553
  243POPC   C4A 3465   7.892  11.304   5.961
  243POPC   C1B 3466   8.368  11.150   4.733
  243POPC   C2B 3467   8.421  10.927   5.106
  243POPC   C3B 3468   8.485  11.180   5.446
  243POPC   C4B 3469   8.364  11.173   5.874
  244POPC   NC3 3470   2.259   8.917   3.995
  244POPC   PO4 3471   1.727   9.331   3.894
  244POPC   GL1 3472   1.646   9.177   4.328
  244POPC   GL2 3473   1.854   8.951   4.323
  244POPC   C1A 3474   1.631   9.027   4.795
  244POPC   D2A 3475   1.809   8.724   5.131
  244POPC   C3A 3476   1.624   8.697   5.577
  244POPC   C4A 3477   1.692   8.940   5.970
  244POPC   C1B 3478   2.055   8.791   4.641
  244POPC   C2B 3479   2.312   8.747   4.954
  244POPC   C3B 3480   2.306   8.799   5.383
  244POPC   C4B 3481   2.183   9.054   5.739
  245POPC   NC3 3482   4.332   0.536   3.825
  245POPC   PO4 3483   4.144  11.386   3.921
  245POPC   GL1 3484   4.212   0.213   4.266
  245POPC   GL2 3485   4.248   0.548   4.353
  245POPC   C1A 3486   4.357   0.217   4.717
  245POPC   D2A 3487   4.137   0.285   5.098
  245POPC   C3A 3488   4.369   0.294   5.448
  245POPC   C4A 3489   4.334   0.296   5.876
  245POPC   C1B 3490   4.252   0.731   4.795
  245POPC   C2B 3491   4.499   0.744   5.194
  245POPC   C3B 3492   4.528   0.732   5.657
  245POPC   C4B 3493   4.054   0.685   5.737
  246POPC   NC3 3494   8.736   9.572   3.853
  246POPC   PO4 3495   9.366   9.304   3.972
  246POPC   GL1 3496   9.121   9.453   4.369
  246POPC   GL2 3497   8.852   9.680   4.333
  246POPC   C1A 3498   8.896   9.286   4.773
  246POPC   D2A 3499   8.761   9.160   5.233
  246POPC   C3A 3500   9.042   9.357   5.570
  246POPC   C4A 3501   9.124   9.204   6.020
  246POPC   C1B 3502   8.959   9.814   4.738
  246POPC   C2B 3503   8.881   9.651   5.161
  246POPC   C3B 3504   8.875   9.861   5.557
  246POPC   C4B 3505   9.161   9.995   5.854
  247POPC   NC3 3506   2.247   0.548   3.914
  247POPC   PO4 3507   1.737   0.173   4.037
  247POPC   GL1 3508   1.991   0.248   4.346
  247POPC   GL2 3509   2.098   0.598   4.396
  247POPC   C1A 3510   1.905   0.214   4.750
  247POPC   D2A 3511   1.767   0.137   5.118
  247POPC   C3A 3512   2.148   0.077   5.402
  247POPC   C4A 3513   2.031   0.053   5.815
  247POPC   C1B 3514   1.812   0.719   4.719
  247POPC   C2B 3515   1.622   0.634   5.109
  247POPC   C3B 3516   1.858   0.503   5.445
  247POPC   C4B 3517   2.128   0.563   5.738
  248POPC   NC3 3518  10.457   6.141   3.743
  248POPC   PO4 3519  10.606   6.763   3.972
  248POPC   GL1 3520  10.542   6.708   4.354
  248POPC   GL2 3521  10.399   6.386   4.255
  248POPC   C1A 3522  10.388   6.796   4.744
  248POPC   D2A 3523  10.222   6.541   5.059
  248POPC   C3A 3524  10.312   6.696   5.427
  248POPC   C4A 3525  10.033   6.604   5.749
  248POPC   C1B 3526  10.452   6.279   4.684
  248POPC   C2B 3527  10.350   6.017   5.015
  248POPC   C3B 3528  10.342   6.167   5.437
  248POPC   C4B 3529  10.498   6.371   5.770
  249POPC   NC3 3530   0.441   1.977   3.751
  249POPC   PO4 3531   0.112   2.315   4.126
  249POPC   GL1 3532   0.226   1.960   4.325
  249POPC   GL2 3533   0.555   2.007   4.263
  249POPC   C1A 3534   0.210   1.800   4.743
  249POPC   D2A 3535   0.376   1.945   5.109
  249POPC   C3A 3536   0.186   1.840   5.456
  249POPC   C4A 3537   0.018   2.209   5.644
  249POPC   C1B 3538   0.647   2.083   4.685
  249POPC   C2B 3539   0.660   2.350   5.043
  249POPC   C3B 3540   0.502   2.314   5.484
  249POPC   C4B 3541   0.499   1.983   5.814
  250POPC   NC3 3542   0.503   8.856   3.903
  250POPC   PO4 3543  11.438   8.436   3.803
  250POPC   GL1 3544   0.225   8.541   4.211
  250POPC   GL2 3545   0.569   8.677   4.352
  250POPC   C1A 3546   0.172   8.823   4.618
  250POPC   D2A 3547   0.325   8.818   5.057
  250POPC   C3A 3548   0.196   9.134   5.401
  250POPC   C4A 3549   0.072   9.141   5.847
  250POPC   C1B 3550   0.787   8.711   4.705
  250POPC   C2B 3551   0.872   8.751   5.096
  250POPC   C3B 3552   0.696   8.988   5.384
  250POPC   C4B 3553   0.473   8.872   5.756
  251POPC   NC3 3554  11.180  11.284   3.695
  251POPC   PO4 3555  10.693   0.185   3.711
  251POPC   GL1 3556  11.148   0.049   4.116
  251POPC   GL2 3557  11.298  11.243   4.206
  251POPC   C1A 3558  11.168   0.022   4.629
  251POPC   D2A 3559  11.060  11.276   5.047
  251POPC   C3A 3560  11.179  11.386   5.495
  251POPC   C4A 3561  11.140   0.025   5.946
  251POPC   C1B 3562  11.237  11.020   4.647
  251POPC   C2B 3563  11.329  10.804   5.044
  251POPC   C3B 3564  11.383  10.879   5.462
  251POPC   C4B 3565  11.180  11.007   5.847
  252POPC   NC3 3566   4.171   1.013   4.189
  252POPC   PO4 3567   4.631   1.393   3.813
  252POPC   GL1 3568   4.640   1.240   4.222
  252POPC   GL2 3569   4.392   1.432   4.374
  252POPC   C1A 3570   4.693   1.199   4.692
  252POPC   D2A 3571   4.561   1.229   5.109
  252POPC   C3A 3572   4.608   1.460   5.469
  252POPC   C4A 3573   4.754   1.220   5.803
  252POPC   C1B 3574   4.179   1.313   4.771
  252POPC   C2B 3575   4.087   1.353   5.207
  252POPC   C3B 3576   4.235   1.130   5.534
  252POPC   C4B 3577   4.159   1.464   5.770
  253POPC   NC3 3578   5.572  10.497   3.925
  253POPC   PO4 3579   6.071  10.092   3.886
  253POPC   GL1 3580   5.899  10.227   4.285
  253POPC   GL2 3581   5.934  10.585   4.299
  253POPC   C1A 3582   5.765  10.115   4.747
  253POPC   D2A 3583   5.560   9.963   5.157
  253POPC   C3A 3584   5.807   9.959   5.519
  253POPC   C4A 3585   5.873  10.278   5.784
  253POPC   C1B 3586   5.648  10.598   4.659
  253POPC   C2B 3587   5.588  10.457   5.085
  253POPC   C3B 3588   5.610  10.594   5.476
  253POPC   C4B 3589   5.967  10.756   5.714
  254POPC   NC3 3590   1.855  10.624   3.654
  254POPC   PO4 3591   2.415  10.963   3.847
  254POPC   GL1 3592   2.345  10.865   4.309
  254POPC   GL2 3593   2.141  10.578   4.394
  254POPC   C1A 3594   2.300  10.856   4.790
  254POPC   D2A 3595   2.064  10.637   5.092
  254POPC   C3A 3596   2.025  10.819   5.477
  254POPC   C4A 3597   2.211  10.684   5.865
  254POPC   C1B 3598   2.211  10.264   4.740
  254POPC   C2B 3599   2.180  10.115   5.190
  254POPC   C3B 3600   2.011  10.328   5.529
  254POPC   C4B 3601   1.659  10.534   5.695
  255POPC   NC3 3602   9.666  11.094   3.880
  255POPC   PO4 3603   9.097   0.032   3.765
  255POPC   GL1 3604   9.427  11.477   4.206
  255POPC   GL2 3605   9.495  11.132   4.351
  255POPC   C1A 3606   9.596   0.008   4.682
  255POPC   D2A 3607   9.449  11.373   5.134
  255POPC   C3A 3608   9.662  11.242   5.565
  255POPC   C4A 3609   9.735  11.378   6.077
  255POPC   C1B 3610   9.416  10.845   4.709
  255POPC   C2B 3611   9.343  10.865   5.127
  255POPC   C3B 3612   9.228  10.896   5.530
  255POPC   C4B 3613   9.489  10.890   5.896
  256POPC   NC3 3614   9.161   4.774   4.043
  256POPC   PO4 3615   8.618   4.999   3.918
  256POPC   GL1 3616   8.768   5.140   4.361
  256POPC   GL2 3617   9.106   5.105   4.452
  256POPC   C1A 3618   8.765   4.994   4.829
  256POPC   D2A 3619   8.868   4.972   5.295
  256POPC   C3A 3620   8.732   4.890   5.716
  256POPC   C4A 3621   8.386   4.881   6.017
  256POPC   C1B 3622   9.136   5.346   4.828
  256POPC   C2B 3623   9.220   5.346   5.275
  256POPC   C3B 3624   9.119   5.247   5.687
  256POPC   C4B 3625   9.218   4.935   5.974
  257POPC   NC3 3626   2.892   3.762   3.998
  257POPC   PO4 3627   2.666   3.162   3.959
  257POPC   GL1 3628   2.682   3.367   4.316
  257POPC   GL2 3629   2.387   3.275   4.454
  257POPC   C1A 3630   2.787   3.543   4.708
  257POPC   D2A 3631   2.976   3.387   5.079
  257POPC   C3A 3632   2.868   3.525   5.500
  257POPC   C4A 3633   3.103   3.418   5.859
  257POPC   C1B 3634   2.455   3.196   4.883
  257POPC   C2B 3635   2.475   3.251   5.305
  257POPC   C3B 3636   2.358   3.503   5.654
  257POPC   C4B 3637   2.607   3.527   5.988
  258POPC   NC3 3638   4.169  10.617   4.021
  258POPC   PO4 3639   4.387   9.993   4.117
  258POPC   GL1 3640   4.121  10.158   4.451
  258POPC   GL2 3641   3.836  10.297   4.311
  258POPC   C1A 3642   4.215  10.165   4.916
  258POPC   D2A 3643   4.617  10.206   5.179
  258POPC   C3A 3644   4.672  10.287   5.628
  258POPC   C4A 3645   4.698  10.630   5.919
  258POPC   C1B 3646   3.922  10.587   4.704
  258POPC   C2B 3647   3.882  10.500   5.148
  258POPC   C3B 3648   4.134  10.296   5.440
  258POPC   C4B 3649   4.230  10.427   5.851
  259POPC   NC3 3650   5.079   0.659   3.962
  259POPC   PO4 3651   5.262   0.016   3.771
  259POPC   GL1 3652   5.222   0.235   4.205
  259POPC   GL2 3653   4.848   0.276   4.313
  259POPC   C1A 3654   5.276   0.492   4.603
  259POPC   D2A 3655   5.322   0.343   5.041
  259POPC   C3A 3656   5.298   0.505   5.483
  259POPC   C4A 3657   5.344   0.337   5.918
  259POPC   C1B 3658   4.854   0.297   4.789
  259POPC   C2B 3659   4.856   0.399   5.246
  259POPC   C3B 3660   4.847   0.279   5.686
  259POPC   C4B 3661   4.833   0.469   6.099
  260POPC   NC3 3662   1.899   7.984   3.977
  260POPC   PO4 3663   1.903   8.642   3.936
  260POPC   GL1 3664   2.044   8.398   4.303
  260POPC   GL2 3665   1.756   8.231   4.401
  260POPC   C1A 3666   2.038   8.315   4.794
  260POPC   D2A 3667   1.748   8.210   5.139
  260POPC   C3A 3668   1.990   8.354   5.494
  260POPC   C4A 3669   2.191   8.555   5.819
  260POPC   C1B 3670   1.863   7.855   4.658
  260POPC   C2B 3671   1.787   7.690   5.095
  260POPC   C3B 3672   1.787   7.839   5.526
  260POPC   C4B 3673   1.574   8.198   5.706
  261POPC   NC3 3674   8.787   2.725   4.100
  261POPC   PO4 3675   9.307   3.041   4.196
  261POPC   GL1 3676   9.096   2.886   4.528
  261POPC   GL2 3677   9.118   2.577   4.500
  261POPC   C1A 3678   9.013   2.847   4.959
  261POPC   D2A 3679   8.958   2.738   5.389
  261POPC   C3A 3680   9.150   3.029   5.693
  261POPC   C4A 3681   9.172   3.170   6.071
  261POPC   C1B 3682   8.683   2.518   4.714
  261POPC   C2B 3683   8.456   2.358   5.094
  261POPC   C3B 3684   8.627   2.355   5.529
  261POPC   C4B 3685   8.598   2.764   5.765
  262POPC   NC3 3686   3.243  10.848   3.966
  262POPC   PO4 3687   3.280   0.007   3.980
  262POPC   GL1 3688   3.177  11.313   4.342
  262POPC   GL2 3689   3.476  11.142   4.349
  262POPC   C1A 3690   3.200  11.326   4.797
  262POPC   D2A 3691   3.279  11.141   5.188
  262POPC   C3A 3692   3.218  11.354   5.567
  262POPC   C4A 3693   3.314  11.422   6.005
  262POPC   C1B 3694   3.714  11.067   4.720
  262POPC   C2B 3695   3.761  11.003   5.148
  262POPC   C3B 3696   3.657  11.061   5.554
  262POPC   C4B 3697   3.814  10.694   5.707
  263POPC   NC3 3698  11.236   2.126   3.963
  263POPC   PO4 3699   0.144   1.620   3.909
  263POPC   GL1 3700  11.276   1.713   4.283
  263POPC   GL2 3701  10.970   1.992   4.351
  263POPC   C1A 3702  11.211   1.873   4.753
  263POPC   D2A 3703  11.348   2.065   5.122
  263POPC   C3A 3704  11.175   1.864   5.491
  263POPC   C4A 3705  11.392   1.798   5.907
  263POPC   C1B 3706  10.751   2.121   4.730
  263POPC   C2B 3707  10.836   2.055   5.137
  263POPC   C3B 3708  10.701   2.097   5.530
  263POPC   C4B 3709  10.974   2.181   5.846
  264POPC   NC3 3710   4.322   1.743   3.751
  264POPC   PO4 3711   3.858   1.339   4.092
  264POPC   GL1 3712   3.926   1.651   4.441
  264POPC   GL2 3713   4.175   1.860   4.238
  264POPC   C1A 3714   3.920   1.730   4.898
  264POPC   D2A 3715   4.015   2.014   5.221
  264POPC   C3A 3716   4.146   1.932   5.594
  264POPC   C4A 3717   3.894   1.870   5.944
  264POPC   C1B 3718   4.310   1.947   4.672
  264POPC   C2B 3719   4.428   1.751   5.083
  264POPC   C3B 3720   4.644   1.975   5.442
  264POPC   C4B 3721   4.736   2.251   5.813
  265POPC   NC3 3722   1.126   6.624   3.761
  265POPC   PO4 3723   1.509   6.434   4.207
  265POPC   GL1 3724   1.319   6.418   4.548
  265POPC   GL2 3725   1.009   6.392   4.435
  265POPC   C1A 3726   1.313   6.630   4.911
  265POPC   D2A 3727   1.297   6.863   5.261
  265POPC   C3A 3728   1.326   6.662   5.646
  265POPC   C4A 3729   1.536   6.886   5.999
  265POPC   C1B 3730   0.839   6.471   4.835
  265POPC   C2B 3731   0.870   6.537   5.273
  265POPC   C3B 3732   0.833   6.196   5.513
  265POPC   C4B 3733   1.040   6.279   5.870
  266POPC   NC3 3734   1.399   6.077   3.950
  266POPC   PO4 3735   1.150   5.446   3.955
  266POPC   GL1 3736   1.331   5.671   4.288
  266POPC   GL2 3737   1.060   5.890   4.300
  266POPC   C1A 3738   1.405   5.541   4.712
  266POPC   D2A 3739   1.258   5.670   5.121
  266POPC   C3A 3740   1.535   5.652   5.445
  266POPC   C4A 3741   1.510   5.480   5.814
  266POPC   C1B 3742   1.111   5.980   4.728
  266POPC   C2B 3743   1.194   6.188   5.104
  266POPC   C3B 3744   1.348   6.113   5.502
  266POPC   C4B 3745   1.061   5.747   5.622
  267POPC   NC3 3746   7.266   2.205   3.937
  267POPC   PO4 3747   7.116   1.589   3.618
  267POPC   GL1 3748   7.214   1.709   4.085
  267POPC   GL2 3749   7.544   1.854   4.202
  267POPC   C1A 3750   7.145   1.905   4.550
  267POPC   D2A 3751   7.156   1.997   5.031
  267POPC   C3A 3752   6.867   1.934   5.395
  267POPC   C4A 3753   7.060   1.798   5.772
  267POPC   C1B 3754   7.654   1.941   4.647
  267POPC   C2B 3755   7.692   1.903   5.088
  267POPC   C3B 3756   7.474   1.989   5.474
  267POPC   C4B 3757   7.163   2.271   5.612
  268POPC   NC3 3758  10.289   8.233   3.652
  268POPC   PO4 3759  10.053   7.685   3.913
  268POPC   GL1 3760  10.335   7.788   4.258
  268POPC   GL2 3761  10.446   8.138   4.284
  268POPC   C1A 3762  10.162   7.903   4.681
  268POPC   D2A 3763   9.928   8.092   5.014
  268POPC   C3A 3764  10.097   7.967   5.381
  268POPC   C4A 3765  10.138   7.933   5.772
  268POPC   C1B 3766  10.430   8.332   4.714
  268POPC   C2B 3767  10.309   8.386   5.164
  268POPC   C3B 3768  10.537   8.228   5.548
  268POPC   C4B 3769  10.599   8.398   5.963
  269POPC   NC3 3770   2.840   9.488   3.869
  269POPC   PO4 3771   2.229   9.820   3.906
  269POPC   GL1 3772   2.553   9.673   4.244
  269POPC   GL2 3773   2.879   9.652   4.406
  269POPC   C1A 3774   2.485   9.575   4.701
  269POPC   D2A 3775   2.751   9.667   5.065
  269POPC   C3A 3776   2.507   9.753   5.408
  269POPC   C4A 3777   2.354   9.533   5.736
  269POPC   C1B 3778   2.973   9.327   4.736
  269POPC   C2B 3779   3.054   9.233   5.190
  269POPC   C3B 3780   3.004   9.560   5.535
  269POPC   C4B 3781   2.797   9.798   5.840
  270POPC   NC3 3782   3.855  11.034   3.764
  270POPC   PO4 3783   4.511  10.857   3.801
  270POPC   GL1 3784   4.558  10.957   4.241
  270POPC   GL2 3785   4.509  11.298   4.249
  270POPC   C1A 3786   4.403  10.860   4.665
  270POPC   D2A 3787   4.358  10.645   5.055
  270POPC   C3A 3788   4.209  10.867   5.406
  270POPC   C4A 3789   4.292  10.937   5.829
  270POPC   C1B 3790   4.159  11.283   4.562
  270POPC   C2B 3791   4.182  11.238   5.003
  270POPC   C3B 3792   4.048  11.372   5.413
  270POPC   C4B 3793   3.959  11.349   5.855
  271POPC   NC3 3794   2.847   6.607   3.877
  271POPC   PO4 3795   2.895   7.204   4.004
  271POPC   GL1 3796   2.853   6.841   4.366
  271POPC   GL2 3797   2.606   6.570   4.327
  271POPC   C1A 3798   2.917   6.604   4.815
  271POPC   D2A 3799   3.076   6.454   5.265
  271POPC   C3A 3800   2.893   6.689   5.605
  271POPC   C4A 3801   2.499   6.846   5.742
  271POPC   C1B 3802   2.546   6.290   4.651
  271POPC   C2B 3803   2.699   6.195   5.067
  271POPC   C3B 3804   2.587   6.297   5.492
  271POPC   C4B 3805   2.262   6.148   5.749
  272POPC   NC3 3806   6.949   3.096   4.088
  272POPC   PO4 3807   6.820   2.415   3.976
  272POPC   GL1 3808   7.091   2.590   4.333
  272POPC   GL2 3809   7.465   2.524   4.296
  272POPC   C1A 3810   7.078   2.808   4.771
  272POPC   D2A 3811   7.276   2.880   5.199
  272POPC   C3A 3812   7.106   2.787   5.638
  272POPC   C4A 3813   7.160   2.976   6.082
  272POPC   C1B 3814   7.404   2.386   4.725
  272POPC   C2B 3815   7.432   2.395   5.167
  272POPC   C3B 3816   7.592   2.521   5.556
  272POPC   C4B 3817   7.765   2.427   5.964
  273POPC   NC3 3818   1.924   9.754   3.568
  273POPC   PO4 3819   1.935  10.183   4.141
  273POPC   GL1 3820   2.117   9.840   4.418
  273POPC   GL2 3821   2.108   9.441   4.255
  273POPC   C1A 3822   2.014   9.791   4.811
  273POPC   D2A 3823   1.738   9.802   5.098
  273POPC   C3A 3824   1.961   9.652   5.392
  273POPC   C4A 3825   2.015   9.877   5.722
  273POPC   C1B 3826   2.033   9.311   4.659
  273POPC   C2B 3827   2.036   9.193   5.085
  273POPC   C3B 3828   1.779   9.170   5.442
  273POPC   C4B 3829   1.820   9.412   5.829
  274POPC   NC3 3830   7.266   8.832   3.886
  274POPC   PO4 3831   7.075   9.406   4.138
  274POPC   GL1 3832   7.325   9.133   4.434
  274POPC   GL2 3833   7.438   8.780   4.359
  274POPC   C1A 3834   7.293   8.982   4.870
  274POPC   D2A 3835   7.321   8.843   5.280
  274POPC   C3A 3836   7.115   9.063   5.669
  274POPC   C4A 3837   6.819   9.052   6.056
  274POPC   C1B 3838   7.732   8.862   4.656
  274POPC   C2B 3839   7.822   8.773   5.052
  274POPC   C3B 3840   7.796   8.868   5.456
  274POPC   C4B 3841   7.490   8.706   5.729
  275POPC   NC3 3842   2.779   1.251   3.730
  275POPC   PO4 3843   2.643   1.776   3.988
  275POPC   GL1 3844   2.730   1.504   4.316
  275POPC   GL2 3845   2.903   1.211   4.240
  275POPC   C1A 3846   2.540   1.411   4.714
  275POPC   D2A 3847   2.347   1.312   5.093
  275POPC   C3A 3848   2.306   1.536   5.447
  275POPC   C4A 3849   2.365   1.402   5.827
  275POPC   C1B 3850   3.032   1.229   4.673
  275POPC   C2B 3851   2.824   1.124   5.075
  275POPC   C3B 3852   2.716   1.212   5.512
  275POPC   C4B 3853   2.791   1.164   5.980
  276POPC   NC3 3854   3.752   2.551   4.015
  276POPC   PO4 3855   3.184   2.472   3.682
  276POPC   GL1 3856   3.126   2.583   4.199
  276POPC   GL2 3857   3.471   2.567   4.447
  276POPC   C1A 3858   3.028   2.514   4.677
  276POPC   D2A 3859   3.233   2.441   5.119
  276POPC   C3A 3860   3.242   2.639   5.555
  276POPC   C4A 3861   3.490   2.686   5.957
  276POPC   C1B 3862   3.387   2.861   4.820
  276POPC   C2B 3863   3.428   3.116   5.214
  276POPC   C3B 3864   3.498   3.102   5.668
  276POPC   C4B 3865   3.873   3.120   5.979
  277POPC   NC3 3866   8.943  10.970   3.601
  277POPC   PO4 3867   9.326  10.642   4.101
  277POPC   GL1 3868   9.029  10.924   4.349
  277POPC   GL2 3869   8.955  11.279   4.254
  277POPC   C1A 3870   8.815  10.863   4.744
  277POPC   D2A 3871   8.867  10.650   5.142
  277POPC   C3A 3872   8.689  10.724   5.550
  277POPC   C4A 3873   8.837  11.042   5.800
  277POPC   C1B 3874   9.104  11.295   4.714
  277POPC   C2B 3875   8.938  11.179   5.145
  277POPC   C3B 3876   9.071  11.384   5.518
  277POPC   C4B 3877   9.013   0.239   5.799
  278POPC   NC3 3878   6.346   2.583   4.039
  278POPC   PO4 3879   6.519   3.199   4.115
  278POPC   GL1 3880   6.629   2.817   4.423
  278POPC   GL2 3881   6.597   2.431   4.444
  278POPC   C1A 3882   6.579   2.721   4.884
  278POPC   D2A 3883   6.759   2.932   5.244
  278POPC   C3A 3884   6.572   2.927   5.653
  278POPC   C4A 3885   6.650   3.138   6.048
  278POPC   C1B 3886   6.892   2.332   4.754
  278POPC   C2B 3887   6.940   2.462   5.180
  278POPC   C3B 3888   6.697   2.450   5.543
  278POPC   C4B 3889   6.345   2.479   5.846
  279POPC   NC3 3890   0.427   2.763   3.780
  279POPC   PO4 3891   0.107   3.109   4.163
  279POPC   GL1 3892   0.485   2.894   4.344
  279POPC   GL2 3893   0.485   2.508   4.406
  279POPC   C1A 3894   0.650   2.799   4.774
  279POPC   D2A 3895   0.508   2.804   5.182
  279POPC   C3A 3896   0.761   2.984   5.476
  279POPC   C4A 3897   0.688   2.775   5.820
  279POPC   C1B 3898   0.209   2.348   4.774
  279POPC   C2B 3899   0.106   2.487   5.185
  279POPC   C3B 3900   0.173   2.703   5.567
  279POPC   C4B 3901   0.257   2.521   5.961
  280POPC   NC3 3902  11.218   3.710   3.768
  280POPC   PO4 3903  11.451   3.178   3.646
  280POPC   GL1 3904  11.416   3.536   4.167
  280POPC   GL2 3905  11.084   3.537   4.235
  280POPC   C1A 3906  11.493   3.625   4.653
  280POPC   D2A 3907  11.497   3.378   5.060
  280POPC   C3A 3908   0.003   3.596   5.417
  280POPC   C4A 3909  11.346   3.508   5.832
  280POPC   C1B 3910  11.003   3.699   4.617
  280POPC   C2B 3911  11.037   3.534   4.994
  280POPC   C3B 3912  11.007   3.500   5.405
  280POPC   C4B 3913  10.756   3.769   5.578
  281POPC   NC3 3914   3.333  10.158   4.151
  281POPC   PO4 3915   3.710  10.737   4.098
  281POPC   GL1 3916   3.390  10.629   4.389
  281POPC   GL2 3917   3.409  10.362   4.602
  281POPC   C1A 3918   3.262  10.827   4.744
  281POPC   D2A 3919   3.385  10.630   5.099
  281POPC   C3A 3920   3.271  10.721   5.513
  281POPC   C4A 3921   3.361  10.527   5.925
  281POPC   C1B 3922   3.704  10.144   4.792
  281POPC   C2B 3923   3.506  10.133   5.123
  281POPC   C3B 3924   3.552  10.301   5.487
  281POPC   C4B 3925   3.783  10.183   5.808
  282POPC   NC3 3926   3.744   0.078   4.071
  282POPC   PO4 3927   3.925   0.698   3.951
  282POPC   GL1 3928   3.730   0.566   4.311
  282POPC   GL2 3929   3.400   0.454   4.241
  282POPC   C1A 3930   3.842   0.327   4.682
  282POPC   D2A 3931   3.694   0.004   5.001
  282POPC   C3A 3932   3.615   0.146   5.436
  282POPC   C4A 3933   3.714   0.298   5.854
  282POPC   C1B 3934   3.324   0.302   4.672
  282POPC   C2B 3935   3.502   0.503   5.058
  282POPC   C3B 3936   3.431   0.653   5.495
  282POPC   C4B 3937   3.195   0.357   5.757
  283POPC   NC3 3938   4.085   9.621   3.978
  283POPC   PO4 3939   4.788   9.363   3.994
  283POPC   GL1 3940   4.528   9.478   4.389
  283POPC   GL2 3941   4.201   9.649   4.457
  283POPC   C1A 3942   4.483   9.581   4.859
  283POPC   D2A 3943   4.706   9.453   5.248
  283POPC   C3A 3944   4.520   9.471   5.681
  283POPC   C4A 3945   4.604   9.635   6.133
  283POPC   C1B 3946   3.959   9.707   4.811
  283POPC   C2B 3947   3.907   9.848   5.205
  283POPC   C3B 3948   3.992   9.745   5.598
  283POPC   C4B 3949   4.327   9.928   5.797
  284POPC   NC3 3950  10.418  10.293   3.804
  284POPC   PO4 3951  10.083  10.856   3.875
  284POPC   GL1 3952  10.309  10.675   4.230
  284POPC   GL2 3953  10.533  10.390   4.309
  284POPC   C1A 3954  10.339  10.752   4.670
  284POPC   D2A 3955  10.407  10.530   5.039
  284POPC   C3A 3956  10.372  10.796   5.342
  284POPC   C4A 3957  10.444  10.781   5.734
  284POPC   C1B 3958  10.612  10.205   4.722
  284POPC   C2B 3959  10.625  10.074   5.156
  284POPC   C3B 3960  10.539  10.302   5.508
  284POPC   C4B 3961  10.821  10.242   5.800
  285POPC   NC3 3962   0.936   5.019   3.958
  285POPC   PO4 3963   0.356   5.388   3.985
  285POPC   GL1 3964   0.737   5.365   4.336
  285POPC   GL2 3965   1.100   5.197   4.402
  285POPC   C1A 3966   0.880   5.485   4.750
  285POPC   D2A 3967   1.141   5.189   4.985
  285POPC   C3A 3968   1.201   5.232   5.433
  285POPC   C4A 3969   0.888   5.086   5.703
  285POPC   C1B 3970   1.354   4.873   4.630
  285POPC   C2B 3971   1.451   4.791   5.087
  285POPC   C3B 3972   1.351   4.729   5.538
  285POPC   C4B 3973   1.517   4.975   5.867
  286POPC   NC3 3974   7.212   9.822   4.019
  286POPC   PO4 3975   7.927   9.874   3.902
  286POPC   GL1 3976   7.689   9.965   4.334
  286POPC   GL2 3977   7.467   9.681   4.422
  286POPC   C1A 3978   7.681   9.870   4.832
  286POPC   D2A 3979   7.337   9.880   5.158
  286POPC   C3A 3980   7.492  10.006   5.570
  286POPC   C4A 3981   7.514   9.718   5.894
  286POPC   C1B 3982   7.305   9.496   4.819
  286POPC   C2B 3983   7.308   9.372   5.269
  286POPC   C3B 3984   7.116   9.603   5.580
  286POPC   C4B 3985   6.726   9.495   5.785
  287POPC   NC3 3986   7.412   0.292   3.851
  287POPC   PO4 3987   7.714   0.901   3.881
  287POPC   GL1 3988   7.718   0.651   4.266
  287POPC   GL2 3989   7.389   0.552   4.300
  287POPC   C1A 3990   7.701   0.422   4.703
  287POPC   D2A 3991   7.757   0.245   5.193
  287POPC   C3A 3992   7.662   0.599   5.548
  287POPC   C4A 3993   7.719   0.695   6.045
  287POPC   C1B 3994   7.203   0.604   4.673
  287POPC   C2B 3995   7.378   0.584   5.079
  287POPC   C3B 3996   7.270   0.296   5.395
  287POPC   C4B 3997   7.133   0.638   5.619
  288POPC   NC3 3998   5.218   9.121   4.035
  288POPC   PO4 3999   4.887   8.587   3.849
  288POPC   GL1 4000   4.805   8.718   4.293
  288POPC   GL2 4001   4.842   9.039   4.369
  288POPC   C1A 4002   4.675   8.567   4.721
  288POPC   D2A 4003   4.949   8.579   5.107
  288POPC   C3A 4004   4.887   8.669   5.547
  288POPC   C4A 4005   5.016   8.750   5.993
  288POPC   C1B 4006   5.047   8.908   4.733
  288POPC   C2B 4007   5.053   9.074   5.174
  288POPC   C3B 4008   4.991   9.191   5.607
  288POPC   C4B 4009   5.358   9.122   5.859
  289POPC   NC3 4010   5.073   1.254   3.891
  289POPC   PO4 4011   4.644   0.737   4.082
  289POPC   GL1 4012   4.858   0.776   4.434
  289POPC   GL2 4013   5.080   1.022   4.360
  289POPC   C1A 4014   4.956   0.794   4.857
  289POPC   D2A 4015   5.055   1.097   5.088
  289POPC   C3A 4016   4.962   0.932   5.437
  289POPC   C4A 4017   5.080   0.810   5.830
  289POPC   C1B 4018   5.147   1.411   4.652
  289POPC   C2B 4019   4.941   1.582   5.055
  289POPC   C3B 4020   5.111   1.459   5.478
  289POPC   C4B 4021   5.436   1.531   5.766
  290POPC   NC3 4022   4.421   7.461   4.207
  290POPC   PO4 4023   3.834   7.671   4.117
  290POPC   GL1 4024   3.990   7.422   4.490
  290POPC   GL2 4025   4.158   7.081   4.448
  290POPC   C1A 4026   4.119   7.464   4.928
  290POPC   D2A 4027   4.255   7.753   5.259
  290POPC   C3A 4028   4.167   7.624   5.690
  290POPC   C4A 4029   3.785   7.424   5.885
  290POPC   C1B 4030   4.485   7.121   4.786
  290POPC   C2B 4031   4.578   7.336   5.187
  290POPC   C3B 4032   4.511   7.245   5.621
  290POPC   C4B 4033   4.132   7.056   5.788
  291POPC   NC3 4034   0.435   0.573   3.885
  291POPC   PO4 4035   0.066   0.025   3.765
  291POPC   GL1 4036   0.168   0.137   4.267
  291POPC   GL2 4037   0.335   0.467   4.364
  291POPC   C1A 4038   0.527   0.111   4.636
  291POPC   D2A 4039   0.760   0.287   5.006
  291POPC   C3A 4040   0.676   0.133   5.439
  291POPC   C4A 4041   0.950   0.223   5.776
  291POPC   C1B 4042   0.579   0.654   4.693
  291POPC   C2B 4043   0.359   0.657   5.105
  291POPC   C3B 4044   0.424   0.570   5.559
  291POPC   C4B 4045   0.371   0.635   5.991
  292POPC   NC3 4046  10.355   2.274   3.513
  292POPC   PO4 4047  10.189   1.711   3.873
  292POPC   GL1 4048  10.202   1.995   4.238
  292POPC   GL2 4049  10.489   2.192   4.291
  292POPC   C1A 4050  10.204   2.036   4.696
  292POPC   D2A 4051  10.350   1.863   5.073
  292POPC   C3A 4052  10.098   2.000   5.406
  292POPC   C4A 4053  10.141   2.163   5.778
  292POPC   C1B 4054  10.551   1.724   4.487
  292POPC   C2B 4055  10.752   1.620   4.886
  292POPC   C3B 4056  10.717   1.589   5.359
  292POPC   C4B 4057  10.419   1.714   5.715
  293POPC   NC3 4058   1.355   1.712   4.059
  293POPC   PO4 4059   1.476   2.247   3.743
  293POPC   GL1 4060   1.395   2.267   4.216
  293POPC   GL2 4061   1.065   2.124   4.254
  293POPC   C1A 4062   1.497   2.239   4.698
  293POPC   D2A 4063   1.675   2.245   5.156
  293POPC   C3A 4064   1.403   2.036   5.493
  293POPC   C4A 4065   1.326   2.036   5.947
  293POPC   C1B 4066   1.112   1.888   4.656
  293POPC   C2B 4067   1.075   2.054   5.063
  293POPC   C3B 4068   0.866   1.940   5.428
  293POPC   C4B 4069   1.032   1.678   5.749
  294POPC   NC3 4070   0.448  10.480   3.745
  294POPC   PO4 4071   0.855  10.144   4.077
  294POPC   GL1 4072   0.712  10.516   4.305
  294POPC   GL2 4073   0.372  10.594   4.251
  294POPC   C1A 4074   0.711  10.635   4.725
  294POPC   D2A 4075   0.719  10.280   4.985
  294POPC   C3A 4076   0.704  10.425   5.362
  294POPC   C4A 4077   0.649  10.336   5.762
  294POPC   C1B 4078   0.325  10.320   4.630
  294POPC   C2B 4079   0.172  10.408   5.061
  294POPC   C3B 4080   0.211  10.455   5.517
  294POPC   C4B 4081   0.196  10.295   5.962
  295POPC   NC3 4082   2.912   2.836   3.754
  295POPC   PO4 4083   2.394   2.458   3.862
  295POPC   GL1 4084   2.590   2.541   4.225
  295POPC   GL2 4085   2.660   2.840   4.348
  295POPC   C1A 4086   2.525   2.434   4.620
  295POPC   D2A 4087   2.588   2.674   4.959
  295POPC   C3A 4088   2.742   2.453   5.316
  295POPC   C4A 4089   2.697   2.570   5.750
  295POPC   C1B 4090   2.889   3.006   4.701
  295POPC   C2B 4091   2.985   2.890   5.146
  295POPC   C3B 4092   2.880   3.012   5.548
  295POPC   C4B 4093   3.017   2.935   5.965
  296POPC   NC3 4094   1.158  10.981   3.980
  296POPC   PO4 4095   0.849   0.130   4.027
  296POPC   GL1 4096   1.075  11.381   4.338
  296POPC   GL2 4097   1.144  11.040   4.480
  296POPC   C1A 4098   1.097  11.441   4.777
  296POPC   D2A 4099   1.356  11.286   5.102
  296POPC   C3A 4100   1.132  11.374   5.446
  296POPC   C4A 4101   0.993  11.191   5.819
  296POPC   C1B 4102   1.473  10.825   4.734
  296POPC   C2B 4103   1.571  10.811   5.191
  296POPC   C3B 4104   1.385  10.946   5.560
  296POPC   C4B 4105   1.409  10.884   5.987
  297POPC   NC3 4106   9.938   8.093   4.119
  297POPC   PO4 4107   9.320   7.851   3.905
  297POPC   GL1 4108   9.519   7.843   4.292
  297POPC   GL2 4109   9.448   8.201   4.317
  297POPC   C1A 4110   9.665   7.779   4.722
  297POPC   D2A 4111   9.837   7.590   5.140
  297POPC   C3A 4112   9.608   7.794   5.481
  297POPC   C4A 4113   9.693   8.166   5.670
  297POPC   C1B 4114   9.488   8.338   4.754
  297POPC   C2B 4115   9.462   8.190   5.192
  297POPC   C3B 4116   9.217   8.302   5.568
  297POPC   C4B 4117   9.022   8.244   5.976
  298POPC   NC3 4118   6.513  11.365   3.945
  298POPC   PO4 4119   6.531  10.743   3.891
  298POPC   GL1 4120   6.570  10.974   4.306
  298POPC   GL2 4121   6.543  11.338   4.427
  298POPC   C1A 4122   6.430  10.944   4.734
  298POPC   D2A 4123   6.606  11.061   5.110
  298POPC   C3A 4124   6.403  10.913   5.464
  298POPC   C4A 4125   6.642  11.003   5.837
  298POPC   C1B 4126   6.477  11.456   4.803
  298POPC   C2B 4127   6.499   0.057   5.165
  298POPC   C3B 4128   6.597  11.390   5.520
  298POPC   C4B 4129   6.476   0.081   5.863
  299POPC   NC3 4130  11.075   6.906   3.925
  299POPC   PO4 4131  10.922   6.219   3.759
  299POPC   GL1 4132  10.972   6.482   4.210
  299POPC   GL2 4133  11.218   6.682   4.332
  299POPC   C1A 4134  10.889   6.535   4.704
  299POPC   D2A 4135  10.725   6.396   5.132
  299POPC   C3A 4136  10.857   6.634   5.529
  299POPC   C4A 4137  10.964   6.464   5.964
  299POPC   C1B 4138  11.396   6.522   4.683
  299POPC   C2B 4139   0.024   6.485   5.081
  299POPC   C3B 4140  11.357   6.580   5.441
  299POPC   C4B 4141  11.374   6.757   5.835
  300POPC   NC3 4142  11.486   1.154   3.849
  300POPC   PO4 4143  10.842   1.050   3.921
  300POPC   GL1 4144  11.101   0.919   4.232
  300POPC   GL2 4145  11.370   1.149   4.328
  300POPC   C1A 4146  11.065   0.922   4.679
  300POPC   D2A 4147  11.002   1.215   5.022
  300POPC   C3A 4148  10.993   1.130   5.453
  300POPC   C4A 4149  11.077   0.891   5.825
  300POPC   C1B 4150  11.387   1.383   4.702
  300POPC   C2B 4151  11.389   1.547   5.130
  300POPC   C3B 4152  11.433   1.391   5.557
  300POPC   C4B 4153  11.304   1.315   6.002
  301POPC   NC3 4154  10.766   5.210   3.947
  301POPC   PO4 4155  10.253   4.810   3.802
  301POPC   GL1 4156  10.259   4.870   4.262
  301POPC   GL2 4157  10.429   5.171   4.398
  301POPC   C1A 4158  10.272   4.814   4.736
  301POPC   D2A 4159  10.142   4.716   5.169
  301POPC   C3A 4160  10.425   4.725   5.544
  301POPC   C4A 4161  10.235   4.886   5.939
  301POPC   C1B 4162  10.586   5.223   4.836
  301POPC   C2B 4163  10.559   5.137   5.253
  301POPC   C3B 4164  10.243   5.239   5.549
  301POPC   C4B 4165  10.284   5.397   5.959
  302POPC   NC3 4166   9.632   1.114   3.885
  302POPC   PO4 4167   9.430   1.726   3.893
  302POPC   GL1 4168   9.563   1.447   4.274
  302POPC   GL2 4169   9.441   1.068   4.346
  302POPC   C1A 4170   9.514   1.415   4.729
  302POPC   D2A 4171   9.710   1.237   5.094
  302POPC   C3A 4172   9.475   1.189   5.496
  302POPC   C4A 4173   9.493   1.336   5.934
  302POPC   C1B 4174   9.858   1.033   4.579
  302POPC   C2B 4175  10.072   0.859   4.951
  302POPC   C3B 4176  10.037   0.984   5.396
  302POPC   C4B 4177   9.815   0.957   5.811
  303POPC   NC3 4178   9.703  10.584   3.823
  303POPC   PO4 4179  10.054  10.015   3.822
  303POPC   GL1 4180  10.028  10.219   4.235
  303POPC   GL2 4181   9.813  10.540   4.320
  303POPC   C1A 4182  10.103  10.298   4.671
  303POPC   D2A 4183   9.900  10.571   4.992
  303POPC   C3A 4184  10.037  10.410   5.400
  303POPC   C4A 4185   9.971  10.567   5.801
  303POPC   C1B 4186   9.570  10.319   4.656
  303POPC   C2B 4187   9.416  10.368   5.090
  303POPC   C3B 4188   9.556  10.516   5.488
  303POPC   C4B 4189   9.501  10.371   5.905
  304POPC   NC3 4190   6.676   1.714   3.672
  304POPC   PO4 4191   6.342   1.289   3.971
  304POPC   GL1 4192   6.545   1.069   4.359
  304POPC   GL2 4193   6.826   0.794   4.329
  304POPC   C1A 4194   6.547   1.227   4.832
  304POPC   D2A 4195   6.567   1.603   5.147
  304POPC   C3A 4196   6.482   1.645   5.621
  304POPC   C4A 4197   6.684   1.641   6.051
  304POPC   C1B 4198   6.718   0.751   4.750
  304POPC   C2B 4199   6.811   0.874   5.185
  304POPC   C3B 4200   6.680   0.874   5.603
  304POPC   C4B 4201   6.475   1.181   5.831
  305POPC   NC3 4202  10.946   0.470   3.988
  305POPC   PO4 4203   0.035   0.713   4.050
  305POPC   GL1 4204  11.301   0.478   4.400
  305POPC   GL2 4205  10.927   0.459   4.489
  305POPC   C1A 4206  11.273   0.486   4.863
  305POPC   D2A 4207  11.346   0.858   5.107
  305POPC   C3A 4208  11.456   0.832   5.493
  305POPC   C4A 4209  11.423   0.533   5.786
  305POPC   C1B 4210  10.704   0.207   4.835
  305POPC   C2B 4211  10.815   0.182   5.221
  305POPC   C3B 4212  11.151   0.395   5.373
  305POPC   C4B 4213  10.931   0.399   5.714
  306POPC   NC3 4214   0.788   9.722   3.913
  306POPC   PO4 4215   0.325   9.287   3.936
  306POPC   GL1 4216   0.614   9.200   4.313
  306POPC   GL2 4217   0.819   9.512   4.422
  306POPC   C1A 4218   0.610   9.177   4.791
  306POPC   D2A 4219   0.535   9.456   5.148
  306POPC   C3A 4220   0.618   9.470   5.593
  306POPC   C4A 4221   0.345   9.537   5.937
  306POPC   C1B 4222   0.618   9.814   4.751
  306POPC   C2B 4223   0.372   9.941   5.151
  306POPC   C3B 4224   0.404   9.938   5.604
  306POPC   C4B 4225   0.663   9.906   6.015
  307POPC   NC3 4226  10.773   6.034   4.162
  307POPC   PO4 4227  10.175   5.803   3.896
  307POPC   GL1 4228  10.450   5.657   4.245
  307POPC   GL2 4229  10.286   5.891   4.419
  307POPC   C1A 4230  10.684   5.694   4.688
  307POPC   D2A 4231  10.832   5.832   5.094
  307POPC   C3A 4232  10.557   5.703   5.393
  307POPC   C4A 4233  10.541   5.855   5.808
  307POPC   C1B 4234  10.186   5.565   4.722
  307POPC   C2B 4235  10.098   5.585   5.171
  307POPC   C3B 4236  10.074   5.753   5.606
  307POPC   C4B 4237  10.085   6.117   5.939
  308POPC   NC3 4238  10.553  11.256   3.914
  308POPC   PO4 4239   9.888   0.001   3.888
  308POPC   GL1 4240  10.007  11.272   4.269
  308POPC   GL2 4241  10.359  11.176   4.355
  308POPC   C1A 4242  10.082  11.318   4.743
  308POPC   D2A 4243   9.982  11.487   5.166
  308POPC   C3A 4244  10.184  11.251   5.467
  308POPC   C4A 4245  10.063  11.082   5.846
  308POPC   C1B 4246  10.675  11.160   4.682
  308POPC   C2B 4247  10.531  11.256   5.074
  308POPC   C3B 4248  10.707  11.187   5.459
  308POPC   C4B 4249  10.551  11.287   5.828
  309POPC   NC3 4250   0.635   4.065   3.947
  309POPC   PO4 4251   0.233   4.576   4.061
  309POPC   GL1 4252   0.272   4.257   4.314
  309POPC   GL2 4253   0.593   4.260   4.404
  309POPC   C1A 4254   0.215   4.109   4.704
  309POPC   D2A 4255   0.158   4.340   5.063
  309POPC   C3A 4256   0.235   4.135   5.435
  309POPC   C4A 4257   0.216   4.379   5.788
  309POPC   C1B 4258   0.495   4.534   4.733
  309POPC   C2B 4259   0.652   4.291   5.071
  309POPC   C3B 4260   0.829   4.041   5.377
  309POPC   C4B 4261   0.651   4.109   5.781
  310POPC   NC3 4262   9.943   4.527   3.646
  310POPC   PO4 4263   9.373   4.338   3.952
  310POPC   GL1 4264   9.736   4.438   4.229
  310POPC   GL2 4265   9.792   4.148   4.434
  310POPC   C1A 4266   9.790   4.578   4.701
  310POPC   D2A 4267   9.801   4.308   5.107
  310POPC   C3A 4268   9.714   4.500   5.514
  310POPC   C4A 4269   9.715   4.740   5.935
  310POPC   C1B 4270   9.459   4.180   4.735
  310POPC   C2B 4271   9.248   4.259   5.140
  310POPC   C3B 4272   9.274   4.123   5.563
  310POPC   C4B 4273   9.391   4.348   5.897
  311POPC   NC3 4274   6.374  10.365   4.073
  311POPC   PO4 4275   6.992  10.228   3.910
  311POPC   GL1 4276   6.850  10.537   4.276
  311POPC   GL2 4277   6.524  10.486   4.523
  311POPC   C1A 4278   6.899  10.711   4.742
  311POPC   D2A 4279   6.647  10.561   5.131
  311POPC   C3A 4280   6.834  10.631   5.565
  311POPC   C4A 4281   6.744  10.447   6.012
  311POPC   C1B 4282   6.148  10.502   4.821
  311POPC   C2B 4283   6.096  10.473   5.290
  311POPC   C3B 4284   6.355  10.421   5.681
  311POPC   C4B 4285   6.248  10.309   6.127
  312POPC   NC3 4286   8.112   0.614   3.939
  312POPC   PO4 4287   7.850   0.037   3.862
  312POPC   GL1 4288   8.000   0.187   4.278
  312POPC   GL2 4289   8.361   0.264   4.316
  312POPC   C1A 4290   8.079   0.080   4.728
  312POPC   D2A 4291   8.332   0.146   5.095
  312POPC   C3A 4292   8.145   0.052   5.537
  312POPC   C4A 4293   7.947   0.295   5.831
  312POPC   C1B 4294   8.333   0.511   4.724
  312POPC   C2B 4295   8.063   0.603   5.011
  312POPC   C3B 4296   8.158   0.535   5.419
  312POPC   C4B 4297   8.140   0.793   5.762
  313POPC   NC3 4298   8.142   1.166   3.927
  313POPC   PO4 4299   8.474   0.752   4.178
  313POPC   GL1 4300   8.142   0.967   4.410
  313POPC   GL2 4301   8.157   1.352   4.395
  313POPC   C1A 4302   8.223   1.098   4.838
  313POPC   D2A 4303   8.264   0.989   5.250
  313POPC   C3A 4304   8.430   1.167   5.563
  313POPC   C4A 4305   8.250   1.500   5.721
  313POPC   C1B 4306   7.833   1.399   4.713
  313POPC   C2B 4307   7.709   1.189   5.091
  313POPC   C3B 4308   7.843   1.114   5.495
  313POPC   C4B 4309   7.870   1.213   5.919
  314POPC   NC3 4310   9.284   3.466   4.043
  314POPC   PO4 4311   8.581   3.158   4.030
  314POPC   GL1 4312   8.891   3.305   4.350
  314POPC   GL2 4313   8.927   3.647   4.407
  314POPC   C1A 4314   8.880   3.350   4.833
  314POPC   D2A 4315   8.986   3.269   5.283
  314POPC   C3A 4316   8.721   3.305   5.694
  314POPC   C4A 4317   8.811   3.523   6.090
  314POPC   C1B 4318   9.091   3.827   4.819
  314POPC   C2B 4319   9.026   3.783   5.265
  314POPC   C3B 4320   8.799   3.913   5.647
  314POPC   C4B 4321   8.988   4.002   6.034
  315POPC   NC3 4322   6.846  10.546   3.616
  315POPC   PO4 4323   7.503  10.615   3.693
  315POPC   GL1 4324   7.394  10.346   4.177
  315POPC   GL2 4325   7.319  10.578   4.478
  315POPC   C1A 4326   7.257  10.111   4.627
  315POPC   D2A 4327   7.116  10.336   5.029
  315POPC   C3A 4328   7.040  10.183   5.473
  315POPC   C4A 4329   7.223  10.412   5.854
  315POPC   C1B 4330   7.647  10.417   4.749
  315POPC   C2B 4331   7.619  10.296   5.138
  315POPC   C3B 4332   7.477  10.534   5.431
  315POPC   C4B 4333   7.732  10.495   5.764
  316POPC   NC3 4334   1.366   2.682   3.814
  316POPC   PO4 4335   0.833   2.985   3.947
  316POPC   GL1 4336   0.964   2.647   4.226
  316POPC   GL2 4337   1.283   2.775   4.307
  316POPC   C1A 4338   1.024   2.440   4.653
  316POPC   D2A 4339   1.242   2.557   5.053
  316POPC   C3A 4340   0.973   2.501   5.411
  316POPC   C4A 4341   0.916   2.291   5.802
  316POPC   C1B 4342   1.127   2.934   4.688
  316POPC   C2B 4343   1.136   3.073   5.125
  316POPC   C3B 4344   1.287   2.891   5.514
  316POPC   C4B 4345   1.373   2.497   5.721
  317POPC   NC3 4346   9.805   1.996   3.923
  317POPC   PO4 4347   9.259   2.445   3.854
  317POPC   GL1 4348   9.396   2.221   4.230
  317POPC   GL2 4349   9.302   1.902   4.346
  317POPC   C1A 4350   9.498   2.293   4.684
  317POPC   D2A 4351   9.422   2.032   5.056
  317POPC   C3A 4352   9.565   2.169   5.481
  317POPC   C4A 4353   9.460   2.262   5.935
  317POPC   C1B 4354   9.716   1.869   4.565
  317POPC   C2B 4355   9.845   1.756   4.985
  317POPC   C3B 4356   9.652   1.671   5.402
  317POPC   C4B 4357   9.713   1.822   5.825
  318POPC   NC3 4358   3.360   5.858   3.793
  318POPC   PO4 4359   3.608   5.360   3.820
  318POPC   GL1 4360   3.472   5.153   4.246
  318POPC   GL2 4361   3.208   4.888   4.261
  318POPC   C1A 4362   3.636   5.126   4.703
  318POPC   D2A 4363   3.769   5.237   5.146
  318POPC   C3A 4364   3.455   5.210   5.497
  318POPC   C4A 4365   3.384   4.881   5.800
  318POPC   C1B 4366   3.337   4.715   4.680
  318POPC   C2B 4367   3.456   4.822   5.130
  318POPC   C3B 4368   3.782   4.812   5.462
  318POPC   C4B 4369   3.868   4.666   5.888
  319W        W 4370  11.190  10.843   8.524
  320W        W 4371   8.590   4.377   3.150
  321W        W 4372   5.751   3.548   8.129
  322W        W 4373   6.756   6.832  11.800
  323W        W 4374   7.631   8.417   9.840
  324W        W 4375   2.208   9.699   8.626
  325W        W 4376   5.974   3.876   8.563
  326W        W 4377   0.949   5.094   2.231
  327W        W 4378   3.671   0.800   3.123
  328W        W 4379   9.288   0.762  11.226
  329W        W 4380   7.622   6.117   8.360
  330W        W 4381   8.659   5.490   8.633
  331W        W 4382  10.946   9.099   9.069
  332W        W 4383   9.768   9.402   9.114
  333W        W 4384  10.454   6.566   2.983
  334W        W 4385   7.795  10.867   2.225
  335W        W 4386  10.258   6.662  10.841
  336W        W 4387   7.493   1.369   0.148
  337W        W 4388   5.124   6.451   0.848
  338W        W 4389   0.744   4.369  11.646
  339W        W 4390   0.126   8.144  10.784
  340W        W 4391   8.002   2.316   2.933
  341W        W 4392   4.067  10.748  11.503
  342W        W 4393   3.177   7.612   9.991
  343W        W 4394   1.442   0.898   1.887
  344W        W 4395   9.694   6.613   9.985
  345W        W 4396   7.231   8.022   0.759
  346W        W 4397  10.994   5.441  10.558
  347W        W 4398   6.675   0.758   1.758
  348W        W 4399   3.261   7.037   1.781
  349W        W 4400   5.543   3.602   9.481
  350W        W 4401   1.848   9.477  11.785
  351W        W 4402   4.765   2.835   0.525
  352W        W 4403   9.907  11.422   3.185
  353W        W 4404   8.623   3.398   2.130
  354W        W 4405   1.519   7.589  10.017
  355W        W 4406   0.399   8.518  11.531
  356W        W 4407   0.913   7.041   8.233
  357W        W 4408   2.462   9.924   0.355
  358W        W 4409   6.402   3.624   8.762
  359W        W 4410   7.571   9.495   8.995
  360W        W 4411  10.634   5.076  11.986
  361W        W 4412   6.129   8.451  10.402
  362W        W 4413   1.092   1.399   9.782
  363W        W 4414   6.519   2.922  11.638
  364W        W 4415   2.296  10.837   1.364
  365W        W 4416   1.822   5.519   2.475
  366W        W 4417   9.394   8.831   3.042
  367W        W 4418   4.638  10.768   2.782
  368W        W 4419   5.205   5.455   1.823
  369W        W 4420   8.471   6.951   3.060
  370W        W 4421   7.618   6.577   9.489
  371W        W 4422   5.576   2.621   1.483
  372W        W 4423  11.137  10.507   2.886
  373W        W 4424   7.751   9.531   3.520
  374W        W 4425   5.573   6.658  10.537
  375W        W 4426   1.407   9.915   0.482
  376W        W 4427   9.851   4.750   0.724
  377W        W 4428   7.601   5.209  10.102
  378W        W 4429   2.232   3.702   2.327
  379W        W 4430   1.453   8.136   2.731
  380W        W 4431   3.750   3.733   1.271
  381W        W 4432   9.326   2.451   2.472
  382W        W 4433   5.145   3.223   1.339
  383W        W 4434   5.657   0.367  11.105
  384W        W 4435   5.390   6.053   9.831
  385W        W 4436   4.836   1.161   3.107
  386W        W 4437   9.409   4.621  11.955
  387W        W 4438   4.962  10.555  10.442
  388W        W 4439   8.627   9.881   2.570
  389W        W 4440  11.183   2.654   8.796
  390W        W 4441   2.687   5.925   1.836
  391W        W 4442   2.961   8.040   9.290
  392W        W 4443   2.721   1.974  11.762
  393W        W 4444   0.844   9.340   2.632
  394W        W 4445   5.391   4.465   3.918
  395W        W 4446   2.711   8.637   3.249
  396W        W 4447   1.676   7.918   3.530
  397W        W 4448   5.185   3.651   1.859
  398W        W 4449   6.949   7.561   1.324
  399W        W 4450   3.185   7.421   2.567
  400W        W 4451   3.779   0.480  10.684
  401W        W 4452  11.403   2.570  10.860
  402W        W 4453   5.374  10.842  10.582
  403W        W 4454   1.427   9.154   0.669
  404W        W 4455   8.690  10.522  11.738
  405W        W 4456   5.034   2.396   8.129
  406W        W 4457   3.129   6.608   1.496
  407W        W 4458   0.223   6.550  11.493
  408W        W 4459   3.319   4.759  11.058
  409W        W 4460  10.358   4.149   1.244
  410W        W 4461   3.568   5.544  11.290
  411W        W 4462   5.948  10.422  10.963
  412W        W 4463   7.604   5.081  11.923
  413W        W 4464   2.810   9.157   3.458
  414W        W 4465   6.472  10.200   3.568
  415W        W 4466   3.302   3.396   0.458
  416W        W 4467   8.208   9.063  11.261
  417W        W 4468   2.334   2.264   9.145
  418W        W 4469   8.991   5.391  11.557
  419W        W 4470   5.247   2.620  10.777
  420W        W 4471   9.994   6.644   2.764
  421W        W 4472   6.961   4.641  10.745
  422W        W 4473   4.282   6.990   0.714
  423W        W 4474  11.307   6.060  10.390
  424W        W 4475   1.293   6.468   0.178
  425W        W 4476   9.043   8.891   0.529
  426W        W 4477   6.440   4.046   9.145
  427W        W 4478   2.293   9.662  11.944
  428W        W 4479  10.985   7.468   1.460
  429W        W 4480  10.031  10.762  10.408
  430W        W 4481   3.936   0.163  11.102
  431W        W 4482   7.069   7.522   0.295
  432W        W 4483   7.830   0.868   2.608
  433W        W 4484   7.075   0.255  11.529
  434W        W 4485   8.613   2.249  11.872
  435W        W 4486   4.214   5.707   0.341
  436W        W 4487   4.254   3.760   1.379
  437W        W 4488   5.532   1.955   9.466
  438W        W 4489   8.433   7.121   1.652
  439W        W 4490   7.583   1.691   3.402
  440W        W 4491  10.023  10.828   1.288
  441W        W 4492   8.022   4.107   1.195
  442W        W 4493   5.613   9.632   9.434
  443W        W 4494   1.260   6.513   1.136
  444W        W 4495   9.461   7.918   2.838
  445W        W 4496   6.957  11.308   2.807
  446W        W 4497   5.476   4.174   2.249
  447W        W 4498   2.250   2.783   8.910
  448W        W 4499   0.955  10.895   9.843
  449W        W 4500   2.832   7.543   1.818
  450W        W 4501   4.223  11.119   3.444
  451W        W 4502   4.724   0.773  11.935
  452W        W 4503   7.665   3.659  10.446
  453W        W 4504  10.873   8.841   1.464
  454W        W 4505  10.516   0.565   1.417
  455W        W 4506   3.193   8.116   9.758
  456W        W 4507   3.144   1.638   2.483
  457W        W 4508   9.322   7.546  10.786
  458W        W 4509   2.976  11.194   2.236
  459W        W 4510   7.780   9.276  11.721
  460W        W 4511   9.536   2.604   0.445
  461W        W 4512   7.057   1.701   0.204
  462W        W 4513   4.155   8.757   8.944
  463W        W 4514   0.889   1.379   0.031
  464W        W 4515   7.146   8.879   3.162
  465W        W 4516   3.149   5.667   9.431
  466W        W 4517  10.009   7.092   0.495
  467W        W 4518   5.528   8.405   9.950
  468W        W 4519   0.656   0.953   0.286
  469W        W 4520   1.105   9.500   0.376
  470W        W 4521   7.085   4.315   0.878
  471W        W 4522   2.750  10.818   1.993
  472W        W 4523   4.327  10.776   0.026
  473W        W 4524   9.221  10.066  11.064
  474W        W 4525   3.201   6.472   8.901
  475W        W 4526   5.993   5.737  11.367
  476W        W 4527   5.918   6.046   9.817
  477W        W 4528   2.169   4.842   3.283
  478W        W 4529   9.563   1.067   9.596
  479W        W 4530  10.704   0.886  11.373
  480W        W 4531   4.719   0.645  11.036
  481W        W 4532   2.300   7.635   8.036
  482W        W 4533   2.491   4.814   8.310
  483W        W 4534   7.991   9.590   9.357
  484W        W 4535   3.759   2.554   8.709
  485W        W 4536   4.560   7.146  11.802
  486W        W 4537   3.835   9.025   8.583
  487W        W 4538   0.911   8.433   1.758
  488W        W 4539   9.458   6.514  10.422
  489W        W 4540   3.061   7.139   9.518
  490W        W 4541   5.095  10.730   9.962
  491W        W 4542   7.011   1.812  10.822
  492W        W 4543   5.110   2.342   3.236
  493W        W 4544   2.288   7.179   9.878
  494W        W 4545   3.115   1.801   3.777
  495W        W 4546   7.971   6.083   3.224
  496W        W 4547  11.447   3.418   2.741
  497W        W 4548   5.948   6.447   0.393
  498W        W 4549   4.110  11.247   2.149
  499W        W 4550   0.934   2.699   1.213
  500W        W 4551   5.516   2.726   3.247
  501W        W 4552   4.864   4.336   0.892
  502W        W 4553   9.714   3.359  10.674
  503W        W 4554   5.131   9.834   2.224
  504W        W 4555   6.129  10.814   9.996
  505W        W 4556   1.449   3.324   1.488
  506W        W 4557   7.223   0.889   9.266
  507W        W 4558   0.824   6.544   1.394
  508W        W 4559   9.862   8.474   0.657
  509W        W 4560   1.660   4.028   9.667
  510W        W 4561   4.499   5.292  11.226
  511W        W 4562  10.556  10.069   2.253
  512W        W 4563  11.420   4.714  11.892
  513W        W 4564   8.176   5.457   8.455
  514W        W 4565  10.850   9.348   1.569
  515W        W 4566   1.219   2.815   2.967
  516W        W 4567   7.430   6.588   8.503
  517W        W 4568   0.053   4.829   0.368
  518W        W 4569   2.756   8.568   0.356
  519W        W 4570   2.627   4.644   1.949
  520W        W 4571   4.645  10.234   0.930
  521W        W 4572   3.879   1.744   2.170
  522W        W 4573   7.569   2.398   2.678
  523W        W 4574   2.337   6.963  10.810
  524W        W 4575   6.325   9.527   9.675
  525W        W 4576   6.187   5.079  10.847
  526W        W 4577   3.154   8.647   9.880
  527W        W 4578   8.257   4.789   3.611
  528W        W 4579   8.860   8.541  11.251
  529W        W 4580   3.314   8.087   0.370
  530W        W 4581   7.440   2.685   1.837
  531W        W 4582   6.734   0.785   9.240
  532W        W 4583   9.741   7.551   1.319
  533W        W 4584   8.451   6.088   3.444
  534W        W 4585   0.922   5.590   9.578
  535W        W 4586   1.788  11.008  10.278
  536W        W 4587   4.942   0.081  10.320
  537W        W 4588   8.543   6.640   2.177
  538W        W 4589   1.296   7.481  10.885
  539W        W 4590   0.339   1.678   0.792
  540W        W 4591   5.651   2.809  11.023
  541W        W 4592   5.544   2.322   3.580
  542W        W 4593   6.661   8.724  11.201
  543W        W 4594   3.549   0.997   1.289
  544W        W 4595   7.428   1.305   0.927
  545W        W 4596   7.369   6.158   0.338
  546W        W 4597   0.888   8.660   8.406
  547W        W 4598  11.438   5.173   3.379
  548W        W 4599   9.037   6.017   8.268
  549W        W 4600   3.893  10.794  11.001
  550W        W 4601   0.847   7.890   1.962
  551W        W 4602  10.526   9.918   1.293
  552W        W 4603   5.592   7.164   1.706
  553W        W 4604   7.626  10.081   0.092
  554W        W 4605   2.643   7.568   0.275
  555W        W 4606   9.881   6.500   2.293
  556W        W 4607  10.953   6.481   9.624
  557W        W 4608  10.047   3.330   1.360
  558W        W 4609   1.517  11.353  11.995
  559W        W 4610   7.752   1.921   2.563
  560W        W 4611   9.432   7.032  10.734
  561W        W 4612   0.398   1.165   0.715
  562W        W 4613   5.626   7.944   2.815
  563W        W 4614   6.101  11.316   2.660
  564W        W 4615   1.186   6.575   0.651
  565W        W 4616  10.807  11.297   1.151
  566W        W 4617   4.608   7.092   9.853
  567W        W 4618  11.464   2.583   3.165
  568W        W 4619   5.556   4.170   8.670
  569W        W 4620   2.282   9.190   2.795
  570W        W 4621   2.482   8.165  11.810
  571W        W 4622   9.052  10.499  10.826
  572W        W 4623   0.992   1.875  11.998
  573W        W 4624   1.347   8.674   1.936
  574W        W 4625   6.493   7.174   3.113
  575W        W 4626   4.874   1.997   1.400
  576W        W 4627   9.877   9.790  10.404
  577W        W 4628   9.607   6.783   9.195
  578W        W 4629   1.124   5.680   0.502
  579W        W 4630   5.822  10.449   9.452
  580W        W 4631   8.013   0.570  11.422
  581W        W 4632   9.292   2.140   3.439
  582W        W 4633   6.405   5.744   2.220
  583W        W 4634   1.830   2.202   9.279
  584W        W 4635   9.397   3.248   3.487
  585W        W 4636   4.314   2.638  11.094
  586W        W 4637   5.685   8.696   9.562
  587W        W 4638  10.872   6.757  11.967
  588W        W 4639   8.175  10.962   0.743
  589W        W 4640   1.311   9.000  11.489
  590W        W 4641   2.160   1.815   2.683
  591W        W 4642   2.633   0.349   2.831
  592W        W 4643   3.235   3.723   0.052
  593W        W 4644   4.647   6.160   3.520
  594W        W 4645   9.406   4.351   9.867
  595W        W 4646   4.293   7.955  10.337
  596W        W 4647   0.826   8.919   1.383
  597W        W 4648   7.382   3.129   9.464
  598W        W 4649   5.106   9.506   9.439
  599W        W 4650   3.040   6.054  11.939
  600W        W 4651   0.506   8.576   2.010
  601W        W 4652   4.305   7.182   8.876
  602W        W 4653   9.893   1.976   1.695
  603W        W 4654   0.832   3.526   3.067
  604W        W 4655   2.745   9.352   9.909
  605W        W 4656   7.396   4.858  10.496
  606W        W 4657   4.796   6.635   1.222
  607W        W 4658   7.384   1.695  11.783
  608W        W 4659   9.427   3.161  11.500
  609W        W 4660   8.711   9.886   0.319
  610W        W 4661  10.350   9.453  10.008
  611W        W 4662   2.437   2.293  10.083
  612W        W 4663  10.768   9.532   8.783
  613W        W 4664   6.961   9.992   3.224
  614W        W 4665   3.511   5.104   3.359
  615W        W 4666   5.598   9.713   1.858
  616W        W 4667   5.569   2.437   9.236
  617W        W 4668   8.566  11.295   2.168
  618W        W 4669   6.293   7.050  10.473
  619W        W 4670   2.308   7.681  11.852
  620W        W 4671   1.407   2.829   1.950
  621W        W 4672   0.203   2.213   1.471
  622W        W 4673   4.122   6.351   8.609
  623W        W 4674   6.672   7.213  11.434
  624W        W 4675   0.237   5.355   1.490
  625W        W 4676   0.308   4.270   3.096
  626W        W 4677   3.795  10.227   0.183
  627W        W 4678   8.831   4.335   0.123
  628W        W 4679   1.400   1.021   2.777
  629W        W 4680   2.387   9.588  10.152
  630W        W 4681   7.885   9.311   0.757
  631W        W 4682  11.426   5.640  11.715
  632W        W 4683   5.694   8.505   1.381
  633W        W 4684   7.188  10.194   1.399
  634W        W 4685   2.794   9.581  11.534
  635W        W 4686   6.018   6.889   1.814
  636W        W 4687  10.989   7.428  11.387
  637W        W 4688   1.410   6.683   2.163
  638W        W 4689   3.591  10.420  10.467
  639W        W 4690   3.633   9.455   3.268
  640W        W 4691   0.714   6.739   9.076
  641W        W 4692   8.983   6.819   9.543
  642W        W 4693   8.666   6.642   1.668
  643W        W 4694  11.428   5.771   1.115
  644W        W 4695   3.615   1.824   2.655
  645W        W 4696  10.484   0.733   0.935
  646W        W 4697   1.821  10.173  11.281
  647W        W 4698   4.139   5.696  11.839
  648W        W 4699  11.285   7.455  11.793
  649W        W 4700   8.551   0.565  10.213
  650W        W 4701   6.238   9.763   0.359
  651W        W 4702   1.787   7.308   0.253
  652W        W 4703   4.097   0.448   1.427
  653W        W 4704   5.197   1.666  11.733
  654W        W 4705   8.111   7.115   9.961
  655W        W 4706   8.434   1.183  10.843
  656W        W 4707   5.101   4.458  11.213
  657W        W 4708   7.125   7.137   1.106
  658W        W 4709   0.799   1.877   2.340
  659W        W 4710   7.968   0.326   0.262
  660W        W 4711   5.108  10.067   3.144
  661W        W 4712   0.713   8.896  11.092
  662W        W 4713   5.192   1.864   3.136
  663W        W 4714   2.669   5.193   3.673
  664W        W 4715   5.743   3.157   2.124
  665W        W 4716   3.616   4.852   0.625
  666W        W 4717   8.929   3.756   0.733
  667W        W 4718   7.637   9.141   3.080
  668W        W 4719   7.460   8.147   2.059
  669W        W 4720   1.294  11.377  11.011
  670W        W 4721   0.999   3.039   9.681
  671W        W 4722   9.051   0.259  11.461
  672W        W 4723   5.793   5.760  11.855
  673W        W 4724   4.968  10.235  10.041
  674W        W 4725   3.581   7.015   9.608
  675W        W 4726   6.575  11.088  10.969
  676W        W 4727   9.602   5.514   9.455
  677W        W 4728   2.101   4.195  10.573
  678W        W 4729   7.450   4.223   1.926
  679W        W 4730   0.905   7.608   9.389
  680W        W 4731   2.461  10.362  10.078
  681W        W 4732   7.104  10.546   8.734
  682W        W 4733   7.175  11.135   0.382
  683W        W 4734   0.797   3.370  10.040
  684W        W 4735   4.701   6.164   0.801
  685W        W 4736   3.646   2.383  11.795
  686W        W 4737   2.193   6.239   2.982
  687W        W 4738   8.323   5.295   2.802
  688W        W 4739   8.805   3.785   9.079
  689W        W 4740  10.744   4.831   3.628
  690W        W 4741   5.840  10.555   0.174
  691W        W 4742   2.346  11.329   9.057
  692W        W 4743   5.689   1.790   1.001
  693W        W 4744   8.149   8.266   2.261
  694W        W 4745   2.298   1.723  11.913
  695W        W 4746   1.412   5.161   2.650
  696W        W 4747   5.488   2.653   0.951
  697W        W 4748   3.119   9.458   9.174
  698W        W 4749   2.987   4.135   0.225
  699W        W 4750   4.726   7.239   0.535
  700W        W 4751  10.047   0.787   3.438
  701W        W 4752  10.592   5.179   2.281
  702W        W 4753   8.070   4.604   9.457
  703W        W 4754   1.677   2.344   2.303
  704W        W 4755   9.275   3.266  10.925
  705W        W 4756   7.131   0.940  11.320
  706W        W 4757   9.601   8.971   0.863
  707W        W 4758   4.356   9.940  10.664
  708W        W 4759  10.647   3.223   0.695
  709W        W 4760   4.904   1.279   1.212
  710W        W 4761   1.255   9.773   9.805
  711W        W 4762   6.540   9.965   9.624
  712W        W 4763   2.185   8.643   1.615
  713W        W 4764   1.866   8.563  10.001
  714W        W 4765   9.358   9.484   2.330
  715W        W 4766   2.759   2.188   0.250
  716W        W 4767   3.125   3.170   1.794
  717W        W 4768  10.083   9.635   3.076
  718W        W 4769   0.238   0.576   0.122
  719W        W 4770   4.148   9.515  10.958
  720W        W 4771   5.088   9.398  11.069
  721W        W 4772   9.204   6.579  10.862
  722W        W 4773   8.116  10.042   9.101
  723W        W 4774   7.922   0.355  10.954
  724W        W 4775   8.052   1.454   1.849
  725W        W 4776   1.126   7.978  11.589
  726W        W 4777   7.179   3.678   1.233
  727W        W 4778   0.524   7.695   1.454
  728W        W 4779  10.315   0.254   1.010
  729W        W 4780   6.327   1.716   2.307
  730W        W 4781   2.610   5.606   3.376
  731W        W 4782   3.529   8.384  11.306
  732W        W 4783   0.699  10.385   1.363
  733W        W 4784   3.669   7.917  11.525
  734W        W 4785   5.205   3.057  11.573
  735W        W 4786   6.495   2.808   3.463
  736W        W 4787   0.776   0.650   3.198
  737W        W 4788   7.010   8.425   1.906
  738W        W 4789   5.608   7.805   9.848
  739W        W 4790   5.864  10.535   2.100
  740W        W 4791   0.490  11.037   0.659
  741W        W 4792   8.290   6.361  10.993
  742W        W 4793   0.008   7.642   9.609
  743W        W 4794   1.538   7.941  10.912
  744W        W 4795   2.210   1.257   1.009
  745W        W 4796   5.677   5.543   2.731
  746W        W 4797  10.004   8.167   1.072
  747W        W 4798   3.248  10.808   0.862
  748W        W 4799  10.879   8.679   8.768
  749W        W 4800   6.703   3.232   8.914
  750W        W 4801   2.744   4.225  11.207
  751W        W 4802  10.351   5.578   1.889
  752W        W 4803  11.409   4.551   1.679
  753W        W 4804   5.017   2.064   9.541
  754W        W 4805   8.564   7.202  11.173
  755W        W 4806  10.886   4.691   1.689
  756W        W 4807   4.793   2.668  10.972
  757W        W 4808   0.954   9.001   9.198
  758W        W 4809   7.136   4.258   9.980
  759W        W 4810   9.033  11.476   9.518
  760W        W 4811  11.450   5.680  10.744
  761W        W 4812   5.711   1.103   1.813
  762W        W 4813   0.693   0.326  10.957
  763W        W 4814  10.860   7.025   1.713
  764W        W 4815  10.136   4.490   9.878
  765W        W 4816   6.679   9.111  11.664
  766W        W 4817   2.052   6.869   3.635
  767W        W 4818   7.606   0.731   2.045
  768W        W 4819  10.019   5.684  10.640
  769W        W 4820   2.605   1.798   1.755
  770W        W 4821   4.184   1.777   3.100
  771W        W 4822   6.780   5.153   0.445
  772W        W 4823   1.946   0.683   0.199
  773W        W 4824   8.536   8.939   2.733
  774W        W 4825   5.074   6.686  10.324
  775W        W 4826   7.001   1.042   3.614
  776W        W 4827   9.732   4.995   3.903
  777W        W 4828   6.270   5.710   1.266
  778W        W 4829   0.844   5.077   1.720
  779W        W 4830   7.816   4.656  10.739
  780W        W 4831   0.036   8.574   9.409
  781W        W 4832   5.946  10.108  10.489
  782W        W 4833   4.812   5.674   2.087
  783W        W 4834  10.900   0.900   1.298
  784W        W 4835   6.692   2.593   9.375
  785W        W 4836   6.043   2.153   2.251
  786W        W 4837  10.279   0.248  10.714
  787W        W 4838  10.507   5.635  10.481
  788W        W 4839   9.342   7.591   3.436
  789W        W 4840   2.815   8.625   2.733
  790W        W 4841   1.182   9.629   1.742
  791W        W 4842   5.800  10.069   0.375
  792W        W 4843   6.599   3.181  11.173
  793W        W 4844   7.480   7.637   1.260
  794W        W 4845   5.583   1.812   3.458
  795W        W 4846   6.376  10.604  11.195
  796W        W 4847   7.422   7.698   2.307
  797W        W 4848   7.553   6.729  11.421
  798W        W 4849  10.538   6.578  10.368
  799W        W 4850   8.511   9.879   8.798
  800W        W 4851   9.126   8.952  11.157
  801W        W 4852  11.444   5.591   1.863
  802W        W 4853   0.901  10.074   0.378
  803W        W 4854   2.723   6.613  10.940
  804W        W 4855  10.354   5.102   3.141
  805W        W 4856   9.987   1.702  10.269
  806W        W 4857   6.439   3.794   9.597
  807W        W 4858   1.334   5.503   3.232
  808W        W 4859   0.064  11.344  10.666
  809W        W 4860   9.556   0.236   0.538
  810W        W 4861   5.063   0.460   0.794
  811W        W 4862   3.645   2.330   1.205
  812W        W 4863  10.000   0.254   0.277
  813W        W 4864   4.577   2.196   0.978
  814W        W 4865   2.553   8.333   0.790
  815W        W 4866   0.548   9.196   0.781
  816W        W 4867   5.922   7.818  11.983
  817W        W 4868   6.500   5.128   1.864
  818W        W 4869   4.769   8.323   1.551
  819W        W 4870   3.208   1.388   2.037
  820W        W 4871  10.420   0.602   9.395
  821W        W 4872   3.848   0.379   9.681
  822W        W 4873   6.301   7.206   9.482
  823W        W 4874   2.235   5.229   9.482
  824W        W 4875   5.440   0.791   9.854
  825W        W 4876   0.902   8.342   3.535
  826W        W 4877   5.640   9.942  11.846
  827W        W 4878   2.192   3.367   2.788
  828W        W 4879  11.376   7.025  10.518
  829W        W 4880   2.714   4.502   0.951
  830W        W 4881   1.453   9.925   9.359
  831W        W 4882   7.046   4.829   0.749
  832W        W 4883   1.837   8.151   1.388
  833W        W 4884   7.816   4.192   8.689
  834W        W 4885  10.911   2.076   2.268
  835W        W 4886  11.278   9.933   0.752
  836W        W 4887   1.184   0.556   2.869
  837W        W 4888   7.778  10.655   0.786
  838W        W 4889   0.675   8.889   2.778
  839W        W 4890  10.022   5.663   0.972
  840W        W 4891   8.065  10.747   1.223
  841W        W 4892   6.252   9.201   3.136
  842W        W 4893   1.518   6.227   9.890
  843W        W 4894   6.431   0.294  11.660
  844W        W 4895   0.950   8.403   9.857
  845W        W 4896   6.666   9.415   1.068
  846W        W 4897  10.844   2.179   1.757
  847W        W 4898   4.216  10.784   2.452
  848W        W 4899   2.653   3.679   2.037
  849W        W 4900   7.868   0.351   2.696
  850W        W 4901   6.539   8.116  11.345
  851W        W 4902   0.665   2.147   1.733
  852W        W 4903   0.783   0.814   0.764
  853W        W 4904   1.287   3.119  11.575
  854W        W 4905  11.408   4.104   3.481
  855W        W 4906   2.366   2.451   0.456
  856W        W 4907   8.363   7.496   2.300
  857W        W 4908   1.201   9.405   9.440
  858W        W 4909   4.262  11.285  11.353
  859W        W 4910   1.755   5.080   1.677
  860W        W 4911   3.824   9.271   0.444
  861W        W 4912   3.514  11.395  11.954
  862W        W 4913   7.498   5.007   0.929
  863W        W 4914   2.551   4.637  11.784
  864W        W 4915   7.742   1.433   0.565
  865W        W 4916   7.903   1.930   0.712
  866W        W 4917   0.943   2.738   8.461
  867W        W 4918   3.175   7.493   1.085
  868W        W 4919   2.705   4.094   1.252
  869W        W 4920   6.966   0.324   2.744
  870W        W 4921   2.537   8.073   8.168
  871W        W 4922   4.892   2.819   4.024
  872W        W 4923   4.278   3.361  11.494
  873W        W 4924   2.254   3.816   1.328
  874W        W 4925  11.147   7.712   0.739
  875W        W 4926   1.012   8.895   0.421
  876W        W 4927   8.480   1.760   3.269
  877W        W 4928   1.356  10.037  11.729
  878W        W 4929   9.915   8.991   9.385
  879W        W 4930   0.346   2.728   0.044
  880W        W 4931   9.794   7.421   8.514
  881W        W 4932   3.921   2.169   2.887
  882W        W 4933   6.947   5.846  10.352
  883W        W 4934   4.228   2.208   3.376
  884W        W 4935   4.281   0.860   2.210
  885W        W 4936   7.741  10.171   0.580
  886W        W 4937   0.487   6.273   1.669
  887W        W 4938   0.306   1.884  10.290
  888W        W 4939  11.413   4.673  10.562
  889W        W 4940   3.597   0.464   2.730
  890W        W 4941   5.703   1.326   0.767
  891W        W 4942   1.150  10.439   9.506
  892W        W 4943  10.911  10.401   9.303
  893W        W 4944   6.276  10.245   0.206
  894W        W 4945   4.542  11.156   9.164
  895W        W 4946   4.176   4.716   2.813
  896W        W 4947   6.640   9.485  10.471
  897W        W 4948  11.352   7.615   9.109
  898W        W 4949  10.326   9.578  10.517
  899W        W 4950   3.902   6.166  10.666
  900W        W 4951   4.111   4.134   9.274
  901W        W 4952   1.697   9.512   8.601
  902W        W 4953   1.338   8.691   1.060
  903W        W 4954   0.865   6.360   2.942
  904W        W 4955   3.612  11.430   9.541
  905W        W 4956   4.808   8.386   2.872
  906W        W 4957   8.313  10.220   2.778
  907W        W 4958   5.556  10.603   2.966
  908W        W 4959   7.582   8.451  10.366
  909W        W 4960   0.180   1.467  11.903
  910W        W 4961   5.997   3.178   0.107
  911W        W 4962   0.645   7.050   9.486
  912W        W 4963   3.425   8.905   1.952
  913W        W 4964  11.289   8.029   3.070
  914W        W 4965   1.699   7.343   2.928
  915W        W 4966   3.072   5.294   8.229
  916W        W 4967   8.156   2.799  11.282
  917W        W 4968   9.272   0.428   2.759
  918W        W 4969   8.627   1.044   2.594
  919W        W 4970   9.383   2.151   0.327
  920W        W 4971  10.960  10.569   0.767
  921W        W 4972   2.275   9.105   9.983
  922W        W 4973   6.591   1.962   1.469
  923W        W 4974   5.661   1.935   1.991
  924W        W 4975   4.295   0.734  11.374
  925W        W 4976   6.122   3.817   0.395
  926W        W 4977   4.745   6.272  10.317
  927W        W 4978   0.319   2.268  10.904
  928W        W 4979   8.012   7.970   1.366
  929W        W 4980   6.588  10.431  10.752
  930W        W 4981   2.126   4.301   0.507
  931W        W 4982   3.179   5.532  10.513
  932W        W 4983   4.486   8.829   9.343
  933W        W 4984  10.380   2.414  10.913
  934W        W 4985   9.671   4.135   1.847
  935W        W 4986   1.544   6.340   3.526
  936W        W 4987   5.131   1.985   3.641
  937W        W 4988   3.239  10.240   2.699
  938W        W 4989   8.557   3.364   3.077
  939W        W 4990   6.157   1.397   2.689
  940W        W 4991  11.013   3.644   1.417
  941W        W 4992   8.573   6.133   9.161
  942W        W 4993  11.129   8.094   3.548
  943W        W 4994   8.040  11.415   8.901
  944W        W 4995   6.020  10.431   2.642
  945W        W 4996   3.582   6.403   2.716
  946W        W 4997   3.659   3.714   3.056
  947W        W 4998   9.414  10.523  10.285
  948W        W 4999   0.420   7.009   2.551
  949W        W 5000   2.050   9.960   2.947
  950W        W 5001   9.772   3.276  11.869
  951W        W 5002   7.611   2.235  10.932
  952W        W 5003   9.004  11.062   0.414
  953W        W 5004   9.299   5.092   1.460
  954W        W 5005   6.738   8.927   9.214
  955W        W 5006   8.287   9.145  11.759
  956W        W 5007   5.753   3.754   1.625
  957W        W 5008   1.336   3.770   2.875
  958W        W 5009   5.239   8.045   9.630
  959W        W 5010   0.986   1.684   1.459
  960W        W 5011   0.276   9.502   1.476
  961W        W 5012  10.407   3.245   2.182
  962W        W 5013   2.649  10.915   8.954
  963W        W 5014   5.759   7.182  11.285
  964W        W 5015   1.350   0.439   3.365
  965W        W 5016   8.605   5.904  10.966
  966W        W 5017   5.169   4.630  11.749
  967W        W 5018   1.027   0.637   1.732
  968W        W 5019   5.609   7.554  10.973
  969W        W 5020   2.121   5.969  10.919
  970W        W 5021   9.487   5.185   3.422
  971W        W 5022   3.762   8.029   8.918
  972W        W 5023   4.148   7.651   9.041
  973W        W 5024   7.154   2.313   3.024
  974W        W 5025   8.744   4.953  10.768
  975W        W 5026   0.800   0.206   1.862
  976W        W 5027   4.377   1.329   1.367
  977W        W 5028   6.998   2.749   8.985
  978W        W 5029   7.645   3.848   3.279
  979W        W 5030  11.499   4.272   0.154
  980W        W 5031   2.667   8.514   1.718
  981W        W 5032  10.873  10.361   0.305
  982W        W 5033   3.140   2.908   9.159
  983W        W 5034   1.380   2.769  11.003
  984W        W 5035   3.268   9.841   8.854
  985W        W 5036   5.058   5.862  11.360
  986W        W 5037   5.127   9.614   8.066
  987W        W 5038  10.955   8.105   2.681
  988W        W 5039   6.435   9.134   1.838
  989W        W 5040   5.679  10.114   8.505
  990W        W 5041   7.044   8.380   9.081
  991W        W 5042   6.006   5.541   9.656
  992W        W 5043   8.887   5.520  10.575
  993W        W 5044   7.455   3.609   0.773
  994W        W 5045   6.306   2.693   2.891
  995W        W 5046   8.092   5.531   0.692
  996W        W 5047   1.436   6.238   9.008
  997W        W 5048   6.677   0.067  10.842
  998W        W 5049   8.068   6.432   0.293
  999W        W 5050  10.564   4.490   9.605
 1000W        W 5051   9.584   3.557   2.664
 1001W        W 5052   4.174   2.835  10.031
 1002W        W 5053   0.338   4.543   9.810
 1003W        W 5054  10.001   9.079  11.519
 1004W        W 5055   2.636   6.590   2.925
 1005W        W 5056   3.264  10.537   3.191
 1006W        W 5057   9.998   1.757   3.401
 1007W        W 5058   9.416   5.557  11.757
 1008W        W 5059   7.989   9.922   3.246
 1009W        W 5060   1.235   4.551   9.859
 1010W        W 5061   9.016   9.366  11.465
 1011W        W 5062   3.601   0.418   0.044
 1012W        W 5063   3.065   3.081   8.399
 1013W        W 5064   0.251   9.115   0.054
 1014W        W 5065   8.148   8.927   0.579
 1015W        W 5066   9.732   6.669   0.463
 1016W        W 5067   9.340   9.384   9.938
 1017W        W 5068   5.228   1.939   0.721
 1018W        W 5069   3.144   2.383   2.154
 1019W        W 5070   9.319   5.910   1.944
 1020W        W 5071   0.938   1.528  11.096
 1021W        W 5072   2.887   1.624  10.487
 1022W        W 5073   3.778   0.271   9.176
 1023W        W 5074   0.386   6.479   3.279
 1024W        W 5075   1.843   3.617   9.392
 1025W        W 5076   9.883  10.031   3.328
 1026W        W 5077   5.943   0.498   9.294
 1027W        W 5078  11.370   7.030   1.708
 1028W        W 5079   7.672   2.612  11.946
 1029W        W 5080   8.434   0.247   0.460
 1030W        W 5081   5.766  10.894   9.182
 1031W        W 5082   8.433   8.095   9.098
 1032W        W 5083   0.309   5.172   3.015
 1033W        W 5084   4.819   8.903   0.919
 1034W        W 5085   0.546   3.984  11.882
 1035W        W 5086   0.399   6.267   9.758
 1036W        W 5087   8.744   1.450  11.775
 1037W        W 5088  11.249  11.174  10.289
 1038W        W 5089   2.615   8.117   2.101
 1039W        W 5090   3.631   8.415   9.734
 1040W        W 5091   7.890   6.950   2.592
 1041W        W 5092   9.566   2.381  11.103
 1042W        W 5093   6.937   0.803   1.291
 1043W        W 5094   6.249   6.373   8.563
 1044W        W 5095   2.185   8.322  10.714
 1045W        W 5096   0.921   1.369   9.099
 1046W        W 5097   2.064   6.855   9.512
 1047W        W 5098   9.774  10.273   9.013
 1048W        W 5099  11.046   7.708  10.497
 1049W        W 5100   1.191   1.968   0.707
 1050W        W 5101   8.602   9.940   1.141
 1051W        W 5102   6.025   8.202   3.051
 1052W        W 5103  11.037   9.843   0.318
 1053W        W 5104   4.800   9.788   2.634
 1054W        W 5105   6.141   1.378   1.150
 1055W        W 5106   1.762  11.239  11.100
 1056W        W 5107   9.409   6.640   0.081
 1057W        W 5108   8.280   0.245   3.015
 1058W        W 5109   2.439   0.712   0.309
 1059W        W 5110   2.587   6.130  11.038
 1060W        W 5111   3.768   0.067   0.383
 1061W        W 5112   7.983   8.969   1.577
 1062W        W 5113   6.635   8.921   0.326
 1063W        W 5114   0.893   3.413  11.443
 1064W        W 5115   0.853   6.777  10.904
 1065W        W 5116   8.171   6.673   1.763
 1066W        W 5117   2.432   4.837   1.197
 1067W        W 5118   9.411   2.430  10.634
 1068W        W 5119   5.099   2.643   1.297
 1069W        W 5120   0.889   3.657  10.885
 1070W        W 5121   7.566   7.221   0.306
 1071W        W 5122  10.140   7.912   0.672
 1072W        W 5123   6.709   9.328   9.967
 1073W        W 5124   9.853  10.153   1.827
 1074W        W 5125   2.197   4.677   0.160
 1075W        W 5126   2.200   7.941   2.365
 1076W        W 5127  11.179   6.481  11.257
 1077W        W 5128  10.947  10.013  10.079
 1078W        W 5129   1.597   2.358   1.451
 1079W        W 5130   6.504   1.713   1.002
 1080W        W 5131   1.930   1.337   9.403
 1081W        W 5132  11.383   7.256   0.807
 1082W        W 5133   9.879  10.848   9.917
 1083W        W 5134   1.179   9.573   0.867
 1084W        W 5135   0.724   2.322  11.297
 1085W        W 5136   9.516  10.368   0.029
 1086W        W 5137   9.331   7.621   1.008
 1087W        W 5138  10.856   7.181   3.071
 1088W        W 5139   6.609   1.459   1.464
 1089W        W 5140   5.519   6.692   1.825
 1090W        W 5141   9.420   1.896  11.062
 1091W        W 5142   9.284   1.426  11.832
 1092W        W 5143   4.691   7.740   2.952
 1093W        W 5144   6.547   3.735  10.911
 1094W        W 5145   5.136   8.019   3.037
 1095W        W 5146   9.519   8.875  10.810
 1096W        W 5147   9.479   1.658   1.505
 1097W        W 5148   2.893   9.477   2.196
 1098W        W 5149  11.315   5.105   2.878
 1099W        W 5150   7.610   9.323  10.493
 1100W        W 5151   2.875   0.941  11.428
 1101W        W 5152   2.238   4.376   9.825
 1102W        W 5153   3.773   7.976  11.026
 1103W        W 5154   5.147   6.661  10.845
 1104W        W 5155   9.750   7.015   0.949
 1105W        W 5156   0.173   2.817   8.998
 1106W        W 5157   3.687  10.349   2.918
 1107W        W 5158   3.203  11.363  10.624
 1108W        W 5159  10.954  10.820   2.543
 1109W        W 5160  10.822   6.337   2.755
 1110W        W 5161  11.125  11.115  11.521
 1111W        W 5162   0.388   6.012  10.759
 1112W        W 5163   8.181   2.812   1.260
 1113W        W 5164   7.496   2.604   9.031
 1114W        W 5165   7.044   7.042   2.074
 1115W        W 5166   0.324   9.022   3.120
 1116W        W 5167   9.863   1.804   1.195
 1117W        W 5168   2.908   5.489   0.725
 1118W        W 5169   7.949   8.364  11.327
 1119W        W 5170   7.864   0.683   3.082
 1120W        W 5171   8.986   8.684   2.772
 1121W        W 5172   2.080   0.898   0.654
 1122W        W 5173   8.008   3.852  10.086
 1123W        W 5174   9.376   7.428   9.844
 1124W        W 5175   0.846   0.498   8.845
 1125W        W 5176   4.744   4.359   2.924
 1126W        W 5177   7.039   5.026  11.332
 1127W        W 5178  11.012   4.075   0.613
 1128W        W 5179   4.418   1.301   2.761
 1129W        W 5180   2.516   4.212  10.214
 1130W        W 5181   6.424   2.749   1.666
 1131W        W 5182   3.314   0.446   9.434
 1132W        W 5183   7.034   2.952   9.819
 1133W        W 5184   5.177   4.032   8.361
 1134W        W 5185   0.064   2.856  11.243
 1135W        W 5186   6.841  10.742   0.582
 1136W        W 5187   2.690  10.809   9.924
 1137W        W 5188   4.561   2.211  11.938
 1138W        W 5189   7.093   6.515  11.417
 1139W        W 5190  10.263   4.054  10.423
 1140W        W 5191   7.888   5.025   1.473
 1141W        W 5192   6.348   3.287   3.253
 1142W        W 5193   4.284   4.221   2.653
 1143W        W 5194  11.364   7.512   3.186
 1144W        W 5195   1.253   6.658   9.776
 1145W        W 5196   9.469   4.060   2.851
 1146W        W 5197   4.737   4.109   8.643
 1147W        W 5198  10.033   8.625   1.945
 1148W        W 5199   0.873   7.701  10.673
 1149W        W 5200   8.982   5.619   0.977
 1150W        W 5201   0.925   0.227  10.204
 1151W        W 5202   1.103  10.204   2.774
 1152W        W 5203  10.109   3.064  10.532
 1153W        W 5204  11.032   1.166   0.541
 1154W        W 5205   4.603   2.256   2.381
 1155W        W 5206   7.181   1.366   9.015
 1156W        W 5207   3.812   0.389  10.195
 1157W        W 5208   2.484   1.771   8.816
 1158W        W 5209   6.704  10.909   8.733
 1159W        W 5210   3.833   4.623  11.358
 1160W        W 5211   6.196   2.963  10.328
 1161W        W 5212   3.045   5.536   8.844
 1162W        W 5213   0.275   3.154  10.838
 1163W        W 5214   2.438   4.629  11.289
 1164W        W 5215   0.108   1.785   8.851
 1165W        W 5216   4.231   5.036   9.568
 1166W        W 5217   9.973   1.693   2.682
 1167W        W 5218   9.079   4.287   2.600
 1168W        W 5219  11.267   3.116  10.882
 1169W        W 5220   8.365   1.750   0.860
 1170W        W 5221   1.269   8.458  11.554
 1171W        W 5222   6.929   6.228   9.148
 1172W        W 5223  11.393   3.186   1.342
 1173W        W 5224  10.695   1.862   3.952
 1174W        W 5225   1.168  10.287  10.413
 1175W        W 5226   9.089   9.031   1.993
 1176W        W 5227   8.962   1.885  11.931
 1177W        W 5228   4.259   9.934   2.776
 1178W        W 5229   8.971   6.923   1.197
 1179W        W 5230   6.865   3.088   9.371
 1180W        W 5231   6.215   8.509  11.277
 1181W        W 5232   9.435   3.626   3.138
 1182W        W 5233   8.556   2.073   1.279
 1183W        W 5234   8.511   8.033   2.743
 1184W        W 5235   9.889   9.320  10.655
 1185W        W 5236   7.482   2.785   2.342
 1186W        W 5237   8.955   7.141  10.847
 1187W        W 5238  10.801   9.798   1.870
 1188W        W 5239   4.729   9.484   8.471
 1189W        W 5240   8.135   1.762   2.261
 1190W        W 5241   8.017   6.435  11.442
 1191W        W 5242   7.589   5.318  10.610
 1192W        W 5243   7.051   9.062  11.996
 1193W        W 5244   7.117  10.990   9.049
 1194W        W 5245   8.879   4.575   8.639
 1195W        W 5246   4.169   2.597   3.000
 1196W        W 5247   5.669   3.850   0.717
 1197W        W 5248   1.256   6.543  11.271
 1198W        W 5249   8.484   8.984   3.231
 1199W        W 5250   4.171   0.448   8.848
 1200W        W 5251   8.726  10.905   0.959
 1201W        W 5252   6.559   8.448   9.687
 1202W        W 5253   2.329   8.649  10.340
 1203W        W 5254   0.500   1.071  11.809
 1204W        W 5255   0.400   4.391   1.719
 1205W        W 5256   0.414   0.482   2.071
 1206W        W 5257  11.295  10.779   0.405
 1207W        W 5258  10.524   4.811  10.006
 1208W        W 5259   1.817   1.743  10.098
 1209W        W 5260   6.476   4.739   0.388
 1210W        W 5261   1.218   5.014   3.193
 1211W        W 5262  10.334   6.280  11.234
 1212W        W 5263   6.113   9.626  10.564
 1213W        W 5264  10.917   7.868   1.775
 1214W        W 5265   3.305   8.338   8.940
 1215W        W 5266   2.278   6.175   9.349
 1216W        W 5267   9.902   5.451   8.688
 1217W        W 5268  10.409   2.148   9.584
 1218W        W 5269   1.843   0.155   2.711
 1219W        W 5270   3.376   1.284   8.782
 1220W        W 5271   7.190   7.289  10.064
 1221W        W 5272   8.584  10.778   0.475
 1222W        W 5273   6.413   8.004   9.006
 1223W        W 5274   6.622   5.423   0.053
 1224W        W 5275   7.485   1.539   2.380
 1225W        W 5276   6.756   9.499   3.219
 1226W        W 5277   3.467   8.638  11.765
 1227W        W 5278   5.897   2.943   0.838
 1228W        W 5279  10.878   5.544  10.067
 1229W        W 5280   2.418   1.787  11.395
 1230W        W 5281   7.216  10.639   0.223
 1231W        W 5282   0.027  10.890   0.883
 1232W        W 5283   3.294   7.458   2.060
 1233W        W 5284   8.908   7.577  11.099
 1234W        W 5285   6.245  10.023  10.928
 1235W        W 5286   3.733  10.923  10.006
 1236W        W 5287  10.075   9.107   1.788
 1237W        W 5288   3.797   7.035   0.511
 1238W        W 5289   9.402   7.155   1.864
 1239W        W 5290   3.620   9.371   9.254
 1240W        W 5291   3.836   9.859   1.207
 1241W        W 5292   1.334   5.318   9.432
 1242W        W 5293  11.364   8.529   8.918
 1243W        W 5294   8.266   6.333   8.797
 1244W        W 5295   6.925  11.465   3.289
 1245W        W 5296   2.388   1.327   9.140
 1246W        W 5297   6.376   9.159  11.269
 1247W        W 5298   3.123   1.846   9.527
 1248W        W 5299   6.567   2.466  11.897
 1249W        W 5300   3.721   9.818   2.058
 1250W        W 5301   6.175  11.064  11.289
 1251W        W 5302   7.154   7.071   0.561
 1252W        W 5303   2.337   9.900   1.740
 1253W        W 5304   8.503   9.413  11.058
 1254W        W 5305   5.522   5.643   9.545
 1255W        W 5306   7.648   7.991  10.145
 1256W        W 5307   1.142   0.345  11.211
 1257W        W 5308   1.314   8.145   1.926
 1258W        W 5309   7.552  10.869  11.446
 1259W        W 5310   1.694   4.550   9.577
 1260W        W 5311   8.879   1.658   2.916
 1261W        W 5312   5.148   8.633   0.327
 1262W        W 5313   5.637  10.019   1.411
 1263W        W 5314   9.852  10.282  10.337
 1264W        W 5315   9.027   3.708   8.630
 1265W        W 5316   5.654   8.645   0.462
 1266W        W 5317   2.032  11.297  11.918
 1267W        W 5318   7.438   4.001  11.936
 1268W        W 5319   4.568   6.748   2.924
 1269W        W 5320   5.357   5.072   2.624
 1270W        W 5321   9.511   3.027   2.491
 1271W        W 5322   9.151   1.234  10.038
 1272W        W 5323   0.638   0.545  10.497
 1273W        W 5324   4.562  10.369   8.507
 1274W        W 5325   1.231   3.550   9.858
 1275W        W 5326   0.744   0.064  11.403
 1276W        W 5327   0.633   7.158   1.282
 1277W        W 5328  10.429  10.834  11.007
 1278W        W 5329   1.914   5.041   2.630
 1279W        W 5330   1.466   9.737   1.271
 1280W        W 5331   3.661   2.343   0.693
 1281W        W 5332   6.710   6.838   2.393
 1282W        W 5333   8.446   7.100   0.330
 1283W        W 5334   5.273   3.298   2.245
 1284W        W 5335   0.253   2.301   9.117
 1285W        W 5336   1.751   6.868   2.741
 1286W        W 5337   5.271   0.169   0.399
 1287W        W 5338   0.017  10.297   2.355
 1288W        W 5339   6.745   9.991  10.997
 1289W        W 5340   6.011   8.497  11.779
 1290W        W 5341   8.055   7.240  11.118
 1291W        W 5342   9.820   9.415   0.683
 1292W        W 5343   2.404  11.335   0.275
 1293W        W 5344   2.385   9.427   0.390
 1294W        W 5345   8.502   5.615   3.599
 1295W        W 5346   4.251   3.561   0.914
 1296W        W 5347   6.975   2.350  10.984
 1297W        W 5348   8.435   3.281   9.477
 1298W        W 5349   9.193  10.111   0.404
 1299W        W 5350  10.184   8.599  11.576
 1300W        W 5351  11.437   8.619   9.901
 1301W        W 5352   6.514   0.637   0.058
 1302W        W 5353   6.087  11.055   3.452
 1303W        W 5354   0.148   7.189   9.834
 1304W        W 5355   2.894   7.588   2.984
 1305W        W 5356   0.416   9.001   1.740
 1306W        W 5357  10.526   8.497  11.958
 1307W        W 5358   7.206   5.668   1.084
 1308W        W 5359   3.382   5.267   9.146
 1309W        W 5360   9.899   8.147   2.828
 1310W        W 5361   2.908   5.475   1.747
 1311W        W 5362   2.409   3.305   1.189
 1312W        W 5363   3.886   1.296   8.619
 1313W        W 5364   8.708   6.668  10.834
 1314W        W 5365  10.418   1.497  10.442
 1315W        W 5366   7.164   6.508   3.165
 1316W        W 5367  11.475   6.132   0.001
 1317W        W 5368   0.168   1.072   0.255
 1318W        W 5369  11.446   3.381  10.453
 1319W        W 5370   8.867   3.215   8.584
 1320W        W 5371   0.069   6.091   1.914
 1321W        W 5372   5.985   4.083   9.451
 1322W        W 5373   9.880   3.703   0.630
 1323W        W 5374   4.648   8.543   0.462
 1324W        W 5375  10.826   3.472   2.393
 1325W        W 5376   0.474  10.003   2.208
 1326W        W 5377   5.050  11.450   0.834
 1327W        W 5378   7.270   6.196  10.605
 1328W        W 5379   3.777  11.135  11.422
 1329W        W 5380   2.666   9.308  11.947
 1330W        W 5381  10.619   7.861   0.519
 1331W        W 5382   1.707   4.868  11.042
 1332W        W 5383   6.899  11.417   9.482
 1333W        W 5384   1.884   8.829   0.279
 1334W        W 5385   8.543   2.360   2.392
 1335W        W 5386   3.672   2.857   0.724
 1336W        W 5387  10.671  11.415   0.672
 1337W        W 5388   2.862   4.185   2.660
 1338W        W 5389   3.148   0.327   1.519
 1339W        W 5390   0.270   5.530   9.818
 1340W        W 5391   6.309  10.449  10.310
 1341W        W 5392   4.930   0.648   1.664
 1342W        W 5393   0.248   3.127   0.389
 1343W        W 5394   2.955   0.135  10.170
 1344W        W 5395   0.485   3.091  11.426
 1345W        W 5396   1.983   8.117  11.888
 1346W        W 5397   4.611   7.601  11.561
 1347W        W 5398   7.331   0.517   8.920
 1348W        W 5399   6.574   7.887   2.354
 1349W        W 5400   7.549   2.292   0.780
 1350W        W 5401   3.760   5.195   0.254
 1351W        W 5402   3.709   4.491   1.905
 1352W        W 5403   8.143   4.621   8.657
 1353W        W 5404   7.853   8.458  11.927
 1354W        W 5405   5.508   8.979   8.602
 1355W        W 5406   0.881   9.212   3.143
 1356W        W 5407   2.802   2.108  10.366
 1357W        W 5408   0.515   1.310   2.653
 1358W        W 5409   5.319  11.358   1.752
 1359W        W 5410  10.281   9.473  11.323
 1360W        W 5411  10.730  10.417   1.335
 1361W        W 5412   2.784   2.394   0.778
 1362W        W 5413   8.030   6.003   4.126
 1363W        W 5414   2.319  10.880  11.799
 1364W        W 5415   6.980   1.520   0.723
 1365W        W 5416   0.017   9.929   8.834
 1366W        W 5417   0.494   3.064   9.763
 1367W        W 5418  10.641   3.913   0.283
 1368W        W 5419   2.821   3.766   9.459
 1369W        W 5420   4.596   9.487  10.695
 1370W        W 5421   5.678   1.722   2.927
 1371W        W 5422   3.400   1.414   2.876
 1372W        W 5423   5.252   9.445   8.550
 1373W        W 5424   0.220   0.328  10.756
 1374W        W 5425  10.880  10.124  11.301
 1375W        W 5426   4.630  10.059   2.219
 1376W        W 5427   4.935   0.771   9.770
 1377W        W 5428   4.036   4.671   3.539
 1378W        W 5429  10.538   7.226  11.536
 1379W        W 5430   6.788   3.663   9.194
 1380W        W 5431   4.512   4.444   9.560
 1381W        W 5432   3.825   0.414  11.579
 1382W        W 5433  10.883   4.176   1.133
 1383W        W 5434   5.155   9.858   3.625
 1384W        W 5435   4.352   1.428   9.950
 1385W        W 5436   7.468   0.817   3.415
 1386W        W 5437   9.038   0.781   2.414
 1387W        W 5438   8.546   7.584   9.262
 1388W        W 5439   3.690   2.652   9.273
 1389W        W 5440   8.556   7.529   2.796
 1390W        W 5441   9.023   4.609   1.312
 1391W        W 5442   8.596   2.580   0.528
 1392W        W 5443   6.075   3.306   1.152
 1393W        W 5444   2.703   7.951   2.637
 1394W        W 5445   3.191  10.310   0.104
 1395W        W 5446  10.605   9.836  10.900
 1396W        W 5447   7.607   4.375   1.455
 1397W        W 5448   2.388   7.857  10.714
 1398W        W 5449   8.638   6.360  11.727
 1399W        W 5450   8.963   9.632  11.015
 1400W        W 5451   5.769   0.379   0.505
 1401W        W 5452   6.071   8.104   8.598
 1402W        W 5453   6.054   7.287   4.024
 1403W        W 5454   4.087  10.948   9.043
 1404W        W 5455   0.877   3.917  11.339
 1405W        W 5456   4.335   8.841   0.757
 1406W        W 5457   2.791   2.479  11.834
 1407W        W 5458   7.785   6.658   9.981
 1408W        W 5459   9.558   2.898   9.467
 1409W        W 5460  10.090   9.005   9.865
 1410W        W 5461   3.674   0.787   8.964
 1411W        W 5462   4.738   9.066  11.464
 1412W        W 5463   8.801  10.885   2.394
 1413W        W 5464   3.876   5.266  10.569
 1414W        W 5465   6.677   3.774   0.259
 1415W        W 5466   8.034   9.621   9.889
 1416W        W 5467   9.093   5.734   2.795
 1417W        W 5468   7.666   4.160  11.038
 1418W        W 5469  10.721   9.803  11.768
 1419W        W 5470   3.141   9.090  10.153
 1420W        W 5471   5.828   5.203  11.609
 1421W        W 5472   3.387   6.068  10.677
 1422W        W 5473   6.516   6.674   1.677
 1423W        W 5474   9.548   6.157  10.810
 1424W        W 5475   6.926  10.865  10.658
 1425W        W 5476   8.144   8.981   1.090
 1426W        W 5477   3.336   8.052  10.229
 1427W        W 5478   4.232   2.321  10.445
 1428W        W 5479  10.840   2.763   9.180
 1429W        W 5480   0.491  10.965   1.177
 1430W        W 5481   0.977  11.327   1.394
 1431W        W 5482   8.917   7.326   9.526
 1432W        W 5483   2.172   3.410   1.891
 1433W        W 5484   9.168   7.082  11.942
 1434W        W 5485   2.904   7.875  11.925
 1435W        W 5486   2.382   0.543   1.993
 1436W        W 5487   1.144   9.660   2.911
 1437W        W 5488   8.844   0.740  11.469
 1438W        W 5489   2.941   3.020   3.120
 1439W        W 5490   4.274   2.815   0.360
 1440W        W 5491   4.642   4.260   9.114
 1441W        W 5492   4.717   2.962   1.429
 1442W        W 5493   5.222   5.598  10.951
 1443W        W 5494   5.715  11.084   3.079
 1444W        W 5495  11.053   6.057   9.902
 1445W        W 5496   1.276   4.806   9.405
 1446W        W 5497   2.327   4.344   8.443
 1447W        W 5498   2.403   2.702  11.563
 1448W        W 5499   5.796   7.118  10.419
 1449W        W 5500   1.278   1.106  11.117
 1450W        W 5501   8.720   4.260   9.201
 1451W        W 5502   7.412   5.201   1.846
 1452W        W 5503   5.136   1.695  11.249
 1453W        W 5504   6.595   6.132  10.040
 1454W        W 5505   6.583   4.512   2.526
 1455W        W 5506   1.187   5.668   1.326
 1456W        W 5507  10.284   0.640   0.094
 1457W        W 5508   3.111   8.874   2.363
 1458W        W 5509   3.411  10.771  10.866
 1459W        W 5510   8.111   4.096   3.154
 1460W        W 5511   3.150   3.529   2.756
 1461W        W 5512   4.713  10.926   9.698
 1462W        W 5513   9.871   0.281  10.358
 1463W        W 5514   5.680   3.396   8.949
 1464W        W 5515   9.087   4.596  10.950
 1465W        W 5516  10.689   1.801   0.875
 1466W        W 5517   5.198   3.727   1.373
 1467W        W 5518   9.093   4.175   8.869
 1468W        W 5519   9.744   5.289   1.235
 1469W        W 5520   9.940   8.145   0.278
 1470W        W 5521  10.367  10.948   3.349
 1471W        W 5522  10.095   2.389   2.806
 1472W        W 5523   1.279   2.375   1.049
 1473W        W 5524   7.096   0.286   1.318
 1474W        W 5525   2.168   2.114  10.990
 1475W        W 5526   7.375   7.190   2.448
 1476W        W 5527   0.009   9.566   2.767
 1477W        W 5528   9.137   6.591   9.106
 1478W        W 5529   3.150   8.934   9.143
 1479W        W 5530   4.112   9.546  10.431
 1480W        W 5531   1.913   2.214   0.422
 1481W        W 5532   4.822  10.575   1.288
 1482W        W 5533   6.216   6.211   3.026
 1483W        W 5534   3.715   5.398  11.780
 1484W        W 5535   0.127   8.892   2.144
 1485W        W 5536   6.060   6.206  11.941
 1486W        W 5537   0.898   6.459   1.910
 1487W        W 5538   5.179   3.631  10.992
 1488W        W 5539   9.280   6.302  11.283
 1489W        W 5540   8.963   3.255  10.500
 1490W        W 5541   4.572   0.262  11.965
 1491W        W 5542   1.766   9.193  11.354
 1492W        W 5543   9.638   0.590   9.436
 1493W        W 5544   9.758   0.782  11.421
 1494W        W 5545  10.371  11.357   1.936
 1495W        W 5546  10.821   1.322  11.085
 1496W        W 5547   3.715   3.364  10.931
 1497W        W 5548   0.466   3.834   2.307
 1498W        W 5549   4.596   0.751   0.774
 1499W        W 5550   9.033   8.094  10.167
 1500W        W 5551  10.804   0.305   1.006
 1501W        W 5552  10.155  10.404   9.960
 1502W        W 5553   8.544  11.241   0.176
 1503W        W 5554   1.008  10.522   2.410
 1504W        W 5555   5.128  11.455   2.736
 1505W        W 5556   5.492   4.047   3.595
 1506W        W 5557   1.988   9.883   9.384
 1507W        W 5558   4.952   1.254   2.616
 1508W        W 5559   6.639   2.673  10.388
 1509W        W 5560   5.168   3.998   3.987
 1510W        W 5561   9.068   6.339   8.677
 1511W        W 5562   8.904   7.418   1.222
 1512W        W 5563  10.587   4.305  10.099
 1513W        W 5564   2.182   9.134  11.987
 1514W        W 5565   8.085   5.024   4.042
 1515W        W 5566   7.616   7.130   1.253
 1516W        W 5567   1.664   6.918   3.250
 1517W        W 5568   0.054   5.963   9.943
 1518W        W 5569   4.429  10.401  11.359
 1519W        W 5570   9.513   9.888   1.262
 1520W        W 5571   5.538   9.634  11.337
 1521W        W 5572   2.654   1.067   1.271
 1522W        W 5573   3.340   2.250   9.268
 1523W        W 5574  11.056   9.432  11.721
 1524W        W 5575   2.294   2.250   0.913
 1525W        W 5576   9.042   6.783   1.968
 1526W        W 5577   7.796   5.739   9.867
 1527W        W 5578  11.094   4.486  10.902
 1528W        W 5579   7.999   4.704   2.194
 1529W        W 5580   7.369   4.701  11.028
 1530W        W 5581   4.244  11.405   2.611
 1531W        W 5582   3.676   6.601   0.274
 1532W        W 5583   5.934   0.928   8.540
 1533W        W 5584  10.860   8.198   0.224
 1534W        W 5585  10.794   1.818  10.485
 1535W        W 5586   9.403   2.631   2.006
 1536W        W 5587   1.625   1.335   9.820
 1537W        W 5588   0.472  10.528   2.311
 1538W        W 5589   9.340  11.363  11.211
 1539W        W 5590   9.989  11.445   9.528
 1540W        W 5591   2.911   5.356   0.217
 1541W        W 5592   3.373   2.575  10.654
 1542W        W 5593   4.350   3.784  11.196
 1543W        W 5594   6.597   2.230   0.964
 1544W        W 5595   2.139   1.769   9.205
 1545W        W 5596   2.185  11.414  11.418
 1546W        W 5597   4.362   0.798   0.309
 1547W        W 5598   9.575   8.036  10.091
 1548W        W 5599   4.909   8.588  10.886
 1549W        W 5600   0.596   5.914   0.707
 1550W        W 5601   3.234   4.293  11.296
 1551W        W 5602   2.259   8.638   2.965
 1552W        W 5603   1.832   0.257   9.492
 1553W        W 5604   6.378   4.020  10.472
 1554W        W 5605   4.109  11.254  10.834
 1555W        W 5606   5.995   6.156   0.862
 1556W        W 5607   0.275   1.645   9.845
 1557W        W 5608   1.439  10.239   1.357
 1558W        W 5609   3.736   6.585   9.388
 1559W        W 5610   1.145   1.837   8.972
 1560W        W 5611   7.947   0.442   1.773
 1561W        W 5612   6.270   8.799  10.000
 1562W        W 5613   8.006   4.165  11.424
 1563W        W 5614   8.604   8.410   2.001
 1564W        W 5615   8.203   6.537   3.248
 1565W        W 5616   9.621   6.953   2.291
 1566W        W 5617   0.701  11.383   0.980
 1567W        W 5618   8.774   8.719   3.767
 1568W        W 5619  11.451   9.143  10.752
 1569W        W 5620   1.294   5.979   0.060
 1570W        W 5621   8.909   6.107   0.534
 1571W        W 5622   8.499   3.393   8.910
 1572W        W 5623   4.732   8.098  11.639
 1573W        W 5624  11.274   9.663   1.739
 1574W        W 5625   6.764   8.047   9.393
 1575W        W 5626   7.130  10.503   9.252
 1576W        W 5627  10.961  10.634  11.422
 1577W        W 5628   5.495   6.100   2.292
 1578W        W 5629   6.373   6.169   2.534
 1579W        W 5630   3.278   8.562  10.399
 1580W        W 5631   2.680   5.532   2.860
 1581W        W 5632   0.297   9.466  11.328
 1582W        W 5633   3.217   6.188   3.383
 1583W        W 5634   0.589   1.504   3.673
 1584W        W 5635   0.296   7.082  11.779
 1585W        W 5636   3.677   3.855  11.816
 1586W        W 5637   9.852   0.008   1.808
 1587W        W 5638  10.399   1.290  11.355
 1588W        W 5639   6.242   7.897   0.395
 1589W        W 5640  11.006  10.019   1.467
 1590W        W 5641  10.821   1.354   9.614
 1591W        W 5642  10.449   6.490  11.987
 1592W        W 5643   0.769   1.161   3.134
 1593W        W 5644   0.912   3.788   2.564
 1594W        W 5645   9.692   2.125   2.595
 1595W        W 5646   3.156   2.084  10.755
 1596W        W 5647   4.520   0.959  10.097
 1597W        W 5648   1.360   2.330   1.917
 1598W        W 5649   8.860   4.603   2.233
 1599W        W 5650   5.800   9.023   9.947
 1600W        W 5651  11.023   9.837   2.316
 1601W        W 5652   8.855   1.728   1.036
 1602W        W 5653   8.007   7.463   1.311
 1603W        W 5654   9.045   7.651   2.878
 1604W        W 5655  10.047   6.979   9.031
 1605W        W 5656   3.384   3.388   1.403
 1606W        W 5657   9.174   7.587  11.941
 1607W        W 5658  10.631   3.612   9.654
 1608W        W 5659   8.091  10.305  11.879
 1609W        W 5660  10.083   8.857   8.906
 1610W        W 5661   6.969   4.624  11.730
 1611W        W 5662   6.574   1.134   9.585
 1612W        W 5663   6.278   8.988   2.673
 1613W        W 5664  10.007   8.951  11.009
 1614W        W 5665   8.322   6.835   0.765
 1615W        W 5666   2.840  11.395   8.812
 1616W        W 5667   2.498   0.065  10.380
 1617W        W 5668   6.643  10.908   1.345
 1618W        W 5669   4.582   9.046  11.938
 1619W        W 5670   9.409   2.879   0.890
 1620W        W 5671   5.014   2.851   3.163
 1621W        W 5672   0.179  10.342   1.433
 1622W        W 5673   9.829   4.803   2.311
 1623W        W 5674  10.090   0.383   9.744
 1624W        W 5675   3.309   9.962   1.311
 1625W        W 5676  10.906   6.466   1.304
 1626W        W 5677   6.111   3.654   1.995
 1627W        W 5678   4.139   4.258  11.195
 1628W        W 5679   0.666  10.806   3.396
 1629W        W 5680   9.387   8.053   1.822
 1630W        W 5681   0.437   6.177  11.769
 1631W        W 5682   4.218  10.109   3.287
 1632W        W 5683   9.465   3.933   2.326
 1633W        W 5684   2.870   2.592  10.504
 1634W        W 5685   0.772   4.201   0.696
 1635W        W 5686   1.802   0.915   8.663
 1636W        W 5687   3.792   3.610  11.378
 1637W        W 5688   2.191   5.722   9.111
 1638W        W 5689   8.110   5.834  10.978
 1639W        W 5690   4.973   9.517   8.959
 1640W        W 5691   3.883   7.568   3.222
 1641W        W 5692   5.620   3.674   2.098
 1642W        W 5693   5.065   3.557   2.791
 1643W        W 5694   0.056   6.699   2.389
 1644W        W 5695  10.471   3.229   2.694
 1645W        W 5696   5.659   7.637   1.952
 1646W        W 5697   7.307   0.867   8.326
 1647W        W 5698   7.980   5.002  10.390
 1648W        W 5699   4.443   1.090  11.051
 1649W        W 5700   2.662   3.295   0.220
 1650W        W 5701   0.415   0.291   3.435
 1651W        W 5702   3.204   3.619  10.549
 1652W        W 5703   3.183   6.054   9.794
 1653W        W 5704   9.892   2.851   1.134
 1654W        W 5705   0.426   8.621  10.054
 1655W        W 5706   7.100   2.835   0.460
 1656W        W 5707   8.080  10.054   2.363
 1657W        W 5708   0.836   8.361  11.279
 1658W        W 5709   6.205   5.295   2.397
 1659W        W 5710   1.896   2.268   1.857
 1660W        W 5711   3.228   5.311   2.472
 1661W        W 5712   5.806   5.043   0.393
 1662W        W 5713   5.166   9.746  11.716
 1663W        W 5714   1.377   5.760   1.790
 1664W        W 5715   2.160   9.017   8.926
 1665W        W 5716  10.562   6.984   9.073
 1666W        W 5717   5.543   7.960   8.681
 1667W        W 5718   4.726   0.933   3.608
 1668W        W 5719   6.431   2.117   9.311
 1669W        W 5720   1.265   7.645   9.012
 1670W        W 5721  11.232   2.820   1.711
 1671W        W 5722   3.421   2.240   3.007
 1672W        W 5723  10.856   3.671   0.928
 1673W        W 5724  11.005   6.166   0.542
 1674W        W 5725   0.878   8.646  10.288
 1675W        W 5726   2.673   0.527  11.239
 1676W        W 5727  11.480   8.079   2.593
 1677W        W 5728   7.307  10.792   2.132
 1678W        W 5729  10.419   0.449   8.919
 1679W        W 5730   5.491   6.674   0.378
 1680W        W 5731   2.697   0.252   0.244
 1681W        W 5732   3.514   4.003   2.013
 1682W        W 5733   9.615   2.911  11.067
 1683W        W 5734   4.606   9.365   9.390
 1684W        W 5735   8.707   5.116   0.349
 1685W        W 5736   5.086   4.041   0.089
 1686W        W 5737   1.677   9.491   9.608
 1687W        W 5738   4.778   1.466  11.527
 1688W        W 5739   5.637   9.390  11.782
 1689W        W 5740   1.814   0.479   1.195
 1690W        W 5741   2.706   3.644   3.046
 1691W        W 5742   9.965   4.830   1.253
 1692W        W 5743   9.022   4.826   2.696
 1693W        W 5744   0.064   9.442   3.282
 1694W        W 5745   4.558   4.814   0.469
 1695W        W 5746  10.753   5.748   3.597
 1696W        W 5747   7.084   9.871   2.241
 1697W        W 5748   6.136   4.887  10.394
 1698W        W 5749  10.977   0.747   0.823
 1699W        W 5750   8.461  10.046  10.362
 1700W        W 5751   2.703   3.658   1.533
 1701W        W 5752   3.830  10.257   0.695
 1702W        W 5753  11.132   0.041  11.800
 1703W        W 5754   4.459   9.312   1.279
 1704W        W 5755   4.660  10.787   1.733
 1705W        W 5756   9.068  11.369  10.543
 1706W        W 5757   4.238   7.764  10.950
 1707W        W 5758   5.506  10.782   1.186
 1708W        W 5759   7.921   3.201  11.613
 1709W        W 5760   5.522   6.820  10.054
 1710W        W 5761  10.134   5.170  10.516
 1711W        W 5762   6.242   3.169   2.167
 1712W        W 5763   8.472   5.179   3.367
 1713W        W 5764  10.824   0.754   0.325
 1714W        W 5765  10.106   6.291  11.683
 1715W        W 5766   8.928   3.554   9.958
 1716W        W 5767   4.810   6.980   2.460
 1717W        W 5768   3.348   8.151  11.834
 1718W        W 5769   1.076   7.937  11.084
 1719W        W 5770   2.274   0.926   3.124
 1720W        W 5771   4.206   8.402   9.486
 1721W        W 5772   8.135   7.848   3.055
 1722W        W 5773   7.868  11.488  10.393
 1723W        W 5774   1.471   3.737   1.180
 1724W        W 5775   7.212   4.709   8.248
 1725W        W 5776   6.182  11.204   9.090
 1726W        W 5777   7.868   5.476   1.746
 1727W        W 5778   5.608   1.725   8.983
 1728W        W 5779   2.770   2.686   1.968
 1729W        W 5780   0.424   4.072   0.360
 1730W        W 5781   2.423   8.572   8.811
 1731W        W 5782   3.851  11.130   8.621
 1732W        W 5783   8.406  10.932  11.784
 1733W        W 5784   9.517   0.090   9.364
 1734W        W 5785   5.545   8.005   3.696
 1735W        W 5786   8.962   9.979   2.988
 1736W        W 5787   0.417   0.330   1.035
 1737W        W 5788   6.322   8.021   0.907
 1738W        W 5789   6.212   4.081   8.135
 1739W        W 5790   5.185   2.565  11.778
 1740W        W 5791   3.108   8.314   3.055
 1741W        W 5792   3.069   5.573   1.235
 1742W        W 5793   0.744  10.456  10.637
 1743W        W 5794   5.339   6.951   3.567
 1744W        W 5795   6.011   4.210   3.650
 1745W        W 5796   8.879   5.071   1.132
 1746W        W 5797   6.184   4.313   0.981
 1747W        W 5798   4.691   3.731  10.805
 1748W        W 5799   6.601   7.975   8.521
 1749W        W 5800   0.926   2.928   0.752
 1750W        W 5801   1.688   3.255   1.918
 1751W        W 5802  10.941   5.538   2.189
 1752W        W 5803   9.444   4.254  10.894
 1753W        W 5804   3.674   6.163   9.677
 1754W        W 5805   3.622   3.548   9.897
 1755W        W 5806   6.318   5.378  10.438
 1756W        W 5807   9.900   4.684   8.900
 1757W        W 5808  10.836   7.567   9.028
 1758W        W 5809   4.252   5.584  10.880
 1759W        W 5810   5.744  10.466   8.894
 1760W        W 5811   5.912   3.780   2.862
 1761W        W 5812   7.215  10.120   0.431
 1762W        W 5813   3.362   9.763   3.606
 1763W        W 5814  11.448   8.055   1.876
 1764W        W 5815   5.690   4.115   0.258
 1765W        W 5816   4.178   6.655   0.318
 1766W        W 5817   6.917   0.762  10.314
 1767W        W 5818  10.450  10.545   0.568
 1768W        W 5819   2.913   2.964  11.910
 1769W        W 5820  10.025   2.557  11.282
 1770W        W 5821   4.456   6.650   3.568
 1771W        W 5822   1.346   8.934   2.405
 1772W        W 5823   2.158   3.330  10.489
 1773W        W 5824   7.939   9.163   9.679
 1774W        W 5825   3.282   4.007   2.875
 1775W        W 5826  11.148   9.480   9.525
 1776W        W 5827   2.753   3.741   8.956
 1777W        W 5828   9.090   8.071   2.277
 1778W        W 5829   7.799   2.843   2.804
 1779W        W 5830   7.503   3.139  10.908
 1780W        W 5831   8.513   0.619   1.185
 1781W        W 5832   6.545   0.792  11.558
 1782W        W 5833   6.511   2.240   2.419
 1783W        W 5834   9.662   8.693  11.316
 1784W        W 5835   3.252   9.804   2.373
 1785W        W 5836   4.607   0.351   1.390
 1786W        W 5837   6.713   1.095  11.966
 1787W        W 5838   5.217   1.007   3.460
 1788W        W 5839   4.480   5.377  10.445
 1789W        W 5840   1.017   8.523   9.369
 1790W        W 5841  10.783   8.474  10.884
 1791W        W 5842   7.091   9.729   1.203
 1792W        W 5843   1.949   2.230   9.998
 1793W        W 5844   6.526   8.344   0.230
 1794W        W 5845   3.379   9.104  11.522
 1795W        W 5846   6.005   7.892  11.021
 1796W        W 5847   6.233   6.470   9.835
 1797W        W 5848   1.231   0.974   0.931
 1798W        W 5849   1.446   3.092   9.909
 1799W        W 5850   1.703   4.551   3.334
 1800W        W 5851   4.028   6.750   2.892
 1801W        W 5852   6.025   1.835   9.502
 1802W        W 5853  10.778   9.113   2.954
 1803W        W 5854   9.764   8.450   8.925
 1804W        W 5855   1.490   8.022   0.032
 1805W        W 5856   9.400   6.660   1.037
 1806W        W 5857   9.438   4.702   3.609
 1807W        W 5858   0.660   6.725  11.786
 1808W        W 5859   2.617  10.562  11.437
 1809W        W 5860   3.802   2.158   9.040
 1810W        W 5861  10.895  10.918   9.990
 1811W        W 5862  10.947   6.647   3.173
 1812W        W 5863   8.026  10.088  10.097
 1813W        W 5864   4.673  10.905   3.295
 1814W        W 5865   1.478   9.660   0.056
 1815W        W 5866   9.516   2.667   1.473
 1816W        W 5867   4.282  10.817  10.615
 1817W        W 5868   9.240   5.163  10.716
 1818W        W 5869   3.229   3.830  11.537
 1819W        W 5870   5.709   4.244   9.941
 1820W        W 5871   4.090  10.030  10.232
 1821W        W 5872   1.289   9.145   2.859
 1822W        W 5873   2.557  10.028   2.951
 1823W        W 5874   6.634   9.439   9.262
 1824W        W 5875   1.622   5.559   0.455
 1825W        W 5876   8.882   4.183   9.681
 1826W        W 5877   9.917   7.173   2.645
 1827W        W 5878   2.489   5.332   1.013
 1828W        W 5879   4.170   3.115  11.053
 1829W        W 5880   1.405   5.783   9.635
 1830W        W 5881   1.056   2.936   3.480
 1831W        W 5882   1.718   6.633  11.002
 1832W        W 5883   1.189  10.958   9.371
 1833W        W 5884   4.130   5.225  11.550
 1834W        W 5885   0.569  10.292   8.917
 1835W        W 5886   5.016   5.792   9.584
 1836W        W 5887   1.378   3.782   1.828
 1837W        W 5888   0.225   3.515   9.870
 1838W        W 5889   9.973   0.492   8.675
 1839W        W 5890   9.524   1.956   9.015
 1840W        W 5891   4.626   3.229   0.250
 1841W        W 5892   9.167   0.454   9.555
 1842W        W 5893   3.585   4.208   3.271
 1843W        W 5894   8.530   5.378  10.947
 1844W        W 5895   5.669   8.710   1.863
 1845W        W 5896  10.026   2.718   9.356
 1846W        W 5897  10.212   3.417  10.887
 1847W        W 5898   8.071   9.562   8.848
 1848W        W 5899   0.801   8.256   2.303
 1849W        W 5900   0.750   8.094   9.299
 1850W        W 5901   9.087   6.656   2.913
 1851W        W 5902   8.537  10.351   0.188
 1852W        W 5903   6.575   2.645  11.188
 1853W        W 5904   0.248   5.872   1.472
 1854W        W 5905   1.815   2.790   1.203
 1855W        W 5906   3.491   8.403   1.623
 1856W        W 5907   3.832   4.811  10.858
 1857W        W 5908   8.105   2.638   8.465
 1858W        W 5909   1.535  11.024   0.853
 1859W        W 5910   6.723   9.901   0.361
 1860W        W 5911   5.848   6.226  11.465
 1861W        W 5912   4.656  11.276   2.914
 1862W        W 5913   7.161   9.383   1.958
 1863W        W 5914  10.652  11.395  11.789
 1864W        W 5915   2.012   6.286  11.861
 1865W        W 5916   7.472   3.340   1.579
 1866W        W 5917   5.798   4.115   3.204
 1867W        W 5918   8.077  10.827   1.728
 1868W        W 5919   2.458  10.884  10.901
 1869W        W 5920  11.276   4.273   2.983
 1870W        W 5921   7.185   2.626   9.458
 1871W        W 5922   9.260   0.681   1.818
 1872W        W 5923   7.196   3.260   3.037
 1873W        W 5924   2.203   3.688   3.264
 1874W        W 5925  10.327   3.406   9.993
 1875W        W 5926   1.371   9.199   1.970
 1876W        W 5927   3.734   2.096   8.445
 1877W        W 5928  10.284   3.933   9.904
 1878W        W 5929   6.944   5.371   2.033
 1879W        W 5930   4.565   2.723   0.989
 1880W        W 5931   6.246   3.665   1.492
 1881W        W 5932   8.357  10.814   9.502
 1882W        W 5933   4.744   5.233   0.759
 1883W        W 5934   7.112   4.533   1.713
 1884W        W 5935  11.040  11.340   0.272
 1885W        W 5936   9.732   5.948  11.722
 1886W        W 5937   6.680  10.428   9.460
 1887W        W 5938   5.291  10.962   8.983
 1888W        W 5939   6.289   2.350   1.365
 1889W        W 5940   4.598   0.566   2.443
 1890W        W 5941   0.489   2.774  10.558
 1891W        W 5942  10.846   1.978   2.761
 1892W        W 5943   6.472   6.092   0.983
 1893W        W 5944   1.938  10.132   1.958
 1894W        W 5945   1.149   0.870   9.105
 1895W        W 5946   3.488   9.599   9.686
 1896W        W 5947  10.398   2.799   2.427
 1897W        W 5948   1.267   8.028   9.379
 1898W        W 5949   0.369   0.838   2.444
 1899W        W 5950   1.700   5.551   1.423
 1900W        W 5951   3.193   8.866   3.156
 1901W        W 5952  10.049   4.995  10.032
 1902W        W 5953   2.084   1.803   1.747
 1903W        W 5954   8.438   3.264  10.418
 1904W        W 5955   3.787   3.101  11.380
 1905W        W 5956   9.077   6.055   9.090
 1906W        W 5957  11.182   5.722  11.222
 1907W        W 5958   1.775   4.592   1.503
 1908W        W 5959   8.747   2.519   2.848
 1909W        W 5960  11.357  10.566  11.103
 1910W        W 5961  10.050   2.618  10.316
 1911W        W 5962   8.238   0.929  10.401
 1912W        W 5963   5.518   2.109   2.567
 1913W        W 5964   5.607   0.368   9.635
 1914W        W 5965  10.966   5.215  11.491
 1915W        W 5966  10.123   3.632   9.508
 1916W        W 5967   0.270   7.268   2.974
 1917W        W 5968   3.331  11.358   1.415
 1918W        W 5969   6.714   6.145   8.687
 1919W        W 5970   1.409   7.051   8.397
 1920W        W 5971  11.315   5.720   9.207
 1921W        W 5972  10.124   6.058   2.229
 1922W        W 5973   5.063  10.327   2.313
 1923W        W 5974   0.425   9.859   3.462
 1924W        W 5975   9.186   9.589   0.334
 1925W        W 5976   8.991  10.461   2.194
 1926W        W 5977   1.806   8.945   1.812
 1927W        W 5978   2.239   2.762  10.069
 1928W        W 5979   4.106   4.245   1.557
 1929W        W 5980   2.224   1.951   3.782
 1930W        W 5981   4.114   3.341  10.048
 1931W        W 5982   0.188   1.472   1.703
 1932W        W 5983   8.488  10.712   2.775
 1933W        W 5984   4.633   3.860   2.802
 1934W        W 5985   6.623   8.442  10.222
 1935W        W 5986   2.991  10.442  10.111
 1936W        W 5987   3.183   1.772   9.012
 1937W        W 5988   9.587  10.769   1.004
 1938W        W 5989   3.505   8.008   0.928
 1939W        W 5990   5.412   7.826   9.179
 1940W        W 5991   4.040   2.569   2.515
 1941W        W 5992   7.695  11.036   0.461
 1942W        W 5993   3.610   2.117   0.240
 1943W        W 5994   6.636   1.255   9.056
 1944W        W 5995   8.085   8.328   2.769
 1945W        W 5996   0.895   0.369   2.361
 1946W        W 5997   6.905   3.318   0.575
 1947W        W 5998   4.176   9.066   1.702
 1948W        W 5999   3.464   0.513   3.721
 1949W        W 6000   3.672   3.558   1.788
 1950W        W 6001   9.929   4.762  10.787
 1951W        W 6002   7.241   1.875   2.682
 1952W        W 6003   8.675   3.689  11.302
 1953W        W 6004  11.410   9.885   9.329
 1954W        W 6005   9.805   0.115   0.997
 1955W        W 6006   1.470   5.106   2.123
 1956W        W 6007   2.440   6.141   8.860
 1957W        W 6008   3.374   9.492   0.400
 1958W        W 6009   8.609   5.260  11.864
 1959W        W 6010   5.990   6.064  10.975
 1960W        W 6011  10.512   3.425   0.261
 1961W        W 6012   3.107  11.350  11.124
 1962W        W 6013   8.628   8.793   1.227
 1963W        W 6014   1.773   5.974   2.205
 1964W        W 6015   1.676  10.803   9.243
 1965W        W 6016  11.286   9.762  11.364
 1966W        W 6017   5.301   8.954   0.701
 1967W        W 6018  10.569  11.354  10.940
 1968W        W 6019  11.445   7.567   1.704
 1969W        W 6020   9.911   5.595   0.027
 1970W        W 6021   1.396   1.411   3.117
 1971W        W 6022   4.772   1.701  11.984
 1972W        W 6023   6.527   7.558   1.014
 1973W        W 6024   4.981   6.560   3.581
 1974W        W 6025   3.844   3.165   1.490
 1975W        W 6026   7.126   8.846  11.058
 1976W        W 6027   3.267   2.681   1.750
 1977W        W 6028   2.261   7.920   1.193
 1978W        W 6029   3.682   0.296   3.219
 1979W        W 6030   4.158  11.202  10.293
 1980W        W 6031  10.425   5.180  11.476
 1981W        W 6032   2.838   8.805   0.788
 1982W        W 6033  10.828   3.276   9.305
 1983W        W 6034   3.947   7.134   9.264
 1984W        W 6035   3.856   3.386  11.828
 1985W        W 6036  11.387   3.121  10.001
 1986W        W 6037   2.222   8.920  11.314
 1987W        W 6038   6.219  10.806  10.742
 1988W        W 6039   2.193   2.220  11.489
 1989W        W 6040   3.265   9.057  10.640
 1990W        W 6041   1.295   5.291   1.651
 1991W        W 6042   9.748   4.600  10.196
 1992W        W 6043   3.899   8.181   8.379
 1993W        W 6044   8.059  10.456   2.057
 1994W        W 6045   6.977   8.429   0.559
 1995W        W 6046   5.547   2.366   9.751
 1996W        W 6047   0.688   5.993   1.222
 1997W        W 6048   1.682   6.705  11.988
 1998W        W 6049   6.080   8.878   1.603
 1999W        W 6050   0.625   1.833   9.045
 2000W        W 6051   2.767   1.121  10.434
 2001W        W 6052   6.090   0.434   2.286
 2002W        W 6053   8.563   9.736   1.620
 2003W        W 6054  11.436   0.904  11.850
 2004W        W 6055   7.217   7.835   9.936
 2005W        W 6056   8.636  10.027  11.082
 2006W        W 6057   3.330   2.251   9.785
 2007W        W 6058   1.804   6.434   1.937
 2008W        W 6059   3.650   8.913   9.034
 2009W        W 6060   2.252   3.674  11.280
 2010W        W 6061  10.062   0.271   1.438
 2011W        W 6062   8.257   1.550  11.300
 2012W        W 6063   2.908   1.867  11.244
 2013W        W 6064   8.386   9.578   0.023
 2014W        W 6065   0.304   8.040   9.561
 2015W        W 6066   2.704   3.465   8.526
 2016W        W 6067   1.276   9.349   3.523
 2017W        W 6068  10.811   7.044  10.840
 2018W        W 6069   3.838   7.491   0.252
 2019W        W 6070   1.979   7.708   3.163
 2020W        W 6071   1.842   1.365   1.998
 2021W        W 6072   9.390   9.367  11.870
 2022W        W 6073   1.620  10.505   1.769
 2023W        W 6074   8.005  11.449   0.901
 2024W        W 6075   8.588   0.580   2.284
 2025W        W 6076   4.268   4.561  11.692
 2026W        W 6077   2.371   7.588   4.084
 2027W        W 6078   9.504   9.840   9.034
 2028W        W 6079   8.062   5.303   3.618
 2029W        W 6080   9.640  10.959  11.298
 2030W        W 6081   8.900   3.632  10.838
 2031W        W 6082   6.103   9.486   0.758
 2032W        W 6083   2.628  10.880   0.206
 2033W        W 6084  10.387   0.409   3.323
 2034W        W 6085   1.549   2.418   0.094
 2035W        W 6086  10.868   1.260   8.582
 2036W        W 6087   9.077  11.276   2.173
 2037W        W 6088   8.164   7.539   1.818
 2038W        W 6089   3.108   1.478   3.361
 2039W        W 6090   2.262   4.896   3.796
 2040W        W 6091   0.133   6.777  10.145
 2041W        W 6092  10.367   7.004  11.970
 2042W        W 6093  10.820   6.105  11.198
 2043W        W 6094   1.653   2.789   3.205
 2044W        W 6095  10.084   2.741   8.847
 2045W        W 6096   4.812  10.071   1.370
 2046W        W 6097   5.691  11.343   8.940
 2047W        W 6098   2.781   4.558   1.464
 2048W        W 6099   4.498  11.259  11.965
 2049W        W 6100   8.976   9.492  10.301
 2050W        W 6101   3.045   7.806   0.722
 2051W        W 6102   5.675   8.165   1.835
 2052W        W 6103   6.424   3.350   9.348
 2053W        W 6104   1.106   2.208   1.492
 2054W        W 6105   5.543   5.706   0.451
 2055W        W 6106   8.909   5.927  11.419
 2056W        W 6107  11.476   6.744   0.856
 2057W        W 6108   6.745  10.423   1.523
 2058W        W 6109   4.374   6.532   0.966
 2059W        W 6110  10.784   5.147   1.392
 2060W        W 6111   0.384  10.338   9.907
 2061W        W 6112   6.958   3.771   2.289
 2062W        W 6113   4.034   7.931   0.980
 2063W        W 6114   5.514   3.299   1.691
 2064W        W 6115  11.255   0.408  11.104
 2065W        W 6116   1.836  10.414   2.778
 2066W        W 6117   0.993   9.940   1.343
 2067W        W 6118  10.459   8.956  11.279
 2068W        W 6119   9.692   8.148   9.563
 2069W        W 6120   1.904   2.518  11.760
 2070W        W 6121   5.956   6.184   8.936
 2071W        W 6122   0.655   1.640   1.886
 2072W        W 6123   2.213  11.333  10.908
 2073W        W 6124   4.194  10.275   2.383
 2074W        W 6125   5.265   9.609   4.104
 2075W        W 6126   2.957   8.395   8.112
 2076W        W 6127   2.833   2.940  10.894
 2077W        W 6128   7.393   2.994  11.748
 2078W        W 6129   5.454   4.657   0.347
 2079W        W 6130   1.823   0.187   3.252
 2080W        W 6131  10.897   5.974   2.425
 2081W        W 6132   6.945   9.918  11.478
 2082W        W 6133   5.760   4.773  10.044
 2083W        W 6134  11.474   5.067   1.830
 2084W        W 6135   8.167   2.881   8.946
 2085W        W 6136   4.130   3.036   2.715
 2086W        W 6137   3.592  11.057   0.379
 2087W        W 6138   2.349   9.039   3.271
 2088W        W 6139   1.683   1.872   0.771
 2089W        W 6140   0.304  10.044  10.643
 2090W        W 6141  10.451   5.469   9.371
 2091W        W 6142  10.822   9.673  10.449
 2092W        W 6143   1.388   1.758  11.276
 2093W        W 6144   9.230   3.898   1.853
 2094W        W 6145   2.622   3.189   1.797
 2095W        W 6146   8.566   1.863   9.539
 2096W        W 6147   8.199  11.101  10.450
 2097W        W 6148   8.227   5.065   0.479
 2098W        W 6149   2.406   5.331   0.026
 2099W        W 6150   3.184   7.965   1.321
 2100W        W 6151   3.662   7.577   9.208
 2101W        W 6152   1.298   9.438   2.418
 2102W        W 6153   7.593  10.398   9.012
 2103W        W 6154   0.077   0.539   9.813
 2104W        W 6155  10.384   2.419   0.301
 2105W        W 6156  11.047   5.984  11.646
 2106W        W 6157   1.959   3.171   9.127
 2107W        W 6158  10.010   6.173   9.893
 2108W        W 6159   6.145  10.844   2.927
 2109W        W 6160  11.451   2.758   2.172
 2110W        W 6161   7.144   7.023  11.530
 2111W        W 6162   0.048   3.342  11.361
 2112W        W 6163   5.724   0.781   2.211
 2113W        W 6164   0.199   3.178  11.861
 2114W        W 6165   3.888   1.048  11.388
 2115W        W 6166   1.897   0.244  10.867
 2116W        W 6167   6.015   4.395  10.319
 2117W        W 6168   9.363   7.589   8.831
 2118W        W 6169   3.307   5.119   9.635
 2119W        W 6170   3.401   3.254   3.145
 2120W        W 6171   3.589   9.322  10.246
 2121W        W 6172  10.177   0.274   2.887
 2122W        W 6173   3.998   8.910   9.425
 2123W        W 6174   5.410   8.084   4.217
 2124W        W 6175   2.192   8.432   2.101
 2125W        W 6176  10.416   6.539   2.434
 2126W        W 6177   8.123   9.966   0.259
 2127W        W 6178  11.323   3.908   1.023
 2128W        W 6179   0.844   7.428   1.749
 2129W        W 6180  10.488   6.766   1.345
 2130W        W 6181   1.921   9.680  11.319
 2131W        W 6182   3.288   2.240  10.285
 2132W        W 6183   8.551   2.680   3.642
 2133W        W 6184   4.611   2.411   9.579
 2134W        W 6185   3.175   9.413  11.922
 2135W        W 6186   2.111   5.613   0.335
 2136W        W 6187  10.017   1.149   2.582
 2137W        W 6188   1.044   3.646   1.475
 2138W        W 6189   9.578   9.791  10.822
 2139W        W 6190   0.785   6.139  10.400
 2140W        W 6191  10.064   0.819   9.079
 2141W        W 6192   9.179   1.282   3.216
 2142W        W 6193   9.255   8.367  11.475
 2143W        W 6194   1.890   1.926   1.275
 2144W        W 6195   4.369   4.396   0.194
 2145W        W 6196   8.644   1.754   0.420
 2146W        W 6197   9.755   6.718   1.850
 2147W        W 6198   1.669   9.416   1.617
 2148W        W 6199   4.497   8.373  10.036
 2149W        W 6200   3.763   9.670   8.847
 2150W        W 6201   3.631   0.264   2.256
 2151W        W 6202   0.454   8.867   9.244
 2152W        W 6203   2.462   3.229   3.205
 2153W        W 6204   5.063   2.986  10.016
 2154W        W 6205   5.216   8.628   3.087
 2155W        W 6206   1.436   1.742  11.779
 2156W        W 6207   9.997  10.509  11.817
 2157W        W 6208   4.564   4.223   3.400
 2158W        W 6209   4.123   2.559   0.773
 2159W        W 6210   8.284   3.691   1.874
 2160W        W 6211   0.552  10.341   1.838
 2161W        W 6212   7.863   4.096   9.340
 2162W        W 6213   0.840   3.630   9.043
 2163W        W 6214   7.060   3.366  11.050
 2164W        W 6215   1.617  10.544  10.386
 2165W        W 6216   6.610   4.557   0.864
 2166W        W 6217   5.253   1.158   9.558
 2167W        W 6218   0.114   7.085   1.248
 2168W        W 6219   2.131  11.334   2.333
 2169W        W 6220   7.086   0.411   9.421
 2170W        W 6221   2.746   5.653  11.776
 2171W        W 6222   5.559   9.456   2.279
 2172W        W 6223   0.819   4.823  10.935
 2173W        W 6224   1.744   8.066  10.068
 2174W        W 6225   2.513   9.027   1.554
 2175W        W 6226   9.631   8.458   1.645
 2176W        W 6227   8.420   2.350   3.216
 2177W        W 6228   7.029   9.722   0.717
 2178W        W 6229   9.590   7.461  11.643
 2179W        W 6230  11.250   6.080   1.486
 2180W        W 6231  10.588   6.129   2.064
 2181W        W 6232   7.679   0.671   9.269
 2182W        W 6233   1.525   9.497  10.998
 2183W        W 6234   9.960   1.729   2.162
 2184W        W 6235   3.222   6.068   1.273
 2185W        W 6236   3.792   9.265  11.252
 2186W        W 6237   5.092   5.565   0.254
 2187W        W 6238   8.645   3.745  10.388
 2188W        W 6239   0.928   9.770  11.418
 2189W        W 6240   9.901   8.891   2.390
 2190W        W 6241  11.060   3.163   0.965
 2191W        W 6242   9.814   7.458   9.032
 2192W        W 6243  10.835   7.545  10.922
 2193W        W 6244   5.468   4.088   9.529
 2194W        W 6245   7.104   7.467  11.274
 2195W        W 6246   1.783   0.514   1.722
 2196W        W 6247   9.257   0.770  10.732
 2197W        W 6248   3.719   3.276   1.012
 2198W        W 6249   8.382   6.327   0.798
 2199W        W 6250   1.792   9.036   9.801
 2200W        W 6251   3.138   0.243   0.016
 2201W        W 6252   1.362   7.101   0.074
 2202W        W 6253   2.844   7.931  10.948
 2203W        W 6254  10.431  11.355   3.026
 2204W        W 6255   0.788   9.902  10.031
 2205W        W 6256   6.467   9.986   1.814
 2206W        W 6257   6.550   0.874   3.366
 2207W        W 6258   7.675   6.343   1.194
 2208W        W 6259   7.908   5.585   0.203
 2209W        W 6260   9.399   3.758  10.814
 2210W        W 6261  10.411   7.001   2.708
 2211W        W 6262   2.282   8.460   0.192
 2212W        W 6263   5.104   7.025   1.866
 2213W        W 6264   8.468  11.326  11.202
 2214W        W 6265   5.527  10.235   3.446
 2215W        W 6266  10.452   2.752  11.889
 2216W        W 6267   6.640   0.920  11.055
 2217W        W 6268  11.019   1.323   2.928
 2218W        W 6269   7.616   3.054   3.256
 2219W        W 6270   8.903   4.233  11.647
 2220W        W 6271   1.586  10.249   0.157
 2221W        W 6272  10.650   3.545   1.827
 2222W        W 6273  11.117   9.948  10.888
 2223W        W 6274   7.533   6.251  11.522
 2224W        W 6275   4.586   9.316   0.740
 2225W        W 6276  10.302  11.126   9.253
 2226W        W 6277   5.429   3.787   3.065
 2227W        W 6278   5.615   4.840   0.817
 2228W        W 6279   0.509   0.750  10.028
 2229W        W 6280   1.482   8.653   0.554
 2230W        W 6281   7.399   5.770  11.518
 2231W        W 6282   0.439   3.559  11.637
 2232W        W 6283  10.257   3.656   3.355
 2233W        W 6284   1.402   3.553   8.969
 2234W        W 6285  10.645   7.470  10.307
 2235W        W 6286  10.812   9.085   9.571
 2236W        W 6287   3.534   4.658   0.148
 2237W        W 6288  10.518  10.572   2.331
 2238W        W 6289   6.617   6.326   9.535
 2239W        W 6290   6.209   0.647   0.464
 2240W        W 6291   6.499   7.513  10.521
 2241W        W 6292   5.167   3.544   9.149
 2242W        W 6293   4.641   2.454   1.423
 2243W        W 6294   4.049   4.776   0.293
 2244W        W 6295  10.928   6.906  11.481
 2245W        W 6296   8.098   5.925   1.563
 2246W        W 6297  10.471   4.090  11.402
 2247W        W 6298   6.745   9.816  10.085
 2248W        W 6299   8.408   3.516   9.973
 2249W        W 6300   3.321   9.306   1.324
 2250W        W 6301   8.232   1.198   9.976
 2251W        W 6302   9.761   6.051  10.344
 2252W        W 6303   2.687   1.192   3.248
 2253W        W 6304   4.249   7.188   0.228
 2254W        W 6305   3.720   1.829  10.975
 2255W        W 6306   1.784   3.725   2.612
 2256W        W 6307   7.939   9.795   0.867
 2257W        W 6308  11.279   7.264  10.975
 2258W        W 6309  10.500   7.856   2.705
 2259W        W 6310   9.398   8.512  10.444
 2260W        W 6311   6.686  10.305   9.975
 2261W        W 6312   7.097   5.155  11.812
 2262W        W 6313   2.385   9.465   2.143
 2263W        W 6314   4.304   8.536   2.913
 2264W        W 6315  10.414   7.991   0.058
 2265W        W 6316   5.544   7.125   2.205
 2266W        W 6317   2.906   7.259  10.286
 2267W        W 6318   3.826   4.574   9.052
 2268W        W 6319   0.363   0.987  10.519
 2269W        W 6320  11.215   3.689   9.981
 2270W        W 6321   6.246   3.174   2.735
 2271W        W 6322   1.196   8.777  11.940
 2272W        W 6323   3.542   8.490   2.251
 2273W        W 6324   0.074  10.099  11.103
 2274W        W 6325   0.368   6.389   9.270
 2275W        W 6326   3.757  10.527   2.455
 2276W        W 6327   1.947   4.312  11.921
 2277W        W 6328   7.950   1.412   2.638
 2278W        W 6329   2.213  10.798  10.081
 2279W        W 6330   1.233  10.946  11.857
 2280W        W 6331   7.556   4.511   0.966
 2281W        W 6332   4.602   0.711   8.945
 2282W        W 6333   7.718   8.477  10.864
 2283W        W 6334   3.406   1.759  10.440
 2284W        W 6335   8.541   8.169  10.437
 2285W        W 6336   3.367   0.294   8.370
 2286W        W 6337   6.213   7.002  11.407
 2287W        W 6338   0.453   8.137   1.712
 2288W        W 6339   4.461   0.418   3.333
 2289W        W 6340   6.307   6.967   2.678
 2290W        W 6341   2.454   6.618   0.182
 2291W        W 6342   2.961   5.126  10.015
 2292W        W 6343   5.943  10.928   0.951
 2293W        W 6344   8.988   9.103   0.052
 2294W        W 6345   0.580  11.465   2.304
 2295W        W 6346   8.723   0.281   3.347
 2296W        W 6347   4.590  10.401  10.843
 2297W        W 6348   4.227   7.625   2.750
 2298W        W 6349   1.681   9.007   8.742
 2299W        W 6350   5.493   0.191   0.894
 2300W        W 6351   5.312   6.869  11.287
 2301W        W 6352  10.284   9.906   2.653
 2302W        W 6353   2.585   8.557  11.503
 2303W        W 6354  10.905   4.341  11.354
 2304W        W 6355   1.421   2.842   0.870
 2305W        W 6356   3.134  11.360   9.689
 2306W        W 6357   7.544   7.528   9.389
 2307W        W 6358   6.633   1.970   0.045
 2308W        W 6359   8.386   5.534   1.693
 2309W        W 6360   2.178  10.001  10.378
 2310W        W 6361   2.789   7.056   0.168
 2311W        W 6362   2.341   7.615   2.775
 2312W        W 6363  11.419   7.707   2.227
 2313W        W 6364   2.738   6.028   9.543
 2314W        W 6365   6.135   0.916   2.511
 2315W        W 6366   0.058   2.699   1.315
 2316W        W 6367   7.332   0.354  11.969
 2317W        W 6368   4.535  10.442   9.821
 2318W        W 6369   9.476   5.559   1.598
 2319W        W 6370   5.615   9.942   9.992
 2320W        W 6371  10.889   0.241   8.868
 2321W        W 6372   6.198   8.465   2.647
 2322W        W 6373   6.965   5.998   1.727
 2323W        W 6374   8.516   9.423   9.058
 2324W        W 6375   6.751   8.978   8.301
 2325W        W 6376   8.366  11.198   1.164
 2326W        W 6377   6.485   3.642   0.718
 2327W        W 6378   5.579   6.912   3.107
 2328W        W 6379   8.044   6.580   2.260
 2329W        W 6380   9.444   0.024   2.415
 2330W        W 6381   1.958   4.606  11.456
 2331W        W 6382   6.513   2.748   1.150
 2332W        W 6383   1.936   7.618   1.453
 2333W        W 6384   4.501   8.200  11.174
 2334W        W 6385  10.613   9.200   0.989
 2335W        W 6386   6.441   4.342  11.415
 2336W        W 6387   3.231   1.820   0.415
 2337W        W 6388   9.016   6.723   3.795
 2338W        W 6389   1.752   8.661   1.356
 2339W        W 6390   7.473   4.680   0.493
 2340W        W 6391   3.010   0.464   1.994
 2341W        W 6392   0.733   6.757   3.499
 2342W        W 6393   8.003   5.097   0.957
 2343W        W 6394   3.698   3.074  10.104
 2344W        W 6395   9.701   6.203   0.668
 2345W        W 6396   7.787   3.764   8.962
 2346W        W 6397   2.985   9.707   9.596
 2347W        W 6398   8.145  10.885   0.226
 2348W        W 6399  10.417   5.747   1.317
 2349W        W 6400   6.106   0.430   0.923
 2350W        W 6401   0.047   2.303   0.983
 2351W        W 6402   5.695   0.894   0.014
 2352W        W 6403   9.799   4.256  11.992
 2353W        W 6404   0.198   6.774   2.933
 2354W        W 6405   0.197  10.981   9.471
 2355W        W 6406   5.466   3.232  10.777
 2356W        W 6407   2.152   6.828  11.273
 2357W        W 6408   4.084   0.495   2.977
 2358W        W 6409   2.759   5.555   2.311
 2359W        W 6410  10.895   6.491   2.264
 2360W        W 6411   8.381   2.407  10.583
 2361W        W 6412   6.285   5.212   0.538
 2362W        W 6413   8.957   7.941   1.274
 2363W        W 6414  10.848   7.250  11.958
 2364W        W 6415   5.083   2.265   8.618
 2365W        W 6416   5.867   6.740  11.985
 2366W        W 6417   3.638   5.595   1.188
 2367W        W 6418   2.795  10.036   2.494
 2368W        W 6419   7.656   9.946   1.333
 2369W        W 6420   8.128   5.794   2.084
 2370W        W 6421   7.623   2.901  10.424
 2371W        W 6422   9.111   4.095   1.357
 2372W        W 6423   6.200   4.125  10.970
 2373W        W 6424   7.783   3.456   2.941
 2374W        W 6425   6.066   9.631  11.312
 2375W        W 6426  10.398   1.160  10.831
 2376W        W 6427   7.720   4.380   3.330
 2377W        W 6428   6.254   6.498   1.255
 2378W        W 6429  10.971   2.802   3.055
 2379W        W 6430   7.248   6.602  11.879
 2380W        W 6431   7.964   2.113   3.430
 2381W        W 6432   0.371   3.180  10.259
 2382W        W 6433   0.092  11.327   2.355
 2383W        W 6434   1.615   1.785   8.532
 2384W        W 6435   4.093   3.968   0.099
 2385W        W 6436   8.520   4.682   1.866
 2386W        W 6437   9.744   2.081   3.096
 2387W        W 6438   0.890   5.544   0.938
 2388W        W 6439   7.935   3.256  10.638
 2389W        W 6440   3.217   7.914   2.734
 2390W        W 6441   1.795   5.521   1.951
 2391W        W 6442   2.922  10.498   2.362
 2392W        W 6443   5.463   3.744   9.988
 2393W        W 6444   0.081   6.983   0.403
 2394W        W 6445   1.580   7.540   8.584
 2395W        W 6446   6.655   2.426   3.177
 2396W        W 6447   8.507   1.291   0.213
 2397W        W 6448   1.856   2.765   1.719
 2398W        W 6449   3.619   1.791   0.843
 2399W        W 6450   4.578  11.295   1.887
 2400W        W 6451   0.941   5.520   1.948
 2401W        W 6452   5.282   7.088   2.677
 2402W        W 6453   7.099  10.848  11.696
 2403W        W 6454  10.735   8.509  11.408
 2404W        W 6455   9.816   7.096  11.071
 2405W        W 6456   4.664   1.706  11.073
 2406W        W 6457   9.993   6.565   0.892
 2407W        W 6458   2.918   5.086   9.067
 2408W        W 6459  10.782   4.633  10.459
 2409W        W 6460   0.306   6.278  10.266
 2410W        W 6461   3.268   6.920   0.304
 2411W        W 6462   6.185   1.448   0.646
 2412W        W 6463   1.832   7.153  11.783
 2413W        W 6464   0.739   9.371   1.661
 2414W        W 6465   4.033   1.788   9.746
 2415W        W 6466   7.397  10.813  10.922
 2416W        W 6467   0.682   0.437   0.364
 2417W        W 6468  11.148   6.922   2.184
 2418W        W 6469   5.242   2.620  11.280
 2419W        W 6470   6.548  10.509  11.774
 2420W        W 6471   9.914   6.908   8.520
 2421W        W 6472   3.347   3.627   0.944
 2422W        W 6473   7.857   1.808   9.562
 2423W        W 6474   1.321   9.936   2.405
 2424W        W 6475   9.869   7.114   9.974
 2425W        W 6476   5.379   1.200   0.315
 2426W        W 6477   6.970  10.838  11.179
 2427W        W 6478   5.457   4.322  10.395
 2428W        W 6479   1.830   7.066  10.776
 2429W        W 6480   2.206   8.073   3.450
 2430W        W 6481   5.389   2.299   0.284
 2431W        W 6482   8.967   0.069   0.490
 2432W        W 6483   8.992   5.557  11.076
 2433W        W 6484   1.877   1.189   2.903
 2434W        W 6485   2.807   5.944   0.953
 2435W        W 6486   4.338   3.906   1.862
 2436W        W 6487  10.538   9.320  10.909
 2437W        W 6488  10.104   1.358   3.059
 2438W        W 6489   8.864  10.789   9.949
 2439W        W 6490  10.922   9.947   9.564
 2440W        W 6491  10.071   4.798   1.855
 2441W        W 6492   0.583   0.438   2.771
 2442W        W 6493   8.153   9.739   2.760
 2443W        W 6494   2.225   6.685  10.054
 2444W        W 6495   0.920  10.834   1.455
 2445W        W 6496   2.713   1.451  10.004
 2446W        W 6497   9.919   9.258   8.634
 2447W        W 6498   6.512   7.846   1.453
 2448W        W 6499   0.274   4.757   3.335
 2449W        W 6500   8.362   9.181  10.610
 2450W        W 6501   3.211   3.144   0.893
 2451W        W 6502  10.922  11.475  10.021
 2452W        W 6503   8.573   5.510   9.555
 2453W        W 6504  10.587   8.985  10.000
 2454W        W 6505   1.283   1.487   0.928
 2455W        W 6506   8.483  10.410   2.339
 2456W        W 6507  11.178   5.622   3.208
 2457W        W 6508   6.001   6.700  10.221
 2458W        W 6509   7.326   3.232   1.082
 2459W        W 6510   9.538   4.644   9.258
 2460W        W 6511   3.589   5.061  11.402
 2461W        W 6512   2.929  10.553   0.510
 2462W        W 6513   6.191   1.046  11.280
 2463W        W 6514   5.675   8.764   3.293
 2464W        W 6515   2.735   0.476   0.699
 2465W        W 6516   8.485   7.647   1.415
 2466W        W 6517   3.167   4.263   1.710
 2467W        W 6518   0.102   0.408   3.007
 2468W        W 6519   8.278   5.517   4.047
 2469W        W 6520   1.652   9.502   2.787
 2470W        W 6521  10.707   1.259   0.129
 2471W        W 6522   6.599   5.056   0.920
 2472W        W 6523   2.197   9.487   9.661
 2473W        W 6524   1.324   6.145   2.989
 2474W        W 6525   1.950   4.610   2.894
 2475W        W 6526   8.970   5.910   9.839
 2476W        W 6527   2.214   6.654   2.640
 2477W        W 6528  11.028   8.723   3.192
 2478W        W 6529   8.500   4.167  11.320
 2479W        W 6530   3.162   4.996   2.998
 2480W        W 6531   3.619   9.839  10.263
 2481W        W 6532   7.788   0.280  11.780
 2482W        W 6533   6.202  10.795   9.454
 2483W        W 6534  10.559   8.196   2.328
 2484W        W 6535   5.207  11.457   2.233
 2485W        W 6536   0.531   5.031   0.243
 2486W        W 6537   3.330   4.220  11.854
 2487W        W 6538   3.881   1.714  10.274
 2488W        W 6539   3.666   0.246   0.855
 2489W        W 6540   3.231   9.760   0.843
 2490W        W 6541   7.471   8.911   9.693
 2491W        W 6542   5.256   8.764   1.169
 2492W        W 6543   2.304  11.423   2.829
 2493W        W 6544   9.038   3.124   2.295
 2494W        W 6545   1.404   0.752   1.388
 2495W        W 6546  10.863   0.019  11.328
 2496W        W 6547   8.030   1.778   3.009
 2497W        W 6548  11.277  11.228   9.268
 2498W        W 6549   9.913   5.230   0.377
 2499W        W 6550   5.520   5.352   0.039
 2500W        W 6551   3.139   9.208   9.632
 2501W        W 6552   3.629   4.939   2.248
 2502W        W 6553   1.787   7.645   9.128
 2503W        W 6554   9.346   8.459   9.887
 2504W        W 6555   8.969   6.380   0.117
 2505W        W 6556  10.601   8.963   1.907
 2506W        W 6557   3.263  11.439   0.472
 2507W        W 6558   1.100   9.362   1.317
 2508W        W 6559   5.275   0.479   3.518
 2509W        W 6560   7.120  10.866   2.617
 2510W        W 6561   2.080   7.233   3.286
 2511W        W 6562   1.723   5.048   3.095
 2512W        W 6563   5.686   5.667  10.054
 2513W        W 6564   0.082   3.596   2.050
 2514W        W 6565   0.900   7.179  11.855
 2515W        W 6566   9.677   7.986  10.933
 2516W        W 6567   1.326   3.626  11.195
 2517W        W 6568   8.278  10.907   2.347
 2518W        W 6569   1.784   4.716  10.566
 2519W        W 6570   9.825   5.678   1.988
 2520W        W 6571   3.470   8.046   9.344
 2521W        W 6572   2.602   4.138   3.115
 2522W        W 6573   6.258   1.141   9.980
 2523W        W 6574   5.498   3.761   2.564
 2524W        W 6575   3.087   8.634  11.423
 2525W        W 6576   9.506   5.736   1.120
 2526W        W 6577   8.337   4.177   9.523
 2527W        W 6578   2.262   0.274  11.969
 2528W        W 6579   6.506   4.021   3.678
 2529W        W 6580   4.719   9.732   0.987
 2530W        W 6581   2.762   6.225   1.408
 2531W        W 6582  10.985   6.576  10.691
 2532W        W 6583   1.705   4.082   0.351
 2533W        W 6584   2.922   0.307  10.711
 2534W        W 6585  10.427   9.464   1.869
 2535W        W 6586   2.746   7.558  11.306
 2536W        W 6587   0.419   3.103   1.376
 2537W        W 6588   4.652  10.395   3.170
 2538W        W 6589   0.047   9.630  10.889
 2539W        W 6590   5.645   6.206   1.807
 2540W        W 6591   6.236   8.080   9.488
 2541W        W 6592   2.637   5.109  11.272
 2542W        W 6593   6.065   2.008  11.381
 2543W        W 6594   1.352   4.180   0.006
 2544W        W 6595   6.576   7.612   1.924
 2545W        W 6596   3.633   9.400   3.811
 2546W        W 6597   0.963   7.181   9.094
 2547W        W 6598   7.537   2.293   2.188
 2548W        W 6599  11.320   6.999   3.162
 2549W        W 6600   7.122  10.523   9.837
 2550W        W 6601   8.913   9.202  10.724
 2551W        W 6602  10.340   2.779   0.862
 2552W        W 6603   8.732   6.835  11.946
 2553W        W 6604  11.078   8.987   1.006
 2554W        W 6605  10.427   0.815   9.847
 2555W        W 6606  10.392   3.677   0.699
 2556W        W 6607   1.870   5.848   9.862
 2557W        W 6608   9.733  10.608   2.838
 2558W        W 6609   9.779   0.929  11.913
 2559W        W 6610  10.874   3.493  10.840
 2560W        W 6611   8.785   5.649   9.106
 2561W        W 6612   5.726   3.619   3.436
 2562W        W 6613   3.769   9.873   8.347
 2563W        W 6614   7.489   9.197   0.232
 2564W        W 6615  10.264   5.295   3.929
 2565W        W 6616   0.187   5.655   3.260
 2566W        W 6617   1.685   5.085  11.503
 2567W        W 6618  10.397   8.106  11.464
 2568W        W 6619   6.811   7.194   3.593
 2569W        W 6620   9.659   5.065  10.371
 2570W        W 6621   0.253   1.920   0.339
 2571W        W 6622   7.065   9.487   0.273
 2572W        W 6623   3.035   4.675   9.632
 2573W        W 6624   6.387   4.677  10.015
 2574W        W 6625   4.756   0.488   9.393
 2575W        W 6626   4.907   4.380  10.342
 2576W        W 6627   7.067   1.792   3.153
 2577W        W 6628   8.932   6.307   9.516
 2578W        W 6629   9.860   9.604   2.605
 2579W        W 6630   4.613   8.360  10.542
 2580W        W 6631   4.861   5.713   1.545
 2581W        W 6632   2.217   2.055   9.610
 2582W        W 6633  11.234   5.293   8.911
 2583W        W 6634   6.486   2.701   2.175
 2584W        W 6635   9.349   8.524   0.753
 2585W        W 6636  10.277   3.097   3.686
 2586W        W 6637   2.905   2.472   9.982
 2587W        W 6638  10.566   3.688   2.940
 2588W        W 6639   3.612   7.566  10.247
 2589W        W 6640   1.752   8.435  10.476
 2590W        W 6641   4.992   3.509   0.932
 2591W        W 6642   0.976   2.635   1.746
 2592W        W 6643   3.825  10.919   9.483
 2593W        W 6644  11.396   2.152   3.467
 2594W        W 6645   8.927   5.104   9.795
 2595W        W 6646  11.441   5.532   3.737
 2596W        W 6647   7.371   6.430   0.769
 2597W        W 6648   1.223   0.932   3.256
 2598W        W 6649   3.139   0.197   2.412
 2599W        W 6650   2.734   6.903   9.911
 2600W        W 6651   8.048   3.820  11.032
 2601W        W 6652   9.711   5.224   2.551
 2602W        W 6653   7.209  10.061   8.976
 2603W        W 6654   2.289   5.729   9.600
 2604W        W 6655   3.591   1.776   9.356
 2605W        W 6656  10.970   4.799   9.360
 2606W        W 6657   8.542  11.257   3.701
 2607W        W 6658   3.910   9.331   1.347
 2608W        W 6659   8.037   9.197  10.187
 2609W        W 6660   0.930   5.340   9.085
 2610W        W 6661   0.375   7.682   1.977
 2611W        W 6662   1.623  11.309   2.406
 2612W        W 6663   9.320  10.383   1.354
 2613W        W 6664   0.863   4.825   9.084
 2614W        W 6665   3.275  10.292   0.856
 2615W        W 6666   7.178   2.216   9.155
 2616W        W 6667   9.509   1.500  10.329
 2617W        W 6668   3.788   5.070   1.236
 2618W        W 6669  10.380   7.906  10.324
 2619W        W 6670  10.981   9.335   2.068
 2620W        W 6671   1.814   0.438   0.669
 2621W        W 6672   2.840   9.925  11.955
 2622W        W 6673   0.513   3.228   2.697
 2623W        W 6674   3.903   5.626   1.618
 2624W        W 6675   9.219  10.620  11.705
 2625W        W 6676   2.192   1.749   0.866
 2626W        W 6677   2.220   6.170   2.468
 2627W        W 6678  10.961   7.513   3.485
 2628W        W 6679   7.255   5.667  10.734
 2629W        W 6680   2.756   9.071   2.953
 2630W        W 6681   1.362   5.462  11.124
 2631W        W 6682   5.636   0.728   8.935
 2632W        W 6683   0.391  10.994   2.121
 2633W        W 6684   9.521  10.597   9.369
 2634W        W 6685  10.336   2.261   1.658
 2635W        W 6686   3.139   1.656   0.907
 2636W        W 6687   4.516   3.676   9.941
 2637W        W 6688   7.915   7.120   1.677
 2638W        W 6689   2.069   4.227   8.865
 2639W        W 6690   0.402   4.775  10.265
 2640W        W 6691  10.739   8.623   0.888
 2641W        W 6692   5.403   2.828   1.912
 2642W        W 6693   3.146   7.497  11.003
 2643W        W 6694   5.583   4.097   1.247
 2644W        W 6695   4.568  11.321  10.585
 2645W        W 6696   0.979   9.769  11.945
 2646W        W 6697   3.938  10.614   1.528
 2647W        W 6698   5.069  10.320  11.013
 2648W        W 6699   4.173  10.608   3.448
 2649W        W 6700   4.726   4.282  10.813
 2650W        W 6701  10.789   1.203   2.054
 2651W        W 6702   2.465   7.595   3.290
 2652W        W 6703  10.431  10.409   9.132
 2653W        W 6704   4.702   8.849   1.419
 2654W        W 6705   4.721   3.924   1.513
 2655W        W 6706   7.722   4.001   2.799
 2656W        W 6707   6.991   3.813   0.745
 2657W        W 6708   4.236   3.274   2.273
 2658W        W 6709   5.752   7.136   0.697
 2659W        W 6710   9.508  10.569   0.497
 2660W        W 6711   9.557   0.984   0.846
 2661W        W 6712  10.321   8.358  10.577
 2662W        W 6713   0.436   6.920  11.236
 2663W        W 6714   8.025   1.731  10.039
 2664W        W 6715   8.416   5.036   8.634
 2665W        W 6716   9.855   7.634   9.887
 2666W        W 6717   1.495  10.455   3.266
 2667W        W 6718   0.849   1.001  10.326
 2668W        W 6719  10.273  11.437   3.532
 2669W        W 6720   6.199   9.921  10.053
 2670W        W 6721   9.107   8.912   1.057
 2671W        W 6722   9.817  10.363   1.238
 2672W        W 6723   6.131   2.953  11.229
 2673W        W 6724   8.896   1.018  11.003
 2674W        W 6725  11.240   0.222   2.234
 2675W        W 6726   2.803   5.089   2.670
 2676W        W 6727   8.511  11.240   2.677
 2677W        W 6728   3.217  11.002   1.796
 2678W        W 6729   1.429   3.302   9.457
 2679W        W 6730   9.516   3.665  11.647
 2680W        W 6731   9.820   2.156  10.504
 2681W        W 6732   7.315   8.934   2.163
 2682W        W 6733   7.584  11.195   8.993
 2683W        W 6734   5.777   7.782   3.276
 2684W        W 6735   7.977   0.497  10.450
 2685W        W 6736   6.973   0.480   2.255
 2686W        W 6737   1.015   9.251  11.875
 2687W        W 6738   4.755   0.974  11.463
 2688W        W 6739   7.437   0.046   2.664
 2689W        W 6740   6.974   6.705   0.861
 2690W        W 6741   6.074   7.430   2.702
 2691W        W 6742   6.620   2.672   0.651
 2692W        W 6743   6.714   3.055   2.972
 2693W        W 6744   7.170   8.911   2.647
 2694W        W 6745   6.585   8.352   1.419
 2695W        W 6746   4.783   2.904   8.698
 2696W        W 6747   8.505   6.069   0.202
 2697W        W 6748   3.833   9.878  10.742
 2698W        W 6749  10.388   1.599   1.412
 2699W        W 6750   2.378   6.052  10.460
 2700W        W 6751   0.263   4.514   8.888
 2701W        W 6752   8.432   7.133  11.656
 2702W        W 6753   1.440  10.039   1.880
 2703W        W 6754   5.629   1.463   9.408
 2704W        W 6755   3.749   0.847   9.474
 2705W        W 6756   9.801  11.272   1.366
 2706W        W 6757  10.548   2.672   9.600
 2707W        W 6758   8.125   0.507   0.854
 2708W        W 6759   8.668   3.194   3.540
 2709W        W 6760   9.930   2.363   1.326
 2710W        W 6761   7.628   9.821  10.279
 2711W        W 6762   3.317   0.690   2.320
 2712W        W 6763   6.154   1.812   1.819
 2713W        W 6764   3.487   7.933   3.174
 2714W        W 6765   5.052   9.141  10.266
 2715W        W 6766   2.424   5.214   9.015
 2716W        W 6767   7.745   5.483   3.970
 2717W        W 6768   4.090   5.733  10.432
 2718W        W 6769   2.233   4.645  10.823
 2719W        W 6770   0.654  10.235   9.480
 2720W        W 6771   8.179   6.792   9.044
 2721W        W 6772   6.105   9.578   9.210
 2722W        W 6773   5.885   3.899  10.266
 2723W        W 6774   8.994   8.171   2.780
 2724W        W 6775   0.189   6.046   2.666
 2725W        W 6776  11.141   8.832  10.500
 2726W        W 6777   5.397   0.353   1.844
 2727W        W 6778   0.412   7.856  10.492
 2728W        W 6779  10.852   9.617   3.663
 2729W        W 6780   0.424   3.896   1.803
 2730W        W 6781  11.354   9.832   9.846
 2731W        W 6782   0.719   5.523   1.470
 2732W        W 6783   0.529   8.489   9.569
 2733W        W 6784   0.628   1.918  10.674
 2734W        W 6785   7.200  10.071  10.076
 2735W        W 6786   4.540   5.807  10.157
 2736W        W 6787   7.853  10.899  10.158
 2737W        W 6788  10.067   6.571   3.308
 2738W        W 6789   7.410   0.823   1.104
 2739W        W 6790   5.599   5.158   9.717
 2740W        W 6791   9.912   3.966   2.590
 2741W        W 6792   5.588   8.442  10.468
 2742W        W 6793   8.458  10.200   1.867
 2743W        W 6794   5.209   4.946  11.128
 2744W        W 6795  10.948   8.202   9.005
 2745W        W 6796   7.476   3.477  11.905
 2746W        W 6797   7.150   5.153  10.853
 2747W        W 6798  11.333  10.274  11.525
 2748W        W 6799   0.976   1.147   1.829
 2749W        W 6800   2.214   6.467  10.918
 2750W        W 6801   5.217   4.126  10.814
 2751W        W 6802   8.886   2.301  10.495
 2752W        W 6803   2.912   7.124   2.234
 2753W        W 6804   7.802   3.089   0.085
 2754W        W 6805   8.091  11.359   0.411
 2755W        W 6806   7.545   1.265   9.394
 2756W        W 6807   4.326   8.279   2.033
 2757W        W 6808   2.645   6.724   1.391
 2758W        W 6809   6.487   3.199   1.425
 2759W        W 6810   2.396   4.725   8.836
 2760W        W 6811   7.088   9.916  11.992
 2761W        W 6812  11.130   5.718   0.725
 2762W        W 6813   5.930  10.082   1.828
 2763W        W 6814   9.591   7.955   2.343
 2764W        W 6815   5.253   4.751  10.199
 2765W        W 6816  10.033   1.345   9.033
 2766W        W 6817   5.585   0.392  11.995
 2767W        W 6818   4.815  10.375   0.322
 2768W        W 6819   7.619   8.144   1.086
 2769W        W 6820   2.238   6.129   0.345
 2770W        W 6821   2.838   9.028   1.950
 2771W        W 6822   2.246   0.426   1.505
 2772W        W 6823   2.191   4.681   2.369
 2773W        W 6824   4.027   2.056  11.895
 2774W        W 6825  10.519   1.263   2.745
 2775W        W 6826  10.204   5.086   9.072
 2776W        W 6827   7.730   4.526   2.831
 2777W        W 6828   2.131   5.059  11.226
 2778W        W 6829   3.950  10.689   0.356
 2779W        W 6830   8.664   7.866   3.192
 2780W        W 6831   2.907   9.624   1.247
 2781W        W 6832   5.604   1.221   2.491
 2782W        W 6833   7.688   4.647   8.441
 2783W        W 6834   2.555   4.214   9.429
 2784W        W 6835   6.996   7.572   0.801
 2785W        W 6836  10.279   4.559   0.943
 2786W        W 6837  10.386   8.673   2.301
 2787W        W 6838   4.627   2.764  11.875
 2788W        W 6839   6.483   2.201  10.225
 2789W        W 6840   8.314   3.173  11.962
 2790W        W 6841   8.241  10.497   8.913
 2791W        W 6842   5.779   9.846  10.918
 2792W        W 6843   8.489   9.128   0.243
 2793W        W 6844   5.313   2.272   1.753
 2794W        W 6845   8.503   4.638   1.365
 2795W        W 6846   5.520   8.939   2.338
 2796W        W 6847   5.894   1.208  10.784
 2797W        W 6848   9.762   4.498  11.213
 2798W        W 6849   6.508   0.593   2.745
 2799W        W 6850   2.911   3.258   1.300
 2800W        W 6851   7.252   9.408   3.362
 2801W        W 6852   3.216   6.274  10.254
 2802W        W 6853   5.064   6.485   1.806
 2803W        W 6854   4.479   7.955   9.341
 2804W        W 6855   5.703   7.482   9.426
 2805W        W 6856   9.456   3.368   9.748
 2806W        W 6857   9.525   1.213  11.304
 2807W        W 6858   3.715   4.605   2.614
 2808W        W 6859   5.512   3.684  10.534
 2809W        W 6860  10.102   7.630  11.777
 2810W        W 6861   0.780   6.931   1.750
 2811W        W 6862   0.430   7.923   0.733
 2812W        W 6863   5.669   0.766  11.490
 2813W        W 6864  10.986   8.222  10.253
 2814W        W 6865   9.924   0.217   2.251
 2815W        W 6866   9.853  11.327   9.039
 2816W        W 6867   8.619   9.292   1.902
 2817W        W 6868   7.160   1.843   8.799
 2818W        W 6869   4.690   9.086   8.958
 2819W        W 6870  10.092   4.680   9.388
 2820W        W 6871   1.341   4.145   1.468
 2821W        W 6872   7.132   0.416   3.443
 2822W        W 6873   2.429   0.985   2.223
 2823W        W 6874   1.415  11.420   3.456
 2824W        W 6875   2.996   7.071   8.100
 2825W        W 6876   8.484   0.201   9.014
 2826W        W 6877   0.648   5.788   9.063
 2827W        W 6878   9.965   9.812   8.792
 2828W        W 6879   6.636   1.274   2.437
 2829W        W 6880   4.536   1.819   9.047
 2830W        W 6881   0.282  11.279  11.620
 2831W        W 6882   9.009   6.847   0.383
 2832W        W 6883   6.251   8.995   0.755
 2833W        W 6884  10.649   7.023   2.220
 2834W        W 6885   8.935  10.007   1.950
 2835W        W 6886   3.703   0.632  11.148
 2836W        W 6887   7.874   1.651  11.935
 2837W        W 6888   3.116   1.124   2.518
 2838W        W 6889  11.373   1.281   8.791
 2839W        W 6890  10.236   6.162   2.730
 2840W        W 6891   0.450   3.552  11.128
 2841W        W 6892   8.588  10.110   3.909
 2842W        W 6893   5.243  10.589   1.862
 2843W        W 6894   6.616  10.944  11.522
 2844W        W 6895  10.909   6.839   2.666
 2845W        W 6896   7.492  10.503  11.813
 2846W        W 6897   5.627   6.121   9.369
 2847W        W 6898   1.779   6.004   2.733
 2848W        W 6899   2.393   7.050   2.316
 2849W        W 6900   0.255   9.926  11.572
 2850W        W 6901   2.255   3.878   2.797
 2851W        W 6902  11.447   8.469   3.302
 2852W        W 6903   7.136   6.402   9.628
 2853W        W 6904  10.457  10.569  11.532
 2854W        W 6905   1.067   7.435   2.227
 2855W        W 6906   3.974   3.709   2.175
 2856W        W 6907   8.961   6.359  10.468
 2857W        W 6908   6.563   8.529  11.661
 2858W        W 6909  10.426   1.886   2.414
 2859W        W 6910   1.274   3.339  10.328
 2860W        W 6911   6.056   7.138   2.249
 2861W        W 6912   4.517   3.931   9.503
 2862W        W 6913   0.850  10.737   1.986
 2863W        W 6914   0.391   8.842   0.453
 2864W        W 6915   3.768   2.184  10.086
 2865W        W 6916   7.099   0.412   9.963
 2866W        W 6917  11.069   3.809   1.948
 2867W        W 6918   7.125   0.328  11.009
 2868W        W 6919   7.536   6.665   3.834
 2869W        W 6920   9.627   7.814   0.035
 2870W        W 6921   5.014   8.179  11.179
 2871W        W 6922   4.890   7.990   2.555
 2872W        W 6923   1.623   5.809   8.467
 2873W        W 6924   6.118   9.661   2.045
 2874W        W 6925   1.745   4.158   1.805
 2875W        W 6926   1.065   7.362   8.606
 2876W        W 6927   5.342  10.312   0.406
 2877W        W 6928   0.507   9.944   0.029
 2878W        W 6929   8.352   8.657  11.953
 2879W        W 6930   8.681   5.609   3.118
 2880W        W 6931   5.586   4.715  11.437
 2881W        W 6932   0.762   1.880   0.453
 2882W        W 6933  10.125   4.274   0.407
 2883W        W 6934   6.631   1.924   0.553
 2884W        W 6935   5.313   7.395  11.372
 2885W        W 6936   5.450   9.130   9.451
 2886W        W 6937   5.656   0.782   3.271
 2887W        W 6938  10.347   4.230   2.541
 2888W        W 6939   2.078   8.791  10.838
 2889W        W 6940   6.074   7.095   1.346
 2890W        W 6941   4.781   3.851   3.678
 2891W        W 6942   5.941   2.366   2.718
 2892W        W 6943   9.333   3.774   9.045
 2893W        W 6944   1.709   4.660   1.993
 2894W        W 6945   4.763   2.265   9.104
 2895W        W 6946   2.194   6.635   1.150
 2896W        W 6947   0.026   7.528  10.580
 2897W        W 6948   3.936   9.285   2.875
 2898W        W 6949   2.000   4.165   2.398
 2899W        W 6950   5.156   2.347   4.025
 2900W        W 6951  10.068   2.207  10.046
 2901W        W 6952   3.406  10.262   2.195
 2902W        W 6953   3.764  10.799   3.158
 2903W        W 6954   7.056   9.142  10.550
 2904W        W 6955   7.988   2.806   2.274
 2905W        W 6956   7.084   3.802  10.794
 2906W        W 6957  10.851   2.627   0.235
 2907W        W 6958   7.175   9.583  10.323
 2908W        W 6959   2.315   9.961   2.291
 2909W        W 6960   4.085   6.492   2.028
 2910W        W 6961   7.594   4.717   1.865
 2911W        W 6962   0.391   1.372   8.978
 2912W        W 6963   0.903   3.761   2.009
 2913W        W 6964  11.332   6.254   2.348
 2914W        W 6965   6.764   8.926   2.263
 2915W        W 6966   2.104   0.726  10.849
 2916W        W 6967   2.892   4.681   8.688
 2917W        W 6968  11.025  10.441   9.802
 2918W        W 6969   7.565   3.603   9.935
 2919W        W 6970   0.720   3.088  11.881
 2920W        W 6971   7.724  10.335   3.326
 2921W        W 6972   4.204   3.399   1.761
 2922W        W 6973  10.877   9.482   9.964
 2923W        W 6974   9.550   8.360   3.157
 2924W        W 6975  11.072   4.544   8.876
 2925W        W 6976   8.342   9.504   1.010
 2926W        W 6977   0.964   0.144   9.696
 2927W        W 6978   9.047   4.759   0.282
 2928W        W 6979   6.726   3.813   1.434
 2929W        W 6980   5.174   5.985   1.889
 2930W        W 6981   0.778   3.045   3.069
 2931W        W 6982  10.422   5.722   8.422
 2932W        W 6983   1.000   7.949   0.086
 2933W        W 6984   7.563   3.647  10.956
 2934W        W 6985  11.251   0.263  10.545
 2935W        W 6986   1.898   8.414   2.674
 2936W        W 6987   1.818   3.686   1.577
 2937W        W 6988   8.414   4.771   0.013
 2938W        W 6989   4.752  11.206  11.143
 2939W        W 6990   0.920   3.113   1.520
 2940W        W 6991   7.279  10.023   2.730
 2941W        W 6992   6.919   4.143  11.509
 2942W        W 6993   3.306   2.736   9.618
 2943W        W 6994   1.124   1.925  10.849
 2944W        W 6995   0.645   9.295   9.472
 2945W        W 6996   1.816   8.308   0.348
 2946W        W 6997   7.403   4.848   1.407
 2947W        W 6998   5.413   7.041  11.755
 2948W        W 6999   4.680   3.461   1.331
 2949W        W 7000   0.777   5.096  10.438
 2950W        W 7001   9.930   3.217   3.322
 2951W        W 7002   1.772   8.155   9.332
 2952W        W 7003   3.027   4.784   3.428
 2953W        W 7004   9.697   1.976   0.705
 2954W        W 7005   0.740  10.113   0.887
 2955W        W 7006   2.745   8.363   9.631
 2956W        W 7007   3.770   7.967   9.951
 2957W        W 7008   8.711   3.027   2.717
 2958W        W 7009  10.579   8.196   9.953
 2959W        W 7010   0.465   1.798   3.273
 2960W        W 7011   1.722   9.958   9.806
 2961W        W 7012   2.777   4.756   3.903
 2962W        W 7013   9.945   9.910   9.874
 2963W        W 7014   0.011   0.198   1.347
 2964W        W 7015   6.632   4.542   1.943
 2965W        W 7016   1.711   0.002  11.553
 2966W        W 7017   5.018   4.335   9.474
 2967W        W 7018   5.201   8.954   3.542
 2968W        W 7019   8.187   3.079   3.652
 2969W        W 7020   7.678   6.592   8.966
 2970W        W 7021   7.173   7.562   2.768
 2971W        W 7022  10.226  10.434   2.777
 2972W        W 7023   7.178   4.222  11.044
 2973W        W 7024   9.768   3.672   3.517
 2974W        W 7025   2.767   0.738   1.653
 2975W        W 7026   8.597   9.038   0.802
 2976W        W 7027   5.020   3.151   1.827
 2977W        W 7028   3.110   0.748   1.265
 2978W        W 7029   4.820  10.692  11.226
 2979W        W 7030   2.259   5.204   4.214
 2980W        W 7031   7.123   0.496   0.803
 2981W        W 7032   2.803   6.114  11.496
 2982W        W 7033   2.129   0.748   9.969
 2983W        W 7034   1.825   9.988   8.884
 2984W        W 7035  10.709   8.633  10.359
 2985W        W 7036   0.517   5.025   8.364
 2986W        W 7037   4.158   2.670   9.518
 2987W        W 7038   7.155   6.365   4.007
 2988W        W 7039   7.473   9.059   1.656
 2989W        W 7040   3.213   6.582  10.736
 2990W        W 7041   0.989   4.419  11.207
 2991W        W 7042   2.264   3.768  10.255
 2992W        W 7043  11.298  10.958   3.336
 2993W        W 7044   9.847  10.942   3.410
 2994W        W 7045   5.961   0.933  10.335
 2995W        W 7046   1.263   7.666   0.860
 2996W        W 7047   6.908   7.025   1.572
 2997W        W 7048  10.782   6.053  10.324
 2998W        W 7049   8.654   0.455   9.441
 2999W        W 7050   4.729   4.773  10.995
 3000W        W 7051   9.634   3.615   1.692
 3001W        W 7052   9.394   6.447   2.098
 3002W        W 7053   5.775   9.928   2.403
 3003W        W 7054   8.481   7.830  10.984
 3004W        W 7055   4.670   3.641   0.540
 3005W        W 7056   3.708   3.521  10.419
 3006W        W 7057   9.131   2.728  10.326
 3007W        W 7058   4.269   7.765   0.408
 3008W        W 7059   0.679   1.585   9.499
 3009W        W 7060  10.468   0.406   0.530
 3010W        W 7061   0.269   5.864   9.432
 3011W        W 7062   1.167   8.249   8.923
 3012W        W 7063   9.086   1.718  11.454
 3013W        W 7064   8.918   9.096   1.510
 3014W        W 7065   4.596   0.238   0.870
 3015W        W 7066   1.348   3.691   0.196
 3016W        W 7067   9.263   5.627   3.268
 3017W        W 7068   8.410   8.993   9.876
 3018W        W 7069   4.013   7.447   0.742
 3019W        W 7070   9.041   2.241   1.148
 3020W        W 7071   8.386   4.379   2.248
 3021W        W 7072   6.024  10.490   0.655
 3022W        W 7073  11.289   1.813   1.657
 3023W        W 7074   7.126   4.835   2.122
 3024W        W 7075   2.098   4.210   3.163
 3025W        W 7076   3.272  10.832  10.367
 3026W        W 7077   0.853   5.339  11.354
 3027W        W 7078   5.540   2.797  10.007
 3028W        W 7079   1.804   1.700   3.064
 3029W        W 7080   4.476   7.592   0.907
 3030W        W 7081   1.769   6.037   9.394
 3031W        W 7082   4.195   7.584  11.867
 3032W        W 7083  11.110   9.199   3.388
 3033W        W 7084   4.012   6.665  10.375
 3034W        W 7085   6.169   7.918   2.669
 3035W        W 7086   5.421   1.888   8.549
 3036W        W 7087   0.582   3.414   1.782
 3037W        W 7088   3.549   1.236   3.327
 3038W        W 7089  11.031   1.060   2.474
 3039W        W 7090   4.655   8.076   0.210
 3040W        W 7091   7.450   4.013   9.664
 3041W        W 7092   7.061   6.734   3.622
 3042W        W 7093   8.699   6.467   3.177
 3043W        W 7094   5.973   5.952   0.378
 3044W        W 7095  10.484  10.798   1.864
 3045W        W 7096   4.792   1.978  11.514
 3046W        W 7097   1.463  10.351   9.070
 3047W        W 7098   8.040   3.278   1.603
 3048W        W 7099   6.327  10.727   2.304
 3049W        W 7100   5.509   8.379   9.083
 3050W        W 7101   3.278   9.596   4.119
 3051W        W 7102   2.111   5.568   3.896
 3052W        W 7103   3.985  11.031   1.207
 3053W        W 7104   7.024   3.228   0.070
 3054W        W 7105   7.878   0.817  10.040
 3055W        W 7106  10.121  10.317   8.633
 3056W        W 7107  11.483   4.128   2.024
 3057W        W 7108  10.064   3.478   2.886
 3058W        W 7109   6.737   7.339  11.929
 3059W        W 7110   2.622   0.869   9.031
 3060W        W 7111   2.589   9.587   2.620
 3061W        W 7112   0.858   6.814   2.732
 3062W        W 7113   1.406   1.240  11.944
 3063W        W 7114  11.367   1.316  11.534
 3064W        W 7115   2.052   4.852   9.839
 3065W        W 7116   3.246   5.068   8.669
 3066W        W 7117   5.100   3.913  10.359
 3067W        W 7118   1.206   1.225   1.379
 3068W        W 7119   9.962   2.266   9.059
 3069W        W 7120   7.450   4.974   9.673
 3070W        W 7121   8.943   9.143   3.014
 3071W        W 7122   2.217   9.979   9.860
 3072W        W 7123   4.609  11.094   2.371
 3073W        W 7124   6.668   7.808   0.102
 3074W        W 7125   1.716   8.681  11.404
 3075W        W 7126   8.542  10.733   1.943
 3076W        W 7127   9.945   1.484   1.659
 3077W        W 7128   7.860   3.690   2.412
 3078W        W 7129  10.828   3.100   0.029
 3079W        W 7130   1.594   7.402   3.453
 3080W        W 7131   7.560   6.567   2.442
 3081W        W 7132   9.594   6.591   3.091
 3082W        W 7133   8.424   0.634   1.696
 3083W        W 7134   8.343   0.143  10.381
 3084W        W 7135  11.464   8.044   8.750
 3085W        W 7136   3.041   7.001   2.937
 3086W        W 7137   9.875   0.897   2.993
 3087W        W 7138   2.116   1.280  10.006
 3088W        W 7139   1.691   4.575   2.477
 3089W        W 7140   3.731  10.047   9.793
 3090W        W 7141   0.720  10.562   0.592
 3091W        W 7142   5.168  11.053   3.482
 3092W        W 7143   0.049   8.543   1.776
 3093W        W 7144   8.008   1.950   1.229
 3094W        W 7145   1.190   3.210   0.077
 3095W        W 7146   7.562  11.484   0.657
 3096W        W 7147  11.199   2.238   1.361
 3097W        W 7148   6.774   8.625  10.700
 3098W        W 7149   3.803   3.711   0.737
 3099W        W 7150   8.706   1.431   9.290
 3100W        W 7151  10.942   5.055   3.224
 3101W        W 7152   9.377   8.407  10.973
 3102W        W 7153   4.748   1.675   2.884
 3103W        W 7154   6.285   7.244   3.578
 3104W        W 7155   5.991   6.217   2.212
 3105W        W 7156   0.331   8.799   8.743
 3106W        W 7157   2.948  10.922  10.779
 3107W        W 7158   6.855   2.348   0.325
 3108W        W 7159  11.206   0.782   3.672
 3109W        W 7160   4.067   7.071  11.708
 3110W        W 7161   9.760   1.438  11.978
 3111W        W 7162   1.477   7.791   3.089
 3112W        W 7163   3.857   2.753  10.853
 3113W        W 7164   3.310   4.722   9.053
 3114W        W 7165   2.258  10.438   3.067
 3115W        W 7166   5.526   3.600   3.908
 3116W        W 7167   9.480   3.344   9.245
 3117W        W 7168   6.216  10.714   8.941
 3118W        W 7169   1.329   3.633   2.326
 3119W        W 7170   1.002   3.144   9.165
 3120W        W 7171   6.269   8.774  10.833
 3121W        W 7172   5.498   5.559  11.405
 3122W        W 7173   1.814   2.820   2.261
 3123W        W 7174   1.024   8.461   0.728
 3124W        W 7175   3.823   9.483   2.433
 3125W        W 7176   5.203   2.558  10.290
 3126W        W 7177  10.636   4.412   0.257
 3127W        W 7178   4.022   4.935   8.197
 3128W        W 7179   2.786   4.615   9.188
 3129W        W 7180   1.656   5.137  10.302
 3130W        W 7181   8.902   9.619  11.912
 3131W        W 7182   9.987   0.760  10.557
 3132W        W 7183   2.929  10.905   2.650
 3133W        W 7184   8.900  10.992  10.864
 3134W        W 7185   7.103   8.433   2.864
 3135W        W 7186   4.358   8.029   1.389
 3136W        W 7187   4.204   9.776   2.276
 3137W        W 7188   0.958   9.358   9.911
 3138W        W 7189   1.225   8.780   8.794
 3139W        W 7190   9.850   3.625   9.938
 3140W        W 7191   4.208   3.588   9.231
 3141W        W 7192   9.365   9.994  10.379
 3142W        W 7193   8.874   9.456   8.677
 3143W        W 7194   7.660   8.119   2.523
 3144W        W 7195   1.353   8.384   1.485
 3145W        W 7196   8.647   2.627  11.028
 3146W        W 7197  11.322   9.348   1.286
 3147W        W 7198  10.700   6.083   0.957
 3148W        W 7199   1.901   7.910  10.540
 3149W        W 7200   1.919   0.842   2.138
 3150W        W 7201  10.385   9.393   2.744
 3151W        W 7202   2.766  11.294   9.330
 3152W        W 7203   4.184   0.927  11.833
 3153W        W 7204  10.241   8.601   0.985
 3154W        W 7205   6.633   7.663   2.796
 3155W        W 7206   3.593   0.486   1.323
 3156W        W 7207  10.749   4.825  11.230
 3157W        W 7208   3.188   6.409   0.299
 3158W        W 7209   6.716  11.425  11.345
 3159W        W 7210   1.137   1.612   8.423
 3160W        W 7211   3.824   8.804  11.450
 3161W        W 7212  10.447   4.714   1.410
 3162W        W 7213   5.391   6.524  11.806
 3163W        W 7214   5.174   0.758  11.258
 3164W        W 7215   1.311  11.046   0.369
 3165W        W 7216   3.196   3.874   1.364
 3166W        W 7217  11.275   5.769   8.704
 3167W        W 7218  10.428   3.042   9.059
 3168W        W 7219   1.371   0.095   2.975
 3169W        W 7220   6.259   7.654   3.150
 3170W        W 7221   7.880   4.154   0.712
 3171W        W 7222   6.729   3.680   3.283
 3172W        W 7223   3.854   6.588  11.786
 3173W        W 7224  10.682   5.661  11.437
 3174W        W 7225   4.758   9.913   9.712
 3175W        W 7226   4.056   0.928   1.209
 3176W        W 7227   9.596   4.284   3.324
 3177W        W 7228   8.506   8.691  10.554
 3178W        W 7229   0.075   8.976  10.245
 3179W        W 7230   0.747   6.374   0.868
 3180W        W 7231   4.256   9.001   3.151
 3181W        W 7232   6.270   0.145   0.509
 3182W        W 7233   5.867   3.319   3.058
 3183W        W 7234   2.229   5.293   2.990
 3184W        W 7235   6.450   5.879  10.536
 3185W        W 7236  10.368   7.186   9.986
 3186W        W 7237   9.819   5.747   0.509
 3187W        W 7238   3.531   8.469   0.638
 3188W        W 7239   8.369  10.027   0.704
 3189W        W 7240   9.187   6.489   3.373
 3190W        W 7241   9.162   7.976   8.531
 3191W        W 7242   1.974   2.714   0.212
 3192W        W 7243   1.669  10.016  10.321
 3193W        W 7244   4.481  10.939   1.259
 3194W        W 7245   6.225   5.730  10.084
 3195W        W 7246  10.553   3.678  11.798
 3196W        W 7247  10.011   1.817   8.768
 3197W        W 7248   9.951   6.155   3.595
 3198W        W 7249   6.963   1.306  10.977
 3199W        W 7250   0.328   2.918   3.314
 3200W        W 7251   8.488   5.843   0.679
 3201W        W 7252   8.870   5.456   1.462
 3202W        W 7253   3.321   2.725  10.161
 3203W        W 7254   4.650   6.688   9.139
 3204W        W 7255   8.484   7.431   9.787
 3205W        W 7256   3.692  10.177   8.964
 3206W        W 7257  10.702   9.515   9.291
 3207W        W 7258  11.333   8.377   0.242
 3208W        W 7259  10.896   7.004  10.322
 3209W        W 7260   3.580   1.375  11.168
 3210W        W 7261   2.105   4.433   3.623
 3211W        W 7262   3.140  10.369  11.137
 3212W        W 7263  11.235   9.384   0.200
 3213W        W 7264   8.062   7.952   0.331
 3214W        W 7265   5.789   0.550  10.645
 3215W        W 7266   0.431   8.160   1.179
 3216W        W 7267   1.280   4.341   1.927
 3217W        W 7268   2.087   5.112   8.070
 3218W        W 7269   4.012   7.926   2.368
 3219W        W 7270   7.027  10.825   1.699
 3220W        W 7271   9.422   9.868   1.782
 3221W        W 7272   3.378   4.275   2.446
 3222W        W 7273   1.647   0.544   9.094
 3223W        W 7274   0.344   3.522   8.872
 3224W        W 7275   8.078   7.662   9.993
 3225W        W 7276   9.161   1.455  11.024
 3226W        W 7277   0.794   1.266   1.037
 3227W        W 7278   3.799  11.042   2.558
 3228W        W 7279   7.369   2.437  11.338
 3229W        W 7280   4.090   4.704   2.298
 3230W        W 7281   2.822  10.311   3.410
 3231W        W 7282  10.919   9.619   1.133
 3232W        W 7283   3.089  10.443  10.638
 3233W        W 7284   5.824   1.708   2.437
 3234W        W 7285   2.843  10.082   1.018
 3235W        W 7286   9.763   4.778   3.222
 3236W        W 7287  10.846  11.310   2.708
 3237W        W 7288   6.719   1.257  11.455
 3238W        W 7289  11.011  10.359   2.326
 3239W        W 7290   0.989  11.274  10.447
 3240W        W 7291   9.305  11.317   1.378
 3241W        W 7292   0.927   6.982  11.379
 3242W        W 7293   9.344   1.940  10.535
 3243W        W 7294   5.459   1.419  10.973
 3244W        W 7295   1.729   2.061   2.710
 3245W        W 7296   7.791  10.114   2.812
 3246W        W 7297   3.239   7.310   9.065
 3247W        W 7298   4.848   8.229   2.106
 3248W        W 7299   2.805  10.590   1.026
 3249W        W 7300   8.649   2.107   1.814
 3250W        W 7301   5.698   5.111  11.071
 3251W        W 7302   0.650   3.294   0.968
 3252W        W 7303   6.579   1.246   1.936
 3253W        W 7304   0.831   4.009   9.435
 3254W        W 7305   6.982   9.996  10.545
 3255W        W 7306  10.882   8.575   2.218
 3256W        W 7307   3.614   7.546  10.768
 3257W        W 7308   0.285   2.635   0.543
 3258W        W 7309   9.005   1.882   1.494
 3259W        W 7310   0.462   9.481   9.912
 3260W        W 7311   0.713   5.784  11.582
 3261W        W 7312   1.450   1.953   0.260
 3262W        W 7313   9.501   2.861  11.989
 3263W        W 7314   4.895   9.564   1.435
 3264W        W 7315   2.498   7.567  10.228
 3265W        W 7316   6.552   6.715  10.768
 3266W        W 7317   0.393   4.762   9.333
 3267W        W 7318   8.926  10.016  10.644
 3268W        W 7319   2.885   7.202   1.419
 3269W        W 7320   7.085   3.605   1.771
 3270W        W 7321   1.006   0.950  11.787
 3271W        W 7322   9.953   1.257  11.566
 3272W        W 7323   1.710   5.694  10.833
 3273W        W 7324   5.419  11.310  10.347
 3274W        W 7325  10.546   4.606   9.100
 3275W        W 7326   0.309   7.153  10.808
 3276W        W 7327   5.433  10.396   9.777
 3277W        W 7328   1.409   0.803  11.516
 3278W        W 7329   9.846   9.363  10.129
 3279W        W 7330   2.690   2.640   9.143
 3280W        W 7331   4.979   5.359  11.321
 3281W        W 7332   1.718   4.781  11.918
 3282W        W 7333   8.890   2.917   0.792
 3283W        W 7334   4.514   7.858   2.224
 3284W        W 7335  11.433   0.762   1.385
 3285W        W 7336   6.698   7.979  10.464
 3286W        W 7337  11.270   1.573   9.786
 3287W        W 7338   4.861   9.349   9.849
 3288W        W 7339   1.810   8.962   2.771
 3289W        W 7340   8.207   8.507   1.397
 3290W        W 7341   4.141   4.702   1.296
 3291W        W 7342   0.822   9.761   9.539
 3292W        W 7343   0.932   6.425   2.407
 3293W        W 7344  10.361   8.361   2.782
 3294W        W 7345  10.926   5.703   1.209
 3295W        W 7346  10.088   5.237   2.188
 3296W        W 7347   5.779   1.204   2.983
 3297W        W 7348   9.578   8.872  11.818
 3298W        W 7349   1.209   6.711   9.224
 3299W        W 7350   5.201   5.087   0.991
 3300W        W 7351   1.256   2.476   3.355
 3301W        W 7352   5.294   2.550   2.799
 3302W        W 7353   2.313   4.777   0.665
 3303W        W 7354   1.967  10.878  10.772
 3304W        W 7355   2.216  11.256   0.746
 3305W        W 7356   0.301   8.994   9.730
 3306W        W 7357   1.220  11.277   9.994
 3307W        W 7358  11.214   6.221   8.950
 3308W        W 7359   3.640   1.773   3.183
 3309W        W 7360   3.229   8.491   9.411
 3310W        W 7361   0.059   2.938   9.531
 3311W        W 7362   6.431   3.328   0.325
 3312W        W 7363   5.056  10.828   2.465
 3313W        W 7364   2.809   0.241   9.581
 3314W        W 7365   0.818   5.811   0.080
 3315W        W 7366   2.012   7.996  11.047
 3316W        W 7367   8.834   0.746   9.825
 3317W        W 7368   2.354   1.405   2.917
 3318W        W 7369   9.494   7.115   0.342
 3319W        W 7370   7.349   8.894   8.387
 3320W        W 7371   0.080  10.540   1.909
 3321W        W 7372   1.786  10.301  10.785
 3322W        W 7373   0.786   7.296  10.987
 3323W        W 7374   8.149   4.267   2.676
 3324W        W 7375   0.439   2.713   2.359
 3325W        W 7376   8.257   6.686  11.883
 3326W        W 7377   6.927   2.721   1.772
 3327W        W 7378   5.728   5.609  10.940
 3328W        W 7379  11.257   0.714   8.841
 3329W        W 7380   4.770   7.961   9.774
 3330W        W 7381   4.373  10.857  11.100
 3331W        W 7382   3.237   0.945   9.591
 3332W        W 7383   2.434   2.812   0.047
 3333W        W 7384  10.383   3.159   9.552
 3334W        W 7385   3.408   4.656  11.630
 3335W        W 7386   3.937   8.827  10.953
 3336W        W 7387   2.685   7.241   2.675
 3337W        W 7388   3.540   5.505   8.722
 3338W        W 7389   9.470   8.035   9.076
 3339W        W 7390   8.038   0.840  10.862
 3340W        W 7391   8.240  10.511  10.330
 3341W        W 7392   5.124  11.468   8.993
 3342W        W 7393   9.110  10.902  10.385
 3343W        W 7394  10.820   7.964  11.218
 3344W        W 7395   0.724   2.585   9.810
 3345W        W 7396   1.876  10.521   1.303
 3346W        W 7397  11.011   4.399   3.656
 3347W        W 7398  11.373   3.101   3.147
 3348W        W 7399   2.445   7.140   8.966
 3349W        W 7400   6.499   4.320   9.582
 3350W        W 7401   1.898   3.824   0.857
 3351W        W 7402   9.534   4.584   1.395
 3352W        W 7403   7.948   9.802  11.781
 3353W        W 7404   7.533   7.716   0.450
 3354W        W 7405   5.025   6.491   0.263
 3355W        W 7406   6.417   4.136   8.630
 3356W        W 7407  10.242   9.079  10.363
 3357W        W 7408  11.287   6.547   0.302
 3358W        W 7409   6.512  10.935  10.331
 3359W        W 7410   5.067  11.337  10.756
 3360W        W 7411   4.733   4.140   9.909
 3361W        W 7412   4.657   9.222   1.793
 3362W        W 7413   8.859   6.577   0.807
 3363W        W 7414   2.489   3.225  11.729
 3364W        W 7415   8.766   8.006   9.481
 3365W        W 7416   6.476   2.771   8.946
 3366W        W 7417   3.729   5.686  10.820
 3367W        W 7418   3.195   1.417   9.793
 3368W        W 7419  10.122   7.919   2.377
 3369W        W 7420   9.876   7.015   3.106
 3370W        W 7421   7.422   5.732   1.787
 3371W        W 7422   2.679  10.440  10.934
 3372W        W 7423   2.183  10.482  11.062
 3373W        W 7424   5.179  10.213  11.933
 3374W        W 7425   8.992   6.596   2.428
 3375W        W 7426   1.958   9.016   3.584
 3376W        W 7427   9.541   2.646  11.526
 3377W        W 7428  11.434  10.245  10.126
 3378W        W 7429   3.136   1.820   2.971
 3379W        W 7430   4.913   5.686  10.526
 3380W        W 7431   4.671   3.431   9.486
 3381W        W 7432   8.045   1.068  11.337
 3382W        W 7433   0.815   9.285  11.390
 3383W        W 7434   7.377   3.613   2.685
 3384W        W 7435   1.688   6.691   8.934
 3385W        W 7436   3.781   9.781  11.255
 3386W        W 7437   5.263   0.672   9.376
 3387W        W 7438   5.718   5.119   9.217
 3388W        W 7439   7.518   9.421   9.502
 3389W        W 7440   3.020  10.381   1.875
 3390W        W 7441   9.789   0.416  10.871
 3391W        W 7442   3.702   3.332   2.720
 3392W        W 7443   8.214   5.879   9.439
 3393W        W 7444   6.939   6.420  10.959
 3394W        W 7445   2.565   8.807  11.944
 3395W        W 7446   3.735   5.043   8.827
 3396W        W 7447   2.262   1.375   0.501
 3397W        W 7448  11.075   0.826   1.792
 3398W        W 7449   7.952   0.791   0.468
 3399W        W 7450   9.444   5.512   0.260
 3400W        W 7451   5.739   7.659  11.488
 3401W        W 7452   6.828   9.488   8.045
 3402W        W 7453   4.488   8.120   0.742
 3403W        W 7454   8.862   6.194   2.737
 3404W        W 7455   0.432   4.540   0.157
 3405W        W 7456   6.246  10.255   9.216
 3406W        W 7457   8.434   7.062   2.563
 3407W        W 7458   2.669   9.220  10.405
 3408W        W 7459   1.922   7.081  10.251
 3409W        W 7460   3.597   3.796   2.515
 3410W        W 7461   3.375   5.439   0.462
 3411W        W 7462   6.073   5.420   1.919
 3412W        W 7463   3.891   0.873   1.681
 3413W        W 7464   7.424   2.171   3.467
 3414W        W 7465   5.748  10.922  10.968
 3415W        W 7466  11.333   8.108   9.824
 3416W        W 7467   0.711   6.005   2.616
 3417W        W 7468   5.791   8.501   2.317
 3418W        W 7469   0.747   3.362   2.267
 3419W        W 7470   7.468   3.339  11.380
 3420W        W 7471   6.037  11.471   3.136
 3421W        W 7472   5.223   1.216  10.580
 3422W        W 7473   7.433   8.532   0.281
 3423W        W 7474   1.772  10.052   0.984
 3424W        W 7475   3.762   7.044   3.252
 3425W        W 7476  11.120   8.477   1.187
 3426W        W 7477   4.615   6.206  11.750
 3427W        W 7478   1.657   4.299   0.821
 3428W        W 7479   8.017   4.624   1.179
 3429W        W 7480   6.785   4.035   2.713
 3430W        W 7481   9.055   3.231   1.411
 3431W        W 7482  10.663   7.989  10.728
 3432W        W 7483   0.110   1.060   9.900
 3433W        W 7484   9.255  10.310   9.003
 3434W        W 7485   7.955   8.216   9.288
 3435W        W 7486   8.032   0.936   1.814
 3436W        W 7487   6.154   6.742   3.114
 3437W        W 7488   4.524   1.267   0.868
 3438W        W 7489  11.449  10.740   9.984
 3439W        W 7490  11.298   6.502   2.803
 3440W        W 7491   4.535   1.601   8.552
 3441W        W 7492   2.290   3.857   9.162
 3442W        W 7493   8.945   9.897  11.482
 3443W        W 7494   1.910   5.933   0.689
 3444W        W 7495   2.919   9.059   0.328
 3445W        W 7496   2.322   1.041   9.565
 3446W        W 7497   5.052   0.790   1.182
 3447W        W 7498   9.320   1.303   1.191
 3448W        W 7499   8.349  10.889  10.906
 3449W        W 7500   0.308   5.733   0.079
 3450W        W 7501   6.688   4.220  10.931
 3451W        W 7502   2.345  11.376   1.418
 3452W        W 7503   3.716   1.408  10.663
 3453W        W 7504   3.997   1.450   3.443
 3454W        W 7505   8.903   9.952  10.110
 3455W        W 7506   7.163   2.349   8.654
 3456W        W 7507   0.978   2.642   9.364
 3457W        W 7508   9.382   4.382   8.513
 3458W        W 7509   3.786   1.277   9.133
 3459W        W 7510   4.635   3.359   3.665
 3460W        W 7511   8.454  10.321   9.451
 3461W        W 7512   0.737   7.103   3.139
 3462W        W 7513   4.487   0.133  11.016
 3463W        W 7514   4.374   6.622   2.453
 3464W        W 7515   5.639   8.014   1.210
 3465W        W 7516   4.951   3.937   3.189
 3466W        W 7517   6.205  10.185   2.224
 3467W        W 7518   5.612   3.076   1.236
 3468W        W 7519   0.403   2.190   2.473
 3469W        W 7520  10.893   2.142   0.392
 3470W        W 7521   6.995   6.507   1.654
 3471W        W 7522   4.613   0.936  10.605
 3472W        W 7523   5.202   2.083  10.035
 3473W        W 7524   8.094   7.869  11.319
 3474W        W 7525   6.419   7.665   4.065
 3475W        W 7526   8.143   6.178  11.853
 3476W        W 7527   8.789   4.756   3.479
 3477W        W 7528   1.889   1.691   0.341
 3478W        W 7529  11.189   3.352   1.808
 3479W        W 7530  11.014  10.836   9.018
 3480W        W 7531   3.727   7.922   1.460
 3481W        W 7532   9.091   1.688   2.446
 3482W        W 7533   0.249   1.872   9.395
 3483W        W 7534   0.376  10.880  11.264
 3484W        W 7535   5.541  10.683   0.678
 3485W        W 7536   8.804   4.070   2.192
 3486W        W 7537   2.073   6.094   8.471
 3487W        W 7538   9.599   1.494   8.771
 3488W        W 7539   0.526   5.592   2.849
 3489W        W 7540   2.342  10.852   2.297
 3490W        W 7541   8.787   5.816   1.841
 3491W        W 7542  10.502   4.653   2.801
 3492W        W 7543   1.336   6.101   2.473
 3493W        W 7544  10.373   1.362   9.905
 3494W        W 7545   7.609   8.064   0.108
 3495W        W 7546   6.578   8.974  10.366
 3496W        W 7547   8.019   7.713   9.146
 3497W        W 7548  10.405   9.815   9.606
 3498W        W 7549   6.455   1.923   9.784
 3499W        W 7550   8.947   0.807   2.919
 3500W        W 7551   7.188   2.065  10.013
 3501W        W 7552   8.306   0.235   8.494
 3502W        W 7553   3.245   7.035   9.988
 3503W        W 7554   0.967   3.751  10.363
 3504W        W 7555   5.734   6.509   8.608
 3505W        W 7556   8.944   6.028   3.219
 3506W        W 7557   6.508   6.674   0.679
 3507W        W 7558   9.359   4.377   0.967
 3508W        W 7559   6.702   0.403   0.494
 3509W        W 7560   2.402   3.718   0.840
 3510W        W 7561  11.445   0.420  11.636
 3511W        W 7562   7.625   7.557   1.766
 3512W        W 7563   1.652   1.326  10.338
 3513W        W 7564  11.043   9.446  10.856
 3514W        W 7565   6.350   9.877   8.853
 3515W        W 7566   4.183  10.511   1.043
 3516W        W 7567   2.739  10.468  11.945
 3517W        W 7568   5.602   2.214   3.083
 3518W        W 7569   5.638   0.679   0.995
 3519W        W 7570   5.314   1.378   3.085
 3520W        W 7571   3.309   8.047  10.722
 3521W        W 7572   4.326   5.070  10.812
 3522W        W 7573   2.233   2.484   3.327
 3523W        W 7574   7.279   4.585   3.507
 3524W        W 7575   1.930   9.862   0.269
 3525W        W 7576   6.070   3.685   9.140
 3526W        W 7577   7.225   7.485  11.786
 3527W        W 7578   3.729   2.616   0.269
 3528W        W 7579   5.994   8.238   3.551
 3529W        W 7580   9.470   0.497   0.969
 3530W        W 7581   5.653   3.123   3.570
 3531W        W 7582   9.438   7.035  10.214
 3532W        W 7583   3.771   4.106   9.650
 3533W        W 7584   1.690   3.100   0.425
 3534W        W 7585   3.338   5.985   8.743
 3535W        W 7586  10.724   9.043   2.429
 3536W        W 7587   1.938   1.648  10.594
 3537W        W 7588  11.339  10.381   9.045
 3538W        W 7589   4.380   4.402  10.337
 3539W        W 7590   3.369   2.833  11.569
 3540W        W 7591   4.105   7.438  11.349
 3541W        W 7592   3.833   4.496  10.020
 3542W        W 7593   1.640   0.408  11.271
 3543W        W 7594   4.826  11.347   1.333
 3544W        W 7595   9.297   9.159   8.489
 3545W        W 7596   1.996   2.034   8.789
 3546W        W 7597   3.021   4.101   0.818
 3547W        W 7598   2.859   3.670   1.028
 3548W        W 7599   6.211   9.960   2.695
 3549W        W 7600   2.180  10.836   9.158
 3550W        W 7601  10.891   6.980   9.466
 3551W        W 7602   5.215   8.534   9.485
 3552W        W 7603  11.120   3.775  10.492
 3553W        W 7604  11.200   8.296  11.210
 3554W        W 7605   0.244   7.555  11.989
 3555W        W 7606   0.333   8.133  10.058
 3556W        W 7607   4.302   5.126   2.079
 3557W        W 7608   6.094   3.655  11.918
 3558W        W 7609   6.570   2.075  11.533
 3559W        W 7610   7.175   3.183   2.499
 3560W        W 7611  10.019   4.387   1.555
 3561W        W 7612  10.227   6.578   0.431
 3562W        W 7613   8.487   3.786  11.934
 3563W        W 7614   4.935   8.416   0.891
 3564W        W 7615   9.971   1.327  11.060
 3565W        W 7616   3.537   6.207  11.993
 3566W        W 7617   2.564   7.088   3.147
 3567W        W 7618   1.516   1.245   8.383
 3568W        W 7619   0.400   5.577   1.051
 3569W        W 7620   6.006   8.414   0.760
 3570W        W 7621  10.318   4.741   2.324
 3571W        W 7622   7.695   6.669   1.590
 3572W        W 7623   6.438   8.566   3.602
 3573W        W 7624   1.716   8.361   0.918
 3574W        W 7625   0.624   7.075   8.696
 3575W        W 7626   1.379   1.393   8.844
 3576W        W 7627   9.500   6.089   8.556
 3577W        W 7628  11.358   1.563   9.242
 3578W        W 7629   5.875   5.069   2.713
 3579W        W 7630   7.602  11.462   0.155
 3580W        W 7631   1.411  10.749   1.318
 3581W        W 7632   7.944   1.503   1.008
 3582W        W 7633   2.361  10.504   3.552
 3583W        W 7634   0.404   8.481   3.552
 3584W        W 7635  11.194  11.305   8.786
 3585W        W 7636   6.129   7.644   2.219
 3586W        W 7637  11.043   2.284   0.871
 3587W        W 7638   9.470  11.175   1.844
 3588W        W 7639   9.650   6.633   3.608
 3589W        W 7640   3.353   0.433   0.494
 3590W        W 7641   6.590   5.324   1.355
 3591W        W 7642  10.143   6.938   2.255
 3592W        W 7643   6.759   1.205  10.068
 3593W        W 7644   4.469   9.544   8.920
 3594W        W 7645   3.287   0.062   3.462
 3595W        W 7646   2.853   6.710   0.535
 3596W        W 7647   1.315   1.682   2.290
 3597W        W 7648   0.790   7.099   9.991
 3598W        W 7649   2.966   7.041  10.792
 3599W        W 7650   3.814   2.597  11.351
 3600W        W 7651   9.005  10.491   9.433
 3601W        W 7652   0.308   3.393   3.122
 3602W        W 7653   2.120   8.568   0.657
 3603W        W 7654   5.225   9.868   1.143
 3604W        W 7655   3.757   8.411  10.244
 3605W        W 7656   5.336  11.325   1.252
 3606W        W 7657   3.352  10.026   3.176
 3607W        W 7658   3.828   4.365  11.820
 3608W        W 7659   2.440   7.973  11.311
 3609W        W 7660   5.488   7.006   9.555
 3610W        W 7661   6.252   5.865   8.646
 3611W        W 7662  10.267   9.408   9.005
 3612W        W 7663   4.674   6.432  10.823
 3613W        W 7664   2.904   5.274  10.868
 3614W        W 7665   3.072   2.102   3.370
 3615W        W 7666  10.061   5.662   9.670
 3616W        W 7667   3.643   4.344  10.964
 3617W        W 7668   6.578   1.215   0.896
 3618W        W 7669  10.359   1.085   1.297
 3619W        W 7670   2.129   8.092   8.973
 3620W        W 7671   2.176   7.143   2.786
 3621W        W 7672   0.731   4.677   2.447
 3622W        W 7673   3.182   5.781  11.502
 3623W        W 7674   7.542   1.529   2.907
 3624W        W 7675   3.707   7.732   2.759
 3625W        W 7676   6.239   0.062  11.252
 3626W        W 7677   1.943   6.309  11.341
 3627W        W 7678   5.245   4.245   0.524
 3628W        W 7679   5.453   3.343   0.811
 3629W        W 7680   4.011   0.678   3.455
 3630W        W 7681   7.694   6.958   2.111
 3631W        W 7682   2.652   9.358   9.412
 3632W        W 7683   2.714   3.777  11.462
 3633W        W 7684   8.419   5.306   9.066
 3634W        W 7685   5.747   6.535   9.676
 3635W        W 7686   8.401   4.185   1.796
 3636W        W 7687   8.087   8.141  10.884
 3637W        W 7688   2.337   8.635   9.797
 3638W        W 7689   4.822   1.724   0.960
 3639W        W 7690   5.336   9.885   8.898
 3640W        W 7691   3.703  10.138   1.649
 3641W        W 7692   5.483  10.181   2.052
 3642W        W 7693   9.744   6.113   2.591
 3643W        W 7694   6.905   9.366   1.513
 3644W        W 7695   0.297   4.121   0.869
 3645W        W 7696  10.694   6.625  11.116
 3646W        W 7697   6.590   1.942   7.984
 3647W        W 7698   1.929   1.395   8.867
 3648W        W 7699   7.434   4.001   2.369
 3649W        W 7700   3.173  10.036  10.372
 3650W        W 7701   4.822   2.003   0.409
 3651W        W 7702  10.142   5.705   2.978
 3652W        W 7703   4.134   0.482   0.906
 3653W        W 7704   7.870   6.254   1.899
 3654W        W 7705  10.971   6.548   8.612
 3655W        W 7706   0.662   9.289   0.283
 3656W        W 7707   6.161   3.203   9.866
 3657W        W 7708   0.929   0.143   3.254
 3658W        W 7709   2.102   2.399   1.389
 3659W        W 7710  10.826   0.320  10.819
 3660W        W 7711   8.567   4.133   1.323
 3661W        W 7712  10.563   4.981   0.922
 3662W        W 7713   5.886   8.000   9.065
 3663W        W 7714   1.746   7.376   1.883
 3664W        W 7715   1.157   3.315   1.926
 3665W        W 7716   3.576   1.384   2.395
 3666W        W 7717   8.188   2.217  10.133
 3667W        W 7718   4.592   4.836   1.508
 3668W        W 7719   0.285  10.557  10.372
 3669W        W 7720   1.052   3.273   2.672
 3670W        W 7721   9.907   7.686  11.291
 3671W        W 7722   8.619  10.374   3.140
 3672W        W 7723   6.512   4.835  11.483
 3673W        W 7724   8.135   3.592   3.323
 3674W        W 7725  10.598   2.726   3.447
 3675W        W 7726   5.549   6.162   0.146
 3676W        W 7727   1.898   6.179  10.254
 3677W        W 7728   7.334  11.024   0.853
 3678W        W 7729   1.898   9.813  10.817
 3679W        W 7730   5.175   8.862  11.236
 3680W        W 7731   3.883   9.934  11.739
 3681W        W 7732   7.020   4.367   3.920
 3682W        W 7733   2.578   1.685  10.885
 3683W        W 7734   6.866  11.328  10.434
 3684W        W 7735  11.248  10.344   1.149
 3685W        W 7736   5.490   4.057  11.241
 3686W        W 7737   7.127   9.659   9.301
 3687W        W 7738   4.362   4.320   2.142
 3688W        W 7739  10.255   5.302   2.673
 3689W        W 7740   2.257   0.723  11.714
 3690W        W 7741   8.088   9.636  10.441
 3691W        W 7742   1.771   2.273   3.205
 3692W        W 7743   6.030   3.230   1.676
 3693W        W 7744  10.872   1.738   9.264
 3694W        W 7745   2.252   6.170   1.466
 3695W        W 7746   0.190  11.359   0.992
 3696W        W 7747   9.587   5.367   0.760
 3697W        W 7748   4.225   1.889  11.216
 3698W        W 7749  10.096   3.855   1.622
 3699W        W 7750   3.176  10.451   1.365
 3700W        W 7751   4.893   8.624   9.091
 3701W        W 7752   8.737   8.289   3.487
 3702W        W 7753   3.047   3.097  10.441
 3703W        W 7754   5.351  11.153   0.319
 3704W        W 7755   8.432   6.726  11.334
 3705W        W 7756   6.725   7.140   0.798
 3706W        W 7757   6.092   1.605   9.952
 3707W        W 7758  10.116   8.473   1.470
 3708W        W 7759   7.970   0.994   9.543
 3709W        W 7760   1.159   1.481  10.321
 3710W        W 7761   5.938   9.385   1.643
 3711W        W 7762  11.407  11.498  11.356
 3712W        W 7763   1.166   4.270   2.682
 3713W        W 7764   3.129   1.297   0.534
 3714W        W 7765   9.462   3.889   0.893
 3715W        W 7766   3.112   8.493   1.954
 3716W        W 7767   3.752   4.703   3.114
 3717W        W 7768   6.194   0.804  10.821
 3718W        W 7769   4.409   1.824   2.126
 3719W        W 7770   1.329   6.573   2.692
 3720W        W 7771  10.990  10.774   2.026
 3721W        W 7772   3.029   4.639  11.987
 3722W        W 7773   6.469   9.564  10.968
 3723W        W 7774   4.072   8.661   9.903
 3724W        W 7775  10.281   3.232  11.871
 3725W        W 7776  10.122  11.481  11.836
 3726W        W 7777   4.195   8.297   0.367
 3727W        W 7778   9.929   2.196   0.311
 3728W        W 7779   1.169   4.054   9.832
 3729W        W 7780   9.461   6.762  11.253
 3730W        W 7781   1.274   7.112   1.862
 3731W        W 7782   2.881   2.323   9.493
 3732W        W 7783   3.013   0.572   9.915
 3733W        W 7784   4.257   7.237  10.877
 3734W        W 7785   0.817  11.018   2.961
 3735W        W 7786   5.496   6.584   2.684
 3736W        W 7787   6.072   4.649  11.723
 3737W        W 7788   7.174   3.683   0.287
 3738W        W 7789  10.200   6.685   9.971
 3739W        W 7790   9.004   9.564   2.715
 3740W        W 7791   0.316   2.452   1.952
 3741W        W 7792   3.747  10.000   2.538
 3742W        W 7793   0.014   5.269   9.402
 3743W        W 7794  11.474   5.293   1.003
 3744W        W 7795   4.968   5.201  10.313
 3745W        W 7796   7.122   2.899  10.313
 3746W        W 7797   9.862   0.563   2.604
 3747W        W 7798   3.518   1.329  11.691
 3748W        W 7799  11.036   8.590  11.859
 3749W        W 7800   4.160   2.342   1.280
 3750W        W 7801   9.944   6.580   9.533
 3751W        W 7802   0.313   1.297   3.301
 3752W        W 7803   4.118   3.090   0.750
 3753W        W 7804   9.951   6.687  11.978
 3754W        W 7805   1.669   1.458   1.310
 3755W        W 7806  10.706   4.038   1.623
 3756W        W 7807   0.341   7.505   1.014
 3757W        W 7808  11.454   0.453   1.803
 3758W        W 7809   0.189   3.050   0.911
 3759W        W 7810   3.718  11.128   1.664
 3760W        W 7811   2.031   6.874   0.314
 3761W        W 7812  11.429   3.891   9.513
 3762W        W 7813  10.275   6.099  10.351
 3763W        W 7814   1.453   7.827   1.404
 3764W        W 7815  11.094   1.701  11.312
 3765W        W 7816   2.276   8.133   1.673
 3766W        W 7817   3.698   7.422   2.371
 3767W        W 7818   8.011  10.257   1.037
 3768W        W 7819   1.357   5.596   2.258
 3769W        W 7820   7.354   8.558   0.904
 3770W        W 7821   5.260   9.032   2.780
 3771W        W 7822   6.036   3.103   8.130
 3772W        W 7823   6.759   3.667  10.426
 3773W        W 7824   5.988   4.210   8.949
 3774W        W 7825   9.474   1.889  11.914
 3775W        W 7826   6.439   8.110   3.820
 3776W        W 7827   9.147   3.339   0.924
 3777W        W 7828   4.221   9.276   2.180
 3778W        W 7829   4.776  10.886  10.759
 3779W        W 7830   0.843   4.624   1.463
 3780W        W 7831   4.277   2.315  11.499
 3781W        W 7832  10.019   6.394   8.532
 3782W        W 7833   1.025   7.506  11.387
 3783W        W 7834  10.133   9.749   2.190
 3784W        W 7835   6.761   6.430   1.219
 3785W        W 7836   6.148   6.537  11.186
 3786W        W 7837   2.429   9.371   1.185
 3787W        W 7838   5.535   9.410  10.797
 3788W        W 7839   1.834   0.815   9.538
 3789W        W 7840   5.708   8.849  10.820
 3790W        W 7841   6.168   0.949   9.110
 3791W        W 7842   7.001   9.576  10.833
 3792W        W 7843   5.640   1.826  10.565
 3793W        W 7844   1.790   3.563   9.919
 3794W        W 7845   4.747   1.132   1.678
 3795W        W 7846   7.437  10.227   8.525
 3796W        W 7847   4.694   7.104   1.040
 3797W        W 7848   6.540   2.868   9.910
 3798W        W 7849   9.956   6.660  11.320
 3799W        W 7850  10.812   4.670   2.293
 3800W        W 7851   5.492   4.609   1.431
 3801W        W 7852   0.189   6.033   8.938
 3802W        W 7853   7.533  10.815   9.341
 3803W        W 7854   7.977   9.515   2.333
 3804W        W 7855   2.302  10.941   3.305
 3805W        W 7856   3.652   4.157   0.240
 3806W        W 7857   0.373   8.850  10.638
 3807W        W 7858   8.606   2.723   0.028
 3808W        W 7859   9.829   6.601   1.366
 3809W        W 7860   5.131   0.174   9.506
 3810W        W 7861  11.477   8.185   1.404
 3811W        W 7862  10.014   7.091   1.389
 3812W        W 7863   7.724   5.894  10.638
 3813W        W 7864   6.282   3.581   8.219
 3814W        W 7865   5.094   6.748   3.017
 3815W        W 7866   0.630   1.299   1.503
 3816W        W 7867   4.191  10.470   2.892
 3817W        W 7868  10.928   7.724   0.102
 3818W        W 7869   1.856   1.483  11.884
 3819W        W 7870   7.224   1.209  10.496
 3820W        W 7871  10.054   8.422   3.246
 3821W        W 7872   7.965  11.499   9.530
 3822W        W 7873  10.314   8.477  11.092
 3823W        W 7874   2.400   8.927   0.431
 3824W        W 7875   1.222   4.627   3.502
 3825W        W 7876   5.473   0.835  10.364
 3826W        W 7877   1.964  10.282   0.560
 3827W        W 7878   9.263   7.139   0.808
 3828W        W 7879   2.388   1.961   1.333
 3829W        W 7880   2.714  10.608   1.539
 3830W        W 7881   2.314   7.628   9.032
 3831W        W 7882   4.840   9.027   0.394
 3832W        W 7883   1.668   3.156  10.613
 3833W        W 7884   6.027   9.255  10.908
 3834W        W 7885   8.392   2.945   1.786
 3835W        W 7886   3.447   3.390   2.246
 3836W        W 7887   0.888   0.485  11.911
 3837W        W 7888  10.766   4.524   3.224
 3838W        W 7889   1.764   7.894   1.843
 3839W        W 7890   4.636   9.814   1.781
 3840W        W 7891  11.134   5.102   0.039
 3841W        W 7892   1.644   1.765   9.079
 3842W        W 7893   5.030   2.505   9.833
 3843W        W 7894  10.430   1.006   8.769
 3844W        W 7895   2.708   1.411   2.329
 3845W        W 7896   4.751   3.269  11.757
 3846W        W 7897   5.117   8.166  10.659
 3847W        W 7898   7.727   4.293   0.258
 3848W        W 7899   8.983   8.379   0.373
 3849W        W 7900   9.587   0.289   9.859
 3850W        W 7901   4.230   7.321   1.737
 3851W        W 7902   8.737   8.531   9.063
 3852W        W 7903   3.849   7.080  10.628
 3853W        W 7904   5.102   6.026   0.491
 3854W        W 7905   6.762   8.044   9.916
 3855W        W 7906   9.703   7.661   1.818
 3856W        W 7907   6.534   1.933   3.244
 3857W        W 7908  11.047   9.398   2.603
 3858W        W 7909   2.388   1.461  10.415
 3859W        W 7910   0.907   1.400   0.569
 3860W        W 7911   4.192   0.003   3.115
 3861W        W 7912   0.097   8.936   3.569
 3862W        W 7913   0.469   6.479   2.633
 3863W        W 7914   5.671   1.367  10.343
 3864W        W 7915   3.158   3.717   3.279
 3865W        W 7916   7.126   3.569   9.580
 3866W        W 7917   8.635   1.855   2.312
 3867W        W 7918   1.794   2.575   2.747
 3868W        W 7919   3.235   0.982   1.708
 3869W        W 7920   2.582   2.714   2.909
 3870W        W 7921  10.354   6.995   1.782
 3871W        W 7922  10.015   4.337   2.155
 3872W        W 7923   0.939   5.967   2.170
 3873W        W 7924   0.836   1.055   9.510
 3874W        W 7925   5.633   5.097   1.266
 3875W        W 7926   6.820   2.408   1.397
 3876W        W 7927   7.051   6.688  10.530
 3877W        W 7928   0.081   7.203   2.150
 3878W        W 7929   2.653   9.653   0.789
 3879W        W 7930   4.223   5.219   0.040
 3880W        W 7931  11.056   2.828  11.267
 3881W        W 7932   1.207   5.640  11.587
 3882W        W 7933   5.143   7.734  11.019
 3883W        W 7934   4.410   2.087   1.668
 3884W        W 7935   5.704   8.555   2.823
 3885W        W 7936   9.419   5.660  10.834
 3886W        W 7937   4.102   7.081   9.758
 3887W        W 7938  11.328   3.348   8.649
 3888W        W 7939   8.679   2.821  10.533
 3889W        W 7940   8.442   8.518   8.609
 3890W        W 7941   4.918   2.490   0.208
 3891W        W 7942   3.951   7.961   9.425
 3892W        W 7943   3.229   2.882   2.214
 3893W        W 7944  10.797  10.166  10.538
 3894W        W 7945   2.885  10.024   9.181
 3895W        W 7946   1.221   6.596   3.227
 3896W        W 7947   7.668   0.256   3.389
 3897W        W 7948   3.380   6.652  11.218
 3898W        W 7949  10.955   1.784   3.215
 3899W        W 7950   4.073   1.309   2.352
 3900W        W 7951   6.670   2.190   8.433
 3901W        W 7952   3.789   7.226   1.490
 3902W        W 7953   1.120   6.984   1.368
 3903W        W 7954   3.712  11.473  10.514
 3904W        W 7955   2.226   4.623  10.293
 3905W        W 7956   3.862   1.362   1.429
 3906W        W 7957   7.869   8.574   0.898
 3907W        W 7958   5.428   1.144   1.152
 3908W        W 7959   0.032   3.638   1.553
 3909W        W 7960   0.502   5.381   9.373
 3910W        W 7961   5.223  10.945  11.058
 3911W        W 7962   7.033   9.484  11.724
 3912W        W 7963   1.830   0.295   2.202
 3913W        W 7964  11.289   2.551   9.296
 3914W        W 7965   0.810   1.774   0.975
 3915W        W 7966   7.100   2.133  11.876
 3916W        W 7967   5.306   5.140   0.477
 3917W        W 7968   1.817   3.878  10.985
 3918W        W 7969   0.267   1.299   9.468
 3919W        W 7970   5.873   9.635   1.188
 3920W        W 7971   5.047   3.058   2.698
 3921W        W 7972   1.223   2.297  11.190
 3922W        W 7973   7.970   4.662   0.675
 3923W        W 7974   9.637   2.368  11.934
 3924W        W 7975  11.395   6.604   3.514
 3925W        W 7976   2.769   0.744   9.495
 3926W        W 7977  10.906   3.591   8.851
 3927W        W 7978   8.580   3.861   3.190
 3928W        W 7979   5.270   2.752   0.486
 3929W        W 7980   2.170   1.309  11.520
 3930W        W 7981   2.421   8.361   2.552
 3931W        W 7982   0.255   0.781  11.475
 3932W        W 7983  11.120   1.620  10.802
 3933W        W 7984   1.477   1.863  10.460
 3934W        W 7985   2.906   6.926   9.048
 3935W        W 7986   3.065   8.300   2.424
 3936W        W 7987  10.623   7.885   3.464
 3937W        W 7988   3.486  10.580   1.774
 3938W        W 7989   2.409   9.866   1.210
 3939W        W 7990   0.753   1.167  10.804
 3940W        W 7991  11.220  10.591  11.938
 3941W        W 7992  11.251   7.868  11.487
 3942W        W 7993   5.304  10.007   2.669
 3943W        W 7994   6.115   4.762   0.733
 3944W        W 7995  11.474   4.901   1.315
 3945W        W 7996   6.513   0.824   8.753
 3946W        W 7997   3.587   6.157   0.492
 3947W        W 7998   8.477   4.015   9.972
 3948W        W 7999   2.859   9.113   1.201
 3949W        W 8000   9.919   2.835   8.371
 3950W        W 8001   8.409   4.284  11.818
 3951W        W 8002   8.923   2.637   2.213
 3952W        W 8003   7.606   0.743  11.125
 3953W        W 8004   8.237   6.447  10.077
 3954W        W 8005   9.143   1.284   9.007
 3955W        W 8006   8.317   6.972  10.775
 3956W        W 8007   9.086   6.933   8.099
 3957W        W 8008   2.896   0.476   3.601
 3958W        W 8009   9.538   6.257   9.068
 3959W        W 8010  10.326   9.425   1.383
 3960W        W 8011   8.958   8.085   8.991
 3961W        W 8012   4.996   4.700   1.236
 3962W        W 8013   2.821   5.927  10.178
 3963W        W 8014   6.262   4.287   0.483
 3964W        W 8015   5.602   3.882   9.070
 3965W        W 8016   3.650   2.522   2.072
 3966W        W 8017   2.579   9.516   3.135
 3967W        W 8018   0.529   9.846  11.070
 3968W        W 8019   7.851   2.423  10.493
 3969W        W 8020   4.192   9.979   8.870
 3970W        W 8021   2.682   0.573  10.330
 3971W        W 8022   3.455  10.138  11.476
 3972W        W 8023   9.483   1.621   0.360
 3973W        W 8024   7.749   1.318   9.864
 3974W        W 8025   3.609  10.304  10.960
 3975W        W 8026   7.728  11.081  10.656
 3976W        W 8027   4.185   3.468   0.399
 3977W        W 8028   7.528  10.350   9.568
 3978W        W 8029   1.622  10.493  11.689
 3979W        W 8030   7.608   6.129   3.801
 3980W        W 8031   9.903   2.773   2.278
 3981W        W 8032   6.673   9.935   1.349
 3982W        W 8033   6.670   3.353   9.786
 3983W        W 8034  11.313   9.001   9.560
 3984W        W 8035   2.802  10.071   1.523
 3985W        W 8036   7.211   8.463   2.375
 3986W        W 8037   9.170   5.493  10.086
 3987W        W 8038  10.703   2.348   1.269
 3988W        W 8039   5.633   4.864  11.929
 3989W        W 8040   6.117   2.325   3.215
 3990W        W 8041   0.639   5.866   9.956
 3991W        W 8042   4.640   6.839   0.202
 3992W        W 8043   2.214   3.916   1.842
 3993W        W 8044   4.523  10.787   8.806
 3994W        W 8045   0.979   6.642  10.383
 3995W        W 8046   9.247   9.011  10.341
 3996W        W 8047   0.431   0.057   0.580
 3997W        W 8048   8.574   7.959   2.241
 3998W        W 8049   1.448   9.347  10.067
 3999W        W 8050   4.327  10.394   0.540
 4000W        W 8051   4.559   0.859   1.269
 4001W        W 8052   0.311   0.700   8.688
 4002W        W 8053   7.614   9.036   1.131
 4003W        W 8054   5.409   0.410   3.011
 4004W        W 8055   0.043   5.270   2.311
 4005W        W 8056   0.832   6.260  10.900
 4006W        W 8057   9.701   9.602   0.227
 4007W        W 8058   5.247  11.402  11.278
 4008W        W 8059   0.807   4.627   1.960
 4009W        W 8060   7.647   7.560  10.419
 4010W        W 8061   8.135   0.476   3.452
 4011W        W 8062   4.459   7.118   9.354
 4012W        W 8063   4.181  10.076   1.862
 4013W        W 8064   3.103   3.633  10.052
 4014W        W 8065   9.590   0.687   3.582
 4015W        W 8066   3.361  10.985  11.688
 4016W        W 8067   1.037   5.129   0.307
 4017W        W 8068   7.854   2.412  11.489
 4018W        W 8069  10.864   5.001   0.477
 4019W        W 8070   5.020   0.443   2.177
 4020W        W 8071   6.316  11.255   1.142
 4021W        W 8072   1.909  10.863   9.691
 4022W        W 8073   3.751   4.992   1.749
 4023W        W 8074   8.775  10.472   3.592
 4024W        W 8075   6.038  10.010   0.854
 4025W        W 8076   3.547  10.651  11.344
 4026W        W 8077   5.029   3.427  10.559
 4027W        W 8078  10.871   7.715   3.028
 4028W        W 8079   3.114   7.408   0.366
 4029W        W 8080   9.571   4.908   4.371
 4030W        W 8081   4.805   7.978  10.278
 4031W        W 8082   3.319   2.704   3.243
 4032W        W 8083   0.563   0.854   1.718
 4033W        W 8084   7.470   9.870   3.192
 4034W        W 8085   2.885   4.516  10.403
 4035W        W 8086   5.106   8.990   2.036
 4036W        W 8087   5.214   3.211   8.753
 4037W        W 8088  10.307   6.964   9.532
 4038W        W 8089   9.120   3.695   9.495
 4039W        W 8090   8.817   1.299   1.297
 4040W        W 8091   2.795   1.269   9.498
 4041W        W 8092   2.117   2.892   3.027
 4042W        W 8093   5.819  10.601  10.500
 4043W        W 8094   3.746   2.633   9.835
 4044W        W 8095  10.874   3.286   9.947
 4045W        W 8096  11.088   5.082   2.420
 4046W        W 8097   8.032   1.007   3.451
 4047W        W 8098  11.011   3.116  10.424
 4048W        W 8099  11.395   2.323   0.404
 4049W        W 8100   3.329   9.348  11.062
 4050W        W 8101   5.141   1.589   9.243
 4051W        W 8102   9.564   7.539  10.323
 4052W        W 8103   4.215   2.844  11.538
 4053W        W 8104   6.591   0.434   1.371
 4054W        W 8105   0.120   8.562   1.070
 4055W        W 8106   0.048   2.345  10.393
 4056W        W 8107   0.532   3.863   3.339
 4057W        W 8108   2.652   6.197   3.337
 4058W        W 8109   2.857   2.029   1.168
 4059W        W 8110   2.860   3.340   3.515
 4060W        W 8111   8.846   0.379   1.848
 4061W        W 8112   0.525   9.319   3.483
 4062W        W 8113   8.936   5.128   2.278
 4063W        W 8114   6.157   3.087   3.734
 4064W        W 8115  11.272   5.629   9.701
 4065W        W 8116   9.158   8.088  11.935
 4066W        W 8117   7.656  11.254  11.133
 4067W        W 8118   1.792   2.467  10.886
 4068W        W 8119   2.331  11.459   3.348
 4069W        W 8120   3.309   9.644  11.475
 4070W        W 8121   6.656   7.018   0.311
 4071W        W 8122   1.300   7.640   1.835
 4072W        W 8123   9.468   8.674   8.530
 4073W        W 8124  10.041   4.858   2.781
 4074W        W 8125  10.143  11.427   0.654
 4075W        W 8126   9.645   4.067   1.343
 4076W        W 8127   4.607   2.110   8.628
 4077W        W 8128   6.698   0.415   3.185
 4078W        W 8129   9.709   1.474   0.811
 4079W        W 8130   4.634  11.489   9.535
 4080W        W 8131   6.041   1.305   2.175
 4081W        W 8132   9.842   7.508  10.779
 4082W        W 8133   7.931   5.003  11.538
 4083W        W 8134   7.912   9.471   0.191
 4084W        W 8135   5.633   5.697   1.901
 4085W        W 8136   8.228   2.275   0.900
 4086W        W 8137   2.895   9.804   3.406
 4087W        W 8138   6.749   8.969   0.831
 4088W        W 8139   6.424   9.876   3.164
 4089W        W 8140   5.441   5.898   1.468
 4090W        W 8141   8.494   8.225   0.202
 4091W        W 8142   6.390   2.270   1.874
 4092W        W 8143   0.758   3.286   0.399
 4093W        W 8144   9.559   8.947   8.968
 4094W        W 8145   8.301   3.029   9.930
 4095W        W 8146  11.057   2.913   9.615
 4096W        W 8147   4.667   2.976  11.353
 4097W        W 8148   6.593  11.339  11.842
 4098W        W 8149  10.081   2.315   8.568
 4099W        W 8150  10.421   0.369  11.682
 4100W        W 8151   0.754   4.333   9.997
 4101W        W 8152  11.277   4.848   0.808
 4102W        W 8153   8.449   2.043   2.796
 4103W        W 8154   5.507   9.750   3.245
 4104W        W 8155  10.526  10.888   1.366
 4105W        W 8156   8.994   8.671  10.739
 4106W        W 8157  11.367   8.742  11.374
 4107W        W 8158   7.065  10.085   9.572
 4108W        W 8159   0.168   0.751   3.416
 4109W        W 8160   4.952   1.863   8.287
 4110W        W 8161   7.853   1.171   2.214
 4111W        W 8162   8.035  11.292  11.903
 4112W        W 8163   6.434   6.422   9.041
 4113W        W 8164  10.606   9.557   3.204
 4114W        W 8165  11.020   4.693   2.797
 4115W        W 8166   0.013   9.816   2.243
 4116W        W 8167   8.985   2.188   9.545
 4117W        W 8168   4.582  10.994   0.403
 4118W        W 8169   7.106   2.311   2.488
 4119W        W 8170   5.746   1.260  11.355
 4120W        W 8171  10.496   0.793   3.673
 4121W        W 8172  11.497   6.177   3.170
 4122W        W 8173   5.252   5.491   1.272
 4123W        W 8174   2.660   6.965   1.834
 4124W        W 8175   5.094   7.614  10.031
 4125W        W 8176  10.868   5.466   8.586
 4126W        W 8177   0.808   5.621  10.440
 4127W        W 8178   5.558   9.556   2.763
 4128W        W 8179   3.101   8.467  10.925
 4129W        W 8180   5.559  10.208   0.900
 4130W        W 8181   1.387   1.900   1.201
 4131W        W 8182   4.148   7.554   1.302
 4132W        W 8183   3.819   0.009   1.283
 4133W        W 8184   6.138   0.840   3.023
 4134W        W 8185  11.155  10.531   1.613
 4135W        W 8186   0.909   0.488   3.661
 4136W        W 8187   9.997   3.291   0.331
 4137W        W 8188   4.276   9.085  11.233
 4138W        W 8189  11.128   3.922   0.124
 4139W        W 8190   3.804   3.125   0.302
 4140W        W 8191   0.132   3.130   1.791
 4141W        W 8192   6.489   7.354   2.405
 4142W        W 8193   4.777   6.974   3.350
 4143W        W 8194   4.523  10.306  10.331
 4144W        W 8195   9.576   2.464  10.169
 4145W        W 8196   0.752   8.728   3.253
 4146W        W 8197   9.462   6.231   1.478
 4147W        W 8198   6.987   1.763   9.294
 4148W        W 8199  11.242   3.052  11.681
 4149W        W 8200   8.110   8.120   0.819
 4150W        W 8201   6.588   1.597   2.865
 4151W        W 8202   9.046   2.257   9.039
 4152W        W 8203   8.761   4.610  11.323
 4153W        W 8204   2.303   1.798  10.054
 4154W        W 8205   1.926   5.337   9.899
 4155W        W 8206   1.071   2.319   0.234
 4156W        W 8207  11.206   6.910   9.871
 4157W        W 8208   2.110  10.922  11.307
 4158W        W 8209   7.933   4.054   1.693
 4159W        W 8210   0.922   8.440   2.801
 4160W        W 8211   8.599   1.884  11.490
 4161W        W 8212   6.946   4.674  10.236
 4162W        W 8213   7.039   1.298   9.501
 4163W        W 8214  11.242   1.334   1.905
 4164W        W 8215   4.348   5.613   1.878
 4165W        W 8216   9.115   8.515   1.787
 4166W        W 8217   5.099   9.543   2.967
 4167W        W 8218   6.021   2.885   3.267
 4168W        W 8219   2.195   7.477   0.503
 4169W        W 8220   8.283   2.700   2.720
 4170W        W 8221   9.054  11.248   2.693
 4171W        W 8222   2.552   9.011   8.551
 4172W        W 8223   4.921   2.931  10.522
 4173W        W 8224   8.867   9.528   9.792
 4174W        W 8225   5.230   7.502   9.569
 4175W        W 8226   9.230   6.092  11.767
 4176W        W 8227   8.004   8.711  10.019
 4177W        W 8228   5.505   8.064   0.257
 4178W        W 8229   9.534   1.526   9.808
 4179W        W 8230   6.098   3.809   1.005
 4180W        W 8231   1.144   7.433   3.162
 4181W        W 8232   3.719   8.959   3.227
 4182W        W 8233   4.859   1.003   0.389
 4183W        W 8234   2.460   7.991   9.376
 4184W        W 8235   2.186   8.432   1.145
 4185W        W 8236   2.045   4.252   9.375
 4186W        W 8237   4.679   5.274   0.254
 4187W        W 8238   1.420   8.638   2.827
 4188W        W 8239   4.387   9.448   2.645
 4189W        W 8240  11.318   7.777  10.991
 4190W        W 8241   6.104   5.905   1.816
 4191W        W 8242   0.355   8.044  11.765
 4192W        W 8243  10.882   8.125  11.722
 4193W        W 8244  10.837   1.497  10.103
 4194W        W 8245   8.413   9.397   9.577
 4195W        W 8246  11.426   4.385   0.645
 4196W        W 8247   5.918   4.641   9.214
 4197W        W 8248  10.478   5.079   1.793
 4198W        W 8249   5.205   3.959   0.933
 4199W        W 8250   4.679   6.953  10.880
 4200W        W 8251   1.116  10.655   3.591
 4201W        W 8252   5.408  10.353  10.280
 4202W        W 8253   7.686   2.716   9.503
 4203W        W 8254   6.651   0.924   0.468
 4204W        W 8255   8.129   8.683   1.975
 4205W        W 8256   0.789   1.067  11.312
 4206W        W 8257   1.567   0.860   0.575
 4207W        W 8258   8.549   5.582  11.408
 4208W        W 8259   4.547   7.525  10.560
 4209W        W 8260   1.487   3.054   9.037
 4210W        W 8261   2.554   8.619  11.003
 4211W        W 8262   6.344   2.338   0.361
 4212W        W 8263   9.279   4.194   9.364
 4213W        W 8264  11.234   5.364   1.449
 4214W        W 8265   4.354   6.667   9.980
 4215W        W 8266   9.652   1.024   1.702
 4216W        W 8267   9.131   8.068   0.802
 4217W        W 8268  10.453  10.320  11.031
 4218W        W 8269   9.824   9.564  11.647
 4219W        W 8270  10.474   8.478   9.029
 4220W        W 8271   3.022  10.957   1.322
 4221W        W 8272   0.729   3.833   9.907
 4222W        W 8273  10.199   7.652   1.119
 4223W        W 8274   9.117   1.737   8.746
 4224W        W 8275   9.495   8.434   2.150
 4225W        W 8276   7.405   7.578  10.870
 4226W        W 8277   0.852   9.561   2.148
 4227W        W 8278   1.961   9.587   1.205
 4228W        W 8279   4.179   6.245   9.750
 4229W        W 8280   0.526   2.609   1.510
 4230W        W 8281   5.907   5.728   2.314
 4231W        W 8282   5.062   0.483   8.941
 4232W        W 8283   7.729  10.570   0.251
 4233W        W 8284   7.672   9.014   2.571
 4234W        W 8285   7.428   2.776   0.895
 4235W        W 8286   8.236   1.321  11.755
 4236W        W 8287   2.335   8.485   9.303
 4237W        W 8288   7.977  11.317   2.499
 4238W        W 8289   4.241   7.018   1.234
 4239W        W 8290   8.542   0.178   1.475
 4240W        W 8291   9.288   4.490  11.420
 4241W        W 8292  11.325   1.221  11.022
 4242W        W 8293   3.682   1.337   9.636
 4243W        W 8294   9.110   5.733   8.694
 4244W        W 8295   9.996  10.562  11.301
 4245W        W 8296   2.284   7.253  11.545
 4246W        W 8297   4.842   2.120   1.922
 4247W        W 8298   5.240   1.199  10.067
 4248W        W 8299  11.452  10.470   3.289
 4249W        W 8300   1.765   8.408   1.819
 4250W        W 8301   6.034   3.728   3.835
 4251W        W 8302   4.129   4.760   8.667
 4252W        W 8303   8.126   9.424   1.816
 4253W        W 8304   5.855   8.966   0.017
 4254W        W 8305  11.158   4.279  10.271
 4255W        W 8306   4.049   1.483   0.946
 4256W        W 8307  11.395   7.661   1.198
 4257W        W 8308   5.261   8.444  11.531
 4258W        W 8309   4.725   4.316  11.822
 4259W        W 8310   9.990   1.667   0.355
 4260W        W 8311   8.402  10.339   1.387
 4261W        W 8312  10.514  10.858   8.858
 4262W        W 8313   0.495   9.547   2.992
 4263W        W 8314   7.392   4.100   9.147
 4264W        W 8315   1.714   5.972   3.249
 4265W        W 8316   4.304   0.256   0.428
 4266W        W 8317   6.183   7.490  11.274
 4267W        W 8318   7.164   9.142  10.052
 4268W        W 8319   2.914   0.954   2.100
 4269W        W 8320   9.395   8.910   3.589
 4270W        W 8321   2.243   2.815   2.543
 4271W        W 8322  11.226   0.040   0.889
 4272W        W 8323   6.605   3.644   1.912
 4273W        W 8324   6.154   2.498   0.837
 4274W        W 8325   2.010  10.735   0.842
 4275W        W 8326   7.969   4.039  11.905
 4276W        W 8327   7.444  10.919   9.869
 4277W        W 8328  10.954   1.243   9.113
 4278W        W 8329  10.719   6.544   1.781
 4279W        W 8330  10.372   6.035   9.520
 4280W        W 8331   8.352   2.353  11.449
 4281W        W 8332   8.439   1.525   2.700
 4282W        W 8333   3.114   2.129   2.587
 4283W        W 8334   7.584   2.549   3.171
 4284W        W 8335   7.913  10.410   8.527
 4285W        W 8336   4.950   8.985   9.485
 4286W        W 8337   5.051   8.830  11.845
 4287W        W 8338   2.744   2.211   2.976
 4288W        W 8339   6.493   5.910  11.924
 4289W        W 8340   7.568   6.886   0.813
 4290W        W 8341   5.337   0.350  11.513
 4291W        W 8342   9.168   2.801   2.804
 4292W        W 8343   1.730  11.239   2.978
 4293W        W 8344   4.231   9.539  11.987
 4294W        W 8345   9.002   4.107  11.172
 4295W        W 8346   1.806   9.188   2.309
 4296W        W 8347   6.879   9.424   2.432
 4297W        W 8348   8.369   1.587   1.367
 4298W        W 8349   7.013   6.945  11.018
 4299W        W 8350   9.016   3.064   3.198
 4300W        W 8351   3.554   9.333   0.885
 4301W        W 8352   8.378   1.134   2.151
 4302W        W 8353   6.962   4.661   1.233
 4303W        W 8354   1.809   8.880   0.890
 4304W        W 8355   3.616   1.744   1.732
 4305W        W 8356   5.618   1.744  11.461
 4306W        W 8357   4.234   3.181   9.578
 4307W        W 8358   8.579   2.786   8.629
 4308W        W 8359  10.680   2.296  10.528
 4309W        W 8360   6.333  10.748   8.410
 4310W        W 8361   9.363  10.807   9.829
 4311W        W 8362   1.729  10.891   0.010
 4312W        W 8363   2.750   5.643  11.257
 4313W        W 8364   0.135   2.412   9.630
 4314W        W 8365   4.410   8.653  10.943
 4315W        W 8366   9.088   2.394   1.673
 4316W        W 8367   0.573   2.921   1.906
 4317W        W 8368   2.413   2.532   9.619
 4318W        W 8369   2.818   0.102   3.239
 4319W        W 8370   3.629   0.757   0.850
 4320W        W 8371   1.881  10.009  11.769
 4321W        W 8372   1.858  10.606   8.771
 4322W        W 8373   1.002   0.659   9.872
 4323W        W 8374   8.569   5.347   0.798
 4324W        W 8375   6.760   7.482   8.667
 4325W        W 8376  10.406   5.529  11.883
 4326W        W 8377   5.118   7.379   2.281
 4327W        W 8378   1.232   2.632   9.875
 4328W        W 8379  10.043   6.783   4.398
 4329W        W 8380  10.728   5.118   9.003
 4330W        W 8381   4.161   6.426   4.240
 4331W        W 8382   0.613  11.061   8.577
 4332W        W 8383   5.595   8.001  10.719
 4333W        W 8384   8.693   7.125   2.119
 4334W        W 8385  10.957   0.827  10.931
 4335W        W 8386   6.832   6.134   0.242
 4336W        W 8387  10.352  11.482  11.374
 4337W        W 8388   8.522   1.635  10.007
 4338W        W 8389   3.264   3.042   2.690
 4339W        W 8390   3.552   9.055   0.051
 4340W        W 8391   8.596   9.633  10.618
 4341W        W 8392   9.993  11.319  10.527
 4342W        W 8393  10.900   5.096   9.805
 4343W        W 8394   7.150  11.402   9.924
 4344W        W 8395  10.502   6.555   0.864
 4345W        W 8396   5.491  10.935   2.144
 4346W        W 8397   9.913   9.199   0.015
 4347W        W 8398  10.187   7.992  10.934
 4348W        W 8399   0.965  10.613   9.028
 4349W        W 8400  11.411   2.252   2.340
 4350W        W 8401   5.182   1.754   1.749
 4351W        W 8402   0.384   8.508  11.025
 4352W        W 8403   0.499   8.128   2.691
 4353W        W 8404   8.473   7.197   8.887
 4354W        W 8405   8.403   5.157   1.340
 4355W        W 8406   0.322   7.468   0.492
 4356W        W 8407  10.022   7.038   3.575
 4357W        W 8408   3.075   2.584   2.799
 4358W        W 8409   5.633   7.142   0.208
 4359W        W 8410   2.382  10.878   2.803
 4360W        W 8411  11.320   9.089   2.937
 4361W        W 8412   9.337   9.358   1.282
 4362W        W 8413  11.455   4.146  10.712
 4363W        W 8414   0.985   7.990   1.500
 4364W        W 8415   1.545   9.684   3.255
 4365W        W 8416   6.560   3.419  11.832
 4366W        W 8417   4.261   0.362   9.368
 4367W        W 8418   4.144   0.024   1.715
 4368W        W 8419   8.376   4.205  10.430
 4369W        W 8420   7.597   8.565   2.804
 4370W        W 8421  10.360   1.020  10.302
 4371W        W 8422   7.590   6.685   2.938
 4372W        W 8423   6.031   4.570  10.790
 4373W        W 8424  11.439   2.172   2.855
 4374W        W 8425   9.281   6.453   0.549
 4375W        W 8426   9.898   7.922  10.479
 4376W        W 8427  10.617   1.754  11.423
 4377W        W 8428   6.272   6.582  11.677
 4378W        W 8429   6.200   1.399  10.433
 4379W        W 8430   4.542  10.914  11.585
 4380W        W 8431   9.888   8.133   1.970
 4381W        W 8432   6.121   9.184   1.200
 4382W        W 8433   5.540   7.043  10.858
 4383W        W 8434   0.543   7.369  11.435
 4384W        W 8435   0.627   4.242   2.680
 4385W        W 8436   2.054   5.625   8.649
 4386W        W 8437   3.546   1.782   9.872
 4387W        W 8438   5.442   5.650  10.502
 4388W        W 8439   6.400   9.532   1.502
 4389W        W 8440   0.864   4.620   0.970
 4390W        W 8441  10.445   7.411   3.634
 4391W        W 8442   6.266   4.140   2.741
 4392W        W 8443   2.445   2.639  11.043
 4393W        W 8444   1.698   7.400   0.737
 4394W        W 8445   1.675   3.282   0.994
 4395W        W 8446   0.023  10.888   8.962
 4396W        W 8447   7.393  10.036   0.912
 4397W        W 8448   9.405   1.037   2.172
 4398W        W 8449   1.243   4.264   0.500
 4399W        W 8450   5.606   4.359  11.809
 4400W        W 8451   8.479   2.369   9.576
 4401W        W 8452   1.825   1.028   1.571
 4402W        W 8453   8.700   2.134   0.772
 4403W        W 8454   4.512   2.197  10.920
 4404W        W 8455   1.502  11.265   9.035
 4405W        W 8456   9.908   9.164   2.841
 4406W        W 8457   8.453   4.858   0.908
 4407W        W 8458   0.441   0.274  11.755
 4408W        W 8459   5.169   7.749   1.352
 4409W        W 8460  10.409   1.767   2.929
 4410W        W 8461   7.903   6.499   0.774
 4411W        W 8462   5.983   5.245  10.067
 4412W        W 8463   4.656   5.299  11.735
 4413W        W 8464   8.681   2.125   9.979
 4414W        W 8465   1.711  11.314   9.871
 4415W        W 8466  11.469  10.299   9.608
 4416W        W 8467   2.847  11.146  10.312
 4417W        W 8468   4.490   0.300   2.017
 4418W        W 8469   5.705   9.399  10.317
 4419W        W 8470   5.625   0.266   1.378
 4420W        W 8471   7.863   0.994   0.936
 4421W        W 8472   7.736   9.947   8.800
 4422W        W 8473   1.817  10.952   1.601
 4423W        W 8474   1.253   7.989   9.891
 4424W        W 8475   4.471   9.325   3.564
 4425W        W 8476   6.031   6.664   0.843
 4426W        W 8477   8.189   7.056   2.112
 4427W        W 8478   0.325   4.836   2.151
 4428W        W 8479   4.638   9.795  10.253
 4429W        W 8480   0.417   0.252  10.104
 4430W        W 8481  11.230   0.845  11.378
 4431W        W 8482   7.601   9.876   2.357
 4432W        W 8483   5.181   9.994   8.419
 4433W        W 8484   4.054   9.260   8.987
 4434W        W 8485   5.065   2.978   0.064
 4435W        W 8486   3.485   5.974   3.002
 4436W        W 8487  10.367  10.081   0.762
 4437W        W 8488   3.122   5.270  11.352
 4438W        W 8489   0.451  10.845   9.877
 4439W        W 8490   2.304   5.524  11.065
 4440W        W 8491   6.647   0.548  10.692
 4441W        W 8492   1.192   0.512   0.441
 4442W        W 8493   3.315   7.956   1.830
 4443W        W 8494   0.977   2.910   2.196
 4444W        W 8495   2.733   5.566   9.785
 4445W        W 8496   3.500   0.585   1.851
 4446W        W 8497  10.503   1.803   3.482
 4447W        W 8498   7.642   0.399   0.943
 4448W        W 8499  10.759   2.987  10.883
 4449W        W 8500   8.423   1.250   8.913
 4450W        W 8501   7.949   8.690   9.507
 4451W        W 8502   3.370   9.985   9.357
 4452W        W 8503  10.897  10.916  10.556
 4453W        W 8504   0.221   1.951   1.911
 4454W        W 8505   0.516   9.352  10.864
 4455W        W 8506  10.645   2.600   8.719
 4456W        W 8507   6.950  10.404   2.884
 4457W        W 8508   4.580   4.799   0.986
 4458W        W 8509   8.514   3.963  10.855
 4459W        W 8510   8.341   2.155   0.387
 4460W        W 8511   0.820   7.315   2.664
 4461W        W 8512   8.193   3.751   8.645
 4462W        W 8513   3.512   7.606   0.619
 4463W        W 8514   1.623   1.050   9.129
 4464W        W 8515   6.173  10.303   8.629
 4465W        W 8516  11.289   3.793   2.406
 4466W        W 8517  10.418   0.011  10.238
 4467W        W 8518   8.474   8.098   1.164
 4468W        W 8519   0.051   9.502  11.785
 4469W        W 8520   5.264  10.360   1.377
 4470W        W 8521   5.596  10.448  11.726
 4471W        W 8522   2.879   9.576   0.333
 4472W        W 8523   8.150   2.763   0.312
 4473W        W 8524   1.419   4.662   2.895
 4474W        W 8525   2.837   6.404   9.940
 4475W        W 8526  10.822  10.894  11.863
 4476W        W 8527   8.072   9.378   8.367
 4477W        W 8528   9.447   5.345  11.256
 4478W        W 8529   8.970   5.198   3.263
 4479W        W 8530   3.410   2.210   1.714
 4480W        W 8531  10.484  10.901   2.744
 4481W        W 8532  10.426  11.284   9.755
 4482W        W 8533   1.286   4.755  10.327
 4483W        W 8534   2.661   0.048  11.283
 4484W        W 8535   8.141   2.745  11.778
 4485W        W 8536   1.351   7.003  11.066
 4486W        W 8537   1.487   6.293  11.686
 4487W        W 8538   2.177   5.785  11.878
 4488W        W 8539  11.346   9.014  11.793
 4489W        W 8540  10.031   2.969   2.793
 4490W        W 8541   4.503   2.978   3.087
 4491W        W 8542   9.969   3.211   9.246
 4492W        W 8543  10.893   3.140   1.475
 4493W        W 8544   9.197   3.639  11.258
 4494W        W 8545   3.499   2.300  11.074
 4495W        W 8546   8.001   0.319   9.950
 4496W        W 8547   2.108   0.864   9.109
 4497W        W 8548   1.918   3.134   9.636
 4498W        W 8549  10.267  11.267   1.135
 4499W        W 8550   6.666  11.335   1.975
 4500W        W 8551   4.066   2.995   9.124
 4501W        W 8552   3.968   0.983  10.832
 4502W        W 8553   1.693   2.219  11.374
 4503W        W 8554   3.189   0.712  11.826
 4504W        W 8555   3.348   6.547   9.834
 4505W        W 8556   8.728   9.048  10.268
 4506W        W 8557   5.676   4.054   8.180
 4507W        W 8558   5.872  10.999   0.454
 4508W        W 8559   0.156   0.351   2.496
 4509W        W 8560   5.578   9.728   0.710
 4510W        W 8561   1.195   3.744   3.384
 4511W        W 8562   9.024  10.575   0.246
 4512W        W 8563   2.878   1.346   8.984
 4513W        W 8564   9.523   0.987  10.339
 4514W        W 8565   6.982   1.824   1.152
 4515W        W 8566   1.205   0.213   9.112
 4516W        W 8567   8.944   7.174   1.657
 4517W        W 8568  11.216   9.355  10.364
 4518W        W 8569   9.141   9.554   3.239
 4519W        W 8570   3.899   6.917   2.430
 4520W        W 8571   3.754   7.097  10.118
 4521W        W 8572   4.641   6.396   3.989
 4522W        W 8573   4.720   7.510   9.553
 4523W        W 8574   7.033   8.740  11.581
 4524W        W 8575   1.294  10.486  10.869
 4525W        W 8576   5.685   8.468   8.597
 4526W        W 8577   9.381   1.093   0.230
 4527W        W 8578   1.995   6.986   0.828
 4528W        W 8579   1.133   7.106   9.573
 4529W        W 8580   5.824   5.285  10.562
 4530W        W 8581   6.865   8.536   1.051
 4531W        W 8582   4.049   7.541  10.522
 4532W        W 8583   6.034   2.801   1.328
 4533W        W 8584  11.465   5.139  11.588
 4534W        W 8585   6.685   9.545   1.946
 4535W        W 8586   6.862   8.154  11.784
 4536W        W 8587   4.282   6.987   2.107
 4537W        W 8588   6.081   7.390   1.772
 4538W        W 8589   6.206   0.479  10.323
 4539W        W 8590   9.637   7.991   0.788
 4540W        W 8591   9.910   3.828  10.799
 4541W        W 8592  11.207   1.327   0.057
 4542W        W 8593   5.994   2.671   9.080
 4543W        W 8594  11.370   2.487  11.546
 4544W        W 8595   3.102   6.635   2.044
 4545W        W 8596   6.252   9.048   9.097
 4546W        W 8597   6.833   0.258   0.003
 4547W        W 8598   2.297   0.949  10.402
 4548W        W 8599   7.113   0.286  10.496
 4549W        W 8600   8.083   8.418  10.448
 4550W        W 8601   7.950   3.327  10.144
 4551W        W 8602   9.603  10.469   3.316
 4552W        W 8603   2.634   8.092   8.899
 4553W        W 8604   7.899   3.202   9.641
 4554W        W 8605   9.843   6.129   1.146
 4555W        W 8606   2.468   6.555   9.625
 4556W        W 8607   4.599   9.504  11.217
 4557W        W 8608   5.968   4.396   8.459
 4558W        W 8609   7.748   7.932   9.648
 4559W        W 8610   1.212  11.442   0.952
 4560W        W 8611   6.603  10.811   9.797
 4561W        W 8612   4.684   6.306   8.785
 4562W        W 8613   8.548   9.435   2.873
 4563W        W 8614   5.030  11.048  11.562
 4564W        W 8615   4.596  11.230   0.855
 4565W        W 8616   0.035   9.966   3.138
 4566W        W 8617   4.548   3.360   2.745
 4567W        W 8618   3.339   7.155   0.758
 4568W        W 8619   3.001   9.802   2.886
 4569W        W 8620  10.734  10.332   1.851
 4570W        W 8621   7.509   7.194   2.937
 4571W        W 8622  10.469   6.515   9.365
 4572W        W 8623  11.466   6.793  10.978
 4573W        W 8624   1.292   8.783  10.561
 4574W        W 8625   3.415   9.297   8.766
 4575W        W 8626   8.817   3.052  10.055
 4576W        W 8627   9.623   5.764   9.911
 4577W        W 8628   9.462   6.074   3.437
 4578W        W 8629   2.678   2.306  11.362
 4579W        W 8630   1.473   2.656  11.497
 4580W        W 8631   9.867   8.398  10.313
 4581W        W 8632   9.698   4.767   9.721
 4582W        W 8633   8.115   2.269  11.939
 4583W        W 8634   9.828   4.123  10.049
 4584W        W 8635   2.363  10.152  11.898
 4585W        W 8636   1.324   5.556  10.519
 4586W        W 8637   7.471   1.206  10.964
 4587W        W 8638  10.068   2.693   3.261
 4588W        W 8639   2.151   6.771  11.790
 4589W        W 8640   1.700   3.922   3.309
 4590W        W 8641   5.957   9.130   2.100
 4591W        W 8642  10.481   2.743   2.931
 4592W        W 8643  10.867   8.665   0.375
 4593W        W 8644   6.431  10.692   3.357
 4594W        W 8645   9.376   0.816   1.335
 4595W        W 8646   9.309   3.920   3.569
 4596W        W 8647   4.548  10.808  10.183
 4597W        W 8648   6.421  10.753   0.904
 4598W        W 8649   9.476  11.051   8.443
 4599W        W 8650  10.918   4.023   3.290
 4600W        W 8651   0.770   8.587   8.916
 4601W        W 8652   0.391   5.669   2.360
 4602W        W 8653   4.635   3.198  10.864
 4603W        W 8654  10.286  10.097  10.568
 4604W        W 8655  11.378   4.412   1.155
 4605W        W 8656   8.001   9.927   1.868
 4606W        W 8657   9.926   4.379   2.910
 4607W        W 8658   2.218   4.854   1.689
 4608W        W 8659   6.528   0.710   9.984
 4609W        W 8660   8.626   6.637   9.239
 4610W        W 8661   5.906   3.387  10.294
 4611W        W 8662   7.190   6.163   1.209
 4612W        W 8663   4.233   6.678   9.471
 4613W        W 8664   8.647   2.142   3.608
 4614W        W 8665   7.451   4.267  11.496
 4615W        W 8666   4.244   0.563  10.883
 4616W        W 8667   9.282   3.369   0.007
 4617W        W 8668   0.309   2.687  10.074
 4618W        W 8669   3.793   2.208   9.558
 4619W        W 8670   7.430  11.310   9.483
 4620W        W 8671   0.158   2.251  11.936
 4621W        W 8672   8.025  11.280   1.990
 4622W        W 8673   1.456   8.425   9.691
 4623W        W 8674   2.327   7.682   9.750
 4624W        W 8675   4.978   2.815   2.255
 4625W        W 8676   5.579   7.113   1.194
 4626W        W 8677   5.669   4.232   2.724
 4627W        W 8678   8.843   9.460   1.145
 4628W        W 8679   8.319   0.193   2.483
 4629W        W 8680   2.793   4.732  10.896
 4630W        W 8681   5.196   9.272  11.540
 4631W        W 8682   6.043   0.369   2.808
 4632W        W 8683   4.199   7.528   9.533
 4633W        W 8684   2.351   3.470   9.480
 4634W        W 8685  11.285  11.248   1.318
 4635W        W 8686   8.459  10.825   3.364
 4636W        W 8687   1.218   2.657   8.903
 4637W        W 8688   2.676   8.626   2.217
 4638W        W 8689  10.105   9.787   0.451
 4639W        W 8690   1.858   2.024  11.923
 4640W        W 8691   5.777   1.233   8.959
 4641W        W 8692   1.837   3.721  10.505
 4642W        W 8693   4.591   3.182   9.962
 4643W        W 8694   5.681   3.651  11.010
 4644W        W 8695   6.435   8.266  10.855
 4645W        W 8696   9.402  10.959   3.108
 4646W        W 8697   1.185   3.172   8.657
 4647W        W 8698   7.712   8.571   2.285
 4648W        W 8699  10.987   8.633   9.321
 4649W        W 8700   3.122   0.811   0.752
 4650W        W 8701   4.721   9.062  10.959
 4651W        W 8702   3.152   0.864   9.095
 4652W        W 8703   6.332   8.874  11.921
 4653W        W 8704   5.137  10.567   3.319
 4654W        W 8705  11.316   2.602  10.005
 4655W        W 8706   8.072   0.904   9.042
 4656W        W 8707   6.748   7.705  11.566
 4657W        W 8708   2.158   9.812   0.750
 4658W        W 8709   0.355  10.963   2.633
 4659W        W 8710  11.066   2.606  10.475
 4660W        W 8711   7.544   5.979   0.851
 4661W        W 8712   3.177   4.359   1.210
 4662W        W 8713   2.342   4.127  11.606
 4663W        W 8714  10.047  10.260   2.321
 4664W        W 8715   7.079  10.392   2.391
 4665W        W 8716   8.234   8.515   3.394
 4666W        W 8717   1.293   9.283   8.939
 4667W        W 8718  10.928   0.876  11.846
 4668W        W 8719   6.492   0.084   2.868
 4669W        W 8720  10.375   8.989   0.079
 4670W        W 8721   2.689   1.169   0.315
 4671W        W 8722   7.831   7.715   0.874
 4672W        W 8723   7.513   4.622  10.047
 4673W        W 8724   5.672   3.589   0.262
 4674W        W 8725  10.488   3.642   1.321
 4675W        W 8726   8.271   2.456   1.957
 4676W        W 8727  11.478   9.013   9.081
 4677W        W 8728   3.240   3.361   9.453
 4678W        W 8729   1.675  10.688   0.454
 4679W        W 8730   2.282   4.371   1.457
 4680W        W 8731   0.552   7.065   0.233
 4681W        W 8732  11.081   7.109   8.999
 4682W        W 8733  10.119   9.096   0.940
 4683W        W 8734   1.480   3.203   3.601
 4684W        W 8735   4.813   0.470  11.514
 4685W        W 8736   0.836  10.909   0.223
 4686W        W 8737   9.528   2.388   0.983
 4687W        W 8738   2.874  10.940   8.483
 4688W        W 8739   4.975   9.407   3.461
 4689W        W 8740   8.075   8.465   0.399
 4690W        W 8741   0.560   2.309   0.263
 4691W        W 8742   0.827   7.405   3.569
 4692W        W 8743   8.072   2.119   8.599
 4693W        W 8744   8.559   8.470   2.507
 4694W        W 8745   6.147   6.206  10.273
 4695W        W 8746   0.304   5.265  10.259
 4696W        W 8747   9.823   9.443  11.138
 4697W        W 8748  10.308   0.742   2.770
 4698W        W 8749   2.885   5.047   2.180
 4699W        W 8750   4.972  11.065  10.324
 4700W        W 8751   4.048  10.556  10.258
 4701W        W 8752   9.601  11.010  10.314
 4702W        W 8753   2.947   4.974   1.689
 4703W        W 8754  10.121   3.766  11.251
 4704W        W 8755   5.112  10.938   1.510
 4705W        W 8756   7.517   0.584  10.653
 4706W        W 8757   6.733   6.289  10.517
 4707W        W 8758   6.237   7.120   0.867
 4708W        W 8759   0.127   4.126   2.617
 4709W        W 8760   7.033   1.445   2.129
 4710W        W 8761   2.966   6.888   1.002
 4711W        W 8762  10.569   0.776   1.884
 4712W        W 8763   9.610   1.668  11.490
 4713W        W 8764   2.449   7.031   0.557
 4714W        W 8765   3.167   9.599  10.082
 4715W        W 8766  10.461   8.956   9.230
 4716W        W 8767   5.128  10.554  11.579
 4717W        W 8768   4.781   5.241   1.271
 4718W        W 8769   8.092   0.648   2.229
 4719W        W 8770   0.588   8.689   0.914
 4720W        W 8771   3.496   4.629   3.562
 4721W        W 8772   6.107   5.195   1.044
 4722W        W 8773   2.025   9.080   1.330
 4723W        W 8774   4.835   0.990   9.314
 4724W        W 8775   0.899   2.418   0.706
 4725W        W 8776   8.620   4.633   9.521
 4726W        W 8777   7.257   9.977  11.084
 4727W        W 8778   4.267   7.132  10.278
 4728W        W 8779   7.393   0.809  10.200
 4729W        W 8780   2.581   4.259  10.726
 4730W        W 8781   0.448  10.806   1.656
 4731W        W 8782   9.744   6.625  10.848
 4732W        W 8783   5.878   6.878   3.537
 4733W        W 8784   5.641   4.537   3.469
 4734W        W 8785  10.797   9.570  11.300
 4735W        W 8786   1.560   6.907   0.527
 4736W        W 8787  10.333   3.682   2.468
 4737W        W 8788   8.862  10.923   3.053
 4738W        W 8789   6.338   0.690   9.525
 4739W        W 8790   9.876   0.439  11.806
 4740W        W 8791   6.036   2.664   9.948
 4741W        W 8792   3.149   1.016   3.029
 4742W        W 8793   1.613   0.686   9.974
 4743W        W 8794   4.724   5.251   1.783
 4744W        W 8795   1.820   0.464  11.747
 4745W        W 8796   1.696   3.368  11.943
 4746W        W 8797  11.416   6.156  10.939
 4747W        W 8798   0.704   9.590   1.061
 4748W        W 8799   6.107   7.895   1.775
 4749W        W 8800   1.269   8.295  10.698
 4750W        W 8801   2.713   0.374  11.734
 4751W        W 8802   5.547   6.707   0.893
 4752W        W 8803   0.251   6.178   1.010
 4753W        W 8804   1.702   9.545   9.107
 4754W        W 8805   7.760   6.565  11.883
 4755W        W 8806   9.975   8.007   9.141
 4756W        W 8807   1.936   7.146   8.996
 4757W        W 8808   7.371  11.292  10.366
 4758W        W 8809   4.851  10.842   0.001
 4759W        W 8810   1.378  10.651   2.774
 4760W        W 8811   8.479   9.884   3.116
 4761W        W 8812   8.127  11.461   3.446
 4762W        W 8813   8.044   0.221   1.321
 4763W        W 8814   4.697   2.211  10.064
 4764W        W 8815   2.246   5.695   2.224
 4765W        W 8816   4.329   1.890  10.164
 4766W        W 8817   9.428  10.117   9.452
 4767W        W 8818   1.402   1.472   0.417
 4768W        W 8819  10.404   5.505   8.864
 4769W        W 8820   5.712  11.379   2.295
 4770W        W 8821  10.293   5.246   1.307
 4771W        W 8822   3.650   8.227   2.685
 4772W        W 8823   2.639   9.090   2.437
 4773W        W 8824   5.019   6.201   1.402
 4774W        W 8825  11.436   4.723  10.074
 4775W        W 8826   2.462   7.209   3.663
 4776W        W 8827   0.697   7.573  10.204
 4777W        W 8828   8.023   0.423   8.901
 4778W        W 8829   1.898  11.205   3.473
 4779W        W 8830   1.041  10.527   1.024
 4780W        W 8831   0.169   9.350   0.482
 4781W        W 8832   9.058   3.428   1.873
 4782W        W 8833   9.678   3.716   0.114
 4783W        W 8834   5.972   1.681  11.816
 4784W        W 8835   9.964   5.272   1.692
 4785W        W 8836   6.098   6.407   1.750
 4786W        W 8837  10.425   5.813  10.987
 4787W        W 8838   6.597   4.330   1.414
 4788W        W 8839   8.204   3.725   2.817
 4789W        W 8840   0.963  11.192   3.556
 4790W        W 8841   3.876   9.796   3.542
 4791W        W 8842  11.242   1.209  10.241
 4792W        W 8843   5.332  10.703   0.070
 4793W        W 8844   6.256   1.531  11.415
 4794W        W 8845   3.217   7.206  11.876
 4795W        W 8846   5.933  11.082  10.398
 4796W        W 8847  11.113  11.222   2.244
 4797W        W 8848   6.067   7.575   0.753
 4798W        W 8849   6.523   9.849   0.845
 4799W        W 8850   1.926   3.297   2.362
 4800W        W 8851   2.893   2.253   1.703
 4801W        W 8852  10.032   9.931   1.375
 4802W        W 8853   2.019  10.481   0.068
 4803W        W 8854   6.166   8.668   9.455
 4804W        W 8855   0.836   2.788   2.651
 4805W        W 8856  10.841   2.245   9.246
 4806W        W 8857   4.233   1.072   3.693
 4807W        W 8858   2.245   3.123  11.282
 4808W        W 8859  10.745   0.081   2.289
 4809W        W 8860   2.543  11.368  11.780
 4810W        W 8861   1.032   1.377   2.763
 4811W        W 8862   1.291   1.049  10.086
 4812W        W 8863   3.107   1.180   0.009
 4813W        W 8864   8.544   3.577   0.404
 4814W        W 8865  11.482   3.872   0.504
 4815W        W 8866  10.432   5.312   9.878
 4816W        W 8867   2.239   5.176   8.552
 4817W        W 8868   2.661   5.077   3.179
 4818W        W 8869   6.544   3.951  11.806
 4819W        W 8870   8.455   9.335   2.395
 4820W        W 8871   8.183   2.361   1.455
 4821W        W 8872   0.192   9.517   0.966
 4822W        W 8873   3.215   1.605  10.906
 4823W        W 8874   1.984  11.465  10.444
 4824W        W 8875   7.078   9.318   8.470
 4825W        W 8876   7.262   4.283   2.760
 4826W        W 8877   9.972  11.445  11.025
 4827W        W 8878   8.388   0.822  11.682
 4828W        W 8879   4.683   3.741   9.067
 4829W        W 8880   5.986   9.621   3.017
 4830W        W 8881   9.016   1.734   9.785
 4831W        W 8882   5.743   6.418   3.101
 4832W        W 8883   6.923   2.174  10.469
 4833W        W 8884   5.446   4.508   8.303
 4834W        W 8885   2.754   7.071   8.564
 4835W        W 8886   4.667   4.818  10.489
 4836W        W 8887   7.928   6.219   9.748
 4837W        W 8888   3.552  11.264   2.140
 4838W        W 8889  11.266   2.034   9.474
 4839W        W 8890  10.298   0.508  10.224
 4840W        W 8891  10.406   8.342   0.484
 4841W        W 8892   4.527   2.391   0.515
 4842W        W 8893   6.977   8.929   1.769
 4843W        W 8894   5.131   2.614   8.992
 4844W        W 8895   6.985   2.755   2.273
 4845W        W 8896   2.585   0.947   0.773
 4846W        W 8897  10.557   3.514  11.272
 4847W        W 8898   9.635   4.091   0.444
 4848W        W 8899   6.104   8.172   1.338
 4849W        W 8900   3.132  11.306   0.951
 4850W        W 8901   0.246  10.020   0.884
 4851W        W 8902   5.703  10.490   1.618
 4852W        W 8903   6.934   2.945   0.958
 4853W        W 8904  10.452   4.881  10.812
 4854W        W 8905   3.515  10.844   1.301
 4855W        W 8906   8.031   2.312   2.406
 4856W        W 8907   8.351   0.206   1.968
 4857W        W 8908   2.417   5.117  10.798
 4858W        W 8909   1.879   9.634   2.058
 4859W        W 8910   2.262  10.502   9.624
 4860W        W 8911   3.045   9.348   2.656
 4861W        W 8912   6.773   2.613   2.714
 4862W        W 8913  10.686   5.487   3.154
 4863W        W 8914   6.829   8.016   1.084
 4864W        W 8915   3.912   8.769   0.446
 4865W        W 8916   8.554  10.873   9.029
 4866W        W 8917   9.937  10.949  10.882
 4867W        W 8918   0.222  11.350   8.788
 4868W        W 8919   9.408   7.490   2.542
 4869W        W 8920  11.426   6.558   1.343
 4870W        W 8921  10.477   3.202   3.209
 4871W        W 8922   4.884   1.779   2.320
 4872W        W 8923  10.333   4.639  11.903
 4873W        W 8924   7.586   2.031   3.026
 4874W        W 8925   6.110   8.418   1.784
 4875W        W 8926  10.871   0.595   2.293
 4876W        W 8927   3.907   1.390   2.863
 4877W        W 8928   1.448   6.101   0.564
 4878W        W 8929   6.168   5.047   0.025
 4879W        W 8930   7.050   5.166   1.162
 4880W        W 8931   2.329  10.314   1.408
 4881W        W 8932   8.908   1.280   2.224
 4882W        W 8933   8.566  10.376   9.947
 4883W        W 8934   0.730   0.579  11.426
 4884W        W 8935   1.497   4.112   2.322
 4885W        W 8936   4.077   6.321   8.089
 4886W        W 8937   8.859   2.101   3.144
 4887W        W 8938   2.178   2.349   2.295
 4888W        W 8939  10.589   0.303   9.807
 4889W        W 8940   0.767   9.493  10.388
 4890W        W 8941   3.592   7.480  11.262
 4891W        W 8942   7.723   5.075  11.053
 4892W        W 8943   3.148   6.734   8.468
 4893W        W 8944   0.927   7.968   0.574
 4894W        W 8945   5.992   2.578   3.654
 4895W        W 8946   3.186   7.606  10.515
 4896W        W 8947   8.374  10.884  10.005
 4897W        W 8948   9.576  10.889   8.943
 4898W        W 8949   3.509   8.892   9.523
 4899W        W 8950   7.789   3.617   1.896
 4900W        W 8951   2.952   1.157  10.921
 4901W        W 8952   2.310   7.437  11.065
 4902W        W 8953   7.959   5.516  10.313
 4903W        W 8954   5.191   8.617   1.667
 4904W        W 8955  11.459   2.058   9.949
 4905W        W 8956   6.616   1.442   0.368
 4906W        W 8957   2.610   5.763   0.257
 4907W        W 8958   0.863   3.585  11.948
 4908W        W 8959   3.695   6.289   8.981
 4909W        W 8960   0.871   9.542   9.076
 4910W        W 8961  10.139   6.593   3.836
 4911W        W 8962   4.666   7.483  11.066
 4912W        W 8963   7.117   8.058   0.232
 4913W        W 8964   9.997   5.173   9.539
 4914W        W 8965   0.327   1.652   2.304
 4915W        W 8966   2.872   1.412   2.843
 4916W        W 8967   1.509  10.409   2.281
 4917W        W 8968  11.424   6.983  11.448
 4918W        W 8969   9.499   3.445   2.167
 4919W        W 8970   8.962   0.884   9.343
 4920W        W 8971   3.666  10.352   1.181
 4921W        W 8972  10.904   2.213  11.437
 4922W        W 8973  10.448   0.104   9.330
 4923W        W 8974   9.261   6.082   2.434
 4924W        W 8975   6.883   7.487   3.189
 4925W        W 8976   6.263  11.308   1.655
 4926W        W 8977   6.419   5.855   9.630
 4927W        W 8978   7.241   2.735   1.361
 4928W        W 8979  10.230   6.509   1.926
 4929W        W 8980   0.773   5.757  11.042
 4930W        W 8981   5.468   2.836   2.419
 4931W        W 8982   7.527   0.473   0.446
 4932W        W 8983   1.120   6.026   0.945
 4933W        W 8984   3.606   8.449   3.157
 4934W        W 8985  10.215   1.151   0.029
 4935W        W 8986   2.770   1.903   0.670
 4936W        W 8987   3.195  10.471   9.553
 4937W        W 8988   3.920   6.970  11.160
 4938W        W 8989   7.427   1.978  10.528
 4939W        W 8990   4.239   2.394   8.836
 4940W        W 8991   3.395   9.878  11.933
 4941W        W 8992   8.755   3.833   1.713
 4942W        W 8993   8.028   6.466   2.771
 4943W        W 8994   1.158  10.449  11.967
 4944W        W 8995  10.439   7.482   0.158
 4945W        W 8996  10.847   1.558   2.436
 4946W        W 8997   9.936   8.954   0.463
 4947W        W 8998   9.622   4.211   8.979
 4948W        W 8999   2.620   1.353  11.259
 4949W        W 9000   4.206  11.014   1.687
 4950W        W 9001   7.006   0.829   3.135
 4951W        W 9002   8.524   8.825   1.708
 4952W        W 9003   1.686   3.074   2.773
 4953W        W 9004  11.494   2.874  10.451
 4954W        W 9005   8.879   7.820  10.625
 4955W        W 9006   5.936  10.441   1.169
 4956W        W 9007   2.818  11.406   2.683
 4957W        W 9008   2.601   2.441   1.290
 4958W        W 9009  10.333   7.428   2.419
 4959W        W 9010   9.330   4.813   2.297
 4960W        W 9011   2.909   5.080   1.203
 4961W        W 9012  10.371   1.656  10.959
 4962W        W 9013  10.897   6.116   3.239
 4963W        W 9014   1.272   4.297   9.404
 4964W        W 9015   1.361   0.370   1.997
 4965W        W 9016   7.218   7.917  11.508
 4966W        W 9017   3.814   8.152   1.944
 4967W        W 9018   1.710   8.138   2.283
 4968W        W 9019   5.884   7.251  11.773
 4969W        W 9020   0.652   3.274   3.486
 4970W        W 9021   2.174   5.800   3.267
 4971W        W 9022  10.320  11.399   2.516
 4972W        W 9023   6.461   0.951  10.426
 4973W        W 9024   6.511   6.219   2.026
 4974W        W 9025  10.129   5.104  11.918
 4975W        W 9026  10.999   4.974  10.790
 4976W        W 9027   8.786   6.496   8.279
 4977W        W 9028   1.751   4.984   0.776
 4978W        W 9029   6.449   5.713   0.418
 4979W        W 9030   6.661   4.939  11.963
 4980W        W 9031   6.244  10.438   1.662
 4981W        W 9032  11.070   0.492   9.886
 4982W        W 9033  10.159   3.778   0.230
 4983W        W 9034   5.222   6.718   2.266
 4984W        W 9035   9.367   5.963   9.496
 4985W        W 9036   0.403   9.029  11.592
 4986W        W 9037   2.312   3.728   0.334
 4987W        W 9038   4.930   9.971   9.220
 4988W        W 9039   9.090   5.520   9.546
 4989W        W 9040   1.739   6.756   9.888
 4990W        W 9041   4.743  11.472  11.565
 4991W        W 9042   7.047   5.542  11.205
 4992W        W 9043   2.493   4.145   2.269
 4993W        W 9044   6.740  11.057   3.551
 4994W        W 9045   7.905   5.910  11.444
 4995W        W 9046   6.726   7.981   0.583
 4996W        W 9047   3.506   7.909   2.301
 4997W        W 9048   8.385   6.062  11.403
 4998W        W 9049  11.418   6.438   9.856
 4999W        W 9050   1.973   2.681   9.364
 5000W        W 9051   7.331   9.731   8.596
 5001W        W 9052   5.794   6.664   1.390
 5002W        W 9053  11.261   2.144   8.969
 5003W        W 9054   8.267  10.559  11.441
 5004W        W 9055   0.182   8.077  11.279
 5005W        W 9056   9.997   5.141   3.504
 5006W        W 9057   0.919   9.014   3.658
 5007W        W 9058   2.875   6.534  11.922
 5008W        W 9059   7.294  10.452  11.334
 5009W        W 9060   4.026   0.191   3.561
 5010W        W 9061   8.045   6.852   1.238
 5011W        W 9062   8.615   4.041   2.714
 5012W        W 9063   3.629  11.230   0.871
 5013W        W 9064   0.697   7.748   2.422
 5014W        W 9065   5.452   9.424   3.663
 5015W        W 9066   0.994   9.615  10.905
 5016W        W 9067   7.404   2.583   9.912
 5017W        W 9068   4.166   6.077   1.673
 5018W        W 9069   7.598  11.034   2.686
 5019W        W 9070   8.557   7.418  10.706
 5020W        W 9071   6.555   6.151   8.197
 5021W        W 9072   2.679   6.459   0.947
 5022W        W 9073   3.261   2.617   0.001
 5023W        W 9074   6.540   8.466   9.168
 5024W        W 9075   2.617  11.107   1.062
 5025W        W 9076   6.591  10.308   2.514
 5026W        W 9077   3.110   1.198   1.065
 5027W        W 9078   8.731  10.320   9.022
 5028W        W 9079   5.462   3.136   9.291
 5029W        W 9080   5.940   5.790  10.505
 5030W        W 9081  10.037   3.698  11.738
 5031W        W 9082  10.005   5.599   9.165
 5032W        W 9083   8.515   2.603  10.094
 5033W        W 9084   5.290   2.140  11.487
 5034W        W 9085   0.552   2.315  10.364
 5035W        W 9086   1.371   9.509  11.555
 5036W        W 9087   6.673   8.392   2.310
 5037W        W 9088   8.167   9.448   3.217
 5038W        W 9089   9.854   8.658   2.840
 5039W        W 9090   2.511   6.693   3.469
 5040W        W 9091   1.373   1.451   1.816
 5041W        W 9092   9.807   9.342   2.166
 5042W        W 9093   5.320   5.115  11.600
 5043W        W 9094   6.706  11.435   1.434
 5044W        W 9095   8.882   8.335   8.084
 5045W        W 9096   2.747   7.913   9.878
 5046W        W 9097   1.690   1.545   2.596
 5047W        W 9098   5.792   9.128   0.532
 5048W        W 9099  10.925   5.548  11.880
 5049W        W 9100   1.449   4.533   8.990
 5050W        W 9101   5.599   6.151  10.656
 5051W        W 9102  11.257  10.746   9.463
 5052W        W 9103   9.357   1.820   1.046
 5053W        W 9104   5.276   1.387   8.612
 5054W        W 9105   9.626   3.795   9.484
 5055W        W 9106   2.478   2.937  10.517
 5056W        W 9107   3.753   8.461   9.238
 5057W        W 9108  11.135   1.496   0.949
 5058W        W 9109   8.622  10.833  10.459
 5059W        W 9110   5.595   7.642   8.270
 5060W        W 9111   1.367   5.673   2.754
 5061W        W 9112   7.572  10.925   1.291
 5062W        W 9113   0.475   1.470   0.313
 5063W        W 9114   4.515   1.268   0.003
 5064W        W 9115   0.271   7.502   2.522
 5065W        W 9116   2.470   5.301   0.515
 5066W        W 9117   7.813   5.500  11.712
 5067W        W 9118   7.586   8.917  10.186
 5068W        W 9119   3.083   1.834  10.054
 5069W        W 9120   4.005   0.462   1.956
 5070W        W 9121   7.502   0.679  11.609
 5071W        W 9122   4.088   4.820   0.806
 5072W        W 9123   9.606   1.342   2.907
 5073W        W 9124   6.651   7.551   9.162
 5074W        W 9125   3.253   7.812   8.930
 5075W        W 9126  11.473   0.775  10.814
 5076W        W 9127   1.410   5.071   8.980
 5077W        W 9128   7.227  10.415   3.305
 5078W        W 9129   1.339   2.323   2.888
 5079W        W 9130   8.782   3.135  10.988
 5080W        W 9131   1.770   7.644  11.863
 5081W        W 9132   4.089   2.212   2.180
 5082W        W 9133  10.105   1.723  11.397
 5083W        W 9134   3.340   8.618   2.727
 5084W        W 9135   7.840   7.453   3.256
 5085W        W 9136   4.605   4.403  11.331
 5086W        W 9137  11.309   9.258  11.278
 5087W        W 9138   8.562   7.179  10.245
 5088W        W 9139   3.455   7.081  10.970
 5089W        W 9140   1.935   0.264   9.996
 5090W        W 9141   2.927  10.051   0.509
 5091W        W 9142   0.516  11.009   9.072
 5092W        W 9143   1.775   6.441   2.452
 5093W        W 9144   3.599   8.859  10.017
 5094W        W 9145   8.536   2.851   3.169
 5095W        W 9146   7.002   0.709  11.781
 5096W        W 9147   9.341  11.161  11.694
 5097W        W 9148   9.327  11.086   9.363
 5098W        W 9149   2.674   5.573   9.261
 5099W        W 9150   1.378   7.894  10.409
 5100W        W 9151   4.355   9.103   8.573
 5101W        W 9152  11.116   9.615   3.088
 5102W        W 9153   0.793   6.611   0.272
 5103W        W 9154   3.812   8.005   0.517
 5104W        W 9155   2.465   9.605  11.133
 5105W        W 9156   9.021   6.289   1.780
 5106W        W 9157   4.339   7.117   2.623
 5107W        W 9158  10.793   8.244   3.142
 5108W        W 9159   6.618   9.411   0.552
 5109W        W 9160   1.365   0.460   0.939
 5110W        W 9161   4.538   3.023   1.911
 5111W        W 9162   8.590   3.608   8.357
 5112W        W 9163   4.489   5.982  10.654
 5113W        W 9164   4.498   1.455   3.324
 5114W        W 9165   3.476   9.104   2.763
 5115W        W 9166   0.820   5.324   3.162
 5116W        W 9167   0.252  11.032   3.643
 5117W        W 9168   0.238   9.439  10.418
 5118W        W 9169   1.880  10.901   2.613
 5119W        W 9170   1.980   3.189   3.423
 5120W        W 9171  11.441  10.806   2.339
 5121W        W 9172   0.387   5.408  11.660
 5122W        W 9173   1.742  11.359   1.914
 5123W        W 9174   3.749   7.617   1.893
 5124W        W 9175   7.990   6.934  11.520
 5125W        W 9176   4.603   4.375   1.708
 5126W        W 9177  10.837   0.977  10.064
 5127W        W 9178  10.621   2.240  11.869
 5128W        W 9179   5.476   5.213  10.202
 5129W        W 9180   7.444   8.854  10.672
 5130W        W 9181   4.037   3.118  10.511
 5131W        W 9182   0.718   4.328   9.052
 5132W        W 9183   3.234   6.691   9.365
 5133W        W 9184   4.488   3.729   2.324
 5134W        W 9185  10.867   2.155   3.570
 5135W        W 9186   6.542   9.821   2.330
 5136W        W 9187   0.956   1.603   3.303
 5137W        W 9188   0.947   1.894  11.488
 5138W        W 9189   1.389   9.920  11.242
 5139W        W 9190   2.634   3.783   9.933
 5140W        W 9191   3.386   3.198  11.967
 5141W        W 9192   0.994   7.937   2.847
 5142W        W 9193   8.144   4.620   3.149
 5143W        W 9194   5.994   2.849   8.588
 5144W        W 9195  10.386   7.004   3.234
 5145W        W 9196   6.204   1.788   0.269
 5146W        W 9197  11.465   9.213   1.774
 5147W        W 9198   0.410   9.553   2.469
 5148W        W 9199   5.048   4.303   3.562
 5149W        W 9200   1.569   1.900   1.695
 5150W        W 9201   2.226   0.779   1.148
 5151W        W 9202   5.248   1.250   1.617
 5152W        W 9203   3.060   5.360   3.376
 5153W        W 9204   6.054   7.440  10.762
 5154W        W 9205  10.840   2.788  10.054
 5155W        W 9206   6.176   2.142  11.869
 5156W        W 9207   4.596   4.836  11.959
 5157W        W 9208  10.604   1.410   3.221
 5158W        W 9209   0.890   8.424   1.234
 5159W        W 9210   5.706   0.947   9.404
 5160W        W 9211   6.898   4.082   1.845
 5161W        W 9212   3.596   5.202   8.316
 5162W        W 9213   8.843  11.362   1.172
 5163W        W 9214   3.716   7.464  11.746
 5164W        W 9215   9.068   2.282  10.982
 5165W        W 9216   9.960   9.832   9.323
 5166W        W 9217   4.203   5.177   1.580
 5167W        W 9218   2.435  10.396   2.579
 5168W        W 9219   1.303   4.737   0.708
 5169W        W 9220   1.269   8.139   1.049
 5170W        W 9221   1.904   4.094  10.114
 5171W        W 9222   2.705   4.634   2.452
 5172W        W 9223   7.913   8.808  11.576
 5173W        W 9224   8.564   5.748   2.633
 5174W        W 9225  10.268   7.015   0.941
 5175W        W 9226   0.931   4.176   3.529
 5176W        W 9227   0.908   5.532   2.508
 5177W        W 9228   8.778   6.088   1.014
 5178W        W 9229   1.681   4.180   2.829
 5179W        W 9230   2.065   9.488   3.154
 5180W        W 9231   5.121   7.016   0.209
 5181W        W 9232  10.744   2.677   1.662
 5182W        W 9233   9.524   5.743   8.996
 5183W        W 9234  10.850  10.404   8.780
 5184W        W 9235   3.609   4.205   1.458
 5185W        W 9236   0.428   5.479  10.760
 5186W        W 9237   6.089   7.636   1.271
 5187W        W 9238   9.691   1.186   3.384
 5188W        W 9239   3.371   4.290   9.877
 5189W        W 9240  10.871   1.040   3.402
 5190W        W 9241   8.094   1.915   9.104
 5191W        W 9242   6.074   0.940   3.531
 5192W        W 9243   0.712  10.853  10.314
 5193W        W 9244   6.907   9.611   8.855
 5194W        W 9245  11.050   2.466   2.642
 5195W        W 9246   9.210   5.357   9.084
 5196W        W 9247   0.922   4.159  10.762
 5197W        W 9248   9.523  10.396   2.397
 5198W        W 9249   3.846   6.465  11.282
 5199W        W 9250   1.830   7.547  10.939
 5200W        W 9251   3.720   6.104   2.002
 5201W        W 9252   2.680   1.759   9.288
 5202W        W 9253   8.908   4.160  10.182
 5203W        W 9254   4.966   3.070   9.173
 5204W        W 9255   6.393   6.208   0.502
 5205W        W 9256   8.639   1.909   9.030
 5206W        W 9257   9.357  10.843   2.217
 5207W        W 9258   9.108   5.205   0.027
 5208W        W 9259   4.657   9.492   0.265
 5209W        W 9260   3.397   7.018   2.306
 5210W        W 9261   1.998   6.343   9.746
 5211W        W 9262   6.780  11.132   0.905
 5212W        W 9263   3.998   1.003   9.933
 5213W        W 9264   6.108   0.501   8.814
 5214W        W 9265   9.112   6.605  11.666
 5215W        W 9266   9.517   1.461   1.943
 5216W        W 9267   8.961   8.483   8.573
 5217W        W 9268   6.555   6.779   3.442
 5218W        W 9269  10.413   5.225   0.435
 5219W        W 9270   0.803   7.119  10.512
 5220W        W 9271   2.256   5.569  10.581
 5221W        W 9272   1.510   4.987   9.838
 5222W        W 9273   0.249   2.144  11.438
 5223W        W 9274   9.430  11.470   2.964
 5224W        W 9275   7.983   1.198   0.172
 5225W        W 9276   3.357   7.060   1.279
 5226W        W 9277   3.565   8.468   1.128
 5227W        W 9278   8.936   7.313  11.541
 5228W        W 9279   2.466   4.235   0.100
 5229W        W 9280   0.869   0.317   1.329
 5230W        W 9281   5.291   1.102   9.059
 5231W        W 9282   7.951   9.351  10.878
 5232W        W 9283   1.253   8.653  11.086
 5233W        W 9284   2.643   0.095   2.202
 5234W        W 9285   3.167  10.836   0.145
 5235W        W 9286   0.645   5.484   0.439
 5236W        W 9287   1.116   1.843   9.496
 5237W        W 9288   2.063   2.912  10.830
 5238W        W 9289   8.471   4.926   2.318
 5239W        W 9290   6.651   0.426  11.209
 5240W        W 9291   9.377   9.863  11.960
 5241W        W 9292   9.671   8.539   1.145
 5242W        W 9293  11.140   8.171  10.721
 5243W        W 9294  11.031   3.976  10.977
 5244W        W 9295   9.318   2.167  11.507
 5245W        W 9296   3.203   4.779   2.516
 5246W        W 9297  11.224   0.475   0.079
 5247W        W 9298   1.471   2.758   9.445
 5248W        W 9299   9.815   2.143  11.486
 5249W        W 9300   7.593   4.128  10.172
 5250W        W 9301   0.683   7.607   3.061
 5251W        W 9302   0.945   2.787  11.367
 5252W        W 9303   6.075   2.060  10.848
 5253W        W 9304   7.224   1.482  11.357
 5254W        W 9305   1.785   8.195   3.121
 5255W        W 9306   3.921   2.797   1.155
 5256W        W 9307   8.532  10.012  11.813
 5257W        W 9308  10.358   1.239   1.795
 5258W        W 9309   1.720   0.024   0.941
 5259W        W 9310   9.258   7.616   1.545
 5260W        W 9311   9.561   8.939   9.882
 5261W        W 9312   9.126   5.410   1.912
 5262W        W 9313   3.706   3.108   9.587
 5263W        W 9314   1.732   0.738   3.125
 5264W        W 9315   7.080   6.318  10.140
 5265W        W 9316   5.132   0.747  10.747
 5266W        W 9317   2.863   2.810   1.494
 5267W        W 9318   1.345   8.915   9.528
 5268W        W 9319   4.397   9.956  11.668
 5269W        W 9320   9.363   3.852   9.933
 5270W        W 9321   2.808   0.036   1.251
 5271W        W 9322  10.773   5.381  11.018
 5272W        W 9323   1.340   7.584   0.358
 5273W        W 9324   0.031   4.781  11.036
 5274W        W 9325  11.054   3.516  11.805
 5275W        W 9326   1.224   4.667   2.317
 5276W        W 9327   4.963  10.390   9.548
 5277W        W 9328   4.286   7.136   3.148
 5278W        W 9329   3.421   6.667   0.721
 5279W        W 9330   5.717   8.520  11.344
 5280W        W 9331   9.631   5.128  11.942
 5281W        W 9332   3.402   0.242  10.940
 5282W        W 9333   6.447   3.591   2.400
 5283W        W 9334   9.121   2.430  11.904
 5284W        W 9335   2.738  10.295   9.645
 5285W        W 9336   4.853  10.085  11.454
 5286W        W 9337   8.927   2.920   1.788
 5287W        W 9338   2.874   9.435  10.863
 5288W        W 9339  11.320   1.250   3.366
 5289W        W 9340   3.452   8.840  11.075
 5290W        W 9341   0.376   4.477  10.727
 5291W        W 9342   6.230   8.649   1.161
 5292W        W 9343   2.297   5.650  10.094
 5293W        W 9344   0.474   1.781   1.392
 5294W        W 9345   0.800   6.559   9.548
 5295W        W 9346   0.903   1.361   2.280
 5296W        W 9347  10.783   4.153  11.830
 5297W        W 9348   1.213   9.762  10.306
 5298W        W 9349   4.344   6.523  11.324
 5299W        W 9350   9.140   7.101   2.355
 5300W        W 9351   1.225   6.241   9.470
 5301W        W 9352   3.347  11.287  10.150
 5302W        W 9353   5.128   0.303  10.999
 5303W        W 9354  11.460   1.717   3.197
 5304W        W 9355   1.422   3.144   2.348
 5305W        W 9356  10.832   7.412   0.489
 5306W        W 9357  10.748   6.575   0.410
 5307W        W 9358   5.180   9.948   1.692
 5308W        W 9359   9.481   4.880  11.079
 5309W        W 9360   7.025   0.988   0.799
 5310W        W 9361   2.095   1.570  11.062
 5311W        W 9362   6.188   0.875   1.925
 5312W        W 9363   7.964   1.360  10.920
 5313W        W 9364   1.592   4.209  10.541
 5314W        W 9365  10.812   8.619   2.728
 5315W        W 9366   5.276   0.687   0.283
 5316W        W 9367   3.599   9.637   1.598
 5317W        W 9368   3.347   6.688  11.844
 5318W        W 9369   8.381   1.686  10.832
 5319W        W 9370   1.485   4.513  11.305
 5320W        W 9371  10.386   1.575  11.832
 5321W        W 9372   5.225   0.343   9.990
 5322W        W 9373   9.880   2.688   9.835
 5323W        W 9374   6.622   4.054   0.986
 5324W        W 9375   1.327   6.088  10.374
 5325W        W 9376   7.685   2.171  10.074
 5326W        W 9377  10.620  11.074   2.270
 5327W        W 9378   9.746   5.258  10.839
 5328W        W 9379   0.026   5.559   2.780
 5329W        W 9380   5.823   6.071   2.697
 5330W        W 9381   6.847   9.768   3.664
 5331W        W 9382   3.887   4.208   2.309
 5332W        W 9383   9.856  11.461   2.687
 5333W        W 9384   4.679   7.354   1.993
 5334W        W 9385   3.881   0.572   0.450
 5335W        W 9386   8.703   7.380  11.991
 5336W        W 9387   5.140   3.502   0.018
 5337W        W 9388   1.418   7.522   9.492
 5338W        W 9389  11.365   5.569  10.227
 5339W        W 9390   2.378   2.985   9.370
 5340W        W 9391   9.005   1.470   0.239
 5341W        W 9392   8.013   7.436  11.574
 5342W        W 9393   8.056   8.791   2.988
 5343W        W 9394   7.653   1.521  10.565
 5344W        W 9395   5.706   2.359  11.272
 5345W        W 9396   7.959   1.876  11.054
 5346W        W 9397   1.415   0.048   0.494
 5347W        W 9398   6.646   4.998  10.561
 5348W        W 9399   1.002   1.976  10.348
 5349W        W 9400   1.760   3.484   3.066
 5350W        W 9401   0.050   9.004   0.821
 5351W        W 9402  10.127   4.230  11.008
 5352W        W 9403   3.007   7.886   8.014
 5353W        W 9404   2.033   5.106   0.356
 5354W        W 9405  10.360   1.413   2.274
 5355W        W 9406   1.382   0.253   2.495
 5356W        W 9407   0.106   5.284   8.540
 5357W        W 9408   2.697   0.877  11.892
 5358W        W 9409   2.721   0.581   2.390
 5359W        W 9410   4.703   7.930  10.802
 5360W        W 9411   0.454   4.543  11.243
 5361W        W 9412   0.956   5.812   3.025
 5362W        W 9413   9.020  10.891   1.832
 5363W        W 9414   3.756  11.479   2.820
 5364W        W 9415   6.439   1.510  11.893
 5365W        W 9416   6.643  10.429   8.930
 5366W        W 9417   4.321   4.685   9.148
 5367W        W 9418   7.233   3.363  10.546
 5368W        W 9419   9.437  10.245   0.877
 5369W        W 9420   9.067  10.805   9.020
 5370W        W 9421   1.913  11.256   9.367
 5371W        W 9422  10.240   9.620  11.977
 5372W        W 9423   0.399   4.634   0.704
 5373W        W 9424   6.077   4.605   2.682
 5374W        W 9425   8.030  10.051   9.594
 5375W        W 9426  11.414   0.125  10.086
 5376W        W 9427   4.416   2.789  10.603
 5377W        W 9428   2.832  10.802   9.433
 5378W        W 9429   5.516   4.613   9.608
 5379W        W 9430  10.335   2.899  10.009
 5380W        W 9431   5.070   0.346  11.951
 5381W        W 9432   7.519   4.020   1.067
 5382W        W 9433   6.804   7.117  10.393
 5383W        W 9434   4.581   4.634   2.502
 5384W        W 9435   7.127   5.296  10.356
 5385W        W 9436   6.242   3.875  11.414
 5386W        W 9437   2.921   6.618  11.415
 5387W        W 9438   9.919   9.608   1.737
 5388W        W 9439   9.020   8.952   8.876
 5389W        W 9440   8.963  11.476  11.954
 5390W        W 9441   7.530   9.683   0.493
 5391W        W 9442   2.671   1.438   0.846
 5392W        W 9443   1.191   8.384   0.241
 5393W        W 9444   8.103   2.363  11.003
 5394W        W 9445   1.152   9.147  11.027
 5395W        W 9446   5.716   1.453   1.427
 5396W        W 9447   6.192   3.794   3.336
 5397W        W 9448   4.152   8.239  10.745
 5398W        W 9449   8.088   6.775   9.567
 5399W        W 9450   3.865   8.662   1.852
 5400W        W 9451   9.027  11.364   3.263
 5401W        W 9452   4.165   8.867   1.238
 5402W        W 9453   6.097   1.901  10.371
 5403W        W 9454   8.656   9.475   3.357
 5404W        W 9455   3.658   7.512   9.720
 5405W        W 9456   3.562   0.970   2.677
 5406W        W 9457   1.217  10.836  10.307
 5407W        W 9458   8.854  10.403   1.144
 5408W        W 9459  11.315   4.695   2.159
 5409W        W 9460   5.241   2.742   8.496
 5410W        W 9461   4.285   5.200   1.078
 5411W        W 9462   1.726   6.449   3.033
 5412W        W 9463   0.244  11.445   9.292
 5413W        W 9464   3.253   1.273  10.511
 5414W        W 9465   9.999   8.619   0.066
 5415W        W 9466   3.404  10.994   8.395
 5416W        W 9467   5.430   9.505   1.429
 5417W        W 9468   5.509   8.927  10.345
 5418W        W 9469   6.035   4.528   9.689
 5419W        W 9470   2.902   8.131  11.466
 5420W        W 9471   8.481  11.267   8.680
 5421W        W 9472   0.836   2.360  10.802
 5422W        W 9473   9.454   4.544   0.494
 5423W        W 9474   2.440   3.233   2.297
 5424W        W 9475  10.095   2.268   2.277
 5425W        W 9476   7.272   6.155   8.757
 5426W        W 9477  10.683   0.315   2.797
 5427W        W 9478   7.566   0.452   1.442
 5428W        W 9479   7.600   9.928   9.285
 5429W        W 9480   3.653   2.692   2.849
 5430W        W 9481  10.389   6.006   9.015
 5431W        W 9482   0.392   3.704   9.385
 5432W        W 9483   8.740   6.354  10.002
 5433W        W 9484  10.974   4.598   9.891
 5434W        W 9485   5.034   4.750   0.670
 5435W        W 9486   3.828   9.879   3.040
 5436W        W 9487   9.023   3.803   2.878
 5437W        W 9488   2.167   0.847   2.628
 5438W        W 9489   7.041   5.502   1.551
 5439W        W 9490   0.023   6.144   0.536
 5440W        W 9491   4.644   9.845   3.124
 5441W        W 9492  10.673   3.097  11.542
 5442W        W 9493   9.892   2.248   9.564
 5443W        W 9494   3.153   4.251   8.861
 5444W        W 9495  10.036   0.365  11.328
 5445W        W 9496   8.047   2.658   3.368
 5446W        W 9497   3.935   5.251  11.085
 5447W        W 9498   1.151   4.245  10.304
 5448W        W 9499   0.459   1.206   2.081
 5449W        W 9500   4.316   0.259  11.515
 5450W        W 9501   3.355   0.333  10.415
 5451W        W 9502   5.873   0.527   1.750
 5452W        W 9503   5.268   7.894   2.225
 5453W        W 9504   4.651   8.522  11.931
 5454W        W 9505   8.431   7.190   1.146
 5455W        W 9506   9.476   6.547   2.595
 5456W        W 9507   8.294   3.820   9.146
 5457W        W 9508   3.288   7.948  11.204
 5458W        W 9509   8.247   3.186   8.493
 5459W        W 9510   7.421   6.119   2.146
 5460W        W 9511  10.837   5.679   9.053
 5461W        W 9512   5.958   9.171   9.492
 5462W        W 9513   5.729  11.015  11.958
 5463W        W 9514   8.925  10.002   9.585
 5464W        W 9515   5.237   1.626   9.755
 5465W        W 9516   8.992   6.436   1.303
 5466W        W 9517   4.772   9.929   0.025
 5467W        W 9518   7.715   7.581  11.964
 5468W        W 9519   0.687   2.220   1.205
 5469W        W 9520  10.929   4.291   9.318
 5470W        W 9521  10.741  11.268   8.537
 5471W        W 9522   1.291   5.251   0.757
 5472W        W 9523   7.027   9.837   1.719
 5473W        W 9524   8.088   5.413  11.285
 5474W        W 9525   1.179   5.226  10.149
 5475W        W 9526   2.700   3.287   0.744
 5476W        W 9527   7.493  10.554   1.685
 5477W        W 9528  10.009  10.445  10.810
 5478W        W 9529   6.279   6.655   2.199
 5479W        W 9530  10.275   9.192   2.273
 5480W        W 9531   2.402   2.306   1.810
 5481W        W 9532   8.852   7.638   0.784
 5482W        W 9533  10.957   4.712   1.190
 5483W        W 9534   9.809  10.987  11.793
 5484W        W 9535  11.132   2.239  11.936
 5485W        W 9536   3.902   1.599  11.485
 5486W        W 9537  11.426   4.283   8.521
 5487W        W 9538   7.579   7.080  11.801
 5488W        W 9539   5.945   2.759   1.864
 5489W        W 9540   1.814  10.888   2.105
 5490W        W 9541   6.052  10.586   3.719
 5491W        W 9542   8.753   8.929  11.592
 5492W        W 9543  10.535   4.086   3.638
 5493W        W 9544   4.599   0.459  10.417
 5494W        W 9545   5.232   0.847   2.442
 5495W        W 9546   7.364   7.628   3.229
 5496W        W 9547   9.656   2.637   2.850
 5497W        W 9548   1.799   0.429   8.482
 5498W        W 9549   8.059   6.830  10.376
 5499W        W 9550   9.391   1.085   8.562
 5500W        W 9551   6.906   2.471  11.522
 5501W        W 9552   8.623   0.749  10.672
 5502W        W 9553   0.730   7.593   8.914
 5503W        W 9554   2.185   3.636  11.815
 5504W        W 9555   9.436  10.828  10.802
 5505W        W 9556   8.886   4.340   1.745
 5506W        W 9557   4.844   7.126   8.949
 5507W        W 9558   5.305   8.293   2.625
 5508W        W 9559   0.483   3.191   9.251
 5509W        W 9560  10.527   6.134   0.345
 5510W        W 9561  10.922   6.617   9.114
 5511W        W 9562   0.959   6.159   0.435
 5512W        W 9563   5.857   1.377   0.240
 5513W        W 9564   1.341   8.948   1.512
 5514W        W 9565   7.715   2.470   1.270
 5515W        W 9566   2.718   3.015   8.795
 5516W        W 9567   9.469   9.160   0.348
 5517W        W 9568   3.678   0.868  11.830
 5518W        W 9569  10.093   5.174   0.847
 5519W        W 9570  11.077   7.395   2.019
 5520W        W 9571   1.631   8.034   8.806
 5521W        W 9572   1.570   2.889  11.946
 5522W        W 9573   4.166   1.266   9.495
 5523W        W 9574   6.080   3.252  11.616
 5524W        W 9575   6.152   6.719   9.380
 5525W        W 9576  11.354   8.901   0.316
 5526W        W 9577   4.094   9.294   0.880
 5527W        W 9578   8.039   5.220   2.356
 5528W        W 9579   6.882   1.673  11.703
 5529W        W 9580   5.295   7.151  10.416
 5530W        W 9581   9.158   8.031   3.251
 5531W        W 9582   7.221   3.783  11.322
 5532W        W 9583   7.115   8.948   1.262
 5533W        W 9584   0.378   5.039   9.773
 5534W        W 9585   9.601   8.892   1.964
 5535W        W 9586   8.433   0.289  10.884
 5536W        W 9587   3.674   4.583   1.074
 5537W        W 9588   6.136   0.310   9.819
 5538W        W 9589   1.516   5.676   0.935
 5539W        W 9590   4.422   0.828   9.604
 5540W        W 9591   3.713   3.628   0.255
 5541W        W 9592   8.786  10.315   0.635
 5542W        W 9593   0.696   4.627   8.624
 5543W        W 9594   2.650   6.444   1.865
 5544W        W 9595   0.694   6.605   8.391
 5545W        W 9596   3.163   0.001   1.897
 5546W        W 9597   9.455   9.757   0.733
 5547W        W 9598   4.491   4.330   1.226
 5548W        W 9599   8.212   3.222   2.641
 5549W        W 9600   7.811   9.070   2.077
 5550W        W 9601   8.574   8.667   0.436
 5551W        W 9602   0.803   8.348  11.827
 5552W        W 9603   9.591   5.553  10.377
 5553W        W 9604   1.273   8.298   3.185
 5554W        W 9605   5.582  10.834  10.096
 5555W        W 9606   5.061   7.613  10.535
 5556W        W 9607   2.054   2.469   8.520
 5557W        W 9608   7.693   8.577   1.371
 5558W        W 9609   5.082  10.465   2.818
 5559W        W 9610  10.993   6.650   0.838
 5560W        W 9611   2.318   2.277  11.981
 5561W        W 9612   9.988   7.653   2.793
 5562W        W 9613   3.668   1.704   8.854
 5563W        W 9614  10.339   7.121  11.067
 5564W        W 9615   2.318   0.966   1.683
 5565W        W 9616   2.591  11.067  11.347
 5566W        W 9617   5.580   0.884  10.989
 5567W        W 9618   4.424   9.848   9.319
 5568W        W 9619   6.447   6.568   0.153
 5569W        W 9620  10.838   3.054   2.012
 5570W        W 9621  10.437   1.120   9.329
 5571W        W 9622   5.960   5.744   9.195
 5572W        W 9623   2.242   2.324   2.816
 5573W        W 9624   8.092   7.835   2.549
 5574W        W 9625   7.508  10.989  11.986
 5575W        W 9626  11.354   8.543   2.795
 5576W        W 9627   4.871   3.980  11.219
 5577W        W 9628   5.606   1.939   1.487
 5578W        W 9629   0.367   2.716   2.855
 5579W        W 9630   7.663  11.379   9.938
 5580W        W 9631   7.743   8.931  11.095
 5581W        W 9632   5.964   3.975   2.375
 5582W        W 9633   5.225   7.437   0.487
 5583W        W 9634   8.169   1.935   1.740
 5584W        W 9635   8.641   8.040   8.598
 5585W        W 9636   5.059   9.345   0.016
 5586W        W 9637   6.972   4.134   3.458
 5587W        W 9638   6.508   7.335   1.488
 5588W        W 9639   6.212   0.437   3.341
 5589W        W 9640   0.394   3.579   0.169
 5590W        W 9641   7.778   7.119  10.707
 5591W        W 9642   0.075   9.787   0.261
 5592W        W 9643   9.057   2.792   0.305
 5593W        W 9644   8.150   1.657   0.371
 5594W        W 9645   2.171   3.876   9.722
 5595W        W 9646   9.537   9.596   8.579
 5596W        W 9647   3.369   8.289   8.431
 5597W        W 9648   5.473   4.393   9.131
 5598W        W 9649   0.782  10.581  11.144
 5599W        W 9650   8.944   8.592  10.228
 5600W        W 9651   5.628   7.575   1.448
 5601W        W 9652   4.269   4.057  10.731
 5602W        W 9653   4.805   1.726  10.012
 5603W        W 9654   8.561   6.696  10.356
 5604W        W 9655   4.047   9.098  10.179
 5605W        W 9656   3.828   5.286   0.783
 5606W        W 9657   8.831   9.969   3.472
 5607W        W 9658   3.678   5.887  11.647
 5608W        W 9659  10.943   3.132   3.480
 5609W        W 9660   4.771   2.616   2.744
 5610W        W 9661   4.063   0.905   2.677
 5611W        W 9662  10.321  10.497   1.058
 5612W        W 9663   3.854   4.890  11.820
 5613W        W 9664   8.616   4.464  10.840
 5614W        W 9665  10.813   0.327   1.855
 5615W        W 9666   3.702   9.457  11.751
 5616W        W 9667  10.265  10.744   9.577
 5617W        W 9668   7.863   5.090   8.652
 5618W        W 9669   9.544   1.202  10.799
 5619W        W 9670   0.353  11.370  11.096
 5620W        W 9671   9.550   0.276   1.428
 5621W        W 9672  11.369   8.099   9.289
 5622W        W 9673   6.020   8.975  10.432
 5623W        W 9674   0.382   0.846   1.140
 5624W        W 9675   6.886   1.662   9.820
 5625W        W 9676   1.331   4.074  11.514
 5626W        W 9677   9.817   7.497   0.803
 5627W        W 9678   7.894   2.721   9.979
 5628W        W 9679   2.679   8.303  10.635
 5629W        W 9680   9.307   6.487   8.251
 5630W        W 9681  11.332   0.010   2.739
 5631W        W 9682   3.744  11.297   3.325
 5632W        W 9683   3.006   7.819   2.249
 5633W        W 9684   3.709   2.941   2.398
 5634W        W 9685   3.688   6.217   3.553
 5635W        W 9686  11.448   9.864   1.276
 5636W        W 9687   7.723   5.178   0.486
 5637W        W 9688   3.150   2.424   1.304
 5638W        W 9689   0.748   7.941   9.808
 5639W        W 9690   0.514   5.799   1.886
 5640W        W 9691   9.552   3.173   1.330
 5641W        W 9692   5.959   8.276   0.232
 5642W        W 9693   2.304   8.966   2.009
 5643W        W 9694   4.575  10.316   9.047
 5644W        W 9695   7.854  11.436   3.000
 5645W        W 9696   9.434   8.160   0.362
 5646W        W 9697   4.200   6.100  11.072
 5647W        W 9698   1.355   6.993  10.555
 5648W        W 9699   8.449   6.233  10.529
 5649W        W 9700   9.318   4.976  11.583
 5650W        W 9701   0.939   3.726   0.942
 5651W        W 9702   8.002   9.034   3.448
 5652W        W 9703   0.405   9.318   8.993
 5653W        W 9704   8.685   1.218   3.082
 5654W        W 9705   8.546   4.723   9.016
 5655W        W 9706   6.465   6.227  10.953
 5656W        W 9707   2.935   4.703  11.432
 5657W        W 9708   2.280   0.544   9.518
 5658W        W 9709   6.567  11.218   2.482
 5659W        W 9710   5.639   5.149   1.773
 5660W        W 9711   6.056   6.283   8.092
 5661W        W 9712   9.805  10.640   2.024
 5662W        W 9713   3.236   3.776   9.126
 5663W        W 9714   1.157   3.260   1.084
 5664W        W 9715   9.097  11.245   9.975
 5665W        W 9716   9.599   2.893  10.481
 5666W        W 9717   5.074   3.251   0.486
 5667W        W 9718   3.382   9.304   2.281
 5668W        W 9719   5.086   7.787   0.122
 5669W        W 9720   3.076   4.126  10.802
 5670W        W 9721   3.632   1.262   0.699
 5671W        W 9722   6.538   4.147   3.169
 5672W        W 9723   7.540   0.316  10.200
 5673W        W 9724   3.609  10.522  11.828
 5674W        W 9725   9.060   2.740   1.261
 5675W        W 9726   3.828  10.833   2.062
 5676W        W 9727   6.159   9.990   1.388
 5677W        W 9728   5.239   7.940   0.875
 5678W        W 9729   7.951   1.404   9.127
 5679W        W 9730   3.384   7.687   0.055
 5680W        W 9731   7.699   1.156  11.731
 5681W        W 9732   9.929  10.736   0.272
 5682W        W 9733   7.276   8.008   9.427
 5683W        W 9734   7.591   9.747  10.778
 5684W        W 9735   3.324   5.238   1.963
 5685W        W 9736   8.442   4.711  10.415
 5686W        W 9737   3.080   0.599   2.753
 5687W        W 9738  10.555   2.349   2.572
 5688W        W 9739  10.022   0.869   9.582
 5689W        W 9740  10.267   9.337   9.513
 5690W        W 9741   9.447   2.728   3.344
 5691W        W 9742   7.381   9.086  11.445
 5692W        W 9743   8.037   3.355   9.163
 5693W        W 9744   5.823   5.541   1.445
 5694W        W 9745   2.206   5.307   3.484
 5695W        W 9746   0.696   5.733   3.448
 5696W        W 9747   4.082   1.444  11.026
 5697W        W 9748   2.663   4.143   1.766
 5698W        W 9749   5.550   8.255   3.230
 5699W        W 9750   6.633   9.971   8.128
 5700W        W 9751   3.349   1.907   1.306
 5701W        W 9752   1.001  10.974   0.796
 5702W        W 9753   6.675   6.701   2.930
 5703W        W 9754   3.879   4.381   0.626
 5704W        W 9755   2.318   0.038   9.532
 5705W        W 9756   0.025  11.412   3.235
 5706W        W 9757   9.163   6.636   9.995
 5707W        W 9758   7.909   4.171   2.201
 5708W        W 9759   9.091   4.234   3.164
 5709W        W 9760   3.242   9.910   1.837
 5710W        W 9761   2.684   6.625   2.379
 5711W        W 9762  10.397   7.059  10.509
 5712W        W 9763   6.762   2.081   2.823
 5713W        W 9764   2.711   9.060  11.482
 5714W        W 9765   4.470   6.761   8.647
 5715W        W 9766   2.111   8.640  11.748
 5716W        W 9767   7.694   3.774  11.527
 5717W        W 9768  10.418   7.627  11.233
 5718W        W 9769   4.414   0.727   1.738
 5719W        W 9770   3.897   4.382  10.521
 5720W        W 9771  10.235  10.441   1.572
 5721W        W 9772   0.083   0.967   1.829
 5722W        W 9773   2.145   7.467   1.006
 5723W        W 9774   1.136   0.238  10.682
 5724W        W 9775  11.296   1.263   1.398
 5725W        W 9776   3.472   9.617   2.797
 5726W        W 9777   3.581   2.312   2.514
 5727W        W 9778   7.654   0.176   9.170
 5728W        W 9779   1.811   1.311   3.409
 5729W        W 9780   3.190   5.708  10.992
 5730W        W 9781   6.972   4.651   0.269
 5731W        W 9782  11.026   0.109   3.130
 5732W        W 9783   4.316   8.677  11.544
 5733W        W 9784   1.212   0.624  10.356
 5734W        W 9785   9.990   1.892  11.891
 5735W        W 9786   5.638   3.253   9.826
 5736W        W 9787   2.518   8.557   8.312
 5737W        W 9788   1.297   1.064  10.604
 5738W        W 9789  10.931   3.299   2.923
 5739W        W 9790   3.976   8.368   1.373
 5740W        W 9791   8.684   7.880  11.908
 5741W        W 9792   9.367   1.805   2.863
 5742W        W 9793   9.430   4.913   0.983
 5743W        W 9794   1.913   3.642   8.876
 5744W        W 9795  11.389   8.856   1.415
 5745W        W 9796   4.219   9.970   0.869
 5746W        W 9797   2.772   1.665   0.199
 5747W        W 9798   7.216   3.828  10.282
 5748W        W 9799   7.718   8.023  11.626
 5749W        W 9800   3.143   3.678   1.837
 5750W        W 9801   5.199   9.039   9.018
 5751W        W 9802  10.631   7.689  11.694
 5752W        W 9803   2.717  10.251   8.739
 5753W        W 9804   0.056   7.478  11.358
 5754W        W 9805   0.291   1.198  11.217
 5755W        W 9806  10.761  11.270   3.415
 5756W        W 9807   5.777   1.504   8.526
 5757W        W 9808   3.291   1.356   9.292
 5758W        W 9809   6.030   6.536   2.659
 5759W        W 9810  10.944   6.251   0.053
 5760W        W 9811   3.866   3.874  10.959
 5761W        W 9812  11.368   7.187   9.415
 5762W        W 9813   0.194   1.400  10.288
 5763W        W 9814   0.800   0.830   2.175
 5764W        W 9815   1.059   6.079  11.347
 5765W        W 9816   3.172   4.950   0.398
 5766W        W 9817   0.688   8.411   0.342
 5767W        W 9818   6.706  11.376   0.364
 5768W        W 9819   9.002   0.938   0.959
 5769W        W 9820  11.282   1.126   9.504
 5770W        W 9821   0.904   4.209   2.246
 5771W        W 9822   8.088   9.235   2.756
 5772W        W 9823   9.474   2.154   1.439
 5773W        W 9824   1.256   7.564  11.854
 5774W        W 9825   2.232   6.129   1.963
 5775W        W 9826   9.478   9.340   1.775
 5776W        W 9827  10.577   6.250  10.760
 5777W        W 9828   9.405   7.029   3.326
 5778W        W 9829   8.600   6.137   1.476
 5779W        W 9830   7.081   6.244   8.282
 5780W        W 9831   0.946   5.324  10.850
 5781W        W 9832   8.883   9.578   2.219
 5782W        W 9833  11.322   7.433   0.305
 5783W        W 9834   8.728   0.367   2.773
 5784W        W 9835   6.695   3.177  10.273
 5785W        W 9836   5.965   9.964   3.403
 5786W        W 9837   5.959   4.581   0.217
 5787W        W 9838   5.728   7.370   3.599
 5788W        W 9839   6.341   8.085  11.838
 5789W        W 9840  11.373   5.759   2.342
 5790W        W 9841  10.808  10.874   0.368
 5791W        W 9842   7.011   3.710  11.807
 5792W        W 9843   6.859   2.291   2.046
 5793W        W 9844   8.155  10.450   0.495
 5794W        W 9845   2.788   1.281   1.739
 5795W        W 9846   8.533   6.665   1.188
 5796W        W 9847   7.981  10.552   2.583
 5797W        W 9848   5.620  10.982   1.643
 5798W        W 9849  11.429   4.781   9.585
 5799W        W 9850   2.879   0.385   9.099
 5800W        W 9851  10.760   4.126  10.552
 5801W        W 9852   3.107   7.132  11.369
 5802W        W 9853   4.633  10.272   2.674
 5803W        W 9854   1.247  10.077   0.917
 5804W        W 9855   5.494   3.661   8.564
 5805W        W 9856   2.307   7.209   0.059
 5806W        W 9857   6.137   9.814  11.839
 5807W        W 9858   4.068   7.534  10.022
 5808W        W 9859   5.297   8.599   4.157
 5809W        W 9860   7.430   0.973   2.890
 5810W        W 9861   0.247   1.352   1.176
 5811W        W 9862   7.139   9.618   9.813
 5812W        W 9863  10.535   2.778  10.476
 5813W        W 9864  11.373   0.725   2.226
 5814W        W 9865   1.311  10.956   3.203
 5815W        W 9866   2.486  10.799   0.692
 5816W        W 9867   0.938   9.563   8.578
 5817W        W 9868   6.722   2.303   8.937
 5818W        W 9869   2.638   0.768  10.795
 5819W        W 9870   4.577   6.192   0.287
 5820W        W 9871   3.430   0.906   0.321
 5821W        W 9872   0.562   9.488  11.794
 5822W        W 9873   5.907   2.280   1.706
 5823W        W 9874   2.783   3.339   9.750
 5824W        W 9875   2.848  10.091  11.452
 5825W        W 9876   5.139   3.296   9.627
 5826W        W 9877   0.201   4.010   8.993
 5827W        W 9878   8.196   3.681  11.513
 5828W        W 9879   6.599   0.138   0.932
 5829W        W 9880   1.783   1.371   0.755
 5830W        W 9881  11.379  10.693   3.768
 5831W        W 9882   0.090   3.840  10.302
 5832W        W 9883  10.257   4.619   3.263
 5833W        W 9884  10.489   7.945   9.064
 5834W        W 9885   5.317   8.027  10.221
 5835W        W 9886   6.973   6.616   0.336
 5836W        W 9887  10.399   6.738  11.530
 5837W        W 9888   6.156   4.566   1.699
 5838W        W 9889  10.527   7.868   1.437
 5839W        W 9890   6.294   7.943  10.048
 5840W        W 9891   4.034   6.444   1.324
 5841W        W 9892   6.713   5.564   0.839
 5842W        W 9893   0.373   0.888   2.962
 5843W        W 9894   3.092   6.219  11.082
 5844W        W 9895   7.278   4.166   0.434
 5845W        W 9896  10.134  10.268   0.282
 5846W        W 9897   6.893   2.167   9.596
 5847W        W 9898  11.060   3.793   2.846
 5848W        W 9899   6.673   0.280  10.237
 5849W        W 9900   1.814   4.383  10.962
 5850W        W 9901  10.845   1.890   9.749
 5851W        W 9902   9.121   7.703   9.274
 5852W        W 9903   0.073   0.068   0.043
 5853W        W 9904   8.276   5.689  11.817
 5854W        W 9905   0.339   9.050   1.235
 5855W        W 9906   4.366   1.754  11.687
 5856W        W 9907   4.194   8.646  10.421
 5857W        W 9908   0.814   4.846  11.464
 5858W        W 9909   6.477   7.189  10.958
 5859W        W 9910   1.744   5.266   8.437
 5860W        W 9911   7.578   0.947   1.571
 5861W        W 9912   7.144   0.146   0.396
 5862W        W 9913   3.511  10.474   9.963
 5863W        W 9914   2.358   0.351   9.060
 5864W        W 9915   9.838  10.094   2.806
 5865W        W 9916   8.242   7.637  11.965
 5866W        W 9917   4.744   6.728   0.679
 5867W        W 9918   9.402   9.260   2.781
 5868W        W 9919  11.083   5.010  10.273
 5869W        W 9920   2.869   4.223   9.840
 5870W        W 9921   3.526   3.053  10.581
 5871W        W 9922  10.919   2.657  11.728
 5872W        W 9923   7.554   1.860   0.334
 5873W        W 9924   7.559   6.676  10.465
 5874W        W 9925   1.904   5.235  10.767
 5875W        W 9926   4.678   9.519  11.720
 5876W        W 9927   7.021   4.322   2.279
 5877W        W 9928   7.105   3.390  10.059
 5878W        W 9929   5.654   5.801   1.007
 5879W        W 9930   2.824   2.855   9.587
 5880W        W 9931  10.601   7.446   1.859
 5881W        W 9932  10.503   4.980   9.488
 5882W        W 9933   7.611  10.425  10.070
 5883W        W 9934   6.302   7.556  11.766
 5884W        W 9935   5.572   8.097  11.746
 5885W        W 9936   9.134   4.162   0.508
 5886W        W 9937  11.259   3.079   9.129
 5887W        W 9938   2.821   8.359  10.147
 5888W        W 9939   7.173   9.245   0.841
 5889W        W 9940   4.213   2.310   9.883
 5890W        W 9941   3.850   6.640   9.883
 5891W        W 9942  11.051   2.718   1.221
 5892W        W 9943   0.224   7.784   2.947
 5893W        W 9944   4.015   1.469  11.965
 5894W        W 9945   5.140   4.659  10.701
 5895W        W 9946   0.285  10.715   0.316
 5896W        W 9947   7.024   7.927  10.915
 5897W        W 9948   1.746   1.785   9.587
 5898W        W 9949  10.168   1.270   3.557
 5899W        W 9950  10.856   9.146   0.532
 5900W        W 9951   8.064   1.565   3.539
 5901W        W 9952   3.611   4.691   8.492
 5902W        W 9953   7.933  10.102  10.594
 5903W        W 9954   5.187   8.071   1.753
 5904W        W 9955   1.823  10.008   2.446
 5905W        W 9956   2.341   1.922   0.393
 5906W        W 9957   6.595   8.180   2.806
 5907W        W 9958   9.827   1.217   1.251
 5908W        W 9959   2.694   3.236   2.740
 5909W        W 9960   8.946   6.857  11.265
 5910W        W 9961   6.140   0.553  11.263
 5911W        W 9962   2.812  10.484   2.916
 5912W        W 9963   9.954  10.818   8.567
 5913W        W 9964   4.631   3.892   0.993
 5914W        W 9965   9.408   9.883   9.896
 5915W        W 9966   5.215   3.732   0.480
 5916W        W 9967   3.287   2.900   0.408
 5917W        W 9968   3.242   1.294   3.856
 5918W        W 9969   0.762  11.208   1.846
 5919W        W 9970   3.713   8.395   0.165
 5920W        W 9971   4.783   8.568  11.405
 5921W        W 9972   9.975  11.374  10.030
 5922W        W 9973   3.777   0.173   8.662
 5923W        W 9974   2.181   9.412   1.676
 5924W        W 9975   9.914   3.779   2.126
 5925W        W 9976  10.901   4.057   9.776
 5926W        W 9977   5.198   7.262   3.183
 5927W        W 9978   5.100   9.477   1.889
 5928W        W 9979   9.054   3.646   2.351
 5929W        W 9980   1.100  10.405   1.692
 5930W        W 9981   1.384   1.435   9.362
 5931W        W 9982   3.340   6.594   3.689
 5932W        W 9983  10.571   7.390   9.443
 5933W        W 9984   6.233   5.591  10.895
 5934W        W 9985  11.323   6.985  11.970
 5935W        W 9986   6.090   5.640   0.776
 5936W        W 9987   4.168   7.932  11.447
 5937W        W 9988   1.264  10.890  11.221
 5938W        W 9989   0.805   3.276  10.537
 5939W        W 9990   4.199   7.823   1.822
 5940W        W 9991   2.957   8.960  11.045
 5941W        W 9992  10.914   1.638   0.440
 5942W        W 9993   4.181   0.185  10.519
 5943W        W 9994   6.400   3.661   2.894
 5944W        W 9995   0.818   7.862   1.049
 5945W        W 9996   1.715   8.949  10.321
 5946W        W 9997   7.315   6.046  11.091
 5947W        W 9998   6.835   7.188   2.737
 5948W        W 9999   8.873   2.223   0.303
 5949W        W10000   2.526   7.799   0.740
 5950W        W10001   6.762   5.483  10.681
 5951W        W10002   9.002   8.077  11.060
 5952W        W10003   3.393   1.818  11.379
 5953W        W10004   8.165   5.388   9.861
 5954W        W10005   0.849  10.696  11.637
 5955W        W10006   2.565   7.556   2.287
 5956W        W10007   2.419   2.893   3.577
 5957W        W10008   1.451   1.198   2.296
 5958W        W10009   4.697   1.961   3.313
 5959W        W10010   5.961   4.695   1.225
 5960W        W10011   8.554  10.406  10.738
 5961W        W10012   2.745   7.404  11.788
 5962W        W10013   8.653   2.838   9.621
 5963W        W10014   7.584   9.879   9.784
 5964W        W10015   4.692   4.290   3.933
 5965W        W10016   4.761   8.824   9.969
 5966W        W10017  11.169   4.307   2.470
 5967W        W10018   8.061  10.524   9.835
 5968W        W10019   1.548  10.013   2.878
 5969W        W10020   1.391  11.435   9.507
 5970W        W10021   2.586   4.118   0.580
 5971W        W10022   9.993   2.082  11.005
 5972W        W10023   4.114  11.205   0.304
 5973W        W10024   8.514   7.617  11.490
 5974W        W10025   7.673   9.584   2.804
 5975W        W10026   3.771   2.454   3.326
 5976W        W10027   7.751   1.508  11.378
 5977W        W10028   7.684   3.116   1.982
 5978W        W10029   9.880   5.402  11.556
 5979W        W10030   2.807   5.256   4.159
 5980W        W10031   8.891   0.506  11.025
 5981W        W10032   4.753   9.936   8.727
 5982W        W10033   6.312   7.036  11.921
 5983W        W10034   9.645   3.342   0.870
 5984W        W10035   0.253   6.950   9.140
 5985W        W10036   9.334   0.169   1.904
 5986W        W10037   8.526   4.659   8.286
 5987W        W10038   9.556   8.630   9.402
 5988W        W10039   2.395   0.471   3.431
 5989W        W10040   2.345   1.409   1.963
 5990W        W10041   6.983   5.651   0.337
 5991W        W10042  10.863   1.691   1.922
 5992W        W10043   0.376   4.235   9.417
 5993W        W10044   5.017  11.342  11.984
 5994W        W10045   6.220   5.273  11.307
 5995W        W10046   5.111  10.447   0.879
 5996W        W10047   9.354   8.010  10.557
 5997W        W10048   0.820  11.078  11.302
 5998W        W10049   6.029   6.943  10.906
 5999W        W10050   8.901   1.823  10.777
 6000W        W10051   8.132   9.111   9.197
 6001W        W10052   7.238   2.231   1.715
 6002W        W10053   0.035   3.833   3.060
 6003W        W10054   8.952   2.120   2.638
 6004W        W10055   3.236   6.206   2.328
 6005W        W10056   7.985   1.928  10.535
 6006W        W10057   8.508   0.708   3.176
 6007W        W10058   5.523   8.045  11.227
 6008W        W10059   3.358   4.492  10.577
 6009W        W10060   4.914   0.149   1.764
 6010W        W10061   8.085   4.926   9.070
 6011W        W10062   6.722   1.360  10.553
 6012W        W10063   6.594   8.957   1.366
 6013W        W10064   0.359   6.527   8.777
 6014W        W10065   7.769   7.067   9.204
 6015W        W10066   8.843   8.482   9.734
 6016W        W10067  10.040  10.713   9.069
 6017W        W10068   6.074   4.161  11.883
 6018W        W10069   7.969   6.832   3.602
 6019W        W10070   9.213   4.752   3.162
 6020W        W10071   9.069   2.916   3.714
 6021W        W10072   5.091   9.959   0.669
 6022W        W10073   3.597   6.559   2.230
 6023W        W10074   3.268   7.036   3.399
 6024W        W10075  10.942  10.985  11.047
 6025W        W10076   1.675  10.399   9.558
 6026W        W10077  10.863   0.534   3.378
 6027W        W10078   6.557   7.496   0.492
 6028W        W10079   5.091  10.973   2.981
 6029W        W10080   5.134   2.326   2.298
 6030W        W10081  10.655   4.058   8.950
 6031W        W10082   2.277   2.809   2.031
 6032W        W10083   9.589   6.947  11.696
 6033W        W10084   3.549   6.883   9.006
 6034W        W10085  11.284  11.175   9.775
 6035W        W10086   3.781   8.881   0.915
 6036W        W10087   6.260   6.815   3.878
 6037W        W10088   5.992   3.398   0.642
 6038W        W10089   7.739   0.686   8.568
 6039W        W10090   3.492   6.582   3.191
 6040W        W10091   2.167   9.140  10.474
 6041W        W10092   5.004   2.427   0.782
 6042W        W10093   8.921   6.198   3.696
 6043W        W10094   2.353   9.398   3.639
 6044W        W10095   6.679  11.353   9.028
 6045W        W10096   1.169   7.862   8.560
 6046W        W10097   7.668   8.207   0.587
 6047W        W10098   4.872  10.724   9.181
 6048W        W10099  10.826   4.557   0.727
 6049W        W10100   6.463   9.052   9.606
 6050W        W10101   7.293   6.683   1.268
 6051W        W10102   2.140   8.280   8.495
 6052W        W10103   0.927   4.548   3.066
 6053W        W10104   4.250   9.100  10.670
 6054W        W10105   0.879   8.743   2.344
 6055W        W10106   1.938   4.683   9.080
 6056W        W10107   2.961   4.293   2.164
 6057W        W10108  11.214   8.910   2.457
 6058W        W10109   3.903   1.055   0.251
 6059W        W10110   2.296   2.776   1.025
 6060W        W10111   7.191  11.257  11.385
 6061W        W10112   8.980   4.947   8.286
 6062W        W10113   9.323   5.814   0.640
 6063W        W10114   9.347   6.170   2.939
 6064W        W10115   6.519  10.320   0.636
 6065W        W10116  10.594   4.398  10.949
 6066W        W10117   1.372  10.279   9.958
 6067W        W10118   5.743   0.887   0.518
 6068W        W10119   8.015  10.938   9.109
 6069W        W10120   8.053   9.529  11.357
 6070W        W10121   9.925   2.918   1.652
 6071W        W10122   0.257  10.894   3.127
 6072W        W10123   8.110   3.110   3.128
 6073W        W10124  10.321   7.444   8.992
 6074W        W10125   6.982   8.008   1.584
 6075W        W10126  11.434   8.336  11.676
 6076W        W10127   5.501   6.954   8.764
 6077W        W10128   7.023  10.348  11.762
 6078W        W10129   4.270   7.965   9.821
 6079W        W10130   8.397   6.119   2.944
 6080W        W10131   4.252   8.952   2.605
 6081W        W10132  11.369   4.304   9.788
 6082W        W10133   0.770   1.739   9.975
 6083W        W10134   7.129   8.380   9.891
 6084W        W10135   6.155   7.618   9.238
 6085W        W10136   1.400   0.238   9.994
 6086W        W10137   5.003  11.176   9.383
 6087W        W10138   7.450   5.704  10.254
 6088W        W10139   6.217   1.937   2.771
 6089W        W10140   2.577   2.135   3.474
 6090W        W10141   7.112   8.197   8.466
 6091W        W10142   4.128   1.681   1.714
 6092W        W10143   1.564   9.242   1.145
 6093W        W10144   8.498   5.435   2.206
 6094W        W10145   0.340   8.374   9.061
 6095W        W10146   8.773   0.441  11.862
 6096W        W10147  10.453   3.578   9.125
 6097W        W10148   6.437  11.455   3.426
 6098W        W10149   1.283   3.780   9.405
 6099W        W10150   5.939   3.472   2.465
 6100W        W10151   9.888   9.582   3.607
 6101W        W10152   4.633   5.736   0.015
 6102W        W10153   8.999   3.733  11.711
 6103W        W10154   8.981   7.105   9.971
 6104W        W10155   9.151   9.993   2.450
 6105W        W10156   6.091   2.455  10.445
 6106W        W10157   2.906   8.470   8.630
 6107W        W10158   8.976   9.830   9.085
 6108W        W10159   8.051   5.966   1.015
 6109W        W10160   5.560   2.803   0.021
 6110W        W10161   0.425   2.229   3.008
 6111W        W10162   6.456   9.518   2.778
 6112W        W10163   5.588   3.308  11.821
 6113W        W10164   3.526   1.425   0.205
 6114W        W10165   8.802   6.167   2.222
 6115W        W10166   4.562   8.530   2.440
 6116W        W10167   0.721  10.013   3.046
 6117W        W10168   5.585   9.290   0.970
 6118W        W10169   3.751   6.125   4.057
 6119W        W10170  10.050  10.797   2.453
 6120W        W10171   0.251  11.361   9.804
 6121W        W10172   6.052   7.578   9.758
 6122W        W10173   2.742   5.175   8.602
 6123W        W10174   2.404   5.753   0.725
 6124W        W10175   5.640   1.810  10.012
 6125W        W10176   6.542   0.748   2.262
 6126W        W10177   1.272   9.194   8.438
 6127W        W10178   8.179   8.654  10.958
 6128W        W10179   3.663   4.829  10.375
 6129W        W10180  11.066   6.981   0.439
 6130W        W10181   2.508   5.244   1.502
 6131W        W10182   4.760   2.332   3.677
 6132W        W10183   9.482   3.127   0.426
 6133W        W10184   7.420   9.534   1.517
 6134W        W10185  10.473   4.028   9.427
 6135W        W10186   8.490   5.698   1.196
 6136W        W10187   4.668   9.542   2.202
 6137W        W10188   8.900  11.270  11.477
 6138W        W10189   6.606  10.009  11.867
 6139W        W10190   2.460   5.264   1.994
 6140W        W10191   7.523   1.689  10.121
 6141W        W10192   9.579   5.179   2.021
 6142W        W10193   7.132  11.349  11.905
 6143W        W10194   7.860   2.322   0.374
 6144W        W10195   0.394   2.612  11.562
 6145W        W10196   8.556   6.578   0.367
 6146W        W10197   0.767   1.802   2.850
 6147W        W10198   0.890   8.094  10.305
 6148W        W10199   1.823   0.982  11.788
 6149W        W10200   4.096   9.419   9.474
 6150W        W10201   4.345   9.839   1.354
 6151W        W10202   6.198  11.435   2.162
 6152W        W10203   1.699  10.651  11.161
 6153W        W10204  10.547   9.964   0.272
 6154W        W10205   3.982   6.604   3.388
 6155W        W10206  11.143   3.042   0.429
 6156W        W10207   1.700   6.198  10.739
 6157W        W10208  10.932   8.555   9.851
 6158W        W10209  10.593  10.534   3.125
 6159W        W10210   5.309   2.193   1.162
 6160W        W10211   4.385   4.411   0.726
 6161W        W10212   6.907   2.932  10.785
 6162W        W10213   9.571  11.055   2.634
 6163W        W10214   6.836   3.816   9.931
 6164W        W10215   9.886   3.901   3.088
 6165W        W10216   6.008   2.752   2.378
 6166W        W10217   4.788   0.488   0.370
 6167W        W10218   1.816   1.175   0.279
 6168W        W10219   9.092   4.812   1.831
 6169W        W10220  10.280   0.355   1.886
 6170W        W10221   7.974   7.209   0.866
 6171W        W10222   7.001  10.874   3.132
 6172W        W10223   6.191   7.927  10.559
 6173W        W10224   9.456   9.476  10.437
 6174W        W10225   3.870   9.848   9.332
 6175W        W10226   8.575   8.047   9.937
 6176W        W10227   3.380   0.932  11.395
 6177W        W10228   3.887   5.887   8.723
 6178W        W10229   8.506   8.965   8.851
 6179W        W10230   7.106   4.168   1.364
 6180W        W10231  11.436  11.043   1.856
 6181W        W10232   3.836   8.731   2.791
 6182W        W10233   0.858   0.539   9.371
 6183W        W10234   8.883   0.804   1.461
 6184W        W10235   4.167   1.858  10.687
 6185W        W10236   6.431  10.319   1.134
 6186W        W10237   0.962  10.121   2.102
 6187W        W10238   6.966  10.467  10.352
 6188W        W10239   7.783   2.281   1.756
 6189W        W10240   4.665   1.631   1.724
 6190W        W10241   0.920   8.949   1.883
 6191W        W10242   5.020   3.744   2.326
 6192W        W10243   4.623   0.161   9.032
 6193W        W10244   8.171   3.698  10.533
 6194W        W10245  10.781   6.418  11.590
 6195W        W10246  10.791   6.036   8.680
 6196W        W10247   1.862   9.359   0.323
 6197W        W10248   7.292  10.519   0.730
 6198W        W10249   7.354   6.617   1.979
 6199W        W10250  11.394   3.449   0.173
 6200W        W10251   9.194  10.724   2.697
 6201W        W10252   7.424   9.582  11.390
 6202W        W10253   2.328   8.083  10.230
 6203W        W10254  11.471   4.305  11.221
 6204W        W10255   4.479   3.711   3.271
 6205W        W10256   8.854   4.234   0.927
 6206W        W10257   9.090   1.766   9.260
 6207W        W10258   1.346   2.355  10.680
 6208W        W10259   3.052   0.795   3.992
 6209W        W10260  11.071   5.993   1.953
 6210W        W10261   8.055   4.563   1.688
 6211W        W10262   6.739   9.986   9.164
 6212W        W10263   2.165   0.455  10.413
 6213W        W10264   2.345   2.841   1.526
 6214W        W10265   3.345   9.874  11.005
 6215W        W10266   5.061  10.336   8.839
 6216W        W10267   5.603   7.429   2.934
 6217W        W10268  11.186   4.034   8.926
 6218W        W10269   8.930   7.065   9.068
 6219W        W10270   1.519   7.314   1.424
 6220W        W10271   9.470   0.523   2.274
 6221W        W10272  10.977   5.267   0.923
 6222W        W10273   7.441   4.120   3.690
 6223W        W10274   5.084   9.544  10.572
 6224W        W10275   9.512   7.095   8.800
 6225W        W10276   9.399   8.873   2.452
 6226W        W10277  10.121   7.626   9.444
 6227W        W10278   4.643  10.713   0.817
 6228W        W10279  11.319   1.759   2.178
 6229W        W10280   7.284   6.778  10.028
 6230W        W10281   5.487   1.964  11.020
 6231W        W10282   6.595   9.505   0.025
 6232W        W10283   8.131   8.787   2.473
 6233W        W10284   7.093   7.506   1.815
 6234W        W10285   4.183   6.141   0.657
 6235W        W10286  10.786   3.978   2.366
 6236W        W10287   4.771   3.475  11.281
 6237W        W10288   9.352   5.074   9.483
 6238W        W10289  11.045   8.380   1.708
 6239W        W10290   7.904   8.278   1.778
 6240W        W10291   2.981   6.624   3.304
 6241W        W10292   0.888   9.664   3.379
 6242W        W10293  10.759   9.781   2.771
 6243W        W10294   2.222   5.740   2.745
 6244W        W10295   1.249   3.323   0.582
 6245W        W10296   3.414   2.883   1.292
 6246W        W10297   9.550   6.592   8.694
 6247W        W10298   7.435   6.228   1.639
 6248W        W10299  10.401   9.956  11.376
 6249W        W10300   2.544  10.446   9.190
 6250W        W10301   0.649   7.878  11.364
 6251W        W10302  11.376  10.317  10.652
 6252W        W10303   8.905  10.966  11.912
 6253W        W10304   4.698   6.734   2.029
 6254W        W10305   3.641   0.123   1.748
 6255W        W10306   8.977   3.562   3.351
 6256W        W10307   7.067   1.190   0.325
 6257W        W10308   4.647   9.326   3.069
 6258W        W10309   3.193  10.879   9.867
 6259W        W10310   3.971   5.820   9.952
 6260W        W10311   5.880   4.149   1.910
 6261W        W10312   5.494   9.846  10.478
 6262W        W10313   3.642   8.891   1.440
 6263W        W10314  11.391   0.228   9.046
 6264W        W10315   2.828   7.906  10.387
 6265W        W10316  11.057   1.692   8.798
 6266W        W10317   2.165   4.408   1.951
 6267W        W10318   9.302   7.338   8.368
 6268W        W10319   4.228   4.170   9.893
 6269W        W10320   1.382   9.952  10.745
 6270W        W10321   7.669   3.766   0.337
 6271W        W10322   9.387   6.193   9.992
 6272W        W10323  11.144   8.860   1.909
 6273W        W10324   8.651  10.855  11.323
 6274W        W10325   4.812   1.262   9.792
 6275W        W10326   7.523   4.516   2.348
 6276W        W10327   4.951   4.552   0.214
 6277W        W10328   9.141   1.320   9.527
 6278W        W10329  10.747   9.163  10.461
 6279W        W10330   0.618   7.873   3.654
 6280W        W10331   0.673   3.201   8.636
 6281W        W10332   2.145   8.418  11.274
 6282W        W10333  11.428  10.830  10.634
 6283W        W10334   4.988   3.519  10.055
 6284W        W10335   7.682   5.975  11.943
 6285W        W10336   4.327  11.443   1.246
 6286W        W10337   0.363   7.649  10.977
 6287W        W10338   1.648   7.448  10.485
 6288W        W10339   6.242   7.626   8.716
 6289W        W10340   7.111   8.680  10.313
 6290W        W10341   5.629  11.452   9.911
 6291W        W10342   8.516   1.933  10.423
 6292W        W10343   3.041  11.403  11.630
 6293W        W10344  11.015   2.173  10.165
 6294W        W10345   1.731   6.894   1.726
 6295W        W10346   3.400   0.239   9.905
 6296W        W10347  10.872   3.082   8.777
 6297W        W10348   8.397   1.792  11.955
 6298W        W10349   1.925   8.558   8.942
 6299W        W10350   4.190   7.461   2.243
 6300W        W10351   7.251   1.265   9.971
 6301W        W10352   4.218  11.029   9.808
 6302W        W10353   5.768   6.726  11.493
 6303W        W10354   5.162   5.539   0.755
 6304W        W10355   6.780   3.429   1.071
 6305W        W10356   0.506   5.171   2.519
 6306W        W10357  10.875  11.380   9.539
 6307W        W10358   7.481   9.615  11.938
 6308W        W10359   8.900   6.909   3.327
 6309W        W10360   9.489   0.901   2.652
 6310W        W10361   2.181   7.135   1.867
 6311W        W10362  10.981   5.125   1.910
 6312W        W10363   4.530   0.794   2.889
 6313W        W10364   0.276  10.526   9.267
 6314W        W10365   2.954   6.741  10.339
 6315W        W10366   1.956   4.749   8.549
 6316W        W10367   0.991  10.517   3.139
 6317W        W10368   9.824  10.987   9.432
 6318W        W10369   1.900   9.572  10.075
 6319W        W10370  11.336   2.710   0.055
 6320W        W10371   8.413   6.361   9.604
 6321W        W10372   8.089  10.917   8.583
 6322W        W10373   8.360   8.025   1.759
 6323W        W10374   2.140   6.745   3.129
 6324W        W10375   1.168   5.810   9.175
 6325W        W10376   2.736   5.086   9.535
 6326W        W10377   3.134   0.381  11.440
 6327W        W10378   1.780   5.965   0.185
 6328W        W10379   6.219  11.248   0.171
 6329W        W10380   0.466   9.943   1.323
 6330W        W10381   1.215  10.402  11.389
 6331W        W10382   0.440   5.284   3.498
 6332W        W10383   6.255   1.086   0.209
 6333W        W10384   0.038   1.309   2.871
 6334W        W10385   3.163  10.993   8.912
 6335W        W10386   5.561  11.431  10.828
 6336W        W10387   3.747  10.734   0.844
 6337W        W10388   5.074   5.050   0.033
 6338W        W10389   0.909   6.274   9.049
 6339W        W10390   0.825  10.201   3.554
 6340W        W10391   9.167   2.148  10.086
 6341W        W10392   0.212   5.632  11.218
 6342W        W10393   9.893   2.890   0.636
 6343W        W10394   8.564   8.487   3.014
 6344W        W10395  10.435   1.470   0.510
 6345W        W10396   6.133   6.922   0.398
 6346W        W10397   4.648  10.594   2.249
 6347W        W10398   1.798   7.254   9.777
 6348W        W10399  10.284   9.152   3.199
 6349W        W10400   9.954   1.810   9.281
 6350W        W10401   4.616  11.304  10.040
 6351W        W10402   7.020   0.920   8.798
 6352W        W10403   8.829   5.299   2.741
 6353W        W10404   2.675   1.728   3.189
 6354W        W10405   3.117   3.348   8.861
 6355W        W10406   0.835   4.839   9.997
 6356W        W10407   9.858   5.681  11.118
 6357W        W10408   2.675   9.593   8.943
 6358W        W10409   2.749   7.527   8.299
 6359W        W10410   3.147   6.265   0.789
 6360W        W10411   4.050   5.152   2.534
 6361W        W10412  10.371   7.916   1.923
 6362W        W10413   8.999   4.704   0.787
 6363W        W10414   7.101  10.325   1.896
 6364W        W10415   5.202   1.674   0.266
 6365W        W10416   7.043   2.455   0.810
 6366W        W10417   4.412   9.579   9.843
 6367W        W10418   5.655   3.595   1.175
 6368W        W10419   3.240   2.138   0.868
 6369W        W10420   2.344   8.914   0.952
 6370W        W10421  10.872   1.772  11.903
 6371W        W10422   7.903   8.885   8.773
 6372W        W10423   4.119   6.156  11.604
 6373W        W10424   2.035   9.321  10.954
 6374W        W10425   0.686   8.839   0.024
 6375W        W10426   7.378   5.548  11.986
 6376W        W10427   3.323   5.783   0.846
 6377W        W10428   0.472   6.203   2.205
 6378W        W10429   0.462   6.090  11.262
 6379W        W10430   1.790   6.036   1.171
 6380W        W10431   8.619   3.748   9.556
 6381W        W10432   9.606   5.252   9.902
 6382W        W10433   0.346   7.498   3.410
 6383W        W10434  10.519   0.446  11.184
 6384W        W10435  11.105   6.965   1.255
 6385W        W10436   3.427  10.010   0.443
 6386W        W10437   0.460   2.170   0.746
 6387W        W10438   3.479   5.244  10.184
 6388W        W10439   1.824   1.860   2.204
 6389W        W10440  10.786   7.030   3.547
 6390W        W10441   6.349   3.627  10.119
 6391W        W10442   0.818  10.574   8.518
 6392W        W10443   7.194   8.455   1.423
 6393W        W10444   3.347   4.411   0.564
 6394W        W10445   4.533   6.725  10.442
 6395W        W10446   6.485   4.690  10.983
 6396W        W10447   9.340  11.373   8.925
 6397W        W10448   8.357   7.415   3.254
 6398W        W10449  10.812   0.829   2.876
 6399W        W10450   9.502   9.175  11.412
 6400W        W10451   9.923   5.738   1.470
 6401W        W10452  10.710   7.629   0.995
 6402W        W10453   8.940  10.398  11.320
 6403W        W10454   5.232   1.652  10.290
 6404W        W10455   6.836   3.207   3.464
 6405W        W10456   0.212   5.516   8.975
 6406W        W10457   1.675   5.799  11.724
 6407W        W10458   8.996   0.263   2.330
 6408W        W10459   2.147   5.687   1.195
 6409W        W10460   1.463   2.382   0.586
 6410W        W10461  10.334   8.104   9.516
 6411W        W10462   0.467   0.771  10.987
 6412W        W10463  11.070  11.083   0.753
 6413W        W10464   1.912   2.727   0.701
 6414W        W10465   7.129  11.286  10.880
 6415W        W10466  10.265   9.602   0.918
 6416W        W10467   7.859   2.780  10.858
 6417W        W10468   5.544   6.214   0.655
 6418W        W10469   9.441   3.092   1.810
 6419W        W10470   6.043   8.479   8.991
 6420W        W10471  11.498   6.091  11.458
 6421W        W10472  10.929   0.456  11.561
 6422W        W10473   9.219   9.319   0.780
 6423W        W10474   5.149   9.429   0.531
 6424W        W10475   6.256   8.673   3.118
 6425W        W10476   5.555   4.524  10.975
 6426W        W10477   5.457   0.743   1.488
 6427W        W10478   9.286   2.320   2.970
 6428W        W10479   1.281   8.427   2.369
 6429W        W10480   4.243   3.106  11.959
 6430W        W10481   1.012   2.179   9.865
 6431W        W10482   1.816   7.799   0.379
 6432W        W10483   4.078   2.232   0.375
 6433W        W10484   2.819   8.518   9.132
 6434W        W10485   8.586  10.806   1.433
 6435W        W10486   7.936   8.892  10.581
 6436W        W10487   8.614   8.091   0.673
 6437W        W10488   6.997   7.945   2.085
 6438W        W10489   7.204   1.918   2.139
 6439W        W10490  11.259   3.228   2.295
 6440W        W10491   8.490   2.906   2.280
 6441W        W10492   4.203   9.571   3.199
 6442W        W10493   3.083   4.234   9.368
 6443W        W10494  10.415   1.634   9.463
 6444W        W10495   9.906   2.592  10.788
 6445W        W10496   2.809   9.695  10.440
 6446W        W10497   0.713   8.076   8.794
 6447W        W10498   3.713   8.674   8.226
 6448W        W10499   2.307   5.932  11.415
 6449W        W10500  11.428   7.979  10.328
 6450W        W10501  10.564   2.638  11.348
 6451W        W10502   3.926   9.579   9.945
 6452W        W10503   2.368   4.359   2.726
 6453W        W10504  11.277   6.525  11.750
 6454W        W10505  10.706  10.273   2.712
 6455W        W10506   9.328   5.254   2.898
 6456W        W10507   0.272   6.980   3.445
 6457W        W10508   5.505   0.272   9.146
 6458W        W10509   3.205   7.631   9.480
 6459W        W10510  11.483  10.766  11.550
 6460W        W10511   8.062   9.907   8.415
 6461W        W10512   1.087   1.907   1.910
 6462W        W10513   5.164   4.141  11.606
 6463W        W10514   5.686   5.258   2.267
 6464W        W10515   1.327   2.664   2.487
 6465W        W10516   9.969   1.266  10.535
 6466W        W10517   9.845   0.708  10.051
 6467W        W10518   4.044   8.444   2.429
 6468W        W10519   8.827   0.538   0.350
 6469W        W10520   8.968   4.592  10.463
 6470W        W10521   4.969   2.134   2.760
 6471W        W10522   8.233  10.027  11.412
 6472W        W10523  10.705   9.480   0.166
 6473W        W10524   1.541   0.683  10.855
 6474W        W10525   7.416   6.592  10.949
 6475W        W10526   8.540   6.548   3.655
 6476W        W10527   3.881   3.020   3.168
 6477W        W10528   9.436   0.158  11.802
 6478W        W10529   8.385   8.603  11.438
 6479W        W10530   4.764   5.697   1.043
 6480W        W10531   0.651  10.548   2.781
 6481W        W10532  10.494   6.490   8.834
 6482W        W10533   0.462   3.665   0.673
 6483W        W10534   0.696   2.182   9.437
 6484W        W10535   1.260   0.734   2.362
 6485W        W10536  10.554   9.291  11.702
 6486W        W10537   4.918   8.349   3.390
 6487W        W10538   7.613   7.516   9.903
 6488W        W10539   1.677   1.963  10.924
 6489W        W10540   4.636   7.548   0.117
 6490W        W10541   0.792  10.190  11.651
 6491W        W10542   2.110   3.317   0.721
 6492W        W10543   0.468  11.418   1.441
 6493W        W10544   1.862   5.535  11.319
 6494W        W10545   4.940   4.092   1.952
 6495W        W10546   3.789   7.032   1.008
 6496W        W10547  10.636   5.871   2.849
 6497W        W10548   8.216   4.375   0.292
 6498W        W10549   0.829   8.886   9.727
 6499W        W10550   7.378  11.283   3.117
 6500W        W10551   9.101   1.856   0.610
 6501W        W10552   9.494  11.339   3.468
 6502W        W10553   2.720   7.659   1.188
 6503W        W10554   6.951   5.007   1.644
 6504W        W10555  11.403   3.408   0.682
 6505W        W10556   2.477   7.085   1.077
 6506W        W10557   0.310   0.663   0.638
 6507W        W10558   5.257   9.951   9.628
 6508W        W10559   3.609   3.038   1.907
 6509W        W10560   5.658   5.341   0.803
 6510W        W10561   7.396   9.406   2.408
 6511W        W10562   1.486   2.311  10.198
 6512W        W10563   3.654   6.602   8.585
 6513W        W10564   2.049   7.432   2.357
 6514W        W10565  11.249  10.027   2.720
 6515W        W10566   4.571   1.351   2.250
 6516W        W10567   6.965   4.186   0.021
 6517W        W10568   0.724   5.358   9.984
 6518W        W10569   6.684   1.699  11.193
 6519W        W10570   8.524  11.305   3.179
 6520W        W10571   7.142   1.996   0.629
 6521W        W10572   1.446   0.715   0.036
 6522W        W10573   7.771   9.924  11.219
 6523W        W10574   4.107   0.454  11.997
 6524W        W10575   8.084   8.191   9.965
 6525W        W10576   0.362   6.503   3.781
 6526W        W10577   4.542   5.742  11.497
 6527W        W10578   4.026  10.525   9.757
 6528W        W10579   5.665   2.346  10.745
 6529W        W10580   8.907   9.275   9.343
 6530W        W10581   1.866   6.947   2.238
 6531W        W10582   0.400  10.822  11.827
 6532W        W10583   3.060  10.862  11.273
 6533W        W10584   0.802   9.958  10.565
 6534W        W10585   2.537   5.384   8.174
 6535W        W10586   6.628   6.697  11.296
 6536W        W10587   3.185   3.297  10.927
 6537W        W10588  10.838  10.298  11.792
 6538W        W10589   1.261  11.157   2.732
 6539W        W10590   3.763  10.950  10.524
 6540W        W10591   7.585   1.984  11.408
 6541W        W10592   4.023  11.458  11.823
 6542W        W10593   0.875   0.833   1.291
 6543W        W10594   1.892   8.630   9.493
 6544W        W10595   3.641   6.172   0.985
 6545W        W10596   9.776   1.693  10.746
 6546W        W10597   3.279   5.604  11.966
 6547W        W10598   0.594   7.261   2.159
 6548W        W10599   5.792   7.009   2.663
 6549W        W10600   9.771  11.416  11.492
 6550W        W10601   5.277   6.713   1.365
 6551W        W10602   6.239   4.125   4.117
 6552W        W10603   1.561   5.972  11.252
 6553W        W10604   6.564   6.904   1.209
 6554W        W10605   7.138   7.655  10.430
 6555W        W10606   6.521   7.746  10.974
 6556W        W10607   4.195  10.999   2.941
 6557W        W10608   7.090   0.818  10.811
 6558W        W10609   5.946  11.492   9.459
 6559W        W10610   5.866   9.531   9.857
 6560W        W10611   3.799   8.954   2.326
 6561W        W10612   4.176   6.253   3.751
 6562W        W10613   1.277   2.797   0.370
 6563W        W10614  10.543   2.383  10.039
 6564W        W10615   0.353  11.457   2.810
 6565W        W10616   0.352   7.252   1.698
 6566W        W10617   3.181   2.117  11.964
 6567W        W10618   2.884   2.797  11.413
 6568W        W10619   5.472   9.238   3.189
 6569W        W10620   9.953   8.395   2.401
 6570W        W10621  10.861  11.140   1.670
 6571W        W10622   1.656   9.188   3.212
 6572W        W10623   2.338  11.093  10.462
 6573W        W10624   7.481   0.965   0.568
 6574W        W10625   1.630   1.319  11.437
 6575W        W10626   6.672   3.121   2.450
 6576W        W10627   2.145   6.583   8.640
 6577W        W10628   2.858   6.228  10.607
 6578W        W10629   4.201   3.530  10.780
 6579W        W10630   6.421   3.144   8.500
 6580W        W10631   2.301   2.464  10.569
 6581W        W10632   1.596   7.033   9.374
 6582W        W10633  11.258   7.626   2.700
 6583W        W10634   9.258   0.687   0.563
 6584W        W10635   1.751   8.669   2.262
 6585W        W10636   5.121  11.298   9.879
 6586W        W10637   2.213   9.481   9.144
 6587W        W10638  10.021   3.358   1.880
 6588W        W10639   8.777   3.347  11.965
 6589W        W10640   4.244   0.076   9.842
 6590W        W10641   9.857   2.454   1.844
 6591W        W10642  10.955   8.186   0.735
 6592W        W10643   9.715   0.685   0.340
 6593W        W10644   5.180   5.970   0.994
 6594W        W10645   7.738   4.547   9.037
 6595W        W10646   3.241   2.639   0.858
 6596W        W10647   5.215   6.081  10.326
 6597W        W10648  10.013   8.144  11.786
 6598W        W10649   6.119   0.954   0.869
 6599W        W10650   1.959   3.405  10.953
 6600W        W10651  10.207   6.100   0.750
 6601W        W10652   8.993   7.853  11.526
 6602W        W10653   1.375   1.947   3.281
 6603W        W10654   6.561   8.648   1.825
 6604W        W10655   6.310   7.187   8.965
 6605W        W10656  10.793   0.762   9.060
 6606W        W10657   2.767   8.861   9.538
 6607W        W10658  11.258   8.591   0.709
 6608W        W10659   3.546   4.104   0.947
 6609W        W10660   4.042   6.176   0.132
 6610W        W10661   4.404   1.778   0.697
 6611W        W10662   6.205   0.291  10.802
 6612W        W10663   4.098  11.451   0.790
 6613W        W10664   7.618   8.900   0.615
 6614W        W10665   2.012   3.018  11.725
 6615W        W10666   8.149   2.839  10.397
 6616W        W10667   1.306   3.607  11.701
 6617W        W10668   4.539   3.408  10.405
 6618W        W10669   4.883   7.146  11.386
 6619W        W10670   5.658   6.320  10.166
 6620W        W10671   7.480   3.870   1.574
 6621W        W10672   0.150   5.651   0.603
 6622W        W10673  10.281   8.588  10.104
 6623W        W10674   7.179   3.120   1.971
 6624W        W10675   6.011   2.367   9.491
 6625W        W10676   4.627   1.455   9.371
 6626W        W10677   4.477   4.706   3.232
 6627W        W10678  10.092   7.467  10.307
 6628W        W10679  10.056  10.919   0.788
 6629W        W10680  11.337   5.254  11.096
 6630W        W10681   4.805   1.324  10.314
 6631W        W10682   0.836   3.491   9.531
 6632W        W10683   5.768   4.368   0.686
 6633W        W10684  10.171   7.520   1.625
 6634W        W10685   8.702   1.232   9.767
 6635W        W10686   3.248   8.606   0.229
 6636W        W10687   5.916   1.636  11.044
 6637W        W10688   5.040   1.823   4.143
 6638W        W10689   7.004   1.312   1.193
 6639W        W10690   7.865   5.198   9.466
 6640W        W10691   0.465   3.770   2.812
 6641W        W10692   8.082  11.379  10.873
 6642W        W10693   1.910   5.236   8.961
 6643W        W10694   1.370   2.825  10.345
 6644W        W10695   8.163  11.332   9.987
 6645W        W10696   9.252   0.344   3.342
 6646W        W10697   0.425  11.220   0.172
 6647W        W10698   8.657  11.282  10.212
 6648W        W10699   2.695   6.574   8.737
 6649W        W10700  10.529   0.700  10.662
 6650W        W10701   5.728   7.683   4.053
 6651W        W10702   3.336   3.333  11.412
 6652W        W10703   4.081  10.359  10.776
 6653W        W10704   9.007   3.327   9.066
 6654W        W10705   6.206   5.714   2.731
 6655W        W10706   4.976   8.122   9.202
 6656W        W10707   9.258   5.934  10.415
 6657W        W10708  10.370   4.138   3.115
 6658W        W10709   3.415   7.391   3.026
 6659W        W10710   7.634   2.117  11.899
 6660W        W10711   3.112   1.385  11.370
 6661W        W10712  10.761  11.277   9.063
 6662W        W10713  10.427   0.954   3.190
 6663W        W10714   4.115   1.244  10.380
 6664W        W10715   5.886  10.895   2.476
 6665W        W10716   2.017  10.356   9.190
 6666W        W10717   1.367   3.722  10.686
 6667W        W10718   1.740   4.616   0.414
 6668W        W10719   4.251   1.215   1.854
 6669W        W10720   9.020   8.983   9.842
 6670W        W10721   1.298   4.578  10.811
 6671W        W10722   4.251   2.773   1.557
 6672W        W10723   0.719   4.155   1.208
 6673W        W10724   9.253  10.334   3.701
 6674W        W10725  10.730   6.068   1.559
 6675W        W10726   2.128  10.586   1.796
 6676W        W10727  11.241   0.777   3.153
 6677W        W10728   0.563   1.875  11.158
 6678W        W10729   1.891  10.014   1.476
 6679W        W10730   7.600   6.219  10.196
 6680W        W10731   4.366   6.654  11.815
 6681W        W10732   0.092   1.685  11.245
 6682W        W10733   7.611  10.330  10.961
 6683W        W10734   7.588   8.018  10.650
 6684W        W10735   3.778   5.001   9.334
 6685W        W10736   5.120   0.293   1.300
 6686W        W10737   1.232   5.934  10.861
 6687W        W10738   9.834   8.906   3.303
 6688W        W10739   7.649   5.489   0.911
 6689W        W10740   2.200   8.807   2.473
 6690W        W10741   7.507   1.744   9.186
 6691W        W10742   9.299   4.830  10.068
 6692W        W10743   7.153   7.461   9.052
 6693W        W10744  10.887  10.936   3.053
 6694W        W10745   7.976   2.315   9.667
 6695W        W10746   3.707   6.623  10.807
 6696W        W10747   7.956  10.967   3.386
 6697W        W10748   3.931  10.281  11.345
 6698W        W10749   5.397   8.469  10.955
 6699W        W10750   0.589   9.072  10.179
 6700W        W10751   0.262   3.180   2.273
 6701W        W10752   6.082   2.538  10.970
 6702W        W10753  10.625   8.403   1.355
 6703W        W10754   3.222  11.481   9.192
 6704W        W10755  10.132   4.239   9.108
 6705W        W10756   6.809   1.779   2.434
 6706W        W10757   0.817   4.579  10.476
 6707W        W10758   5.782   2.852   2.824
 6708W        W10759   9.969   2.717   0.168
 6709W        W10760   3.891   7.258   2.813
 6710W        W10761   9.919   0.311   3.498
 6711W        W10762   7.384   1.052   2.390
 6712W        W10763   7.951   3.307  11.131
 6713W        W10764   0.810   7.392   0.812
 6714W        W10765   1.873   3.106  10.152
 6715W        W10766   1.807   6.425   0.392
 6716W        W10767   5.560   1.897  11.987
 6717W        W10768   2.354   9.583  10.649
 6718W        W10769   6.177   2.507  11.500
 6719W        W10770   4.523   6.116   1.287
 6720W        W10771   4.752  11.480   0.404
 6721W        W10772   9.042   7.384  10.393
 6722W        W10773   1.646  11.003  11.537
 6723W        W10774   4.165   9.530  11.488
 6724W        W10775   6.258   8.732   2.214
 6725W        W10776   3.651   0.896  10.408
 6726W        W10777   0.939   6.275  11.829
 6727W        W10778   8.847   7.587   8.839
 6728W        W10779   5.351   4.453   0.971
 6729W        W10780   9.959   3.244   8.733
 6730W        W10781   8.069   1.935  11.561
 6731W        W10782   9.632   9.404   3.209
 6732W        W10783   5.623   4.605   1.923
 6733W        W10784   5.844   7.076   9.168
 6734W        W10785   3.405   1.939   2.167
 6735W        W10786   8.434   5.931   9.898
 6736W        W10787   8.375   8.391   9.555
 6737W        W10788   0.222   4.068   1.361
 6738W        W10789   6.124   1.607   9.056
 6739W        W10790   4.785   7.973   1.125
 6740W        W10791   8.966   9.169   3.595
 6741W        W10792   9.995   7.970   1.518
 6742W        W10793   6.819  10.876   2.202
 6743W        W10794   9.416   3.357   8.732
 6744W        W10795   8.438   0.247   3.797
 6745W        W10796   2.957   0.705   0.286
 6746W        W10797   6.022   2.147   9.941
 6747W        W10798   4.939   2.633   1.789
 6748W        W10799   7.053   8.673   9.495
 6749W        W10800   7.802  10.382  11.436
 6750W        W10801   5.697   0.748   2.730
 6751W        W10802  11.398   5.186   9.902
 6752W        W10803   7.439  10.036  11.611
 6753W        W10804   7.123  11.177   1.313
 6754W        W10805  11.404   3.824  11.375
 6755W        W10806   9.868   9.999  11.929
 6756W        W10807   7.125   8.905   0.472
 6757W        W10808   2.168   4.980  11.740
 6758W        W10809   4.729   8.892   2.813
 6759W        W10810   2.697   9.498   1.702
 6760W        W10811  10.742   7.720   2.265
 6761W        W10812   1.755   2.681   9.874
 6762W        W10813   5.383   9.370   9.894
 6763W        W10814   2.318  10.019  11.404
 6764W        W10815  11.436   8.107   0.910
 6765W        W10816   8.210   1.221   0.634
 6766W        W10817   9.971   7.598   0.324
 6767W        W10818   5.089   7.239  10.902
 6768W        W10819   3.526   6.917   2.799
 6769W        W10820   8.628   3.027   1.241
 6770W        W10821   7.768   3.590   1.248
 6771W        W10822   1.373   7.168  11.555
 6772W        W10823   0.900   3.797   0.417
 6773W        W10824   2.794   2.853   0.991
 6774W        W10825  10.312  11.008  11.857
 6775W        W10826   6.508   2.342  10.754
 6776W        W10827   9.450   6.953   9.691
 6777W        W10828   4.767   9.906  10.965
 6778W        W10829   6.585   0.807   3.877
 6779W        W10830  10.521   7.280   1.342
 6780W        W10831  11.341   0.147   9.569
 6781W        W10832   5.198   9.003  10.744
 6782W        W10833   2.347   1.957  10.526
 6783W        W10834   5.082   9.354   2.435
 6784W        W10835   3.174   5.094   3.800
 6785W        W10836  11.302   5.274   0.506
 6786W        W10837   8.150   5.975   8.444
 6787W        W10838   9.748   0.509   1.836
 6788W        W10839  10.483   3.864  10.889
 6789W        W10840   1.091   6.787   8.716
 6790W        W10841   2.086   7.607   3.654
 6791W        W10842   4.483   1.447  10.679
 6792W        W10843   6.055   7.524  10.253
 6793W        W10844   2.718   7.527   9.328
 6794W        W10845   4.374  10.714   9.389
 6795W        W10846   4.797   7.152  10.341
 6796W        W10847   7.928  10.333   1.559
 6797W        W10848   7.972   1.230   1.411
 6798W        W10849   7.148   6.785   2.696
 6799W        W10850   9.175   8.431   1.268
 6800W        W10851   5.771   2.631   0.455
 6801W        W10852   1.887   2.156  10.495
 6802W        W10853   3.028   2.498  11.029
 6803W        W10854  10.421   7.446   2.985
 6804W        W10855  11.056   0.414   1.426
 6805W        W10856   5.918   4.299  11.372
 6806W        W10857   7.504   5.352   1.372
 6807W        W10858   7.149   9.532   2.867
 6808W        W10859   9.370   8.874   1.502
 6809W        W10860   5.628  10.746   3.447
 6810W        W10861   7.966   2.416   9.155
 6811W        W10862   3.683   7.045   0.027
 6812W        W10863   2.268  11.079   1.843
 6813W        W10864  11.420   0.513   0.944
 6814W        W10865   3.283   8.885   1.032
 6815W        W10866   7.353   7.003   8.842
 6816W        W10867   8.910   7.630   9.960
 6817W        W10868  10.534   9.073   8.733
 6818W        W10869   4.831   6.655  11.275
 6819W        W10870   0.396   4.879   1.628
 6820W        W10871   2.427   6.452  11.485
 6821W        W10872   9.445   9.767   2.858
 6822W        W10873   8.814   5.749  11.906
 6823W        W10874  10.892   0.358   9.378
 6824W        W10875   5.003   7.492   0.954
 6825W        W10876   2.383  10.293   0.873
 6826W        W10877  10.322   6.279   1.265
 6827W        W10878   5.308   9.805   0.222
 6828W        W10879  11.270   4.676   3.302
 6829W        W10880   5.232   0.802  11.771
 6830W        W10881   5.161   2.653   3.619
 6831W        W10882   5.747   4.107  10.746
 6832W        W10883   9.356  10.266   2.863
 6833W        W10884   1.831   7.801   2.690
 6834W        W10885  10.772   7.117   0.901
 6835W        W10886   9.871   4.728   0.204
 6836W        W10887   9.922   1.213   2.094
 6837W        W10888   3.193   4.753   0.908
 6838W        W10889   2.964   3.430  11.747
 6839W        W10890   0.663  10.445   0.080
 6840W        W10891   6.675   8.675   2.729
 6841W        W10892   8.475   9.472  10.133
 6842W        W10893   1.797   5.543   2.992
 6843W        W10894  11.392   2.871   2.684
 6844W        W10895   5.478  11.311   9.407
 6845W        W10896   8.966   9.856   0.800
 6846W        W10897   8.406   3.471  10.914
 6847W        W10898   6.551   1.680  10.205
 6848W        W10899   0.831   5.321  11.883
 6849W        W10900   2.696   8.159   1.295
 6850W        W10901   9.380   4.230  10.363
 6851W        W10902   7.491   6.697   0.326
 6852W        W10903  10.011   3.774   1.109
 6853W        W10904   2.167   7.409  10.578
 6854W        W10905   9.250   7.915   9.727
 6855W        W10906   8.466   9.891   9.837
 6856W        W10907   2.684   3.782  11.982
 6857W        W10908   1.002   0.723  10.861
 6858W        W10909  10.536  10.305   9.632
 6859W        W10910   6.259   1.295   8.675
 6860W        W10911   0.490   6.034   3.086
 6861W        W10912   0.819   4.540   9.531
 6862W        W10913   7.484   1.424   1.408
 6863W        W10914   9.407   5.832  11.323
 6864W        W10915  10.854   1.334  11.621
 6865W        W10916   8.884   4.779  11.789
 6866W        W10917   2.481   3.311  10.873
 6867W        W10918   6.378   1.363  10.929
 6868W        W10919   7.470   7.377   0.813
 6869W        W10920   1.328  10.901   2.296
 6870W        W10921   8.880   7.408   3.286
 6871W        W10922   5.513  10.504   2.473
 6872W        W10923   4.129  10.368  11.819
 6873W        W10924   1.341   1.809   9.961
 6874W        W10925   3.788   4.153   2.810
 6875W        W10926   5.044   6.045  11.986
 6876W        W10927   9.443   8.400   2.652
 6877W        W10928   7.652   5.548   2.209
 6878W        W10929   1.198  10.051   3.256
 6879W        W10930   5.550   7.549   0.927
 6880W        W10931  10.406  10.052   3.129
 6881W        W10932   4.264   5.228   0.546
 6882W        W10933   4.245   2.191   9.309
 6883W        W10934   8.907   7.139   2.819
 6884W        W10935   5.791   3.679  11.498
 6885W        W10936   7.928   2.763   1.705
 6886W        W10937   3.193   2.333  11.499
 6887W        W10938   7.502  10.025   1.820
 6888W        W10939   2.324   6.644   9.120
 6889W        W10940   9.024   9.545   1.709
 6890W        W10941   4.133  10.282   9.296
 6891W        W10942   3.192   6.180   1.792
 6892W        W10943   1.683   8.141  11.453
 6893W        W10944   6.134   0.214   1.386
 6894W        W10945   2.946   3.321   2.281
 6895W        W10946   4.168  11.440   8.902
 6896W        W10947   8.945   8.722   3.289
 6897W        W10948   7.163   8.155  10.347
 6898W        W10949   7.267   2.236   1.203
 6899W        W10950  10.072   8.092   9.954
 6900W        W10951   5.667   1.769   0.488
 6901W        W10952   0.812  11.356  10.901
 6902W        W10953   0.707  10.730   9.448
 6903W        W10954   3.327  11.242   2.604
 6904W        W10955   0.318   7.880   9.082
 6905W        W10956   2.005   7.602  10.131
 6906W        W10957   4.697   1.905  10.514
 6907W        W10958   7.566  10.437   1.184
 6908W        W10959   5.276   8.860   9.882
 6909W        W10960   7.176   5.342   0.707
 6910W        W10961   8.019   7.452   0.422
 6911W        W10962   5.606   3.113   0.409
 6912W        W10963  10.952   8.954  10.978
 6913W        W10964   3.666  10.413   9.422
 6914W        W10965   8.037   6.340   9.256
 6915W        W10966  10.290   1.986  10.577
 6916W        W10967   2.877   5.662   3.809
 6917W        W10968   6.100   0.267   0.052
 6918W        W10969   2.369   0.915  11.255
 6919W        W10970   8.128  10.321  11.006
 6920W        W10971   2.669  10.174  10.488
 6921W        W10972   1.432   1.507  10.820
 6922W        W10973   9.531   0.327  11.311
 6923W        W10974   7.159   9.200   9.065
 6924W        W10975   3.336   5.241   0.933
 6925W        W10976   9.887   7.212   0.013
 6926W        W10977   7.484   1.804   0.977
 6927W        W10978   6.907   7.417  10.813
 6928W        W10979  11.219   4.728  11.422
 6929W        W10980   9.240   7.610   2.058
 6930W        W10981   2.852   9.952  10.918
 6931W        W10982   7.446  10.092   3.668
 6932W        W10983  10.816   5.522   0.378
 6933W        W10984  10.452   8.841  10.759
 6934W        W10985   0.882   0.006   2.746
 6935W        W10986  11.050   3.358  11.298
 6936W        W10987  10.719   5.115   2.773
 6937W        W10988   4.261  10.019   0.167
 6938W        W10989   8.081  11.066  11.407
 6939W        W10990   0.283   6.743   9.642
 6940W        W10991   9.769   9.457   9.635
 6941W        W10992   7.343   2.449  10.385
 6942W        W10993   5.324   4.298   3.137
 6943W        W10994   2.670  11.334   9.869
 6944W        W10995   3.459   0.991  10.874
 6945W        W10996   1.665   5.732   8.985
 6946W        W10997   1.651   4.033   9.132
 6947W        W10998   8.426   9.249   1.431
 6948W        W10999   3.391   4.708   1.507
 6949W        W11000   1.612   6.876   1.182
 6950W        W11001   6.803   8.821   9.919
 6951W        W11002   9.838   9.476   1.203
 6952W        W11003   9.020   9.972   1.426
 6953W        W11004   3.122   3.829   2.328
 6954W        W11005   7.355   2.665  10.844
 6955W        W11006   8.436   5.227  10.455
 6956W        W11007   8.362   8.547   0.880
 6957W        W11008   7.486   5.665   0.463
 6958W        W11009  11.343   0.349   3.455
 6959W        W11010   8.025   0.727   1.339
 6960W        W11011   0.438   4.007  10.893
 6961W        W11012  10.902   2.467  10.958
 6962W        W11013   6.525   7.670   9.639
 6963W        W11014   4.300   1.345   8.962
 6964W        W11015   6.079   5.023   9.597
 6965W        W11016   5.255   1.652   1.235
 6966W        W11017   5.807   9.993   9.089
 6967W        W11018   6.358  11.425  10.436
 6968W        W11019   4.382   5.614   1.373
 6969W        W11020   8.848   0.966  11.937
 6970W        W11021   3.340   2.200   8.754
 6971W        W11022   9.934   5.968   8.801
 6972W        W11023   7.476   1.727  10.988
 6973W        W11024   3.805  11.423  10.003
 6974W        W11025  10.245   5.334  10.998
 6975W        W11026   7.479   1.322   1.910
 6976W        W11027   9.840   7.506   2.279
 6977W        W11028   5.534   8.536  11.992
 6978W        W11029   5.798  11.021   9.673
 6979W        W11030   6.199   4.101   9.932
 6980W        W11031   5.492  11.423  11.757
 6981W        W11032   8.526   0.801   0.702
 6982W        W11033   5.727   8.891   9.079
 6983W        W11034   9.559  11.275   9.775
 6984W        W11035   2.763   0.702   3.166
 6985W        W11036   4.531   9.271  10.235
 6986W        W11037   6.649   5.175  11.057
 6987W        W11038   4.768   3.280   2.299
 6988W        W11039   2.448   5.174   9.944
 6989W        W11040  11.247   6.512   1.851
 6990W        W11041   2.866   1.943   2.171
 6991W        W11042   3.725   6.237  10.185
 6992W        W11043  11.266   7.376  10.146
 6993W        W11044   4.620  11.419   3.449
 6994W        W11045  10.312   2.048   1.180
 6995W        W11046   9.527   0.425   8.963
 6996W        W11047   8.322   0.713   9.801
 6997W        W11048   4.029  10.190   3.811
 6998W        W11049   1.207   4.555  11.698
 6999W        W11050   5.115   7.110   9.932
 7000W        W11051   6.332  11.163   0.647
 7001W        W11052   2.669   1.383  11.765
 7002W        W11053  10.317   9.569   8.510
 7003W        W11054   9.102   2.840   8.882
 7004W        W11055   1.902   0.098   8.969
 7005W        W11056   7.574   1.045   8.903
 7006W        W11057   3.790   2.879  11.841
 7007W        W11058   6.948   4.064   9.483
 7008W        W11059   2.724   2.950  10.076
 7009W        W11060   0.283   4.031   9.872
 7010W        W11061  10.216   1.933   0.699
 7011W        W11062   1.852  10.780   3.142
 7012W        W11063   8.977   4.128  10.680
 7013W        W11064   2.083   6.342   3.471
 7014W        W11065   2.762  11.223   1.681
 7015W        W11066  10.295   5.700   0.373
 7016W        W11067  10.809   1.334   1.548
 7017W        W11068   9.868   1.170   0.414
 7018W        W11069   1.028   7.049   0.463
 7019W        W11070   0.932   5.011   2.768
 7020W        W11071   7.289   7.151  10.578
 7021W        W11072  11.418   1.041   0.909
 7022W        W11073   2.919  11.295   0.121
 7023W        W11074   5.770   6.673   2.252
 7024W        W11075   1.864   0.872  11.286
 7025W        W11076   4.032   8.391  11.209
 7026W        W11077   7.356   2.351   0.294
 7027W        W11078   0.850   4.659   0.460
 7028W        W11079   1.326   9.797   8.856
 7029W        W11080   8.655   2.945   9.127
 7030W        W11081   6.666   8.983   3.349
 7031W        W11082   4.297   5.651   0.847
 7032W        W11083   6.054   3.697  10.693
 7033W        W11084   5.522   6.293   1.170
 7034W        W11085   4.988   3.662   8.674
 7035W        W11086   5.990   9.959   9.581
 7036W        W11087   6.480  10.871   1.820
 7037W        W11088  11.275   1.713   2.685
 7038W        W11089   7.619   2.773   0.431
 7039W        W11090   0.317   8.129   2.214
 7040W        W11091   9.043   4.647   9.111
 7041W        W11092   1.389  10.809   8.830
 7042W        W11093   7.828   0.212   2.210
 7043W        W11094   3.404   8.976   0.542
 7044W        W11095   7.968   3.653   0.782
 7045W        W11096   5.129   9.755  10.099
 7046W        W11097   8.800   0.887   1.948
 7047W        W11098  10.027  11.010   2.927
 7048W        W11099   5.654   1.285   3.500
 7049W        W11100   5.996   8.924  11.496
 7050W        W11101   5.630   4.679   2.427
 7051W        W11102   8.394   0.773   0.195
 7052W        W11103   8.028   5.813   3.658
 7053W        W11104   0.627   0.912   9.063
 7054W        W11105   2.848   4.216  11.712
 7055W        W11106  11.200   5.980   2.821
 7056W        W11107   7.500   8.051   1.569
 7057W        W11108   5.355   0.317  10.511
 7058W        W11109   5.694   6.588   9.147
 7059W        W11110   7.885   7.865   2.089
 7060W        W11111   8.898  10.421  10.337
 7061W        W11112   7.921  10.772  11.784
 7062W        W11113  10.983   0.308   0.519
 7063W        W11114   3.544   3.999  10.589
 7064W        W11115  10.206   1.488   0.960
 7065W        W11116   9.991   6.521  10.408
 7066W        W11117   4.184   2.731   3.490
 7067W        W11118   6.615   1.785   8.922
 7068W        W11119   5.721   8.181   9.510
 7069W        W11120   3.206   9.370   1.806
 7070W        W11121   7.550  11.456   1.196
 7071W        W11122   1.776   8.690   3.216
 7072W        W11123   7.334   8.347  11.785
 7073W        W11124   6.797  10.380  11.312
 7074W        W11125   0.849   8.538  10.783
 7075W        W11126   5.746  11.452   0.235
 7076W        W11127   6.732   6.336  11.766
 7077W        W11128   9.724   8.228   3.666
 7078W        W11129   5.774   8.819   0.954
 7079W        W11130  10.531   5.541   0.847
 7080W        W11131   9.111  10.518   3.223
 7081W        W11132   7.908  10.999   9.646
 7082W        W11133   6.646  10.886   9.241
 7083W        W11134   2.456   7.052  10.335
 7084W        W11135  10.749   0.332   0.054
 7085W        W11136   6.665   9.109  10.855
 7086W        W11137   4.067   2.828   2.037
 7087W        W11138   8.151   9.876   1.364
 7088W        W11139   5.087   4.509   2.248
 7089W        W11140   0.863   4.156   1.697
 7090W        W11141   6.904   2.488  10.003
 7091W        W11142   2.645   4.950  10.390
 7092W        W11143   8.277   0.356  11.862
 7093W        W11144   7.635   9.011   9.222
 7094W        W11145   3.722   5.746   0.182
 7095W        W11146  10.361   6.104   3.243
 7096W        W11147   0.019  10.811   1.385
 7097W        W11148   4.710   0.328   9.912
 7098W        W11149   5.975   3.380   8.558
 7099W        W11150   8.414  10.526   0.914
 7100W        W11151   4.731   4.134   0.446
 7101W        W11152  11.492   1.813   1.184
 7102W        W11153  10.821   7.352   2.600
 7103W        W11154   5.556   9.407   8.982
 7104W        W11155   1.424   9.152   0.174
 7105W        W11156   9.398   0.474  10.347
 7106W        W11157   2.634   7.050  11.212
 7107W        W11158   2.850  10.933  11.751
 7108W        W11159   2.142   7.354   9.413
 7109W        W11160   1.679   9.596   0.764
 7110W        W11161   0.962  10.122  11.025
 7111W        W11162   9.979   2.856  11.681
 7112W        W11163   2.356   1.547   9.621
 7113W        W11164   8.592   3.368   1.609
 7114W        W11165   0.141  10.512   2.796
 7115W        W11166  11.402   8.461   2.261
 7116W        W11167   8.462   7.091   9.399
 7117W        W11168   5.240   1.680   2.669
 7118W        W11169   9.854   6.133   3.091
 7119W        W11170   7.964   6.976   3.111
 7120W        W11171   6.983   6.594   8.778
 7121W        W11172   1.757   6.472   0.894
 7122W        W11173   6.510   1.822  10.695
 7123W        W11174   2.724   5.743  10.737
 7124W        W11175   6.073  11.299  10.845
 7125W        W11176   1.127   5.735  10.054
 7126W        W11177   1.273   8.864  10.027
 7127W        W11178   5.066   2.969   0.912
 7128W        W11179   0.744   6.499  11.349
 7129W        W11180   8.463   1.137   1.625
 7130W        W11181   7.851   7.405   2.330
 7131W        W11182   2.801   2.569   3.341
 7132W        W11183   5.559   1.347  11.833
 7133W        W11184   2.020   7.673  11.427
 7134W        W11185   8.435   0.745  11.151
 7135W        W11186   0.469   6.723  10.530
 7136W        W11187   1.950  11.135   1.156
 7137W        W11188   0.255  11.099  10.266
 7138W        W11189   4.016   4.561   9.547
 7139W        W11190  10.886   9.036   0.022
 7140W        W11191   5.117   5.567  11.764
 7141W        W11192   9.848   5.269   3.036
 7142W        W11193   6.569   9.589   8.477
 7143W        W11194  10.034   1.787   9.778
 7144W        W11195   4.693   5.716   0.533
 7145W        W11196   1.336   8.387  10.199
 7146W        W11197   8.362  11.282   9.280
 7147W        W11198   3.137   1.023  10.092
 7148W        W11199   8.576   5.745   8.202
 7149W        W11200   3.563   4.163   9.200
 7150W        W11201   2.344  10.046  10.875
 7151W        W11202   1.767   5.026   9.407
 7152W        W11203   8.063   6.002  10.242
 7153W        W11204   6.980   0.955   2.116
 7154W        W11205   5.259   0.901   2.941
 7155W        W11206   4.608   3.210   0.820
 7156W        W11207   3.504   0.045  11.418
 7157W        W11208   8.050   0.066  11.389
 7158W        W11209   4.618   0.336   8.543
 7159W        W11210   8.510   7.645   0.398
 7160W        W11211  10.320   2.699   1.378
 7161W        W11212   8.568   1.178  11.367
 7162W        W11213   5.358  11.430   3.194
 7163W        W11214   4.904   0.666   3.211
 7164W        W11215  10.060   8.501   9.337
 7165W        W11216   4.129   1.863   8.747
 7166W        W11217   5.207   8.265   1.289
 7167W        W11218   3.334  10.798   2.256
 7168W        W11219   5.122   9.110   1.523
 7169W        W11220   6.771  10.916   0.086
 7170W        W11221   1.622   8.997  10.883
 7171W        W11222  11.401   1.856  11.690
 7172W        W11223   2.612   5.733   1.369
 7173W        W11224   8.606   4.087   0.491
 7174W        W11225   3.353   5.218   1.457
 7175W        W11226   6.890   4.570  11.243
 7176W        W11227  10.828   2.742   0.737
 7177W        W11228   6.543  11.123   3.072
 7178W        W11229   5.094   3.084  11.070
 7179W        W11230   9.420  10.881   0.115
 7180W        W11231   3.779   7.976  10.505
 7181W        W11232   7.136   7.054   0.064
 7182W        W11233   1.485   8.560   9.182
 7183W        W11234   3.866   1.862   1.298
 7184W        W11235   1.189   6.729  11.750
 7185W        W11236   5.189   1.427   0.754
 7186W        W11237   4.728   8.686   1.931
 7187W        W11238   3.324   8.790   8.637
 7188W        W11239   1.284   4.664   0.188
 7189W        W11240   7.225   8.396  10.796
 7190W        W11241   0.666   1.488  10.412
 7191W        W11242   2.636   8.651   1.236
 7192W        W11243   7.054   1.668  10.320
 7193W        W11244   5.052  10.792   0.504
 7194W        W11245   2.662   2.343   2.467
 7195W        W11246  10.784   4.220   2.816
 7196W        W11247   4.672   6.105   1.814
 7197W        W11248   8.806   3.664   1.228
 7198W        W11249   5.520   3.274   2.686
 7199W        W11250   1.821   5.531   9.432
 7200W        W11251   4.450   2.156   2.866
 7201W        W11252   6.156   3.165   8.969
 7202W        W11253   6.559   5.657   1.736
 7203W        W11254   3.596  11.249  10.960
 7204W        W11255   3.368   7.143  10.475
 7205W        W11256   3.808   2.633  10.357
 7206W        W11257  11.420   4.375   9.257
 7207W        W11258   9.460   5.023   0.404
 7208W        W11259   6.552   5.692  11.265
 7209W        W11260   8.645   6.681   8.743
 7210W        W11261   0.600   1.251   9.930
 7211W        W11262   4.289   4.564  10.814
 7212W        W11263   1.057   7.872   3.389
 7213W        W11264   4.154   2.542  11.952
 7214W        W11265   5.756   7.517   8.899
 7215W        W11266   8.093   3.698   9.604
 7216W        W11267   0.389   4.888  11.751
 7217W        W11268   0.847   9.037  10.622
 7218W        W11269   6.964   0.851   2.623
 7219W        W11270   0.199   7.643  10.076
 7220W        W11271   3.813   2.092  11.425
 7221W        W11272   7.029  11.464   2.321
 7222W        W11273   9.129   3.324   2.766
 7223W        W11274   4.074   1.711   9.239
 7224W        W11275   9.427   2.433   9.693
 7225W        W11276   5.193   6.738   9.125
 7226W        W11277   6.132   6.210   9.401
 7227W        W11278   0.232   6.610   0.045
 7228W        W11279   2.254   0.209   1.028
 7229W        W11280   5.507  10.275  10.763
 7230W        W11281   4.930   0.177   3.151
 7231W        W11282   2.205   1.965   3.193
 7232W        W11283   0.767  11.197  11.788
 7233W        W11284   8.086  10.998   2.880
 7234W        W11285   8.686   1.342   0.760
 7235W        W11286   0.539   9.721   0.560
 7236W        W11287   7.023   7.559   9.556
 7237W        W11288   0.110   5.266   0.082
 7238W        W11289   4.688   6.163  11.239
 7239W        W11290   3.844  10.972  11.920
 7240W        W11291   4.573   7.566  10.052
 7241W        W11292   8.335   9.789   3.600
 7242W        W11293   3.593   1.319  10.133
 7243W        W11294   2.765   9.924   2.010
 7244W        W11295   2.156   5.127  10.340
 7245W        W11296   1.779   3.564  11.451
 7246W        W11297   8.551   8.885   9.396
 7247W        W11298   6.507   7.097   1.962
 7248W        W11299   2.624   0.936   9.964
 7249W        W11300   2.671   1.834   2.645
 7250W        W11301   0.240   0.010   1.893
 7251W        W11302   4.159   3.736  10.334
 7252W        W11303   3.661   6.147   8.355
 7253W        W11304   3.259   4.726  10.091
 7254W        W11305   0.404   6.664   1.128
 7255W        W11306   0.770   3.157  11.021
 7256W        W11307   8.618   8.909  11.015
 7257W        W11308   1.720   8.986  11.812
 7258W        W11309   8.366   1.109   1.109
 7259W        W11310   2.561   5.651   8.707
 7260W        W11311   7.399   0.463   2.998
 7261W        W11312   2.714   8.848  10.053
 7262W        W11313   4.770   2.478  11.459
 7263W        W11314  10.887   2.949   2.534
 7264W        W11315   3.465  10.550   0.453
 7265W        W11316   6.226   5.504  11.758
 7266W        W11317   7.523   8.089  11.143
 7267W        W11318   8.856   8.507   0.864
 7268W        W11319   8.159   6.367   1.336
 7269W        W11320   9.997   0.319   9.187
 7270W        W11321   9.741   7.897   3.269
 7271W        W11322   5.097   8.266  11.969
 7272W        W11323   1.751   2.656   8.891
 7273W        W11324  10.329   8.884   2.749
 7274W        W11325   3.693   4.221   8.704
 7275W        W11326  10.353   2.177  11.386
 7276W        W11327   6.255  10.377   9.734
 7277W        W11328   2.338   3.836   8.626
 7278W        W11329   3.802   9.718   0.199
 7279W        W11330   4.103   0.406   2.467
 7280W        W11331  10.370   1.791   1.881
 7281W        W11332  10.960   2.571   2.134
 7282W        W11333   1.839   7.757   9.647
 7283W        W11334   0.413   0.415   1.552
 7284W        W11335   9.098   2.778  11.314
 7285W        W11336  10.821   6.141   9.263
 7286W        W11337   2.207   6.666   1.653
 7287W        W11338  10.248   7.948   3.143
 7288W        W11339  10.887   4.657  11.812
 7289W        W11340   6.779   5.833   1.276
 7290W        W11341   0.829   2.904  10.184
 7291W        W11342   2.739   9.928   9.996
 7292W        W11343  11.269   9.494   9.021
 7293W        W11344   8.956   2.560   3.336
 7294W        W11345   0.985   2.824  10.687
 7295W        W11346   7.514  11.296   2.218
 7296W        W11347   5.707   4.071   4.063
 7297W        W11348   0.904  11.379   0.504
 7298W        W11349   1.188   4.174   0.994
 7299W        W11350   8.457   0.982   9.390
 7300W        W11351  11.163   1.679   3.685
 7301W        W11352   3.722   1.287   1.921
 7302W        W11353   2.287   9.365  11.536
 7303W        W11354   7.081   1.992  11.347
 7304W        W11355   1.738   7.838   0.987
 7305W        W11356   9.097  10.844   1.321
 7306W        W11357  10.123  11.043  11.376
 7307W        W11358   1.363   4.109  11.011
 7308W        W11359   4.193   4.695   1.805
 7309W        W11360  10.519   8.426   1.855
 7310W        W11361   2.345   3.432   3.687
 7311W        W11362   6.757   1.369   3.291
 7312W        W11363   1.546  10.496   0.898
 7313W        W11364   5.470   8.400   0.864
 7314W        W11365   0.365  10.404  11.421
 7315W        W11366   5.003  11.039   2.010
 7316W        W11367   1.051   7.490   1.294
 7317W        W11368   2.033   5.157   1.243
 7318W        W11369   0.481   2.643   1.001
 7319W        W11370   5.650   4.680   2.971
 7320W        W11371   4.521   3.243   9.010
 7321W        W11372   9.874   4.236   0.890
 7322W        W11373   3.888   8.355  11.691
 7323W        W11374   4.244  10.570   1.952
 7324W        W11375   8.854   2.336  11.434
 7325W        W11376   6.215   9.246   0.273
 7326W        W11377   0.304   5.161   0.666
 7327W        W11378   5.678   2.807  10.498
 7328W        W11379   0.451  10.989  10.748
 7329W        W11380   0.472   2.142   9.889
 7330W        W11381   0.498   6.718   2.128
 7331W        W11382  10.414   1.977   9.075
 7332W        W11383   6.902   6.043  11.385
 7333W        W11384   9.045   0.314   1.357
 7334W        W11385   2.723   6.218   0.471
 7335W        W11386  11.361  10.239   0.268
 7336W        W11387   9.044   2.151   2.137
 7337W        W11388   1.182   7.920   2.358
 7338W        W11389   3.322   5.086  11.912
 7339W        W11390   6.498   4.510  10.509
 7340W        W11391   9.266   0.566   0.067
 7341W        W11392   1.758   9.065   9.259
 7342W        W11393   3.344   1.757   8.469
 7343W        W11394  10.066   1.012   0.857
 7344W        W11395  10.010   2.396   0.797
 7345W        W11396   0.685  11.238   9.517
 7346W        W11397   8.667   6.019   8.651
 7347W        W11398   7.905   4.273   9.811
 7348W        W11399   8.997  10.176  11.928
 7349W        W11400   6.969   0.844   9.739
 7350W        W11401   7.962   4.502  10.272
 7351W        W11402   9.617   2.919   8.959
 7352W        W11403  10.500   0.933   2.361
 7353W        W11404  11.330   6.149   9.458
 7354W        W11405   5.824   2.296   1.183
 7355W        W11406   6.561   0.223   2.369
 7356W        W11407   8.260   7.882   9.568
 7357W        W11408   8.044   7.151  12.000
 7358W        W11409   7.955  11.229   1.441
 7359W        W11410   2.779   4.980   0.730
 7360W        W11411   4.961   7.053   9.451
 7361W        W11412   4.687   4.777   2.021
 7362W        W11413   1.789   2.323   0.975
 7363W        W11414   0.318   5.764  10.333
 7364W        W11415   2.867   3.699   0.485
 7365W        W11416   4.975   1.777   8.788
 7366W        W11417  10.688   6.804   9.902
 7367W        W11418   2.262   0.267   0.513
 7368W        W11419   4.155   4.860  10.394
 7369W        W11420   1.998   5.422   0.792
 7370W        W11421   6.066   6.486  10.683
 7371W        W11422   8.771   9.436   0.566
 7372W        W11423   9.954   5.663   2.491
 7373W        W11424  10.344   7.445   0.673
 7374W        W11425   1.475  11.390  10.439
 7375W        W11426  10.711   9.642   0.665
 7376W        W11427   8.622   2.557   1.044
 7377W        W11428   4.283   9.951  11.167
 7378W        W11429   8.766   5.922  10.297
 7379W        W11430   8.429   3.839   0.900
 7380W        W11431   2.098   8.071   0.730
 7381W        W11432  11.189   3.554   3.291
 7382W        W11433   7.473  10.508   2.715
 7383W        W11434   9.010   8.586   2.279
 7384W        W11435   0.964   6.919   2.242
 7385W        W11436   7.612  11.341  11.636
 7386W        W11437  10.374   8.911   1.388
 7387W        W11438   3.768   7.098   1.974
 7388W        W11439   0.567   3.676   1.340
 7389W        W11440   3.541   0.735   9.936
 7390W        W11441   0.572   9.125   2.229
 7391W        W11442  11.410   8.629  10.875
 7392W        W11443   7.259   2.785   2.809
 7393W        W11444   8.710   8.379   1.501
 7394W        W11445   3.693   3.637   9.368
 7395W        W11446   4.725   5.706  11.010
 7396W        W11447   5.332   7.263   9.131
 7397W        W11448   7.425   0.541   2.491
 7398W        W11449   3.227   3.156   9.921
 7399W        W11450   9.697   0.405   3.058
 7400W        W11451   2.388   9.943   3.424
 7401W        W11452   7.819  10.593  10.582
 7402W        W11453   7.257   1.283   3.243
 7403W        W11454   1.382   0.246   1.426
 7404W        W11455   4.480   8.470   1.130
 7405W        W11456   5.737   2.808  11.547
 7406W        W11457   1.151   1.019   0.336
 7407W        W11458   6.558   8.131   1.882
 7408W        W11459   2.821   2.703   0.358
 7409W        W11460   9.475   1.951   9.534
 7410W        W11461   3.579   7.017  11.524
 7411W        W11462   0.756   6.052   9.484
 7412W        W11463  10.262   2.922  11.012
 7413W        W11464   3.576   3.190   9.092
 7414W        W11465   2.109   0.934   3.604
 7415W        W11466   5.487   7.555  11.921
 7416W        W11467  11.333   2.717   0.780
 7417W        W11468   6.535   6.654  10.226
 7418W        W11469   7.428  10.240  10.506
 7419W        W11470   6.092   5.082   1.543
 7420W        W11471   3.598   1.807  11.849
 7421W        W11472   1.813   3.592   0.395
 7422W        W11473   5.081   4.228   1.359
 7423W        W11474   3.237   4.695   2.007
 7424W        W11475   6.089   7.738   3.675
 7425W        W11476   7.549   4.493   9.516
 7426W        W11477   5.404   9.048   0.201
 7427W        W11478  10.829   5.580   1.695
 7428W        W11479   8.581   8.881   2.209
 7429W        W11480   9.325   3.640   1.304
 7430W        W11481   8.223   8.136  11.767
 7431W        W11482   2.414   7.409   1.500
 7432W        W11483   9.080   2.687   9.379
 7433W        W11484   2.349   9.996   9.018
 7434W        W11485   6.761   4.230   0.490
 7435W        W11486   8.903   1.024   0.439
 7436W        W11487   9.892  11.248   0.232
 7437W        W11488   5.929  10.656  11.419
 7438W        W11489   4.257   1.362   0.435
 7439W        W11490  10.001  10.324   9.467
 7440W        W11491   2.858   4.543   0.475
 7441W        W11492   8.632   2.566   1.547
 7442W        W11493   8.681   7.568   1.887
 7443W        W11494   4.008   8.068   3.016
 7444W        W11495   9.952   3.309   2.402
 7445W        W11496   0.405   5.032   8.891
 7446W        W11497   0.359   8.585   2.496
 7447W        W11498   9.375  10.393   1.869
 7448W        W11499  11.109   4.588   0.287
 7449W        W11500   2.144   3.236   0.183
 7450W        W11501   5.240   1.226  11.449
 7451W        W11502   9.763   2.346   3.535
 7452W        W11503   4.660  10.404  11.818
 7453W        W11504   5.643   4.794  10.543
 7454W        W11505   7.154   3.871   3.055
 7455W        W11506   4.319   4.709   9.944
 7456W        W11507   0.479   2.686   9.384
 7457W        W11508   9.607   5.703   2.875
 7458W        W11509  10.027   7.480   3.316
 7459W        W11510   2.063   8.782   8.470
 7460W        W11511   1.784   6.465   1.430
 7461W        W11512   4.043   5.941   1.176
 7462W        W11513   5.168   7.838  11.577
 7463W        W11514   2.194  11.308  10.001
 7464W        W11515   1.981   2.670  11.292
 7465W        W11516   8.553   1.580   1.878
 7466W        W11517   0.150   9.423   9.436
 7467W        W11518  10.007   6.151   0.198
 7468W        W11519   3.649   8.427  10.784
 7469W        W11520   6.346  10.745   0.331
 7470W        W11521  10.339   9.979   1.782
 7471W        W11522   7.655   0.030   1.712
 7472W        W11523   5.103   8.613  10.392
 7473W        W11524   8.155   3.881   0.359
 7474W        W11525   8.920   3.263  11.460
 7475W        W11526   7.643   5.608  11.077
 7476W        W11527   6.714   3.665  11.384
 7477W        W11528   8.136   0.472   9.397
 7478W        W11529   4.624   2.490   3.216
 7479W        W11530  10.059   6.174  10.808
 7480W        W11531   2.376   3.385   8.938
 7481W        W11532   8.463   5.000   9.996
 7482W        W11533  11.469   4.810   8.606
 7483W        W11534   8.568   8.330  10.915
 7484W        W11535   0.766   4.879   3.462
 7485W        W11536  10.191   5.819  11.479
 7486W        W11537   0.480   4.716   2.873
 7487W        W11538   0.356   8.512   3.005
 7488W        W11539   8.427  11.221   1.681
 7489W        W11540   9.002   5.051  11.185
 7490W        W11541   7.854   4.523  11.760
 7491W        W11542   7.502   6.948   3.388
 7492W        W11543   8.949   9.121   2.481
 7493W        W11544   5.111   4.038   9.038
 7494W        W11545   8.946   5.672   2.310
 7495W        W11546  11.229  10.135   1.929
 7496W        W11547   5.013  10.060  10.536
 7497W        W11548   4.640   7.017   1.581
 7498W        W11549   1.696   3.089  11.261
 7499W        W11550   0.876  10.422   9.992
 7500W        W11551   6.031   4.920   2.064
 7501W        W11552   2.261   1.156   0.019
 7502W        W11553   2.706   5.447  10.322
 7503W        W11554  10.947  10.108   3.154
 7504W        W11555   7.229   8.384   3.367
 7505W        W11556  11.487   0.273   0.497
 7506W        W11557   6.391   0.227   9.270
 7507W        W11558   3.758   2.644   1.601
 7508W        W11559   6.952   7.989   3.123
 7509W        W11560   9.907   1.047   8.628
 7510W        W11561   5.252   3.587  11.496
 7511W        W11562   6.443   0.974   1.344
 7512W        W11563   1.998   5.090   2.131
 7513W        W11564   4.469   6.523   1.610
 7514W        W11565   0.891   2.110   3.246
 7515W        W11566   2.793   6.450   9.243
 7516W        W11567   5.022   1.235  11.944
 7517W        W11568   6.940   5.673  11.740
 7518W        W11569   9.983   1.358   9.535
 7519W        W11570   0.817   2.396   2.184
 7520W        W11571   6.454   8.099   3.308
 7521W        W11572   5.021   3.495   3.988
 7522W        W11573   8.319   2.984  10.852
 7523W        W11574   9.428   7.631   0.479
 7524W        W11575   7.543  10.788   3.141
 7525W        W11576   6.472   6.134   1.528
 7526W        W11577   6.094   0.687  11.771
 7527W        W11578   8.120   3.290   0.442
 7528W        W11579   8.535   6.582   2.701
 7529W        W11580  11.332   2.317   1.845
 7530W        W11581   9.088   5.209   0.684
 7531W        W11582   5.522  10.955  11.493
 7532W        W11583   0.277   8.527   0.037
 7533W        W11584   9.524   8.663   0.298
 7534W        W11585   6.465   5.922   9.117
 7535W        W11586   5.289   7.462   8.658
 7536W        W11587   4.234   6.218  10.265
 7537W        W11588   5.118   3.148   3.617
 7538W        W11589   8.281   3.713   1.380
 7539W        W11590   8.416   9.753   2.113
 7540W        W11591   6.191  10.857  11.825
 7541W        W11592   4.293   9.121   0.336
 7542W        W11593   1.251  11.420   1.799
 7543W        W11594   1.734   3.204   8.621
 7544W        W11595   3.763   9.287   1.925
 7545W        W11596   3.144   4.096  10.280
 7546W        W11597   2.648   9.000   9.055
 7547W        W11598   4.109  11.353   9.402
 7548W        W11599   6.380  10.084  11.411
 7549W        W11600   4.736   0.075   2.417
 7550W        W11601   1.279   7.024   2.923
 7551W        W11602   7.644   9.546   1.960
 7552W        W11603   7.381  10.769  10.394
 7553W        W11604  10.378   0.412   2.393
 7554W        W11605   0.023   4.666   2.639
 7555W        W11606   5.425   6.026  11.657
 7556W        W11607   7.361   1.682   9.656
 7557W        W11608   8.180   3.303   1.103
 7558W        W11609   6.155   1.318   1.658
 7559W        W11610   5.255   0.924   0.729
 7560W        W11611   2.558   7.034   9.447
 7561W        W11612   2.991   5.826   3.137
 7562W        W11613   2.658  10.685  10.437
 7563W        W11614   6.270   2.866   9.469
 7564W        W11615   0.472   6.180   0.273
 7565W        W11616   5.016   8.372   9.960
 7566W        W11617   5.776   9.557   0.245
 7567W        W11618   7.916   7.653  10.865
 7568W        W11619   2.601   4.234   8.893
 7569W        W11620   8.573  11.281   0.672
 7570W        W11621   3.118   5.882   0.401
 7571W        W11622   2.509  10.366   2.046
 7572W        W11623   9.985   4.183  11.526
 7573W        W11624   6.750   8.497   3.210
 7574W        W11625  11.279   1.730  10.302
 7575W        W11626   0.823  11.000   2.441
 7576W        W11627   6.988  10.943  10.116
 7577W        W11628   6.643   4.252  10.086
 7578W        W11629  10.244   4.606  10.396
 7579W        W11630   8.149   4.808   2.686
 7580W        W11631   1.284   7.541   2.689
 7581W        W11632   9.841   4.288  10.579
 7582W        W11633   2.829   3.694  10.957
 7583W        W11634   0.478   5.054   1.147
 7584W        W11635   9.027   6.861  10.440
 7585W        W11636   9.016   3.185   9.564
 7586W        W11637   9.306   4.092  11.993
 7587W        W11638  11.259   4.235  11.699
 7588W        W11639   5.029   3.815   9.596
 7589W        W11640   4.046   2.065   0.871
 7590W        W11641   8.974   7.867   0.345
 7591W        W11642   3.443   5.239  10.886
 7592W        W11643   7.430   3.253   0.406
 7593W        W11644   2.223   7.664   1.912
 7594W        W11645   3.894   1.729   0.422
 7595W        W11646   4.218   6.686  10.854
 7596W        W11647   3.604   6.602   1.728
 7597W        W11648  10.605   9.567   2.330
 7598W        W11649   9.610   6.439  11.655
 7599W        W11650   6.128   4.491   3.185
 7600W        W11651   9.435   7.017   2.790
 7601W        W11652   0.367  10.215   0.436
 7602W        W11653   2.298   7.959   0.280
 7603W        W11654   9.106   6.853   8.606
 7604W        W11655  10.771   1.980  10.978
 7605W        W11656   2.777   3.285  11.290
 7606W        W11657   5.983  10.447   3.220
 7607W        W11658   2.227   8.084   2.913
 7608W        W11659   1.282   1.818   2.795
 7609W        W11660   2.902   5.990   9.039
 7610W        W11661  10.971   3.547   0.443
 7611W        W11662   9.535   4.797   2.771
 7612W        W11663  10.905   4.160   8.502
 7613W        W11664   2.701  11.353  10.796
 7614W        W11665   4.716   8.423   9.550
 7615W        W11666   1.679   6.745  11.492
 7616W        W11667   9.784   5.665   3.374
 7617W        W11668   6.652   2.884   0.174
 7618W        W11669   7.394   4.554  11.995
 7619W        W11670  10.097   3.570  10.399
 7620W        W11671   6.096  10.868   1.441
 7621W        W11672   8.827   5.085   9.301
 7622W        W11673  10.064   0.740   2.167
 7623W        W11674  11.245   9.913  11.863
 7624W        W11675   7.700   3.222   2.485
 7625W        W11676   8.889   8.012   1.798
 7626W        W11677   8.228   8.599   9.085
 7627W        W11678   6.913  10.202   0.948
 7628W        W11679  10.298   4.134  11.919
 7629W        W11680   3.407   2.864  11.074
 7630W        W11681  10.976   9.945   9.043
 7631W        W11682   3.681  11.257   9.079
 7632W        W11683   8.515   5.072  11.388
 7633W        W11684   3.356   7.512   1.555
 7634W        W11685   5.042   8.696   2.449
 7635W        W11686   9.281   9.626   9.464
 7636W        W11687   2.489   9.111  10.888
 7637W        W11688   4.288   4.825  11.260
 7638W        W11689  11.340   7.209   3.626
 7639W        W11690   2.847   2.161   8.999
 7640W        W11691   0.285   0.336  11.261
 7641W        W11692  11.268   3.389   9.566
 7642W        W11693   5.580   2.366   8.730
 7643W        W11694  10.359   7.543  10.731
 7644W        W11695   1.313  10.919   1.789
 7645W        W11696   7.624   3.598   9.416
 7646W        W11697  10.976  10.554   3.453
 7647W        W11698   5.922   0.937   1.365
 7648W        W11699  11.337   9.842  10.428
 7649W        W11700   5.142   4.076   2.717
 7650W        W11701   6.581   0.681   0.915
 7651W        W11702   9.301   0.262  10.829
 7652W        W11703   6.100   1.869   1.305
 7653W        W11704   3.319   4.508   2.931
 7654W        W11705   7.605   7.609  11.341
 7655W        W11706  10.747  10.881   9.469
 7656W        W11707   4.366   9.079   9.769
 7657W        W11708   5.411   3.242  10.275
 7658W        W11709   4.373   1.814   1.235
 7659W        W11710  11.341   1.906   0.695
 7660W        W11711   1.264   8.844   3.296
 7661W        W11712   8.818   4.631   9.994
 7662W        W11713   0.506   7.932   0.234
 7663W        W11714   7.636   5.846   1.337
 7664W        W11715   5.152   7.589   2.746
 7665W        W11716   3.833   7.933   0.005
 7666W        W11717   3.157   4.980  10.528
 7667W        W11718   4.690   3.542   1.866
 7668W        W11719   0.168   3.609   3.549
 7669W        W11720   5.405   4.134   1.737
 7670W        W11721   5.691   7.606   0.402
 7671W        W11722   7.047  10.940   9.558
 7672W        W11723   1.633   8.500  11.913
 7673W        W11724  10.414   8.635   8.494
 7674W        W11725   8.346   5.047   9.505
 7675W        W11726   7.181   6.096  11.859
 7676W        W11727   6.167   4.438   2.209
 7677W        W11728   6.975   3.258  11.559
 7678W        W11729   0.480   0.277   9.605
 7679W        W11730   8.092   4.934   8.226
 7680W        W11731   3.197   7.622  11.574
 7681W        W11732   4.979   0.782  10.265
 7682W        W11733   1.814   5.633  10.330
 7683W        W11734   8.910   5.070   8.788
 7684W        W11735  11.358  11.003   2.813
 7685W        W11736   4.400   8.099   2.668
 7686W        W11737   1.402   3.810   0.684
 7687W        W11738   7.880  10.763  11.065
 7688W        W11739   5.547   5.173   3.105
 7689W        W11740   1.430   7.149   8.908
 7690W        W11741   9.871   6.056   9.388
 7691W        W11742   7.321   4.413   8.728
 7692W        W11743   5.573   3.128   8.402
 7693W        W11744   0.876   2.483   3.722
 7694W        W11745   5.000   1.516   3.462
 7695W        W11746   6.534   4.075   2.266
 7696W        W11747   8.339   2.935   0.790
 7697W        W11748   3.140   9.400   3.161
 7698W        W11749   8.604   4.892   2.995
 7699W        W11750   4.103   3.706   2.690
 7700W        W11751  11.083  10.539  10.308
 7701W        W11752   8.193   9.807  10.925
 7702W        W11753   2.433  10.426   0.360
 7703W        W11754   7.938   8.943   0.110
 7704W        W11755   4.077   3.710   9.705
 7705W        W11756   1.163   7.433  10.356
 7706W        W11757   2.662   0.519   1.201
 7707W        W11758   9.957   4.992  11.258
 7708W        W11759   6.123  11.326   9.976
 7709W        W11760   7.477   2.190   9.570
 7710W        W11761   7.187   0.664   1.734
 7711W        W11762  11.444  11.061  11.097
 7712W        W11763   5.652   0.025   2.787
 7713W        W11764   5.185   5.041   1.544
 7714W        W11765   6.072   2.651  11.994
 7715W        W11766   0.531  11.490  10.513
 7716W        W11767   3.126   0.768  10.535
 7717W        W11768   7.082  10.669   1.182
 7718W        W11769   4.319   4.039  11.640
 7719W        W11770  11.468   9.351   9.921
 7720W        W11771   0.230   8.378   0.585
 7721W        W11772   2.390   2.941   0.541
 7722W        W11773   4.780   2.412  10.536
 7723W        W11774   0.402   4.341   2.227
 7724W        W11775   7.042   8.010   2.586
 7725W        W11776   5.743  10.089   2.925
 7726W        W11777   6.511   1.606   9.407
 7727W        W11778   1.447  10.783   9.852
 7728W        W11779   1.223   2.162   2.402
 7729W        W11780   0.990   6.246   9.940
 7730W        W11781  10.909   3.838  11.449
 7731W        W11782   4.736   8.865   3.344
 7732W        W11783   6.438   2.290   3.623
 7733W        W11784  10.678   1.233   0.916
 7734W        W11785   6.435   3.134   0.821
 7735W        W11786   5.579   7.327   9.979
 7736W        W11787   4.171   8.666   0.028
 7737W        W11788   2.190  10.495  10.517
 7738W        W11789  10.505   3.144   1.171
 7739W        W11790   1.094   2.707  11.874
 7740W        W11791  10.281   5.565   3.459
 7741W        W11792   5.165   5.624  10.060
 7742W        W11793   9.860   3.135  10.088
 7743W        W11794   5.250   2.090   9.065
 7744W        W11795   0.115   0.955   9.116
 7745W        W11796  10.020   6.443   9.046
 7746W        W11797  11.362   6.666   9.374
 7747W        W11798   2.571   4.566   3.428
 7748W        W11799   9.875   0.691   1.215
 7749W        W11800   6.931   7.912   8.915
 7750W        W11801   2.666   3.824   3.523
 7751W        W11802   2.087   9.302   0.788
 7752W        W11803   0.170   4.331  10.269
 7753W        W11804   0.531  11.308   3.290
 7754W        W11805   0.751   2.583   3.212
 7755W        W11806   5.290   0.848   1.950
 7756W        W11807   8.111  10.544   3.100
 7757W        W11808   5.165   7.538   1.806
 7758W        W11809  10.386  10.880  10.064
 7759W        W11810   1.827   0.186   0.214
 7760W        W11811   5.022   7.371  11.822
 7761W        W11812  10.996   9.139   8.503
 7762W        W11813   1.290   4.792   1.704
 7763W        W11814   8.334   4.508   9.929
 7764W        W11815   1.840   5.353  11.943
 7765W        W11816  11.012   5.524   2.703
 7766W        W11817   8.567  11.326  10.701
 7767W        W11818   2.263   0.345   2.467
 7768W        W11819   9.867   8.470  10.823
 7769W        W11820   8.340   7.644   0.899
 7770W        W11821   5.519   9.196   1.852
 7771W        W11822  10.235   6.044   1.713
 7772W        W11823   9.764   8.897  10.354
 7773W        W11824   0.420   3.593  10.596
 7774W        W11825   0.362   6.572   0.576
 7775W        W11826   5.473   0.366   2.437
 7776W        W11827  10.850   7.297   9.866
 7777W        W11828   4.475   2.822   2.383
 7778W        W11829   2.256   6.554   0.649
 7779W        W11830   5.824   8.044  10.236
 7780W        W11831   1.967   3.208   1.455
 7781W        W11832   6.925   2.141   3.525
 7782W        W11833   3.105   1.788   1.742
 7783W        W11834   6.473   3.504   3.699
 7784W        W11835   1.712   8.423  10.975
 7785W        W11836   4.048   5.694  11.336
 7786W        W11837   2.145   1.355   2.439
 7787W        W11838   8.246   1.456   9.545
 7788W        W11839  11.093   9.005  10.022
 7789W        W11840  10.631  10.430  10.118
 7790W        W11841  10.960   3.782   9.321
 7791W        W11842  11.392   3.587   9.105
 7792W        W11843   2.799   7.343   0.763
 7793W        W11844   7.449   8.078   2.989
 7794W        W11845   3.293  11.117   3.119
 7795W        W11846   0.408   7.051   0.788
 7796W        W11847   0.887   0.317   0.811
 7797W        W11848   9.654  10.365   9.850
 7798W        W11849   8.642   3.536   2.617
 7799W        W11850   0.483   8.366  10.491
 7800W        W11851   5.612   9.146  11.225
 7801W        W11852   3.117   1.645  11.805
 7802W        W11853   9.690  10.083   0.423
 7803W        W11854   3.505   6.688  10.313
 7804W        W11855   6.909   4.095   8.919
 7805W        W11856   1.319   5.483   0.056
 7806W        W11857   5.851   0.280  11.577
 7807W        W11858   9.582  10.778   1.547
 7808W        W11859   5.244   2.746   9.478
 7809W        W11860   8.464   8.526  10.073
 7810W        W11861   7.746   4.877   3.565
 7811W        W11862   1.367   2.821   1.438
 7812W        W11863  10.624  11.050  11.423
 7813W        W11864  10.325  11.442   8.836
 7814W        W11865   8.027   7.390   9.542
 7815W        W11866  11.299   1.825   0.183
 7816W        W11867   8.022   5.503   1.262
 7817W        W11868   9.586   7.442   3.022
 7818W        W11869   5.500  11.172   0.803
 7819W        W11870   7.436   4.780  11.539
 7820W        W11871   7.652   2.862  11.320
 7821W        W11872   3.625   8.887   3.732
 7822W        W11873   4.753   2.897   9.594
 7823W        W11874   8.957   3.785   0.210
 7824W        W11875   0.846   4.776  11.962
 7825W        W11876   6.244   1.325   3.206
 7826W        W11877  10.544   2.308   0.774
 7827W        W11878  10.107  10.500   3.280
 7828W        W11879   0.693  11.301  10.033
 7829W        W11880   4.749   4.166   2.419
 7830W        W11881  10.314   9.331   0.474
 7831W        W11882   8.073   6.329   3.710
 7832W        W11883   6.774   9.142   2.863
 7833W        W11884   1.480  11.248   1.351
 7834W        W11885   5.329   5.169  10.689
 7835W        W11886   0.010   1.234   2.348
 7836W        W11887   8.513   7.681  10.276
 7837W        W11888   3.371   3.771  11.047
 7838W        W11889   0.613   5.456   8.640
 7839W        W11890   6.782   9.905   2.764
 7840W        W11891   0.626   8.085  10.897
 7841W        W11892   5.939   6.089   1.371
 7842W        W11893   8.573   4.107   8.733
 7843W        W11894   9.642   9.916   2.258
 7844W        W11895   8.652   5.482  10.064
 7845W        W11896   9.119   2.791  10.818
 7846W        W11897   8.058   5.350  10.782
 7847W        W11898  10.411   2.483   9.149
 7848W        W11899   2.687   1.949   9.775
 7849W        W11900   1.112   1.399  11.554
 7850W        W11901   3.615  10.730   9.011
 7851W        W11902   6.367   0.323   1.853
 7852W        W11903   7.086  10.407  10.861
 7853W        W11904   0.755   2.311  11.800
 7854W        W11905   7.949   6.910   0.435
 7855W        W11906   9.984   0.519   0.732
 7856W        W11907   7.040   7.004   3.166
 7857W        W11908   0.365   6.486  10.966
 7858W        W11909   4.059   6.707   8.980
 7859W        W11910   3.352   0.388   8.895
 7860W        W11911   8.177   5.605   3.199
 7861W        W11912   0.018   7.906   0.444
 7862W        W11913   2.308   3.322   9.974
 7863W        W11914   7.485   0.854   9.707
 7864W        W11915   9.147   1.197   1.698
 7865W        W11916  11.326   2.134  11.145
 7866W        W11917   5.655   6.527  11.028
 7867W        W11918   4.933   6.775  11.772
 7868W        W11919   5.636   9.021   1.401
 7869W        W11920   7.015   8.331  11.271
 7870W        W11921   0.572   4.063  10.391
 7871W        W11922   2.635   4.687   9.948
 7872W        W11923   8.499   1.288   3.545
 7873W        W11924   3.718   8.859  10.504
 7874W        W11925   9.016   0.279  10.034
 7875W        W11926   5.879   2.179   0.268
 7876W        W11927   2.481   6.559  10.480
 7877W        W11928   5.866   0.080  10.437
 7878W        W11929   0.320   9.890   9.649
 7879W        W11930   0.866   2.289   8.968
 7880W        W11931  11.458   3.630  10.900
 7881W        W11932   5.631   2.431   2.147
 7882W        W11933   5.959   3.151  10.776
 7883W        W11934   9.392  10.152  11.560
 7884W        W11935   9.908   8.243  11.300
 7885W        W11936   0.399   0.790   9.514
 7886W        W11937   4.672   9.043   2.314
 7887W        W11938   2.315   3.776  10.769
 7888W        W11939   7.741   1.033  10.502
 7889W        W11940  10.911  10.501  10.887
 7890W        W11941   0.189   9.963   1.768
 7891W        W11942   7.926   5.997   0.508
 7892W        W11943   3.067  10.504   9.057
 7893W        W11944  10.142   3.272   0.846
 7894W        W11945   3.329  10.983   9.387
 7895W        W11946   4.521   1.899   9.627
 7896W        W11947  10.968   5.893  10.771
 7897W        W11948   5.369   8.491   3.645
 7898W        W11949   0.521   2.718  11.057
 7899W        W11950   5.571   2.869   8.880
 7900W        W11951  10.236   0.832  11.598
 7901W        W11952  10.531   1.489   8.944
 7902W        W11953   8.191   5.082   1.881
 7903W        W11954   6.004   8.087  11.474
 7904W        W11955   7.590   9.398   9.995
 7905W        W11956   6.676   3.140   1.914
 7906W        W11957  10.737   3.611   3.541
 7907W        W11958   9.622   1.967  10.040
 7908W        W11959   8.900   0.009  11.020
 7909W        W11960   9.544   3.127   2.998
 7910W        W11961   4.153   9.578   8.528
 7911W        W11962   4.348   1.817   0.204
 7912W        W11963  10.427  11.082  10.536
 7913W        W11964   7.670   7.661   2.780
 7914W        W11965   6.359   6.125  11.456
 7915W        W11966   7.631   7.057   9.694
 7916W        W11967   3.565   6.607   1.215
 7917W        W11968  11.017   7.631   9.505
 7918W        W11969   8.621   2.795  11.523
 7919W        W11970   8.843  11.303   9.070
 7920W        W11971  10.291   4.594  11.362
 7921W        W11972   5.357   3.256   3.164
 7922W        W11973   8.917  11.389   1.699
 7923W        W11974   4.067   6.832   1.661
 7924W        W11975   9.807   6.173  11.259
 7925W        W11976   4.184   1.056   3.163
 7926W        W11977   4.074   9.100  11.783
 7927W        W11978   3.770   9.745   0.710
 7928W        W11979  10.967   2.398   9.706
 7929W        W11980   9.264   8.512   8.975
 7930W        W11981  10.038   7.149  11.529
 7931W        W11982   5.274   9.856  10.954
 7932W        W11983   2.643   4.917   0.218
 7933W        W11984   9.525  10.312  10.733
 7934W        W11985   6.579   7.180   4.044
 7935W        W11986   5.915   8.375  10.876
 7936W        W11987   1.321   4.231   3.190
 7937W        W11988   1.706   0.641   2.607
 7938W        W11989   8.654   1.213  10.298
 7939W        W11990   4.295   6.041   2.175
 7940W        W11991   3.299   9.576  10.589
 7941W        W11992  10.989   4.299   1.983
 7942W        W11993   8.944   0.817   3.437
 7943W        W11994   9.690   5.150   9.087
 7944W        W11995   6.681   1.789   1.937
 7945W        W11996   9.118   1.247   2.701
 7946W        W11997   2.789   8.073   0.378
 7947W        W11998   1.280   7.157   0.909
 7948W        W11999   4.965  10.727   8.528
 7949W        W12000  11.287   5.713   0.223
 7950W        W12001   1.270   2.228  11.713
 7951W        W12002   5.287   8.056   8.172
 7952W        W12003   5.791   9.078   2.808
 7953W        W12004   9.325   7.242  11.213
 7954W        W12005   3.518   4.594   9.505
 7955W        W12006  11.003   5.325   9.377
 7956W        W12007  11.388   6.711   8.860
 7957W        W12008   9.152  10.874  11.273
 7958W        W12009  10.579  10.936   0.857
 7959W        W12010  10.562   6.306   9.919
 7960W        W12011  10.423   8.851   0.573
 7961W        W12012   6.581   7.663   3.558
 7962W        W12013   5.049  10.963   1.000
 7963W        W12014   2.269   4.201   0.980
 7964W        W12015   8.126   3.289   2.142
 7965W        W12016  10.131   2.375  11.813
 7966W        W12017   9.092   1.246  10.559
 7967W        W12018   9.018   0.297   9.091
 7968W        W12019   4.674   7.487   2.500
 7969W        W12020   3.410  10.754   2.760
 7970W        W12021   7.566   1.917   1.478
 7971W        W12022   5.759  11.365  11.288
 7972W        W12023   5.637   2.283  10.249
 7973W        W12024   9.885   7.025  10.506
 7974W        W12025   5.933   3.277   9.412
 7975W        W12026   8.872   7.549   2.397
 7976W        W12027   9.406   7.167   1.320
 7977W        W12028   2.158   0.453   2.971
 7978W        W12029   2.842   1.561   1.329
 7979W        W12030   2.337   4.713   9.423
 7980W        W12031   9.183   8.287   9.412
 7981W        W12032   4.124   4.319   3.151
 7982W        W12033   9.543  11.320  10.746
 7983W        W12034   7.954   4.876   9.879
 7984W        W12035   1.280   6.488  10.761
 7985W        W12036   7.900   4.776   0.192
 7986W        W12037   2.033   7.095   1.362
 7987W        W12038   1.015   2.467  10.307
 7988W        W12039   0.843   0.894   2.689
 7989W        W12040   6.119   1.983   0.751
 7990W        W12041   2.714   6.105   2.311
 7991W        W12042  10.466   5.687   2.388
 7992W        W12043   9.937  10.428   0.730
 7993W        W12044   7.477   8.573  11.348
 7994W        W12045   4.467   2.507   1.952
 7995W        W12046  11.214   0.004   1.764
 7996W        W12047   9.583   1.006   9.069
 7997W        W12048   8.908   0.437   0.865
 7998W        W12049   1.375   6.135   1.446
 7999W        W12050   2.256   9.011   9.444
 8000W        W12051  10.505   8.112   0.964
 8001W        W12052   9.384  11.371   0.234
 8002W        W12053   6.629  10.423   2.025
 8003W        W12054   0.380   4.013  11.393
 8004W        W12055  10.275   5.471   7.956
 8005W        W12056  11.318   0.632   9.373
 8006W        W12057   1.808   7.197  11.282
 8007W        W12058   8.697   5.145   1.819
 8008W        W12059  10.045   5.522  10.153
 8009W        W12060   2.233   5.657   1.707
 8010W        W12061   3.741   4.811   3.975
 8011W        W12062   0.698   9.860   1.759
 8012W        W12063   9.330   6.721   1.559
 8013W        W12064   8.154   4.338  10.965
 8014W        W12065   6.029   5.392   3.098
 8015W        W12066   9.847   8.969   1.356
 8016W        W12067  10.141   0.797  11.067
 8017W        W12068   2.403   6.125   9.937
 8018W        W12069   6.079  10.315  11.757
 8019W        W12070   7.658   7.105  10.206
 8020W        W12071   9.393   0.820   3.145
 8021W        W12072   6.438   2.411   9.761
 8022W        W12073   7.581  10.366   2.216
 8023W        W12074   9.061   8.783   9.369
 8024W        W12075   8.627   3.356   0.848
 8025W        W12076   3.587   6.047  11.157
 8026W        W12077   7.042   2.762   3.273
 8027W        W12078   7.919   9.421   1.317
 8028W        W12079   0.309  10.015   2.702
 8029W        W12080   8.256  10.321   3.553
 8030W        W12081   1.815   1.166  10.849
 8031W        W12082   1.793   0.850  10.428
 8032W        W12083   5.133   4.451   8.728
 8033W        W12084   8.850  10.357   2.682
 8034W        W12085   0.828   6.248   3.433
 8035W        W12086   7.487   8.828  11.866
 8036W        W12087   5.987   2.050   3.712
 8037W        W12088   4.230  10.038   9.743
 8038W        W12089  11.337   0.763   0.470
 8039W        W12090   1.821   5.986   1.684
 8040W        W12091   6.398   2.878  10.784
 8041W        W12092   1.741   0.972   1.061
 8042W        W12093   0.345   7.209  10.304
 8043W        W12094   0.810   9.858   2.563
 8044W        W12095   8.414   5.528   0.281
 8045W        W12096   0.798   5.076   0.747
 8046W        W12097   6.431  10.351   2.986
 8047W        W12098   1.781   5.018   3.595
 8048W        W12099  11.114   2.633   3.555
 8049W        W12100   7.887   4.111  10.589
 8050W        W12101   9.398   5.299   8.625
 8051W        W12102   1.152   4.046   8.975
 8052W        W12103   9.446   5.603   2.353
 8053W        W12104   6.068  11.349  11.706
 8054W        W12105   0.863   6.862   0.934
 8055W        W12106   6.054   1.186  11.756
 8056W        W12107   8.170   1.437  10.437
 8057W        W12108   4.757   1.494   0.455
 8058W        W12109   3.698   2.165  10.587
 8059W        W12110   6.992   3.174   1.480
 8060W        W12111  11.022   2.302   3.124
 8061W        W12112   1.328   0.316  11.707
 8062W        W12113   0.872   4.264   0.146
 8063W        W12114   7.512   3.088   9.964
 8064W        W12115   9.846   7.186   9.469
 8065W        W12116  10.551   3.333  10.468
 8066W        W12117   0.824   7.508   0.298
 8067W        W12118   6.877   0.266   1.798
 8068W        W12119  11.066   8.098   2.197
 8069W        W12120   4.856   4.638   9.897
 8070W        W12121   4.314   1.287  11.500
 8071W        W12122  10.458   1.868  10.080
 8072W        W12123   1.182   7.040   3.463
 8073W        W12124   9.849   4.704  11.682
 8074W        W12125   3.131  10.509  11.633
 8075W        W12126   0.060   3.839  11.863
 8076W        W12127   3.821   6.616   3.884
 8077W        W12128   8.596   4.625   0.487
 8078W        W12129   1.896   1.772  11.474
 8079W        W12130   0.013  11.247   0.497
 8080W        W12131   1.236   3.250  10.855
 8081W        W12132   7.931   0.745  11.934
 8082W        W12133   9.604   7.668   9.438
 8083W        W12134   9.258   4.338   2.100
 8084W        W12135   6.099   1.293   9.497
 8085W        W12136   8.753   7.115   0.761
 8086W        W12137   4.944   1.217  11.020
 8087W        W12138   8.215   4.317   9.045
 8088W        W12139   8.852   0.315  10.543
 8089W        W12140   1.926  10.382  10.019
 8090W        W12141   5.494  10.536  11.198
 8091W        W12142   9.013   7.352   0.385
 8092W        W12143   8.283   9.545   0.519
 8093W        W12144   8.967   1.677  10.286
 8094W        W12145   0.392   5.098  11.241
 8095W        W12146   6.628  10.770   2.725
 8096W        W12147   5.994   5.482   0.228
 8097W        W12148   2.344   1.452   1.454
 8098W        W12149   0.778   2.768   0.295
 8099W        W12150   5.952   3.674   9.780
 8100W        W12151   3.599   5.071   2.764
 8101W        W12152   9.511   2.454   9.193
 8102W        W12153  11.376   7.117   2.647
 8103W        W12154   7.531   0.085  10.765
 8104W        W12155   0.270   1.774   2.791
 8105W        W12156   8.966   1.698   3.451
 8106W        W12157   7.042   1.170   1.668
 8107W        W12158   8.334   6.181   2.431
 8108W        W12159   6.955   8.572   0.067
 8109W        W12160  10.486  10.576  10.575
 8110W        W12161   9.144  10.342   9.894
 8111W        W12162   1.513   5.103   1.217
 8112W        W12163   6.855   5.928  10.882
 8113W        W12164   6.934   4.194  10.489
 8114W        W12165   1.847   2.660  10.405
 8115W        W12166   4.652   2.704  10.129
 8116W        W12167   6.479   9.990  10.485
 8117W        W12168   2.456   0.327   9.947
 8118W        W12169   3.742  10.291   3.408
 8119W        W12170   3.043   9.295   0.766
 8120W        W12171  11.106   0.751  10.444
 8121W        W12172   0.449   5.300   1.975
 8122W        W12173   3.592   5.750  10.308
 8123W        W12174   1.753   5.549   3.527
 8124W        W12175   5.215   2.122  10.562
 8125W        W12176   0.228   8.990  11.126
 8126W        W12177   8.120   7.366  10.427
 8127W        W12178   5.813   0.002   1.796
 8128W        W12179   5.945   0.778   9.827
 8129W        W12180   2.367   1.200  10.840
 8130W        W12181   1.725   3.862  11.876
 8131W        W12182   4.612   9.936   0.520
 8132W        W12183   9.406   3.331  10.252
 8133W        W12184   3.672   6.118   1.498
 8134W        W12185   2.917  11.057   0.574
 8135W        W12186   2.699   7.463  10.715
 8136W        W12187   6.050   1.805   3.256
 8137W        W12188   6.207   1.815   8.561
 8138W        W12189   2.020  10.469   2.307
 8139W        W12190   9.361  10.006   3.326
 8140W        W12191  10.430   9.897   9.067
 8141W        W12192   5.687   2.348  11.794
 8142W        W12193   6.785  10.380   0.210
 8143W        W12194   3.060   4.261   3.300
 8144W        W12195  10.021  11.018   1.761
 8145W        W12196   7.357   0.267   2.030
 8146W        W12197   7.781   6.225  11.045
 8147W        W12198   4.287   8.134  11.891
 8148W        W12199   6.411  11.264   9.537
 8149W        W12200   3.187   5.597   9.995
 8150W        W12201   5.377  10.293   9.247
 8151W        W12202   5.760   7.987   0.714
 8152W        W12203   0.618   6.625  10.033
 8153W        W12204   2.800   7.541   8.821
 8154W        W12205   2.119  10.471  11.568
 8155W        W12206   1.528   2.235   9.706
 8156W        W12207   1.458   3.847  10.193
 8157W        W12208   3.762   4.958   9.848
 8158W        W12209   7.987   3.553  11.987
 8159W        W12210   5.456  11.071   2.643
 8160W        W12211   7.919   6.734  11.024
 8161W        W12212   6.643  11.319   9.979
 8162W        W12213   8.387   6.222   1.917
 8163W        W12214  10.403   3.021   8.545
 8164W        W12215  10.797   5.752   9.590
 8165W        W12216  10.421   3.114   1.674
 8166W        W12217   7.771   3.165   0.803
 8167W        W12218   5.163   7.023   0.807
 8168W        W12219   0.443   9.834   9.160
 8169W        W12220   5.008   0.465   2.715
 8170W        W12221   1.794   1.861   3.553
 8171W        W12222   6.053   4.788  11.246
 8172W        W12223   3.737   9.315  10.738
 8173W        W12224   1.237   4.966  11.221
 8174W        W12225   9.838  11.201   2.220
 8175W        W12226   5.337  10.795   9.481
 8176W        W12227   9.886   9.948   0.895
 8177W        W12228   7.597  11.037   1.782
 8178W        W12229   3.779   0.864   2.217
 8179W        W12230   4.159   9.577   1.761
 8180W        W12231   4.100  10.485   8.818
 8181W        W12232   5.836  11.297   1.305
 8182W        W12233  10.114   0.806   1.651
 8183W        W12234   1.052   0.025   0.047
 8184W        W12235  11.473  10.419   0.711
 8185W        W12236   2.335   5.425  11.546
 8186W        W12237  10.430   9.952  10.106
 8187W        W12238   0.971  10.891  10.786
 8188W        W12239  10.479   8.615   9.618
 8189W        W12240   4.280   3.166   1.233
 8190W        W12241   9.066   6.053  10.887
 8191W        W12242   9.388   4.820   8.789
 8192W        W12243  10.938   7.791   9.988
 8193W        W12244   8.923   4.141   8.357
 8194W        W12245   1.316   6.611   1.647
 8195W        W12246   6.041   8.366   9.875
 8196W        W12247   9.123   4.650   9.598
 8197W        W12248   8.183   2.796   9.460
 8198W        W12249   7.713   2.991   1.294
 8199W        W12250   3.328   1.419   1.473
 8200W        W12251   7.014   9.190   9.560
 8201W        W12252   0.801   9.083   8.714
 8202W        W12253   6.152   8.717   0.358
 8203W        W12254   1.475  10.962  10.740
 8204W        W12255   1.793   3.735   2.099
 8205W        W12256   4.853   3.355   3.202
 8206W        W12257  11.445   9.335   2.282
 8207W        W12258   2.681  11.482   0.713
 8208W        W12259   1.430   8.072   0.574
 8209W        W12260   6.863   3.522   2.748
 8210W        W12261   5.645   2.225   0.724
 8211W        W12262   9.799   4.274   9.526
 8212W        W12263   3.311   6.273  11.546
 8213W        W12264   4.002   2.271  10.970
 8214W        W12265   9.365   3.622   0.488
 8215W        W12266   7.503   7.141  11.137
 8216W        W12267   2.083   9.583   2.551
 8217W        W12268   2.942   7.963   8.519
 8218W        W12269   6.668   5.298  11.560
 8219W        W12270  10.922   8.983  11.499
 8220W        W12271   2.683   3.711   2.547
 8221W        W12272   5.080   9.332   1.030
 8222W        W12273   4.559   6.408   8.284
 8223W        W12274  10.105   3.264  11.390
 8224W        W12275   7.918   2.661   0.824
 8225W        W12276   9.412   9.683  11.343
 8226W        W12277  10.454   1.905   0.233
 8227W        W12278   9.643   3.789  10.373
 8228W        W12279   8.409   3.234  11.378
 8229W        W12280  10.855   1.833   1.365
 8230W        W12281   2.525   6.157  11.921
 8231W        W12282   4.267   8.784   2.118
 8232W        W12283   0.377   4.548   1.217
 8233W        W12284   0.717   7.654  11.811
 8234W        W12285   4.532   0.273   2.845
 8235W        W12286   9.079   5.912   1.410
 8236W        W12287   0.441  10.382   3.226
 8237W        W12288   0.706   2.785   8.937
 8238W        W12289   9.135   0.765   8.878
 8239W        W12290   5.325   8.421   2.123
 8240W        W12291  10.309   2.694   1.940
 8241W        W12292  10.472  10.580   0.063
 8242W        W12293   4.992   6.723   8.643
 8243W        W12294   1.259   9.315  10.553
 8244W        W12295   2.636   6.053   2.819
 8245W        W12296   6.377   4.084   1.796
 8246W        W12297   1.646   0.367  10.432
 8247W        W12298   9.593   4.650   1.887
 8248W        W12299   5.715   0.444  10.132
 8249W        W12300   7.114  11.499   0.893
 8250W        W12301   1.481   6.570  10.280
 8251W        W12302   5.953   2.113   9.044
 8252W        W12303   9.037   2.927  11.810
 8253W        W12304   4.333   8.582   1.635
 8254W        W12305  10.394   0.963   0.480
 8255W        W12306   3.155   0.936   3.520
 8256W        W12307   4.393   3.595  11.945
 8257W        W12308   3.690   4.111  11.398
 8258W        W12309   0.190  10.347  11.902
 8259W        W12310   8.486  11.426  11.707
 8260W        W12311   6.507   4.826   1.402
 8261W        W12312   2.419   0.300  10.846
 8262W        W12313  10.555   6.567   3.493
 8263W        W12314   1.536   5.083   0.304
 8264W        W12315  10.994   7.989   1.247
 8265W        W12316   2.658   0.966   2.732
 8266W        W12317   6.587   1.078   2.897
 8267W        W12318   5.573   7.593  10.425
 8268W        W12319   8.373   5.717  10.546
 8269W        W12320   9.414   9.138   9.434
 8270W        W12321   5.215   4.229   9.950
 8271W        W12322   4.098   0.974   0.718
 8272W        W12323  10.613   5.142  10.379
 8273W        W12324  10.434  11.485   0.231
 8274W        W12325   8.994   0.802  10.304
 8275W        W12326   2.266   6.160   0.969
 8276W        W12327   1.841   4.105  11.436
 8277W        W12328   6.952   7.495   2.317
 8278W        W12329   1.052   7.517   9.859
 8279W        W12330   2.627   6.914  11.707
 8280W        W12331   3.085   6.293   2.899
 8281W        W12332  11.022  10.825   1.205
 8282W        W12333   9.849   3.683   9.025
 8283W        W12334   8.777   6.362  11.219
 8284W        W12335   6.050   4.140   1.424
 8285W        W12336   0.308   6.031   3.596
 8286W        W12337   5.009   2.179  11.044
 8287W        W12338  10.781   0.388  10.305
 8288W        W12339   8.285   5.781   8.906
 8289W        W12340   4.809   4.878  11.482
 8290W        W12341   4.670   7.504   1.383
 8291W        W12342   2.244   4.171  11.103
 8292W        W12343   7.256   5.092   0.284
 8293W        W12344   9.367   7.245   9.272
 8294W        W12345   6.837  10.056   8.613
 8295W        W12346   7.123   2.882  11.256
 8296W        W12347   1.874   0.054   1.463
 8297W        W12348   9.647  11.225   0.686
 8298W        W12349   4.407   7.020  11.321
 8299W        W12350   8.909   5.601   0.406
 8300W        W12351  11.234   6.222   0.986
 8301W        W12352   5.511   8.892  11.647
 8302W        W12353   7.459   5.277  11.441
 8303W        W12354   7.398   9.288  10.961
 8304W        W12355   1.002   9.039   0.920
 8305W        W12356   0.174   3.538   1.078
 8306W        W12357   8.122   5.189  11.981
 8307W        W12358  10.323   4.744   0.470
 8308W        W12359   5.933  11.441   0.817
 8309W        W12360   5.657   4.683   8.756
 8310W        W12361   5.504   3.851  11.863
 8311W        W12362   2.831   8.776  10.567
 8312W        W12363   5.194   4.589   2.736
 8313W        W12364  10.394   2.934   0.366
 8314W        W12365   3.843   5.384   2.078
 8315W        W12366  10.348  10.139  11.836
 8316W        W12367   3.351   3.891   0.517
 8317W        W12368   6.649   0.292   9.715
 8318W        W12369  10.874   8.137   9.525
 8319W        W12370   2.378  11.028   9.578
 8320W        W12371   6.494   8.522   0.708
 8321W        W12372   5.069   6.092  10.846
 8322W        W12373   8.246   4.876  10.972
 8323W        W12374   9.283   6.172   0.986
 8324W        W12375   7.578  10.782   8.673
 8325W        W12376   3.325   5.479   2.952
 8326W        W12377   9.888   1.221  10.028
 8327W        W12378   2.774   2.842   2.446
 8328W        W12379   4.400  10.366   1.491
 8329W        W12380   9.512   8.034   1.301
 8330W        W12381   3.911   6.575   0.767
 8331W        W12382   3.382   5.703   8.287
 8332W        W12383   6.954   6.077   0.755
 8333W        W12384   0.863   5.071   9.547
 8334W        W12385   9.775   6.189   1.875
 8335W        W12386   1.362   0.469   9.534
 8336W        W12387   5.066   8.173   0.477
 8337W        W12388  10.466   4.460   1.889
 8338W        W12389   9.468  11.485  10.249
 8339W        W12390   8.880  10.431   1.657
 8340W        W12391   1.947   6.632  10.510
 8341W        W12392   8.976   2.569   9.881
 8342W        W12393   8.514   9.836   9.333
 8343W        W12394  10.698   3.757  10.168
 8344W        W12395   3.243   0.534   3.230
 8345W        W12396   0.851   2.293   2.729
 8346W        W12397   9.250   8.426   3.569
 8347W        W12398   6.171   9.324  11.748
 8348W        W12399   1.101  11.390   2.275
 8349W        W12400   5.206   3.630   3.505
 8350W        W12401   0.226   9.082   2.621
 8351W        W12402   5.717   1.242   9.856
 8352W        W12403   1.707   4.561  10.092
 8353W        W12404   5.723   0.263   3.401
 8354W        W12405   4.539   2.730   9.149
 8355W        W12406   1.746   9.427  10.531
 8356W        W12407   7.672   6.458   3.386
 8357W        W12408   9.273   9.385   8.990
 8358W        W12409   5.085   4.574   1.744
 8359W        W12410   3.298   6.180   9.312
 8360W        W12411   7.814   4.603  11.246
 8361W        W12412   3.821   5.773   0.703
 8362W        W12413   1.229   5.933   3.482
 8363W        W12414   7.081   2.659  11.970
 8364W        W12415   1.790   7.290   3.925
 8365W        W12416   4.672   8.861  10.496
 8366W        W12417   9.058   1.676   1.941
 8367W        W12418   8.349   4.353   0.868
 8368W        W12419   2.671   0.225   1.700
 8369W        W12420  10.511   8.677   3.183
 8370W        W12421   1.418   7.120   2.431
 8371W        W12422   2.382   4.854   2.809
 8372W        W12423  10.450   5.811   9.977
 8373W        W12424   4.227   4.273   8.798
 8374W        W12425   1.988   4.623   1.047
 8375W        W12426   5.106   7.211   1.379
 8376W        W12427   2.355   1.863   2.210
 8377W        W12428   8.909   5.078  10.300
 8378W        W12429   4.078   5.298  10.096
 8379W        W12430   8.336   3.867   2.334
 8380W        W12431   9.370   9.341  10.929
 8381W        W12432   4.812   7.750   0.567
 8382W        W12433   1.336   4.613   1.217
 8383W        W12434   8.536   9.573  11.534
 8384W        W12435   2.294   1.503   3.468
 8385W        W12436   3.244   0.121   2.932
 8386W        W12437   7.503   8.479   9.348
 8387W        W12438   1.369   7.088  10.040
 8388W        W12439   8.534   0.317  11.395
 8389W        W12440   7.163  11.324   1.816
 8390W        W12441  11.432   4.865   9.096
 8391W        W12442   0.290   9.885  10.163
 8392W        W12443   5.067   1.671  10.760
 8393W        W12444   1.943   6.212   8.953
 8394W        W12445   7.176   0.021   9.066
 8395W        W12446   7.414   4.352  10.601
 8396W        W12447   2.779   3.280   9.241
 8397W        W12448   6.211   2.868   0.442
 8398W        W12449   8.477   0.166   0.971
 8399W        W12450   2.163   0.420  11.298
 8400W        W12451   3.303   3.853   9.631
 8401W        W12452   6.399   3.352  10.625
 8402W        W12453   0.343   9.513   1.973
 8403W        W12454   0.936   5.996   1.663
 8404W        W12455   1.340   0.971   9.580
 8405W        W12456   1.375   5.083  10.722
 8406W        W12457   7.545   0.319   9.666
 8407W        W12458   3.752   8.519   8.725
 8408W        W12459   4.192  10.940   0.742
 8409W        W12460   9.207   1.353   0.702
 8410W        W12461   2.353   5.272   2.495
 8411W        W12462   2.673   8.059   3.154
 8412W        W12463   6.152   3.458  11.141
 8413W        W12464   4.156   0.871   9.156
 8414W        W12465   5.987   7.221   3.166
 8415W        W12466  10.546   6.012  11.813
 8416W        W12467   3.365  11.400   8.706
 8417W        W12468   7.492   8.591   1.830
 8418W        W12469   1.213  10.478   0.497
 8419W        W12470   6.550   9.597  11.506
 8420W        W12471   9.103   2.458   0.696
 8421W        W12472   3.111   0.671  11.032
 8422W        W12473   8.596   0.710   8.981
 8423W        W12474   1.578   7.621   2.282
 8424W        W12475  11.474   6.514  10.558
 8425W        W12476   7.686   1.813   1.980
 8426W        W12477   7.172   1.206  11.782
 8427W        W12478   4.683   2.859   3.560
 8428W        W12479   6.805   0.373   8.958
 8429W        W12480   2.750   7.400   9.816
 8430W        W12481   0.378   4.981  10.731
 8431W        W12482  10.840  11.415  10.511
 8432W        W12483   1.287   3.289   3.132
 8433W        W12484  10.855   0.843   9.560
 8434W        W12485   8.486   2.449   9.058
 8435W        W12486   1.347   6.216   1.975
 8436W        W12487   7.806   6.085   8.851
 8437W        W12488   9.900   7.194   1.889
 8438W        W12489   9.531   3.870   8.587
 8439W        W12490   6.378   2.059   4.082
 8440W        W12491   2.916   8.419  11.891
 8441W        W12492   9.491   1.673   3.358
 8442W        W12493  10.841  10.098   0.933
 8443W        W12494   3.151   6.663   2.562
 8444W        W12495   4.817  10.310   1.822
 8445W        W12496   3.226  10.060   9.859
 8446W        W12497   6.000  11.007   1.977
 8447W        W12498   3.163   0.324   0.979
 8448ION    NA+12499   2.202   0.084   1.886
 8449ION    NA+12500   3.671   7.539   1.110
 8450ION    NA+12501   9.639   3.933  11.238
 8451ION    NA+12502   3.115   8.855   1.560
 8452ION    NA+12503   9.448   4.682  10.603
 8453ION    NA+12504   2.233   6.599   2.146
 8454ION    NA+12505   4.803   3.792  11.707
 8455ION    NA+12506   7.493   1.277   3.685
 8456ION    NA+12507  11.498   8.477  10.388
 8457ION    NA+12508   6.172   8.183   2.221
 8458ION    NA+12509   9.568   8.364  11.880
 8459ION    NA+12510   9.480   6.080   0.213
 8460ION    NA+12511   3.379   5.704   1.648
 8461ION    NA+12512   9.315   0.925  11.706
 8462ION    NA+12513   5.257   4.969   2.077
 8463ION    NA+12514  11.438   5.188  10.597
 8464ION    NA+12515   7.396   3.524   2.182
 8465ION    NA+12516   7.965  10.493   9.343
 8466ION    NA+12517   0.250   7.434   8.856
 8467ION    NA+12518   9.426   6.464   9.548
 8468ION    NA+12519   2.130   8.178   9.729
 8469ION    NA+12520   7.617   2.119   8.867
 8470ION    NA+12521   8.097   2.609   3.897
 8471ION    NA+12522   8.840  10.970   9.469
 8472ION    NA+12523   5.241   6.350  11.292
 8473ION    NA+12524   0.534   7.492   9.723
 8474ION    NA+12525   9.125  10.661   0.794
 8475ION    NA+12526   3.815   4.010  10.149
 8476ION    NA+12527   9.381   7.743  11.250
 8477ION    NA+12528   3.912   2.170   1.709
 8478ION    NA+12529   4.794   0.900   2.119
 8479ION    NA+12530   1.264   5.049  11.801
 8480ION    NA+12531   0.976  11.200   8.930
 8481ION    NA+12532   8.783   8.383  11.733
 8482ION    NA+12533   0.897   4.006   3.030
 8483ION    NA+12534   7.042   1.389   2.800
 8484ION    NA+12535   5.074   2.097  11.947
 8485ION    NA+12536   4.151   0.730  10.400
 8486ION    NA+12537  10.544   0.062   1.489
 8487ION    NA+12538   5.601   7.575   2.453
 8488ION    NA+12539  11.168   0.487   2.701
 8489ION    NA+12540   4.234   3.957   0.592
 8490ION    NA+12541   6.023   9.461   2.516
 8491ION    NA+12542   3.204   2.364   0.427
 8492ION    NA+12543   1.498   2.214   8.883
 8493ION    NA+12544   3.048   8.920  11.858
 8494ION    NA+12545   4.177   1.778   2.591
 8495ION    NA+12546   8.543   6.829   9.843
 8496ION    NA+12547   7.523   9.552   1.012
 8497ION    NA+12548   7.430   0.856   0.081
 8498ION    NA+12549   1.833   4.128   1.282
 8499ION    NA+12550   7.953   6.372  10.584
 8500ION    NA+12551   3.075   5.818   2.632
 8501ION    NA+12552   5.373   1.582   2.193
 8502ION    NA+12553   0.242   4.381  11.702
 8503ION    NA+12554   3.052   8.293   0.888
 8504ION    NA+12555   7.113   1.698   1.657
 8505ION    NA+12556   3.070  11.039   8.003
 8506ION    NA+12557   8.223   1.041   2.939
 8507ION    NA+12558   4.041   8.430   0.846
 8508ION    NA+12559   9.263   0.047   0.923
 8509ION    NA+12560   3.536   2.066   3.623
 8510ION    NA+12561   5.366  10.105  11.414
 8511ION    NA+12562   7.969   5.115   3.154
 8512ION    NA+12563  11.372   7.933  11.971
 8513ION    NA+12564   9.342   0.752   9.920
 8514ION    NA+12565  11.433  11.070  11.982
 8515ION    NA+12566  11.027   6.504  10.178
 8516ION    NA+12567   5.760   2.812   9.542
 8517ION    NA+12568   6.655   9.165   8.779
 8518ION    NA+12569   1.000   5.101   1.228
 8519ION    NA+12570   7.554   0.242  11.301
 8520ION    NA+12571   0.412   0.408   9.121
 8521ION    NA+12572   2.380   7.798   8.566
 8522ION    NA+12573   8.982   3.297   0.439
 8523ION    NA+12574   9.564   1.523   2.433
 8524ION    NA+12575  10.431   7.688   9.859
 8525ION    NA+12576  10.514   4.158   0.735
 8526ION    NA+12577   7.399   8.704   8.895
 8527ION    NA+12578   0.574   1.508  11.493
 8528ION    NA+12579   9.759  10.130  11.157
 8529ION    NA+12580  10.336  11.018   0.379
 8530ION    NA+12581   9.551   1.493   9.279
 8531ION    NA+12582   0.056   1.858  10.726
 8532ION    NA+12583   8.612   4.530   2.660
 8533ION    NA+12584   1.813  11.207   0.427
 8534ION    NA+12585   2.657   3.415  10.352
 8535ION    NA+12586   8.507   0.191   9.868
 8536ION    NA+12587   5.138   3.396   8.265
 8537ION    CL-12588   2.811   4.610   2.964
 8538ION    CL-12589   4.701   3.257   8.289
 8539ION    CL-12590   0.389   2.367   3.511
 8540ION    CL-12591   1.213  11.343  11.527
 8541ION    CL-12592  10.042   4.107   3.522
 8542ION    CL-12593  11.140  11.430  10.919
 8543ION    CL-12594   5.811  10.110  11.364
 8544ION    CL-12595   9.140   3.752  10.383
 8545ION    CL-12596   9.479  10.488  11.206
 8546ION    CL-12597   0.094   0.593  10.323
 8547ION    CL-12598   2.810   5.112  11.760
 8548ION    CL-12599   5.057   1.271   2.109
 8549ION    CL-12600   3.522  10.713   3.609
 8550ION    CL-12601  11.243   4.086   1.539
 8551ION    CL-12602   1.511   7.649  11.362
 8552ION    CL-12603   0.362   1.530  10.854
 8553ION    CL-12604   6.392   9.315   2.310
 8554ION    CL-12605   0.314  10.511  10.897
 8555ION    CL-12606   4.588   3.955  10.355
 8556ION    CL-12607   6.235   9.334  10.148
 8557ION    CL-12608   0.706   0.054   9.102
 8558ION    CL-12609   2.660   2.198  10.855
 8559ION    CL-12610   7.766   1.701   8.745
 8560ION    CL-12611   9.483   1.896   2.195
 8561ION    CL-12612   9.056   1.192  11.460
 8562ION    CL-12613   0.859   8.789  11.556
 8563ION    CL-12614   8.291   0.666   2.706
 8564ION    CL-12615   9.380  10.837   3.599
 8565ION    CL-12616  11.439   0.840   2.705
 8566ION    CL-12617   8.274   4.621  11.460
 8567ION    CL-12618   2.510   9.850   9.476
 8568ION    CL-12619   8.601   3.076   0.384
 8569ION    CL-12620   9.395   2.893   9.939
 8570ION    CL-12621   4.775   7.224   2.911
 8571ION    CL-12622   9.155   8.591  11.934
 8572ION    CL-12623   8.586   8.125  11.405
 8573ION    CL-12624   6.124   7.403   0.233
 8574ION    CL-12625  10.502   2.240   3.085
 8575ION    CL-12626  11.223   9.424   0.747
 8576ION    CL-12627   1.792   4.926   4.094
 8577ION    CL-12628   0.514   1.840  11.792
 8578ION    CL-12629   8.614  11.276   9.714
 8579ION    CL-12630   1.927  10.195   3.432
 8580ION    CL-12631   8.561   2.126  11.016
 8581ION    CL-12632  11.463   1.443   0.526
 8582ION    CL-12633   2.763  11.101   3.085
 8583ION    CL-12634   8.070   7.902  10.436
 8584ION    CL-12635  10.078   9.858  10.974
 8585ION    CL-12636   4.176   0.066   8.369
 8586ION    CL-12637   0.309   6.750   1.632
 8587ION    CL-12638   5.780   7.977   2.327
 8588ION    CL-12639   7.396   7.083   1.705
 8589ION    CL-12640   1.290   2.261   9.274
 8590ION    CL-12641   9.692   3.492  11.176
 8591ION    CL-12642   5.866  10.376  10.043
 8592ION    CL-12643   2.072  11.084   8.712
 8593ION    CL-12644   4.085   4.073   0.998
 8594ION    CL-12645   0.390  10.510   0.978
 8595ION    CL-12646   3.096   8.489   1.296
 8596ION    CL-12647   9.195  11.101   0.884
 8597ION    CL-12648  10.387   3.965   2.041
 8598ION    CL-12649  10.828   1.191  10.556
 8599ION    CL-12650   4.722   7.847   1.754
 8600ION    CL-12651   5.623   3.237  11.294
 8601ION    CL-12652  10.518   7.014   0.458
 8602ION    CL-12653   2.745   3.836  10.467
 8603ION    CL-12654   4.834   1.301   8.904
 8604ION    CL-12655   0.144   7.559   8.392
 8605ION    CL-12656   6.930   9.297  11.256
 8606ION    CL-12657   9.869   8.547   9.813
 8607ION    CL-12658   5.951   7.014   9.807
 8608ION    CL-12659   4.249   0.548  10.004
 8609ION    CL-12660   9.562   7.997  11.582
 8610ION    CL-12661   0.374   7.433   9.304
 8611ION    CL-12662   8.084   7.370   2.801
 8612ION    CL-12663   1.650   6.528   9.425
 8613ION    CL-12664   6.973   8.834   8.777
 8614ION    CL-12665   2.130  10.905   0.337
 8615ION    CL-12666   9.598   4.391   2.485
 8616ION    CL-12667   5.500   6.019  11.142
 8617ION    CL-12668   4.834   5.239  10.819
 8618ION    CL-12669   7.079   0.679   0.295
 8619ION    CL-12670   0.613   8.096   3.176
 8620ION    CL-12671  11.185   2.120  10.658
 8621ION    CL-12672   4.217   9.612   0.498
 8622ION    CL-12673   0.995  10.072   9.139
 8623ION    CL-12674   6.509   4.448  11.955
 8624ION    CL-12675   0.452   8.582   1.462
 8625ION    CL-12676   6.756   7.567  10.086
  11.50000  11.50000  12.00000
