Protein in INSANE! Membrane UpperLeaflet>POPC=1.0 LowerLeaflet>POPC=1.0
10365
    1AU     AUC    1   5.011   5.125   6.009
    1AU     AUC    2   5.180   4.923   5.840
    1AU     AUC    3   5.333   5.159   6.053
    1AU     AUC    4   4.686   5.103   5.991
    1AU     AUC    5   4.859   5.363   6.179
    1AU     AUC    6   4.846   5.304   5.854
    1AU     AUC    7   5.137   5.217   5.746
    1AU     AUC    8   4.868   5.011   6.246
    1AU     AUC    9   5.159   4.923   6.157
    1AU     AUC   10   5.172   5.223   6.293
    1AU     AUC   11   5.096   5.391   6.046
    1AU     AUC   12   4.889   4.852   5.977
    1AU     AUC   13   4.876   5.044   5.724
    1AU     AUC   14   5.395   4.720   5.680
    1AU     AUC   15   5.562   4.880   5.915
    1AU     AUC   16   5.714   5.131   6.078
    1AU     AUC   17   4.331   5.096   5.982
    1AU     AUC   18   4.476   5.388   6.148
    1AU     AUC   19   4.700   5.614   6.339
    1AU     AUC   20   4.670   5.577   5.659
    1AU     AUC   21   4.963   5.461   5.499
    1AU     AUC   22   5.281   5.362   5.433
    1AU     AUC   23   4.694   4.922   6.502
    1AU     AUC   24   5.026   4.746   6.445
    1AU     AUC   25   5.334   4.664   6.361
    1AU     AUC   26   5.330   5.354   6.564
    1AU     AUC   27   5.382   5.557   6.340
    1AU     AUC   28   5.290   5.684   6.025
    1AU     AUC   29   4.821   4.543   5.916
    1AU     AUC   30   4.751   4.712   5.653
    1AU     AUC   31   4.738   4.936   5.436
    1AU     AUC   32   5.561   5.294   6.336
    1AU     AUC   33   5.521   5.422   6.022
    1AU     AUC   34   5.129   4.630   5.745
    1AU     AUC   35   5.073   4.835   5.499
    1AU     AUC   36   5.023   5.503   6.495
    1AU     AUC   37   5.024   5.670   6.242
    1AU     AUC   38   4.548   4.792   5.961
    1AU     AUC   39   4.484   4.964   5.715
    1AU     AUC   40   5.339   4.987   5.556
    1AU     AUC   41   5.530   5.194   5.745
    1AU     AUC   42   4.486   5.347   5.859
    1AU     AUC   43   4.679   5.649   6.022
    1AU     AUC   44   5.416   4.712   6.014
    1AU     AUC   45   5.586   4.918   6.267
    1AU     AUC   46   4.482   5.019   6.255
    1AU     AUC   47   4.679   5.283   6.420
    1AU     AUC   48   4.970   5.649   5.819
    1AU     AUC   49   5.246   5.493   5.701
    1AU     AUC   50   5.007   5.120   6.543
    1AU     AUC   51   5.300   5.002   6.498
    1AU     AUC   52   4.664   5.226   5.553
    1AU     AUC   53   5.002   5.154   5.391
    1AU     AUC   54   4.746   4.695   6.242
    1AU     AUC   55   5.082   4.586   6.137
    1AU    AUSL   56   5.791   5.329   6.217
    1AU    AUSL   57   5.588   5.261   6.639
    1AU     AUL   58   5.725   5.317   6.831
    1AU       S   59   6.170   5.278   6.800
    1AU     LIG   60   5.982   5.021   7.137
    1AU     LIG   61   5.781   4.778   7.484
    1AU     LIG   62   5.541   4.897   7.854
    1AU       S   63   6.283   5.273   6.021
    1AU     LIG   64   6.685   5.396   5.575
    1AU     LIG   65   6.661   5.298   5.062
    1AU     LIG   66   6.387   5.179   4.625
    1AU    AUSL   67   5.761   5.640   6.514
    1AU    AUSL   68   5.392   5.776   6.329
    1AU     AUL   69   5.659   5.988   6.520
    1AU       S   70   6.280   5.291   6.170
    1AU     LIG   71   6.526   4.949   5.549
    1AU     LIG   72   6.564   4.836   4.926
    1AU     LIG   73   6.318   4.721   4.453
    1AU       S   74   5.103   5.617   7.119
    1AU     LIG   75   4.584   5.627   7.452
    1AU     LIG   76   4.181   5.270   7.536
    1AU     LIG   77   3.733   5.132   7.713
    1AU    AUSL   78   5.756   5.775   6.082
    1AU    AUSL   79   5.828   5.408   5.782
    1AU     AUL   80   5.967   5.608   6.048
    1AU       S   81   6.213   5.195   5.794
    1AU     LIG   82   6.164   4.825   5.192
    1AU     LIG   83   5.992   4.538   4.779
    1AU     LIG   84   5.787   4.350   4.373
    1AU       S   85   5.465   4.128   5.326
    1AU     LIG   86   5.515   4.455   4.814
    1AU     LIG   87   5.372   4.751   4.433
    1AU     LIG   88   5.186   5.242   4.412
    1AU    AUSL   89   5.245   4.543   5.410
    1AU    AUSL   90   5.068   4.925   5.117
    1AU     AUL   91   5.196   4.784   4.914
    1AU       S   92   5.847   4.083   5.635
    1AU     LIG   93   6.450   4.082   5.918
    1AU     LIG   94   6.732   4.329   6.309
    1AU     LIG   95   6.678   4.809   6.408
    1AU       S   96   5.545   5.098   4.719
    1AU     LIG   97   5.686   5.599   4.698
    1AU     LIG   98   5.946   6.027   4.874
    1AU     LIG   99   5.947   6.371   5.229
    1AU    AUSL  100   4.942   4.267   5.523
    1AU    AUSL  101   5.656   4.656   5.542
    1AU     AUL  102   5.344   4.522   5.256
    1AU       S  103   5.793   4.489   5.432
    1AU     LIG  104   6.002   4.079   6.091
    1AU     LIG  105   6.312   4.082   6.472
    1AU     LIG  106   6.681   4.138   6.779
    1AU       S  107   5.765   3.989   5.666
    1AU     LIG  108   5.719   3.714   6.217
    1AU     LIG  109   5.633   3.914   6.740
    1AU     LIG  110   5.599   3.937   7.279
    1AU    AUSL  111   4.838   4.704   5.417
    1AU    AUSL  112   4.614   4.466   5.741
    1AU     AUL  113   4.675   4.298   5.412
    1AU       S  114   4.102   4.436   6.215
    1AU     LIG  115   3.970   4.883   6.892
    1AU     LIG  116   3.638   5.030   7.199
    1AU     LIG  117   3.588   5.476   7.361
    1AU       S  118   6.057   4.782   5.650
    1AU     LIG  119   6.284   5.621   5.704
    1AU     LIG  120   6.325   5.915   6.102
    1AU     LIG  121   6.210   6.279   6.382
    1AU    AUSL  122   5.028   5.836   6.545
    1AU    AUSL  123   5.072   5.932   6.100
    1AU     AUL  124   5.213   6.116   6.353
    1AU       S  125   5.151   5.498   7.142
    1AU     LIG  126   4.969   4.933   7.408
    1AU     LIG  127   5.206   4.234   7.111
    1AU     LIG  128   5.243   3.725   7.022
    1AU       S  129   4.672   5.399   7.012
    1AU     LIG  130   4.518   4.674   6.974
    1AU     LIG  131   4.818   3.977   7.071
    1AU     LIG  132   4.850   3.547   6.774
    1AU    AUSL  133   5.382   5.656   6.760
    1AU    AUSL  134   4.673   5.642   6.661
    1AU     AUL  135   5.068   5.911   6.780
    1AU       S  136   4.582   5.850   6.797
    1AU     LIG  137   4.384   6.177   6.566
    1AU     LIG  138   4.238   6.469   6.222
    1AU     LIG  139   4.064   6.685   5.850
    1AU       S  140   5.070   5.420   7.245
    1AU     LIG  141   4.493   4.902   7.357
    1AU     LIG  142   4.447   4.220   7.004
    1AU     LIG  143   4.429   3.801   6.773
    1AU    AUSL  144   4.246   4.714   5.821
    1AU    AUSL  145   4.525   4.571   6.142
    1AU     AUL  146   4.376   4.346   5.835
    1AU       S  147   4.098   4.489   6.287
    1AU     LIG  148   4.116   4.466   6.802
    1AU     LIG  149   4.269   4.444   7.361
    1AU     LIG  150   4.622   4.125   7.507
    1AU       S  151   3.842   4.813   6.062
    1AU     LIG  152   3.576   5.073   6.673
    1AU     LIG  153   3.980   5.358   7.049
    1AU     LIG  154   4.068   5.722   7.365
    1AU    AUSL  155   4.391   4.664   5.406
    1AU    AUSL  156   4.070   5.115   5.762
    1AU     AUL  157   4.039   4.788   5.545
    1AU       S  158   3.831   5.213   5.739
    1AU     LIG  159   3.356   5.126   6.226
    1AU     LIG  160   3.159   5.340   6.640
    1AU     LIG  161   3.109   5.301   7.087
    1AU       S  162   3.953   4.371   5.990
    1AU     LIG  163   3.696   4.247   6.704
    1AU     LIG  164   3.792   4.502   7.197
    1AU     LIG  165   3.991   4.708   7.653
    1AU    AUSL  166   5.757   5.121   5.393
    1AU    AUSL  167   5.375   4.937   5.416
    1AU     AUL  168   5.624   4.823   5.089
    1AU       S  169   5.811   5.215   4.943
    1AU     LIG  170   6.146   5.526   4.858
    1AU     LIG  171   6.548   5.646   4.691
    1AU     LIG  172   6.418   5.621   4.276
    1AU       S  173   5.816   5.032   5.408
    1AU     LIG  174   5.719   5.673   5.168
    1AU     LIG  175   5.409   5.979   4.850
    1AU     LIG  176   5.388   5.770   4.371
    1AU    AUSL  177   5.475   4.354   5.738
    1AU    AUSL  178   6.015   4.897   6.089
    1AU     AUL  179   6.106   4.388   5.800
    1AU       S  180   5.474   4.289   5.769
    1AU     LIG  181   5.899   3.948   5.213
    1AU     LIG  182   6.247   3.971   4.888
    1AU     LIG  183   6.531   4.287   4.628
    1AU       S  184   6.255   4.773   6.082
    1AU     LIG  185   6.529   4.473   5.597
    1AU     LIG  186   6.852   4.617   5.273
    1AU     LIG  187   6.986   4.587   4.811
    1AU    AUSL  188   5.695   5.019   5.827
    1AU    AUSL  189   5.468   5.412   5.508
    1AU     AUL  190   5.849   5.454   5.541
    1AU       S  191   4.968   4.435   5.074
    1AU     LIG  192   4.920   4.569   4.572
    1AU     LIG  193   4.877   4.870   4.263
    1AU     LIG  194   4.667   5.290   4.256
    1AU       S  195   5.529   4.130   6.090
    1AU     LIG  196   4.460   3.988   6.139
    1AU     LIG  197   3.745   4.040   6.250
    1AU     LIG  198   3.297   4.317   6.443
    1AU    AUSL  199   4.385   5.812   5.706
    1AU    AUSL  200   4.676   5.888   6.294
    1AU     AUL  201   4.540   6.136   5.972
    1AU       S  202   4.602   5.398   7.043
    1AU     LIG  203   4.681   5.213   7.657
    1AU     LIG  204   4.634   4.675   7.766
    1AU     LIG  205   4.311   4.306   7.846
    1AU       S  206   3.924   5.910   5.776
    1AU     LIG  207   3.402   5.375   5.799
    1AU     LIG  208   3.067   4.943   5.897
    1AU     LIG  209   3.029   4.818   6.403
    1AU    AUSL  210   4.326   5.416   5.908
    1AU    AUSL  211   4.251   5.460   5.462
    1AU     AUL  212   4.150   5.526   5.635
    1AU       S  213   3.875   5.869   5.602
    1AU     LIG  214   3.626   5.640   5.112
    1AU     LIG  215   3.726   5.318   4.828
    1AU     LIG  216   3.966   5.030   4.577
    1AU       S  217   3.752   5.381   5.473
    1AU     LIG  218   3.233   5.605   5.406
    1AU     LIG  219   2.831   5.496   5.190
    1AU     LIG  220   2.724   5.371   4.734
    1AU    AUSL  221   4.283   5.788   6.148
    1AU    AUSL  222   4.054   5.287   6.215
    1AU     AUL  223   4.032   5.576   6.080
    1AU       S  224   3.732   5.415   6.373
    1AU     LIG  225   3.465   5.845   5.865
    1AU     LIG  226   3.482   6.048   5.339
    1AU     LIG  227   3.722   6.017   4.823
    1AU       S  228   4.065   6.045   5.994
    1AU     LIG  229   4.238   6.272   5.607
    1AU     LIG  230   4.670   6.315   5.484
    1AU     LIG  231   5.064   6.220   5.224
    1AU    AUSL  232   5.734   4.533   6.390
    1AU    AUSL  233   5.903   5.004   6.481
    1AU     AUL  234   5.992   4.704   6.484
    1AU       S  235   6.297   4.506   6.207
    1AU     LIG  236   6.859   4.628   5.940
    1AU     LIG  237   7.141   4.877   6.161
    1AU     LIG  238   7.174   4.774   6.601
    1AU       S  239   6.152   5.124   6.603
    1AU     LIG  240   6.633   5.274   6.611
    1AU     LIG  241   7.062   5.313   6.427
    1AU     LIG  242   7.175   5.665   6.137
    1AU    AUSL  243   5.748   4.607   5.949
    1AU    AUSL  244   5.375   4.531   6.144
    1AU     AUL  245   5.790   4.480   6.095
    1AU       S  246   6.401   4.692   5.998
    1AU     LIG  247   6.732   5.115   6.000
    1AU     LIG  248   6.689   5.568   6.188
    1AU     LIG  249   6.876   5.819   6.550
    1AU       S  250   5.982   4.436   5.360
    1AU     LIG  251   6.222   5.258   5.301
    1AU     LIG  252   6.195   5.770   5.267
    1AU     LIG  253   5.993   6.024   5.618
    1AU    AUSL  254   4.273   5.131   6.605
    1AU    AUSL  255   4.297   4.943   6.180
    1AU     AUL  256   4.055   5.023   6.468
    1AU       S  257   3.750   4.963   6.122
    1AU     LIG  258   3.324   5.584   6.234
    1AU     LIG  259   2.985   5.639   5.875
    1AU     LIG  260   2.768   5.280   5.674
    1AU       S  261   3.891   5.543   6.566
    1AU     LIG  262   3.712   5.923   6.332
    1AU     LIG  263   3.633   6.286   6.023
    1AU     LIG  264   3.735   6.392   5.600
    1AU    AUSL  265   4.436   5.454   6.363
    1AU    AUSL  266   4.696   5.183   6.619
    1AU     AUL  267   4.333   5.460   6.656
    1AU       S  268   4.378   5.794   6.975
    1AU     LIG  269   3.925   5.885   6.905
    1AU     LIG  270   3.474   5.743   6.765
    1AU     LIG  271   3.071   5.903   6.540
    1AU       S  272   3.860   5.423   6.597
    1AU     LIG  273   3.744   4.672   6.524
    1AU     LIG  274   4.108   4.080   6.548
    1AU     LIG  275   4.005   3.974   7.015
    1AU    AUSL  276   5.166   5.830   5.672
    1AU    AUSL  277   4.763   5.731   5.877
    1AU     AUL  278   4.989   6.113   5.811
    1AU       S  279   4.511   5.214   7.002
    1AU     LIG  280   4.857   4.516   7.266
    1AU     LIG  281   5.629   4.420   7.162
    1AU     LIG  282   5.952   4.308   6.796
    1AU       S  283   4.837   5.076   4.756
    1AU     LIG  284   5.142   4.181   4.746
    1AU     LIG  285   5.506   3.716   5.033
    1AU     LIG  286   6.073   3.516   5.188
    1AU    AUSL  287   4.811   5.839   5.415
    1AU    AUSL  288   4.977   5.400   5.169
    1AU     AUL  289   4.841   5.770   5.066
    1AU       S  290   4.655   5.440   4.803
    1AU     LIG  291   4.448   4.906   4.533
    1AU     LIG  292   4.353   4.351   4.493
    1AU     LIG  293   4.038   3.939   4.409
    1AU       S  294   4.301   5.137   4.938
    1AU     LIG  295   3.799   4.875   5.058
    1AU     LIG  296   3.656   4.444   5.110
    1AU     LIG  297   3.534   4.046   5.328
    1AU    AUSL  298   5.259   5.702   5.269
    1AU    AUSL  299   5.437   5.586   5.889
    1AU     AUL  300   5.523   5.827   5.571
    1AU       S  301   5.326   4.108   5.380
    1AU     LIG  302   4.808   3.828   5.507
    1AU     LIG  303   4.282   3.905   5.656
    1AU     LIG  304   3.796   3.914   5.769
    1AU       S  305   4.759   5.308   4.765
    1AU     LIG  306   4.584   4.630   4.915
    1AU     LIG  307   4.262   4.263   5.202
    1AU     LIG  308   3.946   4.312   5.505
    1AU    AUSL  309   5.269   5.053   6.824
    1AU    AUSL  310   5.488   4.876   6.461
    1AU     AUL  311   5.628   4.857   6.815
    1AU       S  312   5.385   5.051   7.162
    1AU     LIG  313   5.220   5.248   7.661
    1AU     LIG  314   5.043   5.696   7.666
    1AU     LIG  315   4.741   6.078   7.585
    1AU       S  316   6.121   5.368   6.601
    1AU     LIG  317   6.362   5.734   6.585
    1AU     LIG  318   6.425   6.126   6.822
    1AU     LIG  319   6.389   6.601   6.862
    1AU    AUSL  320   4.883   4.843   6.803
    1AU    AUSL  321   5.044   5.401   6.714
    1AU     AUL  322   4.955   5.059   6.976
    1AU       S  323   5.361   4.832   7.215
    1AU     LIG  324   5.667   5.265   7.472
    1AU     LIG  325   5.563   5.632   7.743
    1AU     LIG  326   5.415   6.075   7.712
    1AU       S  327   4.709   5.876   7.065
    1AU     LIG  328   5.138   6.060   7.269
    1AU     LIG  329   5.548   5.797   7.263
    1AU     LIG  330   5.983   5.643   7.344
    1AU    AUSL  331   5.246   4.611   6.704
    1AU    AUSL  332   4.818   4.538   6.502
    1AU     AUL  333   4.914   4.461   6.815
    1AU       S  334   4.847   4.019   6.595
    1AU     LIG  335   5.293   3.608   6.534
    1AU     LIG  336   5.801   3.437   6.625
    1AU     LIG  337   6.285   3.522   6.705
    1AU       S  338   5.263   4.691   7.098
    1AU     LIG  339   5.224   4.561   7.611
    1AU     LIG  340   4.948   4.276   7.875
    1AU     LIG  341   4.968   3.820   7.819
    1AU    AUSL  342   4.679   5.092   5.177
    1AU    AUSL  343   5.391   5.246   5.120
    1AU     AUL  344   5.155   5.278   4.973
    1AU       S  345   4.418   5.025   5.051
    1AU     LIG  346   4.110   4.595   4.845
    1AU     LIG  347   3.956   4.107   4.869
    1AU     LIG  348   3.991   3.797   5.241
    1AU       S  349   5.924   5.041   4.834
    1AU     LIG  350   6.356   4.425   5.069
    1AU     LIG  351   6.356   4.046   5.397
    1AU     LIG  352   6.167   3.700   5.662
    1AU    AUSL  353   4.672   5.445   5.466
    1AU    AUSL  354   4.431   5.071   5.518
    1AU     AUL  355   4.478   5.477   5.229
    1AU       S  356   4.201   5.214   5.010
    1AU     LIG  357   4.158   5.575   4.708
    1AU     LIG  358   4.241   6.038   4.749
    1AU     LIG  359   4.452   6.351   5.029
    1AU       S  360   3.883   5.223   5.352
    1AU     LIG  361   4.081   5.774   5.167
    1AU     LIG  362   3.973   6.253   5.178
    1AU     LIG  363   4.046   6.709   5.335
    1AU    AUSL  364   4.811   4.253   6.157
    1AU    AUSL  365   4.435   4.733   6.539
    1AU     AUL  366   4.527   4.345   6.455
    1AU       S  367   3.856   4.849   6.103
    1AU     LIG  368   3.534   4.852   5.652
    1AU     LIG  369   3.378   5.135   5.252
    1AU     LIG  370   3.228   5.431   4.882
    1AU       S  371   4.865   3.898   6.349
    1AU     LIG  372   4.665   3.595   5.930
    1AU     LIG  373   4.439   3.482   5.440
    1AU     LIG  374   4.374   3.604   4.956
    1AU    AUSL  375   5.175   4.287   6.417
    1AU    AUSL  376   5.063   4.457   5.871
    1AU     AUL  377   5.095   4.148   6.017
    1AU       S  378   5.127   4.057   6.490
    1AU     LIG  379   5.250   3.703   6.044
    1AU     LIG  380   5.651   3.501   5.755
    1AU     LIG  381   5.904   3.155   5.490
    1AU       S  382   5.795   4.396   5.213
    1AU     LIG  383   5.764   4.049   4.771
    1AU     LIG  384   5.911   3.592   4.717
    1AU     LIG  385   5.962   3.138   4.903
    2POPC   NC3  386   3.512   1.399   8.182
    2POPC   PO4  387   3.113   0.799   8.207
    2POPC   GL1  388   3.269   0.854   7.765
    2POPC   GL2  389   3.580   1.034   7.801
    2POPC   C1A  390   3.095   0.850   7.298
    2POPC   D2A  391   3.055   0.811   6.817
    2POPC   C3A  392   3.324   0.938   6.457
    2POPC   C4A  393   3.318   0.904   5.991
    2POPC   C1B  394   3.450   1.201   7.397
    2POPC   C2B  395   3.418   1.209   6.920
    2POPC   C3B  396   3.698   1.269   6.542
    2POPC   C4B  397   3.766   1.174   6.089
    3POPC   NC3  398   7.286   0.327   8.183
    3POPC   PO4  399   7.833   9.913   8.037
    3POPC   GL1  400   7.566   0.146   7.750
    3POPC   GL2  401   7.415   0.486   7.724
    3POPC   C1A  402   7.445   0.137   7.328
    3POPC   D2A  403   7.508   0.393   6.965
    3POPC   C3A  404   7.316   0.339   6.585
    3POPC   C4A  405   7.350   0.072   6.211
    3POPC   C1B  406   7.252   0.611   7.361
    3POPC   C2B  407   7.257   0.814   6.994
    3POPC   C3B  408   7.142   0.829   6.552
    3POPC   C4B  409   7.221   0.725   6.131
    4POPC   NC3  410   1.083   1.432   8.166
    4POPC   PO4  411   0.697   0.812   8.113
    4POPC   GL1  412   0.846   1.102   7.818
    4POPC   GL2  413   1.187   1.029   7.852
    4POPC   C1A  414   1.059   1.290   7.436
    4POPC   D2A  415   1.296   1.431   7.068
    4POPC   C3A  416   1.205   1.285   6.648
    4POPC   C4A  417   1.058   1.415   6.202
    4POPC   C1B  418   1.298   0.821   7.483
    4POPC   C2B  419   1.228   0.877   7.053
    4POPC   C3B  420   1.438   0.806   6.669
    4POPC   C4B  421   1.342   0.971   6.276
    5POPC   NC3  422   0.698   5.123   8.094
    5POPC   PO4  423   0.139   4.640   7.971
    5POPC   GL1  424   0.532   4.816   7.683
    5POPC   GL2  425   0.606   5.203   7.607
    5POPC   C1A  426   0.674   4.907   7.214
    5POPC   D2A  427   0.525   5.024   6.773
    5POPC   C3A  428   0.770   4.916   6.398
    5POPC   C4A  429   0.716   4.906   5.955
    5POPC   C1B  430   0.369   5.357   7.251
    5POPC   C2B  431   0.234   5.485   6.842
    5POPC   C3B  432   0.077   5.304   6.483
    5POPC   C4B  433   0.289   5.000   6.241
    6POPC   NC3  434   6.307   7.605   8.601
    6POPC   PO4  435   5.763   7.751   8.162
    6POPC   GL1  436   5.628   8.024   7.774
    6POPC   GL2  437   5.613   8.383   7.819
    6POPC   C1A  438   5.708   8.088   7.290
    6POPC   D2A  439   5.577   7.995   6.822
    6POPC   C3A  440   5.926   7.928   6.521
    6POPC   C4A  441   6.375   7.891   6.683
    6POPC   C1B  442   5.414   8.508   7.419
    6POPC   C2B  443   5.550   8.463   6.967
    6POPC   C3B  444   5.675   8.395   6.505
    6POPC   C4B  445   5.694   8.481   6.023
    7POPC   NC3  446   0.312   8.143   8.252
    7POPC   PO4  447   0.848   7.703   8.216
    7POPC   GL1  448   0.483   7.847   7.880
    7POPC   GL2  449   0.395   8.244   7.765
    7POPC   C1A  450   0.258   7.858   7.465
    7POPC   D2A  451   0.427   7.820   7.034
    7POPC   C3A  452   0.232   7.912   6.603
    7POPC   C4A  453   0.155   7.673   6.223
    7POPC   C1B  454   0.442   8.315   7.291
    7POPC   C2B  455   0.500   8.286   6.823
    7POPC   C3B  456   0.644   8.241   6.393
    7POPC   C4B  457   0.819   8.335   5.958
    8POPC   NC3  458   8.595   6.420   8.181
    8POPC   PO4  459   9.253   6.300   8.365
    8POPC   GL1  460   9.097   6.442   7.938
    8POPC   GL2  461   8.942   6.766   7.836
    8POPC   C1A  462   8.916   6.395   7.490
    8POPC   D2A  463   8.643   6.579   7.143
    8POPC   C3A  464   8.782   6.575   6.711
    8POPC   C4A  465   9.028   6.476   6.326
    8POPC   C1B  466   8.961   6.934   7.348
    8POPC   C2B  467   9.085   6.958   6.860
    8POPC   C3B  468   8.883   6.980   6.423
    8POPC   C4B  469   8.722   6.787   6.035
    9POPC   NC3  470   2.560   6.268   8.202
    9POPC   PO4  471   2.701   6.911   8.217
    9POPC   GL1  472   2.628   6.685   7.817
    9POPC   GL2  473   2.905   6.429   7.824
    9POPC   C1A  474   2.438   6.720   7.364
    9POPC   D2A  475   2.619   6.635   6.925
    9POPC   C3A  476   2.423   6.760   6.539
    9POPC   C4A  477   2.636   6.896   6.168
    9POPC   C1B  478   2.939   6.620   7.376
    9POPC   C2B  479   3.082   6.865   6.980
    9POPC   C3B  480   2.995   6.777   6.542
    9POPC   C4B  481   2.767   6.422   6.359
   10POPC   NC3  482   7.513   9.581   8.000
   10POPC   PO4  483   6.964   9.913   8.223
   10POPC   GL1  484   7.132   9.850   7.774
   10POPC   GL2  485   7.166   9.473   7.653
   10POPC   C1A  486   7.058   9.824   7.315
   10POPC   D2A  487   7.240   9.905   6.903
   10POPC   C3A  488   6.963   9.963   6.558
   10POPC   C4A  489   6.808   9.956   6.129
   10POPC   C1B  490   7.503   9.587   7.330
   10POPC   C2B  491   7.537   9.464   6.893
   10POPC   C3B  492   7.461   9.566   6.453
   10POPC   C4B  493   7.666   9.692   6.039
   11POPC   NC3  494   8.040   4.818   8.085
   11POPC   PO4  495   8.040   4.164   8.368
   11POPC   GL1  496   8.203   4.309   7.909
   11POPC   GL2  497   8.545   4.377   7.807
   11POPC   C1A  498   8.267   4.142   7.448
   11POPC   D2A  499   8.209   3.947   7.009
   11POPC   C3A  500   8.093   4.129   6.598
   11POPC   C4A  501   7.845   4.180   6.201
   11POPC   C1B  502   8.642   4.536   7.375
   11POPC   C2B  503   8.587   4.342   6.947
   11POPC   C3B  504   8.521   4.427   6.479
   11POPC   C4B  505   8.317   4.542   6.067
   12POPC   NC3  506   3.337   2.041   8.276
   12POPC   PO4  507   3.796   2.556   8.179
   12POPC   GL1  508   3.624   2.207   7.906
   12POPC   GL2  509   3.529   1.835   7.819
   12POPC   C1A  510   3.532   2.232   7.484
   12POPC   D2A  511   3.392   2.434   7.123
   12POPC   C3A  512   3.295   2.209   6.772
   12POPC   C4A  513   3.423   2.229   6.347
   12POPC   C1B  514   3.740   1.635   7.413
   12POPC   C2B  515   3.863   1.594   6.926
   12POPC   C3B  516   3.603   1.777   6.583
   12POPC   C4B  517   3.180   1.787   6.485
   13POPC   NC3  518   9.267   5.932   8.098
   13POPC   PO4  519   9.545   5.352   8.235
   13POPC   GL1  520   9.387   5.503   7.833
   13POPC   GL2  521   9.636   5.715   7.659
   13POPC   C1A  522   9.018   5.530   7.527
   13POPC   D2A  523   8.987   5.380   7.066
   13POPC   C3A  524   9.185   5.629   6.707
   13POPC   C4A  525   9.234   5.934   6.323
   13POPC   C1B  526   9.404   5.681   7.249
   13POPC   C2B  527   9.008   5.904   7.126
   13POPC   C3B  528   8.946   6.098   6.726
   13POPC   C4B  529   8.711   6.076   6.338
   14POPC   NC3  530   2.007   4.401   8.386
   14POPC   PO4  531   1.434   4.235   8.068
   14POPC   GL1  532   1.717   4.363   7.752
   14POPC   GL2  533   1.965   4.521   7.897
   14POPC   C1A  534   1.711   4.428   7.307
   14POPC   D2A  535   1.701   4.196   6.902
   14POPC   C3A  536   1.754   4.434   6.516
   14POPC   C4A  537   1.735   4.254   6.086
   14POPC   C1B  538   2.171   4.297   7.546
   14POPC   C2B  539   2.164   4.165   7.099
   14POPC   C3B  540   2.126   4.059   6.627
   14POPC   C4B  541   2.206   4.307   6.242
   15POPC   NC3  542   4.315   9.066   8.212
   15POPC   PO4  543   3.869   8.541   8.291
   15POPC   GL1  544   3.886   8.774   7.821
   15POPC   GL2  545   4.042   9.110   7.768
   15POPC   C1A  546   3.766   8.944   7.363
   15POPC   D2A  547   3.983   8.834   6.943
   15POPC   C3A  548   4.035   9.064   6.531
   15POPC   C4A  549   4.153   9.265   6.090
   15POPC   C1B  550   4.256   8.842   7.414
   15POPC   C2B  551   4.520   8.692   7.103
   15POPC   C3B  552   4.496   8.932   6.723
   15POPC   C4B  553   4.446   8.844   6.262
   16POPC   NC3  554   0.329   1.160   7.933
   16POPC   PO4  555   0.673   1.670   8.082
   16POPC   GL1  556   0.399   1.640   7.692
   16POPC   GL2  557   0.124   1.391   7.548
   16POPC   C1A  558   0.572   1.473   7.290
   16POPC   D2A  559   0.819   1.225   6.980
   16POPC   C3A  560   0.710   1.254   6.531
   16POPC   C4A  561   0.382   1.505   6.404
   16POPC   C1B  562   0.267   1.049   7.246
   16POPC   C2B  563   0.303   1.108   6.779
   16POPC   C3B  564   0.248   1.015   6.313
   16POPC   C4B  565   0.140   0.982   5.860
   17POPC   NC3  566   7.985   5.760   8.055
   17POPC   PO4  567   8.655   5.888   8.091
   17POPC   GL1  568   8.415   5.760   7.728
   17POPC   GL2  569   8.238   6.101   7.748
   17POPC   C1A  570   8.553   5.606   7.285
   17POPC   D2A  571   8.636   5.682   6.811
   17POPC   C3A  572   8.333   5.507   6.468
   17POPC   C4A  573   8.046   5.573   6.147
   17POPC   C1B  574   8.482   6.128   7.334
   17POPC   C2B  575   8.446   6.179   6.847
   17POPC   C3B  576   8.219   6.029   6.445
   17POPC   C4B  577   7.954   6.081   6.065
   18POPC   NC3  578   5.775   0.405   8.372
   18POPC   PO4  579   6.266   9.959   8.364
   18POPC   GL1  580   6.103   0.338   7.990
   18POPC   GL2  581   5.823   0.578   7.901
   18POPC   C1A  582   6.005   0.347   7.486
   18POPC   D2A  583   6.083   0.037   7.156
   18POPC   C3A  584   6.015   0.069   6.703
   18POPC   C4A  585   5.942   0.037   6.266
   18POPC   C1B  586   5.624   0.673   7.488
   18POPC   C2B  587   5.797   0.788   7.067
   18POPC   C3B  588   5.780   0.545   6.633
   18POPC   C4B  589   5.947   0.541   6.210
   19POPC   NC3  590   9.562   6.593   8.167
   19POPC   PO4  591   0.233   6.262   8.169
   19POPC   GL1  592   9.970   6.549   7.818
   19POPC   GL2  593   9.734   6.821   7.756
   19POPC   C1A  594   9.809   6.540   7.324
   19POPC   D2A  595   9.880   6.447   6.841
   19POPC   C3A  596   9.892   6.617   6.386
   19POPC   C4A  597   9.969   6.411   5.933
   19POPC   C1B  598   9.363   6.698   7.520
   19POPC   C2B  599   9.233   6.520   7.094
   19POPC   C3B  600   9.403   6.584   6.657
   19POPC   C4B  601   9.372   6.893   6.306
   20POPC   NC3  602   9.597   0.946   8.484
   20POPC   PO4  603   9.948   1.414   8.056
   20POPC   GL1  604   9.623   1.361   7.725
   20POPC   GL2  605   9.285   1.239   7.827
   20POPC   C1A  606   9.694   1.240   7.296
   20POPC   D2A  607   9.838   0.971   6.965
   20POPC   C3A  608   9.773   1.058   6.525
   20POPC   C4A  609   9.739   0.796   6.143
   20POPC   C1B  610   9.164   1.188   7.392
   20POPC   C2B  611   9.317   1.118   6.947
   20POPC   C3B  612   9.424   1.448   6.624
   20POPC   C4B  613   9.403   1.600   6.180
   21POPC   NC3  614   1.865   8.037   8.101
   21POPC   PO4  615   2.353   7.581   8.166
   21POPC   GL1  616   2.251   7.810   7.727
   21POPC   GL2  617   1.928   8.054   7.609
   21POPC   C1A  618   2.292   7.953   7.300
   21POPC   D2A  619   2.022   7.938   6.929
   21POPC   C3A  620   2.271   7.919   6.555
   21POPC   C4A  621   2.426   8.097   6.161
   21POPC   C1B  622   1.564   8.332   7.485
   21POPC   C2B  623   1.359   8.245   7.075
   21POPC   C3B  624   1.580   8.154   6.653
   21POPC   C4B  625   1.907   8.173   6.322
   22POPC   NC3  626   4.181   1.505   8.241
   22POPC   PO4  627   4.727   1.132   8.463
   22POPC   GL1  628   4.623   1.348   8.039
   22POPC   GL2  629   4.317   1.179   7.889
   22POPC   C1A  630   4.627   1.329   7.529
   22POPC   D2A  631   4.397   1.102   7.153
   22POPC   C3A  632   4.548   1.060   6.682
   22POPC   C4A  633   4.573   1.063   6.163
   22POPC   C1B  634   4.021   1.216   7.559
   22POPC   C2B  635   3.889   1.159   7.146
   22POPC   C3B  636   3.982   0.900   6.800
   22POPC   C4B  637   4.128   1.012   6.394
   23POPC   NC3  638   7.795   7.018   8.131
   23POPC   PO4  639   8.365   7.508   8.179
   23POPC   GL1  640   8.105   7.312   7.868
   23POPC   GL2  641   8.237   7.499   7.649
   23POPC   C1A  642   7.990   7.141   7.414
   23POPC   D2A  643   8.018   7.319   6.961
   23POPC   C3A  644   7.933   7.049   6.569
   23POPC   C4A  645   7.752   6.904   6.171
   23POPC   C1B  646   8.315   7.713   7.297
   23POPC   C2B  647   8.445   7.605   6.913
   23POPC   C3B  648   8.258   7.650   6.496
   23POPC   C4B  649   8.210   7.400   6.126
   24POPC   NC3  650   9.260   3.504   8.034
   24POPC   PO4  651   8.775   3.969   8.040
   24POPC   GL1  652   8.882   3.683   7.730
   24POPC   GL2  653   8.826   3.299   7.817
   24POPC   C1A  654   9.204   3.779   7.409
   24POPC   D2A  655   9.305   3.616   7.013
   24POPC   C3A  656   9.035   3.745   6.659
   24POPC   C4A  657   8.889   3.548   6.286
   24POPC   C1B  658   9.038   3.306   7.403
   24POPC   C2B  659   8.894   3.313   6.966
   24POPC   C3B  660   8.991   3.135   6.555
   24POPC   C4B  661   8.814   3.055   6.124
   25POPC   NC3  662   0.194   1.797   8.162
   25POPC   PO4  663   0.465   2.206   8.500
   25POPC   GL1  664   0.398   2.161   7.907
   25POPC   GL2  665   0.673   2.095   7.694
   25POPC   C1A  666   0.203   2.164   7.466
   25POPC   D2A  667   9.990   2.212   7.038
   25POPC   C3A  668   0.135   1.957   6.666
   25POPC   C4A  669   0.183   1.929   6.204
   25POPC   C1B  670   0.683   2.189   7.236
   25POPC   C2B  671   0.614   2.160   6.782
   25POPC   C3B  672   0.660   1.951   6.399
   25POPC   C4B  673   0.632   1.716   6.001
   26POPC   NC3  674   9.911   4.364   8.258
   26POPC   PO4  675   9.391   4.735   7.972
   26POPC   GL1  676   9.711   4.602   7.687
   26POPC   GL2  677   9.868   4.255   7.749
   26POPC   C1A  678   9.702   4.677   7.241
   26POPC   D2A  679   9.458   4.588   6.866
   26POPC   C3A  680   9.609   4.493   6.448
   26POPC   C4A  681   9.578   4.664   6.006
   26POPC   C1B  682   9.992   4.269   7.315
   26POPC   C2B  683   9.943   4.360   6.865
   26POPC   C3B  684   9.981   4.115   6.490
   26POPC   C4B  685   9.826   3.732   6.258
   27POPC   NC3  686   7.286   0.959   8.154
   27POPC   PO4  687   7.745   1.365   7.892
   27POPC   GL1  688   7.299   1.335   7.723
   27POPC   GL2  689   7.162   1.000   7.669
   27POPC   C1A  690   7.148   1.276   7.255
   27POPC   D2A  691   7.322   1.275   6.804
   27POPC   C3A  692   7.040   1.315   6.440
   27POPC   C4A  693   7.033   1.168   5.977
   27POPC   C1B  694   7.583   0.970   7.426
   27POPC   C2B  695   7.783   0.901   7.027
   27POPC   C3B  696   7.648   0.874   6.612
   27POPC   C4B  697   7.492   1.157   6.293
   28POPC   NC3  698   9.333   4.954   8.370
   28POPC   PO4  699   8.650   4.920   8.128
   28POPC   GL1  700   8.929   4.764   7.740
   28POPC   GL2  701   9.154   5.054   7.656
   28POPC   C1A  702   9.107   4.717   7.256
   28POPC   D2A  703   8.961   4.662   6.783
   28POPC   C3A  704   9.162   4.764   6.378
   28POPC   C4A  705   9.104   4.793   5.904
   28POPC   C1B  706   8.750   5.093   7.426
   28POPC   C2B  707   8.637   4.953   7.024
   28POPC   C3B  708   8.776   5.186   6.628
   28POPC   C4B  709   8.812   5.567   6.343
   29POPC   NC3  710   5.985   8.911   8.474
   29POPC   PO4  711   5.405   9.166   8.299
   29POPC   GL1  712   5.658   9.332   7.953
   29POPC   GL2  713   5.998   9.184   7.986
   29POPC   C1A  714   5.798   9.317   7.505
   29POPC   D2A  715   5.956   9.172   7.102
   29POPC   C3A  716   5.694   9.215   6.731
   29POPC   C4A  717   5.402   9.204   6.368
   29POPC   C1B  718   5.832   8.848   7.675
   29POPC   C2B  719   5.918   8.668   7.250
   29POPC   C3B  720   5.933   8.748   6.784
   29POPC   C4B  721   5.781   8.865   6.361
   30POPC   NC3  722   5.016   8.872   8.230
   30POPC   PO4  723   4.417   8.684   7.992
   30POPC   GL1  724   4.805   8.763   7.772
   30POPC   GL2  725   4.906   9.151   7.790
   30POPC   C1A  726   4.959   8.843   7.352
   30POPC   D2A  727   4.952   9.255   7.212
   30POPC   C3A  728   4.886   9.301   6.772
   30POPC   C4A  729   4.916   8.988   6.461
   30POPC   C1B  730   5.337   9.085   7.583
   30POPC   C2B  731   5.477   8.951   7.153
   30POPC   C3B  732   5.330   8.832   6.720
   30POPC   C4B  733   5.292   8.703   6.281
   31POPC   NC3  734   6.004   9.701   8.088
   31POPC   PO4  735   5.433   0.032   8.322
   31POPC   GL1  736   5.671   0.055   7.894
   31POPC   GL2  737   5.854   9.810   7.614
   31POPC   C1A  738   5.507   0.143   7.469
   31POPC   D2A  739   5.647   0.274   7.045
   31POPC   C3A  740   5.503   0.087   6.612
   31POPC   C4A  741   5.550   9.725   6.302
   31POPC   C1B  742   6.193   9.577   7.312
   31POPC   C2B  743   6.278   9.617   6.872
   31POPC   C3B  744   5.995   9.567   6.505
   31POPC   C4B  745   5.863   9.318   6.136
   32POPC   NC3  746   7.168   2.433   8.206
   32POPC   PO4  747   7.250   3.110   8.222
   32POPC   GL1  748   7.386   2.852   7.923
   32POPC   GL2  749   7.661   2.992   7.758
   32POPC   C1A  750   7.269   2.690   7.529
   32POPC   D2A  751   7.261   2.676   7.072
   32POPC   C3A  752   7.133   2.674   6.635
   32POPC   C4A  753   7.187   2.964   6.301
   32POPC   C1B  754   7.763   2.768   7.355
   32POPC   C2B  755   7.744   2.601   6.932
   32POPC   C3B  756   7.637   2.780   6.523
   32POPC   C4B  757   7.647   2.917   6.077
   33POPC   NC3  758   8.960   9.273   8.424
   33POPC   PO4  759   9.202   8.571   8.355
   33POPC   GL1  760   8.998   8.761   7.969
   33POPC   GL2  761   8.682   8.792   8.091
   33POPC   C1A  762   9.098   8.849   7.476
   33POPC   D2A  763   9.189   8.714   7.018
   33POPC   C3A  764   9.172   8.967   6.638
   33POPC   C4A  765   8.987   9.006   6.234
   33POPC   C1B  766   8.588   8.846   7.633
   33POPC   C2B  767   8.690   8.836   7.167
   33POPC   C3B  768   8.722   8.740   6.706
   33POPC   C4B  769   8.496   8.672   6.295
   34POPC   NC3  770   5.084   0.341   8.196
   34POPC   PO4  771   4.672   0.850   7.992
   34POPC   GL1  772   4.921   0.551   7.746
   34POPC   GL2  773   4.806   0.196   7.704
   34POPC   C1A  774   5.142   0.490   7.338
   34POPC   D2A  775   5.321   0.642   6.935
   34POPC   C3A  776   5.147   0.555   6.513
   34POPC   C4A  777   5.087   0.530   6.048
   34POPC   C1B  778   4.751   0.167   7.226
   34POPC   C2B  779   5.037   0.191   6.837
   34POPC   C3B  780   5.041   0.085   6.342
   34POPC   C4B  781   4.836   0.103   5.889
   35POPC   NC3  782   0.337   6.742   8.235
   35POPC   PO4  783   0.880   6.617   8.097
   35POPC   GL1  784   0.795   6.502   7.725
   35POPC   GL2  785   0.473   6.482   7.779
   35POPC   C1A  786   0.784   6.637   7.290
   35POPC   D2A  787   0.825   6.942   6.948
   35POPC   C3A  788   0.799   6.706   6.580
   35POPC   C4A  789   0.674   6.784   6.165
   35POPC   C1B  790   0.297   6.572   7.387
   35POPC   C2B  791   0.421   6.466   6.952
   35POPC   C3B  792   0.353   6.454   6.517
   35POPC   C4B  793   0.216   6.133   6.262
   36POPC   NC3  794   7.605   8.610   7.962
   36POPC   PO4  795   7.823   9.240   8.073
   36POPC   GL1  796   7.558   9.123   7.740
   36POPC   GL2  797   7.259   9.002   7.880
   36POPC   C1A  798   7.636   9.085   7.292
   36POPC   D2A  799   7.847   9.047   6.902
   36POPC   C3A  800   7.647   9.046   6.498
   36POPC   C4A  801   7.566   9.197   6.050
   36POPC   C1B  802   7.275   8.777   7.458
   36POPC   C2B  803   7.327   8.728   7.018
   36POPC   C3B  804   7.070   8.697   6.642
   36POPC   C4B  805   7.246   8.836   6.272
   37POPC   NC3  806   1.962   8.733   8.263
   37POPC   PO4  807   2.266   8.225   7.970
   37POPC   GL1  808   1.988   8.540   7.778
   37POPC   GL2  809   2.021   8.922   7.778
   37POPC   C1A  810   1.993   8.631   7.334
   37POPC   D2A  811   2.035   8.928   6.990
   37POPC   C3A  812   1.971   8.767   6.562
   37POPC   C4A  813   1.610   8.606   6.325
   37POPC   C1B  814   2.212   9.218   7.447
   37POPC   C2B  815   2.402   9.293   7.020
   37POPC   C3B  816   2.202   9.247   6.608
   37POPC   C4B  817   1.904   9.179   6.241
   38POPC   NC3  818   0.711   6.207   8.190
   38POPC   PO4  819   0.490   5.576   7.996
   38POPC   GL1  820   0.543   5.971   7.786
   38POPC   GL2  821   0.895   5.973   7.756
   38POPC   C1A  822   0.589   6.157   7.376
   38POPC   D2A  823   0.521   5.915   7.000
   38POPC   C3A  824   0.602   5.992   6.575
   38POPC   C4A  825   0.780   6.272   6.257
   38POPC   C1B  826   0.742   5.677   7.392
   38POPC   C2B  827   0.743   5.471   6.934
   38POPC   C3B  828   0.623   5.446   6.485
   38POPC   C4B  829   0.328   5.644   6.201
   39POPC   NC3  830   2.115   7.178   8.213
   39POPC   PO4  831   1.524   7.677   8.156
   39POPC   GL1  832   1.793   7.592   7.781
   39POPC   GL2  833   2.080   7.343   7.733
   39POPC   C1A  834   1.901   7.615   7.325
   39POPC   D2A  835   1.835   7.416   6.914
   39POPC   C3A  836   1.811   7.682   6.538
   39POPC   C4A  837   2.050   7.699   6.121
   39POPC   C1B  838   2.207   7.194   7.333
   39POPC   C2B  839   2.211   7.064   6.898
   39POPC   C3B  840   2.215   7.328   6.518
   39POPC   C4B  841   2.236   7.214   6.077
   40POPC   NC3  842   6.585   0.165   8.079
   40POPC   PO4  843   6.996   0.631   7.989
   40POPC   GL1  844   6.920   0.328   7.648
   40POPC   GL2  845   6.567   0.414   7.641
   40POPC   C1A  846   6.943   0.287   7.159
   40POPC   D2A  847   6.789   0.552   6.839
   40POPC   C3A  848   6.837   0.443   6.401
   40POPC   C4A  849   6.708   0.713   6.074
   40POPC   C1B  850   6.460   0.414   7.237
   40POPC   C2B  851   6.190   0.484   6.936
   40POPC   C3B  852   6.340   0.538   6.539
   40POPC   C4B  853   6.391   0.296   6.197
   41POPC   NC3  854   8.926   7.363   8.223
   41POPC   PO4  855   8.460   6.851   8.278
   41POPC   GL1  856   8.621   7.165   7.863
   41POPC   GL2  857   9.026   7.271   7.742
   41POPC   C1A  858   8.689   7.405   7.423
   41POPC   D2A  859   8.984   7.392   7.098
   41POPC   C3A  860   8.856   7.418   6.681
   41POPC   C4A  861   8.723   7.490   6.253
   41POPC   C1B  862   9.237   7.606   7.470
   41POPC   C2B  863   9.392   7.694   6.994
   41POPC   C3B  864   9.190   7.758   6.523
   41POPC   C4B  865   9.213   7.708   6.018
   42POPC   NC3  866   2.464   3.712   8.270
   42POPC   PO4  867   1.847   3.975   8.429
   42POPC   GL1  868   1.827   3.902   7.956
   42POPC   GL2  869   1.844   3.531   7.878
   42POPC   C1A  870   1.782   3.912   7.490
   42POPC   D2A  871   2.032   3.671   7.174
   42POPC   C3A  872   1.834   3.632   6.766
   42POPC   C4A  873   1.672   3.854   6.408
   42POPC   C1B  874   1.704   3.375   7.444
   42POPC   C2B  875   1.562   3.183   7.037
   42POPC   C3B  876   1.713   3.141   6.610
   42POPC   C4B  877   1.935   3.394   6.285
   43POPC   NC3  878   1.052   3.076   8.146
   43POPC   PO4  879   0.725   2.519   8.015
   43POPC   GL1  880   0.901   2.803   7.731
   43POPC   GL2  881   1.268   2.784   7.770
   43POPC   C1A  882   0.943   2.752   7.305
   43POPC   D2A  883   0.805   2.616   6.923
   43POPC   C3A  884   0.967   2.792   6.562
   43POPC   C4A  885   1.082   2.674   6.120
   43POPC   C1B  886   1.491   2.739   7.366
   43POPC   C2B  887   1.332   2.713   6.944
   43POPC   C3B  888   1.465   2.681   6.530
   43POPC   C4B  889   1.463   2.983   6.211
   44POPC   NC3  890   9.442   1.803   7.992
   44POPC   PO4  891   9.962   2.234   8.127
   44POPC   GL1  892   9.762   2.166   7.739
   44POPC   GL2  893   9.887   1.827   7.708
   44POPC   C1A  894   9.551   2.237   7.319
   44POPC   D2A  895   9.526   2.503   6.916
   44POPC   C3A  896   9.847   2.412   6.570
   44POPC   C4A  897   9.834   2.269   6.068
   44POPC   C1B  898   9.897   1.740   7.246
   44POPC   C2B  899   9.923   1.472   6.847
   44POPC   C3B  900   9.875   1.550   6.396
   44POPC   C4B  901   9.687   1.947   6.401
   45POPC   NC3  902   0.314   2.551   8.243
   45POPC   PO4  903   0.553   3.191   8.203
   45POPC   GL1  904   0.394   2.980   7.792
   45POPC   GL2  905   0.194   2.640   7.742
   45POPC   C1A  906   0.230   3.095   7.351
   45POPC   D2A  907   0.505   3.037   6.968
   45POPC   C3A  908   0.534   3.066   6.513
   45POPC   C4A  909   0.590   2.749   6.198
   45POPC   C1B  910   0.409   2.622   7.302
   45POPC   C2B  911   0.301   2.569   6.830
   45POPC   C3B  912   0.317   2.382   6.391
   45POPC   C4B  913   0.259   2.482   5.919
   46POPC   NC3  914   8.192   7.179   8.432
   46POPC   PO4  915   7.934   6.580   8.109
   46POPC   GL1  916   8.223   6.813   7.825
   46POPC   GL2  917   8.475   6.566   7.717
   46POPC   C1A  918   8.453   6.969   7.425
   46POPC   D2A  919   8.596   7.082   6.986
   46POPC   C3A  920   8.420   7.157   6.566
   46POPC   C4A  921   8.261   6.903   6.184
   46POPC   C1B  922   8.154   6.557   7.396
   46POPC   C2B  923   8.159   6.814   7.027
   46POPC   C3B  924   8.280   6.662   6.646
   46POPC   C4B  925   8.007   6.496   6.361
   47POPC   NC3  926   5.011   1.492   8.405
   47POPC   PO4  927   4.504   1.849   8.184
   47POPC   GL1  928   4.766   1.790   7.826
   47POPC   GL2  929   5.068   1.836   8.024
   47POPC   C1A  930   4.744   1.805   7.355
   47POPC   D2A  931   4.924   1.865   6.926
   47POPC   C3A  932   4.629   1.972   6.574
   47POPC   C4A  933   4.741   2.296   6.274
   47POPC   C1B  934   5.230   1.941   7.596
   47POPC   C2B  935   5.419   2.004   7.173
   47POPC   C3B  936   5.412   2.014   6.708
   47POPC   C4B  937   5.106   1.891   6.376
   48POPC   NC3  938   2.625   4.567   8.028
   48POPC   PO4  939   2.733   5.224   8.125
   48POPC   GL1  940   2.428   5.154   7.792
   48POPC   GL2  941   2.302   4.822   7.637
   48POPC   C1A  942   2.472   5.217   7.326
   48POPC   D2A  943   2.437   5.027   6.928
   48POPC   C3A  944   2.585   5.036   6.527
   48POPC   C4A  945   2.516   5.027   6.071
   48POPC   C1B  946   2.146   4.701   7.196
   48POPC   C2B  947   2.283   4.548   6.749
   48POPC   C3B  948   2.627   4.523   6.406
   48POPC   C4B  949   2.996   4.444   6.063
   49POPC   NC3  950   4.301   2.290   8.212
   49POPC   PO4  951   3.769   1.784   8.271
   49POPC   GL1  952   4.049   1.920   7.923
   49POPC   GL2  953   4.254   1.672   7.756
   49POPC   C1A  954   4.020   2.056   7.474
   49POPC   D2A  955   3.795   2.062   7.049
   49POPC   C3A  956   4.062   1.982   6.627
   49POPC   C4A  957   4.253   2.086   6.194
   49POPC   C1B  958   4.248   1.610   7.311
   49POPC   C2B  959   4.404   1.663   6.922
   49POPC   C3B  960   4.335   1.515   6.524
   49POPC   C4B  961   4.298   1.506   6.096
   50POPC   NC3  962   6.393   7.289   8.041
   50POPC   PO4  963   6.884   7.136   8.475
   50POPC   GL1  964   6.824   7.163   7.839
   50POPC   GL2  965   7.081   7.281   7.654
   50POPC   C1A  966   6.620   7.402   7.450
   50POPC   D2A  967   6.500   7.542   7.025
   50POPC   C3A  968   6.642   7.389   6.598
   50POPC   C4A  969   6.794   7.116   6.218
   50POPC   C1B  970   7.070   7.431   7.231
   50POPC   C2B  971   7.105   7.280   6.835
   50POPC   C3B  972   7.119   7.461   6.426
   50POPC   C4B  973   6.808   7.631   6.111
   51POPC   NC3  974   9.679   2.599   8.093
   51POPC   PO4  975   9.216   3.099   8.257
   51POPC   GL1  976   9.376   2.957   7.788
   51POPC   GL2  977   9.599   2.665   7.621
   51POPC   C1A  978   9.301   2.885   7.303
   51POPC   D2A  979   9.421   3.120   6.935
   51POPC   C3A  980   9.518   2.907   6.570
   51POPC   C4A  981   9.313   2.915   6.177
   51POPC   C1B  982   9.886   2.670   7.290
   51POPC   C2B  983   9.948   2.929   6.929
   51POPC   C3B  984   0.053   2.895   6.486
   51POPC   C4B  985   9.806   2.742   6.168
   52POPC   NC3  986   6.682   1.864   8.339
   52POPC   PO4  987   7.118   1.394   8.221
   52POPC   GL1  988   6.858   1.589   7.931
   52POPC   GL2  989   6.826   1.962   7.851
   52POPC   C1A  990   6.775   1.585   7.495
   52POPC   D2A  991   6.577   1.368   7.182
   52POPC   C3A  992   6.641   1.499   6.727
   52POPC   C4A  993   6.822   1.782   6.404
   52POPC   C1B  994   6.470   2.029   7.547
   52POPC   C2B  995   6.322   1.817   7.155
   52POPC   C3B  996   6.295   1.891   6.689
   52POPC   C4B  997   6.472   2.198   6.364
   53POPC   NC3  998   0.257   3.470   7.973
   53POPC   PO4  999   9.875   2.981   8.272
   53POPC   GL1 1000   9.879   3.067   7.823
   53POPC   GL2 1001   9.736   3.405   7.823
   53POPC   C1A 1002   9.729   3.174   7.378
   53POPC   D2A 1003   9.933   3.456   7.063
   53POPC   C3A 1004   9.828   3.342   6.640
   53POPC   C4A 1005   9.727   3.227   6.207
   53POPC   C1B 1006   9.730   3.741   7.471
   53POPC   C2B 1007   9.695   3.946   7.051
   53POPC   C3B 1008   9.536   3.871   6.640
   53POPC   C4B 1009   9.374   3.447   6.470
   54POPC   NC3 1010   6.975   8.771   8.445
   54POPC   PO4 1011   6.397   9.110   8.407
   54POPC   GL1 1012   6.522   9.108   7.976
   54POPC   GL2 1013   6.777   8.842   7.974
   54POPC   C1A 1014   6.329   9.130   7.528
   54POPC   D2A 1015   6.482   9.164   7.062
   54POPC   C3A 1016   6.251   9.137   6.671
   54POPC   C4A 1017   6.285   8.851   6.340
   54POPC   C1B 1018   6.864   9.051   7.564
   54POPC   C2B 1019   7.129   9.222   7.176
   54POPC   C3B 1020   7.122   9.200   6.686
   54POPC   C4B 1021   6.771   9.021   6.382
   55POPC   NC3 1022   9.639   0.328   7.820
   55POPC   PO4 1023   9.254   0.719   8.241
   55POPC   GL1 1024   9.545   0.816   7.826
   55POPC   GL2 1025   9.907   0.891   7.721
   55POPC   C1A 1026   9.459   0.774   7.346
   55POPC   D2A 1027   9.564   0.552   6.936
   55POPC   C3A 1028   9.397   0.713   6.551
   55POPC   C4A 1029   9.229   0.624   6.133
   55POPC   C1B 1030   9.941   0.609   7.325
   55POPC   C2B 1031   9.965   0.235   7.013
   55POPC   C3B 1032   9.919   0.361   6.575
   55POPC   C4B 1033   9.593   0.300   6.306
   56POPC   NC3 1034   0.102   5.825   8.048
   56POPC   PO4 1035   9.585   6.181   7.868
   56POPC   GL1 1036   0.010   6.085   7.621
   56POPC   GL2 1037   0.169   5.736   7.548
   56POPC   C1A 1038   0.095   6.114   7.186
   56POPC   D2A 1039   0.087   5.978   6.747
   56POPC   C3A 1040   9.733   6.078   6.494
   56POPC   C4A 1041   9.728   5.977   6.079
   56POPC   C1B 1042   9.906   5.600   7.215
   56POPC   C2B 1043   9.714   5.592   6.786
   56POPC   C3B 1044   9.616   5.554   6.340
   56POPC   C4B 1045   9.378   5.627   5.925
   57POPC   NC3 1046   8.136   9.569   8.164
   57POPC   PO4 1047   8.627   0.006   8.005
   57POPC   GL1 1048   8.261   9.822   7.714
   57POPC   GL2 1049   8.224   9.415   7.681
   57POPC   C1A 1050   7.923   9.931   7.375
   57POPC   D2A 1051   7.751   9.950   6.935
   57POPC   C3A 1052   7.851   9.910   6.477
   57POPC   C4A 1053   8.164   9.855   6.142
   57POPC   C1B 1054   8.013   9.440   7.251
   57POPC   C2B 1055   8.048   9.530   6.793
   57POPC   C3B 1056   7.965   9.423   6.360
   57POPC   C4B 1057   8.067   9.405   5.907
   58POPC   NC3 1058   3.782   7.521   8.160
   58POPC   PO4 1059   3.694   6.937   8.102
   58POPC   GL1 1060   3.703   7.303   7.699
   58POPC   GL2 1061   3.497   7.605   7.576
   58POPC   C1A 1062   3.818   7.484   7.226
   58POPC   D2A 1063   3.606   7.589   6.809
   58POPC   C3A 1064   3.322   7.273   6.645
   58POPC   C4A 1065   3.387   7.035   6.274
   58POPC   C1B 1066   3.240   7.671   7.199
   58POPC   C2B 1067   3.142   7.796   6.752
   58POPC   C3B 1068   3.269   7.679   6.338
   58POPC   C4B 1069   3.674   7.587   6.260
   59POPC   NC3 1070   8.819   2.159   7.835
   59POPC   PO4 1071   9.025   1.584   8.078
   59POPC   GL1 1072   9.108   1.680   7.622
   59POPC   GL2 1073   8.866   1.637   7.358
   59POPC   C1A 1074   9.386   1.661   7.244
   59POPC   D2A 1075   9.504   1.941   6.880
   59POPC   C3A 1076   9.193   1.955   6.503
   59POPC   C4A 1077   8.946   1.797   6.133
   59POPC   C1B 1078   9.049   2.053   7.232
   59POPC   C2B 1079   8.951   2.256   6.852
   59POPC   C3B 1080   8.695   2.126   6.488
   59POPC   C4B 1081   8.485   1.735   6.330
   60POPC   NC3 1082   6.710   1.141   8.259
   60POPC   PO4 1083   6.109   0.769   8.322
   60POPC   GL1 1084   6.305   0.804   7.895
   60POPC   GL2 1085   6.636   0.932   7.765
   60POPC   C1A 1086   6.223   0.810   7.437
   60POPC   D2A 1087   6.353   0.943   7.015
   60POPC   C3A 1088   6.084   0.958   6.648
   60POPC   C4A 1089   6.231   0.960   6.213
   60POPC   C1B 1090   6.784   0.851   7.318
   60POPC   C2B 1091   6.837   1.054   6.898
   60POPC   C3B 1092   6.631   0.996   6.527
   60POPC   C4B 1093   6.594   1.313   6.206
   61POPC   NC3 1094   1.074   4.041   7.888
   61POPC   PO4 1095   0.947   4.687   7.972
   61POPC   GL1 1096   0.899   4.448   7.619
   61POPC   GL2 1097   1.249   4.381   7.572
   61POPC   C1A 1098   0.937   4.437   7.167
   61POPC   D2A 1099   0.876   4.634   6.822
   61POPC   C3A 1100   0.841   4.411   6.487
   61POPC   C4A 1101   1.004   4.500   6.082
   61POPC   C1B 1102   1.302   4.093   7.222
   61POPC   C2B 1103   1.211   4.190   6.775
   61POPC   C3B 1104   1.309   4.209   6.347
   61POPC   C4B 1105   1.295   4.017   5.916
   62POPC   NC3 1106   7.657   3.306   8.209
   62POPC   PO4 1107   7.192   3.774   8.010
   62POPC   GL1 1108   7.435   3.464   7.762
   62POPC   GL2 1109   7.199   3.234   7.637
   62POPC   C1A 1110   7.631   3.279   7.360
   62POPC   D2A 1111   7.510   3.102   6.910
   62POPC   C3A 1112   7.643   3.309   6.452
   62POPC   C4A 1113   7.933   3.306   5.997
   62POPC   C1B 1114   7.177   3.416   7.205
   62POPC   C2B 1115   7.346   3.564   6.804
   62POPC   C3B 1116   7.134   3.463   6.430
   62POPC   C4B 1117   7.054   3.670   6.060
   63POPC   NC3 1118   1.949   2.856   8.228
   63POPC   PO4 1119   2.518   3.248   8.288
   63POPC   GL1 1120   2.308   3.068   7.865
   63POPC   GL2 1121   2.188   2.725   7.786
   63POPC   C1A 1122   2.118   3.061   7.393
   63POPC   D2A 1123   2.071   3.207   6.954
   63POPC   C3A 1124   2.192   2.979   6.546
   63POPC   C4A 1125   2.139   2.959   6.081
   63POPC   C1B 1126   2.041   2.561   7.380
   63POPC   C2B 1127   1.905   2.710   6.965
   63POPC   C3B 1128   1.963   2.519   6.563
   63POPC   C4B 1129   1.804   2.598   6.131
   64POPC   NC3 1130   8.080   7.831   7.994
   64POPC   PO4 1131   8.269   8.417   8.306
   64POPC   GL1 1132   8.399   8.419   7.853
   64POPC   GL2 1133   8.338   8.100   7.668
   64POPC   C1A 1134   8.391   8.462   7.352
   64POPC   D2A 1135   8.426   8.142   7.034
   64POPC   C3A 1136   8.416   8.326   6.663
   64POPC   C4A 1137   8.318   8.159   6.294
   64POPC   C1B 1138   7.999   8.109   7.321
   64POPC   C2B 1139   7.979   7.858   6.911
   64POPC   C3B 1140   7.854   7.993   6.493
   64POPC   C4B 1141   7.954   7.847   6.098
   65POPC   NC3 1142   4.244   9.800   8.210
   65POPC   PO4 1143   4.750   9.302   8.287
   65POPC   GL1 1144   4.470   9.444   7.906
   65POPC   GL2 1145   4.428   9.818   7.750
   65POPC   C1A 1146   4.465   9.333   7.470
   65POPC   D2A 1147   4.485   9.600   7.091
   65POPC   C3A 1148   4.389   9.434   6.656
   65POPC   C4A 1149   4.615   9.358   6.276
   65POPC   C1B 1150   4.062   9.671   7.534
   65POPC   C2B 1151   3.959   9.790   7.101
   65POPC   C3B 1152   4.132   9.883   6.653
   65POPC   C4B 1153   4.022   9.842   6.181
   66POPC   NC3 1154   2.055   1.198   8.173
   66POPC   PO4 1155   1.550   0.815   8.128
   66POPC   GL1 1156   1.743   0.985   7.776
   66POPC   GL2 1157   2.112   0.990   7.663
   66POPC   C1A 1158   1.634   1.193   7.399
   66POPC   D2A 1159   1.702   1.102   6.974
   66POPC   C3A 1160   1.705   1.243   6.523
   66POPC   C4A 1161   1.967   1.081   6.177
   66POPC   C1B 1162   2.133   1.275   7.270
   66POPC   C2B 1163   2.127   1.354   6.802
   66POPC   C3B 1164   2.074   1.587   6.383
   66POPC   C4B 1165   1.989   1.612   5.909
   67POPC   NC3 1166   7.403   4.188   7.979
   67POPC   PO4 1167   7.593   4.767   7.948
   67POPC   GL1 1168   7.775   4.421   7.650
   67POPC   GL2 1169   7.811   4.017   7.699
   67POPC   C1A 1170   7.820   4.234   7.218
   67POPC   D2A 1171   7.667   3.998   6.854
   67POPC   C3A 1172   7.547   4.323   6.593
   67POPC   C4A 1173   7.394   4.452   6.220
   67POPC   C1B 1174   7.521   3.818   7.355
   67POPC   C2B 1175   7.175   3.968   7.055
   67POPC   C3B 1176   7.137   3.989   6.577
   67POPC   C4B 1177   7.468   3.849   6.329
   68POPC   NC3 1178   2.091   5.386   8.237
   68POPC   PO4 1179   2.258   4.772   8.249
   68POPC   GL1 1180   1.941   5.033   7.920
   68POPC   GL2 1181   1.715   4.911   7.663
   68POPC   C1A 1182   2.010   5.293   7.526
   68POPC   D2A 1183   2.016   5.330   7.045
   68POPC   C3A 1184   1.973   4.963   6.751
   68POPC   C4A 1185   2.130   4.826   6.344
   68POPC   C1B 1186   1.700   4.967   7.222
   68POPC   C2B 1187   1.540   5.195   6.855
   68POPC   C3B 1188   1.599   5.067   6.422
   68POPC   C4B 1189   1.683   4.770   6.103
   69POPC   NC3 1190   7.975   2.764   8.063
   69POPC   PO4 1191   8.521   2.446   8.022
   69POPC   GL1 1192   8.400   2.725   7.717
   69POPC   GL2 1193   8.206   3.016   7.684
   69POPC   C1A 1194   8.288   2.648   7.299
   69POPC   D2A 1195   8.416   2.447   6.904
   69POPC   C3A 1196   8.132   2.579   6.600
   69POPC   C4A 1197   7.973   2.578   6.195
   69POPC   C1B 1198   8.125   3.153   7.286
   69POPC   C2B 1199   8.006   3.064   6.862
   69POPC   C3B 1200   8.079   3.068   6.445
   69POPC   C4B 1201   8.313   2.971   6.137
   70POPC   NC3 1202   1.145   7.330   8.198
   70POPC   PO4 1203   1.705   6.820   8.234
   70POPC   GL1 1204   1.650   7.097   7.816
   70POPC   GL2 1205   1.337   7.358   7.727
   70POPC   C1A 1206   1.603   7.194   7.342
   70POPC   D2A 1207   1.327   7.190   6.981
   70POPC   C3A 1208   1.449   7.293   6.569
   70POPC   C4A 1209   1.729   7.295   6.222
   70POPC   C1B 1210   1.052   7.504   7.341
   70POPC   C2B 1211   0.924   7.473   6.884
   70POPC   C3B 1212   0.915   7.224   6.475
   70POPC   C4B 1213   0.943   7.288   5.998
   71POPC   NC3 1214   0.645   9.659   8.252
   71POPC   PO4 1215   1.240   9.265   8.209
   71POPC   GL1 1216   1.277   9.418   7.779
   71POPC   GL2 1217   0.996   9.634   7.799
   71POPC   C1A 1218   1.259   9.324   7.316
   71POPC   D2A 1219   0.964   9.108   7.002
   71POPC   C3A 1220   0.953   9.247   6.541
   71POPC   C4A 1221   0.910   9.336   6.071
   71POPC   C1B 1222   1.277   9.842   7.480
   71POPC   C2B 1223   1.363   9.933   7.033
   71POPC   C3B 1224   1.128   9.879   6.642
   71POPC   C4B 1225   0.882   9.822   6.280
   72POPC   NC3 1226   6.758   6.819   8.179
   72POPC   PO4 1227   6.217   6.939   7.795
   72POPC   GL1 1228   6.565   6.892   7.497
   72POPC   GL2 1229   6.850   6.699   7.622
   72POPC   C1A 1230   6.676   7.051   7.085
   72POPC   D2A 1231   6.790   6.902   6.706
   72POPC   C3A 1232   6.528   6.711   6.379
   72POPC   C4A 1233   6.407   6.868   5.951
   72POPC   C1B 1234   6.807   6.545   7.153
   72POPC   C2B 1235   6.840   6.377   6.700
   72POPC   C3B 1236   6.711   6.223   6.281
   72POPC   C4B 1237   6.549   6.265   5.825
   73POPC   NC3 1238   7.585   6.336   7.921
   73POPC   PO4 1239   7.189   6.862   8.014
   73POPC   GL1 1240   7.351   6.840   7.635
   73POPC   GL2 1241   7.711   6.798   7.680
   73POPC   C1A 1242   7.157   6.904   7.214
   73POPC   D2A 1243   7.233   6.675   6.829
   73POPC   C3A 1244   7.067   6.679   6.365
   73POPC   C4A 1245   6.868   6.620   5.999
   73POPC   C1B 1246   7.680   6.717   7.246
   73POPC   C2B 1247   7.745   6.625   6.792
   73POPC   C3B 1248   7.519   6.491   6.431
   73POPC   C4B 1249   7.459   6.104   6.200
   74POPC   NC3 1250   6.220   2.678   8.008
   74POPC   PO4 1251   6.711   2.309   8.210
   74POPC   GL1 1252   6.825   2.506   7.805
   74POPC   GL2 1253   6.868   2.876   7.805
   74POPC   C1A 1254   6.576   2.561   7.419
   74POPC   D2A 1255   6.334   2.329   7.106
   74POPC   C3A 1256   6.242   2.506   6.698
   74POPC   C4A 1257   6.155   2.579   6.256
   74POPC   C1B 1258   6.885   2.949   7.315
   74POPC   C2B 1259   6.685   2.756   6.903
   74POPC   C3B 1260   6.626   2.750   6.405
   74POPC   C4B 1261   6.456   2.866   5.950
   75POPC   NC3 1262   3.569   0.540   8.176
   75POPC   PO4 1263   3.918   1.094   8.201
   75POPC   GL1 1264   4.013   0.754   7.834
   75POPC   GL2 1265   3.724   0.534   7.703
   75POPC   C1A 1266   4.008   0.722   7.350
   75POPC   D2A 1267   3.583   0.742   7.121
   75POPC   C3A 1268   3.558   0.565   6.703
   75POPC   C4A 1269   3.727   0.672   6.272
   75POPC   C1B 1270   3.349   0.416   7.470
   75POPC   C2B 1271   3.191   0.375   7.051
   75POPC   C3B 1272   3.175   0.214   6.640
   75POPC   C4B 1273   3.220   0.472   6.269
   76POPC   NC3 1274   2.501   2.021   8.230
   76POPC   PO4 1275   3.018   2.441   8.326
   76POPC   GL1 1276   3.080   2.313   7.863
   76POPC   GL2 1277   2.862   2.008   7.833
   76POPC   C1A 1278   3.020   2.194   7.375
   76POPC   D2A 1279   2.747   2.080   6.971
   76POPC   C3A 1280   2.831   2.161   6.501
   76POPC   C4A 1281   2.987   2.051   6.068
   76POPC   C1B 1282   2.689   1.812   7.440
   76POPC   C2B 1283   2.494   1.627   7.068
   76POPC   C3B 1284   2.548   1.612   6.603
   76POPC   C4B 1285   2.803   1.602   6.219
   77POPC   NC3 1286   1.420   4.688   7.997
   77POPC   PO4 1287   1.512   5.248   8.111
   77POPC   GL1 1288   1.227   5.115   7.773
   77POPC   GL2 1289   1.034   5.443   7.785
   77POPC   C1A 1290   1.225   4.827   7.353
   77POPC   D2A 1291   1.402   4.647   6.936
   77POPC   C3A 1292   1.258   4.714   6.491
   77POPC   C4A 1293   1.209   4.970   6.085
   77POPC   C1B 1294   1.044   5.285   7.338
   77POPC   C2B 1295   1.061   5.086   6.917
   77POPC   C3B 1296   1.122   5.272   6.508
   77POPC   C4B 1297   1.375   5.461   6.171
   78POPC   NC3 1298   8.019   0.965   8.050
   78POPC   PO4 1299   8.047   1.568   8.288
   78POPC   GL1 1300   8.254   1.363   7.851
   78POPC   GL2 1301   8.584   1.472   7.748
   78POPC   C1A 1302   8.130   1.095   7.419
   78POPC   D2A 1303   8.318   0.904   7.020
   78POPC   C3A 1304   8.164   0.815   6.579
   78POPC   C4A 1305   7.936   0.923   6.162
   78POPC   C1B 1306   8.305   1.569   7.362
   78POPC   C2B 1307   8.058   1.365   6.977
   78POPC   C3B 1308   7.977   1.301   6.517
   78POPC   C4B 1309   8.214   1.360   6.111
   79POPC   NC3 1310   1.924   0.558   8.036
   79POPC   PO4 1311   1.930   9.906   8.102
   79POPC   GL1 1312   1.649   0.059   7.765
   79POPC   GL2 1313   1.545   0.439   7.715
   79POPC   C1A 1314   1.758   0.138   7.327
   79POPC   D2A 1315   2.163   0.258   7.073
   79POPC   C3A 1316   2.214   0.202   6.622
   79POPC   C4A 1317   2.022   0.189   6.214
   79POPC   C1B 1318   1.815   0.668   7.376
   79POPC   C2B 1319   2.121   0.811   7.046
   79POPC   C3B 1320   1.991   0.830   6.627
   79POPC   C4B 1321   1.730   0.616   6.290
   80POPC   NC3 1322   5.163   9.574   8.362
   80POPC   PO4 1323   4.654   0.061   8.217
   80POPC   GL1 1324   4.874   9.755   7.984
   80POPC   GL2 1325   5.177   9.890   7.905
   80POPC   C1A 1326   4.861   9.671   7.524
   80POPC   D2A 1327   5.002   9.742   7.084
   80POPC   C3A 1328   4.745   9.801   6.689
   80POPC   C4A 1329   4.547   9.882   6.283
   80POPC   C1B 1330   5.370   9.608   7.610
   80POPC   C2B 1331   5.436   9.465   7.165
   80POPC   C3B 1332   5.321   9.578   6.728
   80POPC   C4B 1333   5.062   9.576   6.340
   81POPC   NC3 1334   1.027   8.840   8.194
   81POPC   PO4 1335   1.567   8.397   8.202
   81POPC   GL1 1336   1.536   8.816   7.922
   81POPC   GL2 1337   1.216   8.915   7.736
   81POPC   C1A 1338   1.625   8.975   7.465
   81POPC   D2A 1339   1.361   8.768   7.128
   81POPC   C3A 1340   1.281   8.829   6.664
   81POPC   C4A 1341   1.328   9.031   6.227
   81POPC   C1B 1342   1.057   8.557   7.498
   81POPC   C2B 1343   0.892   8.512   7.083
   81POPC   C3B 1344   0.769   8.726   6.710
   81POPC   C4B 1345   0.925   8.699   6.301
   82POPC   NC3 1346   9.518   8.919   8.301
   82POPC   PO4 1347   9.946   8.447   8.184
   82POPC   GL1 1348   9.825   8.648   7.821
   82POPC   GL2 1349   9.474   8.638   7.860
   82POPC   C1A 1350   0.005   8.803   7.403
   82POPC   D2A 1351   0.019   9.140   7.059
   82POPC   C3A 1352   9.891   8.958   6.645
   82POPC   C4A 1353   9.893   8.698   6.205
   82POPC   C1B 1354   9.530   8.570   7.406
   82POPC   C2B 1355   9.697   8.607   6.988
   82POPC   C3B 1356   9.517   8.619   6.543
   82POPC   C4B 1357   9.526   9.044   6.274
   83POPC   NC3 1358   2.508   5.624   8.026
   83POPC   PO4 1359   1.931   5.736   8.472
   83POPC   GL1 1360   1.874   5.671   7.888
   83POPC   GL2 1361   1.581   5.533   7.719
   83POPC   C1A 1362   1.954   5.808   7.427
   83POPC   D2A 1363   2.164   5.987   7.036
   83POPC   C3A 1364   2.103   5.882   6.642
   83POPC   C4A 1365   1.723   5.997   6.418
   83POPC   C1B 1366   1.589   5.462   7.298
   83POPC   C2B 1367   1.700   5.726   6.931
   83POPC   C3B 1368   1.794   5.511   6.543
   83POPC   C4B 1369   2.212   5.367   6.441
   84POPC   NC3 1370   7.516   5.218   7.964
   84POPC   PO4 1371   7.582   5.876   7.888
   84POPC   GL1 1372   7.829   5.475   7.613
   84POPC   GL2 1373   7.844   5.061   7.610
   84POPC   C1A 1374   7.806   5.290   7.142
   84POPC   D2A 1375   7.873   5.254   6.658
   84POPC   C3A 1376   7.595   5.453   6.339
   84POPC   C4A 1377   7.617   5.673   5.904
   84POPC   C1B 1378   7.683   4.793   7.262
   84POPC   C2B 1379   7.660   4.793   6.805
   84POPC   C3B 1380   7.602   4.930   6.367
   84POPC   C4B 1381   7.563   5.112   5.952
   85POPC   NC3 1382   1.269   6.656   8.318
   85POPC   PO4 1383   0.752   7.071   8.347
   85POPC   GL1 1384   0.891   7.057   7.850
   85POPC   GL2 1385   1.214   6.876   7.862
   85POPC   C1A 1386   1.105   7.001   7.401
   85POPC   D2A 1387   1.263   6.683   7.072
   85POPC   C3A 1388   1.304   6.790   6.625
   85POPC   C4A 1389   1.160   6.635   6.202
   85POPC   C1B 1390   1.464   6.664   7.560
   85POPC   C2B 1391   1.619   6.362   7.236
   85POPC   C3B 1392   1.657   6.368   6.780
   85POPC   C4B 1393   1.630   6.509   6.337
   86POPC   NC3 1394   0.299   8.719   8.041
   86POPC   PO4 1395   0.290   9.341   8.145
   86POPC   GL1 1396   0.714   9.197   7.936
   86POPC   GL2 1397   0.707   8.855   7.763
   86POPC   C1A 1398   0.784   9.277   7.481
   86POPC   D2A 1399   0.511   9.335   7.103
   86POPC   C3A 1400   0.446   9.146   6.702
   86POPC   C4A 1401   0.558   9.047   6.281
   86POPC   C1B 1402   0.551   8.838   7.314
   86POPC   C2B 1403   0.276   8.715   6.959
   86POPC   C3B 1404   0.307   8.676   6.512
   86POPC   C4B 1405   0.408   8.591   6.101
   87POPC   NC3 1406   0.463   7.427   8.299
   87POPC   PO4 1407   9.957   7.006   8.293
   87POPC   GL1 1408   0.099   7.148   7.889
   87POPC   GL2 1409   0.055   7.502   7.843
   87POPC   C1A 1410   0.069   7.042   7.414
   87POPC   D2A 1411   0.103   6.880   6.978
   87POPC   C3A 1412   0.341   6.981   6.577
   87POPC   C4A 1413   0.453   7.251   6.200
   87POPC   C1B 1414   0.420   7.386   7.546
   87POPC   C2B 1415   0.443   7.288   7.076
   87POPC   C3B 1416   0.476   7.471   6.652
   87POPC   C4B 1417   0.694   7.716   6.323
   88POPC   NC3 1418   8.219   0.283   8.005
   88POPC   PO4 1419   7.663   0.656   8.146
   88POPC   GL1 1420   7.900   0.604   7.734
   88POPC   GL2 1421   8.254   0.650   7.620
   88POPC   C1A 1422   7.821   0.489   7.349
   88POPC   D2A 1423   8.041   0.459   6.963
   88POPC   C3A 1424   7.859   0.393   6.600
   88POPC   C4A 1425   7.663   0.506   6.245
   88POPC   C1B 1426   8.294   0.278   7.367
   88POPC   C2B 1427   8.279   0.002   6.985
   88POPC   C3B 1428   8.324   0.124   6.548
   88POPC   C4B 1429   8.201   0.422   6.213
   89POPC   NC3 1430   5.054   1.027   8.144
   89POPC   PO4 1431   5.460   1.561   8.240
   89POPC   GL1 1432   5.383   1.500   7.784
   89POPC   GL2 1433   5.076   1.368   7.778
   89POPC   C1A 1434   5.183   1.516   7.310
   89POPC   D2A 1435   4.816   1.380   7.037
   89POPC   C3A 1436   4.868   1.475   6.582
   89POPC   C4A 1437   5.319   1.421   6.432
   89POPC   C1B 1438   5.050   1.009   7.479
   89POPC   C2B 1439   4.875   0.870   7.099
   89POPC   C3B 1440   5.055   1.026   6.724
   89POPC   C4B 1441   5.055   0.998   6.288
   90POPC   NC3 1442   5.330   7.924   8.188
   90POPC   PO4 1443   4.861   8.409   8.293
   90POPC   GL1 1444   4.767   8.243   7.877
   90POPC   GL2 1445   5.120   8.250   7.830
   90POPC   C1A 1446   4.833   8.355   7.432
   90POPC   D2A 1447   5.053   8.414   7.044
   90POPC   C3A 1448   4.817   8.527   6.694
   90POPC   C4A 1449   4.716   8.347   6.309
   90POPC   C1B 1450   5.231   8.011   7.458
   90POPC   C2B 1451   5.095   7.894   7.045
   90POPC   C3B 1452   4.926   8.006   6.680
   90POPC   C4B 1453   5.199   8.245   6.483
   91POPC   NC3 1454   9.706   7.405   8.335
   91POPC   PO4 1455   9.253   7.049   8.141
   91POPC   GL1 1456   9.538   7.283   7.867
   91POPC   GL2 1457   9.532   7.640   7.905
   91POPC   C1A 1458   9.593   7.233   7.427
   91POPC   D2A 1459   9.569   6.924   7.085
   91POPC   C3A 1460   9.712   7.021   6.670
   91POPC   C4A 1461   9.919   7.174   6.296
   91POPC   C1B 1462   9.739   7.745   7.498
   91POPC   C2B 1463   9.982   7.529   7.171
   91POPC   C3B 1464   9.961   7.483   6.717
   91POPC   C4B 1465   9.666   7.637   6.376
   92POPC   NC3 1466   7.889   1.804   7.928
   92POPC   PO4 1467   7.650   2.431   8.021
   92POPC   GL1 1468   7.970   2.419   7.669
   92POPC   GL2 1469   8.296   2.212   7.638
   92POPC   C1A 1470   7.989   2.253   7.235
   92POPC   D2A 1471   7.786   2.044   6.911
   92POPC   C3A 1472   7.707   2.258   6.525
   92POPC   C4A 1473   7.720   2.085   6.123
   92POPC   C1B 1474   8.488   2.057   7.240
   92POPC   C2B 1475   8.292   1.822   6.877
   92POPC   C3B 1476   8.015   1.819   6.505
   92POPC   C4B 1477   8.196   2.153   6.310
   93POPC   NC3 1478   1.236   8.047   8.217
   93POPC   PO4 1479   0.684   8.489   8.152
   93POPC   GL1 1480   0.903   8.170   7.822
   93POPC   GL2 1481   1.103   7.825   7.782
   93POPC   C1A 1482   0.922   8.053   7.357
   93POPC   D2A 1483   0.919   7.990   6.903
   93POPC   C3A 1484   1.085   8.312   6.639
   93POPC   C4A 1485   1.242   8.254   6.239
   93POPC   C1B 1486   1.429   7.828   7.434
   93POPC   C2B 1487   1.400   7.722   6.963
   93POPC   C3B 1488   1.256   7.778   6.511
   93POPC   C4B 1489   1.541   7.858   6.137
   94POPC   NC3 1490   0.797   2.110   8.202
   94POPC   PO4 1491   1.378   1.791   8.259
   94POPC   GL1 1492   1.126   1.888   7.869
   94POPC   GL2 1493   1.147   2.263   7.838
   94POPC   C1A 1494   1.005   1.808   7.405
   94POPC   D2A 1495   0.872   1.737   6.947
   94POPC   C3A 1496   1.135   1.798   6.564
   94POPC   C4A 1497   1.085   1.919   6.102
   94POPC   C1B 1498   1.169   2.309   7.389
   94POPC   C2B 1499   1.117   2.206   6.937
   94POPC   C3B 1500   1.079   2.300   6.492
   94POPC   C4B 1501   1.415   2.290   6.175
   95POPC   NC3 1502   8.334   3.864   8.147
   95POPC   PO4 1503   8.106   3.209   8.147
   95POPC   GL1 1504   7.991   3.482   7.814
   95POPC   GL2 1505   8.351   3.527   7.767
   95POPC   C1A 1506   8.019   3.653   7.389
   95POPC   D2A 1507   7.840   3.540   6.995
   95POPC   C3A 1508   8.050   3.587   6.644
   95POPC   C4A 1509   7.969   3.705   6.295
   95POPC   C1B 1510   8.536   3.523   7.381
   95POPC   C2B 1511   8.394   3.458   6.977
   95POPC   C3B 1512   8.503   3.338   6.558
   95POPC   C4B 1513   8.401   3.488   6.135
   96POPC   NC3 1514   8.190   8.871   8.189
   96POPC   PO4 1515   7.893   8.255   7.960
   96POPC   GL1 1516   7.969   8.558   7.617
   96POPC   GL2 1517   8.017   8.893   7.716
   96POPC   C1A 1518   7.810   8.592   7.203
   96POPC   D2A 1519   7.933   8.360   6.842
   96POPC   C3A 1520   7.942   8.525   6.404
   96POPC   C4A 1521   7.685   8.705   6.043
   96POPC   C1B 1522   8.181   8.943   7.317
   96POPC   C2B 1523   8.255   8.755   6.919
   96POPC   C3B 1524   8.249   9.027   6.563
   96POPC   C4B 1525   8.073   8.969   6.168
   97POPC   NC3 1526   3.407   8.247   8.264
   97POPC   PO4 1527   3.346   7.608   8.047
   97POPC   GL1 1528   3.672   7.951   7.918
   97POPC   GL2 1529   3.588   8.294   7.806
   97POPC   C1A 1530   3.873   7.947   7.516
   97POPC   D2A 1531   3.686   7.992   7.126
   97POPC   C3A 1532   3.861   8.032   6.723
   97POPC   C4A 1533   3.567   8.084   6.403
   97POPC   C1B 1534   3.368   8.100   7.510
   97POPC   C2B 1535   3.198   8.172   7.100
   97POPC   C3B 1536   3.202   8.313   6.665
   97POPC   C4B 1537   3.210   8.394   6.215
   98POPC   NC3 1538   2.295   9.632   8.099
   98POPC   PO4 1539   2.926   9.944   8.183
   98POPC   GL1 1540   2.964   9.570   7.860
   98POPC   GL2 1541   2.622   9.483   7.734
   98POPC   C1A 1542   3.068   9.583   7.406
   98POPC   D2A 1543   2.809   9.646   7.009
   98POPC   C3A 1544   2.802   9.830   6.564
   98POPC   C4A 1545   2.492   9.929   6.233
   98POPC   C1B 1546   2.738   9.190   7.420
   98POPC   C2B 1547   2.898   9.124   7.004
   98POPC   C3B 1548   2.812   9.315   6.611
   98POPC   C4B 1549   2.533   9.417   6.253
   99POPC   NC3 1550   3.262   9.618   8.277
   99POPC   PO4 1551   3.938   9.377   8.209
   99POPC   GL1 1552   3.775   9.740   7.986
   99POPC   GL2 1553   3.506   9.558   7.835
   99POPC   C1A 1554   3.626   9.977   7.589
   99POPC   D2A 1555   3.410   9.927   7.174
   99POPC   C3A 1556   3.629   0.022   6.778
   99POPC   C4A 1557   3.632   0.169   6.358
   99POPC   C1B 1558   3.590   9.475   7.389
   99POPC   C2B 1559   3.334   9.447   6.984
   99POPC   C3B 1560   3.279   9.669   6.591
   99POPC   C4B 1561   3.468   9.719   6.180
  100POPC   NC3 1562   8.924   4.442   8.128
  100POPC   PO4 1563   9.511   4.517   8.437
  100POPC   GL1 1564   9.392   4.241   7.953
  100POPC   GL2 1565   9.064   4.236   7.701
  100POPC   C1A 1566   9.465   4.232   7.422
  100POPC   D2A 1567   9.168   4.145   7.034
  100POPC   C3A 1568   9.172   4.241   6.571
  100POPC   C4A 1569   9.208   4.336   6.121
  100POPC   C1B 1570   8.773   4.053   7.390
  100POPC   C2B 1571   8.716   3.842   7.025
  100POPC   C3B 1572   8.547   3.868   6.592
  100POPC   C4B 1573   8.813   4.042   6.240
  101POPC   NC3 1574   7.573   1.523   8.290
  101POPC   PO4 1575   7.138   1.994   8.378
  101POPC   GL1 1576   7.320   1.870   7.942
  101POPC   GL2 1577   7.282   2.200   7.745
  101POPC   C1A 1578   7.255   1.777   7.450
  101POPC   D2A 1579   7.077   1.713   6.978
  101POPC   C3A 1580   7.343   1.733   6.559
  101POPC   C4A 1581   7.247   1.663   6.094
  101POPC   C1B 1582   7.464   2.256   7.303
  101POPC   C2B 1583   7.295   2.195   6.854
  101POPC   C3B 1584   7.194   2.198   6.394
  101POPC   C4B 1585   7.369   2.504   6.145
  102POPC   NC3 1586   1.136   0.617   8.165
  102POPC   PO4 1587   0.938   0.024   8.134
  102POPC   GL1 1588   1.061   0.249   7.766
  102POPC   GL2 1589   0.906   0.572   7.707
  102POPC   C1A 1590   1.180   0.339   7.323
  102POPC   D2A 1591   1.061   0.362   6.876
  102POPC   C3A 1592   1.339   0.332   6.510
  102POPC   C4A 1593   1.307   0.063   6.152
  102POPC   C1B 1594   0.793   0.856   7.370
  102POPC   C2B 1595   0.728   0.742   6.939
  102POPC   C3B 1596   0.942   0.798   6.590
  102POPC   C4B 1597   0.850   0.824   6.185
  103POPC   NC3 1598   1.794   2.055   8.242
  103POPC   PO4 1599   2.287   1.602   8.173
  103POPC   GL1 1600   2.315   1.901   7.776
  103POPC   GL2 1601   2.098   2.198   7.777
  103POPC   C1A 1602   2.237   2.038   7.319
  103POPC   D2A 1603   2.024   2.073   6.914
  103POPC   C3A 1604   2.309   2.090   6.586
  103POPC   C4A 1605   2.441   1.934   6.196
  103POPC   C1B 1606   1.679   2.254   7.557
  103POPC   C2B 1607   1.602   2.305   7.098
  103POPC   C3B 1608   1.584   2.177   6.645
  103POPC   C4B 1609   1.880   2.076   6.261
  104POPC   NC3 1610   7.763   8.052   8.360
  104POPC   PO4 1611   7.182   8.477   8.157
  104POPC   GL1 1612   7.356   8.119   7.855
  104POPC   GL2 1613   7.545   8.280   7.572
  104POPC   C1A 1614   7.348   7.836   7.451
  104POPC   D2A 1615   7.536   8.064   7.064
  104POPC   C3A 1616   7.367   7.902   6.630
  104POPC   C4A 1617   7.381   7.817   6.194
  104POPC   C1B 1618   7.150   8.294   7.354
  104POPC   C2B 1619   7.103   8.261   6.911
  104POPC   C3B 1620   7.461   8.389   6.616
  104POPC   C4B 1621   7.205   8.317   6.275
  105POPC   NC3 1622   3.050   7.259   8.174
  105POPC   PO4 1623   3.077   7.934   8.357
  105POPC   GL1 1624   2.842   7.649   7.919
  105POPC   GL2 1625   3.027   7.442   7.688
  105POPC   C1A 1626   2.578   7.545   7.463
  105POPC   D2A 1627   2.383   7.550   7.004
  105POPC   C3A 1628   2.667   7.644   6.659
  105POPC   C4A 1629   2.566   7.603   6.234
  105POPC   C1B 1630   2.794   7.094   7.523
  105POPC   C2B 1631   2.665   7.123   7.103
  105POPC   C3B 1632   2.700   7.159   6.651
  105POPC   C4B 1633   2.951   7.282   6.266
  106POPC   NC3 1634   3.141   5.423   8.066
  106POPC   PO4 1635   2.839   5.928   8.101
  106POPC   GL1 1636   2.667   5.976   7.700
  106POPC   GL2 1637   2.445   6.217   7.701
  106POPC   C1A 1638   2.480   5.736   7.345
  106POPC   D2A 1639   2.431   5.562   6.901
  106POPC   C3A 1640   2.695   5.550   6.544
  106POPC   C4A 1641   2.894   5.303   6.223
  106POPC   C1B 1642   2.584   6.235   7.253
  106POPC   C2B 1643   2.623   6.064   6.811
  106POPC   C3B 1644   2.514   5.990   6.368
  106POPC   C4B 1645   2.525   6.062   5.935
  107POPC   NC3 1646   0.554   4.494   8.132
  107POPC   PO4 1647   0.262   3.900   8.203
  107POPC   GL1 1648   0.548   4.065   7.842
  107POPC   GL2 1649   0.380   4.292   7.689
  107POPC   C1A 1650   0.703   4.025   7.361
  107POPC   D2A 1651   0.781   3.967   6.914
  107POPC   C3A 1652   0.505   4.041   6.551
  107POPC   C4A 1653   0.318   3.898   6.169
  107POPC   C1B 1654   0.455   4.466   7.331
  107POPC   C2B 1655   0.456   4.381   6.925
  107POPC   C3B 1656   0.334   4.566   6.542
  107POPC   C4B 1657   0.042   4.555   6.183
  108POPC   NC3 1658   7.158   7.313   8.165
  108POPC   PO4 1659   7.764   7.555   8.251
  108POPC   GL1 1660   7.667   7.615   7.809
  108POPC   GL2 1661   7.582   7.299   7.766
  108POPC   C1A 1662   7.804   7.631   7.356
  108POPC   D2A 1663   7.531   7.573   6.973
  108POPC   C3A 1664   7.687   7.498   6.529
  108POPC   C4A 1665   7.682   7.408   6.062
  108POPC   C1B 1666   7.510   7.225   7.348
  108POPC   C2B 1667   7.564   7.081   6.927
  108POPC   C3B 1668   7.418   7.033   6.522
  108POPC   C4B 1669   7.280   7.072   6.123
  109POPC   NC3 1670   6.590   9.635   8.377
  109POPC   PO4 1671   6.296   9.919   7.829
  109POPC   GL1 1672   6.632   9.888   7.634
  109POPC   GL2 1673   6.700   9.579   7.842
  109POPC   C1A 1674   6.581   9.926   7.181
  109POPC   D2A 1675   6.527   0.113   6.785
  109POPC   C3A 1676   6.408   9.857   6.433
  109POPC   C4A 1677   6.320   9.808   5.973
  109POPC   C1B 1678   6.705   9.478   7.372
  109POPC   C2B 1679   6.820   9.568   6.905
  109POPC   C3B 1680   6.770   9.512   6.434
  109POPC   C4B 1681   6.376   9.362   6.227
  110POPC   NC3 1682   3.876   2.991   8.036
  110POPC   PO4 1683   4.421   2.739   8.249
  110POPC   GL1 1684   4.259   2.647   7.828
  110POPC   GL2 1685   3.951   2.528   7.690
  110POPC   C1A 1686   4.387   2.406   7.439
  110POPC   D2A 1687   4.316   2.170   7.033
  110POPC   C3A 1688   4.322   2.415   6.611
  110POPC   C4A 1689   4.355   2.616   6.182
  110POPC   C1B 1690   3.909   2.521   7.220
  110POPC   C2B 1691   3.779   2.463   6.745
  110POPC   C3B 1692   3.877   2.464   6.291
  110POPC   C4B 1693   3.881   2.835   6.002
  111POPC   NC3 1694   1.554   9.638   8.162
  111POPC   PO4 1695   2.167   9.199   8.176
  111POPC   GL1 1696   1.899   9.440   7.806
  111POPC   GL2 1697   2.100   9.723   7.639
  111POPC   C1A 1698   1.724   9.583   7.347
  111POPC   D2A 1699   1.872   9.820   6.931
  111POPC   C3A 1700   1.654   9.906   6.506
  111POPC   C4A 1701   1.718   9.817   6.022
  111POPC   C1B 1702   2.318   9.763   7.224
  111POPC   C2B 1703   2.346   9.729   6.752
  111POPC   C3B 1704   2.086   9.676   6.366
  111POPC   C4B 1705   2.151   9.546   5.926
  112POPC   NC3 1706   9.490   8.186   8.286
  112POPC   PO4 1707   0.039   7.741   8.311
  112POPC   GL1 1708   9.936   8.013   7.908
  112POPC   GL2 1709   9.599   8.138   7.811
  112POPC   C1A 1710   9.947   8.261   7.480
  112POPC   D2A 1711   9.952   8.094   7.049
  112POPC   C3A 1712   9.971   8.343   6.655
  112POPC   C4A 1713   9.926   8.176   6.226
  112POPC   C1B 1714   9.303   8.117   7.479
  112POPC   C2B 1715   9.364   8.208   7.065
  112POPC   C3B 1716   9.527   8.107   6.672
  112POPC   C4B 1717   9.384   8.161   6.254
  113POPC   NC3 1718   0.022   9.679   8.006
  113POPC   PO4 1719   0.416   0.044   8.403
  113POPC   GL1 1720   0.460   9.927   7.869
  113POPC   GL2 1721   0.468   9.604   7.739
  113POPC   C1A 1722   0.757   9.940   7.474
  113POPC   D2A 1723   0.909   9.679   7.112
  113POPC   C3A 1724   0.654   9.647   6.716
  113POPC   C4A 1725   0.450   9.559   6.310
  113POPC   C1B 1726   0.177   9.577   7.384
  113POPC   C2B 1727   0.198   9.731   6.953
  113POPC   C3B 1728   0.045   9.469   6.625
  113POPC   C4B 1729   0.082   9.194   6.239
  114POPC   NC3 1730   3.670   8.978   8.220
  114POPC   PO4 1731   3.128   8.583   8.148
  114POPC   GL1 1732   3.354   8.733   7.782
  114POPC   GL2 1733   3.449   9.064   7.769
  114POPC   C1A 1734   3.413   8.581   7.334
  114POPC   D2A 1735   3.622   8.462   6.923
  114POPC   C3A 1736   3.559   8.680   6.503
  114POPC   C4A 1737   3.400   8.836   6.087
  114POPC   C1B 1738   3.263   9.082   7.366
  114POPC   C2B 1739   3.371   8.930   6.941
  114POPC   C3B 1740   3.354   9.157   6.528
  114POPC   C4B 1741   3.666   9.254   6.226
  115POPC   NC3 1742   3.397   2.700   8.336
  115POPC   PO4 1743   3.492   3.280   8.060
  115POPC   GL1 1744   3.217   2.929   7.883
  115POPC   GL2 1745   3.464   2.684   7.794
  115POPC   C1A 1746   3.073   2.700   7.463
  115POPC   D2A 1747   2.874   2.591   7.049
  115POPC   C3A 1748   3.033   2.640   6.621
  115POPC   C4A 1749   3.054   2.546   6.181
  115POPC   C1B 1750   3.540   2.866   7.354
  115POPC   C2B 1751   3.429   2.865   6.863
  115POPC   C3B 1752   3.470   2.793   6.374
  115POPC   C4B 1753   3.405   3.013   5.939
  116POPC   NC3 1754   3.201   3.632   8.027
  116POPC   PO4 1755   2.705   4.093   8.105
  116POPC   GL1 1756   2.751   3.681   7.815
  116POPC   GL2 1757   2.787   3.300   7.878
  116POPC   C1A 1758   2.941   3.394   7.421
  116POPC   D2A 1759   2.964   3.156   7.022
  116POPC   C3A 1760   2.913   3.474   6.646
  116POPC   C4A 1761   2.953   3.602   6.190
  116POPC   C1B 1762   2.445   3.427   7.521
  116POPC   C2B 1763   2.510   3.447   7.055
  116POPC   C3B 1764   2.368   3.470   6.602
  116POPC   C4B 1765   2.516   3.307   6.191
  117POPC   NC3 1766   5.703   1.978   8.172
  117POPC   PO4 1767   6.286   1.519   8.157
  117POPC   GL1 1768   5.903   1.587   7.879
  117POPC   GL2 1769   6.003   1.923   7.762
  117POPC   C1A 1770   5.710   1.646   7.430
  117POPC   D2A 1771   5.836   1.769   6.996
  117POPC   C3A 1772   5.747   1.650   6.589
  117POPC   C4A 1773   5.872   1.727   6.159
  117POPC   C1B 1774   5.929   2.112   7.356
  117POPC   C2B 1775   5.858   2.259   6.913
  117POPC   C3B 1776   5.909   2.142   6.482
  117POPC   C4B 1777   5.573   2.132   6.202
  118POPC   NC3 1778   2.703   2.813   8.309
  118POPC   PO4 1779   2.159   2.387   8.233
  118POPC   GL1 1780   2.560   2.425   7.935
  118POPC   GL2 1781   2.723   2.738   7.821
  118POPC   C1A 1782   2.565   2.422   7.450
  118POPC   D2A 1783   2.366   2.436   7.007
  118POPC   C3A 1784   2.520   2.564   6.600
  118POPC   C4A 1785   2.610   2.781   6.180
  118POPC   C1B 1786   2.622   2.948   7.428
  118POPC   C2B 1787   2.491   2.931   6.996
  118POPC   C3B 1788   2.691   3.036   6.607
  118POPC   C4B 1789   3.012   3.079   6.268
  119POPC   NC3 1790   2.741   1.090   8.068
  119POPC   PO4 1791   3.111   1.660   8.143
  119POPC   GL1 1792   2.905   1.469   7.756
  119POPC   GL2 1793   2.516   1.399   7.725
  119POPC   C1A 1794   2.962   1.381   7.300
  119POPC   D2A 1795   2.978   1.529   6.877
  119POPC   C3A 1796   2.922   1.231   6.534
  119POPC   C4A 1797   2.827   0.815   6.338
  119POPC   C1B 1798   2.577   1.070   7.395
  119POPC   C2B 1799   2.585   1.133   6.914
  119POPC   C3B 1800   2.421   1.119   6.453
  119POPC   C4B 1801   2.394   1.355   6.057
  120POPC   NC3 1802   1.533   5.671   8.244
  120POPC   PO4 1803   1.225   6.192   8.278
  120POPC   GL1 1804   1.267   6.324   7.877
  120POPC   GL2 1805   1.445   6.032   7.775
  120POPC   C1A 1806   1.138   6.292   7.419
  120POPC   D2A 1807   1.236   6.112   6.993
  120POPC   C3A 1808   1.202   6.260   6.556
  120POPC   C4A 1809   1.343   6.138   6.122
  120POPC   C1B 1810   1.239   5.791   7.424
  120POPC   C2B 1811   1.218   5.603   6.989
  120POPC   C3B 1812   1.301   5.748   6.593
  120POPC   C4B 1813   0.985   5.798   6.297
  121POPC   NC3 1814   4.546   7.311   8.282
  121POPC   PO4 1815   5.165   7.484   8.181
  121POPC   GL1 1816   4.958   7.753   7.853
  121POPC   GL2 1817   4.615   7.682   7.887
  121POPC   C1A 1818   4.755   7.833   7.412
  121POPC   D2A 1819   4.627   7.654   6.971
  121POPC   C3A 1820   4.679   7.582   6.501
  121POPC   C4A 1821   4.661   7.462   6.038
  121POPC   C1B 1822   4.291   7.648   7.517
  121POPC   C2B 1823   4.175   7.830   7.097
  121POPC   C3B 1824   4.110   7.576   6.708
  121POPC   C4B 1825   3.866   7.198   6.527
  122POPC   NC3 1826   1.682   6.311   8.227
  122POPC   PO4 1827   2.208   5.966   8.104
  122POPC   GL1 1828   1.942   6.192   7.789
  122POPC   GL2 1829   1.912   6.575   7.798
  122POPC   C1A 1830   2.091   6.330   7.379
  122POPC   D2A 1831   2.122   6.530   6.950
  122POPC   C3A 1832   2.108   6.366   6.500
  122POPC   C4A 1833   2.297   6.492   6.097
  122POPC   C1B 1834   1.906   6.792   7.357
  122POPC   C2B 1835   1.737   6.875   6.921
  122POPC   C3B 1836   1.922   6.893   6.480
  122POPC   C4B 1837   1.894   6.819   5.992
  123POPC   NC3 1838   4.405   8.300   8.235
  123POPC   PO4 1839   4.230   7.635   8.232
  123POPC   GL1 1840   4.208   7.981   7.892
  123POPC   GL2 1841   4.079   8.306   7.858
  123POPC   C1A 1842   4.363   8.161   7.466
  123POPC   D2A 1843   4.583   8.169   7.028
  123POPC   C3A 1844   4.397   8.000   6.629
  123POPC   C4A 1845   4.471   7.927   6.179
  123POPC   C1B 1846   3.916   8.442   7.436
  123POPC   C2B 1847   4.108   8.349   7.062
  123POPC   C3B 1848   4.277   8.480   6.688
  123POPC   C4B 1849   3.989   8.416   6.415
  124POPC   NC3 1850   0.603   0.340   8.085
  124POPC   PO4 1851   9.973   0.130   8.058
  124POPC   GL1 1852   0.178   0.336   7.714
  124POPC   GL2 1853   0.393   0.666   7.707
  124POPC   C1A 1854   0.284   0.070   7.371
  124POPC   D2A 1855   0.583   0.110   7.004
  124POPC   C3A 1856   0.373   0.082   6.612
  124POPC   C4A 1857   0.030   9.918   6.353
  124POPC   C1B 1858   0.427   0.534   7.283
  124POPC   C2B 1859   0.248   0.619   6.871
  124POPC   C3B 1860   0.464   0.573   6.474
  124POPC   C4B 1861   0.839   0.325   6.388
  125POPC   NC3 1862   5.946   1.189   8.220
  125POPC   PO4 1863   5.415   0.708   8.207
  125POPC   GL1 1864   5.541   1.026   7.873
  125POPC   GL2 1865   5.894   1.076   7.731
  125POPC   C1A 1866   5.533   1.162   7.404
  125POPC   D2A 1867   5.629   1.300   6.978
  125POPC   C3A 1868   5.556   1.004   6.642
  125POPC   C4A 1869   5.514   0.783   6.242
  125POPC   C1B 1870   6.048   1.277   7.316
  125POPC   C2B 1871   6.160   1.405   6.887
  125POPC   C3B 1872   6.173   1.421   6.455
  125POPC   C4B 1873   5.802   1.240   6.271
  126POPC   NC3 1874   4.306   0.796   8.264
  126POPC   PO4 1875   3.837   0.261   8.448
  126POPC   GL1 1876   4.052   0.248   8.022
  126POPC   GL2 1877   4.385   0.397   7.930
  126POPC   C1A 1878   4.085   0.199   7.557
  126POPC   D2A 1879   3.799   0.279   7.197
  126POPC   C3A 1880   4.018   0.374   6.809
  126POPC   C4A 1881   4.127   0.316   6.372
  126POPC   C1B 1882   4.468   0.539   7.481
  126POPC   C2B 1883   4.438   0.576   7.039
  126POPC   C3B 1884   4.540   0.293   6.695
  126POPC   C4B 1885   4.639   0.410   6.280
  127POPC   NC3 1886   9.785   4.947   8.082
  127POPC   PO4 1887   0.415   4.875   8.364
  127POPC   GL1 1888   0.221   5.131   7.922
  127POPC   GL2 1889   9.953   5.363   7.844
  127POPC   C1A 1890   0.094   5.000   7.460
  127POPC   D2A 1891   0.172   4.797   7.059
  127POPC   C3A 1892   9.908   4.852   6.698
  127POPC   C4A 1893   9.665   5.017   6.361
  127POPC   C1B 1894   9.646   5.227   7.495
  127POPC   C2B 1895   9.629   5.151   7.053
  127POPC   C3B 1896   9.310   5.101   6.745
  127POPC   C4B 1897   9.207   5.262   6.338
  128POPC   NC3 1898   9.697   9.948   8.383
  128POPC   PO4 1899   9.358   9.358   8.221
  128POPC   GL1 1900   9.572   9.472   7.881
  128POPC   GL2 1901   9.812   9.186   7.923
  128POPC   C1A 1902   9.671   9.695   7.476
  128POPC   D2A 1903   9.736   9.574   7.066
  128POPC   C3A 1904   9.681   9.869   6.727
  128POPC   C4A 1905   9.355   9.848   6.414
  128POPC   C1B 1906   9.582   9.072   7.533
  128POPC   C2B 1907   9.500   9.112   7.059
  128POPC   C3B 1908   9.497   9.376   6.662
  128POPC   C4B 1909   9.697   9.531   6.262
  129POPC   NC3 1910   2.636   7.997   8.190
  129POPC   PO4 1911   2.354   8.550   8.436
  129POPC   GL1 1912   2.681   8.470   7.910
  129POPC   GL2 1913   2.979   8.201   7.863
  129POPC   C1A 1914   2.620   8.342   7.390
  129POPC   D2A 1915   2.313   8.367   6.991
  129POPC   C3A 1916   2.363   8.439   6.527
  129POPC   C4A 1917   2.720   8.522   6.241
  129POPC   C1B 1918   2.897   7.935   7.513
  129POPC   C2B 1919   2.756   7.908   7.101
  129POPC   C3B 1920   2.727   8.149   6.737
  129POPC   C4B 1921   2.889   8.016   6.338
  130POPC   NC3 1922   9.023   9.695   7.967
  130POPC   PO4 1923   8.517   9.287   8.277
  130POPC   GL1 1924   8.745   9.266   7.880
  130POPC   GL2 1925   9.113   9.224   7.800
  130POPC   C1A 1926   8.751   9.287   7.419
  130POPC   D2A 1927   8.978   9.229   7.014
  130POPC   C3A 1928   8.725   9.255   6.620
  130POPC   C4A 1929   8.454   9.573   6.437
  130POPC   C1B 1930   9.249   9.432   7.395
  130POPC   C2B 1931   9.223   9.698   6.998
  130POPC   C3B 1932   8.915   9.748   6.637
  130POPC   C4B 1933   8.934   9.539   6.216
  131POPC   NC3 1934   8.794   2.797   8.153
  131POPC   PO4 1935   9.268   2.264   7.927
  131POPC   GL1 1936   9.103   2.499   7.586
  131POPC   GL2 1937   8.911   2.803   7.661
  131POPC   C1A 1938   8.805   2.536   7.252
  131POPC   D2A 1939   8.960   2.793   6.931
  131POPC   C3A 1940   9.074   2.629   6.540
  131POPC   C4A 1941   9.407   2.411   6.343
  131POPC   C1B 1942   8.635   3.016   7.363
  131POPC   C2B 1943   8.490   2.966   6.946
  131POPC   C3B 1944   8.584   2.821   6.551
  131POPC   C4B 1945   8.518   2.529   6.234
  132POPC   NC3 1946   2.735   8.761   8.309
  132POPC   PO4 1947   3.230   9.165   8.240
  132POPC   GL1 1948   2.932   9.016   7.878
  132POPC   GL2 1949   2.558   9.001   7.902
  132POPC   C1A 1950   2.935   8.724   7.486
  132POPC   D2A 1951   2.934   8.592   7.016
  132POPC   C3A 1952   3.016   8.784   6.587
  132POPC   C4A 1953   2.929   9.041   6.208
  132POPC   C1B 1954   2.439   8.773   7.572
  132POPC   C2B 1955   2.501   8.809   7.159
  132POPC   C3B 1956   2.532   8.874   6.718
  132POPC   C4B 1957   2.410   8.919   6.273
  133POPC   NC3 1958   2.862   0.406   8.155
  133POPC   PO4 1959   2.326   0.824   8.101
  133POPC   GL1 1960   2.461   0.574   7.822
  133POPC   GL2 1961   2.797   0.662   7.694
  133POPC   C1A 1962   2.371   0.576   7.418
  133POPC   D2A 1963   2.650   0.663   7.096
  133POPC   C3A 1964   2.492   0.660   6.708
  133POPC   C4A 1965   2.314   0.604   6.320
  133POPC   C1B 1966   2.805   0.279   7.382
  133POPC   C2B 1967   2.689   0.196   6.898
  133POPC   C3B 1968   2.738   0.318   6.411
  133POPC   C4B 1969   2.934   0.144   5.987
  134POPC   NC3 1970   5.881   3.116   8.282
  134POPC   PO4 1971   5.831   2.446   8.130
  134POPC   GL1 1972   5.790   2.740   7.771
  134POPC   GL2 1973   6.073   2.549   7.555
  134POPC   C1A 1974   5.950   3.020   7.426
  134POPC   D2A 1975   6.219   2.830   7.117
  134POPC   C3A 1976   6.203   3.007   6.685
  134POPC   C4A 1977   5.931   3.035   6.311
  134POPC   C1B 1978   5.733   2.584   7.285
  134POPC   C2B 1979   5.757   2.786   6.901
  134POPC   C3B 1980   5.722   2.609   6.522
  134POPC   C4B 1981   5.601   2.635   6.098
  135POPC   NC3 1982   8.636   5.399   8.092
  135POPC   PO4 1983   7.961   5.289   8.085
  135POPC   GL1 1984   8.294   5.202   7.779
  135POPC   GL2 1985   8.374   4.847   7.704
  135POPC   C1A 1986   8.260   5.169   7.336
  135POPC   D2A 1987   8.302   5.307   6.929
  135POPC   C3A 1988   8.304   4.988   6.581
  135POPC   C4A 1989   8.079   5.048   6.176
  135POPC   C1B 1990   8.154   4.650   7.358
  135POPC   C2B 1991   8.123   4.571   6.896
  135POPC   C3B 1992   7.982   4.605   6.445
  135POPC   C4B 1993   7.807   4.640   5.991
  136POPC   NC3 1994   6.844   8.184   7.987
  136POPC   PO4 1995   6.761   7.580   8.082
  136POPC   GL1 1996   6.884   7.764   7.692
  136POPC   GL2 1997   6.540   7.879   7.643
  136POPC   C1A 1998   6.842   7.890   7.242
  136POPC   D2A 1999   6.934   7.755   6.834
  136POPC   C3A 2000   6.850   7.991   6.469
  136POPC   C4A 2001   6.455   8.046   6.217
  136POPC   C1B 2002   6.248   7.954   7.270
  136POPC   C2B 2003   6.035   8.226   6.922
  136POPC   C3B 2004   6.185   8.373   6.511
  136POPC   C4B 2005   6.624   8.464   6.490
  137POPC   NC3 2006   8.861   0.430   8.117
  137POPC   PO4 2007   9.400   9.972   8.026
  137POPC   GL1 2008   9.140   0.230   7.707
  137POPC   GL2 2009   8.771   0.332   7.629
  137POPC   C1A 2010   9.243   0.301   7.256
  137POPC   D2A 2011   9.060   0.468   6.850
  137POPC   C3A 2012   9.055   0.260   6.446
  137POPC   C4A 2013   9.203   0.118   6.020
  137POPC   C1B 2014   8.753   0.207   7.192
  137POPC   C2B 2015   8.547   0.454   6.886
  137POPC   C3B 2016   8.626   0.563   6.471
  137POPC   C4B 2017   8.749   0.462   6.037
  138POPC   NC3 2018   5.578   7.328   8.094
  138POPC   PO4 2019   6.108   7.233   8.398
  138POPC   GL1 2020   5.980   7.401   7.832
  138POPC   GL2 2021   6.048   7.740   7.732
  138POPC   C1A 2022   6.109   7.432   7.350
  138POPC   D2A 2023   5.976   7.657   6.959
  138POPC   C3A 2024   6.121   7.451   6.557
  138POPC   C4A 2025   6.356   7.360   6.164
  138POPC   C1B 2026   5.650   7.617   7.462
  138POPC   C2B 2027   5.466   7.544   7.019
  138POPC   C3B 2028   5.318   7.662   6.551
  138POPC   C4B 2029   5.396   7.532   6.095
  139POPC   NC3 2030   0.450   3.550   8.473
  139POPC   PO4 2031   1.016   3.647   8.118
  139POPC   GL1 2032   0.848   3.381   7.798
  139POPC   GL2 2033   0.621   3.613   7.652
  139POPC   C1A 2034   0.717   3.199   7.419
  139POPC   D2A 2035   0.562   3.521   7.129
  139POPC   C3A 2036   0.741   3.485   6.730
  139POPC   C4A 2037   0.663   3.554   6.310
  139POPC   C1B 2038   0.249   3.827   7.426
  139POPC   C2B 2039   0.220   3.916   6.983
  139POPC   C3B 2040   0.242   3.625   6.636
  139POPC   C4B 2041   0.205   3.376   6.263
  140POPC   NC3 2042   8.730   8.304   8.336
  140POPC   PO4 2043   9.201   7.787   8.280
  140POPC   GL1 2044   9.050   7.904   7.876
  140POPC   GL2 2045   9.098   8.254   7.947
  140POPC   C1A 2046   8.803   7.914   7.449
  140POPC   D2A 2047   8.910   7.878   6.994
  140POPC   C3A 2048   8.696   7.912   6.602
  140POPC   C4A 2049   8.838   7.999   6.208
  140POPC   C1B 2050   8.863   8.404   7.599
  140POPC   C2B 2051   8.868   8.356   7.149
  140POPC   C3B 2052   9.018   8.309   6.698
  140POPC   C4B 2053   8.966   8.487   6.290
  141POPC   NC3 2054   6.917   3.392   8.069
  141POPC   PO4 2055   6.266   3.139   8.046
  141POPC   GL1 2056   6.435   3.070   7.584
  141POPC   GL2 2057   6.689   3.329   7.598
  141POPC   C1A 2058   6.524   3.233   7.097
  141POPC   D2A 2059   6.720   3.200   6.649
  141POPC   C3A 2060   6.450   3.231   6.288
  141POPC   C4A 2061   6.141   3.263   5.921
  141POPC   C1B 2062   6.748   3.665   7.284
  141POPC   C2B 2063   6.829   3.653   6.833
  141POPC   C3B 2064   6.665   3.705   6.400
  141POPC   C4B 2065   6.231   3.664   6.208
  142POPC   NC3 2066   1.464   3.748   8.279
  142POPC   PO4 2067   1.538   3.071   8.196
  142POPC   GL1 2068   1.369   3.309   7.831
  142POPC   GL2 2069   1.358   3.654   7.729
  142POPC   C1A 2070   1.225   3.173   7.432
  142POPC   D2A 2071   1.026   3.159   7.012
  142POPC   C3A 2072   1.213   3.241   6.620
  142POPC   C4A 2073   1.004   3.192   6.247
  142POPC   C1B 2074   1.064   3.639   7.348
  142POPC   C2B 2075   1.211   3.660   6.917
  142POPC   C3B 2076   1.105   3.759   6.481
  142POPC   C4B 2077   0.855   4.006   6.179
  143POPC   NC3 2078   8.696   1.292   8.222
  143POPC   PO4 2079   8.460   0.692   8.074
  143POPC   GL1 2080   8.698   0.925   7.765
  143POPC   GL2 2081   9.036   0.773   7.735
  143POPC   C1A 2082   8.644   1.141   7.357
  143POPC   D2A 2083   8.581   1.384   6.969
  143POPC   C3A 2084   8.503   1.218   6.545
  143POPC   C4A 2085   8.734   1.319   6.148
  143POPC   C1B 2086   8.916   0.713   7.289
  143POPC   C2B 2087   8.814   0.915   6.877
  143POPC   C3B 2088   8.951   0.953   6.439
  143POPC   C4B 2089   9.314   1.111   6.219
  144POPC   NC3 2090   1.923   3.821   3.730
  144POPC   PO4 2091   1.939   3.064   3.894
  144POPC   GL1 2092   2.029   3.380   4.144
  144POPC   GL2 2093   1.702   3.535   4.118
  144POPC   C1A 2094   2.294   3.355   4.536
  144POPC   D2A 2095   2.443   3.175   4.941
  144POPC   C3A 2096   2.245   3.219   5.344
  144POPC   C4A 2097   2.188   3.377   5.798
  144POPC   C1B 2098   1.820   3.545   4.573
  144POPC   C2B 2099   1.866   3.406   5.020
  144POPC   C3B 2100   1.839   3.504   5.470
  144POPC   C4B 2101   1.777   3.738   5.901
  145POPC   NC3 2102   2.538   2.069   4.042
  145POPC   PO4 2103   2.541   1.499   3.720
  145POPC   GL1 2104   2.437   1.555   4.167
  145POPC   GL2 2105   2.751   1.727   4.339
  145POPC   C1A 2106   2.352   1.697   4.611
  145POPC   D2A 2107   2.696   1.547   4.884
  145POPC   C3A 2108   2.724   1.559   5.344
  145POPC   C4A 2109   2.526   1.717   5.727
  145POPC   C1B 2110   2.950   1.964   4.690
  145POPC   C2B 2111   3.075   2.098   5.121
  145POPC   C3B 2112   2.952   1.992   5.546
  145POPC   C4B 2113   3.036   1.614   5.769
  146POPC   NC3 2114   7.386   7.115   3.794
  146POPC   PO4 2115   7.696   6.667   4.000
  146POPC   GL1 2116   7.444   6.743   4.348
  146POPC   GL2 2117   7.150   6.963   4.278
  146POPC   C1A 2118   7.477   6.673   4.809
  146POPC   D2A 2119   7.617   6.920   5.171
  146POPC   C3A 2120   7.585   6.636   5.502
  146POPC   C4A 2121   7.404   6.592   5.938
  146POPC   C1B 2122   7.042   6.951   4.747
  146POPC   C2B 2123   7.121   6.798   5.205
  146POPC   C3B 2124   7.088   6.476   5.553
  146POPC   C4B 2125   7.060   6.144   5.891
  147POPC   NC3 2126   5.643   9.267   4.076
  147POPC   PO4 2127   5.385   8.671   3.902
  147POPC   GL1 2128   5.663   8.802   4.302
  147POPC   GL2 2129   5.989   8.908   4.392
  147POPC   C1A 2130   5.701   9.021   4.762
  147POPC   D2A 2131   5.915   9.015   5.157
  147POPC   C3A 2132   5.706   8.813   5.491
  147POPC   C4A 2133   5.530   8.944   5.897
  147POPC   C1B 2134   6.144   8.657   4.713
  147POPC   C2B 2135   6.331   8.722   5.097
  147POPC   C3B 2136   6.261   8.765   5.522
  147POPC   C4B 2137   6.028   8.886   5.892
  148POPC   NC3 2138   1.016   5.125   3.786
  148POPC   PO4 2139   1.575   5.382   3.991
  148POPC   GL1 2140   1.149   5.267   4.276
  148POPC   GL2 2141   1.210   4.970   4.439
  148POPC   C1A 2142   0.900   5.216   4.754
  148POPC   D2A 2143   0.956   5.005   5.166
  148POPC   C3A 2144   1.024   5.166   5.614
  148POPC   C4A 2145   0.871   5.384   6.016
  148POPC   C1B 2146   1.368   5.070   4.870
  148POPC   C2B 2147   1.453   5.123   5.312
  148POPC   C3B 2148   1.556   5.187   5.757
  148POPC   C4B 2149   1.867   5.309   6.068
  149POPC   NC3 2150   6.533   8.146   3.900
  149POPC   PO4 2151   6.131   8.619   4.028
  149POPC   GL1 2152   6.382   8.345   4.367
  149POPC   GL2 2153   6.476   7.960   4.385
  149POPC   C1A 2154   6.530   8.243   4.815
  149POPC   D2A 2155   6.329   8.229   5.226
  149POPC   C3A 2156   6.454   8.226   5.641
  149POPC   C4A 2157   6.347   8.493   5.984
  149POPC   C1B 2158   6.848   7.883   4.717
  149POPC   C2B 2159   6.839   7.999   5.148
  149POPC   C3B 2160   6.844   7.871   5.576
  149POPC   C4B 2161   6.860   8.134   5.945
  150POPC   NC3 2162   9.049   2.490   3.976
  150POPC   PO4 2163   8.877   3.148   3.930
  150POPC   GL1 2164   8.976   3.146   4.353
  150POPC   GL2 2165   9.011   2.800   4.414
  150POPC   C1A 2166   8.767   3.279   4.703
  150POPC   D2A 2167   8.521   3.187   5.065
  150POPC   C3A 2168   8.830   3.109   5.402
  150POPC   C4A 2169   9.099   2.919   5.710
  150POPC   C1B 2170   9.049   2.849   4.884
  150POPC   C2B 2171   8.925   2.598   5.252
  150POPC   C3B 2172   9.027   2.384   5.639
  150POPC   C4B 2173   8.996   2.500   6.058
  151POPC   NC3 2174   8.079   2.273   3.868
  151POPC   PO4 2175   8.712   2.181   4.123
  151POPC   GL1 2176   8.519   1.883   4.401
  151POPC   GL2 2177   8.177   1.929   4.272
  151POPC   C1A 2178   8.581   1.754   4.824
  151POPC   D2A 2179   8.604   1.799   5.266
  151POPC   C3A 2180   8.210   1.908   5.495
  151POPC   C4A 2181   8.138   1.844   5.925
  151POPC   C1B 2182   8.140   2.154   4.647
  151POPC   C2B 2183   8.004   2.163   5.064
  151POPC   C3B 2184   8.077   2.418   5.409
  151POPC   C4B 2185   8.204   2.349   5.820
  152POPC   NC3 2186   8.723   4.178   3.996
  152POPC   PO4 2187   8.963   4.785   3.874
  152POPC   GL1 2188   8.949   4.563   4.298
  152POPC   GL2 2189   9.046   4.225   4.396
  152POPC   C1A 2190   9.168   4.605   4.725
  152POPC   D2A 2191   9.344   4.547   5.157
  152POPC   C3A 2192   8.984   4.516   5.473
  152POPC   C4A 2193   8.768   4.403   5.873
  152POPC   C1B 2194   8.872   4.140   4.841
  152POPC   C2B 2195   8.827   4.044   5.314
  152POPC   C3B 2196   9.042   3.953   5.755
  152POPC   C4B 2197   9.291   3.849   6.171
  153POPC   NC3 2198   7.348   7.825   4.183
  153POPC   PO4 2199   7.707   7.405   3.643
  153POPC   GL1 2200   7.593   7.246   4.222
  153POPC   GL2 2201   7.647   7.592   4.535
  153POPC   C1A 2202   7.503   7.152   4.659
  153POPC   D2A 2203   7.558   7.416   5.026
  153POPC   C3A 2204   7.253   7.282   5.333
  153POPC   C4A 2205   7.501   7.096   5.675
  153POPC   C1B 2206   7.398   7.893   4.817
  153POPC   C2B 2207   7.319   7.824   5.243
  153POPC   C3B 2208   7.535   7.616   5.573
  153POPC   C4B 2209   7.207   7.486   5.839
  154POPC   NC3 2210   1.254   3.526   3.848
  154POPC   PO4 2211   0.662   3.693   3.746
  154POPC   GL1 2212   0.919   3.726   4.194
  154POPC   GL2 2213   1.217   3.507   4.341
  154POPC   C1A 2214   0.869   3.661   4.662
  154POPC   D2A 2215   0.970   3.448   5.061
  154POPC   C3A 2216   0.901   3.659   5.439
  154POPC   C4A 2217   0.934   3.594   5.890
  154POPC   C1B 2218   1.366   3.530   4.772
  154POPC   C2B 2219   1.440   3.650   5.206
  154POPC   C3B 2220   1.371   3.590   5.649
  154POPC   C4B 2221   1.386   3.508   6.131
  155POPC   NC3 2222   0.252   4.879   4.162
  155POPC   PO4 2223   0.868   4.668   3.830
  155POPC   GL1 2224   0.781   4.699   4.265
  155POPC   GL2 2225   0.685   5.036   4.364
  155POPC   C1A 2226   0.770   4.720   4.727
  155POPC   D2A 2227   0.466   4.961   5.016
  155POPC   C3A 2228   0.540   4.960   5.462
  155POPC   C4A 2229   0.301   4.706   5.755
  155POPC   C1B 2230   0.360   5.283   4.640
  155POPC   C2B 2231   0.094   5.413   5.028
  155POPC   C3B 2232   0.210   5.512   5.460
  155POPC   C4B 2233   0.387   5.301   5.822
  156POPC   NC3 2234   9.073   8.149   3.766
  156POPC   PO4 2235   8.622   7.763   3.829
  156POPC   GL1 2236   8.740   7.918   4.244
  156POPC   GL2 2237   9.081   7.876   4.260
  156POPC   C1A 2238   8.513   8.037   4.658
  156POPC   D2A 2239   8.397   8.248   5.077
  156POPC   C3A 2240   8.708   8.307   5.449
  156POPC   C4A 2241   8.599   8.318   5.893
  156POPC   C1B 2242   9.071   8.175   4.607
  156POPC   C2B 2243   9.324   8.319   4.984
  156POPC   C3B 2244   9.256   8.385   5.432
  156POPC   C4B 2245   9.098   8.229   5.827
  157POPC   NC3 2246   7.586   2.704   3.858
  157POPC   PO4 2247   7.048   2.289   3.855
  157POPC   GL1 2248   7.243   2.440   4.250
  157POPC   GL2 2249   7.236   2.778   4.271
  157POPC   C1A 2250   7.188   2.498   4.722
  157POPC   D2A 2251   7.072   2.373   5.143
  157POPC   C3A 2252   7.204   2.554   5.541
  157POPC   C4A 2253   7.261   2.916   5.759
  157POPC   C1B 2254   7.625   2.670   4.514
  157POPC   C2B 2255   7.663   2.571   4.957
  157POPC   C3B 2256   7.590   2.319   5.335
  157POPC   C4B 2257   7.690   2.451   5.759
  158POPC   NC3 2258   5.086   0.584   3.978
  158POPC   PO4 2259   5.086   9.969   3.925
  158POPC   GL1 2260   5.281   0.179   4.314
  158POPC   GL2 2261   5.384   0.549   4.414
  158POPC   C1A 2262   5.185   0.270   4.782
  158POPC   D2A 2263   5.335   0.509   5.166
  158POPC   C3A 2264   5.327   0.270   5.565
  158POPC   C4A 2265   5.556   0.306   5.990
  158POPC   C1B 2266   4.996   0.725   4.624
  158POPC   C2B 2267   4.857   0.721   5.051
  158POPC   C3B 2268   4.901   0.565   5.467
  158POPC   C4B 2269   4.635   0.596   5.809
  159POPC   NC3 2270   1.369   6.756   4.002
  159POPC   PO4 2271   0.893   6.225   3.884
  159POPC   GL1 2272   1.021   6.437   4.229
  159POPC   GL2 2273   1.353   6.384   4.394
  159POPC   C1A 2274   0.877   6.667   4.584
  159POPC   D2A 2275   0.973   6.870   4.993
  159POPC   C3A 2276   1.157   6.635   5.359
  159POPC   C4A 2277   0.968   6.774   5.751
  159POPC   C1B 2278   1.378   6.753   4.675
  159POPC   C2B 2279   1.478   6.957   5.078
  159POPC   C3B 2280   1.655   6.868   5.506
  159POPC   C4B 2281   1.471   6.533   5.790
  160POPC   NC3 2282   0.601   5.814   3.741
  160POPC   PO4 2283   0.547   5.157   3.908
  160POPC   GL1 2284   0.590   5.501   4.174
  160POPC   GL2 2285   0.289   5.631   4.240
  160POPC   C1A 2286   0.705   5.653   4.600
  160POPC   D2A 2287   0.598   5.506   5.062
  160POPC   C3A 2288   0.749   5.594   5.505
  160POPC   C4A 2289   0.665   5.873   5.890
  160POPC   C1B 2290   0.208   5.770   4.668
  160POPC   C2B 2291   0.359   5.986   5.017
  160POPC   C3B 2292   0.438   6.004   5.440
  160POPC   C4B 2293   0.162   5.940   5.787
  161POPC   NC3 2294   0.554   7.505   3.897
  161POPC   PO4 2295   0.028   7.047   3.833
  161POPC   GL1 2296   0.205   7.266   4.179
  161POPC   GL2 2297   0.515   7.069   4.220
  161POPC   C1A 2298   0.285   7.483   4.576
  161POPC   D2A 2299   0.133   7.660   4.992
  161POPC   C3A 2300   0.308   7.497   5.400
  161POPC   C4A 2301   0.518   7.610   5.827
  161POPC   C1B 2302   0.692   7.170   4.645
  161POPC   C2B 2303   0.668   7.479   4.999
  161POPC   C3B 2304   0.803   7.430   5.455
  161POPC   C4B 2305   0.557   7.099   5.713
  162POPC   NC3 2306   4.027   3.642   3.808
  162POPC   PO4 2307   4.375   4.064   3.855
  162POPC   GL1 2308   4.381   3.646   4.172
  162POPC   GL2 2309   4.470   3.279   4.114
  162POPC   C1A 2310   4.103   3.413   4.508
  162POPC   D2A 2311   3.910   3.343   4.937
  162POPC   C3A 2312   3.548   3.555   5.156
  162POPC   C4A 2313   3.393   3.625   5.615
  162POPC   C1B 2314   4.542   3.165   4.578
  162POPC   C2B 2315   4.373   3.095   5.016
  162POPC   C3B 2316   4.067   3.115   5.375
  162POPC   C4B 2317   3.607   3.152   5.474
  163POPC   NC3 2318   8.148   7.079   3.858
  163POPC   PO4 2319   7.766   7.662   4.072
  163POPC   GL1 2320   8.100   7.388   4.263
  163POPC   GL2 2321   8.418   7.537   4.292
  163POPC   C1A 2322   8.358   7.134   4.620
  163POPC   D2A 2323   8.436   6.946   5.050
  163POPC   C3A 2324   8.103   6.893   5.366
  163POPC   C4A 2325   8.004   7.082   5.762
  163POPC   C1B 2326   8.185   7.617   4.692
  163POPC   C2B 2327   8.089   7.333   5.029
  163POPC   C3B 2328   8.295   7.373   5.421
  163POPC   C4B 2329   8.032   7.595   5.680
  164POPC   NC3 2330   8.163   7.749   3.878
  164POPC   PO4 2331   7.570   8.184   3.919
  164POPC   GL1 2332   7.737   8.097   4.351
  164POPC   GL2 2333   8.097   8.010   4.318
  164POPC   C1A 2334   7.916   8.040   4.792
  164POPC   D2A 2335   8.001   7.835   5.199
  164POPC   C3A 2336   8.287   8.016   5.537
  164POPC   C4A 2337   8.440   7.829   5.928
  164POPC   C1B 2338   8.046   8.463   4.525
  164POPC   C2B 2339   7.988   8.570   4.970
  164POPC   C3B 2340   8.052   8.484   5.426
  164POPC   C4B 2341   8.086   8.379   5.888
  165POPC   NC3 2342   6.431   0.498   3.918
  165POPC   PO4 2343   6.144   1.062   4.096
  165POPC   GL1 2344   6.406   0.821   4.365
  165POPC   GL2 2345   6.671   0.581   4.339
  165POPC   C1A 2346   6.539   0.783   4.784
  165POPC   D2A 2347   6.419   0.470   5.050
  165POPC   C3A 2348   6.287   0.600   5.423
  165POPC   C4A 2349   6.264   0.640   5.826
  165POPC   C1B 2350   6.648   0.243   4.632
  165POPC   C2B 2351   6.610   9.980   5.009
  165POPC   C3B 2352   6.682   0.180   5.376
  165POPC   C4B 2353   6.552   0.217   5.742
  166POPC   NC3 2354   3.159   8.732   3.966
  166POPC   PO4 2355   3.776   8.944   3.979
  166POPC   GL1 2356   3.473   8.924   4.351
  166POPC   GL2 2357   3.388   9.278   4.494
  166POPC   C1A 2358   3.336   8.897   4.815
  166POPC   D2A 2359   3.406   9.284   5.041
  166POPC   C3A 2360   3.413   9.376   5.491
  166POPC   C4A 2361   3.266   9.298   5.901
  166POPC   C1B 2362   3.812   9.213   4.616
  166POPC   C2B 2363   3.832   9.003   4.929
  166POPC   C3B 2364   3.782   9.044   5.337
  166POPC   C4B 2365   3.714   9.058   5.751
  167POPC   NC3 2366   7.151   9.322   3.763
  167POPC   PO4 2367   6.931   9.927   3.858
  167POPC   GL1 2368   7.122   9.628   4.199
  167POPC   GL2 2369   7.445   9.517   4.160
  167POPC   C1A 2370   7.207   9.401   4.635
  167POPC   D2A 2371   7.315   9.306   5.102
  167POPC   C3A 2372   7.207   9.441   5.556
  167POPC   C4A 2373   7.173   9.579   6.023
  167POPC   C1B 2374   7.487   9.812   4.488
  167POPC   C2B 2375   7.510   9.767   4.917
  167POPC   C3B 2376   7.568   9.744   5.353
  167POPC   C4B 2377   7.386   9.964   5.706
  168POPC   NC3 2378   9.050   7.507   3.914
  168POPC   PO4 2379   8.586   7.122   4.027
  168POPC   GL1 2380   8.832   7.061   4.370
  168POPC   GL2 2381   8.928   7.390   4.380
  168POPC   C1A 2382   8.840   7.171   4.823
  168POPC   D2A 2383   8.798   7.341   5.231
  168POPC   C3A 2384   8.836   7.029   5.571
  168POPC   C4A 2385   9.071   7.156   5.967
  168POPC   C1B 2386   8.891   7.693   4.713
  168POPC   C2B 2387   8.898   7.988   5.073
  168POPC   C3B 2388   8.945   7.848   5.508
  168POPC   C4B 2389   8.772   7.505   5.738
  169POPC   NC3 2390   3.911   8.058   4.006
  169POPC   PO4 2391   3.251   7.834   3.837
  169POPC   GL1 2392   3.422   8.074   4.215
  169POPC   GL2 2393   3.615   8.427   4.218
  169POPC   C1A 2394   3.325   8.174   4.654
  169POPC   D2A 2395   3.253   8.293   5.109
  169POPC   C3A 2396   3.519   8.117   5.447
  169POPC   C4A 2397   3.512   7.908   5.879
  169POPC   C1B 2398   3.686   8.546   4.665
  169POPC   C2B 2399   3.668   8.580   5.144
  169POPC   C3B 2400   3.781   8.570   5.590
  169POPC   C4B 2401   3.683   8.387   6.001
  170POPC   NC3 2402   7.328   0.940   3.942
  170POPC   PO4 2403   7.465   1.582   3.898
  170POPC   GL1 2404   7.387   1.289   4.324
  170POPC   GL2 2405   7.714   1.300   4.552
  170POPC   C1A 2406   7.379   1.033   4.783
  170POPC   D2A 2407   7.459   1.091   5.252
  170POPC   C3A 2408   7.187   0.869   5.564
  170POPC   C4A 2409   6.774   0.665   5.558
  170POPC   C1B 2410   7.358   1.559   4.747
  170POPC   C2B 2411   7.119   1.457   5.104
  170POPC   C3B 2412   7.247   1.446   5.568
  170POPC   C4B 2413   7.554   1.153   5.784
  171POPC   NC3 2414   2.268   6.265   3.924
  171POPC   PO4 2415   1.630   6.381   3.980
  171POPC   GL1 2416   1.911   6.161   4.301
  171POPC   GL2 2417   1.868   5.788   4.309
  171POPC   C1A 2418   2.066   6.030   4.752
  171POPC   D2A 2419   1.904   5.995   5.202
  171POPC   C3A 2420   2.100   5.932   5.639
  171POPC   C4A 2421   2.092   5.804   6.118
  171POPC   C1B 2422   1.573   5.956   4.655
  171POPC   C2B 2423   1.395   6.009   5.083
  171POPC   C3B 2424   1.513   6.066   5.546
  171POPC   C4B 2425   1.655   5.769   5.873
  172POPC   NC3 2426   0.757   4.159   3.752
  172POPC   PO4 2427   1.436   3.874   3.617
  172POPC   GL1 2428   1.325   3.992   4.070
  172POPC   GL2 2429   1.062   4.247   4.152
  172POPC   C1A 2430   1.274   3.978   4.549
  172POPC   D2A 2431   1.112   3.957   4.998
  172POPC   C3A 2432   1.037   4.148   5.426
  172POPC   C4A 2433   0.655   4.025   5.707
  172POPC   C1B 2434   1.194   4.475   4.521
  172POPC   C2B 2435   1.174   4.500   4.966
  172POPC   C3B 2436   1.223   4.638   5.400
  172POPC   C4B 2437   1.393   4.510   5.782
  173POPC   NC3 2438   2.155   7.344   3.816
  173POPC   PO4 2439   2.416   6.681   3.786
  173POPC   GL1 2440   2.211   6.638   4.270
  173POPC   GL2 2441   1.815   6.672   4.365
  173POPC   C1A 2442   2.112   6.781   4.742
  173POPC   D2A 2443   1.969   7.028   5.096
  173POPC   C3A 2444   2.199   7.123   5.443
  173POPC   C4A 2445   2.384   6.850   5.729
  173POPC   C1B 2446   1.754   6.426   4.747
  173POPC   C2B 2447   1.680   6.464   5.186
  173POPC   C3B 2448   1.930   6.425   5.566
  173POPC   C4B 2449   1.863   6.243   5.977
  174POPC   NC3 2450   7.119   4.632   3.969
  174POPC   PO4 2451   7.517   4.118   3.920
  174POPC   GL1 2452   7.414   4.272   4.323
  174POPC   GL2 2453   7.554   3.973   4.420
  174POPC   C1A 2454   7.316   4.191   4.806
  174POPC   D2A 2455   7.404   4.203   5.263
  174POPC   C3A 2456   7.072   4.265   5.573
  174POPC   C4A 2457   7.067   4.154   5.988
  174POPC   C1B 2458   7.803   4.291   4.665
  174POPC   C2B 2459   7.962   4.367   5.087
  174POPC   C3B 2460   7.778   4.495   5.470
  174POPC   C4B 2461   7.556   4.228   5.776
  175POPC   NC3 2462   4.170   7.357   4.114
  175POPC   PO4 2463   3.963   6.787   4.109
  175POPC   GL1 2464   3.933   6.999   4.511
  175POPC   GL2 2465   3.967   7.378   4.581
  175POPC   C1A 2466   3.926   7.056   4.971
  175POPC   D2A 2467   4.143   7.310   5.294
  175POPC   C3A 2468   4.241   7.160   5.729
  175POPC   C4A 2469   4.282   7.006   6.187
  175POPC   C1B 2470   3.866   7.603   4.949
  175POPC   C2B 2471   3.824   7.717   5.377
  175POPC   C3B 2472   3.956   7.606   5.801
  175POPC   C4B 2473   4.177   7.506   6.203
  176POPC   NC3 2474   8.613   4.940   4.133
  176POPC   PO4 2475   8.277   5.439   3.688
  176POPC   GL1 2476   8.204   5.250   4.079
  176POPC   GL2 2477   8.073   4.918   3.952
  176POPC   C1A 2478   8.265   5.281   4.545
  176POPC   D2A 2479   8.374   5.209   4.984
  176POPC   C3A 2480   8.390   5.242   5.454
  176POPC   C4A 2481   8.433   5.330   5.918
  176POPC   C1B 2482   7.974   4.871   4.413
  176POPC   C2B 2483   7.954   4.864   4.874
  176POPC   C3B 2484   8.162   4.815   5.260
  176POPC   C4B 2485   8.144   4.858   5.698
  177POPC   NC3 2486   0.240   4.883   3.675
  177POPC   PO4 2487   0.251   4.166   3.874
  177POPC   GL1 2488   0.390   4.345   4.312
  177POPC   GL2 2489   0.588   4.088   4.282
  177POPC   C1A 2490   0.370   4.410   4.832
  177POPC   D2A 2491   0.716   4.538   5.190
  177POPC   C3A 2492   0.744   4.509   5.642
  177POPC   C4A 2493   0.524   4.394   6.085
  177POPC   C1B 2494   0.793   4.178   4.679
  177POPC   C2B 2495   0.624   4.044   5.124
  177POPC   C3B 2496   0.314   4.285   5.388
  177POPC   C4B 2497   0.157   4.202   5.809
  178POPC   NC3 2498   8.697   9.721   4.091
  178POPC   PO4 2499   9.272   9.378   3.848
  178POPC   GL1 2500   9.158   9.565   4.243
  178POPC   GL2 2501   9.088   9.928   4.342
  178POPC   C1A 2502   9.014   9.543   4.668
  178POPC   D2A 2503   9.134   9.400   5.046
  178POPC   C3A 2504   8.983   9.552   5.455
  178POPC   C4A 2505   8.920   9.255   5.780
  178POPC   C1B 2506   8.853   0.021   4.749
  178POPC   C2B 2507   8.959   0.001   5.214
  178POPC   C3B 2508   8.845   0.009   5.693
  178POPC   C4B 2509   8.693   9.992   6.185
  179POPC   NC3 2510   3.509   7.431   3.703
  179POPC   PO4 2511   4.098   7.687   3.767
  179POPC   GL1 2512   3.693   7.623   4.127
  179POPC   GL2 2513   3.642   7.303   4.212
  179POPC   C1A 2514   3.513   7.685   4.590
  179POPC   D2A 2515   3.309   7.786   5.030
  179POPC   C3A 2516   3.333   7.608   5.486
  179POPC   C4A 2517   3.361   7.371   5.891
  179POPC   C1B 2518   3.477   7.177   4.648
  179POPC   C2B 2519   3.500   7.285   5.123
  179POPC   C3B 2520   3.719   7.220   5.552
  179POPC   C4B 2521   3.826   7.170   6.016
  180POPC   NC3 2522   9.840   2.802   3.746
  180POPC   PO4 2523   0.120   3.320   4.129
  180POPC   GL1 2524   9.772   3.170   4.326
  180POPC   GL2 2525   9.490   2.948   4.267
  180POPC   C1A 2526   9.612   3.174   4.720
  180POPC   D2A 2527   9.564   2.913   5.026
  180POPC   C3A 2528   9.845   2.878   5.354
  180POPC   C4A 2529   9.659   3.040   5.740
  180POPC   C1B 2530   9.446   2.619   4.613
  180POPC   C2B 2531   9.384   2.436   5.031
  180POPC   C3B 2532   9.412   2.631   5.422
  180POPC   C4B 2533   9.469   2.557   5.842
  181POPC   NC3 2534   1.019   1.237   4.044
  181POPC   PO4 2535   0.905   0.667   3.656
  181POPC   GL1 2536   1.197   0.759   4.115
  181POPC   GL2 2537   1.465   0.968   4.298
  181POPC   C1A 2538   1.093   0.899   4.620
  181POPC   D2A 2539   1.279   1.153   4.954
  181POPC   C3A 2540   1.269   1.120   5.403
  181POPC   C4A 2541   1.112   1.080   5.822
  181POPC   C1B 2542   1.683   1.236   4.665
  181POPC   C2B 2543   1.645   1.488   5.092
  181POPC   C3B 2544   1.651   1.425   5.555
  181POPC   C4B 2545   1.545   1.356   6.009
  182POPC   NC3 2546   2.172   1.685   3.506
  182POPC   PO4 2547   1.933   1.770   4.076
  182POPC   GL1 2548   1.844   1.945   4.437
  182POPC   GL2 2549   1.799   2.243   4.251
  182POPC   C1A 2550   1.935   1.866   4.874
  182POPC   D2A 2551   2.337   1.852   5.116
  182POPC   C3A 2552   2.397   2.140   5.452
  182POPC   C4A 2553   2.160   2.081   5.815
  182POPC   C1B 2554   1.885   2.428   4.663
  182POPC   C2B 2555   2.054   2.310   5.090
  182POPC   C3B 2556   1.873   2.026   5.398
  182POPC   C4B 2557   1.701   2.288   5.735
  183POPC   NC3 2558   7.827   1.326   4.065
  183POPC   PO4 2559   8.389   1.494   3.735
  183POPC   GL1 2560   8.307   1.442   4.193
  183POPC   GL2 2561   8.490   1.199   4.341
  183POPC   C1A 2562   8.205   1.433   4.678
  183POPC   D2A 2563   8.197   1.513   5.161
  183POPC   C3A 2564   7.980   1.440   5.617
  183POPC   C4A 2565   7.747   1.551   6.055
  183POPC   C1B 2566   8.560   1.046   4.780
  183POPC   C2B 2567   8.499   1.088   5.242
  183POPC   C3B 2568   8.465   1.161   5.707
  183POPC   C4B 2569   8.444   0.892   6.116
  184POPC   NC3 2570   8.232   8.973   3.871
  184POPC   PO4 2571   7.587   9.149   3.777
  184POPC   GL1 2572   7.888   9.283   4.099
  184POPC   GL2 2573   7.989   8.991   4.308
  184POPC   C1A 2574   7.898   9.437   4.536
  184POPC   D2A 2575   7.810   9.360   4.969
  184POPC   C3A 2576   7.946   9.346   5.399
  184POPC   C4A 2577   7.943   8.961   5.656
  184POPC   C1B 2578   8.169   9.030   4.711
  184POPC   C2B 2579   8.232   8.998   5.144
  184POPC   C3B 2580   8.476   8.754   5.415
  184POPC   C4B 2581   8.387   8.772   5.819
  185POPC   NC3 2582   8.128   9.524   3.701
  185POPC   PO4 2583   8.365   0.149   3.909
  185POPC   GL1 2584   8.226   9.836   4.231
  185POPC   GL2 2585   7.893   9.805   4.184
  185POPC   C1A 2586   8.384   9.659   4.667
  185POPC   D2A 2587   8.643   9.633   5.040
  185POPC   C3A 2588   8.475   9.760   5.431
  185POPC   C4A 2589   8.534   9.643   5.865
  185POPC   C1B 2590   7.951   9.928   4.671
  185POPC   C2B 2591   8.032   9.801   5.135
  185POPC   C3B 2592   7.991   9.839   5.624
  185POPC   C4B 2593   7.829   0.152   5.934
  186POPC   NC3 2594   5.035   2.248   3.911
  186POPC   PO4 2595   5.250   1.505   4.040
  186POPC   GL1 2596   5.067   1.717   4.389
  186POPC   GL2 2597   5.077   2.040   4.365
  186POPC   C1A 2598   4.891   1.709   4.809
  186POPC   D2A 2599   5.073   1.820   5.206
  186POPC   C3A 2600   4.857   1.867   5.620
  186POPC   C4A 2601   4.684   1.850   6.043
  186POPC   C1B 2602   4.937   2.224   4.748
  186POPC   C2B 2603   4.842   2.266   5.176
  186POPC   C3B 2604   5.121   2.291   5.523
  186POPC   C4B 2605   5.133   2.158   5.943
  187POPC   NC3 2606   3.383   2.910   3.776
  187POPC   PO4 2607   4.025   3.177   3.873
  187POPC   GL1 2608   3.788   3.083   4.221
  187POPC   GL2 2609   3.719   2.735   4.252
  187POPC   C1A 2610   3.553   3.073   4.627
  187POPC   D2A 2611   3.280   2.792   4.856
  187POPC   C3A 2612   3.232   2.825   5.314
  187POPC   C4A 2613   3.010   2.779   5.728
  187POPC   C1B 2614   3.686   2.519   4.664
  187POPC   C2B 2615   3.507   2.410   5.099
  187POPC   C3B 2616   3.338   2.364   5.517
  187POPC   C4B 2617   3.492   2.501   5.913
  188POPC   NC3 2618   2.863   8.077   3.735
  188POPC   PO4 2619   2.251   7.826   3.819
  188POPC   GL1 2620   2.492   8.044   4.189
  188POPC   GL2 2621   2.862   7.983   4.237
  188POPC   C1A 2622   2.412   8.180   4.639
  188POPC   D2A 2623   2.198   8.059   5.041
  188POPC   C3A 2624   2.407   8.147   5.434
  188POPC   C4A 2625   2.466   8.456   5.781
  188POPC   C1B 2626   2.861   7.918   4.696
  188POPC   C2B 2627   2.745   8.216   5.035
  188POPC   C3B 2628   2.851   8.404   5.431
  188POPC   C4B 2629   2.890   8.208   5.854
  189POPC   NC3 2630   9.303   5.096   3.930
  189POPC   PO4 2631   0.000   5.199   3.937
  189POPC   GL1 2632   9.704   4.975   4.246
  189POPC   GL2 2633   9.483   4.666   4.252
  189POPC   C1A 2634   9.553   5.015   4.668
  189POPC   D2A 2635   9.672   5.106   5.083
  189POPC   C3A 2636   9.513   4.919   5.507
  189POPC   C4A 2637   9.458   5.146   5.908
  189POPC   C1B 2638   9.681   4.545   4.698
  189POPC   C2B 2639   9.972   4.684   5.073
  189POPC   C3B 2640   0.035   5.004   5.422
  189POPC   C4B 2641   9.934   5.014   5.872
  190POPC   NC3 2642   8.794   1.151   3.749
  190POPC   PO4 2643   9.357   1.442   3.916
  190POPC   GL1 2644   9.002   1.262   4.201
  190POPC   GL2 2645   8.845   0.882   4.204
  190POPC   C1A 2646   8.907   1.390   4.623
  190POPC   D2A 2647   8.998   1.528   5.054
  190POPC   C3A 2648   8.886   1.377   5.444
  190POPC   C4A 2649   9.122   1.386   5.813
  190POPC   C1B 2650   9.064   0.885   4.586
  190POPC   C2B 2651   9.038   1.016   5.002
  190POPC   C3B 2652   8.944   0.876   5.419
  190POPC   C4B 2653   8.899   0.922   5.873
  191POPC   NC3 2654   0.747   2.712   4.129
  191POPC   PO4 2655   1.366   2.377   3.965
  191POPC   GL1 2656   1.246   2.833   4.182
  191POPC   GL2 2657   1.438   3.095   4.029
  191POPC   C1A 2658   1.056   3.074   4.623
  191POPC   D2A 2659   0.917   2.949   5.082
  191POPC   C3A 2660   1.202   2.707   5.377
  191POPC   C4A 2661   1.463   2.736   5.760
  191POPC   C1B 2662   1.545   3.132   4.470
  191POPC   C2B 2663   1.476   3.061   4.938
  191POPC   C3B 2664   1.448   3.155   5.384
  191POPC   C4B 2665   1.145   3.133   5.750
  192POPC   NC3 2666   1.921   9.671   3.748
  192POPC   PO4 2667   1.357   9.685   4.047
  192POPC   GL1 2668   1.754   9.571   4.227
  192POPC   GL2 2669   2.069   9.752   4.223
  192POPC   C1A 2670   1.894   9.496   4.653
  192POPC   D2A 2671   1.757   9.376   5.060
  192POPC   C3A 2672   1.899   9.583   5.459
  192POPC   C4A 2673   1.676   9.363   5.801
  192POPC   C1B 2674   2.235   9.883   4.591
  192POPC   C2B 2675   2.366   0.032   4.947
  192POPC   C3B 2676   2.219   0.026   5.351
  192POPC   C4B 2677   2.082   0.034   5.738
  193POPC   NC3 2678   7.952   6.291   4.028
  193POPC   PO4 2679   8.378   6.671   3.746
  193POPC   GL1 2680   8.313   6.718   4.216
  193POPC   GL2 2681   8.000   6.895   4.331
  193POPC   C1A 2682   8.329   6.576   4.675
  193POPC   D2A 2683   8.476   6.446   5.143
  193POPC   C3A 2684   8.476   6.602   5.610
  193POPC   C4A 2685   8.377   6.394   6.046
  193POPC   C1B 2686   7.942   6.891   4.778
  193POPC   C2B 2687   7.950   6.524   5.051
  193POPC   C3B 2688   8.041   6.369   5.465
  193POPC   C4B 2689   7.946   6.564   5.852
  194POPC   NC3 2690   7.806   5.429   3.786
  194POPC   PO4 2691   7.494   4.853   3.845
  194POPC   GL1 2692   7.493   4.785   4.282
  194POPC   GL2 2693   7.158   4.902   4.398
  194POPC   C1A 2694   7.488   4.683   4.737
  194POPC   D2A 2695   7.380   4.730   5.197
  194POPC   C3A 2696   7.681   4.999   5.461
  194POPC   C4A 2697   7.949   5.334   5.692
  194POPC   C1B 2698   7.139   5.084   4.816
  194POPC   C2B 2699   7.138   5.205   5.249
  194POPC   C3B 2700   7.116   5.016   5.638
  194POPC   C4B 2701   7.351   4.675   5.739
  195POPC   NC3 2702   3.512   1.923   3.872
  195POPC   PO4 2703   3.690   2.515   3.768
  195POPC   GL1 2704   3.808   2.233   4.167
  195POPC   GL2 2705   3.463   2.213   4.296
  195POPC   C1A 2706   3.904   1.866   4.519
  195POPC   D2A 2707   4.069   1.697   4.964
  195POPC   C3A 2708   3.842   1.601   5.375
  195POPC   C4A 2709   3.889   1.609   5.823
  195POPC   C1B 2710   3.465   2.038   4.716
  195POPC   C2B 2711   3.546   1.911   5.127
  195POPC   C3B 2712   3.460   1.873   5.587
  195POPC   C4B 2713   3.445   1.817   6.035
  196POPC   NC3 2714   4.795   1.453   4.014
  196POPC   PO4 2715   4.045   1.582   3.833
  196POPC   GL1 2716   4.088   1.409   4.215
  196POPC   GL2 2717   4.373   1.202   4.159
  196POPC   C1A 2718   4.047   1.305   4.635
  196POPC   D2A 2719   3.980   1.192   5.085
  196POPC   C3A 2720   4.299   1.397   5.361
  196POPC   C4A 2721   4.603   1.418   5.700
  196POPC   C1B 2722   4.547   1.050   4.556
  196POPC   C2B 2723   4.486   1.068   4.997
  196POPC   C3B 2724   4.526   0.955   5.446
  196POPC   C4B 2725   4.197   1.101   5.773
  197POPC   NC3 2726   7.443   7.774   3.720
  197POPC   PO4 2727   6.915   8.002   4.094
  197POPC   GL1 2728   7.106   8.239   4.386
  197POPC   GL2 2729   7.337   8.501   4.306
  197POPC   C1A 2730   7.062   8.355   4.787
  197POPC   D2A 2731   7.260   8.586   5.097
  197POPC   C3A 2732   7.167   8.294   5.418
  197POPC   C4A 2733   7.295   8.024   5.737
  197POPC   C1B 2734   7.557   8.407   4.718
  197POPC   C2B 2735   7.635   8.234   5.171
  197POPC   C3B 2736   7.769   8.090   5.602
  197POPC   C4B 2737   7.639   8.220   6.048
  198POPC   NC3 2738   9.012   3.433   3.588
  198POPC   PO4 2739   9.312   3.861   4.032
  198POPC   GL1 2740   9.107   3.723   4.359
  198POPC   GL2 2741   8.837   3.624   4.147
  198POPC   C1A 2742   9.110   3.655   4.797
  198POPC   D2A 2743   9.241   3.336   5.081
  198POPC   C3A 2744   9.197   3.475   5.505
  198POPC   C4A 2745   9.274   3.376   5.952
  198POPC   C1B 2746   8.647   3.787   4.536
  198POPC   C2B 2747   8.609   3.699   4.974
  198POPC   C3B 2748   8.578   3.574   5.400
  198POPC   C4B 2749   8.784   3.510   5.797
  199POPC   NC3 2750   1.912   9.033   3.823
  199POPC   PO4 2751   2.364   9.473   3.910
  199POPC   GL1 2752   2.169   9.249   4.252
  199POPC   GL2 2753   2.194   8.887   4.246
  199POPC   C1A 2754   2.310   9.209   4.684
  199POPC   D2A 2755   2.110   8.982   5.032
  199POPC   C3A 2756   1.955   9.070   5.440
  199POPC   C4A 2757   2.183   9.034   5.828
  199POPC   C1B 2758   1.869   8.946   4.582
  199POPC   C2B 2759   1.595   8.855   4.982
  199POPC   C3B 2760   1.523   8.755   5.447
  199POPC   C4B 2761   1.684   8.861   5.870
  200POPC   NC3 2762   7.979   0.416   4.074
  200POPC   PO4 2763   7.777   0.986   3.753
  200POPC   GL1 2764   8.108   0.911   4.123
  200POPC   GL2 2765   8.377   0.650   4.267
  200POPC   C1A 2766   8.087   0.935   4.589
  200POPC   D2A 2767   7.925   1.096   5.005
  200POPC   C3A 2768   7.866   0.773   5.366
  200POPC   C4A 2769   8.017   0.593   5.765
  200POPC   C1B 2770   8.369   0.213   4.556
  200POPC   C2B 2771   8.413   0.114   4.998
  200POPC   C3B 2772   8.217   0.236   5.388
  200POPC   C4B 2773   8.368   0.174   5.799
  201POPC   NC3 2774   8.915   9.211   3.594
  201POPC   PO4 2775   8.398   9.371   4.052
  201POPC   GL1 2776   8.688   9.276   4.355
  201POPC   GL2 2777   8.929   9.117   4.130
  201POPC   C1A 2778   8.667   9.176   4.806
  201POPC   D2A 2779   8.731   9.161   5.257
  201POPC   C3A 2780   8.435   9.230   5.599
  201POPC   C4A 2781   8.518   9.188   6.095
  201POPC   C1B 2782   9.119   9.044   4.561
  201POPC   C2B 2783   9.114   8.886   5.004
  201POPC   C3B 2784   9.118   8.883   5.464
  201POPC   C4B 2785   8.890   8.725   5.810
  202POPC   NC3 2786   7.434   3.683   3.991
  202POPC   PO4 2787   7.770   3.154   3.838
  202POPC   GL1 2788   7.554   3.155   4.267
  202POPC   GL2 2789   7.445   3.424   4.423
  202POPC   C1A 2790   7.341   3.027   4.739
  202POPC   D2A 2791   7.267   3.002   5.235
  202POPC   C3A 2792   7.538   3.298   5.554
  202POPC   C4A 2793   7.416   3.350   5.990
  202POPC   C1B 2794   7.333   3.631   4.792
  202POPC   C2B 2795   7.322   3.643   5.228
  202POPC   C3B 2796   7.336   3.784   5.639
  202POPC   C4B 2797   7.692   3.761   5.889
  203POPC   NC3 2798   5.845   0.225   3.435
  203POPC   PO4 2799   5.555   0.541   3.955
  203POPC   GL1 2800   5.941   0.567   4.225
  203POPC   GL2 2801   5.892   0.807   4.479
  203POPC   C1A 2802   6.168   0.406   4.601
  203POPC   D2A 2803   6.109   0.061   4.917
  203POPC   C3A 2804   6.185   0.095   5.367
  203POPC   C4A 2805   6.035   0.195   5.788
  203POPC   C1B 2806   5.720   0.584   4.804
  203POPC   C2B 2807   5.872   0.453   5.163
  203POPC   C3B 2808   5.766   0.551   5.553
  203POPC   C4B 2809   5.406   0.746   5.724
  204POPC   NC3 2810   4.446   7.964   3.676
  204POPC   PO4 2811   4.135   7.770   4.289
  204POPC   GL1 2812   3.860   8.035   4.514
  204POPC   GL2 2813   4.090   8.286   4.439
  204POPC   C1A 2814   3.745   8.104   4.949
  204POPC   D2A 2815   4.034   8.239   5.269
  204POPC   C3A 2816   3.992   8.106   5.700
  204POPC   C4A 2817   3.980   7.985   6.146
  204POPC   C1B 2818   4.515   8.336   4.658
  204POPC   C2B 2819   4.543   8.398   5.115
  204POPC   C3B 2820   4.433   8.390   5.574
  204POPC   C4B 2821   4.292   8.405   6.007
  205POPC   NC3 2822   5.737   8.353   3.966
  205POPC   PO4 2823   6.168   7.835   3.922
  205POPC   GL1 2824   5.960   8.004   4.333
  205POPC   GL2 2825   5.829   8.351   4.441
  205POPC   C1A 2826   6.058   8.154   4.800
  205POPC   D2A 2827   5.882   8.466   5.114
  205POPC   C3A 2828   5.949   8.355   5.564
  205POPC   C4A 2829   6.022   8.103   5.946
  205POPC   C1B 2830   5.556   8.158   4.799
  205POPC   C2B 2831   5.453   8.246   5.268
  205POPC   C3B 2832   5.538   8.083   5.704
  205POPC   C4B 2833   5.546   8.009   6.176
  206POPC   NC3 2834   9.643   9.135   3.967
  206POPC   PO4 2835   0.032   8.635   3.871
  206POPC   GL1 2836   0.020   8.958   4.229
  206POPC   GL2 2837   9.713   8.802   4.346
  206POPC   C1A 2838   9.985   9.136   4.654
  206POPC   D2A 2839   0.176   9.201   5.065
  206POPC   C3A 2840   9.971   9.281   5.456
  206POPC   C4A 2841   9.753   9.251   5.849
  206POPC   C1B 2842   9.580   8.819   4.774
  206POPC   C2B 2843   9.575   8.783   5.228
  206POPC   C3B 2844   9.620   8.778   5.673
  206POPC   C4B 2845   9.356   8.655   6.022
  207POPC   NC3 2846   2.904   1.365   3.986
  207POPC   PO4 2847   2.337   0.978   3.925
  207POPC   GL1 2848   2.681   0.973   4.273
  207POPC   GL2 2849   2.806   1.245   4.455
  207POPC   C1A 2850   2.663   0.897   4.779
  207POPC   D2A 2851   2.523   1.126   5.129
  207POPC   C3A 2852   2.551   1.093   5.567
  207POPC   C4A 2853   2.459   0.879   5.936
  207POPC   C1B 2854   3.110   1.252   4.768
  207POPC   C2B 2855   3.050   1.082   5.137
  207POPC   C3B 2856   3.056   1.123   5.579
  207POPC   C4B 2857   2.873   1.167   5.980
  208POPC   NC3 2858   6.390   9.029   4.091
  208POPC   PO4 2859   6.930   8.918   3.694
  208POPC   GL1 2860   6.800   8.756   4.209
  208POPC   GL2 2861   6.728   9.084   4.468
  208POPC   C1A 2862   6.678   8.684   4.710
  208POPC   D2A 2863   6.768   8.509   5.181
  208POPC   C3A 2864   6.767   8.627   5.622
  208POPC   C4A 2865   6.828   8.624   6.071
  208POPC   C1B 2866   6.365   9.116   4.755
  208POPC   C2B 2867   6.385   9.227   5.178
  208POPC   C3B 2868   6.641   9.123   5.509
  208POPC   C4B 2869   6.529   8.995   5.912
  209POPC   NC3 2870   2.951   5.808   3.964
  209POPC   PO4 2871   2.307   5.776   3.952
  209POPC   GL1 2872   2.378   5.918   4.344
  209POPC   GL2 2873   2.645   6.084   4.263
  209POPC   C1A 2874   2.534   5.846   4.781
  209POPC   D2A 2875   2.440   5.962   5.209
  209POPC   C3A 2876   2.562   5.722   5.572
  209POPC   C4A 2877   2.511   5.557   6.036
  209POPC   C1B 2878   2.894   6.167   4.654
  209POPC   C2B 2879   2.958   5.995   5.100
  209POPC   C3B 2880   2.952   6.051   5.568
  209POPC   C4B 2881   3.043   6.099   6.048
  210POPC   NC3 2882   1.217   7.468   3.873
  210POPC   PO4 2883   0.920   6.881   3.953
  210POPC   GL1 2884   1.063   7.136   4.265
  210POPC   GL2 2885   0.882   7.461   4.280
  210POPC   C1A 2886   1.214   7.233   4.679
  210POPC   D2A 2887   1.156   7.359   5.103
  210POPC   C3A 2888   1.223   7.138   5.502
  210POPC   C4A 2889   1.398   7.016   5.939
  210POPC   C1B 2890   0.985   7.700   4.650
  210POPC   C2B 2891   1.273   7.841   4.991
  210POPC   C3B 2892   1.271   7.731   5.442
  210POPC   C4B 2893   1.389   7.506   5.814
  211POPC   NC3 2894   2.097   7.694   4.250
  211POPC   PO4 2895   1.665   7.336   3.871
  211POPC   GL1 2896   1.831   7.208   4.251
  211POPC   GL2 2897   2.158   7.140   4.304
  211POPC   C1A 2898   1.737   7.137   4.651
  211POPC   D2A 2899   1.624   7.458   4.928
  211POPC   C3A 2900   1.665   7.380   5.360
  211POPC   C4A 2901   1.866   7.340   5.745
  211POPC   C1B 2902   2.245   7.278   4.727
  211POPC   C2B 2903   2.112   7.528   5.070
  211POPC   C3B 2904   2.182   7.667   5.470
  211POPC   C4B 2905   2.483   7.773   5.769
  212POPC   NC3 2906   9.455   1.890   3.881
  212POPC   PO4 2907   9.523   2.536   3.986
  212POPC   GL1 2908   9.706   2.191   4.257
  212POPC   GL2 2909   9.832   1.824   4.228
  212POPC   C1A 2910   9.643   2.129   4.706
  212POPC   D2A 2911   9.779   2.104   5.153
  212POPC   C3A 2912   9.472   2.128   5.509
  212POPC   C4A 2913   9.333   2.073   5.956
  212POPC   C1B 2914   9.666   1.631   4.646
  212POPC   C2B 2915   9.486   1.686   5.108
  212POPC   C3B 2916   9.512   1.626   5.567
  212POPC   C4B 2917   9.773   1.799   5.901
  213POPC   NC3 2918   2.041   5.380   4.002
  213POPC   PO4 2919   2.399   4.818   4.032
  213POPC   GL1 2920   2.033   4.950   4.324
  213POPC   GL2 2921   1.686   4.931   4.201
  213POPC   C1A 2922   1.770   5.262   4.622
  213POPC   D2A 2923   1.635   5.545   5.006
  213POPC   C3A 2924   1.810   5.526   5.436
  213POPC   C4A 2925   2.178   5.401   5.685
  213POPC   C1B 2926   1.647   4.718   4.616
  213POPC   C2B 2927   1.644   4.675   5.084
  213POPC   C3B 2928   1.764   4.744   5.531
  213POPC   C4B 2929   2.091   4.893   5.823
  214POPC   NC3 2930   1.309   8.457   3.927
  214POPC   PO4 2931   0.915   7.853   3.936
  214POPC   GL1 2932   1.089   8.113   4.296
  214POPC   GL2 2933   1.453   8.160   4.319
  214POPC   C1A 2934   1.000   8.201   4.750
  214POPC   D2A 2935   0.798   7.968   5.124
  214POPC   C3A 2936   0.872   8.046   5.547
  214POPC   C4A 2937   1.032   7.855   5.944
  214POPC   C1B 2938   1.461   8.427   4.692
  214POPC   C2B 2939   1.318   8.356   5.125
  214POPC   C3B 2940   1.394   8.227   5.546
  214POPC   C4B 2941   1.639   8.329   5.898
  215POPC   NC3 2942   5.124   8.696   3.501
  215POPC   PO4 2943   4.772   9.022   3.998
  215POPC   GL1 2944   4.866   8.894   4.382
  215POPC   GL2 2945   5.176   8.880   4.346
  215POPC   C1A 2946   4.859   8.738   4.766
  215POPC   D2A 2947   4.680   8.883   5.084
  215POPC   C3A 2948   4.770   8.776   5.483
  215POPC   C4A 2949   4.772   8.642   5.900
  215POPC   C1B 2950   5.204   9.127   4.739
  215POPC   C2B 2951   5.040   9.246   5.150
  215POPC   C3B 2952   5.126   9.150   5.568
  215POPC   C4B 2953   5.047   9.074   5.995
  216POPC   NC3 2954   2.865   6.673   3.813
  216POPC   PO4 2955   3.329   7.067   3.921
  216POPC   GL1 2956   3.094   6.824   4.279
  216POPC   GL2 2957   2.797   6.551   4.306
  216POPC   C1A 2958   3.033   6.685   4.728
  216POPC   D2A 2959   2.731   6.519   5.042
  216POPC   C3A 2960   2.816   6.781   5.438
  216POPC   C4A 2961   3.047   6.939   5.834
  216POPC   C1B 2962   2.434   6.380   4.637
  216POPC   C2B 2963   2.227   6.415   5.087
  216POPC   C3B 2964   2.450   6.374   5.518
  216POPC   C4B 2965   2.762   6.498   5.851
  217POPC   NC3 2966   2.863   3.715   3.424
  217POPC   PO4 2967   2.798   4.077   4.034
  217POPC   GL1 2968   2.761   4.249   4.461
  217POPC   GL2 2969   2.539   4.554   4.505
  217POPC   C1A 2970   2.897   4.119   4.920
  217POPC   D2A 2971   3.026   3.858   5.318
  217POPC   C3A 2972   3.021   3.969   5.794
  217POPC   C4A 2973   2.678   4.057   6.138
  217POPC   C1B 2974   2.405   4.241   4.825
  217POPC   C2B 2975   2.479   4.008   5.221
  217POPC   C3B 2976   2.580   4.168   5.638
  217POPC   C4B 2977   2.530   4.545   5.903
  218POPC   NC3 2978   3.079   7.520   4.140
  218POPC   PO4 2979   2.486   7.509   4.136
  218POPC   GL1 2980   2.691   7.284   4.380
  218POPC   GL2 2981   2.622   6.998   4.155
  218POPC   C1A 2982   2.747   7.396   4.825
  218POPC   D2A 2983   2.593   7.731   5.122
  218POPC   C3A 2984   2.882   7.870   5.452
  218POPC   C4A 2985   2.986   7.715   5.900
  218POPC   C1B 2986   2.578   6.876   4.615
  218POPC   C2B 2987   2.510   6.984   5.054
  218POPC   C3B 2988   2.679   7.286   5.370
  218POPC   C4B 2989   2.677   7.296   5.819
  219POPC   NC3 2990   2.432   4.364   4.051
  219POPC   PO4 2991   1.825   4.030   4.125
  219POPC   GL1 2992   2.113   4.052   4.426
  219POPC   GL2 2993   2.042   4.395   4.500
  219POPC   C1A 2994   2.142   3.817   4.843
  219POPC   D2A 2995   1.956   3.921   5.216
  219POPC   C3A 2996   2.179   3.862   5.628
  219POPC   C4A 2997   2.229   3.799   6.120
  219POPC   C1B 2998   1.692   4.210   4.782
  219POPC   C2B 2999   1.510   4.186   5.209
  219POPC   C3B 3000   1.704   4.149   5.592
  219POPC   C4B 3001   2.085   4.362   5.736
  220POPC   NC3 3002   5.546   0.009   3.879
  220POPC   PO4 3003   6.219   0.141   3.713
  220POPC   GL1 3004   5.985   0.054   4.162
  220POPC   GL2 3005   5.759   9.750   4.267
  220POPC   C1A 3006   5.722   0.140   4.572
  220POPC   D2A 3007   5.575   0.048   5.019
  220POPC   C3A 3008   5.710   9.939   5.446
  220POPC   C4A 3009   5.811   9.742   5.848
  220POPC   C1B 3010   5.842   9.652   4.742
  220POPC   C2B 3011   5.960   9.550   5.202
  220POPC   C3B 3012   5.687   9.343   5.539
  220POPC   C4B 3013   5.408   9.422   5.905
  221POPC   NC3 3014   9.714   4.074   3.911
  221POPC   PO4 3015   9.938   4.634   3.926
  221POPC   GL1 3016   9.890   4.332   4.292
  221POPC   GL2 3017   9.559   4.156   4.376
  221POPC   C1A 3018   9.949   4.117   4.699
  221POPC   D2A 3019   9.766   4.213   5.073
  221POPC   C3A 3020   9.826   4.110   5.441
  221POPC   C4A 3021   9.853   4.540   5.596
  221POPC   C1B 3022   9.373   4.103   4.786
  221POPC   C2B 3023   9.331   4.025   5.267
  221POPC   C3B 3024   9.411   4.287   5.658
  221POPC   C4B 3025   9.696   4.177   6.032
  222POPC   NC3 3026   9.316   3.376   4.068
  222POPC   PO4 3027   9.825   3.285   3.669
  222POPC   GL1 3028   9.746   3.620   4.089
  222POPC   GL2 3029   9.984   3.801   4.325
  222POPC   C1A 3030   9.582   3.661   4.570
  222POPC   D2A 3031   9.655   3.719   4.986
  222POPC   C3A 3032   9.690   3.569   5.379
  222POPC   C4A 3033   9.544   3.785   5.739
  222POPC   C1B 3034   0.039   3.507   4.712
  222POPC   C2B 3035   0.000   3.282   5.065
  222POPC   C3B 3036   0.117   3.290   5.489
  222POPC   C4B 3037   9.941   3.485   5.832
  223POPC   NC3 3038   1.230   0.141   4.073
  223POPC   PO4 3039   0.729   0.615   4.174
  223POPC   GL1 3040   1.108   0.404   4.484
  223POPC   GL2 3041   1.487   0.431   4.407
  223POPC   C1A 3042   1.395   0.233   4.858
  223POPC   D2A 3043   1.172   0.177   5.224
  223POPC   C3A 3044   1.241   0.131   5.641
  223POPC   C4A 3045   0.890   0.210   5.894
  223POPC   C1B 3046   1.548   0.713   4.749
  223POPC   C2B 3047   1.324   0.677   5.140
  223POPC   C3B 3048   1.195   0.631   5.579
  223POPC   C4B 3049   1.244   0.546   6.031
  224POPC   NC3 3050   8.079   3.108   3.488
  224POPC   PO4 3051   8.579   3.571   3.705
  224POPC   GL1 3052   8.309   3.664   4.161
  224POPC   GL2 3053   7.919   3.583   4.200
  224POPC   C1A 3054   8.282   3.448   4.617
  224POPC   D2A 3055   8.113   3.542   5.066
  224POPC   C3A 3056   8.111   3.236   5.399
  224POPC   C4A 3057   8.414   3.183   5.702
  224POPC   C1B 3058   7.835   3.654   4.649
  224POPC   C2B 3059   7.729   3.902   4.995
  224POPC   C3B 3060   7.819   3.902   5.418
  224POPC   C4B 3061   8.141   3.666   5.683
  225POPC   NC3 3062   6.538   9.676   3.903
  225POPC   PO4 3063   6.072   9.357   4.186
  225POPC   GL1 3064   6.456   9.511   4.404
  225POPC   GL2 3065   6.690   9.808   4.381
  225POPC   C1A 3066   6.718   9.482   4.793
  225POPC   D2A 3067   6.809   9.518   5.223
  225POPC   C3A 3068   6.442   9.656   5.465
  225POPC   C4A 3069   6.185   9.360   5.713
  225POPC   C1B 3070   7.026   9.884   4.730
  225POPC   C2B 3071   7.106   9.918   5.203
  225POPC   C3B 3072   6.903   9.830   5.639
  225POPC   C4B 3073   6.708   9.484   5.868
  226POPC   NC3 3074   9.933   5.800   3.927
  226POPC   PO4 3075   9.342   5.521   3.748
  226POPC   GL1 3076   9.598   5.471   4.138
  226POPC   GL2 3077   9.479   5.769   4.236
  226POPC   C1A 3078   9.738   5.491   4.618
  226POPC   D2A 3079   9.601   5.622   5.081
  226POPC   C3A 3080   9.691   5.409   5.501
  226POPC   C4A 3081   9.897   5.514   5.906
  226POPC   C1B 3082   9.497   5.945   4.649
  226POPC   C2B 3083   9.846   6.050   4.902
  226POPC   C3B 3084   9.944   5.934   5.300
  226POPC   C4B 3085   9.674   5.906   5.591
  227POPC   NC3 3086   8.998   5.769   3.964
  227POPC   PO4 3087   9.286   6.378   3.880
  227POPC   GL1 3088   9.151   6.161   4.307
  227POPC   GL2 3089   9.002   5.832   4.458
  227POPC   C1A 3090   9.079   6.213   4.774
  227POPC   D2A 3091   9.138   5.828   5.010
  227POPC   C3A 3092   9.173   5.838   5.459
  227POPC   C4A 3093   9.279   6.114   5.818
  227POPC   C1B 3094   8.758   5.539   4.737
  227POPC   C2B 3095   8.792   5.446   5.168
  227POPC   C3B 3096   8.714   5.618   5.571
  227POPC   C4B 3097   8.902   5.802   5.914
  228POPC   NC3 3098   8.403   3.231   3.961
  228POPC   PO4 3099   8.024   2.694   3.671
  228POPC   GL1 3100   8.003   2.755   4.147
  228POPC   GL2 3101   8.053   3.086   4.283
  228POPC   C1A 3102   8.124   2.685   4.612
  228POPC   D2A 3103   8.102   2.839   5.054
  228POPC   C3A 3104   8.432   2.775   5.364
  228POPC   C4A 3105   8.614   2.702   5.764
  228POPC   C1B 3106   7.855   3.141   4.674
  228POPC   C2B 3107   7.709   3.183   5.076
  228POPC   C3B 3108   7.728   2.846   5.416
  228POPC   C4B 3109   8.041   2.831   5.735
  229POPC   NC3 3110   5.938   2.778   3.930
  229POPC   PO4 3111   5.286   2.640   3.922
  229POPC   GL1 3112   5.577   2.647   4.261
  229POPC   GL2 3113   5.491   2.364   4.401
  229POPC   C1A 3114   5.933   2.746   4.592
  229POPC   D2A 3115   6.286   2.729   4.950
  229POPC   C3A 3116   6.215   2.737   5.420
  229POPC   C4A 3117   5.995   2.697   5.790
  229POPC   C1B 3118   5.865   2.253   4.649
  229POPC   C2B 3119   6.098   2.262   5.020
  229POPC   C3B 3120   6.040   2.261   5.458
  229POPC   C4B 3121   5.644   2.292   5.707
  230POPC   NC3 3122   1.324   6.064   3.875
  230POPC   PO4 3123   0.989   5.579   3.628
  230POPC   GL1 3124   1.014   5.756   4.111
  230POPC   GL2 3125   1.350   5.744   4.257
  230POPC   C1A 3126   1.052   6.017   4.547
  230POPC   D2A 3127   0.867   5.959   4.981
  230POPC   C3A 3128   0.991   6.044   5.404
  230POPC   C4A 3129   1.001   6.273   5.783
  230POPC   C1B 3130   1.252   5.562   4.669
  230POPC   C2B 3131   1.126   5.514   5.101
  230POPC   C3B 3132   1.299   5.594   5.476
  230POPC   C4B 3133   1.153   5.772   5.819
  231POPC   NC3 3134   4.941   8.559   4.010
  231POPC   PO4 3135   5.445   7.993   4.037
  231POPC   GL1 3136   5.335   8.369   4.319
  231POPC   GL2 3137   5.013   8.361   4.473
  231POPC   C1A 3138   5.380   8.623   4.736
  231POPC   D2A 3139   5.205   8.754   5.171
  231POPC   C3A 3140   5.257   8.610   5.626
  231POPC   C4A 3141   5.180   8.327   5.973
  231POPC   C1B 3142   5.034   8.296   4.948
  231POPC   C2B 3143   4.938   8.283   5.415
  231POPC   C3B 3144   4.780   8.081   5.806
  231POPC   C4B 3145   4.991   7.876   6.179
  232POPC   NC3 3146   7.129   1.876   3.645
  232POPC   PO4 3147   7.655   2.178   4.023
  232POPC   GL1 3148   7.641   2.102   4.458
  232POPC   GL2 3149   7.696   1.758   4.350
  232POPC   C1A 3150   7.442   2.069   4.902
  232POPC   D2A 3151   7.253   1.922   5.325
  232POPC   C3A 3152   6.891   2.138   5.559
  232POPC   C4A 3153   6.818   2.101   6.000
  232POPC   C1B 3154   7.836   1.751   4.792
  232POPC   C2B 3155   7.706   1.682   5.224
  232POPC   C3B 3156   7.671   1.881   5.638
  232POPC   C4B 3157   7.313   2.105   5.824
  233POPC   NC3 3158   0.499   0.884   3.872
  233POPC   PO4 3159   0.703   1.582   3.920
  233POPC   GL1 3160   0.548   1.251   4.260
  233POPC   GL2 3161   0.212   1.118   4.255
  233POPC   C1A 3162   0.567   1.000   4.700
  233POPC   D2A 3163   0.829   0.968   5.118
  233POPC   C3A 3164   0.654   0.979   5.564
  233POPC   C4A 3165   0.607   1.208   5.982
  233POPC   C1B 3166   0.240   1.384   4.660
  233POPC   C2B 3167   0.446   1.348   5.095
  233POPC   C3B 3168   0.463   1.467   5.552
  233POPC   C4B 3169   0.177   1.492   5.921
  234POPC   NC3 3170   3.035   3.698   3.923
  234POPC   PO4 3171   2.435   3.855   3.573
  234POPC   GL1 3172   2.379   3.765   4.047
  234POPC   GL2 3173   2.557   3.434   4.075
  234POPC   C1A 3174   2.530   3.797   4.528
  234POPC   D2A 3175   2.707   3.635   4.933
  234POPC   C3A 3176   2.629   3.535   5.379
  234POPC   C4A 3177   2.615   3.657   5.805
  234POPC   C1B 3178   2.817   3.380   4.479
  234POPC   C2B 3179   3.000   3.223   4.885
  234POPC   C3B 3180   3.115   3.335   5.308
  234POPC   C4B 3181   2.982   3.298   5.753
  235POPC   NC3 3182   0.480   3.241   3.865
  235POPC   PO4 3183   0.493   2.548   3.768
  235POPC   GL1 3184   0.216   2.827   4.135
  235POPC   GL2 3185   9.926   2.659   4.332
  235POPC   C1A 3186   0.161   2.971   4.658
  235POPC   D2A 3187   0.382   2.935   5.107
  235POPC   C3A 3188   0.316   2.836   5.552
  235POPC   C4A 3189   0.157   3.003   5.931
  235POPC   C1B 3190   9.908   2.561   4.829
  235POPC   C2B 3191   0.154   2.452   5.223
  235POPC   C3B 3192   0.552   2.395   5.466
  235POPC   C4B 3193   0.801   2.704   5.699
  236POPC   NC3 3194   1.908   1.292   4.050
  236POPC   PO4 3195   1.701   0.624   4.009
  236POPC   GL1 3196   1.950   0.806   4.351
  236POPC   GL2 3197   2.281   0.700   4.406
  236POPC   C1A 3198   2.026   0.872   4.817
  236POPC   D2A 3199   1.770   0.997   5.151
  236POPC   C3A 3200   1.722   0.715   5.475
  236POPC   C4A 3201   1.595   0.871   5.849
  236POPC   C1B 3202   2.304   1.184   4.556
  236POPC   C2B 3203   2.131   1.386   4.941
  236POPC   C3B 3204   2.163   1.438   5.396
  236POPC   C4B 3205   2.043   1.105   5.680
  237POPC   NC3 3206   2.742   9.802   3.912
  237POPC   PO4 3207   3.114   9.210   4.074
  237POPC   GL1 3208   2.885   9.409   4.468
  237POPC   GL2 3209   2.576   9.583   4.361
  237POPC   C1A 3210   2.660   9.567   4.857
  237POPC   D2A 3211   2.260   9.544   5.082
  237POPC   C3A 3212   2.383   9.379   5.485
  237POPC   C4A 3213   2.738   9.303   5.774
  237POPC   C1B 3214   2.815   9.933   4.543
  237POPC   C2B 3215   2.881   0.059   4.973
  237POPC   C3B 3216   2.677   9.801   5.314
  237POPC   C4B 3217   2.557   9.810   5.748
  238POPC   NC3 3218   7.777   4.485   3.853
  238POPC   PO4 3219   8.440   4.538   3.918
  238POPC   GL1 3220   8.157   4.431   4.239
  238POPC   GL2 3221   8.065   4.083   4.301
  238POPC   C1A 3222   8.273   4.503   4.685
  238POPC   D2A 3223   8.528   4.439   5.076
  238POPC   C3A 3224   8.397   4.442   5.513
  238POPC   C4A 3225   8.075   4.209   5.746
  238POPC   C1B 3226   8.215   3.989   4.779
  238POPC   C2B 3227   8.304   3.998   5.268
  238POPC   C3B 3228   8.525   3.979   5.719
  238POPC   C4B 3229   8.332   4.018   6.138
  239POPC   NC3 3230   9.627   6.690   3.899
  239POPC   PO4 3231   9.954   6.156   4.220
  239POPC   GL1 3232   9.718   6.508   4.392
  239POPC   GL2 3233   9.889   6.851   4.306
  239POPC   C1A 3234   9.529   6.456   4.809
  239POPC   D2A 3235   9.460   6.222   5.214
  239POPC   C3A 3236   9.584   6.452   5.611
  239POPC   C4A 3237   9.503   6.422   6.136
  239POPC   C1B 3238   9.754   6.924   4.723
  239POPC   C2B 3239   9.699   6.801   5.155
  239POPC   C3B 3240   9.813   6.991   5.538
  239POPC   C4B 3241   9.705   6.848   5.933
  240POPC   NC3 3242   5.676   0.982   4.070
  240POPC   PO4 3243   5.972   1.390   3.629
  240POPC   GL1 3244   5.861   1.453   4.192
  240POPC   GL2 3245   5.569   1.375   4.380
  240POPC   C1A 3246   5.913   1.251   4.699
  240POPC   D2A 3247   6.084   0.924   4.998
  240POPC   C3A 3248   5.997   1.024   5.450
  240POPC   C4A 3249   5.851   0.940   5.870
  240POPC   C1B 3250   5.395   1.487   4.776
  240POPC   C2B 3251   5.457   1.480   5.223
  240POPC   C3B 3252   5.631   1.368   5.630
  240POPC   C4B 3253   5.401   1.192   5.965
  241POPC   NC3 3254   2.152   0.546   3.919
  241POPC   PO4 3255   1.711   0.182   3.521
  241POPC   GL1 3256   1.732   0.095   4.033
  241POPC   GL2 3257   1.975   0.260   4.273
  241POPC   C1A 3258   1.695   9.963   4.537
  241POPC   D2A 3259   1.852   9.917   4.997
  241POPC   C3A 3260   1.698   0.190   5.370
  241POPC   C4A 3261   1.658   0.315   5.835
  241POPC   C1B 3262   1.949   0.368   4.706
  241POPC   C2B 3263   2.060   0.466   5.125
  241POPC   C3B 3264   2.256   0.621   5.499
  241POPC   C4B 3265   2.042   0.622   5.889
  242POPC   NC3 3266   6.327   3.260   3.400
  242POPC   PO4 3267   6.069   3.233   4.032
  242POPC   GL1 3268   6.426   3.181   4.337
  242POPC   GL2 3269   6.777   3.173   4.198
  242POPC   C1A 3270   6.481   3.193   4.791
  242POPC   D2A 3271   6.420   3.134   5.217
  242POPC   C3A 3272   6.518   3.287   5.585
  242POPC   C4A 3273   6.604   3.595   5.879
  242POPC   C1B 3274   6.943   3.329   4.623
  242POPC   C2B 3275   6.900   3.339   5.108
  242POPC   C3B 3276   7.023   3.349   5.577
  242POPC   C4B 3277   6.870   3.176   5.980
  243POPC   NC3 3278   3.525   0.414   3.802
  243POPC   PO4 3279   3.212   1.030   3.881
  243POPC   GL1 3280   3.467   0.729   4.206
  243POPC   GL2 3281   3.753   0.434   4.242
  243POPC   C1A 3282   3.483   0.517   4.655
  243POPC   D2A 3283   3.425   0.143   4.964
  243POPC   C3A 3284   3.210   0.224   5.378
  243POPC   C4A 3285   3.343   0.430   5.778
  243POPC   C1B 3286   3.952   0.332   4.655
  243POPC   C2B 3287   3.801   0.502   5.068
  243POPC   C3B 3288   3.733   0.320   5.459
  243POPC   C4B 3289   3.844   0.291   5.907
  244POPC   NC3 3290   8.720   1.761   3.950
  244POPC   PO4 3291   9.153   2.156   3.684
  244POPC   GL1 3292   9.197   2.112   4.250
  244POPC   GL2 3293   9.120   1.764   4.282
  244POPC   C1A 3294   9.005   2.323   4.692
  244POPC   D2A 3295   8.602   2.262   4.985
  244POPC   C3A 3296   8.576   2.268   5.460
  244POPC   C4A 3297   8.646   2.142   5.917
  244POPC   C1B 3298   9.189   1.857   4.721
  244POPC   C2B 3299   9.076   2.036   5.164
  244POPC   C3B 3300   8.989   1.868   5.599
  244POPC   C4B 3301   8.596   1.654   5.777
  245POPC   NC3 3302   0.352   9.840   3.953
  245POPC   PO4 3303   0.753   9.325   3.799
  245POPC   GL1 3304   0.659   9.449   4.230
  245POPC   GL2 3305   0.337   9.373   4.345
  245POPC   C1A 3306   0.693   9.504   4.707
  245POPC   D2A 3307   0.524   9.565   5.132
  245POPC   C3A 3308   0.753   9.364   5.488
  245POPC   C4A 3309   0.457   9.281   5.830
  245POPC   C1B 3310   0.192   9.616   4.730
  245POPC   C2B 3311   0.091   9.837   5.135
  245POPC   C3B 3312   0.244   9.721   5.537
  245POPC   C4B 3313   0.103   9.632   5.939
  246POPC   NC3 3314   7.322   8.758   3.849
  246POPC   PO4 3315   6.777   9.299   4.034
  246POPC   GL1 3316   7.166   9.090   4.223
  246POPC   GL2 3317   7.483   9.014   4.287
  246POPC   C1A 3318   7.151   8.875   4.655
  246POPC   D2A 3319   6.900   9.002   5.043
  246POPC   C3A 3320   7.132   8.938   5.445
  246POPC   C4A 3321   7.039   9.068   5.877
  246POPC   C1B 3322   7.657   8.930   4.721
  246POPC   C2B 3323   7.671   8.904   5.194
  246POPC   C3B 3324   7.567   8.612   5.534
  246POPC   C4B 3325   7.253   8.555   5.830
  247POPC   NC3 3326   5.731   7.635   3.981
  247POPC   PO4 3327   6.170   7.123   3.977
  247POPC   GL1 3328   6.111   7.477   4.307
  247POPC   GL2 3329   5.800   7.347   4.408
  247POPC   C1A 3330   5.946   7.674   4.753
  247POPC   D2A 3331   5.897   7.916   5.208
  247POPC   C3A 3332   5.903   7.705   5.632
  247POPC   C4A 3333   5.921   7.633   6.095
  247POPC   C1B 3334   6.105   7.189   4.738
  247POPC   C2B 3335   6.272   7.313   5.166
  247POPC   C3B 3336   6.230   7.287   5.643
  247POPC   C4B 3337   5.934   7.133   5.976
  248POPC   NC3 3338   2.760   0.916   3.756
  248POPC   PO4 3339   2.619   0.247   3.887
  248POPC   GL1 3340   2.951   0.555   4.102
  248POPC   GL2 3341   3.137   0.312   4.319
  248POPC   C1A 3342   3.084   0.791   4.526
  248POPC   D2A 3343   3.095   0.583   4.976
  248POPC   C3A 3344   2.904   0.683   5.394
  248POPC   C4A 3345   2.891   0.647   5.844
  248POPC   C1B 3346   2.733   0.425   4.600
  248POPC   C2B 3347   2.581   0.470   5.064
  248POPC   C3B 3348   2.649   0.271   5.503
  248POPC   C4B 3349   2.466   0.334   5.914
  249POPC   NC3 3350   8.834   6.746   3.906
  249POPC   PO4 3351   8.648   6.126   4.089
  249POPC   GL1 3352   8.785   6.514   4.359
  249POPC   GL2 3353   9.159   6.668   4.313
  249POPC   C1A 3354   8.812   6.655   4.789
  249POPC   D2A 3355   9.103   6.601   5.139
  249POPC   C3A 3356   8.964   6.335   5.463
  249POPC   C4A 3357   8.824   6.298   5.883
  249POPC   C1B 3358   9.250   6.876   4.708
  249POPC   C2B 3359   9.261   7.083   5.135
  249POPC   C3B 3360   9.325   6.909   5.538
  249POPC   C4B 3361   9.174   6.662   5.847
  250POPC   NC3 3362   4.778   9.541   3.909
  250POPC   PO4 3363   5.453   9.560   3.790
  250POPC   GL1 3364   5.264   9.600   4.216
  250POPC   GL2 3365   5.010   9.377   4.326
  250POPC   C1A 3366   5.319   9.719   4.661
  250POPC   D2A 3367   5.455   9.537   5.080
  250POPC   C3A 3368   5.260   9.676   5.478
  250POPC   C4A 3369   5.287   9.895   5.901
  250POPC   C1B 3370   4.768   9.387   4.724
  250POPC   C2B 3371   4.841   9.713   5.040
  250POPC   C3B 3372   4.751   9.751   5.480
  250POPC   C4B 3373   4.889   9.562   5.862
  251POPC   NC3 3374   7.261   1.948   4.129
  251POPC   PO4 3375   6.663   1.847   3.758
  251POPC   GL1 3376   6.621   1.797   4.202
  251POPC   GL2 3377   6.306   1.688   4.365
  251POPC   C1A 3378   6.800   1.669   4.620
  251POPC   D2A 3379   6.843   1.903   5.019
  251POPC   C3A 3380   6.793   1.677   5.412
  251POPC   C4A 3381   6.798   1.599   5.839
  251POPC   C1B 3382   6.355   1.872   4.790
  251POPC   C2B 3383   6.378   1.909   5.246
  251POPC   C3B 3384   6.423   1.914   5.689
  251POPC   C4B 3385   6.383   1.768   6.118
  252POPC   NC3 3386   1.569   1.969   3.814
  252POPC   PO4 3387   1.453   1.383   4.028
  252POPC   GL1 3388   1.418   1.621   4.397
  252POPC   GL2 3389   1.345   1.954   4.282
  252POPC   C1A 3390   1.202   1.637   4.830
  252POPC   D2A 3391   0.942   1.524   5.240
  252POPC   C3A 3392   1.149   1.585   5.675
  252POPC   C4A 3393   1.517   1.839   5.853
  252POPC   C1B 3394   1.040   2.076   4.607
  252POPC   C2B 3395   0.971   2.029   5.071
  252POPC   C3B 3396   1.268   2.029   5.419
  252POPC   C4B 3397   1.164   2.309   5.742
  253POPC   NC3 3398   0.250   3.705   3.928
  253POPC   PO4 3399   0.906   3.263   4.016
  253POPC   GL1 3400   0.628   3.267   4.355
  253POPC   GL2 3401   0.467   3.585   4.366
  253POPC   C1A 3402   0.525   3.309   4.788
  253POPC   D2A 3403   0.478   3.485   5.177
  253POPC   C3A 3404   0.666   3.209   5.480
  253POPC   C4A 3405   0.645   3.145   5.912
  253POPC   C1B 3406   0.391   3.860   4.706
  253POPC   C2B 3407   0.142   3.858   5.092
  253POPC   C3B 3408   0.215   3.790   5.508
  253POPC   C4B 3409   0.437   3.573   5.800
  254POPC   NC3 3410   3.902   9.751   3.474
  254POPC   PO4 3411   4.308   9.441   3.835
  254POPC   GL1 3412   4.456   9.379   4.273
  254POPC   GL2 3413   4.606   9.724   4.380
  254POPC   C1A 3414   4.252   9.501   4.677
  254POPC   D2A 3415   4.341   9.656   5.138
  254POPC   C3A 3416   4.085   9.429   5.467
  254POPC   C4A 3417   3.807   9.551   5.807
  254POPC   C1B 3418   4.351   9.996   4.720
  254POPC   C2B 3419   4.072   0.075   5.110
  254POPC   C3B 3420   4.084   9.933   5.558
  254POPC   C4B 3421   4.373   9.663   5.831
  255POPC   NC3 3422   2.658   9.151   4.101
  255POPC   PO4 3423   2.717   8.517   3.861
  255POPC   GL1 3424   2.677   8.658   4.300
  255POPC   GL2 3425   2.946   8.880   4.443
  255POPC   C1A 3426   2.430   8.702   4.695
  255POPC   D2A 3427   2.356   8.558   5.140
  255POPC   C3A 3428   2.517   8.853   5.456
  255POPC   C4A 3429   2.866   8.795   5.773
  255POPC   C1B 3430   2.800   9.064   4.851
  255POPC   C2B 3431   2.958   9.151   5.288
  255POPC   C3B 3432   3.295   8.876   5.468
  255POPC   C4B 3433   3.287   8.493   5.701
  256POPC   NC3 3434   0.337   9.054   3.831
  256POPC   PO4 3435   0.920   8.682   4.044
  256POPC   GL1 3436   0.628   8.919   4.224
  256POPC   GL2 3437   0.413   8.659   4.211
  256POPC   C1A 3438   0.498   8.990   4.639
  256POPC   D2A 3439   0.679   9.083   5.029
  256POPC   C3A 3440   0.559   8.906   5.417
  256POPC   C4A 3441   0.751   8.863   5.836
  256POPC   C1B 3442   0.126   8.630   4.586
  256POPC   C2B 3443   0.254   8.700   5.005
  256POPC   C3B 3444   0.066   8.759   5.385
  256POPC   C4B 3445   0.134   8.911   5.799
  257POPC   NC3 3446   6.388   1.211   3.735
  257POPC   PO4 3447   6.863   0.752   3.881
  257POPC   GL1 3448   6.888   1.044   4.237
  257POPC   GL2 3449   6.599   1.274   4.232
  257POPC   C1A 3450   6.906   1.163   4.682
  257POPC   D2A 3451   6.947   0.958   5.100
  257POPC   C3A 3452   6.800   1.179   5.464
  257POPC   C4A 3453   6.512   1.076   5.768
  257POPC   C1B 3454   6.420   1.287   4.654
  257POPC   C2B 3455   6.536   1.396   5.065
  257POPC   C3B 3456   6.316   1.452   5.475
  257POPC   C4B 3457   6.125   1.380   5.888
  258POPC   NC3 3458   5.240   1.491   3.586
  258POPC   PO4 3459   4.826   0.959   3.873
  258POPC   GL1 3460   5.183   1.019   4.221
  258POPC   GL2 3461   5.036   1.220   4.433
  258POPC   C1A 3462   5.431   0.987   4.667
  258POPC   D2A 3463   5.564   0.983   5.105
  258POPC   C3A 3464   5.186   1.006   5.357
  258POPC   C4A 3465   4.944   0.994   5.772
  258POPC   C1B 3466   4.981   1.189   4.871
  258POPC   C2B 3467   4.845   1.369   5.250
  258POPC   C3B 3468   5.109   1.444   5.620
  258POPC   C4B 3469   4.961   1.441   6.064
  259POPC   NC3 3470   6.464   7.478   3.926
  259POPC   PO4 3471   7.106   7.471   3.925
  259POPC   GL1 3472   7.105   7.446   4.389
  259POPC   GL2 3473   6.792   7.556   4.332
  259POPC   C1A 3474   7.079   7.455   4.851
  259POPC   D2A 3475   6.763   7.505   5.182
  259POPC   C3A 3476   6.755   7.358   5.613
  259POPC   C4A 3477   6.999   6.995   5.704
  259POPC   C1B 3478   6.501   7.511   4.657
  259POPC   C2B 3479   6.385   7.782   4.976
  259POPC   C3B 3480   6.368   7.759   5.409
  259POPC   C4B 3481   6.392   7.739   5.829
  260POPC   NC3 3482   6.168   1.722   3.876
  260POPC   PO4 3483   6.120   2.311   3.991
  260POPC   GL1 3484   5.890   1.971   4.237
  260POPC   GL2 3485   5.551   1.877   4.289
  260POPC   C1A 3486   5.865   1.748   4.667
  260POPC   D2A 3487   5.903   1.742   5.154
  260POPC   C3A 3488   5.922   1.810   5.642
  260POPC   C4A 3489   6.064   2.159   5.971
  260POPC   C1B 3490   5.414   1.991   4.747
  260POPC   C2B 3491   5.515   2.085   5.199
  260POPC   C3B 3492   5.411   1.860   5.586
  260POPC   C4B 3493   5.396   1.699   5.989
  261POPC   NC3 3494   0.677   8.256   4.032
  261POPC   PO4 3495   0.179   7.778   3.920
  261POPC   GL1 3496   0.442   7.861   4.262
  261POPC   GL2 3497   0.284   8.184   4.351
  261POPC   C1A 3498   0.504   7.926   4.721
  261POPC   D2A 3499   0.286   8.164   5.081
  261POPC   C3A 3500   0.224   7.986   5.524
  261POPC   C4A 3501   0.381   8.068   5.978
  261POPC   C1B 3502   0.573   8.441   4.669
  261POPC   C2B 3503   0.703   8.477   5.121
  261POPC   C3B 3504   0.495   8.426   5.552
  261POPC   C4B 3505   0.080   8.416   5.773
  262POPC   NC3 3506   9.942   8.183   3.909
  262POPC   PO4 3507   9.398   7.824   3.807
  262POPC   GL1 3508   9.570   7.983   4.199
  262POPC   GL2 3509   9.879   7.829   4.315
  262POPC   C1A 3510   9.466   7.854   4.654
  262POPC   D2A 3511   9.673   7.909   5.068
  262POPC   C3A 3512   9.476   7.896   5.501
  262POPC   C4A 3513   9.741   7.801   5.894
  262POPC   C1B 3514   9.835   8.200   4.593
  262POPC   C2B 3515   9.836   8.410   4.975
  262POPC   C3B 3516   9.773   8.315   5.389
  262POPC   C4B 3517   9.607   8.279   5.811
  263POPC   NC3 3518   9.566   0.525   3.858
  263POPC   PO4 3519   0.098   0.078   3.615
  263POPC   GL1 3520   9.891   0.127   4.095
  263POPC   GL2 3521   9.624   0.337   4.318
  263POPC   C1A 3522   9.962   0.113   4.604
  263POPC   D2A 3523   9.906   0.356   5.046
  263POPC   C3A 3524   9.945   0.200   5.513
  263POPC   C4A 3525   0.034   0.348   5.983
  263POPC   C1B 3526   9.561   0.654   4.664
  263POPC   C2B 3527   9.472   0.726   5.081
  263POPC   C3B 3528   9.725   0.686   5.447
  263POPC   C4B 3529   9.583   0.439   5.804
  264POPC   NC3 3530   4.270   8.988   3.932
  264POPC   PO4 3531   4.562   8.391   3.791
  264POPC   GL1 3532   4.441   8.640   4.250
  264POPC   GL2 3533   4.066   8.778   4.371
  264POPC   C1A 3534   4.434   8.997   4.624
  264POPC   D2A 3535   4.281   9.170   5.045
  264POPC   C3A 3536   4.574   9.268   5.396
  264POPC   C4A 3537   4.586   9.148   5.814
  264POPC   C1B 3538   4.154   8.632   4.842
  264POPC   C2B 3539   4.191   8.738   5.286
  264POPC   C3B 3540   4.195   8.844   5.726
  264POPC   C4B 3541   3.944   8.802   6.108
  265POPC   NC3 3542   8.390   5.854   3.837
  265POPC   PO4 3543   7.794   5.861   3.934
  265POPC   GL1 3544   8.127   5.742   4.289
  265POPC   GL2 3545   8.506   5.699   4.327
  265POPC   C1A 3546   8.216   5.720   4.783
  265POPC   D2A 3547   8.296   5.693   5.254
  265POPC   C3A 3548   8.005   5.863   5.600
  265POPC   C4A 3549   7.610   6.156   5.696
  265POPC   C1B 3550   8.605   6.029   4.717
  265POPC   C2B 3551   8.698   5.992   5.169
  265POPC   C3B 3552   8.487   6.082   5.566
  265POPC   C4B 3553   8.409   5.872   5.962
  266POPC   NC3 3554   8.752   0.388   3.743
  266POPC   PO4 3555   9.310   0.159   3.936
  266POPC   GL1 3556   9.110   0.432   4.174
  266POPC   GL2 3557   8.773   0.328   4.250
  266POPC   C1A 3558   9.170   0.374   4.590
  266POPC   D2A 3559   9.431   0.180   4.895
  266POPC   C3A 3560   9.395   0.274   5.345
  266POPC   C4A 3561   9.108   0.467   5.655
  266POPC   C1B 3562   8.710   0.552   4.658
  266POPC   C2B 3563   8.948   0.496   5.040
  266POPC   C3B 3564   8.696   0.401   5.381
  266POPC   C4B 3565   8.498   0.663   5.642
  267POPC   NC3 3566   6.565   2.322   3.815
  267POPC   PO4 3567   6.250   2.846   3.593
  267POPC   GL1 3568   6.428   2.764   4.045
  267POPC   GL2 3569   6.762   2.657   4.146
  267POPC   C1A 3570   6.403   2.564   4.492
  267POPC   D2A 3571   6.643   2.351   4.833
  267POPC   C3A 3572   6.554   2.393   5.278
  267POPC   C4A 3573   6.468   2.411   5.743
  267POPC   C1B 3574   6.818   2.830   4.596
  267POPC   C2B 3575   6.803   2.817   5.062
  267POPC   C3B 3576   6.769   2.825   5.536
  267POPC   C4B 3577   6.899   2.619   5.965
  268POPC   NC3 3578   1.083   9.169   4.082
  268POPC   PO4 3579   1.593   9.333   3.692
  268POPC   GL1 3580   1.573   9.106   4.173
  268POPC   GL2 3581   1.393   8.795   4.310
  268POPC   C1A 3582   1.455   9.224   4.613
  268POPC   D2A 3583   1.151   9.267   4.918
  268POPC   C3A 3584   1.322   9.247   5.331
  268POPC   C4A 3585   1.210   9.103   5.724
  268POPC   C1B 3586   1.098   8.798   4.692
  268POPC   C2B 3587   1.089   8.813   5.151
  268POPC   C3B 3588   1.020   8.581   5.515
  268POPC   C4B 3589   1.233   8.627   5.899
  269POPC   NC3 3590   1.735   2.660   3.985
  269POPC   PO4 3591   2.361   2.468   3.888
  269POPC   GL1 3592   2.269   2.562   4.327
  269POPC   GL2 3593   2.167   2.894   4.319
  269POPC   C1A 3594   2.309   2.652   4.817
  269POPC   D2A 3595   2.364   2.691   5.293
  269POPC   C3A 3596   2.209   2.575   5.722
  269POPC   C4A 3597   2.274   2.419   6.168
  269POPC   C1B 3598   1.968   3.003   4.710
  269POPC   C2B 3599   1.913   2.867   5.137
  269POPC   C3B 3600   1.897   2.951   5.584
  269POPC   C4B 3601   1.698   3.218   5.853
  270POPC   NC3 3602   0.566   6.574   3.921
  270POPC   PO4 3603   0.220   6.077   3.690
  270POPC   GL1 3604   0.447   6.135   4.142
  270POPC   GL2 3605   0.303   6.499   4.339
  270POPC   C1A 3606   0.570   6.166   4.593
  270POPC   D2A 3607   0.600   6.457   4.971
  270POPC   C3A 3608   0.661   6.461   5.432
  270POPC   C4A 3609   0.485   6.368   5.858
  270POPC   C1B 3610   0.102   6.482   4.773
  270POPC   C2B 3611   0.113   6.422   5.235
  270POPC   C3B 3612   0.221   6.702   5.586
  270POPC   C4B 3613   0.203   6.847   6.023
  271POPC   NC3 3614   9.813   7.461   3.885
  271POPC   PO4 3615   9.290   7.028   3.949
  271POPC   GL1 3616   9.414   7.159   4.324
  271POPC   GL2 3617   9.452   7.494   4.251
  271POPC   C1A 3618   9.297   7.379   4.726
  271POPC   D2A 3619   9.244   7.613   5.118
  271POPC   C3A 3620   9.266   7.420   5.545
  271POPC   C4A 3621   9.550   7.325   5.913
  271POPC   C1B 3622   9.775   7.425   4.593
  271POPC   C2B 3623   9.707   7.355   5.052
  271POPC   C3B 3624   9.798   7.499   5.472
  271POPC   C4B 3625   0.067   7.338   5.833
  272POPC   NC3 3626   7.097   0.349   3.857
  272POPC   PO4 3627   7.588   0.635   4.193
  272POPC   GL1 3628   7.182   0.596   4.302
  272POPC   GL2 3629   7.079   0.229   4.352
  272POPC   C1A 3630   7.026   0.653   4.686
  272POPC   D2A 3631   6.953   0.393   5.017
  272POPC   C3A 3632   7.176   0.368   5.416
  272POPC   C4A 3633   7.041   0.327   5.861
  272POPC   C1B 3634   7.377   0.261   4.719
  272POPC   C2B 3635   7.718   0.224   5.030
  272POPC   C3B 3636   7.711   0.265   5.452
  272POPC   C4B 3637   7.514   0.527   5.762
  273POPC   NC3 3638   9.527   9.770   3.876
  273POPC   PO4 3639   0.027   9.401   3.948
  273POPC   GL1 3640   9.877   9.639   4.341
  273POPC   GL2 3641   9.580   9.812   4.368
  273POPC   C1A 3642   9.705   9.741   4.833
  273POPC   D2A 3643   9.462   9.757   5.210
  273POPC   C3A 3644   9.720   9.731   5.566
  273POPC   C4A 3645   9.697   9.948   5.953
  273POPC   C1B 3646   9.515   9.363   4.583
  273POPC   C2B 3647   9.632   9.264   5.038
  273POPC   C3B 3648   9.432   9.292   5.465
  273POPC   C4B 3649   9.328   9.572   5.863
  274POPC   NC3 3650   0.565   2.079   3.866
  274POPC   PO4 3651   0.451   2.443   4.362
  274POPC   GL1 3652   0.589   1.995   4.386
  274POPC   GL2 3653   0.358   1.757   4.292
  274POPC   C1A 3654   0.638   1.736   4.777
  274POPC   D2A 3655   0.487   1.856   5.215
  274POPC   C3A 3656   0.781   1.953   5.579
  274POPC   C4A 3657   0.708   2.247   5.969
  274POPC   C1B 3658   0.127   1.884   4.681
  274POPC   C2B 3659   9.999   1.628   5.049
  274POPC   C3B 3660   0.023   1.732   5.463
  274POPC   C4B 3661   0.284   1.998   5.713
  275POPC   NC3 3662   9.629   1.093   3.793
  275POPC   PO4 3663   9.048   0.756   3.763
  275POPC   GL1 3664   9.353   0.887   4.163
  275POPC   GL2 3665   9.723   0.859   4.242
  275POPC   C1A 3666   9.455   1.180   4.536
  275POPC   D2A 3667   9.621   1.217   4.969
  275POPC   C3A 3668   9.377   1.177   5.356
  275POPC   C4A 3669   9.384   0.925   5.735
  275POPC   C1B 3670   9.952   0.964   4.653
  275POPC   C2B 3671   0.056   0.984   5.111
  275POPC   C3B 3672   9.887   1.229   5.478
  275POPC   C4B 3673   9.709   1.279   5.918
  276POPC   NC3 3674   3.685   1.203   3.930
  276POPC   PO4 3675   3.171   1.718   4.077
  276POPC   GL1 3676   3.492   1.549   4.357
  276POPC   GL2 3677   3.327   1.244   4.314
  276POPC   C1A 3678   3.579   1.486   4.842
  276POPC   D2A 3679   3.324   1.480   5.274
  276POPC   C3A 3680   3.470   1.357   5.719
  276POPC   C4A 3681   3.295   1.372   6.186
  276POPC   C1B 3682   3.589   1.036   4.591
  276POPC   C2B 3683   3.523   0.933   4.992
  276POPC   C3B 3684   3.437   0.770   5.399
  276POPC   C4B 3685   3.743   0.780   5.750
  277POPC   NC3 3686   2.386   2.941   3.842
  277POPC   PO4 3687   3.026   3.213   3.845
  277POPC   GL1 3688   2.793   2.968   4.137
  277POPC   GL2 3689   2.769   2.611   4.151
  277POPC   C1A 3690   2.638   2.918   4.548
  277POPC   D2A 3691   2.784   2.767   4.969
  277POPC   C3A 3692   2.741   3.014   5.340
  277POPC   C4A 3693   2.533   3.008   5.731
  277POPC   C1B 3694   2.710   2.410   4.573
  277POPC   C2B 3695   2.617   2.285   5.003
  277POPC   C3B 3696   2.806   2.458   5.391
  277POPC   C4B 3697   2.678   2.384   5.832
  278POPC   NC3 3698   0.554   0.383   3.812
  278POPC   PO4 3699   0.024   0.853   3.838
  278POPC   GL1 3700   0.172   0.580   4.209
  278POPC   GL2 3701   0.367   0.248   4.269
  278POPC   C1A 3702   0.240   0.545   4.676
  278POPC   D2A 3703   0.437   0.618   5.082
  278POPC   C3A 3704   0.251   0.631   5.503
  278POPC   C4A 3705   0.478   0.599   5.929
  278POPC   C1B 3706   0.469   0.052   4.685
  278POPC   C2B 3707   0.541   0.095   5.154
  278POPC   C3B 3708   0.452   0.173   5.629
  278POPC   C4B 3709   0.447   0.095   6.110
  279POPC   NC3 3710   4.092   2.729   3.877
  279POPC   PO4 3711   4.562   2.305   3.912
  279POPC   GL1 3712   4.526   2.678   4.187
  279POPC   GL2 3713   4.245   2.850   4.323
  279POPC   C1A 3714   4.546   2.647   4.673
  279POPC   D2A 3715   4.247   2.592   5.029
  279POPC   C3A 3716   4.364   2.296   5.349
  279POPC   C4A 3717   4.605   2.285   5.763
  279POPC   C1B 3718   4.033   2.905   4.680
  279POPC   C2B 3719   3.768   2.850   5.059
  279POPC   C3B 3720   3.787   2.656   5.482
  279POPC   C4B 3721   4.123   2.474   5.753
  280POPC   NC3 3722   4.326   1.944   3.732
  280POPC   PO4 3723   4.934   1.805   3.731
  280POPC   GL1 3724   4.630   1.886   4.156
  280POPC   GL2 3725   4.586   2.197   4.391
  280POPC   C1A 3726   4.419   1.743   4.536
  280POPC   D2A 3727   4.458   2.038   4.880
  280POPC   C3A 3728   4.527   1.827   5.247
  280POPC   C4A 3729   4.308   1.863   5.666
  280POPC   C1B 3730   4.164   2.324   4.559
  280POPC   C2B 3731   3.950   2.189   4.962
  280POPC   C3B 3732   3.882   2.137   5.432
  280POPC   C4B 3733   3.825   2.108   5.898
  281POPC   NC3 3734   3.584   9.357   4.032
  281POPC   PO4 3735   3.555   9.954   3.693
  281POPC   GL1 3736   3.526   9.924   4.169
  281POPC   GL2 3737   3.228   9.730   4.261
  281POPC   C1A 3738   3.727   9.750   4.587
  281POPC   D2A 3739   3.841   9.561   5.008
  281POPC   C3A 3740   3.649   9.805   5.332
  281POPC   C4A 3741   3.502   9.950   5.732
  281POPC   C1B 3742   3.228   9.697   4.744
  281POPC   C2B 3743   3.161   9.707   5.202
  281POPC   C3B 3744   3.056   9.724   5.659
  281POPC   C4B 3745   2.960   9.647   6.115
  282POPC   NC3 3746   8.636   4.918   3.583
  282POPC   PO4 3747   8.873   5.332   4.078
  282POPC   GL1 3748   9.164   5.353   4.373
  282POPC   GL2 3749   9.126   5.021   4.417
  282POPC   C1A 3750   9.233   5.369   4.809
  282POPC   D2A 3751   9.177   5.082   5.148
  282POPC   C3A 3752   9.149   5.308   5.529
  282POPC   C4A 3753   8.939   5.286   5.915
  282POPC   C1B 3754   8.823   5.017   4.782
  282POPC   C2B 3755   8.704   4.898   5.238
  282POPC   C3B 3756   8.651   4.883   5.705
  282POPC   C4B 3757   8.665   4.915   6.184
  283POPC   NC3 3758   3.544   6.642   4.027
  283POPC   PO4 3759   3.052   6.256   3.948
  283POPC   GL1 3760   3.289   6.355   4.392
  283POPC   GL2 3761   3.526   6.639   4.532
  283POPC   C1A 3762   3.325   6.301   4.879
  283POPC   D2A 3763   3.163   6.441   5.268
  283POPC   C3A 3764   3.245   6.434   5.702
  283POPC   C4A 3765   3.220   6.564   6.143
  283POPC   C1B 3766   3.485   6.775   4.988
  283POPC   C2B 3767   3.379   6.867   5.429
  283POPC   C3B 3768   3.556   6.802   5.842
  283POPC   C4B 3769   3.775   6.714   6.265
  284POPC   NC3 3770   1.164   9.538   3.652
  284POPC   PO4 3771   0.809   0.023   3.924
  284POPC   GL1 3772   0.885   9.894   4.361
  284POPC   GL2 3773   1.126   9.601   4.477
  284POPC   C1A 3774   0.959   9.965   4.792
  284POPC   D2A 3775   0.992   9.699   5.133
  284POPC   C3A 3776   0.844   9.860   5.490
  284POPC   C4A 3777   0.662   9.734   5.843
  284POPC   C1B 3778   1.409   9.699   4.855
  284POPC   C2B 3779   1.438   9.744   5.344
  284POPC   C3B 3780   1.236   9.640   5.783
  284POPC   C4B 3781   1.338   9.551   6.248
  285POPC   NC3 3782   4.395   0.947   3.700
  285POPC   PO4 3783   3.838   0.766   3.837
  285POPC   GL1 3784   3.970   0.897   4.274
  285POPC   GL2 3785   4.266   0.697   4.292
  285POPC   C1A 3786   4.078   0.813   4.751
  285POPC   D2A 3787   4.310   0.591   5.123
  285POPC   C3A 3788   4.172   0.575   5.564
  285POPC   C4A 3789   4.186   0.670   6.023
  285POPC   C1B 3790   4.520   0.514   4.662
  285POPC   C2B 3791   4.678   0.240   5.036
  285POPC   C3B 3792   4.514   0.203   5.468
  285POPC   C4B 3793   4.340   0.185   5.911
  286POPC   NC3 3794   2.284   8.284   3.783
  286POPC   PO4 3795   1.727   8.633   3.933
  286POPC   GL1 3796   1.850   8.499   4.340
  286POPC   GL2 3797   1.975   8.175   4.388
  286POPC   C1A 3798   1.965   8.488   4.801
  286POPC   D2A 3799   1.827   8.386   5.224
  286POPC   C3A 3800   2.015   8.575   5.589
  286POPC   C4A 3801   2.073   8.583   6.071
  286POPC   C1B 3802   1.748   8.003   4.777
  286POPC   C2B 3803   1.727   7.876   5.221
  286POPC   C3B 3804   1.748   7.859   5.656
  286POPC   C4B 3805   2.074   8.104   5.813
  287W        W 3806   8.766   1.886   0.255
  288W        W 3807   4.512   0.969  10.793
  289W        W 3808   8.962   1.376   2.284
  290W        W 3809   0.057   7.983   1.650
  291W        W 3810   8.836   3.410   9.168
  292W        W 3811   7.274   7.326   9.536
  293W        W 3812   0.725   0.163   0.957
  294W        W 3813   3.530   7.714  11.156
  295W        W 3814   1.645   8.385   1.936
  296W        W 3815   8.602   1.612   3.277
  297W        W 3816   6.912   2.055  11.705
  298W        W 3817   2.162   0.773   8.968
  299W        W 3818   7.983   4.050   3.702
  300W        W 3819   4.546   3.675   8.968
  301W        W 3820   1.238   1.004   9.545
  302W        W 3821   5.687   6.375   2.393
  303W        W 3822   6.752   9.074  11.820
  304W        W 3823   8.656   2.632   2.494
  305W        W 3824   6.217   8.269   9.248
  306W        W 3825   4.785   6.788   9.533
  307W        W 3826   4.269   6.790   3.644
  308W        W 3827   5.106   4.662   0.949
  309W        W 3828   0.425   8.553   2.616
  310W        W 3829   7.343   5.939   1.870
  311W        W 3830   8.052   6.347  10.490
  312W        W 3831   4.527   1.847   0.413
  313W        W 3832   6.171   2.718  10.943
  314W        W 3833   2.661   3.232   3.482
  315W        W 3834   6.463   3.007  11.830
  316W        W 3835   7.033   6.998   2.782
  317W        W 3836   8.241   1.941   3.468
  318W        W 3837   5.493   0.544   1.652
  319W        W 3838   4.867   5.224  10.488
  320W        W 3839   2.796   4.728   9.507
  321W        W 3840   5.469   2.256  11.398
  322W        W 3841   2.267   9.320  10.370
  323W        W 3842   9.258   8.863   3.743
  324W        W 3843   3.661   0.573   3.335
  325W        W 3844   6.360   8.417   1.228
  326W        W 3845   8.761   4.521  11.050
  327W        W 3846   4.586   4.186  11.831
  328W        W 3847   9.586   0.729   9.565
  329W        W 3848   5.209   6.629  11.825
  330W        W 3849   8.755   2.089   3.349
  331W        W 3850   6.955   9.250   9.999
  332W        W 3851   3.399   4.539   1.002
  333W        W 3852   9.260   5.171   9.543
  334W        W 3853   5.776   7.982   3.605
  335W        W 3854   2.662   6.964   3.341
  336W        W 3855   2.671   6.706   9.522
  337W        W 3856   5.195   1.211   2.268
  338W        W 3857   1.411   2.095  10.589
  339W        W 3858   4.564   5.094   9.523
  340W        W 3859   0.456   5.932   1.661
  341W        W 3860   8.324   8.508   8.794
  342W        W 3861   6.884   2.808   0.101
  343W        W 3862   3.578   9.079   0.332
  344W        W 3863   4.144   1.816   9.446
  345W        W 3864   1.541   5.212   3.490
  346W        W 3865   0.339   3.419   2.054
  347W        W 3866   9.437   6.298   0.259
  348W        W 3867   3.136   4.697   8.675
  349W        W 3868   3.262   4.198   2.836
  350W        W 3869   2.933   0.360  11.516
  351W        W 3870   5.367   9.878   9.698
  352W        W 3871   8.032   2.406   0.477
  353W        W 3872   4.633   7.790   8.527
  354W        W 3873   4.726   0.918   0.710
  355W        W 3874   9.886   3.283  10.493
  356W        W 3875   9.400   0.640  10.046
  357W        W 3876   5.056   3.282   9.578
  358W        W 3877   7.228   3.654   9.725
  359W        W 3878   0.884   7.480   0.168
  360W        W 3879   3.098   4.237   1.823
  361W        W 3880   8.907   7.402   9.904
  362W        W 3881   0.358   0.886   8.857
  363W        W 3882   3.498   2.387  10.931
  364W        W 3883   4.747   5.081   3.033
  365W        W 3884   9.404   8.553   1.296
  366W        W 3885   1.418   3.549  11.540
  367W        W 3886   4.951   7.110   9.146
  368W        W 3887   0.129   1.053   8.410
  369W        W 3888   4.769   7.802   1.864
  370W        W 3889   9.448   9.647  11.222
  371W        W 3890   6.087   3.253   2.441
  372W        W 3891   5.478   1.777  10.801
  373W        W 3892   5.540   9.901   1.477
  374W        W 3893   2.242   3.939  11.439
  375W        W 3894   4.524   5.076   0.084
  376W        W 3895   2.831   2.193   9.335
  377W        W 3896   2.597   0.959   2.290
  378W        W 3897   5.942   8.211   1.008
  379W        W 3898   2.218   7.946  11.561
  380W        W 3899   4.562   6.141   0.301
  381W        W 3900   8.423   0.215   0.256
  382W        W 3901   3.619   3.454   2.699
  383W        W 3902   2.328   8.121   1.285
  384W        W 3903   3.964   6.350   1.358
  385W        W 3904   7.073   4.641  11.077
  386W        W 3905   9.652   2.379   9.678
  387W        W 3906   4.277   0.036   8.664
  388W        W 3907   6.862   1.584   2.705
  389W        W 3908   4.820   2.572   8.546
  390W        W 3909   3.535   8.096   9.752
  391W        W 3910   9.337   7.576   1.289
  392W        W 3911   1.191   7.316   1.474
  393W        W 3912   4.027   2.814   8.565
  394W        W 3913   2.452   1.530  11.330
  395W        W 3914   8.769   4.819   0.469
  396W        W 3915   2.568   2.401   8.575
  397W        W 3916   0.618   9.593  11.522
  398W        W 3917   7.918   9.872  11.380
  399W        W 3918   1.890   2.984   9.906
  400W        W 3919   5.257   2.676  11.211
  401W        W 3920   0.388   8.640  11.194
  402W        W 3921   5.096   5.651   8.825
  403W        W 3922   2.745   8.136   2.975
  404W        W 3923   0.434   3.192   1.098
  405W        W 3924   3.812   4.649  11.090
  406W        W 3925   1.662   0.563  10.629
  407W        W 3926   6.811   4.787   8.755
  408W        W 3927   4.769   2.414   1.094
  409W        W 3928   7.918   5.213   2.484
  410W        W 3929   4.059   6.103   0.194
  411W        W 3930   8.483   2.079   9.265
  412W        W 3931   6.038   7.447   3.586
  413W        W 3932   5.584   7.327  10.204
  414W        W 3933   2.760   6.705   8.947
  415W        W 3934   8.040   2.397  11.946
  416W        W 3935   3.156   3.180   9.565
  417W        W 3936   5.092   4.512   0.402
  418W        W 3937   8.779   1.681   1.275
  419W        W 3938   0.264   4.501   3.102
  420W        W 3939   1.887   5.363   2.639
  421W        W 3940   2.874   2.553   0.644
  422W        W 3941   3.661   3.928   9.099
  423W        W 3942   0.282   5.590   9.429
  424W        W 3943   4.158   2.766   2.567
  425W        W 3944   1.751   2.546   0.178
  426W        W 3945   5.525   0.113   9.187
  427W        W 3946   1.882   4.247   8.874
  428W        W 3947   2.849   7.684   3.220
  429W        W 3948   3.216   8.579   9.013
  430W        W 3949   6.600   5.183   8.510
  431W        W 3950   9.322   2.958   3.724
  432W        W 3951   9.820   7.773   0.635
  433W        W 3952   3.069   2.191   2.046
  434W        W 3953   0.466   7.491  11.847
  435W        W 3954   8.340   0.660   9.007
  436W        W 3955   4.932   3.563   0.302
  437W        W 3956   8.832   8.995  11.164
  438W        W 3957   4.276   0.015   3.147
  439W        W 3958   5.994   7.623   2.621
  440W        W 3959   3.591   3.679   1.170
  441W        W 3960   2.117   7.437   1.938
  442W        W 3961   6.150   1.418   1.966
  443W        W 3962   8.301   7.333   9.770
  444W        W 3963   9.702   2.967   0.899
  445W        W 3964   2.857   0.922   2.728
  446W        W 3965   8.035   5.522  11.432
  447W        W 3966   7.140   6.765   0.852
  448W        W 3967   9.203   7.372  11.511
  449W        W 3968   7.922   1.677   0.822
  450W        W 3969   6.903   9.561   0.185
  451W        W 3970   0.772   6.582   0.000
  452W        W 3971   4.201   2.057   0.954
  453W        W 3972   8.196   1.454   3.027
  454W        W 3973   2.208   8.109   2.263
  455W        W 3974   1.762   4.873   8.374
  456W        W 3975   9.850   3.495   3.156
  457W        W 3976   6.486   8.368  10.748
  458W        W 3977   4.010   6.145   0.877
  459W        W 3978   4.091   5.225   1.531
  460W        W 3979   8.494   4.630  10.072
  461W        W 3980   8.319   3.606   9.154
  462W        W 3981   3.297   1.972   0.826
  463W        W 3982   5.455   7.493  11.634
  464W        W 3983   0.852   4.504   9.214
  465W        W 3984   6.894   1.220  11.800
  466W        W 3985   0.555   4.376   0.883
  467W        W 3986   9.525   1.878   9.540
  468W        W 3987   8.893   7.025  10.387
  469W        W 3988   9.986   1.241   8.861
  470W        W 3989   5.210   3.508  11.898
  471W        W 3990   9.014   9.132   8.993
  472W        W 3991   3.221   7.390  11.476
  473W        W 3992   1.341   1.367  11.463
  474W        W 3993   1.782   6.047   3.297
  475W        W 3994   4.477   4.503   2.763
  476W        W 3995   9.410   7.702   9.905
  477W        W 3996   9.898   6.077   8.873
  478W        W 3997   6.610   2.136  10.368
  479W        W 3998   7.128   7.994  11.275
  480W        W 3999   7.558   2.571  11.826
  481W        W 4000   6.812   4.394   3.584
  482W        W 4001   7.389   5.647   2.565
  483W        W 4002   4.169   5.663   1.037
  484W        W 4003   0.538   2.711  10.742
  485W        W 4004   6.131   3.196   0.707
  486W        W 4005   8.597   1.094   0.082
  487W        W 4006   6.464   6.858   2.032
  488W        W 4007   6.661   9.740   0.912
  489W        W 4008   8.609   0.609  10.495
  490W        W 4009   0.746   8.422   8.927
  491W        W 4010   1.600   1.539   1.844
  492W        W 4011   5.395   6.633  11.319
  493W        W 4012   5.278   2.995   1.601
  494W        W 4013   6.679   0.042   9.956
  495W        W 4014   4.097   8.006   0.211
  496W        W 4015   4.148   1.694  11.643
  497W        W 4016   7.298   0.313   9.216
  498W        W 4017   6.990   3.953   9.343
  499W        W 4018   3.879   1.832   1.426
  500W        W 4019   2.309   4.627   8.744
  501W        W 4020   2.919   4.175  10.604
  502W        W 4021   5.450   5.222  11.769
  503W        W 4022   2.867   1.082   0.024
  504W        W 4023   9.515   5.058   9.113
  505W        W 4024   4.907   4.235  10.524
  506W        W 4025   4.132   1.510  10.778
  507W        W 4026   2.600   4.003   0.886
  508W        W 4027   3.777   8.821  11.928
  509W        W 4028   6.221   6.240   9.779
  510W        W 4029   9.592   4.460   3.097
  511W        W 4030   4.786   4.853   2.574
  512W        W 4031   2.966   0.770   0.443
  513W        W 4032   4.935   3.617   3.561
  514W        W 4033   8.342   3.909   1.907
  515W        W 4034   1.522   5.100   2.994
  516W        W 4035   2.899   1.364   2.279
  517W        W 4036   9.146   0.858   1.585
  518W        W 4037   2.444   5.309   0.704
  519W        W 4038   3.231   7.482   9.126
  520W        W 4039   3.399   2.175  11.810
  521W        W 4040   8.894   6.369   1.538
  522W        W 4041   0.424   5.436   1.634
  523W        W 4042   8.456   9.824  11.131
  524W        W 4043   3.190   0.956  10.880
  525W        W 4044   6.860   2.588   3.050
  526W        W 4045   4.504   5.629  10.542
  527W        W 4046   3.860   5.356   8.972
  528W        W 4047   1.294   1.562   3.546
  529W        W 4048   0.354   9.714  11.979
  530W        W 4049   5.094   2.970  10.234
  531W        W 4050   5.929   2.447   3.539
  532W        W 4051   9.527   9.814   8.858
  533W        W 4052   9.241   3.731   9.336
  534W        W 4053   7.311   7.251  11.927
  535W        W 4054   2.340   7.438   3.336
  536W        W 4055   1.225   6.438  11.413
  537W        W 4056   0.543   0.254   9.955
  538W        W 4057   1.300   5.398  11.645
  539W        W 4058   5.603   8.637   0.151
  540W        W 4059   4.247   3.907   8.450
  541W        W 4060   1.405   3.490   1.577
  542W        W 4061   1.441   8.745   3.520
  543W        W 4062   2.591   5.352   4.034
  544W        W 4063   2.651   2.677  10.803
  545W        W 4064   8.455   2.641   1.673
  546W        W 4065   6.162   6.367   1.293
  547W        W 4066   6.769   5.683   1.295
  548W        W 4067   4.982   9.591   1.744
  549W        W 4068   8.052   0.182  11.881
  550W        W 4069   7.962   9.654   1.011
  551W        W 4070   1.429   3.474  11.020
  552W        W 4071   1.751   3.216   1.903
  553W        W 4072   7.616   2.342   1.264
  554W        W 4073   7.126   5.531   2.122
  555W        W 4074   9.664   5.339   1.995
  556W        W 4075   1.682   2.728  11.701
  557W        W 4076   8.500   1.484  10.018
  558W        W 4077   3.684   8.829   2.101
  559W        W 4078   4.991   8.059   0.171
  560W        W 4079   7.628   4.635   1.264
  561W        W 4080   2.411   7.026   2.025
  562W        W 4081   7.071   0.637   0.765
  563W        W 4082   5.952   0.003  10.407
  564W        W 4083   8.012   5.028   9.028
  565W        W 4084   5.882   7.618   9.833
  566W        W 4085   0.945   9.542   1.877
  567W        W 4086   2.002   3.075   2.757
  568W        W 4087   9.505   3.401   9.719
  569W        W 4088   6.572   8.878   1.172
  570W        W 4089   7.805   6.237   1.983
  571W        W 4090   5.059   6.965   1.459
  572W        W 4091   0.492   0.743   9.845
  573W        W 4092   4.480   3.017   3.643
  574W        W 4093   1.366   6.060   2.535
  575W        W 4094   7.020   4.516   1.798
  576W        W 4095   9.603   2.955  11.056
  577W        W 4096   1.138   4.640   9.633
  578W        W 4097   0.315   9.582  11.103
  579W        W 4098   6.773   4.366   9.077
  580W        W 4099   4.330   1.173   2.431
  581W        W 4100   9.493   2.954   1.463
  582W        W 4101   9.711   9.380   1.285
  583W        W 4102   9.609   6.118  11.046
  584W        W 4103   0.275   0.471  11.763
  585W        W 4104   6.966   5.089  11.278
  586W        W 4105   4.895   2.308   2.112
  587W        W 4106   1.367   6.446   1.430
  588W        W 4107   5.744   0.177   9.956
  589W        W 4108   6.073   0.857   2.801
  590W        W 4109   5.082   3.239  11.488
  591W        W 4110   8.203   7.206  11.505
  592W        W 4111   1.658   4.523   2.612
  593W        W 4112   3.643   6.364   2.253
  594W        W 4113   2.242   2.398  11.076
  595W        W 4114   9.007   4.680   0.907
  596W        W 4115   6.682   5.170   4.235
  597W        W 4116   1.127   5.388   8.426
  598W        W 4117   3.627   7.299  10.356
  599W        W 4118   2.829   0.864   1.803
  600W        W 4119   8.395   2.167   2.464
  601W        W 4120   2.214   8.806   0.691
  602W        W 4121   9.951   6.193   1.897
  603W        W 4122   5.759   5.860   1.252
  604W        W 4123   7.106   3.741   3.224
  605W        W 4124   4.760   3.260   3.218
  606W        W 4125   4.187   2.705   1.859
  607W        W 4126   0.003   4.665  10.454
  608W        W 4127   3.287   5.556   0.776
  609W        W 4128   4.183   0.544   8.682
  610W        W 4129   0.403   4.104   2.797
  611W        W 4130   0.846   4.286  11.722
  612W        W 4131   1.690   2.222  11.471
  613W        W 4132   1.158   8.010  11.203
  614W        W 4133   3.963   0.339  10.924
  615W        W 4134   5.661   7.976   2.759
  616W        W 4135   0.185   0.064   2.185
  617W        W 4136   1.248   1.242   2.062
  618W        W 4137   2.117   3.728  10.415
  619W        W 4138   8.443   2.919   2.115
  620W        W 4139   5.541   5.709   3.146
  621W        W 4140   8.296   8.437  10.623
  622W        W 4141   6.411   2.485   3.294
  623W        W 4142   9.928   5.737   0.985
  624W        W 4143   6.750   1.853  11.049
  625W        W 4144   5.295   2.046   1.939
  626W        W 4145   5.894   5.960  10.043
  627W        W 4146   7.562   8.270   9.357
  628W        W 4147   2.234   6.102   9.176
  629W        W 4148   7.273   0.740  11.812
  630W        W 4149   4.920   3.974   1.992
  631W        W 4150   3.875   5.583   0.145
  632W        W 4151   7.915   4.996   2.943
  633W        W 4152   7.148   0.001  10.987
  634W        W 4153   6.110   6.933   3.104
  635W        W 4154   5.048   7.471  10.265
  636W        W 4155   0.770   7.403   0.662
  637W        W 4156   9.447   9.948  10.802
  638W        W 4157   8.023   1.153  10.150
  639W        W 4158   5.324   6.825   3.658
  640W        W 4159   4.729   3.837   9.903
  641W        W 4160   5.257   5.523   0.691
  642W        W 4161   7.444   1.226  11.036
  643W        W 4162   2.104   7.985   0.438
  644W        W 4163   9.895   1.527  10.533
  645W        W 4164   5.394   1.010   1.835
  646W        W 4165   2.911   8.325  10.953
  647W        W 4166   6.119   8.546  10.408
  648W        W 4167   0.003   9.463   9.522
  649W        W 4168   9.339   6.078   0.715
  650W        W 4169   6.970   0.882   1.199
  651W        W 4170   4.645   4.596   1.207
  652W        W 4171   8.354   1.946   2.959
  653W        W 4172   9.466   8.504   9.703
  654W        W 4173   1.779   3.670   0.226
  655W        W 4174   7.198   3.514  11.984
  656W        W 4175   6.973   0.463   0.309
  657W        W 4176   4.247   3.482  11.961
  658W        W 4177   9.326   3.571   0.276
  659W        W 4178   8.746   6.649   9.161
  660W        W 4179   3.664   5.387   1.298
  661W        W 4180   3.045   9.454   3.122
  662W        W 4181   9.699   1.863   9.030
  663W        W 4182   2.331   7.657  11.057
  664W        W 4183   7.095   5.189   3.958
  665W        W 4184   5.575   9.523   1.121
  666W        W 4185   9.251   3.291   1.778
  667W        W 4186   4.613   6.113   3.184
  668W        W 4187   0.398   7.104   9.729
  669W        W 4188   2.000   6.360   1.734
  670W        W 4189   2.039   0.436  10.983
  671W        W 4190   2.705   0.397   1.153
  672W        W 4191   3.869   2.972  11.337
  673W        W 4192   5.660   9.105   9.252
  674W        W 4193   5.452   7.248   0.434
  675W        W 4194   8.030   6.661  11.859
  676W        W 4195   6.092   7.566  10.320
  677W        W 4196   7.633   6.109   0.227
  678W        W 4197   2.952   1.307   3.480
  679W        W 4198   6.670   1.492   0.908
  680W        W 4199   3.586   3.367   3.712
  681W        W 4200   9.478   5.317   1.384
  682W        W 4201   3.568   0.762   1.222
  683W        W 4202   4.938   2.335   1.588
  684W        W 4203   5.692   7.195   3.126
  685W        W 4204   9.916   0.841  11.803
  686W        W 4205   5.166   7.549   0.072
  687W        W 4206   6.631   5.598   9.363
  688W        W 4207   2.409   9.015   0.250
  689W        W 4208   2.201   5.493  11.677
  690W        W 4209   8.812   9.050   2.798
  691W        W 4210   6.757   4.488  10.073
  692W        W 4211   4.013   9.163   2.777
  693W        W 4212   8.328   8.497   3.269
  694W        W 4213   2.284   7.607   2.396
  695W        W 4214   6.380   2.182  10.957
  696W        W 4215   4.197   1.441  10.255
  697W        W 4216   6.364   1.557   2.852
  698W        W 4217   4.599   0.748   1.180
  699W        W 4218   4.193   9.794   1.439
  700W        W 4219   5.395   7.084  11.935
  701W        W 4220   5.172   2.821  10.722
  702W        W 4221   0.101   9.535  11.574
  703W        W 4222   7.961   5.078  11.986
  704W        W 4223   4.337   5.092   2.714
  705W        W 4224   4.520   6.666   3.190
  706W        W 4225   3.889   3.933  10.410
  707W        W 4226   3.980   4.698   3.962
  708W        W 4227   0.859   9.910   9.741
  709W        W 4228   9.428   1.343   0.319
  710W        W 4229   9.855   3.841   0.638
  711W        W 4230   2.733   0.050  10.532
  712W        W 4231   3.313   4.925   8.205
  713W        W 4232   9.917   7.046   8.914
  714W        W 4233   2.304   8.417   8.949
  715W        W 4234   8.970   7.760   3.449
  716W        W 4235   4.262   3.861  11.608
  717W        W 4236   9.347   7.017  10.631
  718W        W 4237   5.697   6.437   1.038
  719W        W 4238   3.419   5.419   0.309
  720W        W 4239   5.628   7.809  10.392
  721W        W 4240   8.962   7.473   2.293
  722W        W 4241   8.743   4.822   3.077
  723W        W 4242   9.828   1.552   3.059
  724W        W 4243   2.864   1.475  11.658
  725W        W 4244   7.679   3.101   3.178
  726W        W 4245   5.138   5.419   3.083
  727W        W 4246   4.439   0.113   2.370
  728W        W 4247   9.407   0.259   9.703
  729W        W 4248   9.741   2.363  10.933
  730W        W 4249   7.620   5.271  11.634
  731W        W 4250   3.123   6.905   1.211
  732W        W 4251   8.850   6.240   0.823
  733W        W 4252   5.088   2.044   1.188
  734W        W 4253   4.347   5.780   3.469
  735W        W 4254   6.703   1.242   3.071
  736W        W 4255   3.818   4.608   0.054
  737W        W 4256   8.406   3.840   2.400
  738W        W 4257   8.109   5.870   1.141
  739W        W 4258   4.407   2.566   1.415
  740W        W 4259   7.182   7.266   0.763
  741W        W 4260   3.851   3.618   9.888
  742W        W 4261   8.956   4.602   0.028
  743W        W 4262   3.574   7.824  10.281
  744W        W 4263   4.056   8.231   1.501
  745W        W 4264   9.024   8.320   2.118
  746W        W 4265   7.551   8.948  10.500
  747W        W 4266   9.094   4.188   0.878
  748W        W 4267   0.266   2.957   3.525
  749W        W 4268   4.810   2.786  11.431
  750W        W 4269   1.750   0.654   2.271
  751W        W 4270   7.827   1.237  10.639
  752W        W 4271   2.841   3.364   2.965
  753W        W 4272   4.082   0.846  11.050
  754W        W 4273   2.770   8.058   1.633
  755W        W 4274   3.676   4.489   9.410
  756W        W 4275   7.537   4.424   3.080
  757W        W 4276   7.906   4.667   0.310
  758W        W 4277   9.797   7.685   1.982
  759W        W 4278   8.365   4.569  11.447
  760W        W 4279   1.474   0.556   9.409
  761W        W 4280   5.106   2.637   2.661
  762W        W 4281   8.662   6.119  11.941
  763W        W 4282   0.046   5.584   8.980
  764W        W 4283   9.009   7.044   9.390
  765W        W 4284   3.320   9.233   1.356
  766W        W 4285   0.416   6.624   9.927
  767W        W 4286   4.567   5.760   2.259
  768W        W 4287   7.834   1.870   1.311
  769W        W 4288   3.236   3.559  11.905
  770W        W 4289   7.127   6.458   8.337
  771W        W 4290   2.471   2.110  10.096
  772W        W 4291   7.011   6.372   8.823
  773W        W 4292   5.058   9.864   9.239
  774W        W 4293   2.392   1.893  10.960
  775W        W 4294   8.813   6.235  10.557
  776W        W 4295   7.360   3.112   2.603
  777W        W 4296   5.170   3.952  10.151
  778W        W 4297   2.640   7.998  11.276
  779W        W 4298   5.881   2.272  11.046
  780W        W 4299   9.155   9.340  11.499
  781W        W 4300   7.167   6.617   3.914
  782W        W 4301   8.509   7.946  11.022
  783W        W 4302   0.032   1.329  10.093
  784W        W 4303   1.706   3.738   0.738
  785W        W 4304   0.938   8.882   3.584
  786W        W 4305   2.042   3.392   3.179
  787W        W 4306   9.521   8.138   2.018
  788W        W 4307   9.368   4.872  11.767
  789W        W 4308   3.067   3.789   0.988
  790W        W 4309   2.314   3.853   1.747
  791W        W 4310   8.355   8.788   0.211
  792W        W 4311   5.135   8.750  10.928
  793W        W 4312   6.238   9.868   0.264
  794W        W 4313   5.914   1.620   8.481
  795W        W 4314   2.738   4.464   2.096
  796W        W 4315   2.786   2.055   0.886
  797W        W 4316   0.368   6.146   3.199
  798W        W 4317   6.720   9.272   2.272
  799W        W 4318   9.599   7.557  11.766
  800W        W 4319   4.250   8.782   8.919
  801W        W 4320   2.905   0.442   9.329
  802W        W 4321   8.713   6.428  11.211
  803W        W 4322   2.682   3.717  10.676
  804W        W 4323   5.381   0.862  11.069
  805W        W 4324   5.617   1.801   2.255
  806W        W 4325   5.196   8.835  10.440
  807W        W 4326   1.401   0.259   8.918
  808W        W 4327   6.011   8.056   3.141
  809W        W 4328   6.964   2.536   9.825
  810W        W 4329   3.494   4.892   3.825
  811W        W 4330   3.747   1.355   8.643
  812W        W 4331   9.927   6.859   9.955
  813W        W 4332   3.876   7.992   9.019
  814W        W 4333   6.840   2.783  10.253
  815W        W 4334   1.785   5.651   9.543
  816W        W 4335   8.889   0.739   8.988
  817W        W 4336   0.463   1.610   9.846
  818W        W 4337   3.317   8.496  10.678
  819W        W 4338   4.738   7.511   2.325
  820W        W 4339   3.855   9.787  11.804
  821W        W 4340   2.714   3.603   0.091
  822W        W 4341   5.012   6.370   0.218
  823W        W 4342   3.519   0.597   2.194
  824W        W 4343   5.239   5.687   1.175
  825W        W 4344   8.247   4.320   2.330
  826W        W 4345   6.635   8.499   1.778
  827W        W 4346   3.519   9.344   8.606
  828W        W 4347   7.291   1.987   1.447
  829W        W 4348   3.756   9.012   1.584
  830W        W 4349   8.963   9.960  10.976
  831W        W 4350   3.138   8.179   3.298
  832W        W 4351   9.952   1.731   2.597
  833W        W 4352   6.823   5.954   9.024
  834W        W 4353   0.318   0.010  11.545
  835W        W 4354   4.827   1.863   1.826
  836W        W 4355   6.601   8.771  10.444
  837W        W 4356   1.166   0.371  10.708
  838W        W 4357   6.439   2.711  10.530
  839W        W 4358   2.732   9.216  10.628
  840W        W 4359   6.269   3.667   0.895
  841W        W 4360   0.493   1.379  11.293
  842W        W 4361   4.510   9.218   2.758
  843W        W 4362   6.486   9.291   2.718
  844W        W 4363   5.803   4.565  10.467
  845W        W 4364   9.643   1.767   0.128
  846W        W 4365   6.108   9.063  11.166
  847W        W 4366   2.184   3.850   9.033
  848W        W 4367   7.645   2.591  11.322
  849W        W 4368   2.722   6.922   2.798
  850W        W 4369   1.354   3.825   9.299
  851W        W 4370   0.860   2.838  11.523
  852W        W 4371   2.101   0.974   0.755
  853W        W 4372   6.191   5.949   1.620
  854W        W 4373   0.627   2.814   9.540
  855W        W 4374   4.238   2.791   9.623
  856W        W 4375   9.790   0.639   3.443
  857W        W 4376   7.953   7.385   0.357
  858W        W 4377   9.449   8.630  10.212
  859W        W 4378   5.281   5.515   0.176
  860W        W 4379   2.697   3.344   9.710
  861W        W 4380   8.620   3.357   3.257
  862W        W 4381   8.252   1.967   1.677
  863W        W 4382   4.063   8.523   3.893
  864W        W 4383   8.302   3.228  11.434
  865W        W 4384   9.558   3.053   0.292
  866W        W 4385   3.914   2.464  11.240
  867W        W 4386   8.046   6.021   9.586
  868W        W 4387   3.569   4.399   3.987
  869W        W 4388   7.405   4.805   0.376
  870W        W 4389   5.238   2.259   0.185
  871W        W 4390   4.057   7.972   9.533
  872W        W 4391   7.832   1.655  10.311
  873W        W 4392   0.943   9.264   9.514
  874W        W 4393   4.953   5.986   8.449
  875W        W 4394   9.465   1.560   9.950
  876W        W 4395   6.557   2.371   0.895
  877W        W 4396   7.108   6.567   1.344
  878W        W 4397   7.640   3.751   1.956
  879W        W 4398   9.107   9.763  10.458
  880W        W 4399   9.931   4.775   0.856
  881W        W 4400   2.152   9.666   2.098
  882W        W 4401   0.351   4.500   1.715
  883W        W 4402   7.296   2.195   3.232
  884W        W 4403   2.150   2.987  11.447
  885W        W 4404   7.752   3.640   9.621
  886W        W 4405   1.382   9.488   2.611
  887W        W 4406   6.274   6.189   4.019
  888W        W 4407   8.610   5.069  10.343
  889W        W 4408   9.043   4.324  10.627
  890W        W 4409   4.523   7.747  11.364
  891W        W 4410   6.466   1.121   2.623
  892W        W 4411   7.860   0.176   1.039
  893W        W 4412   8.389   3.645  10.200
  894W        W 4413   8.967   4.717  10.254
  895W        W 4414   3.200   6.684  10.854
  896W        W 4415   6.412   6.958   3.542
  897W        W 4416   9.286   2.577  10.841
  898W        W 4417   9.968   9.914   9.269
  899W        W 4418   0.664   4.618  10.856
  900W        W 4419   4.201   4.324  10.628
  901W        W 4420   4.710   2.303   9.068
  902W        W 4421   0.241   3.899   2.249
  903W        W 4422   7.179   2.763  10.639
  904W        W 4423   1.788   6.143   1.262
  905W        W 4424   0.120   5.384   8.342
  906W        W 4425   2.482   3.146   0.189
  907W        W 4426   4.758   6.627   1.996
  908W        W 4427   1.494   8.616   2.803
  909W        W 4428   5.060   0.965   3.298
  910W        W 4429   0.752   7.945   0.012
  911W        W 4430   9.308   7.512   2.706
  912W        W 4431   6.552   7.094   2.949
  913W        W 4432   5.075   4.031  11.942
  914W        W 4433   3.030   7.394   2.854
  915W        W 4434   6.896   3.063   2.837
  916W        W 4435   7.486   1.264   0.495
  917W        W 4436   7.707   9.974   0.334
  918W        W 4437   3.210   7.881   2.838
  919W        W 4438   4.182   6.792   1.441
  920W        W 4439   6.084   3.319   9.180
  921W        W 4440   2.556   8.742   2.369
  922W        W 4441   0.948   7.609  11.662
  923W        W 4442   5.180   8.890   9.144
  924W        W 4443   0.995   5.712  10.895
  925W        W 4444   4.402   4.071   1.951
  926W        W 4445   6.219   5.262   9.403
  927W        W 4446   3.848   9.862   1.025
  928W        W 4447   5.571   0.634   0.755
  929W        W 4448   0.601   7.426  10.899
  930W        W 4449   6.687   9.987   0.474
  931W        W 4450   6.718   0.312   3.529
  932W        W 4451   6.312   4.114   8.394
  933W        W 4452   6.495   4.565   0.512
  934W        W 4453   0.539   3.514  11.776
  935W        W 4454   2.575   0.719   0.782
  936W        W 4455   2.017   2.640   9.557
  937W        W 4456   0.174   0.560  10.739
  938W        W 4457   3.273   2.281   3.503
  939W        W 4458   5.697   2.095  10.422
  940W        W 4459   9.970   2.185  11.488
  941W        W 4460   9.590   1.461   8.628
  942W        W 4461   3.235   3.653  11.021
  943W        W 4462   1.286   3.873   1.913
  944W        W 4463   4.773   2.821   0.791
  945W        W 4464   5.053   9.840   1.271
  946W        W 4465   3.992   3.412  10.456
  947W        W 4466   2.564   3.370  11.563
  948W        W 4467   0.081   6.562   8.941
  949W        W 4468   3.338   1.366  10.043
  950W        W 4469   5.280   6.460   0.700
  951W        W 4470   9.455   2.552  11.334
  952W        W 4471   9.605   7.108   3.541
  953W        W 4472   1.617   2.220   2.487
  954W        W 4473   3.279   3.066   2.372
  955W        W 4474   5.730   1.852   2.767
  956W        W 4475   0.337   1.003   3.388
  957W        W 4476   4.777   5.488   2.671
  958W        W 4477   4.347   7.673   1.131
  959W        W 4478   6.152   7.212  11.435
  960W        W 4479   8.647   2.390   9.646
  961W        W 4480   1.409   9.310   9.758
  962W        W 4481   4.870   9.242  10.482
  963W        W 4482   5.901   0.971   1.797
  964W        W 4483   6.635   3.855   3.435
  965W        W 4484   2.735   0.864  10.648
  966W        W 4485   1.857   6.942   0.870
  967W        W 4486   3.167   7.073   2.503
  968W        W 4487   9.828   4.419   1.262
  969W        W 4488   8.523   4.724   1.400
  970W        W 4489   2.293   1.346  10.863
  971W        W 4490   5.803   4.994   1.358
  972W        W 4491   7.543   6.284   1.552
  973W        W 4492   0.717   5.759   3.210
  974W        W 4493   2.832   0.664  11.118
  975W        W 4494   4.066   1.380   1.592
  976W        W 4495   7.414   6.246   9.572
  977W        W 4496   8.954   6.210   2.703
  978W        W 4497   0.535   7.688   3.136
  979W        W 4498   9.760   0.330   2.137
  980W        W 4499   1.965   9.898  11.952
  981W        W 4500   2.069   5.020   1.785
  982W        W 4501   9.078   7.210   3.528
  983W        W 4502   5.787   6.677   2.783
  984W        W 4503   1.683   2.311   1.432
  985W        W 4504   1.584   5.152   1.078
  986W        W 4505   7.428   3.008  11.528
  987W        W 4506   9.432   5.764   1.118
  988W        W 4507   0.746   7.850   8.828
  989W        W 4508   1.773   5.239  11.751
  990W        W 4509   3.307   8.233   0.408
  991W        W 4510   3.038   7.806  11.015
  992W        W 4511   9.576   5.038  10.393
  993W        W 4512   1.840   8.216   2.935
  994W        W 4513   6.016   1.530   2.454
  995W        W 4514   3.335   3.859  11.493
  996W        W 4515   8.837   3.319  10.490
  997W        W 4516   2.916   2.900   3.177
  998W        W 4517   3.106   9.452   2.338
  999W        W 4518   2.773   1.210  11.051
 1000W        W 4519   1.290   3.318   9.319
 1001W        W 4520   6.988   8.002   0.186
 1002W        W 4521   2.360   8.964  11.382
 1003W        W 4522   3.086   6.589   9.823
 1004W        W 4523   6.605   1.368   1.762
 1005W        W 4524   6.972   4.231   2.228
 1006W        W 4525   9.892   8.260   0.822
 1007W        W 4526   5.082   3.623   8.737
 1008W        W 4527   2.145   1.845   0.323
 1009W        W 4528   4.214   8.344   9.168
 1010W        W 4529   7.948   1.764   3.849
 1011W        W 4530   0.624   0.796   1.184
 1012W        W 4531   6.045   8.522   8.831
 1013W        W 4532   3.112   8.550   2.537
 1014W        W 4533   2.964   1.800   0.461
 1015W        W 4534   9.334   7.932  11.994
 1016W        W 4535   9.949   8.431  11.511
 1017W        W 4536   5.662   8.053   1.818
 1018W        W 4537   1.264   4.029  11.473
 1019W        W 4538   9.100   5.220  10.283
 1020W        W 4539   1.192   0.262   2.675
 1021W        W 4540   2.388   6.677   1.667
 1022W        W 4541   4.088   1.885  11.180
 1023W        W 4542   3.980   8.023   3.407
 1024W        W 4543   8.388   1.222   0.526
 1025W        W 4544   9.822   4.605  11.760
 1026W        W 4545   5.648   0.761  11.897
 1027W        W 4546   3.962   4.849   8.846
 1028W        W 4547   6.602   4.734   2.819
 1029W        W 4548   6.317   5.277   3.874
 1030W        W 4549   9.000   6.475   9.581
 1031W        W 4550   9.082   8.596  10.941
 1032W        W 4551   2.834   2.744   0.171
 1033W        W 4552   9.451   4.781   2.726
 1034W        W 4553   8.606   6.070   1.250
 1035W        W 4554   3.016   6.871  11.431
 1036W        W 4555   8.004   2.775   2.950
 1037W        W 4556   2.113   4.540   1.330
 1038W        W 4557   5.538   3.175   0.074
 1039W        W 4558   5.594   2.235   0.562
 1040W        W 4559   9.806   5.261   0.929
 1041W        W 4560   1.179   5.487   3.145
 1042W        W 4561   6.056   3.517  11.387
 1043W        W 4562   2.223   2.851   9.140
 1044W        W 4563   5.423   4.341  10.756
 1045W        W 4564   4.586   8.285   8.718
 1046W        W 4565   0.759   8.600   1.838
 1047W        W 4566   8.746   9.980   2.035
 1048W        W 4567   1.217   9.953   0.835
 1049W        W 4568   3.588   2.052  11.303
 1050W        W 4569   5.622   5.199   3.097
 1051W        W 4570   4.158   8.695  11.128
 1052W        W 4571   6.800   9.455   1.803
 1053W        W 4572   3.405   2.627   0.504
 1054W        W 4573   0.218   4.349  11.555
 1055W        W 4574   5.212   7.992   2.091
 1056W        W 4575   7.496   7.565   2.311
 1057W        W 4576   7.882   0.621   0.772
 1058W        W 4577   4.197   4.255   2.389
 1059W        W 4578   4.247   3.663   1.667
 1060W        W 4579   4.136   9.948  10.600
 1061W        W 4580   7.884   2.983  10.237
 1062W        W 4581   3.174   9.019   9.783
 1063W        W 4582   6.916   7.001   3.289
 1064W        W 4583   8.247   6.400  10.978
 1065W        W 4584   9.397   4.063   0.491
 1066W        W 4585   5.323   4.436  10.268
 1067W        W 4586   7.097   9.521   0.656
 1068W        W 4587   3.807   9.250   2.333
 1069W        W 4588   3.538   1.830   8.721
 1070W        W 4589   9.823   3.922  11.088
 1071W        W 4590   4.885   5.379  11.869
 1072W        W 4591   6.971   8.610  10.822
 1073W        W 4592   9.720   3.877   0.131
 1074W        W 4593   4.216   2.699  10.900
 1075W        W 4594   1.209   6.672  10.604
 1076W        W 4595   1.001   3.264   0.422
 1077W        W 4596   1.646   8.541  11.763
 1078W        W 4597   1.291   9.739   9.527
 1079W        W 4598   5.560   8.999   1.006
 1080W        W 4599   0.174   7.280  11.174
 1081W        W 4600   0.200   5.942  11.697
 1082W        W 4601   7.598   4.669   1.778
 1083W        W 4602   9.771   5.631  11.775
 1084W        W 4603   4.467   2.205  11.648
 1085W        W 4604   8.274   4.653  10.975
 1086W        W 4605   3.542   5.959   3.000
 1087W        W 4606   4.258   6.872   9.701
 1088W        W 4607   5.188   0.563  11.460
 1089W        W 4608   1.047   1.568   1.736
 1090W        W 4609   5.310   1.183   9.248
 1091W        W 4610   6.744   8.328  11.192
 1092W        W 4611   1.987   2.193   9.929
 1093W        W 4612   8.901   5.717  10.444
 1094W        W 4613   7.106   3.488   0.855
 1095W        W 4614   9.457   8.382  10.669
 1096W        W 4615   8.032   4.986  11.455
 1097W        W 4616   5.616   0.673  10.071
 1098W        W 4617   2.464   3.644   3.122
 1099W        W 4618   7.665   3.916  10.811
 1100W        W 4619   6.220   4.760   9.561
 1101W        W 4620   9.309   9.517   0.898
 1102W        W 4621   4.709   8.674  10.458
 1103W        W 4622   7.033   7.929   2.689
 1104W        W 4623   9.793   7.347   1.027
 1105W        W 4624   6.946   5.308   0.232
 1106W        W 4625   0.672   6.551   2.151
 1107W        W 4626   3.693   2.477   2.677
 1108W        W 4627   7.506   1.523   1.497
 1109W        W 4628   2.023   9.685   3.231
 1110W        W 4629   3.675   8.510   1.708
 1111W        W 4630   3.793   4.187  10.874
 1112W        W 4631   3.556   8.840   2.650
 1113W        W 4632   6.512   6.614   3.151
 1114W        W 4633   8.884   6.481  11.687
 1115W        W 4634   0.399   8.516   9.317
 1116W        W 4635   3.223   9.806   2.689
 1117W        W 4636   0.419   0.492   3.351
 1118W        W 4637   1.124   8.887   0.350
 1119W        W 4638   8.494   5.457  10.693
 1120W        W 4639   6.197   5.577   3.098
 1121W        W 4640   3.766   9.499   9.011
 1122W        W 4641   0.814   8.756  11.493
 1123W        W 4642   4.225   0.602  10.546
 1124W        W 4643   2.035   6.483  11.375
 1125W        W 4644   1.079   4.940  10.527
 1126W        W 4645   6.422   8.131  11.533
 1127W        W 4646   3.774   5.928  10.721
 1128W        W 4647   9.786   4.082  11.651
 1129W        W 4648   0.576   7.567   2.653
 1130W        W 4649   3.196   7.278   0.876
 1131W        W 4650   0.083   5.429   2.893
 1132W        W 4651   1.431   2.953   0.164
 1133W        W 4652   3.689   5.930   0.518
 1134W        W 4653   8.536   8.915   9.032
 1135W        W 4654   9.748   6.370   9.278
 1136W        W 4655   9.109   5.727   2.812
 1137W        W 4656   8.484   2.753  11.462
 1138W        W 4657   6.875   4.973  10.279
 1139W        W 4658   1.624   3.484  10.548
 1140W        W 4659   8.646   3.956   0.921
 1141W        W 4660   7.392   9.447  11.726
 1142W        W 4661   0.380   2.592   9.946
 1143W        W 4662   5.489   7.071   1.159
 1144W        W 4663   8.927   1.235   3.268
 1145W        W 4664   9.909   0.139   8.803
 1146W        W 4665   4.886   3.392   1.501
 1147W        W 4666   4.916   3.002   4.033
 1148W        W 4667   3.101   6.246   2.252
 1149W        W 4668   8.018   4.000   1.444
 1150W        W 4669   3.068   3.385   2.030
 1151W        W 4670   0.612   9.776   2.216
 1152W        W 4671   1.375   9.340   2.130
 1153W        W 4672   1.164   4.545  10.835
 1154W        W 4673   2.186   9.274   3.478
 1155W        W 4674   4.775   3.740  10.403
 1156W        W 4675   2.135   7.109  10.410
 1157W        W 4676   6.296   6.449   2.304
 1158W        W 4677   1.111   7.128  10.368
 1159W        W 4678   6.888   9.531  11.676
 1160W        W 4679   8.436   7.815   9.943
 1161W        W 4680   2.669   7.883   2.133
 1162W        W 4681   6.282   3.254   1.214
 1163W        W 4682   3.023   9.336   1.848
 1164W        W 4683   4.900   2.168  10.809
 1165W        W 4684   8.937   6.680   1.119
 1166W        W 4685   1.191   6.193  10.959
 1167W        W 4686   6.516   2.672   9.561
 1168W        W 4687   1.893   5.241   9.205
 1169W        W 4688   3.193   5.185   2.410
 1170W        W 4689   6.809   7.231  11.891
 1171W        W 4690   7.406   9.865  11.406
 1172W        W 4691   0.544   6.194  10.204
 1173W        W 4692   6.107   0.010   2.638
 1174W        W 4693   9.223   3.675   0.809
 1175W        W 4694   7.528   7.646   0.199
 1176W        W 4695   2.958   2.885   1.416
 1177W        W 4696   0.954   2.583   0.772
 1178W        W 4697   3.797   6.699   8.859
 1179W        W 4698   5.579   4.592   0.497
 1180W        W 4699   3.834   4.064   0.856
 1181W        W 4700   4.552   8.214   0.415
 1182W        W 4701   9.832   9.111   0.304
 1183W        W 4702   1.950   8.721   2.988
 1184W        W 4703   8.828   3.840   3.190
 1185W        W 4704   7.696   1.391   2.902
 1186W        W 4705   4.685   4.008  11.365
 1187W        W 4706   4.845   2.167   2.582
 1188W        W 4707   3.656   3.460   2.183
 1189W        W 4708   3.174   3.285   3.369
 1190W        W 4709   9.771   1.538   3.603
 1191W        W 4710   0.402   9.486   9.170
 1192W        W 4711   2.567   0.524   2.542
 1193W        W 4712   3.130   7.579  11.943
 1194W        W 4713   2.577   6.178   1.654
 1195W        W 4714   7.229   8.969   9.675
 1196W        W 4715   5.611   8.351  10.344
 1197W        W 4716   6.890   4.653  11.556
 1198W        W 4717   8.487   3.491   0.181
 1199W        W 4718   4.497   8.285   2.718
 1200W        W 4719   3.752   8.256  11.908
 1201W        W 4720   7.101   8.688  11.831
 1202W        W 4721   7.732   9.162   8.779
 1203W        W 4722   2.103   6.554  10.045
 1204W        W 4723   3.756   8.095   0.605
 1205W        W 4724   1.593   4.596   1.253
 1206W        W 4725   1.811   1.693   8.602
 1207W        W 4726   5.185   3.064   2.388
 1208W        W 4727   3.608   6.368   7.959
 1209W        W 4728   5.169   7.984  10.178
 1210W        W 4729   9.609   3.401   0.658
 1211W        W 4730   8.112   5.421   1.890
 1212W        W 4731   1.266   0.772  10.382
 1213W        W 4732   8.773   6.447   3.468
 1214W        W 4733   8.810   3.791   9.965
 1215W        W 4734   9.469   7.966   0.968
 1216W        W 4735   6.464   6.082   0.013
 1217W        W 4736   4.102   4.915  11.454
 1218W        W 4737   0.405   6.245   2.685
 1219W        W 4738   3.592   4.054   0.255
 1220W        W 4739   0.818   2.519   9.171
 1221W        W 4740   8.648   7.409  11.892
 1222W        W 4741   8.406   1.400   1.004
 1223W        W 4742   6.060   0.056  11.281
 1224W        W 4743   2.678   9.667  10.853
 1225W        W 4744   9.122   4.158   9.058
 1226W        W 4745   9.258   7.402   8.636
 1227W        W 4746   6.320   1.678   0.271
 1228W        W 4747   6.617   1.639  10.074
 1229W        W 4748   1.040   4.174   0.195
 1230W        W 4749   2.686   0.398   1.660
 1231W        W 4750   1.785   1.264  11.867
 1232W        W 4751   8.481   7.004   2.493
 1233W        W 4752   1.444   1.846   1.482
 1234W        W 4753   8.495   5.053   1.800
 1235W        W 4754   0.569   2.788   2.403
 1236W        W 4755   9.827   8.018  11.251
 1237W        W 4756   3.512   6.268   0.927
 1238W        W 4757   5.004   0.251  11.839
 1239W        W 4758   7.861   4.500  11.339
 1240W        W 4759   4.111   6.959   0.478
 1241W        W 4760   9.032   2.420  10.428
 1242W        W 4761   6.458   9.725   2.395
 1243W        W 4762   7.476   1.951   0.934
 1244W        W 4763   0.205   2.424  10.420
 1245W        W 4764   2.116   2.302   2.435
 1246W        W 4765   5.877   6.487  10.084
 1247W        W 4766   7.299   8.826   1.392
 1248W        W 4767   2.734   1.593  10.707
 1249W        W 4768   0.731   2.575  10.310
 1250W        W 4769   9.082   1.713  10.906
 1251W        W 4770   4.977   6.994   2.359
 1252W        W 4771   5.713   6.512  11.713
 1253W        W 4772   9.074   5.530   0.292
 1254W        W 4773   6.934   7.677   1.640
 1255W        W 4774   4.713   6.833   8.411
 1256W        W 4775   5.576   3.253   9.076
 1257W        W 4776   8.858   4.924   9.338
 1258W        W 4777   7.418   0.272   1.900
 1259W        W 4778   5.634   8.872  11.079
 1260W        W 4779   3.047   6.079   2.757
 1261W        W 4780   1.734   6.735  11.991
 1262W        W 4781   7.576   3.601   2.479
 1263W        W 4782   2.001   7.832   3.260
 1264W        W 4783   9.227   6.729   3.526
 1265W        W 4784   3.210   8.965   2.241
 1266W        W 4785   8.658   8.378   0.247
 1267W        W 4786   2.665   0.887   1.297
 1268W        W 4787   4.749   8.754   2.686
 1269W        W 4788   4.012   7.986  10.981
 1270W        W 4789   2.717   6.266   9.241
 1271W        W 4790   5.478   5.971   9.084
 1272W        W 4791   0.460   9.028   9.439
 1273W        W 4792   9.115   0.872   9.427
 1274W        W 4793   7.682   6.294   3.605
 1275W        W 4794   3.842   3.943   2.066
 1276W        W 4795   0.365   5.093   2.616
 1277W        W 4796   8.990   8.510  10.423
 1278W        W 4797   9.849   0.434  11.489
 1279W        W 4798   2.768   1.298   8.859
 1280W        W 4799   2.685   8.790   8.999
 1281W        W 4800   8.648   9.449  11.403
 1282W        W 4801   8.685   0.281   9.181
 1283W        W 4802   5.598   3.169   0.573
 1284W        W 4803   8.042   7.093  10.966
 1285W        W 4804   6.127   4.556  10.892
 1286W        W 4805   9.730   8.180  10.177
 1287W        W 4806   3.043   9.049   2.719
 1288W        W 4807   1.481   1.736  11.126
 1289W        W 4808   0.419   3.407  11.277
 1290W        W 4809   9.723   1.246   0.927
 1291W        W 4810   6.875   0.391   1.262
 1292W        W 4811   2.013   5.169   3.143
 1293W        W 4812   2.124   2.349   0.470
 1294W        W 4813   4.331   9.460   8.577
 1295W        W 4814   0.234   1.521   3.394
 1296W        W 4815   1.817   5.198   9.762
 1297W        W 4816   0.014   5.138  10.656
 1298W        W 4817   6.957   2.006   1.027
 1299W        W 4818   2.292   6.594   9.139
 1300W        W 4819   4.016   4.318   3.127
 1301W        W 4820   3.837   2.081   9.054
 1302W        W 4821   0.616   7.172  10.441
 1303W        W 4822   7.484   7.124   0.367
 1304W        W 4823   8.105   3.321   9.924
 1305W        W 4824   0.228   2.925  10.355
 1306W        W 4825   5.246   0.711   2.422
 1307W        W 4826   8.947   0.180   0.933
 1308W        W 4827   3.770   8.544   8.990
 1309W        W 4828   7.157   3.998   1.725
 1310W        W 4829   2.784   1.747   1.939
 1311W        W 4830   8.470   7.134   2.982
 1312W        W 4831   7.330   9.879  10.528
 1313W        W 4832   3.727   0.517   2.810
 1314W        W 4833   9.393   0.598  11.708
 1315W        W 4834   3.132   4.918  11.638
 1316W        W 4835   4.701   3.161   8.132
 1317W        W 4836   3.194   4.185   3.736
 1318W        W 4837   6.952   3.697  10.136
 1319W        W 4838   6.459   9.031   9.978
 1320W        W 4839   9.936   6.522  10.941
 1321W        W 4840   5.101   2.690   9.799
 1322W        W 4841   7.824   8.577   3.515
 1323W        W 4842   6.971   3.380   2.435
 1324W        W 4843   3.920   7.146   3.728
 1325W        W 4844   1.800   9.585  10.522
 1326W        W 4845   6.692   1.714   1.390
 1327W        W 4846   2.192   7.438   8.865
 1328W        W 4847   4.986   9.040   0.416
 1329W        W 4848   9.855   0.354   0.608
 1330W        W 4849   8.913   7.646  11.180
 1331W        W 4850   5.671   9.844  11.551
 1332W        W 4851   5.051   3.022  11.957
 1333W        W 4852   7.690   0.613   3.259
 1334W        W 4853   3.970   3.203   1.840
 1335W        W 4854   7.388   3.030   0.038
 1336W        W 4855   0.678   0.504   9.001
 1337W        W 4856   2.612   1.304   9.349
 1338W        W 4857   9.232   1.452   9.496
 1339W        W 4858   0.795   1.747  11.718
 1340W        W 4859   7.010   9.752   9.705
 1341W        W 4860   0.255   9.928   9.694
 1342W        W 4861   6.187   8.083   9.718
 1343W        W 4862   3.192   9.044  10.763
 1344W        W 4863   1.573   0.780   1.377
 1345W        W 4864   8.577   3.573   2.803
 1346W        W 4865   1.336   7.038   9.133
 1347W        W 4866   0.652   7.441   2.161
 1348W        W 4867   8.492   3.640  11.207
 1349W        W 4868   3.490   5.519  11.712
 1350W        W 4869   2.353   3.129  10.083
 1351W        W 4870   0.847   6.352   1.442
 1352W        W 4871   3.461   5.753   9.752
 1353W        W 4872   8.860   1.370   2.787
 1354W        W 4873   2.560   8.492  11.315
 1355W        W 4874   1.828   9.331   2.385
 1356W        W 4875   4.503   2.377  10.120
 1357W        W 4876   7.846   3.199   2.658
 1358W        W 4877   2.218   3.788  10.924
 1359W        W 4878   1.282   9.302   0.056
 1360W        W 4879   7.333   7.971  11.812
 1361W        W 4880   4.723   1.376   0.214
 1362W        W 4881   7.528   8.394   1.601
 1363W        W 4882   4.049   2.886  10.454
 1364W        W 4883   5.670   4.184   1.573
 1365W        W 4884   3.665   0.438   0.775
 1366W        W 4885   1.775   0.051  10.762
 1367W        W 4886   9.069   6.973   8.865
 1368W        W 4887   1.017   4.058   9.004
 1369W        W 4888   9.418   0.403   0.894
 1370W        W 4889   6.611   7.952   2.444
 1371W        W 4890   2.089   0.366  10.469
 1372W        W 4891   5.254   8.991  11.389
 1373W        W 4892   2.943   3.792   8.455
 1374W        W 4893   1.860   5.434  10.790
 1375W        W 4894   2.287   3.523   1.340
 1376W        W 4895   4.327   4.007   0.650
 1377W        W 4896   4.040   6.033   3.157
 1378W        W 4897   9.092   4.995  11.200
 1379W        W 4898   1.947   6.985   9.075
 1380W        W 4899   6.611   5.469   2.145
 1381W        W 4900   8.541   3.787  11.697
 1382W        W 4901   7.025   1.932  10.615
 1383W        W 4902   5.791   2.665  11.355
 1384W        W 4903   7.437   8.124   2.915
 1385W        W 4904   6.256   6.238  10.321
 1386W        W 4905   6.476   5.751  11.051
 1387W        W 4906   3.099   2.183  11.375
 1388W        W 4907   4.328   7.601   3.203
 1389W        W 4908   7.670   4.573   0.753
 1390W        W 4909   6.701   4.148   1.583
 1391W        W 4910   3.994   2.225   1.754
 1392W        W 4911   4.739   9.581   2.395
 1393W        W 4912   0.976   1.214  10.400
 1394W        W 4913   4.440   7.414   1.919
 1395W        W 4914   4.941   8.029   3.895
 1396W        W 4915   9.402   9.707  11.785
 1397W        W 4916   4.703   2.317   0.612
 1398W        W 4917   5.304   3.463   1.792
 1399W        W 4918   1.225   0.937   0.510
 1400W        W 4919   8.270   5.624   2.508
 1401W        W 4920   0.022   0.224   1.694
 1402W        W 4921   3.612   6.834   2.495
 1403W        W 4922   1.374   4.579   0.284
 1404W        W 4923   2.989   4.700  10.550
 1405W        W 4924   8.727   7.224  11.426
 1406W        W 4925   0.709   2.104  11.066
 1407W        W 4926   1.139   2.993   3.077
 1408W        W 4927   1.080   8.410   9.330
 1409W        W 4928   1.871   7.108   2.242
 1410W        W 4929   4.523   4.104   9.252
 1411W        W 4930   5.941   7.187   0.922
 1412W        W 4931   9.222   5.227   2.773
 1413W        W 4932   4.094   6.372   9.598
 1414W        W 4933   2.456   1.697   1.117
 1415W        W 4934   4.298   3.747   9.628
 1416W        W 4935   5.803   9.389   3.117
 1417W        W 4936   8.458   6.567   1.308
 1418W        W 4937   1.365   7.143   9.924
 1419W        W 4938   3.111   9.470  10.025
 1420W        W 4939   4.217   0.384   9.157
 1421W        W 4940   3.233   1.138   1.350
 1422W        W 4941   3.178   6.531   9.294
 1423W        W 4942   8.904   4.607   9.750
 1424W        W 4943   2.219   0.107   0.359
 1425W        W 4944   3.241   1.777   2.669
 1426W        W 4945   0.446   4.004  11.867
 1427W        W 4946   5.528   5.751  10.315
 1428W        W 4947   8.855   7.897   0.194
 1429W        W 4948   2.559   9.940   1.322
 1430W        W 4949   5.566   4.035   3.325
 1431W        W 4950   3.479   0.926   0.732
 1432W        W 4951   0.264   3.197   3.051
 1433W        W 4952   5.455   1.239  10.669
 1434W        W 4953   7.760   7.486   1.243
 1435W        W 4954   4.701   3.897   1.544
 1436W        W 4955   3.946   8.114  10.044
 1437W        W 4956   8.614   5.368   0.617
 1438W        W 4957   5.051   4.684  10.728
 1439W        W 4958   9.777   8.624   2.852
 1440W        W 4959   9.009   5.490  11.339
 1441W        W 4960   0.009   3.065  11.974
 1442W        W 4961   2.270   1.249   1.396
 1443W        W 4962   6.853   6.850  10.206
 1444W        W 4963   7.622   8.867   1.804
 1445W        W 4964   2.014   1.339   0.354
 1446W        W 4965   1.721   2.700   3.112
 1447W        W 4966   5.837   0.459   8.925
 1448W        W 4967   7.857   0.840   1.223
 1449W        W 4968   1.843   5.676   0.373
 1450W        W 4969   1.732   9.860   8.781
 1451W        W 4970   2.219   2.115   1.322
 1452W        W 4971   4.888   2.771   9.006
 1453W        W 4972   2.238   1.693   9.939
 1454W        W 4973   9.338   3.028   2.850
 1455W        W 4974   2.662   9.502   9.776
 1456W        W 4975   7.003   6.028   2.258
 1457W        W 4976   6.399   6.805  11.032
 1458W        W 4977   8.355   2.867  10.087
 1459W        W 4978   0.135   9.134   1.147
 1460W        W 4979   8.163   9.284   9.143
 1461W        W 4980   3.675   1.645   2.423
 1462W        W 4981   3.674   9.039   9.818
 1463W        W 4982   2.026   8.659   3.502
 1464W        W 4983   3.942   9.191   3.555
 1465W        W 4984   6.056   6.010   2.508
 1466W        W 4985   7.490   6.102   2.353
 1467W        W 4986   5.638   6.901   9.909
 1468W        W 4987   1.768   1.727  10.158
 1469W        W 4988   9.773   9.860   1.977
 1470W        W 4989   7.834   1.619  11.879
 1471W        W 4990   8.580   5.600   1.078
 1472W        W 4991   4.935   2.659   0.305
 1473W        W 4992   2.600   2.017   8.915
 1474W        W 4993   6.236   5.835   0.420
 1475W        W 4994   8.420   3.108   9.077
 1476W        W 4995   6.028   5.387   0.218
 1477W        W 4996   9.401   3.779   3.152
 1478W        W 4997   3.001   1.030   0.915
 1479W        W 4998   8.542   8.378   1.887
 1480W        W 4999   8.487   0.045   9.670
 1481W        W 5000   9.453   1.426  11.226
 1482W        W 5001   6.844   0.239   9.510
 1483W        W 5002   7.076   4.897   3.543
 1484W        W 5003   1.400   1.516   1.079
 1485W        W 5004   8.474   0.328  11.650
 1486W        W 5005   2.304   6.073  10.057
 1487W        W 5006   5.766   7.315  10.681
 1488W        W 5007   2.738   8.836   0.613
 1489W        W 5008   6.672   4.098   0.368
 1490W        W 5009   3.832   4.817   1.716
 1491W        W 5010   6.960   3.446   3.648
 1492W        W 5011   3.152   4.120   9.710
 1493W        W 5012   0.915   9.327   2.335
 1494W        W 5013   7.372   6.526   2.063
 1495W        W 5014   9.289   3.172   9.311
 1496W        W 5015   7.170   6.166   3.652
 1497W        W 5016   2.189   4.969  11.531
 1498W        W 5017   6.481   4.881  11.259
 1499W        W 5018   9.427   8.943   0.582
 1500W        W 5019   5.092   6.785   8.745
 1501W        W 5020   1.347   2.882   0.672
 1502W        W 5021   7.125   2.548   1.290
 1503W        W 5022   1.012   7.464   3.004
 1504W        W 5023   8.091   3.814   0.965
 1505W        W 5024   7.625   0.769  10.832
 1506W        W 5025   8.568   9.853   2.974
 1507W        W 5026   7.774   4.570   2.278
 1508W        W 5027   9.402   0.447  10.765
 1509W        W 5028   9.976   2.942   2.227
 1510W        W 5029   8.533   2.322  10.524
 1511W        W 5030   3.049   5.069   3.262
 1512W        W 5031   4.843   6.017   1.442
 1513W        W 5032   4.074   3.898   1.260
 1514W        W 5033   3.425   3.610   8.484
 1515W        W 5034   3.722   0.007   1.514
 1516W        W 5035   8.445   6.975  10.125
 1517W        W 5036   5.107   5.213   1.857
 1518W        W 5037   3.330   0.881   1.782
 1519W        W 5038   9.505   2.456   1.694
 1520W        W 5039   8.242   6.692   9.079
 1521W        W 5040   8.834   3.094   2.702
 1522W        W 5041   1.718   6.316   2.841
 1523W        W 5042   4.930   0.652  11.000
 1524W        W 5043   8.937   7.083   0.784
 1525W        W 5044   3.982   4.330   0.461
 1526W        W 5045   1.565   6.935   3.551
 1527W        W 5046   9.204   6.080   1.858
 1528W        W 5047   1.341   6.631   0.304
 1529W        W 5048   7.472   0.929   0.871
 1530W        W 5049   9.840   3.143   2.752
 1531W        W 5050   4.050   3.236  10.932
 1532W        W 5051   5.436   2.290   9.986
 1533W        W 5052   8.099   8.376   9.365
 1534W        W 5053   7.585   2.307   2.195
 1535W        W 5054   7.555   1.091   8.560
 1536W        W 5055   6.114   6.753   9.732
 1537W        W 5056   7.428   8.557   9.904
 1538W        W 5057   9.264   4.499  11.084
 1539W        W 5058   3.322   7.999   0.888
 1540W        W 5059   4.127   2.578   3.044
 1541W        W 5060   0.230   1.798  10.257
 1542W        W 5061   9.215   3.146   0.807
 1543W        W 5062   3.494   1.134  10.493
 1544W        W 5063   5.941   2.736  10.334
 1545W        W 5064   4.097   4.403   8.612
 1546W        W 5065   7.412   9.568   0.225
 1547W        W 5066   4.992   6.605  10.597
 1548W        W 5067   7.902   6.390   3.120
 1549W        W 5068   1.580   5.652   9.075
 1550W        W 5069   6.452   1.331  11.475
 1551W        W 5070   0.015   5.869   0.150
 1552W        W 5071   1.842   9.167   9.511
 1553W        W 5072   5.319   8.469  11.306
 1554W        W 5073   1.851   4.689  11.246
 1555W        W 5074   4.719   1.424   0.718
 1556W        W 5075   9.424   7.548   3.336
 1557W        W 5076   5.444   2.327   1.561
 1558W        W 5077   6.973   5.555   8.483
 1559W        W 5078   9.590   6.470   8.757
 1560W        W 5079   1.371   8.467   0.168
 1561W        W 5080   6.575   7.847   9.421
 1562W        W 5081   8.495   6.983   1.022
 1563W        W 5082   9.433   4.099   2.763
 1564W        W 5083   5.017   6.407  11.072
 1565W        W 5084   5.899   1.880   1.234
 1566W        W 5085   4.629   3.527   8.499
 1567W        W 5086   8.124   9.429  11.214
 1568W        W 5087   3.995   3.232   9.547
 1569W        W 5088   9.891   1.340  11.453
 1570W        W 5089   0.269   1.112   0.970
 1571W        W 5090   6.358   3.695   0.377
 1572W        W 5091   2.674   1.952  11.511
 1573W        W 5092   7.735   2.095  11.641
 1574W        W 5093   5.163   7.032  10.035
 1575W        W 5094   3.774   1.736   0.932
 1576W        W 5095   4.154   3.177  10.027
 1577W        W 5096   0.274   3.755  10.907
 1578W        W 5097   8.489   6.603   0.094
 1579W        W 5098   1.213   1.568  11.939
 1580W        W 5099   9.477   3.149   2.372
 1581W        W 5100   2.799   0.144  11.055
 1582W        W 5101   7.581   1.156  11.992
 1583W        W 5102   2.939   4.378   0.836
 1584W        W 5103   0.907   0.073   8.846
 1585W        W 5104   7.082   5.444   1.612
 1586W        W 5105   8.869   6.899   3.201
 1587W        W 5106   8.062   0.070  10.912
 1588W        W 5107   7.227   4.609  10.201
 1589W        W 5108   4.766   3.671   9.418
 1590W        W 5109   6.774   5.236   9.012
 1591W        W 5110   5.401   7.580   1.834
 1592W        W 5111   5.748   6.211  10.476
 1593W        W 5112   7.807   6.635  10.850
 1594W        W 5113   7.484   1.801   1.982
 1595W        W 5114   9.151   3.022   9.873
 1596W        W 5115   1.096   5.710   2.235
 1597W        W 5116   2.117   2.599   1.440
 1598W        W 5117   8.781   4.295   0.499
 1599W        W 5118   8.079   2.769   8.877
 1600W        W 5119   3.607   3.658   0.658
 1601W        W 5120   3.407   0.305  11.095
 1602W        W 5121   9.629   8.543   8.638
 1603W        W 5122   0.222   0.025   0.866
 1604W        W 5123   7.047   9.041  10.476
 1605W        W 5124   5.035   4.087   3.284
 1606W        W 5125   7.120   5.947  11.499
 1607W        W 5126   3.288   0.731  11.372
 1608W        W 5127   5.210   0.039  11.368
 1609W        W 5128   3.806   8.413  10.481
 1610W        W 5129   1.770   3.079   9.378
 1611W        W 5130   9.866   8.047  10.678
 1612W        W 5131   7.393   7.507  10.023
 1613W        W 5132   4.934   5.373   1.418
 1614W        W 5133   7.576   5.537  10.228
 1615W        W 5134   4.919   7.500  11.607
 1616W        W 5135   5.144   0.722  11.959
 1617W        W 5136   9.068   3.177   8.754
 1618W        W 5137   3.082   7.887  11.511
 1619W        W 5138   3.974   2.224  10.796
 1620W        W 5139   9.345   9.964   0.652
 1621W        W 5140   9.558   6.489   2.737
 1622W        W 5141   2.324   0.079   1.848
 1623W        W 5142   8.710   1.844  11.738
 1624W        W 5143   3.854   3.666   8.212
 1625W        W 5144   8.477   0.360   0.794
 1626W        W 5145   6.639   3.209  10.477
 1627W        W 5146   7.799   6.112  10.856
 1628W        W 5147   3.233   3.083   0.265
 1629W        W 5148   2.770   6.446  11.038
 1630W        W 5149   3.671   0.983   3.002
 1631W        W 5150   7.718   8.498  11.301
 1632W        W 5151   3.666   8.879  10.703
 1633W        W 5152   9.856   9.976  11.767
 1634W        W 5153   4.592   3.279  10.287
 1635W        W 5154   1.027   9.657   0.456
 1636W        W 5155   6.602   7.406   3.411
 1637W        W 5156   1.053   2.821  10.671
 1638W        W 5157   5.455   2.723   0.307
 1639W        W 5158   3.343   8.287  10.202
 1640W        W 5159   3.510   4.288  11.274
 1641W        W 5160   0.633   4.885   0.856
 1642W        W 5161   3.543   5.870   9.185
 1643W        W 5162   4.110   0.090   1.845
 1644W        W 5163   1.850   5.863   2.684
 1645W        W 5164   0.371   9.318   8.663
 1646W        W 5165   4.159   2.217   2.667
 1647W        W 5166   3.752   6.337  10.408
 1648W        W 5167   3.831   6.114   9.956
 1649W        W 5168   2.070   1.464   0.868
 1650W        W 5169   9.609   1.040   1.417
 1651W        W 5170   4.670   7.219   3.184
 1652W        W 5171   2.689   8.931   9.640
 1653W        W 5172   6.769   9.908   1.376
 1654W        W 5173   5.197   4.958   3.310
 1655W        W 5174   3.352   1.040   0.249
 1656W        W 5175   4.366   9.126  11.293
 1657W        W 5176   3.808   9.205   1.085
 1658W        W 5177   0.505   4.255   9.505
 1659W        W 5178   1.912   2.738   2.266
 1660W        W 5179   2.243   8.974   8.697
 1661W        W 5180   1.271   7.632   9.931
 1662W        W 5181   9.991   8.076   2.235
 1663W        W 5182   8.153   5.339   0.880
 1664W        W 5183   0.967   0.888   9.976
 1665W        W 5184   1.354   4.931  11.918
 1666W        W 5185   4.156   8.453   0.636
 1667W        W 5186   5.237   5.975   0.424
 1668W        W 5187   2.621   6.464  10.025
 1669W        W 5188   0.905   7.212   9.515
 1670W        W 5189   7.837   6.758   2.092
 1671W        W 5190   0.023   2.090   9.401
 1672W        W 5191   1.687   0.057   9.292
 1673W        W 5192   8.840   0.903   2.548
 1674W        W 5193   4.556   5.172   1.761
 1675W        W 5194   7.520   9.373   0.972
 1676W        W 5195   5.613   3.826  11.866
 1677W        W 5196   6.507   5.973   2.255
 1678W        W 5197   7.438   0.325   0.082
 1679W        W 5198   6.279   0.505   9.204
 1680W        W 5199   0.626   9.079   9.967
 1681W        W 5200   7.920   0.190   2.527
 1682W        W 5201   2.889   5.573   3.184
 1683W        W 5202   7.334   1.800   2.894
 1684W        W 5203   6.158   4.651   3.069
 1685W        W 5204   0.907   2.497   9.852
 1686W        W 5205   2.917   9.565   1.383
 1687W        W 5206   5.138   4.986   0.095
 1688W        W 5207   9.611   0.073   3.423
 1689W        W 5208   5.601   2.538   9.590
 1690W        W 5209   7.422   8.877  11.033
 1691W        W 5210   6.340   4.051   3.801
 1692W        W 5211   6.901   8.213  11.701
 1693W        W 5212   6.109   7.656  10.815
 1694W        W 5213   6.442   7.007   8.728
 1695W        W 5214   3.515   7.608   0.611
 1696W        W 5215   8.057   9.570   1.602
 1697W        W 5216   7.255   6.148  10.063
 1698W        W 5217   0.902   3.938   2.836
 1699W        W 5218   4.553   6.587   2.447
 1700W        W 5219   6.665   0.590  10.498
 1701W        W 5220   8.581   9.037   9.853
 1702W        W 5221   4.258   8.708   2.854
 1703W        W 5222   7.895   8.853   0.436
 1704W        W 5223   3.380   9.076   3.116
 1705W        W 5224   9.726   6.681  10.491
 1706W        W 5225   8.655   3.181  11.810
 1707W        W 5226   2.082   1.476   1.944
 1708W        W 5227   7.198   7.090  11.469
 1709W        W 5228   0.075   7.028   3.304
 1710W        W 5229   2.882   6.297   8.658
 1711W        W 5230   0.671   7.928  10.917
 1712W        W 5231   1.206   3.013  11.149
 1713W        W 5232   1.700   1.204   8.726
 1714W        W 5233   9.839   7.553   8.951
 1715W        W 5234   5.971   9.508  11.791
 1716W        W 5235   4.042   7.169  10.655
 1717W        W 5236   3.389   0.379  10.090
 1718W        W 5237   0.841   8.537   1.313
 1719W        W 5238   8.070   0.111   9.964
 1720W        W 5239   9.546   9.224   3.456
 1721W        W 5240   4.833   8.213  11.422
 1722W        W 5241   2.667   8.288  10.352
 1723W        W 5242   5.962   9.233   1.286
 1724W        W 5243   8.187   7.431   2.667
 1725W        W 5244   0.871   4.069   1.203
 1726W        W 5245   2.083   0.784   1.229
 1727W        W 5246   9.798   8.350   3.293
 1728W        W 5247   5.180   8.064   9.589
 1729W        W 5248   8.348   1.745   0.558
 1730W        W 5249   0.482   5.641   0.308
 1731W        W 5250   0.303   7.975   0.735
 1732W        W 5251   6.289   5.863   1.149
 1733W        W 5252   8.689   8.842  10.688
 1734W        W 5253   4.411   9.688   0.562
 1735W        W 5254   5.307   7.511  10.700
 1736W        W 5255   6.558   0.249   2.120
 1737W        W 5256   3.945   5.126  10.989
 1738W        W 5257   1.773   2.604   9.087
 1739W        W 5258   7.626   0.346  10.106
 1740W        W 5259   1.597   8.056  10.479
 1741W        W 5260   4.720   6.047   4.216
 1742W        W 5261   2.149   2.502  11.594
 1743W        W 5262   0.222   7.480   3.496
 1744W        W 5263   1.438   5.362   0.153
 1745W        W 5264   7.092   7.882   3.204
 1746W        W 5265   2.271   7.412  11.556
 1747W        W 5266   5.672   9.582   8.436
 1748W        W 5267   8.686   3.243  10.018
 1749W        W 5268   4.371   7.853   9.942
 1750W        W 5269   4.626   9.518   1.372
 1751W        W 5270   2.950   1.905   9.902
 1752W        W 5271   6.329   5.036   1.469
 1753W        W 5272   4.436   5.142  10.770
 1754W        W 5273   3.383   6.739   0.797
 1755W        W 5274   9.602   1.795  11.573
 1756W        W 5275   4.727   5.516   8.452
 1757W        W 5276   3.160   5.918   1.106
 1758W        W 5277   5.152   0.152   1.706
 1759W        W 5278   1.387   0.228   2.121
 1760W        W 5279   9.142   6.643   2.488
 1761W        W 5280   7.160   0.846   2.177
 1762W        W 5281   7.700   4.540   9.515
 1763W        W 5282   3.729   4.434  10.424
 1764W        W 5283   8.452   2.669   0.553
 1765W        W 5284   1.292   3.367   2.095
 1766W        W 5285   2.793   8.876   1.935
 1767W        W 5286   1.374   9.423  10.834
 1768W        W 5287   3.277   3.136   2.880
 1769W        W 5288   2.854   5.507   8.898
 1770W        W 5289   8.442   4.491   8.334
 1771W        W 5290   1.334   6.118   2.037
 1772W        W 5291   1.979   0.499   9.393
 1773W        W 5292   1.901   9.089  10.646
 1774W        W 5293   0.005   6.505   1.406
 1775W        W 5294   9.166   6.512   3.060
 1776W        W 5295   8.806   3.149  11.322
 1777W        W 5296   5.811   4.099   3.769
 1778W        W 5297   7.223   9.085   8.791
 1779W        W 5298   0.448   5.727   2.672
 1780W        W 5299   7.724   9.877   1.840
 1781W        W 5300   0.652   5.176   2.007
 1782W        W 5301   6.473   9.755   2.896
 1783W        W 5302   7.061   1.397   1.243
 1784W        W 5303   6.837   0.099  10.585
 1785W        W 5304   1.150   3.299  10.616
 1786W        W 5305   5.484   8.955   1.935
 1787W        W 5306   1.334   3.952   1.392
 1788W        W 5307   5.054   1.755   2.295
 1789W        W 5308   7.825   9.746   3.252
 1790W        W 5309   3.356   0.868   9.923
 1791W        W 5310   6.180   0.187   0.651
 1792W        W 5311   9.896   2.764   1.737
 1793W        W 5312   5.972   6.463   3.221
 1794W        W 5313   6.396   9.040   0.174
 1795W        W 5314   4.137   8.027   8.575
 1796W        W 5315   3.114   6.017   9.478
 1797W        W 5316   7.957   1.435   0.345
 1798W        W 5317   7.468   9.876   9.486
 1799W        W 5318   1.713   7.429   0.778
 1800W        W 5319   6.121   3.664  11.885
 1801W        W 5320   5.404   0.608   3.448
 1802W        W 5321   4.641   1.384  10.021
 1803W        W 5322   2.941   1.701  11.170
 1804W        W 5323   7.979   6.988   2.513
 1805W        W 5324   2.951   5.587   9.724
 1806W        W 5325   2.821   3.077   0.561
 1807W        W 5326   3.964   1.863   9.997
 1808W        W 5327   2.718   9.338   8.258
 1809W        W 5328   5.308   6.320   8.753
 1810W        W 5329   8.062   8.877  10.429
 1811W        W 5330   1.316   4.051  10.966
 1812W        W 5331   5.279   4.476   3.477
 1813W        W 5332   8.164   4.512   3.500
 1814W        W 5333   5.648   6.341   8.305
 1815W        W 5334   8.629   0.826  11.661
 1816W        W 5335   1.255   6.502   2.825
 1817W        W 5336   3.561   5.338  10.494
 1818W        W 5337   6.635   8.113   0.534
 1819W        W 5338   6.608   6.530   8.570
 1820W        W 5339   4.444   9.288  10.796
 1821W        W 5340   9.977   8.945   8.593
 1822W        W 5341   8.866   7.399   1.774
 1823W        W 5342   8.421   4.705   9.565
 1824W        W 5343   8.817   5.784  10.934
 1825W        W 5344   3.736   5.526   2.807
 1826W        W 5345   1.210   2.150  11.107
 1827W        W 5346   6.498   2.074   9.194
 1828W        W 5347   0.977   1.778   1.240
 1829W        W 5348   1.463   4.967  11.429
 1830W        W 5349   2.765   3.151   2.469
 1831W        W 5350   0.023   3.880   1.166
 1832W        W 5351   3.436   0.251   1.181
 1833W        W 5352   3.761   1.244   1.201
 1834W        W 5353   9.110   3.690   8.817
 1835W        W 5354   3.762   7.071   1.554
 1836W        W 5355   0.453   1.770   9.372
 1837W        W 5356   4.571   8.723   0.421
 1838W        W 5357   4.681   6.900  10.012
 1839W        W 5358   3.683   0.754  11.857
 1840W        W 5359   0.160   8.056   0.262
 1841W        W 5360   3.970   0.362   2.258
 1842W        W 5361   7.602   9.821   2.776
 1843W        W 5362   5.003   6.082   0.912
 1844W        W 5363   4.767   8.353  10.919
 1845W        W 5364   6.042   1.364  10.777
 1846W        W 5365   6.008   2.256   3.061
 1847W        W 5366   5.906   4.154   8.753
 1848W        W 5367   0.668   3.599  10.618
 1849W        W 5368   4.747   6.903   2.794
 1850W        W 5369   7.561   4.886   9.880
 1851W        W 5370   5.110   6.042  10.274
 1852W        W 5371   7.320   1.144  10.551
 1853W        W 5372   9.823   7.160   1.962
 1854W        W 5373   2.527   5.985  11.664
 1855W        W 5374   6.351   7.854   3.452
 1856W        W 5375   8.634   3.474   8.702
 1857W        W 5376   2.633   4.031   0.374
 1858W        W 5377   8.273   1.464  10.481
 1859W        W 5378   8.831   5.443   9.495
 1860W        W 5379   1.228   3.742   0.453
 1861W        W 5380   8.393   5.154   2.782
 1862W        W 5381   2.761   4.008   8.899
 1863W        W 5382   0.592   0.181   0.059
 1864W        W 5383   6.909   2.893   8.865
 1865W        W 5384   1.070   5.561   9.139
 1866W        W 5385   3.704   4.303   2.545
 1867W        W 5386   0.006   2.008  10.668
 1868W        W 5387   6.122   6.579   8.753
 1869W        W 5388   5.700   8.520   0.656
 1870W        W 5389   9.754   3.243   1.849
 1871W        W 5390   3.995   9.558   1.892
 1872W        W 5391   9.321   5.702  10.992
 1873W        W 5392   2.530   8.477   0.938
 1874W        W 5393   2.424   0.353   9.175
 1875W        W 5394   8.512   6.086   2.464
 1876W        W 5395   6.930   2.115   2.828
 1877W        W 5396   0.670   3.500   0.728
 1878W        W 5397   9.007   5.337  10.792
 1879W        W 5398   5.786   5.148  10.221
 1880W        W 5399   8.915   0.185   0.414
 1881W        W 5400   2.683   3.384   1.065
 1882W        W 5401   1.906   2.575  10.707
 1883W        W 5402   7.509   1.293  10.097
 1884W        W 5403   9.475   3.647   3.627
 1885W        W 5404   6.879   5.606   2.584
 1886W        W 5405   3.369   9.009   0.863
 1887W        W 5406   7.282   5.486  11.297
 1888W        W 5407   3.784   2.526   9.501
 1889W        W 5408   9.846   9.335  11.105
 1890W        W 5409   0.046   3.594  11.832
 1891W        W 5410   6.280   9.690   1.306
 1892W        W 5411   4.642   1.440  10.547
 1893W        W 5412   5.488   4.625   3.007
 1894W        W 5413   1.821   7.855   2.546
 1895W        W 5414   2.335   4.597   2.391
 1896W        W 5415   0.804   6.524  10.924
 1897W        W 5416   9.931   5.240  11.134
 1898W        W 5417   2.227   9.679   9.991
 1899W        W 5418   3.662   2.676   0.960
 1900W        W 5419   2.349   7.003   0.671
 1901W        W 5420   8.523   6.206   0.422
 1902W        W 5421   3.885   6.642   0.912
 1903W        W 5422   0.501   4.084   9.022
 1904W        W 5423   4.209   8.863  10.647
 1905W        W 5424   3.202   0.698   3.170
 1906W        W 5425   0.312   2.044   1.265
 1907W        W 5426   9.457   9.408  10.730
 1908W        W 5427   8.004   2.003   2.163
 1909W        W 5428   6.390   9.311   0.998
 1910W        W 5429   8.502   6.815  11.624
 1911W        W 5430   2.382   8.433   0.414
 1912W        W 5431   6.788   9.801   9.233
 1913W        W 5432   7.517   2.057  10.423
 1914W        W 5433   2.553   6.994  11.310
 1915W        W 5434   4.571   4.729   9.896
 1916W        W 5435   4.597   1.291   3.007
 1917W        W 5436   0.181   0.432   9.120
 1918W        W 5437   9.416   5.856  11.473
 1919W        W 5438   1.338   9.251   1.633
 1920W        W 5439   3.542   9.289  10.284
 1921W        W 5440   4.786   9.528   0.895
 1922W        W 5441   8.586   8.182  11.500
 1923W        W 5442   0.154   3.711   9.872
 1924W        W 5443   8.514   8.525   9.724
 1925W        W 5444   8.796   5.628  11.792
 1926W        W 5445   8.887   2.632   2.028
 1927W        W 5446   4.098   7.563   9.236
 1928W        W 5447   8.469   7.956  10.469
 1929W        W 5448   7.891   5.874   1.634
 1930W        W 5449   3.226   4.143   9.194
 1931W        W 5450   8.039   6.732   8.596
 1932W        W 5451   2.648   5.255   1.173
 1933W        W 5452   5.393   9.763   1.972
 1934W        W 5453   8.014   0.692   2.296
 1935W        W 5454   0.249   5.861   8.556
 1936W        W 5455   4.618   8.486   1.420
 1937W        W 5456   8.596   8.437   9.207
 1938W        W 5457   1.594   6.778   8.743
 1939W        W 5458   2.351   3.234   0.709
 1940W        W 5459   6.670   4.501   0.024
 1941W        W 5460   0.765   2.319   2.537
 1942W        W 5461   5.070   0.823   8.965
 1943W        W 5462   4.638   2.757   3.190
 1944W        W 5463   8.111   7.763   3.089
 1945W        W 5464   8.451   4.227   1.300
 1946W        W 5465   0.012   6.830   0.510
 1947W        W 5466   1.304   6.295   9.592
 1948W        W 5467   6.412   1.023   0.855
 1949W        W 5468   1.544   7.497   2.279
 1950W        W 5469   4.205   3.559   2.157
 1951W        W 5470   1.233   8.508   9.921
 1952W        W 5471   4.757   1.988   9.495
 1953W        W 5472   5.688   9.683  10.082
 1954W        W 5473   1.902   3.934   9.848
 1955W        W 5474   9.102   6.193  10.969
 1956W        W 5475   6.034   4.429   0.334
 1957W        W 5476   8.886   7.797   1.424
 1958W        W 5477   7.373   0.824   9.901
 1959W        W 5478   9.989   9.692   0.504
 1960W        W 5479   5.137   6.472   2.307
 1961W        W 5480   7.009   1.078   1.697
 1962W        W 5481   1.175   7.069   8.643
 1963W        W 5482   4.693   7.974   1.370
 1964W        W 5483   0.698   3.882  11.401
 1965W        W 5484   0.455   2.432  11.425
 1966W        W 5485   5.853   9.359  10.800
 1967W        W 5486   5.548   1.829   0.878
 1968W        W 5487   7.354   7.563   2.828
 1969W        W 5488   4.354   3.060   2.177
 1970W        W 5489   8.874   9.231   0.979
 1971W        W 5490   0.961   5.756   2.754
 1972W        W 5491   1.556   5.005   2.504
 1973W        W 5492   4.994   2.550   4.336
 1974W        W 5493   4.636   6.978   1.192
 1975W        W 5494   2.052   3.473  11.405
 1976W        W 5495   8.320   3.764   3.214
 1977W        W 5496   6.442   8.783   3.626
 1978W        W 5497   1.379   8.132   2.729
 1979W        W 5498   3.438   4.051   8.199
 1980W        W 5499   6.403   5.672   3.542
 1981W        W 5500   8.397   4.524   0.254
 1982W        W 5501   0.079   9.851  10.175
 1983W        W 5502   5.261   3.523   0.775
 1984W        W 5503   5.640   7.760   2.273
 1985W        W 5504   5.752   7.415   0.046
 1986W        W 5505   2.698   8.627   2.857
 1987W        W 5506   2.947   1.818   3.620
 1988W        W 5507   4.453   2.333  10.622
 1989W        W 5508   5.279   9.347   3.162
 1990W        W 5509   6.821   8.958   1.599
 1991W        W 5510   8.448   7.132  10.643
 1992W        W 5511   9.981   4.125   1.635
 1993W        W 5512   9.836   1.109   3.294
 1994W        W 5513   5.019   9.298   2.703
 1995W        W 5514   1.189   8.491  10.441
 1996W        W 5515   9.609   2.345   3.517
 1997W        W 5516   0.881   0.607   0.280
 1998W        W 5517   1.608   9.033   1.265
 1999W        W 5518   5.531   7.319   3.597
 2000W        W 5519   7.419   1.038   1.379
 2001W        W 5520   6.178   0.760   0.036
 2002W        W 5521   7.785   0.348  10.580
 2003W        W 5522   0.488   1.548   1.191
 2004W        W 5523   5.473   5.096  11.284
 2005W        W 5524   2.311   4.413   0.755
 2006W        W 5525   7.645   7.602  10.453
 2007W        W 5526   4.823   9.970   0.630
 2008W        W 5527   7.278   2.110   9.078
 2009W        W 5528   7.277   5.715   3.932
 2010W        W 5529   1.185   2.253   1.284
 2011W        W 5530   4.365   5.266   3.321
 2012W        W 5531   3.336   5.889   7.956
 2013W        W 5532   1.055   7.082   3.511
 2014W        W 5533   0.268   3.475   3.471
 2015W        W 5534   8.920   7.785  11.675
 2016W        W 5535   5.453   4.201  11.560
 2017W        W 5536   2.610   7.943  10.752
 2018W        W 5537   5.551   1.078   3.592
 2019W        W 5538   4.352   4.698   1.803
 2020W        W 5539   5.033   6.862   3.219
 2021W        W 5540   9.413   7.958  10.965
 2022W        W 5541   9.340   9.062  11.110
 2023W        W 5542   6.012   8.818   0.408
 2024W        W 5543   0.403   7.614   0.372
 2025W        W 5544   8.213   2.872   9.610
 2026W        W 5545   6.148   7.933   0.593
 2027W        W 5546   2.752   7.467  11.281
 2028W        W 5547   0.363   2.726   1.935
 2029W        W 5548   6.882   6.292  11.795
 2030W        W 5549   6.846   7.340   8.969
 2031W        W 5550   2.678   9.734   9.030
 2032W        W 5551   6.504   3.567   8.692
 2033W        W 5552   1.809   8.697   9.242
 2034W        W 5553   5.642   3.823   9.924
 2035W        W 5554   5.914   7.602   1.813
 2036W        W 5555   6.477   3.507   3.831
 2037W        W 5556   6.734   7.369   9.467
 2038W        W 5557   2.401   2.766   0.516
 2039W        W 5558   8.005   2.245   9.086
 2040W        W 5559   9.138   8.197   1.641
 2041W        W 5560   0.738   5.173  11.476
 2042W        W 5561   4.964   0.563   2.982
 2043W        W 5562   6.060   7.378   0.441
 2044W        W 5563   6.322   0.837  11.539
 2045W        W 5564   3.012   6.404   0.892
 2046W        W 5565   0.018   1.969   2.150
 2047W        W 5566   8.704   3.804   9.465
 2048W        W 5567   0.840   7.093  11.819
 2049W        W 5568   2.575   3.561   2.212
 2050W        W 5569   0.829   6.987   9.024
 2051W        W 5570   1.346   7.488   9.439
 2052W        W 5571   2.981   7.046   9.241
 2053W        W 5572   2.759   3.829   9.797
 2054W        W 5573   7.168   3.141   3.265
 2055W        W 5574   5.162   7.080  11.467
 2056W        W 5575   7.224   8.692   0.699
 2057W        W 5576   6.704   3.839   2.918
 2058W        W 5577   9.998   9.613   8.857
 2059W        W 5578   0.251   7.216   2.848
 2060W        W 5579   9.718   7.720   2.494
 2061W        W 5580   2.819   3.814   1.852
 2062W        W 5581   9.217   1.808   0.467
 2063W        W 5582   9.343   2.092  10.647
 2064W        W 5583   0.174   6.585   2.127
 2065W        W 5584   3.228   4.181   8.663
 2066W        W 5585   2.881   5.994  11.295
 2067W        W 5586   8.207   5.404   0.304
 2068W        W 5587   4.588   8.514   2.267
 2069W        W 5588   4.145   7.151  11.377
 2070W        W 5589   9.680   9.100   2.985
 2071W        W 5590   5.051   8.330   1.184
 2072W        W 5591   5.332   5.269   9.064
 2073W        W 5592   1.616   8.175   1.049
 2074W        W 5593   2.512   8.955   1.097
 2075W        W 5594   9.346   5.529   2.386
 2076W        W 5595   1.768   1.384   3.576
 2077W        W 5596   0.939   6.774   3.118
 2078W        W 5597   7.043   0.868   3.073
 2079W        W 5598   0.354   2.687   3.112
 2080W        W 5599   7.968   2.177   0.920
 2081W        W 5600   1.558   7.645   1.247
 2082W        W 5601   9.182   0.414   1.342
 2083W        W 5602   6.273   3.674   3.109
 2084W        W 5603   5.153   4.418   2.054
 2085W        W 5604   5.546   3.156   3.167
 2086W        W 5605   4.862   7.403   0.976
 2087W        W 5606   6.503   9.816   3.413
 2088W        W 5607   5.204   7.342   3.211
 2089W        W 5608   3.352   3.022  11.204
 2090W        W 5609   1.284   5.831   8.677
 2091W        W 5610   0.800   1.153   0.824
 2092W        W 5611   5.462   1.375  11.156
 2093W        W 5612   9.280   7.080   1.183
 2094W        W 5613   3.613   3.432   0.213
 2095W        W 5614   2.601   4.437   1.199
 2096W        W 5615   7.742   8.448   2.627
 2097W        W 5616   9.025   2.229  11.537
 2098W        W 5617   0.748   2.813   3.408
 2099W        W 5618   6.405   7.651   1.714
 2100W        W 5619   8.270   1.169   8.529
 2101W        W 5620   0.775   4.180   1.717
 2102W        W 5621   7.461   4.900  11.312
 2103W        W 5622   9.024   1.372  10.153
 2104W        W 5623   3.125   2.425   1.064
 2105W        W 5624   6.009   8.142  10.711
 2106W        W 5625   0.389   1.294   9.178
 2107W        W 5626   2.857   6.440  10.531
 2108W        W 5627   7.159   7.439   3.433
 2109W        W 5628   7.466   1.796   9.988
 2110W        W 5629   4.932   8.364   1.872
 2111W        W 5630   7.910   8.833   2.281
 2112W        W 5631   4.001   3.096   9.021
 2113W        W 5632   9.592   4.862  11.309
 2114W        W 5633   1.787   2.140  10.966
 2115W        W 5634   0.547   1.183  10.083
 2116W        W 5635   0.083   9.351   3.165
 2117W        W 5636   4.088   4.153  11.995
 2118W        W 5637   7.300   2.694   0.408
 2119W        W 5638   9.438   6.913  10.133
 2120W        W 5639   2.173   6.151   2.985
 2121W        W 5640   5.608   7.239   8.594
 2122W        W 5641   7.210   2.117   0.515
 2123W        W 5642   8.257   3.107   0.408
 2124W        W 5643   3.552   4.085   1.582
 2125W        W 5644   9.902   2.196   1.527
 2126W        W 5645   0.791   2.801   1.636
 2127W        W 5646   5.146   3.792  11.502
 2128W        W 5647   2.415   2.729   2.313
 2129W        W 5648   5.029   8.239   0.660
 2130W        W 5649   2.773   1.388   1.400
 2131W        W 5650   6.345   7.506   0.837
 2132W        W 5651   5.704   5.635  11.926
 2133W        W 5652   8.907   2.214  10.890
 2134W        W 5653   1.687   6.589   9.753
 2135W        W 5654   6.404   3.662  10.485
 2136W        W 5655   0.770   5.378   2.456
 2137W        W 5656   0.826   1.225  11.727
 2138W        W 5657   0.300   5.032   3.132
 2139W        W 5658   9.076   5.700   9.122
 2140W        W 5659   5.625   9.870  11.045
 2141W        W 5660   5.237   4.987   0.578
 2142W        W 5661   4.264   7.789   1.627
 2143W        W 5662   2.023   4.874   2.715
 2144W        W 5663   1.785   7.051   2.749
 2145W        W 5664   8.119   8.694   0.870
 2146W        W 5665   8.225   9.071   8.661
 2147W        W 5666   1.858   5.200  11.227
 2148W        W 5667   5.470   8.465   2.108
 2149W        W 5668   3.581   2.349   8.663
 2150W        W 5669   4.791   8.544   9.093
 2151W        W 5670   1.850   9.612  11.060
 2152W        W 5671   8.943   7.108   2.670
 2153W        W 5672   2.784   3.023  10.433
 2154W        W 5673   6.553   4.303   3.143
 2155W        W 5674   9.256   4.891   3.213
 2156W        W 5675   5.736   6.136   4.051
 2157W        W 5676   8.831   7.887   1.917
 2158W        W 5677   0.795   6.097   0.846
 2159W        W 5678   1.270   2.540  10.303
 2160W        W 5679   7.253   9.860   8.962
 2161W        W 5680   0.226   9.272   1.621
 2162W        W 5681   1.498   8.923  10.894
 2163W        W 5682   3.296   5.655   1.536
 2164W        W 5683   3.331   0.386   9.024
 2165W        W 5684   3.421   9.779   3.162
 2166W        W 5685   7.281   1.592   8.718
 2167W        W 5686   2.357   4.880   9.266
 2168W        W 5687   8.503   4.816   8.976
 2169W        W 5688   0.247   8.838   0.181
 2170W        W 5689   9.837   4.128   9.783
 2171W        W 5690   5.964   1.842   0.600
 2172W        W 5691   3.568   0.145   2.496
 2173W        W 5692   4.170   0.235   0.821
 2174W        W 5693   9.370   9.046   1.079
 2175W        W 5694   3.585   9.540   9.840
 2176W        W 5695   1.031   4.744  11.547
 2177W        W 5696   7.985   6.357   1.260
 2178W        W 5697   1.335   4.233  10.491
 2179W        W 5698   9.335   2.674   0.545
 2180W        W 5699   3.870   1.268   0.706
 2181W        W 5700   2.361   5.378   1.570
 2182W        W 5701   0.576   8.174   2.937
 2183W        W 5702   4.158   1.960   8.571
 2184W        W 5703   9.459   0.541   3.063
 2185W        W 5704   0.900   6.398   9.897
 2186W        W 5705   6.123   9.992  11.792
 2187W        W 5706   6.317   6.751  10.208
 2188W        W 5707   9.233   7.080   0.361
 2189W        W 5708   2.246   9.571   0.297
 2190W        W 5709   6.512   3.288   1.671
 2191W        W 5710   8.284   4.929   0.578
 2192W        W 5711   4.553   7.676   9.455
 2193W        W 5712   7.933   1.384   9.257
 2194W        W 5713   7.088   2.652  11.645
 2195W        W 5714   3.404   6.474   3.057
 2196W        W 5715   6.997   5.099   2.713
 2197W        W 5716   7.127   2.656  11.147
 2198W        W 5717   9.830   9.416   8.411
 2199W        W 5718   8.879   4.501   8.730
 2200W        W 5719   6.197   8.203   1.832
 2201W        W 5720   3.569   7.421   2.556
 2202W        W 5721   6.531   3.310   2.188
 2203W        W 5722   6.544   4.977   0.191
 2204W        W 5723   6.018   5.562  10.406
 2205W        W 5724   9.888   0.852   9.963
 2206W        W 5725   2.208   0.611   0.429
 2207W        W 5726   2.611   8.228  11.761
 2208W        W 5727   1.221   6.795   9.589
 2209W        W 5728   2.855   9.028   1.458
 2210W        W 5729   7.510   4.265  10.478
 2211W        W 5730   8.300   1.022   1.380
 2212W        W 5731   6.286   7.389  11.911
 2213W        W 5732   0.972   2.130   0.016
 2214W        W 5733   2.723   5.031   3.660
 2215W        W 5734   5.130   8.494  10.062
 2216W        W 5735   0.317   7.389   8.817
 2217W        W 5736   7.423   2.299   9.956
 2218W        W 5737   9.219   3.805   1.752
 2219W        W 5738   0.073   1.740   1.667
 2220W        W 5739   2.483   7.977   3.395
 2221W        W 5740   9.855   2.119   1.014
 2222W        W 5741   5.535   8.799  10.075
 2223W        W 5742   5.343   4.129   2.882
 2224W        W 5743   1.139   6.922  11.274
 2225W        W 5744   3.732   5.005   0.394
 2226W        W 5745   3.577   3.067  10.344
 2227W        W 5746   8.407   0.894   9.924
 2228W        W 5747   7.586   6.064   1.097
 2229W        W 5748   2.562   6.486  11.508
 2230W        W 5749   8.939   7.907   9.742
 2231W        W 5750   7.234   9.736   1.784
 2232W        W 5751   4.666   9.739  10.742
 2233W        W 5752   4.848   9.871   9.710
 2234W        W 5753   5.529   6.720   3.218
 2235W        W 5754   9.446   7.396   2.210
 2236W        W 5755   0.034   2.972   0.495
 2237W        W 5756   4.549   6.496  10.896
 2238W        W 5757   5.303   6.189  10.710
 2239W        W 5758   3.040   2.211   3.956
 2240W        W 5759   4.520   5.128   1.242
 2241W        W 5760   1.040   5.646   0.889
 2242W        W 5761   9.465   7.082  11.871
 2243W        W 5762   2.184   0.781  11.558
 2244W        W 5763   6.835   7.810   3.634
 2245W        W 5764   4.352   8.240  11.254
 2246W        W 5765   1.594   3.875  10.232
 2247W        W 5766   3.580   9.416  10.785
 2248W        W 5767   0.928   0.858  10.763
 2249W        W 5768   5.859   9.822   9.568
 2250W        W 5769   9.585   8.932   8.953
 2251W        W 5770   7.615   6.744   9.549
 2252W        W 5771   5.529   8.497   1.124
 2253W        W 5772   7.580   2.833   1.131
 2254W        W 5773   7.380   1.926  11.970
 2255W        W 5774   8.863   3.768   0.469
 2256W        W 5775   3.824   5.187   4.108
 2257W        W 5776   0.513   9.491   9.685
 2258W        W 5777   7.369   9.354  10.779
 2259W        W 5778   8.034   3.566   1.700
 2260W        W 5779   8.049   8.197  11.022
 2261W        W 5780   7.851   9.361  10.381
 2262W        W 5781   2.876   0.987  11.511
 2263W        W 5782   0.443   8.871   8.934
 2264W        W 5783   3.606   3.102   0.632
 2265W        W 5784   1.688   5.194   2.067
 2266W        W 5785   6.694   7.142   0.803
 2267W        W 5786   9.803   8.915   1.998
 2268W        W 5787   0.810   9.772   9.265
 2269W        W 5788   2.027   4.233  11.070
 2270W        W 5789   9.422   0.195  10.318
 2271W        W 5790   4.823   4.821   2.061
 2272W        W 5791   5.861   3.184   3.559
 2273W        W 5792   1.071   3.543   8.907
 2274W        W 5793   8.270   7.931   8.493
 2275W        W 5794   2.174   9.187  11.815
 2276W        W 5795   1.145   8.891   2.082
 2277W        W 5796   1.154   8.888   3.100
 2278W        W 5797   9.786   9.279   0.794
 2279W        W 5798   8.631   1.661  11.237
 2280W        W 5799   8.685   5.217   0.145
 2281W        W 5800   5.754   1.568  10.418
 2282W        W 5801   1.069   9.015  10.554
 2283W        W 5802   7.168   4.630   9.696
 2284W        W 5803   1.416   5.302   9.455
 2285W        W 5804   0.992   1.807  10.736
 2286W        W 5805   4.712   4.776   3.458
 2287W        W 5806   2.842   3.874   2.854
 2288W        W 5807   2.281   6.847  11.736
 2289W        W 5808   8.306   8.383   1.327
 2290W        W 5809   4.203   7.628   2.314
 2291W        W 5810   2.855   2.369  11.832
 2292W        W 5811   0.956   3.103   0.905
 2293W        W 5812   6.072   2.331   8.968
 2294W        W 5813   9.284   5.478  11.826
 2295W        W 5814   1.727   0.752  11.801
 2296W        W 5815   0.787   9.287   0.213
 2297W        W 5816   8.937   2.571   3.473
 2298W        W 5817   6.319   1.272   8.608
 2299W        W 5818   5.887   5.512   3.492
 2300W        W 5819   3.585   4.519   8.430
 2301W        W 5820   7.999   9.173   0.822
 2302W        W 5821   2.340   4.419   0.234
 2303W        W 5822   9.041   8.302   2.618
 2304W        W 5823   4.127   6.271  11.106
 2305W        W 5824   5.566   7.958  11.410
 2306W        W 5825   2.665   7.298  10.242
 2307W        W 5826   6.777   0.548   9.961
 2308W        W 5827   7.779   7.862   9.131
 2309W        W 5828   2.499   8.513   9.435
 2310W        W 5829   1.063   6.056   3.432
 2311W        W 5830   7.926   3.831  10.075
 2312W        W 5831   6.815   8.302  10.344
 2313W        W 5832   3.324   7.024  10.055
 2314W        W 5833   0.171   8.961   0.675
 2315W        W 5834   8.263   3.761   9.700
 2316W        W 5835   8.643   4.316   3.151
 2317W        W 5836   8.481   6.628  10.553
 2318W        W 5837   5.359   7.577   9.819
 2319W        W 5838   9.102   7.900   2.953
 2320W        W 5839   4.196   2.487   0.019
 2321W        W 5840   7.852   9.168  10.854
 2322W        W 5841   1.328   4.037   0.894
 2323W        W 5842   3.357   5.833   3.644
 2324W        W 5843   6.052   8.610  10.917
 2325W        W 5844   6.576   2.865   1.060
 2326W        W 5845   8.947   6.739   8.404
 2327W        W 5846   6.623   3.725  11.070
 2328W        W 5847   9.749   3.937   2.392
 2329W        W 5848   8.462   3.154  10.932
 2330W        W 5849   1.396   6.983   2.124
 2331W        W 5850   3.281   3.672   3.032
 2332W        W 5851   2.396   6.217  10.662
 2333W        W 5852   0.284   7.504   0.911
 2334W        W 5853   7.923   6.909   9.935
 2335W        W 5854   9.907   8.600   9.951
 2336W        W 5855   3.277   6.155  10.022
 2337W        W 5856   5.992   8.992  10.166
 2338W        W 5857   3.845   3.917  11.333
 2339W        W 5858   7.450   4.942   9.377
 2340W        W 5859   0.368   0.312   1.324
 2341W        W 5860   3.286   0.255   8.512
 2342W        W 5861   5.459   5.883   8.525
 2343W        W 5862   7.488   1.264   9.048
 2344W        W 5863   5.710   5.573   8.858
 2345W        W 5864   9.437   7.039   2.593
 2346W        W 5865   9.898   3.440   2.328
 2347W        W 5866   7.074   6.868   1.758
 2348W        W 5867   3.706   1.253  10.938
 2349W        W 5868   7.915   6.155  11.809
 2350W        W 5869   4.401   5.313  11.249
 2351W        W 5870   6.968   6.905   9.449
 2352W        W 5871   8.466   7.501   8.748
 2353W        W 5872   4.415   2.289  11.147
 2354W        W 5873   9.523   8.763   0.102
 2355W        W 5874   4.642   9.005   1.391
 2356W        W 5875   2.865   5.208   1.631
 2357W        W 5876   1.523   0.401  11.090
 2358W        W 5877   0.274   4.601   0.500
 2359W        W 5878   3.422   5.882   0.071
 2360W        W 5879   5.978   3.706   2.690
 2361W        W 5880   1.706   8.273   3.440
 2362W        W 5881   1.967   4.906  10.791
 2363W        W 5882   3.247   1.704   2.162
 2364W        W 5883   8.446   9.214  10.404
 2365W        W 5884   4.199   8.523   3.389
 2366W        W 5885   1.872   4.193   0.951
 2367W        W 5886   8.789   1.083   0.862
 2368W        W 5887   1.628   8.869   9.881
 2369W        W 5888   5.834   0.769   3.242
 2370W        W 5889   5.584   5.353  10.654
 2371W        W 5890   7.612   9.715   1.370
 2372W        W 5891   9.409   8.032   9.487
 2373W        W 5892   0.724   5.754  10.440
 2374W        W 5893   1.983   4.175   1.944
 2375W        W 5894   3.800   1.145  10.084
 2376W        W 5895   7.378   5.091  10.309
 2377W        W 5896   7.911   0.696   9.863
 2378W        W 5897   0.570   0.237   9.427
 2379W        W 5898   9.896   8.354   1.322
 2380W        W 5899   9.446   9.893   9.348
 2381W        W 5900   8.118   7.556  11.885
 2382W        W 5901   9.497   4.498   0.893
 2383W        W 5902   0.087   3.499   1.512
 2384W        W 5903   9.878   7.890   9.777
 2385W        W 5904   8.039   5.860   9.076
 2386W        W 5905   0.435   0.153  10.439
 2387W        W 5906   5.761   4.548   9.563
 2388W        W 5907   5.604   3.532  10.798
 2389W        W 5908   9.153   7.540   9.468
 2390W        W 5909   6.648   4.838   3.836
 2391W        W 5910   1.592   1.392   3.104
 2392W        W 5911   2.607   2.274   2.219
 2393W        W 5912   0.075   6.408  10.235
 2394W        W 5913   4.938   3.138   1.953
 2395W        W 5914   8.634   0.761   1.657
 2396W        W 5915   2.124   1.399   9.488
 2397W        W 5916   5.054   4.736   9.705
 2398W        W 5917   7.297   6.600   9.180
 2399W        W 5918   2.995   1.249  10.430
 2400W        W 5919   3.621   4.703  11.579
 2401W        W 5920   3.736   1.508   9.708
 2402W        W 5921   1.984   2.148  11.927
 2403W        W 5922   3.994   5.035   3.571
 2404W        W 5923   8.084   4.063  11.096
 2405W        W 5924   7.620   3.945   2.885
 2406W        W 5925   6.189   2.986  11.384
 2407W        W 5926   9.730   7.549  10.744
 2408W        W 5927   8.727   1.770   1.782
 2409W        W 5928   7.487   5.666   1.394
 2410W        W 5929   2.891   8.187   1.143
 2411W        W 5930   4.527   1.577   8.616
 2412W        W 5931   3.130   9.953   2.188
 2413W        W 5932   0.961   2.861   2.099
 2414W        W 5933   7.086   3.963   3.687
 2415W        W 5934   5.644   1.735   3.807
 2416W        W 5935   6.949   5.614  10.914
 2417W        W 5936   7.278   5.698   3.062
 2418W        W 5937   9.199   4.128   8.538
 2419W        W 5938   7.370   3.609   9.243
 2420W        W 5939   8.560   9.770   9.244
 2421W        W 5940   9.749   5.230   2.530
 2422W        W 5941   5.024   1.053  10.367
 2423W        W 5942   8.981   6.036   3.203
 2424W        W 5943   5.037   9.675   3.481
 2425W        W 5944   1.265   8.378   3.194
 2426W        W 5945   8.466   5.743   9.722
 2427W        W 5946   7.515   7.795   9.575
 2428W        W 5947   9.321   9.324  10.209
 2429W        W 5948   3.692   7.248  11.608
 2430W        W 5949   4.534   3.769   8.057
 2431W        W 5950   4.407   7.912   9.018
 2432W        W 5951   5.936   6.005   3.009
 2433W        W 5952   6.462   9.857   8.832
 2434W        W 5953   1.498   5.788  10.885
 2435W        W 5954   0.878   1.893   9.757
 2436W        W 5955   3.595   5.794  10.265
 2437W        W 5956   2.456   9.278   0.690
 2438W        W 5957   1.090   1.113   2.525
 2439W        W 5958   1.905   3.642   2.745
 2440W        W 5959   1.823   0.828  11.203
 2441W        W 5960   4.642   4.588   9.421
 2442W        W 5961   0.842   9.296   3.300
 2443W        W 5962   6.486   7.111   0.289
 2444W        W 5963   1.403   7.028   0.628
 2445W        W 5964   1.823   7.678  11.753
 2446W        W 5965   2.052   7.003  11.300
 2447W        W 5966   3.697   1.820   1.918
 2448W        W 5967   3.068   7.708   1.879
 2449W        W 5968   2.152   8.394  10.391
 2450W        W 5969   7.462   8.965   8.346
 2451W        W 5970   7.424   9.876  10.010
 2452W        W 5971   1.491   6.634  11.018
 2453W        W 5972   7.673   9.275   2.402
 2454W        W 5973   1.647   9.772   2.237
 2455W        W 5974   8.243   6.518  10.057
 2456W        W 5975   7.631   6.987   0.821
 2457W        W 5976   8.409   5.176   9.356
 2458W        W 5977   6.076   1.058   1.313
 2459W        W 5978   5.881   7.709   0.959
 2460W        W 5979   4.050   4.140   9.418
 2461W        W 5980   7.619   9.387   1.893
 2462W        W 5981   9.372   0.429   0.378
 2463W        W 5982   5.475   3.311   8.569
 2464W        W 5983   1.477   2.180  11.946
 2465W        W 5984   6.898   1.888   0.184
 2466W        W 5985   7.215   4.024   0.721
 2467W        W 5986   7.060   8.052   9.351
 2468W        W 5987   9.414   2.200   1.282
 2469W        W 5988   1.738   3.829  11.215
 2470W        W 5989   3.649   9.783  10.389
 2471W        W 5990   2.223   6.174   2.485
 2472W        W 5991   7.453   8.705   0.221
 2473W        W 5992   1.217   4.594   2.922
 2474W        W 5993   9.355   3.821  11.784
 2475W        W 5994   6.235   0.481   2.487
 2476W        W 5995   4.795   7.673   3.406
 2477W        W 5996   3.703   2.925   0.159
 2478W        W 5997   9.550   1.132  10.279
 2479W        W 5998   7.305   7.107   9.057
 2480W        W 5999   3.541   6.245   9.565
 2481W        W 6000   5.511   6.207   3.231
 2482W        W 6001   1.491   3.889   8.807
 2483W        W 6002   6.500   4.330  11.567
 2484W        W 6003   5.994   0.575   1.497
 2485W        W 6004   6.295   4.337   9.865
 2486W        W 6005   1.878   7.014   9.980
 2487W        W 6006   2.775   5.695   1.432
 2488W        W 6007   3.354   6.947   9.567
 2489W        W 6008   2.681   9.607  10.288
 2490W        W 6009   8.420   8.982   3.116
 2491W        W 6010   9.839   6.886   9.417
 2492W        W 6011   6.147   9.267   3.683
 2493W        W 6012   5.662   8.606   3.473
 2494W        W 6013   4.927   5.893   0.000
 2495W        W 6014   4.522   1.203   1.469
 2496W        W 6015   7.331   4.445   3.541
 2497W        W 6016   3.510   4.181   3.323
 2498W        W 6017   8.811   3.464   1.019
 2499W        W 6018   5.481   8.487   9.669
 2500W        W 6019   2.596   2.162   0.426
 2501W        W 6020   3.152   0.674  11.891
 2502W        W 6021   6.056   6.851   0.396
 2503W        W 6022   8.718   9.129   0.179
 2504W        W 6023   8.471   7.471   2.263
 2505W        W 6024   0.208   6.874  10.395
 2506W        W 6025   1.450   2.861   2.144
 2507W        W 6026   9.935   3.827   3.546
 2508W        W 6027   8.602   1.229   1.887
 2509W        W 6028   8.999   6.048   0.340
 2510W        W 6029   1.088   6.558   9.156
 2511W        W 6030   5.973   3.468   8.700
 2512W        W 6031   4.120   8.944   0.314
 2513W        W 6032   8.321   1.887   1.155
 2514W        W 6033   8.724   8.229  10.084
 2515W        W 6034   8.011   2.309   3.189
 2516W        W 6035   6.866   3.403   9.486
 2517W        W 6036   0.863   6.623   8.629
 2518W        W 6037   7.936   5.020   9.534
 2519W        W 6038   8.142   0.833  11.531
 2520W        W 6039   2.728   3.585   0.608
 2521W        W 6040   0.639   8.867   0.492
 2522W        W 6041   7.320   2.295  10.840
 2523W        W 6042   4.660   3.558   1.933
 2524W        W 6043   7.231   5.989   8.588
 2525W        W 6044   1.187   7.410   0.967
 2526W        W 6045   0.553   0.840  11.988
 2527W        W 6046   1.487   3.371   8.650
 2528W        W 6047   9.044   8.201   1.136
 2529W        W 6048   3.974   3.800   2.528
 2530W        W 6049   7.196   7.537   1.192
 2531W        W 6050   9.451   8.390  11.766
 2532W        W 6051   4.927   8.009   9.092
 2533W        W 6052   4.702   3.681   0.735
 2534W        W 6053   6.366   5.790  10.081
 2535W        W 6054   5.231   1.812  11.340
 2536W        W 6055   0.753   8.099   1.598
 2537W        W 6056   3.606   7.733   9.368
 2538W        W 6057   5.812   2.328   2.599
 2539W        W 6058   7.952   4.383  10.711
 2540W        W 6059   2.678   6.079   0.621
 2541W        W 6060   7.866   9.320   2.904
 2542W        W 6061   4.548   5.243   2.265
 2543W        W 6062   3.085   1.338   1.811
 2544W        W 6063   4.982   0.028   8.603
 2545W        W 6064   7.479   2.962  10.999
 2546W        W 6065   2.327   6.674  10.981
 2547W        W 6066   1.313   7.216  11.647
 2548W        W 6067   9.512   6.951   8.583
 2549W        W 6068   6.573   1.049   2.138
 2550W        W 6069   0.638   7.119  11.329
 2551W        W 6070   2.120   8.748  10.990
 2552W        W 6071   4.451   7.353   2.725
 2553W        W 6072   5.609   4.042  10.384
 2554W        W 6073   8.039   7.332  10.223
 2555W        W 6074   0.598   9.019   0.968
 2556W        W 6075   2.697   3.106   9.241
 2557W        W 6076   5.456   0.667   2.902
 2558W        W 6077   6.073   2.783   1.123
 2559W        W 6078   7.393   3.296   2.122
 2560W        W 6079   9.348   0.903   3.401
 2561W        W 6080   5.467   4.054   9.319
 2562W        W 6081   1.062   4.489   0.987
 2563W        W 6082   7.066   2.103   1.924
 2564W        W 6083   4.215   2.265   0.483
 2565W        W 6084   6.429   5.343   0.536
 2566W        W 6085   6.455   7.976   0.997
 2567W        W 6086   5.975   8.292   0.273
 2568W        W 6087   2.526   1.220   0.927
 2569W        W 6088   6.300   6.468   3.596
 2570W        W 6089   5.922   4.907   9.165
 2571W        W 6090   5.364   0.371   8.732
 2572W        W 6091   8.351   6.337  11.577
 2573W        W 6092   6.466   9.800  10.437
 2574W        W 6093   7.228   5.664   0.454
 2575W        W 6094   0.343   6.970  11.762
 2576W        W 6095   7.066   1.609   1.734
 2577W        W 6096   8.128   1.134   2.066
 2578W        W 6097   5.751   3.061   9.521
 2579W        W 6098   8.875   9.551   2.716
 2580W        W 6099   4.036   3.577   2.985
 2581W        W 6100   9.377   3.988  10.332
 2582W        W 6101   4.173   3.375  11.457
 2583W        W 6102   6.653   7.088   2.435
 2584W        W 6103   1.858   3.068   8.847
 2585W        W 6104   8.184   2.295  10.922
 2586W        W 6105   2.241   7.018   3.014
 2587W        W 6106   7.803   1.246  11.520
 2588W        W 6107   0.392   1.147   2.031
 2589W        W 6108   8.979   1.279  11.168
 2590W        W 6109   3.587   3.190   9.850
 2591W        W 6110   3.527   4.362   2.041
 2592W        W 6111   1.300   6.664  10.100
 2593W        W 6112   2.106   8.939   2.555
 2594W        W 6113   4.342   1.159   0.989
 2595W        W 6114   1.365   2.918   9.011
 2596W        W 6115   7.021   6.564   3.042
 2597W        W 6116   5.439   6.112  11.192
 2598W        W 6117   8.524   5.862   3.356
 2599W        W 6118   7.558   3.440  10.915
 2600W        W 6119   7.045   2.487   0.804
 2601W        W 6120   3.519   2.111   2.338
 2602W        W 6121   5.702   3.596   9.456
 2603W        W 6122   4.301   3.672  10.134
 2604W        W 6123   0.774   7.916   0.518
 2605W        W 6124   6.647   2.072   2.388
 2606W        W 6125   6.507   7.912  11.005
 2607W        W 6126   9.843   4.196  10.288
 2608W        W 6127   9.725   1.241   9.643
 2609W        W 6128   9.405   2.212   0.771
 2610W        W 6129   5.244   9.306   0.776
 2611W        W 6130   1.107   0.194   9.349
 2612W        W 6131   1.162   4.858   1.323
 2613W        W 6132   9.903   8.316   9.468
 2614W        W 6133   9.977   2.658  11.309
 2615W        W 6134   3.927   5.097   3.027
 2616W        W 6135   7.104   6.003   8.094
 2617W        W 6136   9.374   7.936  11.485
 2618W        W 6137   4.755   6.157   3.706
 2619W        W 6138   4.546   2.049   1.379
 2620W        W 6139   7.575   1.772   0.433
 2621W        W 6140   3.014   5.736  11.734
 2622W        W 6141   2.012   7.910   9.019
 2623W        W 6142   6.973   1.478   3.958
 2624W        W 6143   2.539   2.847  11.746
 2625W        W 6144   3.153   3.324   1.214
 2626W        W 6145   1.844   5.948   3.813
 2627W        W 6146   1.592   4.812   9.469
 2628W        W 6147   9.933   1.475   0.445
 2629W        W 6148   1.382   9.779  10.038
 2630W        W 6149   1.281   5.784   9.577
 2631W        W 6150   9.569   3.892   8.973
 2632W        W 6151   0.977   8.493   2.762
 2633W        W 6152   7.909   5.137  10.147
 2634W        W 6153   8.192   6.158   8.307
 2635W        W 6154   7.069   6.557   9.812
 2636W        W 6155   7.395   7.124   3.133
 2637W        W 6156   0.510   7.027   3.674
 2638W        W 6157   9.721   0.636  10.428
 2639W        W 6158   2.626   7.464   1.834
 2640W        W 6159   1.712   6.182   0.189
 2641W        W 6160   2.644   5.548  11.431
 2642W        W 6161   3.156   9.421   8.990
 2643W        W 6162   1.984   5.938  10.848
 2644W        W 6163   9.014   8.354   9.489
 2645W        W 6164   3.033   7.798   0.473
 2646W        W 6165   1.340   8.830   9.479
 2647W        W 6166   9.375   3.975  11.288
 2648W        W 6167   0.266   9.364  10.177
 2649W        W 6168   1.758   3.961  10.710
 2650W        W 6169   0.241   6.538   9.430
 2651W        W 6170   7.651   0.822  10.325
 2652W        W 6171   7.779   5.052   2.035
 2653W        W 6172   5.494   1.127   3.091
 2654W        W 6173   9.946   0.901   9.246
 2655W        W 6174   3.281   2.162   2.995
 2656W        W 6175   7.481   1.610   3.365
 2657W        W 6176   2.778   0.061   2.627
 2658W        W 6177   7.778   5.381   3.279
 2659W        W 6178   8.105   8.047  11.510
 2660W        W 6179   5.328   6.174   1.295
 2661W        W 6180   4.158   7.085   3.241
 2662W        W 6181   0.374   7.674   1.394
 2663W        W 6182   5.146   3.123   3.577
 2664W        W 6183   7.510   3.147   0.720
 2665W        W 6184   2.203   7.353   1.028
 2666W        W 6185   6.737   9.342   9.536
 2667W        W 6186   1.379   1.528   2.486
 2668W        W 6187   3.544   7.757  11.673
 2669W        W 6188   9.855   9.618   3.535
 2670W        W 6189   5.593   8.795   8.831
 2671W        W 6190   4.951   6.481  10.102
 2672W        W 6191   0.532   0.216   1.849
 2673W        W 6192   2.038   8.738   0.040
 2674W        W 6193   9.709   4.927   9.603
 2675W        W 6194   9.881   7.367   9.845
 2676W        W 6195   5.664   2.645   9.109
 2677W        W 6196   7.477   1.619  10.680
 2678W        W 6197   9.234   7.511  10.793
 2679W        W 6198   7.623   5.807   9.368
 2680W        W 6199   7.732   6.520   2.522
 2681W        W 6200   0.847   6.128   1.911
 2682W        W 6201   1.649   1.978   1.028
 2683W        W 6202   2.332   7.562  10.530
 2684W        W 6203   0.991   5.368  10.212
 2685W        W 6204   7.012   7.805  10.284
 2686W        W 6205   0.904   1.754   8.541
 2687W        W 6206   5.891   1.014   0.850
 2688W        W 6207   6.485   9.857   1.781
 2689W        W 6208   2.645   9.796  11.381
 2690W        W 6209   0.976   0.025  10.238
 2691W        W 6210   6.134   6.689   0.882
 2692W        W 6211   9.393   4.411  11.556
 2693W        W 6212   8.107   3.925  10.554
 2694W        W 6213   8.041   3.682   2.738
 2695W        W 6214   0.574   3.669   2.549
 2696W        W 6215   9.247   9.816   9.964
 2697W        W 6216   0.292   1.171  11.701
 2698W        W 6217   6.721   7.041  10.672
 2699W        W 6218   8.987   4.236  10.107
 2700W        W 6219   3.095   2.435  10.627
 2701W        W 6220   4.225   0.642   0.036
 2702W        W 6221   4.320   4.003   2.844
 2703W        W 6222   0.054   9.284  10.631
 2704W        W 6223   2.094   8.618   2.145
 2705W        W 6224   0.528   3.074   9.969
 2706W        W 6225   0.554   4.961   1.552
 2707W        W 6226   5.286   5.315  10.176
 2708W        W 6227   1.188   6.550   3.571
 2709W        W 6228   1.059   5.151   1.706
 2710W        W 6229   3.276   0.271   2.888
 2711W        W 6230   8.880   6.930   1.570
 2712W        W 6231   4.470   9.450  11.719
 2713W        W 6232   0.701   5.321   2.947
 2714W        W 6233   9.618   1.716   0.766
 2715W        W 6234   7.018   7.427   2.486
 2716W        W 6235   8.330   1.910  10.276
 2717W        W 6236   6.025   2.786   2.672
 2718W        W 6237   5.586   8.941   3.049
 2719W        W 6238   6.522   9.440   0.502
 2720W        W 6239   5.703   1.406   1.137
 2721W        W 6240   0.661   2.735   1.150
 2722W        W 6241   2.462   7.066   9.201
 2723W        W 6242   5.500   9.301   8.815
 2724W        W 6243   3.883   1.267  11.807
 2725W        W 6244   7.714   7.160  11.363
 2726W        W 6245   7.282   1.154   9.490
 2727W        W 6246   6.537   5.607  10.544
 2728W        W 6247   6.174   0.841   8.832
 2729W        W 6248   2.744   0.942   3.225
 2730W        W 6249   3.071   8.072  11.985
 2731W        W 6250   2.800   7.445  10.728
 2732W        W 6251   1.170   2.769   1.247
 2733W        W 6252   8.975   4.957   1.341
 2734W        W 6253   2.556   5.916   8.815
 2735W        W 6254   4.076   7.509  10.229
 2736W        W 6255   1.145   8.286   1.905
 2737W        W 6256   6.885   8.498   1.337
 2738W        W 6257   9.583   7.811   8.608
 2739W        W 6258   0.863   0.243   2.282
 2740W        W 6259   6.647   7.205   1.681
 2741W        W 6260   1.004   8.865  11.035
 2742W        W 6261   3.752   0.583   9.263
 2743W        W 6262   5.647   4.451   2.020
 2744W        W 6263   0.091   0.879  11.325
 2745W        W 6264   1.938   3.364  10.918
 2746W        W 6265   0.167   7.746  10.981
 2747W        W 6266   4.433   5.037  10.271
 2748W        W 6267   5.526   9.719  10.566
 2749W        W 6268   9.767   5.407   9.446
 2750W        W 6269   4.738   2.048   8.619
 2751W        W 6270   5.088   0.803   1.465
 2752W        W 6271   3.188   5.527   9.299
 2753W        W 6272   0.582   6.569   0.884
 2754W        W 6273   3.630   1.604   9.201
 2755W        W 6274   9.187   0.366   3.454
 2756W        W 6275   0.846   1.184   0.259
 2757W        W 6276   6.011   5.024  10.669
 2758W        W 6277   0.346   1.420   2.480
 2759W        W 6278   5.463   0.738  10.566
 2760W        W 6279   0.017   6.436   2.959
 2761W        W 6280   9.169   5.576   1.914
 2762W        W 6281   2.832   8.474   0.175
 2763W        W 6282   8.990   6.563   0.193
 2764W        W 6283   0.813   4.109  10.764
 2765W        W 6284   4.898   0.389   0.317
 2766W        W 6285   3.443   5.055   0.820
 2767W        W 6286   4.948   6.919  10.998
 2768W        W 6287   0.228   5.899  10.474
 2769W        W 6288   8.795   3.022   1.721
 2770W        W 6289   7.673   4.259  11.786
 2771W        W 6290   3.055   2.619  11.098
 2772W        W 6291   9.804   8.021  11.797
 2773W        W 6292   6.581   6.488   9.073
 2774W        W 6293   6.124   4.163  10.382
 2775W        W 6294   0.728   8.194  10.463
 2776W        W 6295   2.058   5.523   1.953
 2777W        W 6296   1.525   8.876  10.379
 2778W        W 6297   2.240   7.721   0.028
 2779W        W 6298   9.025   8.740  11.992
 2780W        W 6299   0.889   3.849   3.334
 2781W        W 6300   9.825   7.833   3.520
 2782W        W 6301   1.790   4.149   1.472
 2783W        W 6302   8.324   0.856   0.897
 2784W        W 6303   3.995   5.955   2.656
 2785W        W 6304   4.398   6.023   1.798
 2786W        W 6305   4.567   0.844   8.851
 2787W        W 6306   3.668   5.801   1.028
 2788W        W 6307   0.437   1.385   0.545
 2789W        W 6308   7.554   6.580   1.117
 2790W        W 6309   2.677   6.111   1.142
 2791W        W 6310   0.170   8.967   2.842
 2792W        W 6311   0.571   5.650   8.990
 2793W        W 6312   8.810   1.220   9.705
 2794W        W 6313   2.594   0.186   0.700
 2795W        W 6314   6.661   7.534   1.239
 2796W        W 6315   2.706   6.625   1.272
 2797W        W 6316   6.207   8.782   1.542
 2798W        W 6317   1.693   2.761   1.685
 2799W        W 6318   4.739   2.919   9.471
 2800W        W 6319   0.578   7.523   9.242
 2801W        W 6320   3.399   3.938  10.619
 2802W        W 6321   4.256   5.822  11.393
 2803W        W 6322   6.078   9.391   9.840
 2804W        W 6323   6.200   4.603   1.260
 2805W        W 6324   8.141   5.021   3.408
 2806W        W 6325   7.901   4.388   2.732
 2807W        W 6326   9.250   0.174  11.947
 2808W        W 6327   1.313   6.039   1.076
 2809W        W 6328   4.870   6.105   2.005
 2810W        W 6329   8.887   2.766   0.785
 2811W        W 6330   5.099   6.952   0.848
 2812W        W 6331   8.571   6.979   8.757
 2813W        W 6332   9.913   8.538  10.486
 2814W        W 6333   9.044   6.809  11.317
 2815W        W 6334   6.293   2.026   1.576
 2816W        W 6335   8.118   0.714   1.756
 2817W        W 6336   8.270   0.158  10.442
 2818W        W 6337   8.212   9.262   0.339
 2819W        W 6338   5.723   0.379   2.559
 2820W        W 6339   6.564   6.701   0.593
 2821W        W 6340   4.496   1.867  10.853
 2822W        W 6341   4.500   6.075   0.810
 2823W        W 6342   0.704   4.793   2.898
 2824W        W 6343   2.385   8.846  10.542
 2825W        W 6344   9.789   6.146  10.563
 2826W        W 6345   9.837   4.941   1.330
 2827W        W 6346   9.639   2.687   2.549
 2828W        W 6347   6.841   4.553  10.590
 2829W        W 6348   2.159   2.080   8.646
 2830W        W 6349   1.219   7.671   8.584
 2831W        W 6350   2.222   2.339   9.109
 2832W        W 6351   5.795   6.886  10.403
 2833W        W 6352   9.454   0.482   2.553
 2834W        W 6353   4.133   4.608   9.626
 2835W        W 6354   3.798   1.423   3.392
 2836W        W 6355   2.298   4.854  11.997
 2837W        W 6356   3.795   6.419   2.746
 2838W        W 6357   1.559   4.121   0.423
 2839W        W 6358   2.199   2.626   2.884
 2840W        W 6359   2.219   3.406   3.656
 2841W        W 6360   1.429   8.999   0.764
 2842W        W 6361   2.673   9.272   8.770
 2843W        W 6362   3.339   8.192  11.193
 2844W        W 6363   6.389   9.255   1.558
 2845W        W 6364   2.694   6.253   3.571
 2846W        W 6365   3.928   2.183  11.660
 2847W        W 6366   7.568   2.447   0.757
 2848W        W 6367   5.692   4.573   2.534
 2849W        W 6368   8.585   1.601   9.424
 2850W        W 6369   8.907   2.381   9.200
 2851W        W 6370   8.887   1.252   9.175
 2852W        W 6371   2.189   9.664   1.587
 2853W        W 6372   9.237   1.339   0.786
 2854W        W 6373   5.474   7.501   2.764
 2855W        W 6374   6.650   4.254   2.634
 2856W        W 6375   2.107   0.063   9.632
 2857W        W 6376   2.607   8.010   0.244
 2858W        W 6377   6.501   3.399   2.710
 2859W        W 6378   5.706   5.754   0.427
 2860W        W 6379   3.137   9.510  10.525
 2861W        W 6380   4.602   4.137   8.745
 2862W        W 6381   2.429   4.080   2.206
 2863W        W 6382   0.888   4.546   0.524
 2864W        W 6383   6.501   8.810   2.600
 2865W        W 6384   8.834   8.828   9.445
 2866W        W 6385   0.578   5.588  11.806
 2867W        W 6386   3.958   6.244   8.675
 2868W        W 6387   8.208   7.537   9.216
 2869W        W 6388   6.948   3.396   8.980
 2870W        W 6389   2.966   1.900  11.949
 2871W        W 6390   5.927   6.850   1.334
 2872W        W 6391   6.922   4.117  11.357
 2873W        W 6392   5.446   7.003   9.036
 2874W        W 6393   2.723   9.294  11.205
 2875W        W 6394   5.059   0.609   1.947
 2876W        W 6395   3.771   0.557  11.360
 2877W        W 6396   1.773   8.354   2.441
 2878W        W 6397   7.224   7.650  10.766
 2879W        W 6398   0.857   1.080   1.804
 2880W        W 6399   2.007   4.482   9.547
 2881W        W 6400   3.689   1.046  11.392
 2882W        W 6401   9.532   1.917   2.869
 2883W        W 6402   8.105   1.699   2.584
 2884W        W 6403   0.920   3.440   2.892
 2885W        W 6404   6.865   1.911   8.854
 2886W        W 6405   6.609   1.652  11.843
 2887W        W 6406   2.886   8.724  10.493
 2888W        W 6407   0.634   8.058   9.315
 2889W        W 6408   7.165   4.386  11.908
 2890W        W 6409   8.971   1.453   0.089
 2891W        W 6410   7.529   0.765   0.354
 2892W        W 6411   8.674   7.569   2.735
 2893W        W 6412   5.626   7.862  10.904
 2894W        W 6413   7.892   8.003   3.549
 2895W        W 6414   9.345   5.425   8.767
 2896W        W 6415   9.198   1.127   8.774
 2897W        W 6416   8.952   8.784   2.392
 2898W        W 6417   8.272   9.667  10.231
 2899W        W 6418   8.475   3.204   1.361
 2900W        W 6419   8.572   2.947   3.575
 2901W        W 6420   6.016   6.040   3.535
 2902W        W 6421   1.409   3.114   9.776
 2903W        W 6422   3.983   6.564   3.241
 2904W        W 6423   0.915   3.709   1.577
 2905W        W 6424   1.109   7.915   9.210
 2906W        W 6425   6.927   7.073   1.266
 2907W        W 6426   9.963   5.527   0.513
 2908W        W 6427   6.086   0.970   2.283
 2909W        W 6428   5.315   6.476   2.807
 2910W        W 6429   7.070   9.095   0.988
 2911W        W 6430   5.481   9.368   1.626
 2912W        W 6431   3.741   4.008   8.605
 2913W        W 6432   1.831   1.066   9.221
 2914W        W 6433   6.154   7.443   1.327
 2915W        W 6434   7.128   5.323   9.382
 2916W        W 6435   7.000   1.452  10.828
 2917W        W 6436   9.785   9.899   2.473
 2918W        W 6437   3.970   5.785   1.502
 2919W        W 6438   6.109   3.645  10.899
 2920W        W 6439   1.291   5.946  11.525
 2921W        W 6440   6.472   5.460   0.001
 2922W        W 6441   7.763   8.466  10.287
 2923W        W 6442   3.736   2.322   0.187
 2924W        W 6443   4.865   0.535   3.507
 2925W        W 6444   9.928   6.243   2.452
 2926W        W 6445   3.021   2.224   2.549
 2927W        W 6446   0.269   0.061  10.908
 2928W        W 6447   1.060   2.749   2.593
 2929W        W 6448   0.195   6.902   1.728
 2930W        W 6449   8.598   8.471  11.060
 2931W        W 6450   8.623   4.493   2.656
 2932W        W 6451   9.295   6.057  10.516
 2933W        W 6452   9.696   0.347   9.240
 2934W        W 6453   3.564   3.501   9.422
 2935W        W 6454   8.058   7.228   0.909
 2936W        W 6455   5.564   3.426  11.522
 2937W        W 6456   0.965   5.242   9.695
 2938W        W 6457   4.567   0.006  10.107
 2939W        W 6458   5.723   5.457   9.358
 2940W        W 6459   6.210   6.238   8.369
 2941W        W 6460   6.679   6.620   2.669
 2942W        W 6461   8.576   2.194  11.266
 2943W        W 6462   0.995   0.547   1.898
 2944W        W 6463   0.222   1.167   9.650
 2945W        W 6464   3.111   3.519   2.551
 2946W        W 6465   6.264   6.757   8.279
 2947W        W 6466   3.535   7.702   2.106
 2948W        W 6467   9.401   8.444   0.753
 2949W        W 6468   5.257   4.763   8.851
 2950W        W 6469   8.953   8.839   3.246
 2951W        W 6470   8.017   1.952   0.229
 2952W        W 6471   1.470   5.568  10.004
 2953W        W 6472   6.444   8.142   0.051
 2954W        W 6473   0.893   0.625   0.791
 2955W        W 6474   5.625   9.125   3.550
 2956W        W 6475   6.161   5.679   9.102
 2957W        W 6476   1.811   0.891   9.685
 2958W        W 6477   0.375   6.128   9.703
 2959W        W 6478   5.682   1.294   2.149
 2960W        W 6479   5.389   2.290  10.866
 2961W        W 6480   1.437   2.437   0.887
 2962W        W 6481   5.273   8.984  11.971
 2963W        W 6482   2.714   0.238   2.138
 2964W        W 6483   1.647   5.689   2.244
 2965W        W 6484   9.044   6.542   1.985
 2966W        W 6485   7.081   2.973   0.953
 2967W        W 6486   7.062   9.544  11.200
 2968W        W 6487   6.513   0.285  11.274
 2969W        W 6488   3.691   1.416   0.261
 2970W        W 6489   3.915   5.530   3.301
 2971W        W 6490   8.967   8.595  11.455
 2972W        W 6491   4.443   3.045  11.189
 2973W        W 6492   8.143   5.959   2.974
 2974W        W 6493   0.726   1.151   9.585
 2975W        W 6494   7.103   6.925   2.275
 2976W        W 6495   0.510   9.299   2.037
 2977W        W 6496   2.171   2.005  11.450
 2978W        W 6497   2.631   2.450  11.393
 2979W        W 6498   7.061   4.177  10.858
 2980W        W 6499   7.798   7.125  11.902
 2981W        W 6500   5.971   4.043  11.550
 2982W        W 6501   8.721   1.682   8.935
 2983W        W 6502   1.686   1.789   2.794
 2984W        W 6503   0.184   1.111   0.193
 2985W        W 6504   7.468   3.471   3.522
 2986W        W 6505   1.498   1.206  10.500
 2987W        W 6506   6.765   3.835   8.328
 2988W        W 6507   6.012   8.750   1.047
 2989W        W 6508   8.452   7.678  11.499
 2990W        W 6509   0.277   4.667   1.217
 2991W        W 6510   9.043   1.653   3.573
 2992W        W 6511   4.220   1.156   8.615
 2993W        W 6512   0.466   9.365   2.593
 2994W        W 6513   5.797   1.946   1.744
 2995W        W 6514   7.178   9.475   9.286
 2996W        W 6515   9.803   9.424  10.009
 2997W        W 6516   1.309   5.375  11.132
 2998W        W 6517   2.331   7.182  10.883
 2999W        W 6518   9.663   6.492   0.665
 3000W        W 6519   5.651   9.786   2.827
 3001W        W 6520   4.883   4.343  10.013
 3002W        W 6521   8.387   9.546   9.739
 3003W        W 6522   0.822   3.308   1.884
 3004W        W 6523   0.324   4.800   2.122
 3005W        W 6524   6.590   6.001  11.488
 3006W        W 6525   2.278   7.220   0.075
 3007W        W 6526   3.991   7.645  11.392
 3008W        W 6527   6.096   1.661  11.690
 3009W        W 6528   7.570   6.547  10.383
 3010W        W 6529   7.582   4.217   1.575
 3011W        W 6530   3.319   2.016   9.151
 3012W        W 6531   2.282   5.334   9.555
 3013W        W 6532   9.933   6.290  11.407
 3014W        W 6533   2.152   8.239  11.989
 3015W        W 6534   0.267   9.835   2.635
 3016W        W 6535   9.735   7.365   2.977
 3017W        W 6536   2.520   2.996   8.749
 3018W        W 6537   8.526   6.465   8.699
 3019W        W 6538   9.957   4.823   2.790
 3020W        W 6539   1.264   2.412   0.379
 3021W        W 6540   1.809   4.982   0.189
 3022W        W 6541   3.885   8.065   1.964
 3023W        W 6542   3.251   1.471  10.812
 3024W        W 6543   1.055   4.985   9.259
 3025W        W 6544   7.565   6.746  11.619
 3026W        W 6545   7.468   3.090   9.274
 3027W        W 6546   0.847   5.204   8.833
 3028W        W 6547   2.579   3.667   9.309
 3029W        W 6548   7.291   3.937  11.701
 3030W        W 6549   9.588   1.975   1.852
 3031W        W 6550   0.617   7.189   3.215
 3032W        W 6551   3.052   5.292  11.985
 3033W        W 6552   5.423   7.489   0.892
 3034W        W 6553   4.127   1.756   3.097
 3035W        W 6554   7.428   7.465   1.654
 3036W        W 6555   5.713   2.306   2.099
 3037W        W 6556   1.937   5.279   0.706
 3038W        W 6557   5.762   1.044   9.070
 3039W        W 6558   2.553   2.144   3.528
 3040W        W 6559   5.591   2.756   1.282
 3041W        W 6560   2.282   0.524   2.119
 3042W        W 6561   2.717   7.451   8.980
 3043W        W 6562   4.545   9.961   1.077
 3044W        W 6563   5.209   5.003   2.795
 3045W        W 6564   7.465   5.239   2.893
 3046W        W 6565   2.750   7.786  10.297
 3047W        W 6566   6.275   0.345   8.695
 3048W        W 6567   9.187   9.777   8.473
 3049W        W 6568   9.985   1.766  11.201
 3050W        W 6569   9.946   8.880   3.402
 3051W        W 6570   7.113   4.740   3.073
 3052W        W 6571   5.583   7.878  11.959
 3053W        W 6572   7.738   8.731   9.527
 3054W        W 6573   3.522   9.306   1.919
 3055W        W 6574   8.658   4.983  10.850
 3056W        W 6575   8.787   9.479  10.095
 3057W        W 6576   8.527   4.128  10.285
 3058W        W 6577   0.348   4.674   9.182
 3059W        W 6578   9.057   9.287   0.503
 3060W        W 6579   8.843   5.093   9.865
 3061W        W 6580   1.874   0.387  11.471
 3062W        W 6581   7.495   9.078   9.248
 3063W        W 6582   7.206   0.351  11.371
 3064W        W 6583   2.142   9.954  11.472
 3065W        W 6584   4.595   6.941   0.686
 3066W        W 6585   2.759   6.005  10.276
 3067W        W 6586   6.918   1.718   3.206
 3068W        W 6587   5.290   7.029  10.533
 3069W        W 6588   8.179   9.282   2.311
 3070W        W 6589   0.577   9.994   3.440
 3071W        W 6590   8.353   7.473   1.785
 3072W        W 6591   8.992   9.836  11.477
 3073W        W 6592   4.343   8.194   1.063
 3074W        W 6593   9.122   1.795   2.573
 3075W        W 6594   1.419   7.670  11.455
 3076W        W 6595   8.422   1.103   3.390
 3077W        W 6596   3.268   0.226   3.382
 3078W        W 6597   8.403   9.357   2.757
 3079W        W 6598   7.490   7.949   1.903
 3080W        W 6599   8.185   2.704  10.568
 3081W        W 6600   6.939   1.603  11.448
 3082W        W 6601   2.348   9.876   2.872
 3083W        W 6602   9.329   7.732   9.036
 3084W        W 6603   9.894   3.253   9.392
 3085W        W 6604   8.040   5.509   9.430
 3086W        W 6605   7.952   4.231   1.923
 3087W        W 6606   6.115   2.325   9.497
 3088W        W 6607   9.503   2.274  11.754
 3089W        W 6608   0.976   9.225   0.707
 3090W        W 6609   2.121   2.414   3.346
 3091W        W 6610   2.543   6.323   0.035
 3092W        W 6611   5.728   6.427   9.594
 3093W        W 6612   7.635   0.285  11.612
 3094W        W 6613   8.191   0.189   9.197
 3095W        W 6614   4.228   3.277   8.284
 3096W        W 6615   5.378   9.801   8.804
 3097W        W 6616   0.216   9.085  11.377
 3098W        W 6617   6.371   1.922   1.050
 3099W        W 6618   1.407   4.354   9.233
 3100W        W 6619   2.248   0.341   1.419
 3101W        W 6620   7.097   5.044   8.398
 3102W        W 6621   4.016   9.395  10.507
 3103W        W 6622   3.621   6.004   8.367
 3104W        W 6623   1.358   8.969  11.380
 3105W        W 6624   5.964   1.046   9.919
 3106W        W 6625   1.829   7.859   2.000
 3107W        W 6626   0.143   6.785  11.337
 3108W        W 6627   4.251   7.018  10.229
 3109W        W 6628   7.044   5.261   3.179
 3110W        W 6629   7.132   6.029   1.391
 3111W        W 6630   1.757   8.517  10.694
 3112W        W 6631   7.417   9.429   9.743
 3113W        W 6632   6.186   4.229   1.612
 3114W        W 6633   4.281   9.396   2.308
 3115W        W 6634   7.201   5.939  10.585
 3116W        W 6635   3.369   6.354   1.815
 3117W        W 6636   3.897   2.467   2.208
 3118W        W 6637   0.304   8.159   8.939
 3119W        W 6638   0.722   6.671  10.396
 3120W        W 6639   1.199   4.525   3.441
 3121W        W 6640   0.828   9.964  10.714
 3122W        W 6641   1.067   7.776   1.324
 3123W        W 6642   7.794   0.692  11.898
 3124W        W 6643   9.542   8.993   9.854
 3125W        W 6644   3.300   8.944  11.701
 3126W        W 6645   3.172   2.758  10.217
 3127W        W 6646   9.442   4.532  10.361
 3128W        W 6647   5.200   2.068  10.408
 3129W        W 6648   9.078   4.966   8.846
 3130W        W 6649   4.017   9.849   2.306
 3131W        W 6650   5.665   7.515   1.375
 3132W        W 6651   0.524   5.659   2.116
 3133W        W 6652   4.652   7.850  11.867
 3134W        W 6653   5.056   1.190   9.795
 3135W        W 6654   4.029   9.450  11.468
 3136W        W 6655   7.406   5.169   2.377
 3137W        W 6656   4.564   2.835  10.517
 3138W        W 6657   2.364   6.542   3.251
 3139W        W 6658   0.256   9.759   1.774
 3140W        W 6659   7.778   7.812   2.704
 3141W        W 6660   1.509   2.161  10.073
 3142W        W 6661   8.556   8.615  11.777
 3143W        W 6662   3.507   4.541   0.479
 3144W        W 6663   1.818   6.724   3.143
 3145W        W 6664   8.252   7.924   2.582
 3146W        W 6665   9.179   6.073  11.866
 3147W        W 6666   9.187   0.961   2.922
 3148W        W 6667   0.324   7.830  10.500
 3149W        W 6668   1.935   2.402   0.977
 3150W        W 6669   3.582   2.571  10.443
 3151W        W 6670   6.222   2.692   0.654
 3152W        W 6671   7.621   5.358   9.142
 3153W        W 6672   9.947   7.116   0.064
 3154W        W 6673   7.918   1.611   1.776
 3155W        W 6674   2.962   8.586   9.997
 3156W        W 6675   4.985   1.354  11.340
 3157W        W 6676   4.618   6.489   1.508
 3158W        W 6677   5.628   6.835   0.702
 3159W        W 6678   5.857   0.342   9.484
 3160W        W 6679   2.274   7.933  10.188
 3161W        W 6680   0.046   4.228  10.759
 3162W        W 6681   9.903   3.433   0.279
 3163W        W 6682   8.041   5.616  10.443
 3164W        W 6683   4.689   6.321   9.403
 3165W        W 6684   8.514   0.608  11.218
 3166W        W 6685   8.953   5.737   0.749
 3167W        W 6686   6.127   6.584   9.265
 3168W        W 6687   1.291   3.062  11.667
 3169W        W 6688   4.253   5.550   1.909
 3170W        W 6689   4.121   1.306  11.268
 3171W        W 6690   9.233   4.566   0.455
 3172W        W 6691   4.764   0.956   2.193
 3173W        W 6692   6.813   2.395  10.771
 3174W        W 6693   4.846   1.605   1.391
 3175W        W 6694   5.199   0.297   0.714
 3176W        W 6695   2.220   5.096   3.618
 3177W        W 6696   3.355   6.618  11.720
 3178W        W 6697   4.606   1.776   2.793
 3179W        W 6698   3.608   1.084   9.098
 3180W        W 6699   3.554   4.505   7.919
 3181W        W 6700   2.717   3.748  11.180
 3182W        W 6701   2.692   4.335   9.843
 3183W        W 6702   1.316   2.577  11.383
 3184W        W 6703   3.298   0.766   9.428
 3185W        W 6704   6.050   5.725   3.937
 3186W        W 6705   0.956   6.992   0.329
 3187W        W 6706   1.586   3.010  10.806
 3188W        W 6707   9.219   8.362   0.263
 3189W        W 6708   6.911   5.046   2.228
 3190W        W 6709   5.422   7.113  11.026
 3191W        W 6710   6.004   9.546  11.273
 3192W        W 6711   8.143   2.610   2.449
 3193W        W 6712   5.252   9.974   0.312
 3194W        W 6713   6.893   9.838   2.164
 3195W        W 6714   5.179   5.148  10.881
 3196W        W 6715   3.832   8.831   3.132
 3197W        W 6716   9.354   3.389  11.159
 3198W        W 6717   4.477   7.058   2.288
 3199W        W 6718   0.419   6.429   1.713
 3200W        W 6719   5.794   4.497   3.404
 3201W        W 6720   0.825   1.068   9.086
 3202W        W 6721   5.063   1.451   3.090
 3203W        W 6722   6.601   9.257  11.343
 3204W        W 6723   1.769   4.242  11.518
 3205W        W 6724   8.287   7.083   0.027
 3206W        W 6725   4.514   6.439   9.864
 3207W        W 6726   6.683   3.817   9.724
 3208W        W 6727   8.645   1.103  10.350
 3209W        W 6728   3.312   2.642  11.978
 3210W        W 6729   0.413   9.655  10.603
 3211W        W 6730   1.355   5.963   3.026
 3212W        W 6731   7.265   4.390   9.264
 3213W        W 6732   5.139   1.558  10.408
 3214W        W 6733   3.585   4.968   9.185
 3215W        W 6734   8.579   4.313  11.820
 3216W        W 6735   4.342   4.280   1.465
 3217W        W 6736   9.486   1.877   3.373
 3218W        W 6737   3.057   3.839  10.232
 3219W        W 6738   6.368   6.281  11.063
 3220W        W 6739   5.280   7.759   3.576
 3221W        W 6740   0.418   4.380  10.459
 3222W        W 6741   1.390   0.344   1.614
 3223W        W 6742   1.199   2.390   2.243
 3224W        W 6743   9.960   1.726   9.785
 3225W        W 6744   1.746   7.488   9.789
 3226W        W 6745   2.383   3.430   2.677
 3227W        W 6746   5.234   3.641   3.146
 3228W        W 6747   0.549   2.133  10.063
 3229W        W 6748   1.563   1.077   2.693
 3230W        W 6749   7.543   4.770  11.849
 3231W        W 6750   6.516   7.636   0.347
 3232W        W 6751   6.635   4.799   3.314
 3233W        W 6752   6.866   9.362   3.078
 3234W        W 6753   2.091   9.258   2.960
 3235W        W 6754   0.397   6.373  11.197
 3236W        W 6755   4.256   3.073   3.008
 3237W        W 6756   2.180   5.615  11.185
 3238W        W 6757   5.719   3.591   2.243
 3239W        W 6758   9.007   1.038   0.399
 3240W        W 6759   3.178   7.098  10.533
 3241W        W 6760   4.295   4.644  11.879
 3242W        W 6761   0.716   8.291   0.870
 3243W        W 6762   0.825   7.655  10.482
 3244W        W 6763   0.824   1.576   2.693
 3245W        W 6764   4.342   2.429   8.723
 3246W        W 6765   0.116   0.764   1.398
 3247W        W 6766   0.344   1.871   0.385
 3248W        W 6767   0.240   5.653   3.361
 3249W        W 6768   4.774   1.311   3.515
 3250W        W 6769   9.528   6.645   1.127
 3251W        W 6770   6.934   0.170   1.770
 3252W        W 6771   4.154   1.632   2.595
 3253W        W 6772   4.990   5.906  11.105
 3254W        W 6773   6.690   8.258   9.050
 3255W        W 6774   8.064   9.126   1.835
 3256W        W 6775   4.367   6.258   9.003
 3257W        W 6776   7.130   1.623   9.237
 3258W        W 6777   8.943   4.018  11.034
 3259W        W 6778   2.879   6.518   3.128
 3260W        W 6779   6.122   4.413   9.178
 3261W        W 6780   1.622   3.554   9.637
 3262W        W 6781   9.854   9.526   0.020
 3263W        W 6782   6.848   7.679   0.762
 3264W        W 6783   9.844   6.892   2.865
 3265W        W 6784   2.107   0.863  10.652
 3266W        W 6785   4.045   1.982   2.231
 3267W        W 6786   6.888   7.831   8.862
 3268W        W 6787   9.463   0.763   9.033
 3269W        W 6788   0.641   4.788   9.602
 3270W        W 6789   6.649   6.091   3.668
 3271W        W 6790   8.611   5.784   2.862
 3272W        W 6791   8.486   1.245   2.412
 3273W        W 6792   9.312   2.681   1.062
 3274W        W 6793   5.987   6.084   0.814
 3275W        W 6794   1.938   1.670   1.332
 3276W        W 6795   7.892   9.720   2.318
 3277W        W 6796   6.976   6.996   0.357
 3278W        W 6797   9.310   0.065   2.232
 3279W        W 6798   0.469   0.343   0.534
 3280W        W 6799   3.719   0.698  10.316
 3281W        W 6800   2.380   0.687   3.494
 3282W        W 6801   8.687   4.071   8.510
 3283W        W 6802   6.501   4.595   1.774
 3284W        W 6803   2.495   5.476   8.534
 3285W        W 6804   7.610   2.287   0.246
 3286W        W 6805   0.722   3.995  10.272
 3287W        W 6806   3.706   1.561  11.377
 3288W        W 6807   4.954   7.263   8.599
 3289W        W 6808   1.302   6.364   8.744
 3290W        W 6809   9.568   4.971   0.545
 3291W        W 6810   4.638   2.708  11.903
 3292W        W 6811   8.095   6.541   9.565
 3293W        W 6812   1.935   3.156   1.422
 3294W        W 6813   7.681   9.837  11.846
 3295W        W 6814   7.039   4.864   0.017
 3296W        W 6815   7.572   8.427  11.790
 3297W        W 6816   9.959   0.919   0.598
 3298W        W 6817   6.295   5.379  11.388
 3299W        W 6818   5.157   4.471   9.258
 3300W        W 6819   4.245   3.906   3.373
 3301W        W 6820   4.451   3.157   1.666
 3302W        W 6821   9.928   9.433   2.681
 3303W        W 6822   7.072   8.157   1.679
 3304W        W 6823   7.729   3.033   9.732
 3305W        W 6824   0.875   9.728  11.972
 3306W        W 6825   3.448   3.885   2.466
 3307W        W 6826   5.425   7.896   9.127
 3308W        W 6827   5.888   9.658   1.777
 3309W        W 6828   3.937   2.687   0.527
 3310W        W 6829   5.060   3.344  10.597
 3311W        W 6830   6.623   7.083   4.243
 3312W        W 6831   8.088   8.628   1.825
 3313W        W 6832   3.927   0.286  11.828
 3314W        W 6833   0.333   0.434  11.240
 3315W        W 6834   7.947   1.381   1.246
 3316W        W 6835   0.140   1.713   0.857
 3317W        W 6836   3.500   8.855   3.556
 3318W        W 6837   3.918   6.394   3.789
 3319W        W 6838   6.338   0.196   9.603
 3320W        W 6839   8.058   6.406   0.328
 3321W        W 6840   6.472   4.822   9.136
 3322W        W 6841   0.759   4.851   2.385
 3323W        W 6842   2.852   2.394   3.161
 3324W        W 6843   5.455   1.488   9.672
 3325W        W 6844   6.758   5.617   3.929
 3326W        W 6845   8.598   8.046   2.942
 3327W        W 6846   9.901   9.879  11.267
 3328W        W 6847   2.151   1.007   2.091
 3329W        W 6848   2.424   6.943   9.968
 3330W        W 6849   9.064   3.444   2.991
 3331W        W 6850   7.591   3.719   1.440
 3332W        W 6851   1.066   6.636   1.830
 3333W        W 6852   6.033   2.736   9.799
 3334W        W 6853   8.807   1.500   0.577
 3335W        W 6854   9.039   9.620   2.242
 3336W        W 6855   4.751   7.073  10.500
 3337W        W 6856   3.885   5.879  11.738
 3338W        W 6857   6.111   3.194  10.529
 3339W        W 6858   9.823   8.823   9.444
 3340W        W 6859   9.274   0.895  10.961
 3341W        W 6860   5.475   8.338  11.771
 3342W        W 6861   0.695   8.667  10.673
 3343W        W 6862   7.443   9.130   0.533
 3344W        W 6863   1.096   5.129   0.888
 3345W        W 6864   4.546   1.812   9.071
 3346W        W 6865   2.122   2.634   8.686
 3347W        W 6866   5.679   5.235   0.545
 3348W        W 6867   1.203   6.231  11.996
 3349W        W 6868   5.599   9.376   9.696
 3350W        W 6869   1.791   0.871  10.229
 3351W        W 6870   6.437   2.110   0.007
 3352W        W 6871   2.295   9.986  10.986
 3353W        W 6872   5.800   9.083   0.014
 3354W        W 6873   0.182   1.484   3.901
 3355W        W 6874   3.779   3.750  11.831
 3356W        W 6875   2.227   5.994   2.004
 3357W        W 6876   8.110   7.146   8.924
 3358W        W 6877   4.894   4.050   0.421
 3359W        W 6878   5.125   6.845   0.340
 3360W        W 6879   7.947   5.441   1.356
 3361W        W 6880   6.012   5.574   0.803
 3362W        W 6881   1.023   4.131   9.536
 3363W        W 6882   3.412   0.287   9.529
 3364W        W 6883   6.284   8.620  11.400
 3365W        W 6884   8.430   2.606   9.226
 3366W        W 6885   9.421   0.315   8.767
 3367W        W 6886   7.700   5.072   1.000
 3368W        W 6887   7.974   7.605  11.255
 3369W        W 6888   3.543   6.083   1.431
 3370W        W 6889   0.780   1.594   9.008
 3371W        W 6890   6.859   7.578  11.165
 3372W        W 6891   0.806   9.655   0.939
 3373W        W 6892   4.034   3.042   0.890
 3374W        W 6893   7.831   8.258   9.792
 3375W        W 6894   1.840   7.176  11.767
 3376W        W 6895   0.127   7.853   9.307
 3377W        W 6896   5.354   4.290   9.770
 3378W        W 6897   7.513   5.814   3.490
 3379W        W 6898   8.273   4.153   0.612
 3380W        W 6899   0.920   2.268  11.523
 3381W        W 6900   4.776   6.476   0.666
 3382W        W 6901   4.654   0.867   2.690
 3383W        W 6902   6.399   7.547   9.831
 3384W        W 6903   3.637   0.492   1.664
 3385W        W 6904   9.783   6.760   2.362
 3386W        W 6905   4.734   0.317  11.406
 3387W        W 6906   7.397   8.309  10.946
 3388W        W 6907   3.832   0.055  11.356
 3389W        W 6908   0.527   3.675   1.228
 3390W        W 6909   3.191   6.027   0.579
 3391W        W 6910   7.965   8.159   1.767
 3392W        W 6911   3.922   5.883   9.510
 3393W        W 6912   9.267   5.449   3.235
 3394W        W 6913   8.546   7.473   0.825
 3395W        W 6914   9.631   5.306   0.170
 3396W        W 6915   8.133   0.661  10.333
 3397W        W 6916   2.730   4.398   8.532
 3398W        W 6917   0.493   0.863   0.536
 3399W        W 6918   6.840   6.552   3.530
 3400W        W 6919   9.574   3.330  11.860
 3401W        W 6920   9.235   8.186  10.052
 3402W        W 6921   3.032   4.356   0.343
 3403W        W 6922   4.785   6.683   3.630
 3404W        W 6923   3.636   0.728  10.833
 3405W        W 6924   9.660   1.739   1.284
 3406W        W 6925   9.856   0.261   1.182
 3407W        W 6926   2.611   0.667  11.802
 3408W        W 6927   5.251   6.302   3.722
 3409W        W 6928   8.977   9.989   9.544
 3410W        W 6929   5.718   0.171   1.894
 3411W        W 6930   4.960   9.398  11.921
 3412W        W 6931   0.311   8.029  11.760
 3413W        W 6932   7.744   6.812   9.043
 3414W        W 6933   4.509   7.918  10.878
 3415W        W 6934   8.708   0.256   3.242
 3416W        W 6935   3.068   3.393  11.439
 3417W        W 6936   2.233   5.986   0.904
 3418W        W 6937   9.121   0.762  10.474
 3419W        W 6938   8.381   9.325  11.848
 3420W        W 6939   5.267   1.925   8.567
 3421W        W 6940   0.772   8.098  11.519
 3422W        W 6941   7.933   3.329   1.267
 3423W        W 6942   2.143   4.400   2.852
 3424W        W 6943   8.026   4.694   9.903
 3425W        W 6944   3.842   8.859   0.728
 3426W        W 6945   0.419   4.225  11.101
 3427W        W 6946   4.987   2.058  11.748
 3428W        W 6947   4.918   9.969   2.130
 3429W        W 6948   4.310   9.018   3.232
 3430W        W 6949   0.281   8.822  10.263
 3431W        W 6950   2.532   4.766   2.853
 3432W        W 6951   3.258   2.246   9.624
 3433W        W 6952   6.339   2.988  10.118
 3434W        W 6953   1.285   2.069   3.373
 3435W        W 6954   2.524   2.682   9.507
 3436W        W 6955   6.636   1.832   1.915
 3437W        W 6956   2.899   5.998   0.158
 3438W        W 6957   7.398   2.656   9.589
 3439W        W 6958   3.622   4.430   8.919
 3440W        W 6959   8.564   2.633  10.951
 3441W        W 6960   0.328   5.910   0.708
 3442W        W 6961   1.267   8.053  11.750
 3443W        W 6962   9.328   3.772  10.809
 3444W        W 6963   9.611   1.750  10.881
 3445W        W 6964   1.484   2.999  10.292
 3446W        W 6965   7.264   5.056   8.896
 3447W        W 6966   1.379   9.357  10.313
 3448W        W 6967   6.304   0.939  10.615
 3449W        W 6968   3.078   8.993   9.275
 3450W        W 6969   6.347   1.779   8.754
 3451W        W 6970   3.711   8.559   9.986
 3452W        W 6971   3.774   7.957   2.480
 3453W        W 6972   1.847   1.797   9.629
 3454W        W 6973   8.142   3.050   1.710
 3455W        W 6974   6.004   1.869  10.756
 3456W        W 6975   5.963   3.333  10.000
 3457W        W 6976   5.989   9.510   9.150
 3458W        W 6977   5.981   4.122   1.143
 3459W        W 6978   9.559   5.328   9.948
 3460W        W 6979   6.386   0.163   1.126
 3461W        W 6980   0.296   9.329   0.322
 3462W        W 6981   7.986   3.251   9.346
 3463W        W 6982   1.569   2.789   2.642
 3464W        W 6983   6.909   2.381   9.307
 3465W        W 6984   3.076   9.963   9.262
 3466W        W 6985   3.453   9.406   3.536
 3467W        W 6986   5.318   7.000   2.816
 3468W        W 6987   1.847   3.786  11.736
 3469W        W 6988   8.211   1.462  10.987
 3470W        W 6989   5.085   3.492   8.233
 3471W        W 6990   1.129   3.074   3.607
 3472W        W 6991   8.688   9.352   1.443
 3473W        W 6992   5.253   4.610  11.192
 3474W        W 6993   4.875   7.726   9.846
 3475W        W 6994   7.994   2.250  10.438
 3476W        W 6995   5.989   4.702   1.710
 3477W        W 6996   1.537   4.283   9.730
 3478W        W 6997   6.220   6.392   2.797
 3479W        W 6998   5.437   3.545  10.310
 3480W        W 6999   5.341   2.877   8.807
 3481W        W 7000   7.626   8.430   2.099
 3482W        W 7001   3.632   3.438   8.927
 3483W        W 7002   3.243   4.616   3.437
 3484W        W 7003   4.480   3.491   2.780
 3485W        W 7004   3.558   7.862   0.172
 3486W        W 7005   7.026   4.591   2.605
 3487W        W 7006   2.226   4.711   3.258
 3488W        W 7007   8.482   3.407   1.848
 3489W        W 7008   4.011   7.483   0.382
 3490W        W 7009   0.354   5.406  10.383
 3491W        W 7010   2.329   0.179  10.084
 3492W        W 7011   1.322   2.345   9.120
 3493W        W 7012   7.386   6.240   3.198
 3494W        W 7013   2.712   7.014   0.282
 3495W        W 7014   3.626   5.393   3.691
 3496W        W 7015   2.751   6.915  10.769
 3497W        W 7016   1.688   9.053  11.755
 3498W        W 7017   4.079   8.521  11.602
 3499W        W 7018   5.461   2.923  11.635
 3500W        W 7019   5.447   0.459   0.281
 3501W        W 7020   0.391   4.174   1.323
 3502W        W 7021   9.761   6.142   8.361
 3503W        W 7022   4.504   7.111   8.791
 3504W        W 7023   8.861   9.517  11.868
 3505W        W 7024   6.054   5.081   0.928
 3506W        W 7025   8.949   2.627   2.932
 3507W        W 7026   2.790   3.378   1.578
 3508W        W 7027   5.595   7.097   1.667
 3509W        W 7028   5.173   7.821   3.079
 3510W        W 7029   4.209   7.391   9.718
 3511W        W 7030   3.497   6.856  11.279
 3512W        W 7031   0.915   2.772   0.298
 3513W        W 7032   1.428   1.849   9.317
 3514W        W 7033   4.242   5.564   2.912
 3515W        W 7034   9.448   7.222   9.129
 3516W        W 7035   5.189   9.844   3.018
 3517W        W 7036   6.621   6.688   1.573
 3518W        W 7037   2.123   4.752  10.318
 3519W        W 7038   3.438   0.284  11.647
 3520W        W 7039   3.504   9.485   0.737
 3521W        W 7040   5.490   1.950  11.818
 3522W        W 7041   8.490   6.876  11.103
 3523W        W 7042   8.864   0.030   2.563
 3524W        W 7043   7.297   0.110   1.416
 3525W        W 7044   2.059   8.261   9.381
 3526W        W 7045   1.969   1.370   2.589
 3527W        W 7046   4.437   6.997  10.916
 3528W        W 7047   5.179   1.408   0.483
 3529W        W 7048   9.907   8.464  10.998
 3530W        W 7049   9.970   0.363   2.596
 3531W        W 7050   6.171   6.538  11.975
 3532W        W 7051   2.927   7.700   0.998
 3533W        W 7052   5.663   0.667   2.133
 3534W        W 7053   0.323   6.079   9.171
 3535W        W 7054   1.724   9.528   1.377
 3536W        W 7055   5.268   6.971   8.303
 3537W        W 7056   9.486   8.483   9.190
 3538W        W 7057   6.621   4.436  11.072
 3539W        W 7058   0.996   0.696  11.771
 3540W        W 7059   7.145   6.526   0.394
 3541W        W 7060   8.926   3.609  11.965
 3542W        W 7061   2.427   1.211   9.864
 3543W        W 7062   1.260   8.224   1.423
 3544W        W 7063   9.406   8.597   1.813
 3545W        W 7064   5.456   3.808   8.414
 3546W        W 7065   9.904   0.173  10.519
 3547W        W 7066   8.179   4.777   2.526
 3548W        W 7067   8.945   8.185   0.642
 3549W        W 7068   6.134   0.686   0.538
 3550W        W 7069   5.446   4.873   9.359
 3551W        W 7070   5.971   7.020   8.960
 3552W        W 7071   0.607   7.885  10.069
 3553W        W 7072   6.705   5.682   3.066
 3554W        W 7073   0.371   3.904   0.779
 3555W        W 7074   2.176   1.614  11.827
 3556W        W 7075   5.114   1.567  11.792
 3557W        W 7076   7.969   6.886   3.007
 3558W        W 7077   0.978   1.421   9.931
 3559W        W 7078   0.629   9.882   1.434
 3560W        W 7079   4.337   9.200   9.540
 3561W        W 7080   7.827   3.198  11.283
 3562W        W 7081   6.875   3.737  10.629
 3563W        W 7082   6.960   8.506   0.298
 3564W        W 7083   6.909   1.067   9.964
 3565W        W 7084   1.824   2.593  10.216
 3566W        W 7085   0.903   9.549  11.060
 3567W        W 7086   6.607   7.986   9.986
 3568W        W 7087   6.955   9.720  10.223
 3569W        W 7088   1.757   8.886   1.797
 3570W        W 7089   1.060   5.003   3.251
 3571W        W 7090   9.815   6.017   0.577
 3572W        W 7091   8.514   2.894   3.075
 3573W        W 7092   4.569   7.390  10.081
 3574W        W 7093   4.587   6.988   1.697
 3575W        W 7094   4.436   9.046  10.217
 3576W        W 7095   9.356   7.221   1.686
 3577W        W 7096   8.713   4.413   9.253
 3578W        W 7097   9.786   8.763   0.986
 3579W        W 7098   9.187   0.377   9.252
 3580W        W 7099   1.418   1.182  10.003
 3581W        W 7100   8.064   8.702   9.925
 3582W        W 7101   7.783   6.317   9.224
 3583W        W 7102   4.278   8.374  10.746
 3584W        W 7103   1.755   6.073   0.701
 3585W        W 7104   1.651   0.705   8.937
 3586W        W 7105   4.198   7.850   2.772
 3587W        W 7106   6.650   9.311   3.540
 3588W        W 7107   6.428   0.901  10.117
 3589W        W 7108   4.893   8.191   3.407
 3590W        W 7109   5.243   7.427   2.307
 3591W        W 7110   5.879   7.524   8.920
 3592W        W 7111   1.778   2.064   8.992
 3593W        W 7112   2.815   0.899   9.576
 3594W        W 7113   4.927   7.294   0.475
 3595W        W 7114   9.904   9.734  10.780
 3596W        W 7115   3.194   5.082   9.554
 3597W        W 7116   1.469   9.952   1.273
 3598W        W 7117   0.335   1.724   2.940
 3599W        W 7118   7.160   9.093  11.454
 3600W        W 7119   1.958   0.303   8.908
 3601W        W 7120   7.361   5.327   3.560
 3602W        W 7121   9.615   9.733  10.355
 3603W        W 7122   4.633   0.751   1.687
 3604W        W 7123   6.968   1.369   2.174
 3605W        W 7124   1.707   5.677   1.029
 3606W        W 7125   2.288   1.179   3.397
 3607W        W 7126   6.525   4.887   0.909
 3608W        W 7127   9.606   0.092   2.900
 3609W        W 7128   5.545   8.441   2.623
 3610W        W 7129   1.359   7.613  11.977
 3611W        W 7130   6.637   3.311   0.795
 3612W        W 7131   4.794   1.116   9.326
 3613W        W 7132   2.579   2.154   1.716
 3614W        W 7133   0.740   3.323   3.368
 3615W        W 7134   8.537   8.861   1.147
 3616W        W 7135   6.234   1.101   3.242
 3617W        W 7136   5.120   6.982   4.094
 3618W        W 7137   6.093   4.577  11.436
 3619W        W 7138   2.287   9.773   0.764
 3620W        W 7139   2.427   2.408   0.879
 3621W        W 7140   7.152   2.635   3.484
 3622W        W 7141   5.615   6.587   1.923
 3623W        W 7142   4.762   2.206   3.473
 3624W        W 7143   1.832   0.025   1.643
 3625W        W 7144   6.637   8.329   9.551
 3626W        W 7145   1.299   4.158   2.595
 3627W        W 7146   6.357   3.064   8.748
 3628W        W 7147   3.221   5.584   2.769
 3629W        W 7148   5.139   5.870   3.964
 3630W        W 7149   9.662   5.165   3.040
 3631W        W 7150   5.542   9.026   0.475
 3632W        W 7151   3.597   2.069  10.450
 3633W        W 7152   6.932   7.294   9.938
 3634W        W 7153   2.918   9.241   0.982
 3635W        W 7154   3.311   3.642   9.838
 3636W        W 7155   5.858   0.001   1.065
 3637W        W 7156   8.915   5.965   9.546
 3638W        W 7157   8.606   5.722   0.252
 3639W        W 7158   7.658   3.230   1.698
 3640W        W 7159   5.242   5.812   1.664
 3641W        W 7160   7.725   0.034   9.073
 3642W        W 7161   0.574   9.152  10.514
 3643W        W 7162   1.574   5.057   1.576
 3644W        W 7163   8.334   8.867   2.621
 3645W        W 7164   4.318   0.653   0.543
 3646W        W 7165   5.171   9.314   2.185
 3647W        W 7166   4.726   3.663  11.784
 3648W        W 7167   4.472   1.881   9.909
 3649W        W 7168   8.816   2.133   2.830
 3650W        W 7169   5.535   7.771   8.628
 3651W        W 7170   0.420   1.899  11.417
 3652W        W 7171   1.801   9.109   8.944
 3653W        W 7172   0.417   7.035   0.769
 3654W        W 7173   4.077   3.278   2.563
 3655W        W 7174   8.097   3.711  11.925
 3656W        W 7175   6.782   2.322  11.284
 3657W        W 7176   0.972   2.325  10.681
 3658W        W 7177   2.946   2.674   3.664
 3659W        W 7178   6.130   9.989   2.110
 3660W        W 7179   6.717   4.636   1.323
 3661W        W 7180   6.543   8.939   3.116
 3662W        W 7181   8.132   9.195  10.002
 3663W        W 7182   3.159   7.495  10.191
 3664W        W 7183   9.688   2.795  11.708
 3665W        W 7184   9.658   4.726  10.817
 3666W        W 7185   6.049   9.866   3.143
 3667W        W 7186   1.746   8.041   1.527
 3668W        W 7187   3.606   6.607   9.909
 3669W        W 7188   1.826   1.769   2.282
 3670W        W 7189   0.616   6.040  10.841
 3671W        W 7190   7.061   0.364   3.130
 3672W        W 7191   1.633   7.384   1.771
 3673W        W 7192   4.619   8.799   8.552
 3674W        W 7193   2.287   7.065   2.520
 3675W        W 7194   7.680   7.841  10.908
 3676W        W 7195   1.278   0.430   1.105
 3677W        W 7196   0.591   0.810  11.476
 3678W        W 7197   3.157   4.778   2.034
 3679W        W 7198   7.117   5.298  11.744
 3680W        W 7199   5.114   7.846   1.077
 3681W        W 7200   4.576   0.219  10.574
 3682W        W 7201   4.914   3.110  11.031
 3683W        W 7202   8.375   9.945   1.081
 3684W        W 7203   1.674   4.467  10.800
 3685W        W 7204   8.491   0.548   2.683
 3686W        W 7205   4.032   3.363   1.321
 3687W        W 7206   0.395   1.722  10.902
 3688W        W 7207   5.181   5.671   2.145
 3689W        W 7208   6.779   5.535  11.414
 3690W        W 7209   5.688   2.720   1.781
 3691W        W 7210   0.780   4.380   9.918
 3692W        W 7211   2.994   8.701   1.060
 3693W        W 7212   9.041   9.931   9.005
 3694W        W 7213   2.240   4.419  11.687
 3695W        W 7214   6.267   9.132   9.446
 3696W        W 7215   9.336   5.666   9.588
 3697W        W 7216   8.024   6.269   8.781
 3698W        W 7217   4.256   7.483  10.997
 3699W        W 7218   8.375   6.696   3.234
 3700W        W 7219   7.394   4.023   8.933
 3701W        W 7220   7.829   2.691   9.326
 3702W        W 7221   0.481   4.916  10.482
 3703W        W 7222   3.047   8.410  11.563
 3704W        W 7223   2.212   7.419  10.006
 3705W        W 7224   8.002   7.944   1.296
 3706W        W 7225   2.200   1.843   2.636
 3707W        W 7226   6.187   5.314   9.924
 3708W        W 7227   2.365   0.255   3.215
 3709W        W 7228   0.331   6.441  11.736
 3710W        W 7229   4.745   9.591   3.043
 3711W        W 7230   2.640   0.426   0.239
 3712W        W 7231   3.891   4.656   2.211
 3713W        W 7232   2.279   5.249  10.580
 3714W        W 7233   5.365   1.120   0.876
 3715W        W 7234   9.250   2.013  10.147
 3716W        W 7235   2.286   0.909   9.463
 3717W        W 7236   1.775   8.676   0.903
 3718W        W 7237   7.225   6.844  10.617
 3719W        W 7238   4.105   8.546   2.012
 3720W        W 7239   2.828   4.603  11.043
 3721W        W 7240   4.783   5.630   1.828
 3722W        W 7241   1.641   8.860   2.311
 3723W        W 7242   0.277   8.288  10.211
 3724W        W 7243   6.668   6.618   0.114
 3725W        W 7244   6.686   5.105   9.530
 3726W        W 7245   0.443   2.076  11.905
 3727W        W 7246   7.547   8.925   2.747
 3728W        W 7247   3.688   0.026   9.905
 3729W        W 7248   2.263   6.347   1.301
 3730W        W 7249   5.461   3.636   0.328
 3731W        W 7250   3.575   5.048   2.087
 3732W        W 7251   1.254   4.394   1.647
 3733W        W 7252   5.821   8.407  11.324
 3734W        W 7253   8.698   8.567   2.890
 3735W        W 7254   0.932   7.860   2.113
 3736W        W 7255   3.212   9.902   9.769
 3737W        W 7256   7.488   7.105   2.581
 3738W        W 7257   4.874   5.301   0.404
 3739W        W 7258   2.731   8.485   3.356
 3740W        W 7259   5.418   9.437   0.186
 3741W        W 7260   2.282   4.569   1.865
 3742W        W 7261   3.514   9.260   9.397
 3743W        W 7262   5.660   4.070   2.462
 3744W        W 7263   8.874   9.734   0.670
 3745W        W 7264   3.910   2.588   9.008
 3746W        W 7265   6.159   2.907   1.611
 3747W        W 7266   8.992   0.473   2.838
 3748W        W 7267   1.181   8.171   8.762
 3749W        W 7268   6.708   1.239  10.421
 3750W        W 7269   5.107   8.606   8.700
 3751W        W 7270   9.394   4.646   1.957
 3752W        W 7271   9.759   9.789   0.948
 3753W        W 7272   4.900   0.338   1.288
 3754W        W 7273   0.306   5.554  10.869
 3755W        W 7274   8.132   4.126  11.619
 3756W        W 7275   0.369   4.701  10.035
 3757W        W 7276   2.235   8.449   2.651
 3758W        W 7277   3.918   1.845   0.448
 3759W        W 7278   3.812   2.677  11.746
 3760W        W 7279   1.064   2.070   1.750
 3761W        W 7280   6.436   4.105   9.408
 3762W        W 7281   6.338   6.106   8.851
 3763W        W 7282   6.043   9.406   0.304
 3764W        W 7283   4.883   1.120  11.802
 3765W        W 7284   5.960   5.252   1.805
 3766W        W 7285   2.844   5.998  10.787
 3767W        W 7286   1.341   2.377   2.910
 3768W        W 7287   2.303   0.054   2.390
 3769W        W 7288   7.193   9.133   0.071
 3770W        W 7289   6.907   4.908   0.553
 3771W        W 7290   6.879   5.366   0.782
 3772W        W 7291   9.079   3.867   1.258
 3773W        W 7292   4.143   0.873  11.568
 3774W        W 7293   6.777   8.780  11.401
 3775W        W 7294   6.711   9.047   8.790
 3776W        W 7295   4.655   0.331   8.865
 3777W        W 7296   8.499   8.062   9.516
 3778W        W 7297   8.944   4.404   1.358
 3779W        W 7298   1.859   9.702   2.739
 3780W        W 7299   2.674   9.252  11.726
 3781W        W 7300   2.227   9.530   9.491
 3782W        W 7301   7.956   7.904   0.405
 3783W        W 7302   6.981   4.812   9.240
 3784W        W 7303   0.116   0.099   0.222
 3785W        W 7304   7.583   5.489   1.859
 3786W        W 7305   4.536   0.823   3.203
 3787W        W 7306   4.290   1.786   1.794
 3788W        W 7307   7.203   1.332   3.004
 3789W        W 7308   2.407   9.843   3.526
 3790W        W 7309   6.732   2.927   3.445
 3791W        W 7310   0.059   7.642  11.529
 3792W        W 7311   4.947   1.422   8.916
 3793W        W 7312   7.591   7.094  10.339
 3794W        W 7313   4.848   9.014   0.927
 3795W        W 7314   2.364   0.875  11.092
 3796W        W 7315   5.089   3.113   0.484
 3797W        W 7316   5.642   5.909   9.580
 3798W        W 7317   3.192   9.941  10.795
 3799W        W 7318   1.649   2.339   1.983
 3800W        W 7319   2.250   4.045   1.269
 3801W        W 7320   0.674   8.864   2.296
 3802W        W 7321   2.199   3.181   2.280
 3803W        W 7322   6.075   2.662  11.798
 3804W        W 7323   9.755   4.491   0.448
 3805W        W 7324   1.503   4.490   0.767
 3806W        W 7325   5.144   4.036   2.429
 3807W        W 7326   8.919   7.483   0.473
 3808W        W 7327   3.308   6.594  10.338
 3809W        W 7328   4.485   2.255   1.825
 3810W        W 7329   2.860   1.446   2.782
 3811W        W 7330   5.335   4.198   8.744
 3812W        W 7331   8.378   9.023  11.409
 3813W        W 7332   8.161   1.893  11.250
 3814W        W 7333   0.322   0.710   2.905
 3815W        W 7334   5.834   5.577   2.737
 3816W        W 7335   4.734   4.381  10.995
 3817W        W 7336   1.867   2.231   2.943
 3818W        W 7337   4.430   2.747   0.406
 3819W        W 7338   8.267   3.829   8.685
 3820W        W 7339   1.231   0.660   2.349
 3821W        W 7340   2.033   7.492   2.837
 3822W        W 7341   3.462   4.753   2.503
 3823W        W 7342   7.809   9.520   0.526
 3824W        W 7343   7.649   0.746  11.388
 3825W        W 7344   5.451   8.250   3.138
 3826W        W 7345   1.353   4.423  11.799
 3827W        W 7346   9.578   1.241  10.775
 3828W        W 7347   3.928   7.480   1.881
 3829W        W 7348   6.282   0.552   3.385
 3830W        W 7349   4.679   7.457   1.463
 3831W        W 7350   3.538   3.302  10.799
 3832W        W 7351   7.845   4.014   2.380
 3833W        W 7352   2.471   2.007  11.960
 3834W        W 7353   7.339   6.980   9.917
 3835W        W 7354   3.696   2.011   9.547
 3836W        W 7355   9.259   1.374   1.289
 3837W        W 7356   5.355   9.230  10.716
 3838W        W 7357   3.621   6.390  10.901
 3839W        W 7358   2.281   3.612   0.370
 3840W        W 7359   1.279   0.336  11.524
 3841W        W 7360   3.828   3.250  11.786
 3842W        W 7361   0.343   9.461   0.816
 3843W        W 7362   2.261   3.122   9.570
 3844W        W 7363   4.281   5.980   3.946
 3845W        W 7364   1.391   5.505   2.653
 3846W        W 7365   0.077   1.285  10.967
 3847W        W 7366   6.687   6.658   1.075
 3848W        W 7367   4.581   8.785   1.851
 3849W        W 7368   5.862   4.070  10.807
 3850W        W 7369   1.686   5.654  11.363
 3851W        W 7370   0.855   1.919   2.190
 3852W        W 7371   0.750   7.098   2.730
 3853W        W 7372   6.565   5.208   3.020
 3854W        W 7373   7.841   1.850   3.059
 3855W        W 7374   2.752   5.229   9.333
 3856W        W 7375   7.474   5.245   0.133
 3857W        W 7376   0.326   3.426  10.273
 3858W        W 7377   1.049   7.448   9.013
 3859W        W 7378   0.244   3.897  10.407
 3860W        W 7379   7.440   1.655  11.547
 3861W        W 7380   8.132   2.840   1.219
 3862W        W 7381   8.975   6.976  11.809
 3863W        W 7382   5.478   3.521   3.566
 3864W        W 7383   3.822   4.386   1.275
 3865W        W 7384   2.919   1.691   9.167
 3866W        W 7385   0.099   2.441   3.467
 3867W        W 7386   9.257   5.094   1.768
 3868W        W 7387   3.476   8.739   1.275
 3869W        W 7388   5.598   2.244   3.892
 3870W        W 7389   8.915   8.762   1.888
 3871W        W 7390   1.637   9.095   2.795
 3872W        W 7391   6.661   1.901   0.621
 3873W        W 7392   1.025   2.093  10.224
 3874W        W 7393   3.886   5.500   9.937
 3875W        W 7394   3.243   1.290  11.282
 3876W        W 7395   2.195   5.127   2.276
 3877W        W 7396   3.097   9.245   0.503
 3878W        W 7397   8.265   1.476  11.552
 3879W        W 7398   1.174   7.949   0.846
 3880W        W 7399   6.705   3.803   2.398
 3881W        W 7400   5.606   8.047   9.922
 3882W        W 7401   9.337   1.366  11.726
 3883W        W 7402   4.619   8.167  10.406
 3884W        W 7403   3.713   6.329  11.912
 3885W        W 7404   8.527   7.963   1.081
 3886W        W 7405   0.417   2.894  11.194
 3887W        W 7406   1.835   8.443   0.415
 3888W        W 7407   1.847   3.450  10.079
 3889W        W 7408   8.422   9.498   0.782
 3890W        W 7409   7.033   0.126   0.857
 3891W        W 7410   7.228   8.523   2.647
 3892W        W 7411   8.752   3.982   1.625
 3893W        W 7412   7.980   4.151   3.191
 3894W        W 7413   9.194   3.491  10.158
 3895W        W 7414   4.509   0.392   2.816
 3896W        W 7415   5.538   1.614   3.175
 3897W        W 7416   4.225   4.385   0.962
 3898W        W 7417   2.596   7.694   9.831
 3899W        W 7418   4.390   0.639   2.299
 3900W        W 7419   3.730   3.622   1.671
 3901W        W 7420   4.036   3.613   9.221
 3902W        W 7421   4.799   9.114  11.527
 3903W        W 7422   5.149   7.938  11.698
 3904W        W 7423   3.541   6.960   3.438
 3905W        W 7424   9.848   7.157  11.545
 3906W        W 7425   5.234   9.739   2.495
 3907W        W 7426   9.908   6.387   9.761
 3908W        W 7427   3.205   1.496   0.095
 3909W        W 7428   2.224   7.494   0.526
 3910W        W 7429   1.294   8.454  10.934
 3911W        W 7430   3.758   3.227   8.487
 3912W        W 7431   8.780   8.506   1.445
 3913W        W 7432   7.493   3.125  10.499
 3914W        W 7433   4.320   3.817  10.625
 3915W        W 7434   6.999   8.297   2.228
 3916W        W 7435   3.049   2.303   8.823
 3917W        W 7436   0.445   8.023   2.467
 3918W        W 7437   6.051   8.908   3.320
 3919W        W 7438   7.614   0.750   1.917
 3920W        W 7439   2.742   3.466   8.827
 3921W        W 7440   4.647   9.404   9.873
 3922W        W 7441   9.001   8.694   0.988
 3923W        W 7442   5.131   8.334  10.564
 3924W        W 7443   1.889   7.088   0.378
 3925W        W 7444   9.947   7.843   1.141
 3926W        W 7445   4.080   9.330   9.969
 3927W        W 7446   3.079   5.407   3.650
 3928W        W 7447   4.267   8.897   1.046
 3929W        W 7448   6.237   6.871   2.611
 3930W        W 7449   9.118   3.143   0.033
 3931W        W 7450   3.492   5.963   2.502
 3932W        W 7451   0.155   2.580  11.807
 3933W        W 7452   0.808   6.197   9.406
 3934W        W 7453   3.404   2.830   3.274
 3935W        W 7454   7.105   1.544  10.299
 3936W        W 7455   7.861   9.627   9.920
 3937W        W 7456   5.627   0.344  11.300
 3938W        W 7457   3.727   5.458   1.822
 3939W        W 7458   7.699   3.380  11.800
 3940W        W 7459   4.067   0.168   2.713
 3941W        W 7460   9.618   2.909   9.677
 3942W        W 7461   3.770   7.630   9.842
 3943W        W 7462   2.916   2.678   2.308
 3944W        W 7463   5.625   4.721  11.586
 3945W        W 7464   4.262   4.197  11.116
 3946W        W 7465   7.620   8.005  11.390
 3947W        W 7466   1.982   1.326  10.445
 3948W        W 7467   3.528   8.994   8.972
 3949W        W 7468   5.099   9.327   1.274
 3950W        W 7469   2.978   0.482   9.830
 3951W        W 7470   8.053   4.595  11.834
 3952W        W 7471   3.044   7.143   8.709
 3953W        W 7472   9.544   4.225  10.765
 3954W        W 7473   5.516   0.261  11.810
 3955W        W 7474   9.357   7.022   3.094
 3956W        W 7475   6.496   1.695  10.616
 3957W        W 7476   2.709   4.721   0.542
 3958W        W 7477   3.420   3.215   1.650
 3959W        W 7478   4.642   9.327   3.477
 3960W        W 7479   4.836   5.175   9.945
 3961W        W 7480   1.961   6.204  10.383
 3962W        W 7481   7.262   2.936   1.589
 3963W        W 7482   2.127   6.616   2.721
 3964W        W 7483   0.382   4.048   3.378
 3965W        W 7484   5.453   6.202   9.958
 3966W        W 7485   4.696   9.086   2.288
 3967W        W 7486   0.028   5.089   9.147
 3968W        W 7487   4.422   3.274   9.270
 3969W        W 7488   4.731   7.534   8.981
 3970W        W 7489   5.949   9.138   1.813
 3971W        W 7490   7.636   3.830   0.086
 3972W        W 7491   9.602   5.621   2.823
 3973W        W 7492   7.000   6.329   1.774
 3974W        W 7493   5.421   6.155  11.986
 3975W        W 7494   4.274   9.795   0.075
 3976W        W 7495   9.104   9.984   3.035
 3977W        W 7496   7.752   4.055   0.630
 3978W        W 7497   4.600   1.455   2.069
 3979W        W 7498   6.164   1.208   0.444
 3980W        W 7499   9.295   7.852   0.492
 3981W        W 7500   9.422   8.597   2.323
 3982W        W 7501   0.631   9.375   1.333
 3983W        W 7502   2.831   6.507   0.399
 3984W        W 7503   8.720   4.197   2.217
 3985W        W 7504   3.728   7.821   1.549
 3986W        W 7505   2.530   9.331   1.757
 3987W        W 7506   2.688   2.743   2.761
 3988W        W 7507   6.291   4.527   3.572
 3989W        W 7508   9.830   2.440   2.118
 3990W        W 7509   7.822   5.130   0.506
 3991W        W 7510   5.228   3.903   1.568
 3992W        W 7511   1.429   0.283  10.257
 3993W        W 7512   8.234   8.390   2.770
 3994W        W 7513   4.972   7.375   2.759
 3995W        W 7514   3.908   2.884   3.417
 3996W        W 7515   9.817   5.127  11.718
 3997W        W 7516   5.992   5.477  10.943
 3998W        W 7517   3.857   2.768   9.983
 3999W        W 7518   0.279   2.524   9.251
 4000W        W 7519   6.394   6.100   3.205
 4001W        W 7520   6.887   7.470   2.988
 4002W        W 7521   1.454   6.917   1.621
 4003W        W 7522   2.339   4.602  11.197
 4004W        W 7523   0.421   2.852   0.169
 4005W        W 7524   3.607   3.142   1.157
 4006W        W 7525   8.426   7.557   0.317
 4007W        W 7526   4.961   4.962   9.246
 4008W        W 7527   4.268   4.494   3.584
 4009W        W 7528   1.472   5.714   3.531
 4010W        W 7529   8.534   2.243   1.981
 4011W        W 7530   4.417   7.406   0.704
 4012W        W 7531   5.494   8.059   0.815
 4013W        W 7532   1.929   4.755   0.892
 4014W        W 7533   7.439   8.074   2.408
 4015W        W 7534   4.821   9.042   9.515
 4016W        W 7535   7.605   5.644  10.731
 4017W        W 7536   9.414   4.194   1.471
 4018W        W 7537   4.070   1.628   8.933
 4019W        W 7538   7.007   2.394   8.719
 4020W        W 7539   8.896   2.189   2.329
 4021W        W 7540   6.983   8.004   1.152
 4022W        W 7541   3.151   9.760   0.312
 4023W        W 7542   8.263   4.628   3.013
 4024W        W 7543   3.108   3.439  10.551
 4025W        W 7544   3.155   7.188  11.025
 4026W        W 7545   7.409   6.261  11.781
 4027W        W 7546   0.912   5.638  11.404
 4028W        W 7547   4.289   2.684  11.520
 4029W        W 7548   8.507   8.687  10.222
 4030W        W 7549   6.853   8.777   2.229
 4031W        W 7550   0.250   7.422   1.818
 4032W        W 7551   5.023   9.078   1.730
 4033W        W 7552   3.549   0.276  10.570
 4034W        W 7553   7.116   5.820   9.447
 4035W        W 7554   2.261   6.845   1.162
 4036W        W 7555   7.202   6.520   2.553
 4037W        W 7556   4.328   1.621   1.231
 4038W        W 7557   4.175   8.730   1.526
 4039W        W 7558   1.841   7.455   9.257
 4040W        W 7559   4.193   5.765   0.544
 4041W        W 7560   7.213   0.701   3.503
 4042W        W 7561   5.805   8.607   9.276
 4043W        W 7562   5.094   9.519  11.422
 4044W        W 7563   6.441   6.917  11.769
 4045W        W 7564   1.797   9.403   1.862
 4046W        W 7565   9.416   2.275   9.226
 4047W        W 7566   2.474   4.875   1.483
 4048W        W 7567   8.503   0.413  10.040
 4049W        W 7568   0.808   9.906   2.698
 4050W        W 7569   8.826   2.661  10.038
 4051W        W 7570   6.061   0.076   1.541
 4052W        W 7571   5.423   3.133  11.095
 4053W        W 7572   8.634   5.014   0.959
 4054W        W 7573   5.675   0.108   0.590
 4055W        W 7574   3.029   2.817   8.721
 4056W        W 7575   7.153   0.058   2.689
 4057W        W 7576   0.225   5.105   0.593
 4058W        W 7577   6.509   1.560   2.328
 4059W        W 7578   1.142   3.781  10.508
 4060W        W 7579   2.259   3.344   9.052
 4061W        W 7580   4.058   5.840   9.009
 4062W        W 7581   2.086   8.742   9.672
 4063W        W 7582   6.606   6.620   3.982
 4064W        W 7583   6.654   9.952  11.943
 4065W        W 7584   0.652   0.430  10.825
 4066W        W 7585   7.090   2.367   2.369
 4067W        W 7586   2.660   7.721  11.732
 4068W        W 7587   6.872   0.440  10.965
 4069W        W 7588   6.268   1.690  11.144
 4070W        W 7589   7.061   4.225   3.007
 4071W        W 7590   1.768   4.350  10.277
 4072W        W 7591   7.925   1.161   0.791
 4073W        W 7592   4.068   5.022   9.332
 4074W        W 7593   5.178   1.850   2.789
 4075W        W 7594   0.758   2.197   0.482
 4076W        W 7595   3.926   0.394   1.238
 4077W        W 7596   7.437   3.917  10.101
 4078W        W 7597   6.446   6.272   0.882
 4079W        W 7598   6.459   8.489  10.017
 4080W        W 7599   5.704   5.509   9.883
 4081W        W 7600   0.890   0.309   3.162
 4082W        W 7601   8.625   1.731   2.514
 4083W        W 7602   2.369   6.115  11.175
 4084W        W 7603   4.280   9.890  11.533
 4085W        W 7604   2.382   8.877   3.208
 4086W        W 7605   6.623   4.708   8.285
 4087W        W 7606   6.798   5.851   1.802
 4088W        W 7607   8.018   4.177   0.157
 4089W        W 7608   7.905   6.760   3.513
 4090W        W 7609   9.229   0.888   1.085
 4091W        W 7610   0.780   0.831   3.166
 4092W        W 7611   7.325   8.385   1.102
 4093W        W 7612   9.571   0.950  11.394
 4094W        W 7613   6.942   8.072  10.778
 4095W        W 7614   7.437   2.793   2.074
 4096W        W 7615   6.408   2.496   1.394
 4097W        W 7616   3.307   1.284   2.565
 4098W        W 7617   6.289   2.477  11.369
 4099W        W 7618   7.136   0.586   2.668
 4100W        W 7619   4.234   4.513   9.113
 4101W        W 7620   8.767   0.012  11.929
 4102W        W 7621   3.180   1.728  10.378
 4103W        W 7622   3.731   8.462  11.009
 4104W        W 7623   2.996   5.972   1.828
 4105W        W 7624   3.372   5.078   1.610
 4106W        W 7625   7.593   0.453   3.727
 4107W        W 7626   2.545   3.981  10.245
 4108W        W 7627   6.147   9.691   0.765
 4109W        W 7628   4.099   1.259   2.969
 4110W        W 7629   3.703   3.952   2.920
 4111W        W 7630   9.847   2.972   3.245
 4112W        W 7631   5.371   0.390   9.668
 4113W        W 7632   9.566   5.755   1.618
 4114W        W 7633   7.628   7.507   0.728
 4115W        W 7634   6.491   7.519   2.664
 4116W        W 7635   9.319   6.703   1.582
 4117W        W 7636   1.365   1.219   1.525
 4118W        W 7637   2.337   4.090   8.613
 4119W        W 7638   4.180   0.772   9.519
 4120W        W 7639   3.056   0.238   0.484
 4121W        W 7640   4.446   1.306   9.039
 4122W        W 7641   9.458   6.146   9.672
 4123W        W 7642   8.964   2.321   1.067
 4124W        W 7643   1.301   3.440   0.039
 4125W        W 7644   0.745   3.728   0.258
 4126W        W 7645   4.546   3.376  10.787
 4127W        W 7646   7.211   8.508  11.373
 4128W        W 7647   3.564   3.851   3.955
 4129W        W 7648   6.161   5.749  11.712
 4130W        W 7649   5.381   1.201   0.056
 4131W        W 7650   6.681   4.538   9.562
 4132W        W 7651   0.932   6.959   0.855
 4133W        W 7652   3.619   8.388   3.298
 4134W        W 7653   7.197   3.490   1.677
 4135W        W 7654   6.101   6.720  11.451
 4136W        W 7655   5.143   2.803   3.177
 4137W        W 7656   6.216   7.074  10.608
 4138W        W 7657   8.684   3.921   8.985
 4139W        W 7658   0.696   8.948   2.840
 4140W        W 7659   6.114   4.098   3.334
 4141W        W 7660   5.237   3.598   9.222
 4142W        W 7661   1.149   1.478   0.633
 4143W        W 7662   6.203   1.991   2.629
 4144W        W 7663   8.880   2.886   9.122
 4145W        W 7664   2.834   4.754   0.036
 4146W        W 7665   6.026   4.757  10.032
 4147W        W 7666   1.393   0.370   3.168
 4148W        W 7667   6.106   6.600   1.750
 4149W        W 7668   5.408   6.581  10.291
 4150W        W 7669   8.281   1.251   9.602
 4151W        W 7670   5.612   5.371   1.046
 4152W        W 7671   5.125   6.476   8.309
 4153W        W 7672   7.785   7.374   9.723
 4154W        W 7673   1.617   8.930   0.260
 4155W        W 7674   7.334   6.386  10.842
 4156W        W 7675   8.097   8.415  11.890
 4157W        W 7676   0.736   0.831   2.252
 4158W        W 7677   5.964   6.828   2.192
 4159W        W 7678   8.496   8.920   1.640
 4160W        W 7679   2.132   0.355   2.744
 4161W        W 7680   1.326   7.950   3.635
 4162W        W 7681   5.619   6.726   8.638
 4163W        W 7682   9.286   7.390  10.286
 4164W        W 7683   0.112   6.040  10.950
 4165W        W 7684   2.589   1.557   3.208
 4166W        W 7685   2.831   4.820   2.444
 4167W        W 7686   4.855   5.299   3.507
 4168W        W 7687   4.850   6.052   9.815
 4169W        W 7688   3.183   0.756  10.380
 4170W        W 7689   0.418   3.338   0.263
 4171W        W 7690   9.835   7.020  10.875
 4172W        W 7691   5.347   4.843   2.244
 4173W        W 7692   4.690   1.827  11.348
 4174W        W 7693   5.906   1.361   9.461
 4175W        W 7694   6.357   0.275  10.776
 4176W        W 7695   2.815   1.930   2.946
 4177W        W 7696   6.977   1.076   2.608
 4178W        W 7697   3.825   3.695  10.866
 4179W        W 7698   2.163   8.081   8.517
 4180W        W 7699   5.883   8.209   2.263
 4181W        W 7700   6.956   9.265   8.285
 4182W        W 7701   3.270   6.720   2.149
 4183W        W 7702   9.800   5.649  10.812
 4184W        W 7703   2.835   3.825  11.659
 4185W        W 7704   8.849   1.772  10.437
 4186W        W 7705   9.358   2.581  10.046
 4187W        W 7706   3.720   4.490   9.921
 4188W        W 7707   2.647   5.156   0.273
 4189W        W 7708   6.351   9.686   9.495
 4190W        W 7709   4.567   8.663  11.468
 4191W        W 7710   8.564   8.458   0.817
 4192W        W 7711   5.972   0.453  11.655
 4193W        W 7712   9.717   3.638  10.127
 4194W        W 7713   6.153   1.470   0.912
 4195W        W 7714   8.892   7.821   8.691
 4196W        W 7715   2.263   9.463  11.358
 4197W        W 7716   0.353   4.576   2.579
 4198W        W 7717   0.624   1.828   1.606
 4199W        W 7718   5.907   6.948  11.022
 4200W        W 7719   6.987   1.986  10.045
 4201W        W 7720   8.363   1.500   1.526
 4202W        W 7721   2.132   6.844   9.559
 4203W        W 7722   1.153   0.697   9.042
 4204W        W 7723   2.208   1.834   9.222
 4205W        W 7724   2.527   7.403   2.860
 4206W        W 7725   2.275   6.717   0.250
 4207W        W 7726   0.097   0.480   9.621
 4208W        W 7727   3.613   1.501   2.929
 4209W        W 7728   8.843   9.738   1.164
 4210W        W 7729   4.417   5.941  11.853
 4211W        W 7730   8.784   5.455   2.513
 4212W        W 7731   1.526   2.613   9.801
 4213W        W 7732   9.702   0.629   1.703
 4214W        W 7733   8.062   3.561   3.701
 4215W        W 7734   6.654   8.020   1.961
 4216W        W 7735   0.444   0.202   2.926
 4217W        W 7736   5.562   2.172   9.224
 4218W        W 7737   1.587   3.805   2.333
 4219W        W 7738   5.217   2.379   8.860
 4220W        W 7739   6.454   7.932  10.480
 4221W        W 7740   7.402   7.542  11.227
 4222W        W 7741   3.556   7.080   8.576
 4223W        W 7742   6.712   0.771  11.945
 4224W        W 7743   5.270   5.701  11.628
 4225W        W 7744   3.351   4.110   0.712
 4226W        W 7745   4.247   8.524  10.240
 4227W        W 7746   8.962   0.248  10.548
 4228W        W 7747   4.164   5.456   3.812
 4229W        W 7748   5.953   6.113   9.245
 4230W        W 7749   7.636   5.882   9.865
 4231W        W 7750   1.814   4.772   3.581
 4232W        W 7751   8.226   9.877   1.978
 4233W        W 7752   7.141   4.339   1.309
 4234W        W 7753   5.709   3.620   4.002
 4235W        W 7754   9.969   5.712   2.436
 4236W        W 7755   5.573   3.087  10.496
 4237W        W 7756   6.427   7.628  11.437
 4238W        W 7757   1.085   3.701   2.418
 4239W        W 7758   8.217   8.253  10.124
 4240W        W 7759   0.811   3.249   2.397
 4241W        W 7760   3.956   9.097   8.653
 4242W        W 7761   0.265   2.572   1.435
 4243W        W 7762   8.629   9.280   9.379
 4244W        W 7763   3.078   4.221   1.310
 4245W        W 7764   1.119   1.210   3.035
 4246W        W 7765   9.072   0.966  11.898
 4247W        W 7766   3.174   1.667   3.181
 4248W        W 7767   5.712   0.948   0.365
 4249W        W 7768   8.054   3.553  10.941
 4250W        W 7769   0.835   6.111   8.854
 4251W        W 7770   2.779   7.004   1.624
 4252W        W 7771   4.368   4.751   2.318
 4253W        W 7772   5.941   0.322   0.174
 4254W        W 7773   2.695   5.168   9.829
 4255W        W 7774   0.749   2.402   2.013
 4256W        W 7775   6.283   3.144   9.632
 4257W        W 7776   1.241   1.365  10.897
 4258W        W 7777   3.083   9.490   9.498
 4259W        W 7778   9.023   4.475   3.457
 4260W        W 7779   4.652   7.143  11.364
 4261W        W 7780   8.976   7.741   0.917
 4262W        W 7781   1.247   2.217   9.622
 4263W        W 7782   3.128   3.242  10.082
 4264W        W 7783   1.057   5.723  11.936
 4265W        W 7784   4.188   8.494   0.101
 4266W        W 7785   0.039   9.133   9.092
 4267W        W 7786   6.022   1.881   9.239
 4268W        W 7787   4.639   1.746   3.300
 4269W        W 7788   7.616   0.284  11.076
 4270W        W 7789   0.916   4.320  11.219
 4271W        W 7790   5.000   3.766   1.139
 4272W        W 7791   6.727   6.035   8.508
 4273W        W 7792   4.708   3.020   2.758
 4274W        W 7793   7.802   1.470   2.250
 4275W        W 7794   6.482   4.193   1.131
 4276W        W 7795   2.400   6.683  10.452
 4277W        W 7796   2.083   8.290   0.844
 4278W        W 7797   8.114   8.356   2.260
 4279W        W 7798   1.589   3.226   3.024
 4280W        W 7799   0.900   8.417   0.401
 4281W        W 7800   5.428   1.777   1.425
 4282W        W 7801   9.083   6.159  10.031
 4283W        W 7802   2.980   6.258  11.726
 4284W        W 7803   2.878   9.722  11.827
 4285W        W 7804   4.209   6.699   9.213
 4286W        W 7805   0.938   2.012   9.257
 4287W        W 7806   9.329   0.998   2.431
 4288W        W 7807   8.075   0.064   1.499
 4289W        W 7808   8.403   2.762   0.019
 4290W        W 7809   6.186   8.109   2.664
 4291W        W 7810   4.676   6.700   9.043
 4292W        W 7811   5.978   0.826   9.466
 4293W        W 7812   7.365   9.412  10.263
 4294W        W 7813   1.034   4.241   2.154
 4295W        W 7814   7.410   4.272   2.565
 4296W        W 7815   9.211   9.273   3.057
 4297W        W 7816   1.701   5.576   3.084
 4298W        W 7817   6.884   9.980  11.448
 4299W        W 7818   2.749   9.096  10.129
 4300W        W 7819   5.081   5.936   2.975
 4301W        W 7820   3.770   3.745   3.383
 4302W        W 7821   1.901   0.189   2.113
 4303W        W 7822   5.578   3.131   2.067
 4304W        W 7823   7.805   0.272   9.545
 4305W        W 7824   9.238   1.610   8.989
 4306W        W 7825   1.794   5.251  10.300
 4307W        W 7826   5.273   7.462   8.931
 4308W        W 7827   9.811   7.503   1.517
 4309W        W 7828   3.969   7.386   2.867
 4310W        W 7829   5.495   4.795   9.954
 4311W        W 7830   3.945   0.873   2.213
 4312W        W 7831   7.220   4.064   8.451
 4313W        W 7832   9.966   5.959  10.033
 4314W        W 7833   5.041   9.121   8.674
 4315W        W 7834   3.262   1.704   9.554
 4316W        W 7835   6.765   2.351   0.389
 4317W        W 7836   9.619   9.612   3.082
 4318W        W 7837   5.593   0.858   1.260
 4319W        W 7838   3.535   6.615   1.324
 4320W        W 7839   4.683   0.411   0.811
 4321W        W 7840   1.881   0.552   1.743
 4322W        W 7841   0.627   5.516   8.481
 4323W        W 7842   5.945   7.660  11.632
 4324W        W 7843   1.944   6.928   1.770
 4325W        W 7844   3.769   0.124   3.133
 4326W        W 7845   8.606   6.026  10.144
 4327W        W 7846   9.018   0.298  10.035
 4328W        W 7847   1.847   2.779   0.629
 4329W        W 7848   7.027   7.500   0.294
 4330W        W 7849   5.337   4.262   8.209
 4331W        W 7850   1.406   7.997   2.246
 4332W        W 7851   5.113   6.413   1.693
 4333W        W 7852   9.208   1.806   1.543
 4334W        W 7853   8.513   5.729   9.218
 4335W        W 7854   8.545   4.130  11.317
 4336W        W 7855   2.515   5.619   9.986
 4337W        W 7856   6.517   0.793  11.058
 4338W        W 7857   2.177   9.899   9.135
 4339W        W 7858   6.539   4.125  10.685
 4340W        W 7859   4.585   3.854   2.399
 4341W        W 7860   2.617   1.530   0.120
 4342W        W 7861   0.104   9.545   2.218
 4343W        W 7862   0.591   5.421   0.776
 4344W        W 7863   2.844   0.480   3.489
 4345W        W 7864   8.393   1.570   0.068
 4346W        W 7865   0.308   3.238  10.780
 4347W        W 7866   2.201   4.318   3.589
 4348W        W 7867   9.359   8.880  11.617
 4349W        W 7868   5.456   2.554  10.410
 4350W        W 7869   7.940   0.413   0.318
 4351W        W 7870   2.525   9.477   3.157
 4352W        W 7871   3.583   2.983   9.328
 4353W        W 7872   8.132   9.603  10.729
 4354W        W 7873   9.897   5.747  11.302
 4355W        W 7874   6.867   5.744  11.870
 4356W        W 7875   7.729   4.709  10.358
 4357W        W 7876   1.175   0.068   3.558
 4358W        W 7877   6.629   3.516  11.936
 4359W        W 7878   7.038   5.455  10.422
 4360W        W 7879   8.048   4.649   8.651
 4361W        W 7880   9.916   8.947  11.805
 4362W        W 7881   4.315   1.060   1.920
 4363W        W 7882   3.319   9.743   1.730
 4364W        W 7883   3.357   8.817  10.264
 4365W        W 7884   6.063   3.317   1.935
 4366W        W 7885   7.721   7.355   9.197
 4367W        W 7886   4.298   2.583   0.902
 4368W        W 7887   9.429   3.258   3.308
 4369W        W 7888   7.683   9.533   9.143
 4370W        W 7889   2.097   3.978   3.201
 4371W        W 7890   4.169   4.759   1.317
 4372W        W 7891   6.095   5.751   8.564
 4373W        W 7892   0.638   4.748   3.396
 4374W        W 7893   7.129   4.545   8.256
 4375W        W 7894   0.433   1.162   1.518
 4376W        W 7895   9.794   3.776  10.609
 4377W        W 7896   7.432   7.081   1.277
 4378W        W 7897   3.290   4.733  11.178
 4379W        W 7898   5.438   0.331   1.179
 4380W        W 7899   2.437   4.711  10.722
 4381W        W 7900   4.613   6.716   0.234
 4382W        W 7901   9.497   6.377   2.175
 4383W        W 7902   8.062   0.366  11.344
 4384W        W 7903   7.830   7.982  11.922
 4385W        W 7904   6.623   2.498  11.758
 4386W        W 7905   9.383   8.057   3.372
 4387W        W 7906   9.297   4.663   9.424
 4388W        W 7907   4.724   4.831   0.470
 4389W        W 7908   3.061   5.080   4.048
 4390W        W 7909   2.426   3.075   3.054
 4391W        W 7910   4.395   6.539   1.038
 4392W        W 7911   4.294   1.386   3.431
 4393W        W 7912   7.181   3.766   2.174
 4394W        W 7913   0.029   5.073  10.135
 4395W        W 7914   8.645   7.571   9.480
 4396W        W 7915   5.086   0.770   9.505
 4397W        W 7916   3.615   4.222  11.765
 4398W        W 7917   9.449   4.159   3.484
 4399W        W 7918   2.728   7.206  11.763
 4400W        W 7919   3.196   3.719   8.914
 4401W        W 7920   2.922   3.940   2.333
 4402W        W 7921   1.770   1.247  10.929
 4403W        W 7922   3.143   0.542   0.884
 4404W        W 7923   8.484   1.885  10.799
 4405W        W 7924   0.439   4.538  11.974
 4406W        W 7925   3.085   6.323   1.401
 4407W        W 7926   6.697   0.786   9.120
 4408W        W 7927   8.524   6.269   9.700
 4409W        W 7928   6.067   7.161  10.032
 4410W        W 7929   5.678   5.766   2.283
 4411W        W 7930   5.283   2.985   0.952
 4412W        W 7931   7.877   8.975  11.327
 4413W        W 7932   0.360   8.396   2.112
 4414W        W 7933   0.970   5.494   0.403
 4415W        W 7934   7.559   0.713   9.456
 4416W        W 7935   8.176   3.287   3.031
 4417W        W 7936   0.893   6.994   2.244
 4418W        W 7937   0.327   8.143  11.258
 4419W        W 7938   7.531   3.989   3.408
 4420W        W 7939   8.037   6.863  10.448
 4421W        W 7940   9.756   0.745   1.034
 4422W        W 7941   8.562   6.629   1.822
 4423W        W 7942   8.620   9.743  10.637
 4424W        W 7943   0.417   9.208  11.833
 4425W        W 7944   6.625   6.086   2.738
 4426W        W 7945   3.176   3.211   9.047
 4427W        W 7946   9.061   4.556   2.354
 4428W        W 7947   3.968   4.339   1.786
 4429W        W 7948   2.754   7.553   8.486
 4430W        W 7949   6.429   2.495  10.053
 4431W        W 7950   9.335   0.579   2.064
 4432W        W 7951   4.642   0.683  11.736
 4433W        W 7952   0.835   6.137  11.301
 4434W        W 7953   1.324   3.453  10.142
 4435W        W 7954   6.359   1.322   9.749
 4436W        W 7955   6.435   5.249  10.904
 4437W        W 7956   3.023   7.869   8.863
 4438W        W 7957   7.573   9.379  11.255
 4439W        W 7958   9.366   6.584  11.829
 4440W        W 7959   8.226   6.432   2.157
 4441W        W 7960   7.021   8.373   3.109
 4442W        W 7961   8.252   9.505   3.207
 4443W        W 7962   8.049   7.032   9.430
 4444W        W 7963   4.676   9.971   1.590
 4445W        W 7964   9.816   0.293  11.004
 4446W        W 7965   5.724   6.456   3.652
 4447W        W 7966   5.233   0.143   3.464
 4448W        W 7967   4.483   7.225   0.225
 4449W        W 7968   7.757   1.148   9.683
 4450W        W 7969   4.925   1.197   1.768
 4451W        W 7970   5.477   1.425   8.748
 4452W        W 7971   4.043   5.169   1.009
 4453W        W 7972   9.273   8.800   2.800
 4454W        W 7973   8.088   9.697   0.103
 4455W        W 7974   6.731   7.557  10.667
 4456W        W 7975   2.437   9.456   1.184
 4457W        W 7976   7.473   0.340   0.623
 4458W        W 7977   5.963   2.799   3.183
 4459W        W 7978   8.674   6.548   2.322
 4460W        W 7979   3.913   6.777  11.633
 4461W        W 7980   6.610   0.881   0.420
 4462W        W 7981   3.094   5.168  10.369
 4463W        W 7982   7.497   9.131   3.243
 4464W        W 7983   4.499   5.907  10.976
 4465W        W 7984   4.233   8.137   2.316
 4466W        W 7985   3.084   9.768   3.547
 4467W        W 7986   4.043   7.131  11.984
 4468W        W 7987   0.888   0.649   9.483
 4469W        W 7988   2.544   9.101   2.780
 4470W        W 7989   4.418   7.406  11.743
 4471W        W 7990   7.342   2.814  10.076
 4472W        W 7991   5.215   2.683   2.006
 4473W        W 7992   2.774   0.007   9.977
 4474W        W 7993   8.519   9.811   1.572
 4475W        W 7994   0.984   9.776   3.194
 4476W        W 7995   2.382   9.655  11.822
 4477W        W 7996   1.774   9.686   9.705
 4478W        W 7997   4.560   9.300   1.837
 4479W        W 7998   5.620   4.800  10.898
 4480W        W 7999   2.449   1.189  11.725
 4481W        W 8000   4.767   2.784   2.310
 4482W        W 8001   8.687   6.139   1.970
 4483W        W 8002   0.914   5.215  11.958
 4484W        W 8003   9.033   8.619   8.998
 4485W        W 8004   4.406   2.430   2.275
 4486W        W 8005   2.517   7.088   8.668
 4487W        W 8006   4.020   7.121   8.995
 4488W        W 8007   1.773   0.355   0.356
 4489W        W 8008   3.536   9.791   9.372
 4490W        W 8009   5.182   3.561   2.262
 4491W        W 8010   9.397   4.694   1.446
 4492W        W 8011   7.012   7.752   9.751
 4493W        W 8012   3.738   6.911   2.968
 4494W        W 8013   5.779   3.628   0.755
 4495W        W 8014   4.083   6.519   8.237
 4496W        W 8015   6.080   8.647  11.915
 4497W        W 8016   0.179   9.663   1.260
 4498W        W 8017   7.270   7.460   8.655
 4499W        W 8018   0.491   8.392   0.089
 4500W        W 8019   8.982   3.141   2.183
 4501W        W 8020   2.121   7.839   9.698
 4502W        W 8021   9.147   1.810   2.066
 4503W        W 8022   9.329   5.022   2.295
 4504W        W 8023   9.862   5.535  10.325
 4505W        W 8024   2.367   0.726   2.987
 4506W        W 8025   5.528   6.643  10.803
 4507W        W 8026   7.951   7.593   8.730
 4508W        W 8027   1.809   2.655  11.202
 4509W        W 8028   6.234   3.706   2.248
 4510W        W 8029   1.623   7.940   0.592
 4511W        W 8030   6.171   4.753   2.546
 4512W        W 8031   5.914   2.366   1.390
 4513W        W 8032   2.136   1.965   0.818
 4514W        W 8033   6.241   5.217   8.885
 4515W        W 8034   6.729   5.965   9.746
 4516W        W 8035   4.744   2.634  10.948
 4517W        W 8036   8.467   3.070   0.874
 4518W        W 8037   3.072   7.945   9.389
 4519W        W 8038   9.435   7.171   9.679
 4520W        W 8039   8.590   4.568  10.564
 4521W        W 8040   6.065   6.556  10.696
 4522W        W 8041   1.678   7.978   9.966
 4523W        W 8042   4.588   4.053   1.084
 4524W        W 8043   5.896   1.544   9.936
 4525W        W 8044   8.965   2.304   0.036
 4526W        W 8045   9.332   4.872   9.951
 4527W        W 8046   2.518   6.528   0.805
 4528W        W 8047   3.054   0.096   1.465
 4529W        W 8048   4.142   0.590   1.822
 4530W        W 8049   9.125   9.749   0.225
 4531W        W 8050   2.320   4.042   9.584
 4532W        W 8051   6.626   2.181   9.702
 4533W        W 8052   8.450   2.366   0.963
 4534W        W 8053   0.259   2.334  10.967
 4535W        W 8054   0.487   8.880   1.434
 4536W        W 8055   6.742   8.376   2.678
 4537W        W 8056   8.478   3.328   9.552
 4538W        W 8057   6.683   2.837  11.381
 4539W        W 8058   2.845   7.492   9.458
 4540W        W 8059   9.680   9.004   2.493
 4541W        W 8060   4.450   7.167   9.301
 4542W        W 8061   8.022   9.778   9.452
 4543W        W 8062   3.771   7.237   9.454
 4544W        W 8063   6.432   5.393   1.043
 4545W        W 8064   5.908   3.939   0.280
 4546W        W 8065   9.531   0.875   0.131
 4547W        W 8066   8.440   8.847   2.131
 4548W        W 8067   4.189   9.259   1.463
 4549W        W 8068   9.673   8.161   0.326
 4550W        W 8069   2.119   0.854   2.566
 4551W        W 8070   0.005   6.835   1.015
 4552W        W 8071   6.137   0.516   1.982
 4553W        W 8072   6.139   9.496   8.641
 4554W        W 8073   0.030   4.181   9.263
 4555W        W 8074   0.422   6.159   0.187
 4556W        W 8075   6.168   7.473   3.087
 4557W        W 8076   0.528   1.327   8.641
 4558W        W 8077   3.126   5.663  10.185
 4559W        W 8078   5.457   2.235   2.980
 4560W        W 8079   2.036   9.151   1.014
 4561W        W 8080   0.326   8.302  10.758
 4562W        W 8081   3.380   8.107   1.824
 4563W        W 8082   0.776   0.558   2.711
 4564W        W 8083   4.252   6.468   0.553
 4565W        W 8084   0.641   1.359   3.131
 4566W        W 8085   0.560   0.688   1.672
 4567W        W 8086   7.336   2.749   2.964
 4568W        W 8087   3.370   1.498   3.653
 4569W        W 8088   7.973   2.831  11.642
 4570W        W 8089   7.340   4.416  11.444
 4571W        W 8090   4.238   0.395  11.438
 4572W        W 8091   0.137   2.722   2.665
 4573W        W 8092   3.454   9.986   0.687
 4574W        W 8093   0.008   7.622   0.057
 4575W        W 8094   5.416   6.127   2.023
 4576W        W 8095   3.103   7.264   3.424
 4577W        W 8096   7.174   5.754   0.963
 4578W        W 8097   3.326   5.970  11.031
 4579W        W 8098   4.592   0.322   1.939
 4580W        W 8099   7.567   6.629   0.113
 4581W        W 8100   6.793   0.645   1.895
 4582W        W 8101   2.599   4.955   1.988
 4583W        W 8102   8.301   4.094   9.295
 4584W        W 8103   3.784   0.529   9.788
 4585W        W 8104   3.412   5.111   2.865
 4586W        W 8105   7.211   4.485   8.768
 4587W        W 8106   5.750   6.915   9.417
 4588W        W 8107   5.061   0.361   9.201
 4589W        W 8108   9.960   5.456   1.420
 4590W        W 8109   4.726   8.017   2.331
 4591W        W 8110   6.430   8.925   0.683
 4592W        W 8111   1.941   9.461   8.542
 4593W        W 8112   9.694   0.458   8.337
 4594W        W 8113   3.222   2.918  10.703
 4595W        W 8114   4.441   3.032   1.174
 4596W        W 8115   2.748   4.566   9.016
 4597W        W 8116   2.650   4.225  11.398
 4598W        W 8117   8.827   0.528   0.038
 4599W        W 8118   8.136   4.834   1.084
 4600W        W 8119   2.014   8.855  10.198
 4601W        W 8120   9.746   9.840   1.479
 4602W        W 8121   0.375   6.125   2.179
 4603W        W 8122   0.545   2.080  10.572
 4604W        W 8123   4.557   4.293   3.222
 4605W        W 8124   8.383   7.042   1.514
 4606W        W 8125   3.939   2.363   1.262
 4607W        W 8126   7.487   0.123   3.339
 4608W        W 8127   5.933   1.986   0.091
 4609W        W 8128   3.199   8.614   3.038
 4610W        W 8129   3.692   9.903  10.891
 4611W        W 8130   3.638   6.857  10.647
 4612W        W 8131   7.135   6.523  11.419
 4613W        W 8132   9.081   5.168   0.677
 4614W        W 8133   5.233   7.579  11.196
 4615W        W 8134   1.395   4.485  11.274
 4616W        W 8135   3.713   6.388  11.396
 4617W        W 8136   3.873   5.865   3.676
 4618W        W 8137   5.978   0.745   3.730
 4619W        W 8138   5.708   2.705   0.764
 4620W        W 8139   2.023   1.256  11.409
 4621W        W 8140   3.324   8.535  11.992
 4622W        W 8141   9.524   4.208   9.379
 4623W        W 8142   0.045   5.686   1.887
 4624W        W 8143   2.424   3.352  11.078
 4625W        W 8144   6.860   5.024  10.780
 4626W        W 8145   2.312   7.196   1.523
 4627W        W 8146   4.674   9.049   9.028
 4628W        W 8147   0.359   7.622   9.701
 4629W        W 8148   9.564   6.343  10.135
 4630W        W 8149   6.717   0.274   9.011
 4631W        W 8150   1.730   4.642   3.093
 4632W        W 8151   0.179   6.574   3.527
 4633W        W 8152   5.918   2.462   0.263
 4634W        W 8153   9.575   7.993   1.488
 4635W        W 8154   3.721   2.833  10.863
 4636W        W 8155   4.243   6.169  10.619
 4637W        W 8156   6.902   3.889   8.841
 4638W        W 8157   0.929   7.938   2.642
 4639W        W 8158   1.960   4.156   2.440
 4640W        W 8159   5.972   1.145  11.766
 4641W        W 8160   6.493   3.458  10.020
 4642W        W 8161   3.268   6.536   3.553
 4643W        W 8162   7.557   4.129   1.089
 4644W        W 8163   0.775   6.606   2.648
 4645W        W 8164   8.589   8.433   2.402
 4646W        W 8165   5.769   7.465  11.189
 4647W        W 8166   5.667   9.583   0.604
 4648W        W 8167   9.994   4.887   0.166
 4649W        W 8168   7.930   6.885   0.355
 4650W        W 8169   1.053   1.286   8.670
 4651W        W 8170   3.285   1.728  11.586
 4652W        W 8171   6.520   8.833  10.968
 4653W        W 8172   8.511   4.522   0.881
 4654W        W 8173   3.044   3.247   8.388
 4655W        W 8174   2.068   6.637   2.186
 4656W        W 8175   8.115   2.374  11.433
 4657W        W 8176   5.462   6.653   1.434
 4658W        W 8177   3.185   2.254  10.168
 4659W        W 8178   0.165   0.634   1.985
 4660W        W 8179   5.173   8.063  11.036
 4661W        W 8180   1.841   6.103   9.846
 4662W        W 8181   7.822   9.880  10.383
 4663W        W 8182   6.505   4.900   9.947
 4664W        W 8183   0.895   6.507   0.501
 4665W        W 8184   2.029   7.623   1.459
 4666W        W 8185   4.312   6.296   3.521
 4667W        W 8186   5.880   6.934   3.560
 4668W        W 8187   9.629   6.726  11.354
 4669W        W 8188   6.558   3.106   9.209
 4670W        W 8189   2.080   3.686   2.242
 4671W        W 8190   7.051   0.321   2.248
 4672W        W 8191   4.778   9.853  11.619
 4673W        W 8192   4.440   6.882  11.776
 4674W        W 8193   4.796   7.430  10.948
 4675W        W 8194   0.441   1.919   2.489
 4676W        W 8195   7.458   4.220   2.066
 4677W        W 8196   0.349   6.421  10.656
 4678W        W 8197   8.997   8.150  11.209
 4679W        W 8198   3.961   9.161  10.996
 4680W        W 8199   1.822   4.031   9.348
 4681W        W 8200   0.866   4.011   0.690
 4682W        W 8201   9.270   8.927  10.595
 4683W        W 8202   0.190   7.601   2.314
 4684W        W 8203   0.680   2.993   2.856
 4685W        W 8204   7.566   9.646   3.687
 4686W        W 8205   4.700   2.721   1.814
 4687W        W 8206   8.180   4.867  10.518
 4688W        W 8207   0.322   2.200   1.814
 4689W        W 8208   3.060   5.950   8.988
 4690W        W 8209   4.002   3.757   0.337
 4691W        W 8210   4.075   7.093   8.464
 4692W        W 8211   5.104   9.442   9.631
 4693W        W 8212   0.673   2.533  11.890
 4694W        W 8213   6.073   7.804   0.113
 4695W        W 8214   4.137   4.013   8.932
 4696W        W 8215   0.398   2.024   3.366
 4697W        W 8216   3.365   9.783  11.791
 4698W        W 8217   2.877   5.188   2.807
 4699W        W 8218   3.155   1.253   9.351
 4700W        W 8219   8.894   7.167  10.943
 4701W        W 8220   8.426   0.313   1.794
 4702W        W 8221   4.624   2.454   9.613
 4703W        W 8222   9.325   9.041   2.086
 4704W        W 8223   5.562   2.855  10.000
 4705W        W 8224   9.596   8.200   2.559
 4706W        W 8225   8.961   9.285   1.853
 4707W        W 8226   8.787   1.177   1.379
 4708W        W 8227   8.985   3.021   3.261
 4709W        W 8228   7.505   6.676   2.940
 4710W        W 8229   4.595   9.585  11.225
 4711W        W 8230   9.745   0.404   0.018
 4712W        W 8231   4.716   4.358   2.315
 4713W        W 8232   6.860   3.610   0.398
 4714W        W 8233   4.294   4.773   3.155
 4715W        W 8234   4.735   5.679   1.058
 4716W        W 8235   7.635   7.989   0.903
 4717W        W 8236   6.979   9.022   2.671
 4718W        W 8237   5.833   0.274  10.822
 4719W        W 8238   1.699   0.124   0.814
 4720W        W 8239   3.381   1.468   0.679
 4721W        W 8240   3.977   7.627  11.896
 4722W        W 8241   3.941   8.957   9.317
 4723W        W 8242   2.680   1.606  10.192
 4724W        W 8243   6.238   8.643   9.585
 4725W        W 8244   0.964   3.671  11.022
 4726W        W 8245   1.890   7.454  10.786
 4727W        W 8246   7.887   8.241   3.104
 4728W        W 8247   7.936   0.998   8.890
 4729W        W 8248   8.432   5.948   8.735
 4730W        W 8249   3.335   1.146  11.751
 4731W        W 8250   7.039   1.240   3.499
 4732W        W 8251   6.703   0.661   2.424
 4733W        W 8252   0.824   2.279   3.462
 4734W        W 8253   4.074   4.820  10.591
 4735W        W 8254   8.035   4.987   1.589
 4736W        W 8255   5.497   0.649   9.240
 4737W        W 8256   7.931   0.301   2.000
 4738W        W 8257   2.114   5.108   8.685
 4739W        W 8258   0.737   8.843  11.995
 4740W        W 8259   0.980   4.968  11.071
 4741W        W 8260   3.976   9.368   0.569
 4742W        W 8261   7.114   6.073   0.179
 4743W        W 8262   4.774   9.880   0.122
 4744W        W 8263   3.156   9.918  11.347
 4745W        W 8264   3.316   4.580  11.991
 4746W        W 8265   4.956   2.339   3.040
 4747W        W 8266   6.165   1.952   2.109
 4748W        W 8267   9.879   4.015   3.086
 4749W        W 8268   1.377   7.463   3.392
 4750W        W 8269   9.880   2.051   0.496
 4751W        W 8270   8.117   8.197   0.865
 4752W        W 8271   9.971   3.162  11.451
 4753W        W 8272   4.959   3.116   8.579
 4754W        W 8273   8.293   9.983   3.411
 4755W        W 8274   5.589   3.755   8.903
 4756W        W 8275   0.833   1.709   0.282
 4757W        W 8276   9.449   0.883   0.631
 4758W        W 8277   3.722   6.457   0.448
 4759W        W 8278   4.859   5.630  10.174
 4760W        W 8279   8.458   5.989  11.196
 4761W        W 8280   4.961   4.790  10.234
 4762W        W 8281   9.820   0.310  10.017
 4763W        W 8282   1.283   5.493   1.326
 4764W        W 8283   8.820   7.325   1.243
 4765W        W 8284   1.787   9.426   0.090
 4766W        W 8285   4.803   9.980   2.698
 4767W        W 8286   6.402   2.642   0.191
 4768W        W 8287   0.852   9.081   1.708
 4769W        W 8288   6.287   2.205   0.479
 4770W        W 8289   2.040   9.928   1.179
 4771W        W 8290   9.938   2.151  11.998
 4772W        W 8291   6.664   0.157   2.604
 4773W        W 8292   7.575   5.134   1.496
 4774W        W 8293   1.629   1.180   0.736
 4775W        W 8294   0.955   9.238  11.662
 4776W        W 8295   9.469   5.819  10.078
 4777W        W 8296   1.692   0.676   0.856
 4778W        W 8297   7.042   8.330   3.720
 4779W        W 8298   0.818   3.682   9.329
 4780W        W 8299   5.012   3.445  10.057
 4781W        W 8300   8.541   7.558   3.265
 4782W        W 8301   8.690   0.236   1.367
 4783W        W 8302   6.116   2.444   1.834
 4784W        W 8303   7.214   9.451   2.276
 4785W        W 8304   4.060   6.665   2.322
 4786W        W 8305   0.223   0.919   2.455
 4787W        W 8306   3.097   2.277   0.278
 4788W        W 8307   0.652   3.845   9.789
 4789W        W 8308   5.997   4.566   0.814
 4790W        W 8309   6.785   9.399   1.291
 4791W        W 8310   3.488   7.340   3.059
 4792W        W 8311   8.515   4.833  11.855
 4793W        W 8312   4.080   6.558  10.090
 4794W        W 8313   2.072   2.941   3.411
 4795W        W 8314   0.821   0.508  10.325
 4796W        W 8315   2.296   1.905   2.106
 4797W        W 8316   7.563   3.403  10.055
 4798W        W 8317   8.503   4.134  10.804
 4799W        W 8318   9.887   7.241   2.482
 4800W        W 8319   8.512   8.993   0.660
 4801W        W 8320   7.646   9.026   9.996
 4802W        W 8321   8.494   0.755   2.158
 4803W        W 8322   1.163   1.992   2.601
 4804W        W 8323   8.985   3.622  11.446
 4805W        W 8324   9.844   4.610   1.735
 4806W        W 8325   1.948   4.523   4.007
 4807W        W 8326   0.421   1.679   2.036
 4808W        W 8327   9.069   2.631   1.523
 4809W        W 8328   8.729   1.941   0.823
 4810W        W 8329   6.666   6.329   8.084
 4811W        W 8330   4.700   0.846   0.217
 4812W        W 8331   5.853   0.900  10.887
 4813W        W 8332   3.889   7.949   1.078
 4814W        W 8333   1.678   1.668   0.616
 4815W        W 8334   5.880   8.034   8.945
 4816W        W 8335   0.640   1.066   2.716
 4817W        W 8336   8.988   0.625   0.696
 4818W        W 8337   0.367   9.525   3.541
 4819W        W 8338   6.314   1.132   9.233
 4820W        W 8339   2.506   6.415   2.109
 4821W        W 8340   8.547   4.215   9.756
 4822W        W 8341   2.529   2.266   2.722
 4823W        W 8342   5.114   9.187   3.651
 4824W        W 8343   1.599   6.598   9.238
 4825W        W 8344   5.139   1.574   0.978
 4826W        W 8345   8.342   6.230   9.221
 4827W        W 8346   0.302   3.014   9.130
 4828W        W 8347   7.421   9.926   2.273
 4829W        W 8348   4.881   0.132  10.978
 4830W        W 8349   3.931   7.474   0.885
 4831W        W 8350   5.728   1.947   8.805
 4832W        W 8351   3.476   2.140   1.303
 4833W        W 8352   8.090   6.709   0.810
 4834W        W 8353   5.750   1.964   9.666
 4835W        W 8354   3.727   1.004   9.594
 4836W        W 8355   4.743   8.906  11.984
 4837W        W 8356   3.191   3.383   0.704
 4838W        W 8357   4.772   4.393   1.719
 4839W        W 8358   2.919   4.769  10.008
 4840W        W 8359   5.701   8.832  10.573
 4841W        W 8360   4.886   4.864   1.550
 4842W        W 8361   9.560   1.249   9.151
 4843W        W 8362   2.291   9.479   2.544
 4844W        W 8363   9.369   2.773   8.979
 4845W        W 8364   6.452   3.829  11.538
 4846W        W 8365   9.296   7.711   1.819
 4847W        W 8366   7.489   8.601   3.120
 4848W        W 8367   8.945   2.309   0.541
 4849W        W 8368   6.159   6.241  11.570
 4850W        W 8369   0.695   7.784   1.003
 4851W        W 8370   0.455   7.126   0.246
 4852W        W 8371   6.445   2.003  11.496
 4853W        W 8372   1.256   0.987   1.024
 4854W        W 8373   8.950   0.394   1.798
 4855W        W 8374   5.473   2.806   8.319
 4856W        W 8375   9.365   5.980   8.738
 4857W        W 8376   9.479   9.042   1.589
 4858W        W 8377   1.375   8.732   8.964
 4859W        W 8378   7.994   3.658  11.436
 4860W        W 8379   3.404   6.016  11.563
 4861W        W 8380   3.582   5.502   2.320
 4862W        W 8381   1.041   7.425  11.181
 4863W        W 8382   4.449   9.172   0.664
 4864W        W 8383   0.690   0.011  11.188
 4865W        W 8384   1.617   6.789  11.489
 4866W        W 8385   1.777   0.354   1.255
 4867W        W 8386   3.948   6.776  11.064
 4868W        W 8387   2.283   9.166   9.868
 4869W        W 8388   7.092   7.187  10.973
 4870W        W 8389   1.363   5.831   0.321
 4871W        W 8390   8.231   6.534   2.690
 4872W        W 8391   7.109   2.367  10.346
 4873W        W 8392   1.204   1.712   3.027
 4874W        W 8393   3.970   2.859   1.404
 4875W        W 8394   2.802   2.041  10.474
 4876W        W 8395   2.701   7.307   2.369
 4877W        W 8396   2.828   9.941   3.128
 4878W        W 8397   3.532   1.227   2.115
 4879W        W 8398   5.005   5.308  11.376
 4880W        W 8399   4.988   6.545   1.154
 4881W        W 8400   8.675   9.695   3.579
 4882W        W 8401   0.444   8.990   3.320
 4883W        W 8402   1.681   8.446  10.168
 4884W        W 8403   8.107   1.154  11.926
 4885W        W 8404   0.160   5.293   2.202
 4886W        W 8405   3.648   2.317   9.966
 4887W        W 8406   7.519   4.385  10.977
 4888W        W 8407   6.591   0.475   0.759
 4889W        W 8408   4.114   9.637  11.005
 4890W        W 8409   8.458   2.270   0.239
 4891W        W 8410   4.596   0.933  11.295
 4892W        W 8411   7.671   1.800   9.076
 4893W        W 8412   5.519   6.013   2.711
 4894W        W 8413   5.799   4.309  10.010
 4895W        W 8414   4.362   6.680  11.328
 4896W        W 8415   0.009   7.321   0.530
 4897W        W 8416   6.462   0.386   0.256
 4898W        W 8417   9.053   9.183   9.765
 4899W        W 8418   5.603   1.482  11.643
 4900W        W 8419   9.938   4.337   3.498
 4901W        W 8420   6.994   5.694   3.491
 4902W        W 8421   5.116   2.546  11.757
 4903W        W 8422   1.396   5.529   1.827
 4904W        W 8423   6.900   6.174  11.100
 4905W        W 8424   2.228   4.897   0.493
 4906W        W 8425   5.208   3.763   9.688
 4907W        W 8426   9.791   9.005  10.298
 4908W        W 8427   6.607   6.544  11.438
 4909W        W 8428   2.861   0.209   8.855
 4910W        W 8429   1.865   4.232   0.020
 4911W        W 8430   0.981   0.569  11.190
 4912W        W 8431   3.018   2.702   9.405
 4913W        W 8432   6.874   3.297   1.295
 4914W        W 8433   7.266   8.536  10.410
 4915W        W 8434   8.409   1.938   9.771
 4916W        W 8435   7.288   7.645   9.133
 4917W        W 8436   1.261   8.066   9.669
 4918W        W 8437   1.368   5.055   9.988
 4919W        W 8438   2.233   1.300   8.986
 4920W        W 8439   0.194   2.738   0.938
 4921W        W 8440   0.187   8.039   3.241
 4922W        W 8441   1.986   5.552   3.515
 4923W        W 8442   3.465   9.127  11.211
 4924W        W 8443   8.967   5.628   9.952
 4925W        W 8444   0.930   9.413   2.824
 4926W        W 8445   5.151   6.595   9.213
 4927W        W 8446   9.949   8.570   2.371
 4928W        W 8447   4.426   7.310   3.634
 4929W        W 8448   2.864   8.262   0.638
 4930W        W 8449   5.656   7.688   3.212
 4931W        W 8450   0.755   8.574   3.210
 4932W        W 8451   4.797   1.375   2.542
 4933W        W 8452   3.839   5.101   2.521
 4934W        W 8453   8.939   8.746   0.492
 4935W        W 8454   2.915   5.569   0.417
 4936W        W 8455   8.475   9.429   1.915
 4937W        W 8456   3.642   7.081   1.067
 4938W        W 8457   7.681   8.446   0.677
 4939W        W 8458   4.214   8.042  11.708
 4940W        W 8459   0.501   2.131   9.016
 4941W        W 8460   5.220   6.172   9.490
 4942W        W 8461   1.135   7.385   1.977
 4943W        W 8462   4.182   9.829   9.128
 4944W        W 8463   0.434   6.709   3.079
 4945W        W 8464   7.995   6.049  11.320
 4946W        W 8465   3.516   5.148  11.350
 4947W        W 8466   3.810   0.979   1.737
 4948W        W 8467   8.404   2.445   2.892
 4949W        W 8468   6.361   8.466   3.007
 4950W        W 8469   3.933   8.503   2.508
 4951W        W 8470   2.146   8.650   1.257
 4952W        W 8471   5.647   5.106   2.582
 4953W        W 8472   7.057   7.328   1.980
 4954W        W 8473   1.509   3.327   0.519
 4955W        W 8474   8.488   1.122  11.240
 4956W        W 8475   9.045   3.553   2.499
 4957W        W 8476   9.515   9.493   0.422
 4958W        W 8477   6.489   2.898   2.502
 4959W        W 8478   9.901   8.435   1.857
 4960W        W 8479   4.529   9.819   3.541
 4961W        W 8480   4.543   1.919   2.266
 4962W        W 8481   6.197   7.815   2.182
 4963W        W 8482   3.110   4.341  10.172
 4964W        W 8483   4.756   6.383   8.672
 4965W        W 8484   1.381   5.345  10.604
 4966W        W 8485   1.286   9.761   9.029
 4967W        W 8486   7.165   2.012   9.577
 4968W        W 8487   1.999   5.640  10.009
 4969W        W 8488   4.111   5.598  10.919
 4970W        W 8489   5.356   3.413   1.277
 4971W        W 8490   3.716   8.544   0.350
 4972W        W 8491   7.777   2.140   1.727
 4973W        W 8492   2.380   3.304  10.582
 4974W        W 8493   4.159   3.357   3.414
 4975W        W 8494   2.708   3.835   1.354
 4976W        W 8495   4.969   8.242   2.899
 4977W        W 8496   8.900   2.731  11.750
 4978W        W 8497   6.142   9.086   2.335
 4979W        W 8498   3.237   5.156  10.903
 4980W        W 8499   8.833   4.954   2.583
 4981W        W 8500   5.774   5.500  11.428
 4982W        W 8501   0.744   3.801   2.073
 4983W        W 8502   9.735   1.892  10.224
 4984W        W 8503   6.572   6.557   9.591
 4985W        W 8504   6.360   0.280  10.251
 4986W        W 8505   1.682   7.898   9.453
 4987W        W 8506   1.611   0.239  11.886
 4988W        W 8507   9.003   6.902   9.881
 4989W        W 8508   8.955   8.259  11.837
 4990W        W 8509   3.814   1.190   2.562
 4991W        W 8510   7.440   6.212   4.086
 4992W        W 8511   5.207   4.163   0.800
 4993W        W 8512   0.509   9.633   3.047
 4994W        W 8513   8.683   9.961  10.178
 4995W        W 8514   6.400   7.031   1.229
 4996W        W 8515   1.784   7.573   0.262
 4997W        W 8516   6.243   1.850   9.724
 4998W        W 8517   7.134   2.359   0.051
 4999W        W 8518   0.923   3.366  11.450
 5000W        W 8519   1.544   9.741   3.386
 5001W        W 8520   1.745   5.920   1.775
 5002W        W 8521   1.715   1.733   0.082
 5003W        W 8522   7.572   6.773   1.645
 5004W        W 8523   7.114   0.741  10.324
 5005W        W 8524   8.216   5.908   2.054
 5006W        W 8525   9.790   7.192  10.357
 5007W        W 8526   9.737   6.192   1.066
 5008W        W 8527   6.087   5.138   2.860
 5009W        W 8528   3.755   6.671   1.857
 5010W        W 8529   8.309   3.213  10.448
 5011W        W 8530   5.720   4.374  11.177
 5012W        W 8531   8.029   1.861   9.443
 5013W        W 8532   1.339   7.602  10.434
 5014W        W 8533   1.239   8.729   1.616
 5015W        W 8534   1.444   5.450   0.656
 5016W        W 8535   7.416   8.060  10.515
 5017W        W 8536   3.573   9.617  11.307
 5018W        W 8537   8.764   2.145  10.087
 5019W        W 8538   9.432   6.029   2.545
 5020W        W 8539   0.338   8.429   1.600
 5021W        W 8540   0.789   5.332   1.267
 5022W        W 8541   6.743   1.401   0.372
 5023W        W 8542   5.243   0.237   2.692
 5024W        W 8543   4.621   8.829  10.958
 5025W        W 8544   0.299   2.371   2.312
 5026W        W 8545   2.093   3.592   9.473
 5027W        W 8546   9.398   4.980   1.025
 5028W        W 8547   5.940   6.083   0.053
 5029W        W 8548   0.392   3.835   1.721
 5030W        W 8549   1.812   7.181   1.325
 5031W        W 8550   0.204   7.206   1.320
 5032W        W 8551   1.096   0.195  11.974
 5033W        W 8552   4.139   0.797   2.726
 5034W        W 8553   7.906   7.164   1.696
 5035W        W 8554   6.910   6.170   4.096
 5036W        W 8555   2.536   5.154   3.204
 5037W        W 8556   3.111   4.442   8.203
 5038W        W 8557   9.217   2.247   3.165
 5039W        W 8558   5.191   2.522   0.731
 5040W        W 8559   6.863   7.039   3.790
 5041W        W 8560   0.760   5.300  10.704
 5042W        W 8561   5.116   1.048   2.774
 5043W        W 8562   4.934   6.500   4.072
 5044W        W 8563   0.160   3.423   0.725
 5045W        W 8564   8.063   4.317  10.226
 5046W        W 8565   5.284   7.107   9.535
 5047W        W 8566   8.044   3.505   2.227
 5048W        W 8567   6.437   9.734  11.481
 5049W        W 8568   5.854   9.993   8.690
 5050W        W 8569   9.370   6.906   2.091
 5051W        W 8570   9.234   7.891   2.352
 5052W        W 8571   2.128   6.956   3.485
 5053W        W 8572   4.262   6.516   1.876
 5054W        W 8573   5.333   2.216   2.440
 5055W        W 8574   6.031   5.455   1.349
 5056W        W 8575   7.085   7.581  11.618
 5057W        W 8576   1.005   0.035   1.816
 5058W        W 8577   7.338   6.093   9.076
 5059W        W 8578   8.739   9.401   3.167
 5060W        W 8579   3.876   8.966  11.457
 5061W        W 8580   9.574   7.456   0.284
 5062W        W 8581   1.918   6.433  10.836
 5063W        W 8582   1.342   9.856  10.553
 5064W        W 8583   7.872   9.250   9.561
 5065W        W 8584   8.326   6.274   0.880
 5066W        W 8585   3.143   8.057   2.335
 5067W        W 8586   5.846   1.049  10.402
 5068W        W 8587   1.678   2.803   1.155
 5069W        W 8588   2.653   9.294   9.285
 5070W        W 8589   3.278   4.603   9.711
 5071W        W 8590   5.163   7.869   2.577
 5072W        W 8591   2.262   5.998   3.473
 5073W        W 8592   6.594   9.290  10.406
 5074W        W 8593   6.442   2.440   2.786
 5075W        W 8594   1.294   8.490   2.351
 5076W        W 8595   6.509   5.138   2.521
 5077W        W 8596   0.786   4.328   3.145
 5078W        W 8597   5.849   4.896   2.159
 5079W        W 8598   7.848   2.581   9.925
 5080W        W 8599   6.089   9.476  10.354
 5081W        W 8600   7.866   3.488  10.458
 5082W        W 8601   2.517   2.699   3.408
 5083W        W 8602   9.601   6.770   0.241
 5084W        W 8603   7.805   5.676   2.270
 5085W        W 8604   3.485   1.027   3.468
 5086W        W 8605   9.479   4.333   0.045
 5087W        W 8606   5.865   8.526   3.010
 5088W        W 8607   8.289   7.006   2.026
 5089W        W 8608   8.709   9.236   2.332
 5090W        W 8609   3.516   8.305   2.771
 5091W        W 8610   8.731   2.899   9.601
 5092W        W 8611   3.193   2.907   0.906
 5093W        W 8612   4.826   0.377   9.698
 5094W        W 8613   3.733   7.257  11.062
 5095W        W 8614   4.397   5.485  10.035
 5096W        W 8615   3.536   8.232   1.299
 5097W        W 8616   3.686   5.404   9.456
 5098W        W 8617   1.175   1.997   0.807
 5099W        W 8618   4.247   2.293   9.279
 5100W        W 8619   1.960   1.038   3.025
 5101W        W 8620   9.704   3.606  11.457
 5102W        W 8621   4.514   5.589   0.191
 5103W        W 8622   3.800   8.121  11.411
 5104W        W 8623   8.751   7.036   0.253
 5105W        W 8624   1.238   3.480   3.310
 5106W        W 8625   0.810   0.826   8.614
 5107W        W 8626   9.460   9.460   9.652
 5108W        W 8627   4.010   0.950   3.377
 5109W        W 8628   7.963   8.771   3.003
 5110W        W 8629   7.612   4.376   9.984
 5111W        W 8630   0.548   2.982   0.640
 5112W        W 8631   8.219   6.262   3.506
 5113W        W 8632   0.410   3.311   9.539
 5114W        W 8633   0.936   2.219   8.756
 5115W        W 8634   5.523   8.296   8.703
 5116W        W 8635   1.500   7.485   2.812
 5117W        W 8636   5.837   8.927   9.686
 5118W        W 8637   3.212   4.637   9.207
 5119W        W 8638   8.400   5.699   1.565
 5120W        W 8639   4.005   4.670   2.724
 5121W        W 8640   2.193   6.228   0.424
 5122W        W 8641   6.818   0.672  11.457
 5123W        W 8642   2.916   8.952   0.079
 5124W        W 8643   1.364   0.608   0.126
 5125W        W 8644   9.819   4.849   2.201
 5126W        W 8645   6.368   5.622   2.624
 5127W        W 8646   3.437   0.552   0.325
 5128W        W 8647   2.085   9.171   1.507
 5129W        W 8648   8.640   2.204   1.441
 5130W        W 8649   9.502   5.362  11.378
 5131W        W 8650   4.141   0.861   1.380
 5132W        W 8651   8.446   3.550   0.685
 5133W        W 8652   7.215   0.612   1.590
 5134W        W 8653   8.987   5.889   2.303
 5135W        W 8654   8.569   9.656   0.271
 5136W        W 8655   5.857   2.959   8.770
 5137W        W 8656   0.045   5.490   9.858
 5138W        W 8657   1.043   0.364   9.867
 5139W        W 8658   3.197   6.792   8.298
 5140W        W 8659   8.334   0.618   3.163
 5141W        W 8660   4.474   3.225   0.691
 5142W        W 8661   2.627   5.566  10.931
 5143W        W 8662   1.673   3.134  11.324
 5144W        W 8663   2.123   0.413  11.940
 5145W        W 8664   7.905   2.998   2.170
 5146W        W 8665   5.700   9.897   2.343
 5147W        W 8666   3.435   2.686   1.412
 5148W        W 8667   9.621   9.954   0.228
 5149W        W 8668   8.336   5.131   9.869
 5150W        W 8669   6.190   9.021  10.629
 5151W        W 8670   5.854   6.401  11.146
 5152W        W 8671   0.457   1.509   0.030
 5153W        W 8672   6.192   4.698  11.927
 5154W        W 8673   6.249   4.121   0.672
 5155W        W 8674   9.402   9.341   8.716
 5156W        W 8675   9.395   7.116  11.119
 5157W        W 8676   5.690   1.410   0.608
 5158W        W 8677   4.172   5.069   9.836
 5159W        W 8678   7.644   4.628   9.000
 5160W        W 8679   1.428   7.133   0.134
 5161W        W 8680   2.376   5.254   2.736
 5162W        W 8681   5.407   4.910  10.456
 5163W        W 8682   9.457   5.539   0.652
 5164W        W 8683   2.304   7.903   1.779
 5165W        W 8684   6.794   1.474   8.617
 5166W        W 8685   4.290   6.370   2.839
 5167W        W 8686   6.941   8.734  10.058
 5168W        W 8687   4.238   8.891   2.389
 5169W        W 8688   0.733   6.095  11.789
 5170W        W 8689   9.804   4.633  10.004
 5171W        W 8690   7.610   1.004   2.363
 5172W        W 8691   6.013   2.847   2.149
 5173W        W 8692   7.908   9.407  11.666
 5174W        W 8693   3.734   1.983   2.822
 5175W        W 8694   2.847   5.099  11.264
 5176W        W 8695   3.894   4.141   3.679
 5177W        W 8696   9.020   9.922   1.601
 5178W        W 8697   8.960   8.070  10.700
 5179W        W 8698   8.388   5.183   2.272
 5180W        W 8699   4.457   4.239   9.743
 5181W        W 8700   8.832   3.716   2.064
 5182W        W 8701   5.944   6.979  11.899
 5183W        W 8702   1.112   5.011   0.390
 5184W        W 8703   1.875   7.705  11.238
 5185W        W 8704   3.775   2.967   2.305
 5186W        W 8705   2.877   8.979   3.216
 5187W        W 8706   5.649   7.067   4.012
 5188W        W 8707   5.560   2.720   2.889
 5189W        W 8708   1.680   0.161   2.569
 5190W        W 8709   0.492   3.487   8.997
 5191W        W 8710   8.034   1.135   2.614
 5192W        W 8711   7.648   9.769  10.924
 5193W        W 8712   5.181   3.476   3.990
 5194W        W 8713   3.937   9.885   0.497
 5195W        W 8714   6.970   9.018   9.225
 5196W        W 8715   2.342   3.941   2.707
 5197W        W 8716   7.395   3.594   0.460
 5198W        W 8717   0.002   5.971   1.439
 5199W        W 8718   9.608   1.480   1.716
 5200W        W 8719   6.913   9.882   3.111
 5201W        W 8720   7.892   7.670   1.725
 5202W        W 8721   6.426   7.323  11.010
 5203W        W 8722   1.643   5.343   8.641
 5204W        W 8723   1.827   5.488   1.491
 5205W        W 8724   9.729   8.059   9.052
 5206W        W 8725   1.525   0.171   9.754
 5207W        W 8726   0.714   7.296   1.211
 5208W        W 8727   2.376   4.757   9.829
 5209W        W 8728   2.068   4.050   0.481
 5210W        W 8729   7.179   5.595   8.958
 5211W        W 8730   9.776   0.802  10.932
 5212W        W 8731   8.106   6.021  10.099
 5213W        W 8732   2.180   4.249  10.554
 5214W        W 8733   3.926   5.433  11.426
 5215W        W 8734   1.368   8.406   0.662
 5216W        W 8735   5.468   1.793  10.070
 5217W        W 8736   8.313   2.376  10.053
 5218W        W 8737   9.469   1.462   2.242
 5219W        W 8738   3.739   2.232   0.728
 5220W        W 8739   1.785   1.558   9.105
 5221W        W 8740   3.455   6.212   8.808
 5222W        W 8741   3.014   1.817   8.648
 5223W        W 8742   9.298   6.344  11.400
 5224W        W 8743   0.151   0.609   0.239
 5225W        W 8744   4.448   2.178   3.085
 5226W        W 8745   9.786   9.389   1.803
 5227W        W 8746   8.927   5.122  11.705
 5228W        W 8747   2.193   3.701   0.872
 5229W        W 8748   3.462   1.856   9.987
 5230W        W 8749   4.647   9.547   9.355
 5231W        W 8750   6.261   3.743   1.725
 5232W        W 8751   2.279   8.362   3.153
 5233W        W 8752   7.941   2.211   2.689
 5234W        W 8753   5.288   5.009   1.288
 5235W        W 8754   4.225   5.478   9.527
 5236W        W 8755   4.172   4.564  10.156
 5237W        W 8756   9.334   9.946   1.191
 5238W        W 8757   5.518   2.299   1.061
 5239W        W 8758   2.721   0.482  10.282
 5240W        W 8759   8.507   5.493  11.241
 5241W        W 8760   4.885   7.081  11.924
 5242W        W 8761   6.023   1.747   3.184
 5243W        W 8762   3.930   0.373   0.347
 5244W        W 8763   9.051   5.406   1.123
 5245W        W 8764   1.659   6.164  11.205
 5246W        W 8765   0.419   3.023  11.683
 5247W        W 8766   9.079   9.519   9.321
 5248W        W 8767   3.090   0.419   2.430
 5249W        W 8768   5.032   6.366   3.277
 5250W        W 8769   6.535   3.649   9.195
 5251W        W 8770   1.587   2.895   3.556
 5252W        W 8771   1.644   8.099  10.994
 5253W        W 8772   3.160   5.610  10.695
 5254W        W 8773   8.565   3.371   2.339
 5255W        W 8774   1.397   6.954   1.124
 5256W        W 8775   9.076   4.274   1.868
 5257W        W 8776   1.250   3.038   1.693
 5258W        W 8777   4.238   9.314   9.058
 5259W        W 8778   8.303   7.512   1.282
 5260W        W 8779   3.480   8.226   9.271
 5261W        W 8780   3.135   5.794   8.492
 5262W        W 8781   5.480   6.588   4.091
 5263W        W 8782   6.795   4.012  11.865
 5264W        W 8783   0.690   7.066   1.765
 5265W        W 8784   7.738   5.630   0.404
 5266W        W 8785   2.154   0.934   0.042
 5267W        W 8786   0.044   2.794  10.823
 5268W        W 8787   8.591   9.411   8.845
 5269W        W 8788   5.944   4.041   2.027
 5270W        W 8789   7.638   6.524   0.609
 5271W        W 8790   2.748   7.777   2.620
 5272W        W 8791   5.703   9.389   2.191
 5273W        W 8792   1.392   6.150  10.087
 5274W        W 8793   1.225   6.741  11.822
 5275W        W 8794   3.257   6.678   8.799
 5276W        W 8795   2.693   5.678   2.721
 5277W        W 8796   3.438   8.169   8.766
 5278W        W 8797   8.084   5.677  10.953
 5279W        W 8798   9.275   6.187   9.207
 5280W        W 8799   4.991   1.818   0.215
 5281W        W 8800   7.794   7.353   2.946
 5282W        W 8801   2.710   4.278  11.905
 5283W        W 8802   8.851   4.019   2.698
 5284W        W 8803   4.928   9.231  11.022
 5285W        W 8804   0.248   8.545   3.125
 5286W        W 8805   6.488   4.122   2.054
 5287W        W 8806   4.025   4.386  11.519
 5288W        W 8807   1.422   9.751   1.776
 5289W        W 8808   8.328   3.038   2.619
 5290W        W 8809   3.247   1.855   1.678
 5291W        W 8810   8.444   3.009   8.529
 5292W        W 8811   8.496   4.389   1.793
 5293W        W 8812   7.529   6.440   8.731
 5294W        W 8813   0.754   4.544   1.372
 5295W        W 8814   1.129   8.050  10.174
 5296W        W 8815   2.199   2.918  10.934
 5297W        W 8816   4.277   3.700  11.104
 5298W        W 8817   3.548   0.084   0.158
 5299W        W 8818   5.157   4.108  11.116
 5300W        W 8819   4.529   1.377  11.557
 5301W        W 8820   9.138   2.228   9.702
 5302W        W 8821   1.730   6.092   8.817
 5303W        W 8822   5.474   3.337   9.850
 5304W        W 8823   6.755   2.891  10.884
 5305W        W 8824   6.094   4.925   0.440
 5306W        W 8825   3.202   1.181   3.050
 5307W        W 8826   4.981   8.552   9.564
 5308W        W 8827   0.734   1.673  10.300
 5309W        W 8828   8.816   3.230   0.489
 5310W        W 8829   8.107   9.779   2.786
 5311W        W 8830   9.864   3.411  10.996
 5312W        W 8831   9.953   8.826   1.506
 5313W        W 8832   1.142   8.016  10.700
 5314W        W 8833   0.812   8.383  11.090
 5315W        W 8834   3.598   0.104   1.995
 5316W        W 8835   3.214   1.979  10.832
 5317W        W 8836   4.086   0.899   9.034
 5318W        W 8837   0.018   1.021  10.517
 5319W        W 8838   4.101   5.829  10.282
 5320W        W 8839   9.749   6.991   1.443
 5321W        W 8840   4.325   1.149   0.470
 5322W        W 8841   1.621   7.251  11.240
 5323W        W 8842   8.386   0.242   2.301
 5324W        W 8843   6.208   6.353   0.437
 5325W        W 8844   9.026   2.207   1.784
 5326W        W 8845   8.216   1.952  11.755
 5327W        W 8846   4.984   4.368  11.553
 5328W        W 8847   0.278   2.388   0.298
 5329W        W 8848   2.049   2.117   3.742
 5330W        W 8849   4.747   5.580   9.657
 5331W        W 8850   3.732   9.514   1.470
 5332W        W 8851   9.201   1.874  11.915
 5333W        W 8852   3.967   6.274   4.283
 5334W        W 8853   2.685   7.513   0.194
 5335W        W 8854   1.366   0.837  11.433
 5336W        W 8855   2.634   2.931  11.252
 5337W        W 8856   2.527   7.989   9.382
 5338W        W 8857   2.197   3.445  11.901
 5339W        W 8858   9.137   7.456   0.015
 5340W        W 8859   4.594   3.174  11.682
 5341W        W 8860   3.584   7.361   0.102
 5342W        W 8861   8.126   7.577  10.687
 5343W        W 8862   8.748   6.537  10.116
 5344W        W 8863   3.876   5.722   4.171
 5345W        W 8864   0.902   9.361   8.973
 5346W        W 8865   0.879   2.588  11.099
 5347W        W 8866   4.164   6.318  11.637
 5348W        W 8867   5.056   8.782   2.143
 5349W        W 8868   6.339   4.545   8.720
 5350W        W 8869   1.734   6.675  10.394
 5351W        W 8870   6.755   8.513   0.831
 5352W        W 8871   4.646   8.373  11.912
 5353W        W 8872   8.896   4.731   1.789
 5354W        W 8873   2.335   0.798   1.674
 5355W        W 8874   4.737   5.435   9.161
 5356W        W 8875   8.325   5.790   0.676
 5357W        W 8876   2.428   0.382  11.334
 5358W        W 8877   5.782   6.868   8.174
 5359W        W 8878   7.980   9.101   3.413
 5360W        W 8879   8.919   6.682  10.816
 5361W        W 8880   5.669   2.723  10.851
 5362W        W 8881   6.569   6.565  10.606
 5363W        W 8882   3.327   7.566  10.683
 5364W        W 8883   3.153   4.383   2.379
 5365W        W 8884   7.325   9.619   3.235
 5366W        W 8885   8.545   2.342  11.748
 5367W        W 8886   8.925   1.740   9.817
 5368W        W 8887   3.520   5.038   8.672
 5369W        W 8888   2.318   2.603   9.968
 5370W        W 8889   0.872   7.563   3.501
 5371W        W 8890   8.475   1.031   2.889
 5372W        W 8891   3.009   0.028   0.963
 5373W        W 8892   1.917   0.451   9.941
 5374W        W 8893   1.212   4.647   2.409
 5375W        W 8894   5.961   3.182  11.793
 5376W        W 8895   5.236   6.219   4.353
 5377W        W 8896   6.009   2.282   0.897
 5378W        W 8897   7.430   3.472   2.951
 5379W        W 8898   2.675   2.870   0.992
 5380W        W 8899   1.439   0.807   1.876
 5381W        W 8900   2.482   1.080   0.407
 5382W        W 8901   3.273   1.418   8.871
 5383W        W 8902   1.780   4.725   9.942
 5384W        W 8903   0.075   1.714  11.759
 5385W        W 8904   6.149   5.954  10.716
 5386W        W 8905   8.212   8.545  11.394
 5387W        W 8906   1.397   0.878  10.920
 5388W        W 8907   6.887   9.044   0.472
 5389W        W 8908   0.107   4.851  11.414
 5390W        W 8909   0.443   5.814  11.281
 5391W        W 8910   2.550   1.282   1.870
 5392W        W 8911   6.665   6.372  10.067
 5393W        W 8912   6.738   3.862   0.834
 5394W        W 8913   6.707   5.262   3.547
 5395W        W 8914   6.619   9.868  11.003
 5396W        W 8915   4.592   5.819   8.839
 5397W        W 8916   2.263   5.651   2.411
 5398W        W 8917   7.016   0.722   9.527
 5399W        W 8918   0.312   3.221   2.543
 5400W        W 8919   6.519   2.254   8.684
 5401W        W 8920   6.967   6.250   0.943
 5402W        W 8921   6.161   1.871  10.248
 5403W        W 8922   9.287   9.234   0.014
 5404W        W 8923   6.839   5.899  10.233
 5405W        W 8924   2.201   4.312  10.018
 5406W        W 8925   6.670   5.827   0.822
 5407W        W 8926   8.905   5.996  11.437
 5408W        W 8927   6.593   7.958   2.990
 5409W        W 8928   6.449   0.680   1.221
 5410W        W 8929   2.912   3.239  10.966
 5411W        W 8930   2.304   9.240  10.906
 5412W        W 8931   1.279   6.220   0.606
 5413W        W 8932   7.641   2.605   3.346
 5414W        W 8933   1.718   3.300   2.400
 5415W        W 8934   1.708   1.182   2.207
 5416W        W 8935   5.546   4.418   1.121
 5417W        W 8936   2.083   6.393  11.883
 5418W        W 8937   0.909   8.876   9.160
 5419W        W 8938   8.025   5.561   9.923
 5420W        W 8939   6.914   8.254   8.553
 5421W        W 8940   5.333   1.049  11.565
 5422W        W 8941   4.995   1.705   9.917
 5423W        W 8942   9.392   1.415   2.771
 5424W        W 8943   5.974   0.556  10.427
 5425W        W 8944   8.477   9.715   2.398
 5426W        W 8945   1.219   2.590   3.378
 5427W        W 8946   9.420   6.590  10.906
 5428W        W 8947   6.044   7.956  11.223
 5429W        W 8948   2.287   7.949   2.806
 5430W        W 8949   1.342   1.221   9.093
 5431W        W 8950   5.261   1.981   9.589
 5432W        W 8951   5.748   8.121   9.442
 5433W        W 8952   6.482   2.001   3.062
 5434W        W 8953   1.173   8.969   2.589
 5435W        W 8954   3.542   5.028   3.342
 5436W        W 8955   2.640   6.410   2.665
 5437W        W 8956   9.037   4.161   9.567
 5438W        W 8957   3.381   4.769  10.207
 5439W        W 8958   2.662   9.223   2.284
 5440W        W 8959   2.351   2.206   9.585
 5441W        W 8960   2.707   7.381   0.678
 5442W        W 8961   0.229   1.714   8.885
 5443W        W 8962   5.444   1.446   2.652
 5444W        W 8963   9.190   1.816   1.013
 5445W        W 8964   5.492   1.797   0.324
 5446W        W 8965   6.140   2.310  10.527
 5447W        W 8966   1.557   8.258   9.118
 5448W        W 8967   9.179   6.625   0.666
 5449W        W 8968   0.067   4.742   8.735
 5450W        W 8969   1.910   4.726   9.063
 5451W        W 8970   9.442   2.232   0.263
 5452W        W 8971   0.571   4.674  11.365
 5453W        W 8972   7.743   9.209   1.404
 5454W        W 8973   6.521   1.294  10.933
 5455W        W 8974   0.121   2.849   9.606
 5456W        W 8975   4.632   6.397   8.153
 5457W        W 8976   2.867   6.844  10.233
 5458W        W 8977   3.211   8.732   0.456
 5459W        W 8978   3.580   7.138   2.076
 5460W        W 8979   8.020   4.205   9.717
 5461W        W 8980   2.102   8.366   1.692
 5462W        W 8981   9.499   4.673   3.635
 5463W        W 8982   0.004   3.219   9.928
 5464W        W 8983   2.668   7.153   1.133
 5465W        W 8984   0.041   4.264   0.092
 5466W        W 8985   4.344   5.437  11.740
 5467W        W 8986   8.906   4.629  11.524
 5468W        W 8987   9.678   6.648   3.292
 5469W        W 8988   4.734   3.338   2.375
 5470W        W 8989   2.175   2.883   1.856
 5471W        W 8990   1.953   9.217   0.522
 5472W        W 8991   9.097   1.721  11.432
 5473W        W 8992   5.497   5.979   0.845
 5474W        W 8993   9.813   2.517   0.687
 5475W        W 8994   9.756   5.677   8.571
 5476W        W 8995   9.961   1.076   1.783
 5477W        W 8996   0.373   1.378  10.516
 5478W        W 8997   7.639   7.568  11.679
 5479W        W 8998   2.634   8.534   1.440
 5480W        W 8999   4.021   1.441   2.106
 5481W        W 9000   6.048   8.064  10.203
 5482W        W 9001   1.174   5.195   2.210
 5483W        W 9002   7.093   1.519   9.786
 5484W        W 9003   0.036   4.279   0.828
 5485W        W 9004   1.163   4.047  10.030
 5486W        W 9005   9.889   2.238   2.608
 5487W        W 9006   5.275   5.250   9.651
 5488W        W 9007   6.085   7.933   1.410
 5489W        W 9008   8.139   5.922   0.214
 5490W        W 9009   8.966   0.917   2.052
 5491W        W 9010   4.132   8.844   9.820
 5492W        W 9011   9.526   8.417   3.723
 5493W        W 9012   9.793   1.315  11.951
 5494W        W 9013   2.040   6.460   0.884
 5495W        W 9014   5.633   4.476   9.064
 5496W        W 9015   5.108   0.172  10.065
 5497W        W 9016   9.438   3.599   2.153
 5498W        W 9017   0.891   5.626   1.756
 5499W        W 9018   8.991   7.398   3.081
 5500W        W 9019   5.762   1.805  11.258
 5501W        W 9020   0.712   2.327   1.498
 5502W        W 9021   6.135   5.739   9.615
 5503W        W 9022   5.990   1.469   8.957
 5504W        W 9023   9.818   0.812   2.818
 5505W        W 9024   6.418   4.057   8.887
 5506W        W 9025   9.235   4.345   3.924
 5507W        W 9026   8.891   7.945   9.200
 5508W        W 9027   7.085   0.991   0.246
 5509W        W 9028   3.760   9.400   3.130
 5510W        W 9029   9.940   8.159   8.599
 5511W        W 9030   1.067   7.459   2.484
 5512W        W 9031   5.151   1.921   3.290
 5513W        W 9032   8.558   7.110   3.525
 5514W        W 9033   3.105   4.401  11.557
 5515W        W 9034   4.493   3.843   0.202
 5516W        W 9035   7.428   1.266   1.947
 5517W        W 9036   0.337   5.204   8.771
 5518W        W 9037   7.384   5.711  11.955
 5519W        W 9038   8.983   0.464  11.045
 5520W        W 9039   9.026   5.829   1.445
 5521W        W 9040   3.440   1.902   0.316
 5522W        W 9041   8.355   7.088   0.538
 5523W        W 9042   4.151   7.956  10.478
 5524W        W 9043   0.045   2.207   9.960
 5525W        W 9044   8.128   0.576  10.873
 5526W        W 9045   5.216   8.704   0.752
 5527W        W 9046   7.123   1.635   0.664
 5528W        W 9047   7.835   1.125   1.657
 5529W        W 9048   6.360   4.628  10.407
 5530W        W 9049   6.943   6.296   9.378
 5531W        W 9050   0.178   7.336  10.651
 5532W        W 9051   4.199   7.301   1.456
 5533W        W 9052   9.627   2.832  10.548
 5534W        W 9053   9.654   5.173   3.555
 5535W        W 9054   9.492   5.206  10.885
 5536W        W 9055   5.308   4.521  11.941
 5537W        W 9056   8.359   9.806  11.659
 5538W        W 9057   5.271   9.811   0.816
 5539W        W 9058   0.398   9.987   8.958
 5540W        W 9059   3.850   9.750   8.565
 5541W        W 9060   6.770   4.300   8.563
 5542W        W 9061   1.442   9.401   8.695
 5543W        W 9062   5.989   5.148  11.745
 5544W        W 9063   7.750   1.605  11.146
 5545W        W 9064   7.574   5.378   9.693
 5546W        W 9065   3.446   2.555  11.431
 5547W        W 9066   7.813   8.416   1.194
 5548W        W 9067   6.168   4.159   2.508
 5549W        W 9068   4.121   7.011   1.921
 5550W        W 9069   9.353   3.871   9.828
 5551W        W 9070   5.330   0.334  10.886
 5552W        W 9071   6.622   4.628   2.280
 5553W        W 9072   6.052   8.593   2.543
 5554W        W 9073   2.359   5.733   0.447
 5555W        W 9074   5.789   4.345  11.914
 5556W        W 9075   4.156   0.759  10.038
 5557W        W 9076   3.571   4.607   3.001
 5558W        W 9077   7.257   0.800   9.057
 5559W        W 9078   5.310   8.963   9.640
 5560W        W 9079   1.399   9.881   2.925
 5561W        W 9080   0.107   4.550   9.616
 5562W        W 9081   3.607   6.536   8.433
 5563W        W 9082   2.231   5.193  10.056
 5564W        W 9083   4.367   6.070   1.289
 5565W        W 9084   3.197   7.876   1.411
 5566W        W 9085   6.490   6.283   1.856
 5567W        W 9086   2.430   4.859   0.967
 5568W        W 9087   8.826   5.378   1.594
 5569W        W 9088   7.155   9.705   1.127
 5570W        W 9089   2.367   2.277  10.595
 5571W        W 9090   7.497   8.645   8.994
 5572W        W 9091   2.903   3.173  11.889
 5573W        W 9092   4.389   4.848   0.836
 5574W        W 9093   6.456   0.383  11.754
 5575W        W 9094   3.920   8.512   1.101
 5576W        W 9095   2.525   5.538   3.548
 5577W        W 9096   6.445   8.938   1.968
 5578W        W 9097   0.889   1.194   3.545
 5579W        W 9098   8.671   2.834  10.500
 5580W        W 9099   3.675   4.889   1.244
 5581W        W 9100   7.310   5.233  10.838
 5582W        W 9101   7.432   3.517  11.411
 5583W        W 9102   2.233   3.376   1.817
 5584W        W 9103   3.193   3.729   1.507
 5585W        W 9104   4.369   1.113  11.947
 5586W        W 9105   7.110   7.296  10.416
 5587W        W 9106   0.822   3.493  10.131
 5588W        W 9107   8.104   7.262   3.347
 5589W        W 9108   0.780   2.011   2.980
 5590W        W 9109   4.038   9.348   0.023
 5591W        W 9110   7.757   6.383   9.933
 5592W        W 9111   8.190   5.162  10.986
 5593W        W 9112   4.494   5.359   0.762
 5594W        W 9113   7.905   2.066   9.951
 5595W        W 9114   3.203   5.402   1.958
 5596W        W 9115   4.130   0.504   3.146
 5597W        W 9116   7.697   2.073   3.525
 5598W        W 9117   7.985   0.209   3.078
 5599W        W 9118   7.300   0.323   9.723
 5600W        W 9119   8.865   3.495   1.531
 5601W        W 9120   8.381   1.230   9.065
 5602W        W 9121   4.804   5.766   0.560
 5603W        W 9122   5.743   3.690   1.727
 5604W        W 9123   9.386   3.300  10.635
 5605W        W 9124   6.525   2.605   9.044
 5606W        W 9125   1.434   7.642  10.934
 5607W        W 9126   4.787   4.902  11.122
 5608W        W 9127   4.276   8.961  11.793
 5609W        W 9128   9.387   2.845   1.982
 5610W        W 9129   5.503   5.379   1.556
 5611W        W 9130   2.767   5.660   0.899
 5612W        W 9131   1.149   2.786   9.475
 5613W        W 9132   4.611   5.002  11.598
 5614W        W 9133   5.532   9.304   2.675
 5615W        W 9134   9.005   8.648   9.905
 5616W        W 9135   3.713   1.771  11.896
 5617W        W 9136   7.103   3.815   1.245
 5618W        W 9137   4.656   8.565   3.147
 5619W        W 9138   6.580   1.188   1.302
 5620W        W 9139   5.312   8.395   9.175
 5621W        W 9140   6.115   2.808   9.258
 5622W        W 9141   9.359   6.705   9.197
 5623W        W 9142   3.063   8.463   2.031
 5624W        W 9143   7.116   1.848   2.359
 5625W        W 9144   5.670   7.034  11.482
 5626W        W 9145   5.974   8.657   2.006
 5627W        W 9146   7.625   8.862   0.991
 5628W        W 9147   6.126   8.360   3.563
 5629W        W 9148   5.918   8.479   9.938
 5630W        W 9149   1.739   3.530   9.102
 5631W        W 9150   9.072   1.746   3.077
 5632W        W 9151   1.062   1.954   3.837
 5633W        W 9152   9.050   0.840  11.401
 5634W        W 9153   0.978   3.768  11.810
 5635W        W 9154   7.284   0.400  10.670
 5636W        W 9155   2.339   8.812   1.731
 5637W        W 9156   5.828   6.158   8.751
 5638W        W 9157   1.135   9.804   2.289
 5639W        W 9158   7.310   8.158   8.912
 5640W        W 9159   4.216   7.529   8.733
 5641W        W 9160   9.003   8.959   1.427
 5642W        W 9161   0.287   5.174   1.135
 5643W        W 9162   0.572   9.757  10.129
 5644W        W 9163   5.157   3.564  11.063
 5645W        W 9164   0.824   4.381   2.613
 5646W        W 9165   1.903   2.130  10.443
 5647W        W 9166   7.111   5.120   9.850
 5648W        W 9167   1.381   7.043   3.091
 5649W        W 9168   2.871   4.576   3.839
 5650W        W 9169   5.916   3.654  10.409
 5651W        W 9170   7.332   4.748  10.673
 5652W        W 9171   7.923   3.086  10.770
 5653W        W 9172   1.327   0.867   8.584
 5654W        W 9173   6.722   8.824   9.610
 5655W        W 9174   6.677   7.738  11.867
 5656W        W 9175   3.666   2.422   3.188
 5657W        W 9176   4.014   0.289  10.209
 5658W        W 9177   2.169   2.384   1.926
 5659W        W 9178   1.727   2.251   9.464
 5660W        W 9179   4.690   5.621   3.144
 5661W        W 9180   3.106   0.905   2.238
 5662W        W 9181   6.943   9.108  10.974
 5663W        W 9182   4.883   2.851   1.332
 5664W        W 9183   1.908   6.843   3.912
 5665W        W 9184   3.411   2.516   9.141
 5666W        W 9185   4.975   9.540   0.421
 5667W        W 9186   1.365   1.738   9.824
 5668W        W 9187   4.472   4.989   9.023
 5669W        W 9188   1.609   9.955  11.400
 5670W        W 9189   0.541   4.203   0.348
 5671W        W 9190   7.257   9.332   1.455
 5672W        W 9191   9.784   2.653   9.257
 5673W        W 9192   0.841   5.861   1.305
 5674W        W 9193   1.475   9.435   0.508
 5675W        W 9194   0.137   6.380   0.770
 5676W        W 9195   9.373   8.345   2.983
 5677W        W 9196   3.765   2.945   2.858
 5678W        W 9197   1.066   6.497   1.008
 5679W        W 9198   9.269   8.192   8.781
 5680W        W 9199   3.675   2.784   1.844
 5681W        W 9200   5.436   4.146   0.278
 5682W        W 9201   7.863   8.294   8.879
 5683W        W 9202   9.469   6.654   9.700
 5684W        W 9203   1.704   1.689  10.667
 5685W        W 9204   2.959   4.820   1.126
 5686W        W 9205   0.771   7.577   1.684
 5687W        W 9206   9.554   4.425   2.380
 5688W        W 9207   3.764   4.592   3.489
 5689W        W 9208   8.056   3.717   0.421
 5690W        W 9209   5.154   7.751   0.549
 5691W        W 9210   5.240   7.479   4.001
 5692W        W 9211   5.225   3.860  10.660
 5693W        W 9212   6.195   7.287   2.262
 5694W        W 9213   7.731   0.434   1.520
 5695W        W 9214   0.847   6.134   2.430
 5696W        W 9215   6.858   4.418   0.867
 5697W        W 9216   3.405   4.569   1.554
 5698W        W 9217   9.447   0.180   1.731
 5699W        W 9218   2.702   6.050   9.745
 5700W        W 9219   2.739   4.645   3.318
 5701W        W 9220   9.723   8.913  10.802
 5702W        W 9221   0.964   5.880   9.988
 5703W        W 9222   5.141   5.666  10.642
 5704W        W 9223   5.245   5.734   9.859
 5705W        W 9224   6.729   5.741   0.344
 5706W        W 9225   1.579   4.814  10.434
 5707W        W 9226   6.976   2.625   1.920
 5708W        W 9227   1.077   9.643   1.398
 5709W        W 9228   7.536   0.484   2.359
 5710W        W 9229   1.703   8.577  11.237
 5711W        W 9230   1.367   9.489  11.358
 5712W        W 9231   7.789   0.535   9.043
 5713W        W 9232   1.809   9.589   0.877
 5714W        W 9233   6.054   5.307   2.357
 5715W        W 9234   1.930   0.800   8.498
 5716W        W 9235   1.742   1.704  11.572
 5717W        W 9236   4.255   9.510   3.180
 5718W        W 9237   2.463   1.198  10.390
 5719W        W 9238   3.153   5.306   1.195
 5720W        W 9239   6.049   9.023   2.829
 5721W        W 9240   6.648   6.196   1.369
 5722W        W 9241   1.945   3.098  10.446
 5723W        W 9242   2.258   8.962   9.242
 5724W        W 9243   5.063   9.381   9.107
 5725W        W 9244   6.172   9.882   9.972
 5726W        W 9245   7.132   6.069   2.758
 5727W        W 9246   2.905   4.664   1.612
 5728W        W 9247   5.976   5.021  11.203
 5729W        W 9248   3.149   2.843   1.885
 5730W        W 9249   0.413   6.890   8.710
 5731W        W 9250   7.158   3.976   0.212
 5732W        W 9251   5.081   6.190  11.569
 5733W        W 9252   7.128   8.549   9.416
 5734W        W 9253   9.747   9.872   9.765
 5735W        W 9254   7.603   6.356  11.288
 5736W        W 9255   1.942   0.574   3.259
 5737W        W 9256   8.740   7.591  10.700
 5738W        W 9257   3.269   6.357   0.164
 5739W        W 9258   1.260   6.058   9.145
 5740W        W 9259   5.520   9.382  11.180
 5741W        W 9260   1.582   1.372   9.545
 5742W        W 9261   0.424   6.347   8.621
 5743W        W 9262   9.554   4.000   1.020
 5744W        W 9263   3.297   6.893   1.681
 5745W        W 9264   5.157   3.218   2.864
 5746W        W 9265   5.006   0.510  10.498
 5747W        W 9266   8.426   2.478   3.420
 5748W        W 9267   3.214   6.404  11.279
 5749W        W 9268   3.122   6.085   3.281
 5750W        W 9269   4.887   3.270   9.070
 5751W        W 9270   3.619   3.989   9.604
 5752W        W 9271   7.969   1.032  11.095
 5753W        W 9272   6.912   9.519   8.780
 5754W        W 9273   6.481   0.784   9.607
 5755W        W 9274   8.899   0.804  10.014
 5756W        W 9275   6.128   7.240   9.518
 5757W        W 9276   6.211   1.532   1.444
 5758W        W 9277   8.495   3.987   0.186
 5759W        W 9278   3.559   8.044  10.751
 5760W        W 9279   3.185   6.931   3.032
 5761W        W 9280   1.286   4.104   3.145
 5762W        W 9281   1.719   4.108   2.887
 5763W        W 9282   2.712   5.500  10.436
 5764W        W 9283   1.336   7.813   1.760
 5765W        W 9284   4.670   2.241   0.115
 5766W        W 9285   7.499   1.430   0.984
 5767W        W 9286   3.534   8.366   2.236
 5768W        W 9287   5.333   0.250   2.200
 5769W        W 9288   2.681   8.262   2.473
 5770W        W 9289   7.685   7.143   8.632
 5771W        W 9290   6.817   2.197   3.389
 5772W        W 9291   1.234   8.464  11.444
 5773W        W 9292   2.541   7.646   1.343
 5774W        W 9293   2.707   8.834  10.967
 5775W        W 9294   9.608   5.867   2.104
 5776W        W 9295   5.905   1.333   2.903
 5777W        W 9296   5.880   8.399   1.488
 5778W        W 9297   0.470   6.769   1.324
 5779W        W 9298   3.923   0.118   9.468
 5780W        W 9299   4.283   6.191   2.293
 5781W        W 9300   9.962   6.389   0.233
 5782W        W 9301   4.754   8.199   9.917
 5783W        W 9302   9.007   9.467  11.032
 5784W        W 9303   2.307   3.629   9.929
 5785W        W 9304   3.401   5.509   3.237
 5786W        W 9305   4.619   8.188   9.434
 5787W        W 9306   6.800   5.148   1.262
 5788W        W 9307   4.325   5.942   9.811
 5789W        W 9308   8.370   5.316  11.752
 5790W        W 9309   5.671   8.803  11.613
 5791W        W 9310   2.810   0.941  10.077
 5792W        W 9311   9.082   6.466   8.814
 5793W        W 9312   6.722   6.230   0.461
 5794W        W 9313   6.451   1.573   3.383
 5795W        W 9314   4.200   4.773   0.367
 5796W        W 9315   7.053   8.884   3.178
 5797W        W 9316   6.446   6.084   9.349
 5798W        W 9317   4.861   2.672   3.642
 5799W        W 9318   6.599   8.055   1.474
 5800W        W 9319   0.164   4.688  10.938
 5801W        W 9320   0.300   4.196   9.986
 5802W        W 9321   4.566   1.405  11.051
 5803W        W 9322   3.561   8.555  11.512
 5804W        W 9323   5.606   2.463  11.859
 5805W        W 9324   5.647   6.508   9.095
 5806W        W 9325   5.507   3.893   1.130
 5807W        W 9326   4.824   4.142   2.802
 5808W        W 9327   0.924   0.143   0.464
 5809W        W 9328   4.533   5.942   2.720
 5810W        W 9329   4.489   3.558   1.202
 5811W        W 9330   0.971   9.473   9.988
 5812W        W 9331   9.344   9.722   2.653
 5813W        W 9332   1.433   0.668   9.912
 5814W        W 9333   3.180   9.959  10.282
 5815W        W 9334   9.457   8.422  11.252
 5816W        W 9335   7.076   3.275  10.743
 5817W        W 9336   9.854   6.163   3.365
 5818W        W 9337   8.334   1.625   2.089
 5819W        W 9338   4.190   1.522   0.162
 5820W        W 9339   3.697   7.506   8.888
 5821W        W 9340   1.277   1.643  10.329
 5822W        W 9341   9.205   4.029   2.305
 5823W        W 9342   7.259   5.287   1.138
 5824W        W 9343   5.555   2.788   3.517
 5825W        W 9344   7.110   6.765  11.890
 5826W        W 9345   2.597   9.956   9.493
 5827W        W 9346   4.569   2.541   2.745
 5828W        W 9347   6.954   3.147  11.730
 5829W        W 9348   1.792   3.670   1.253
 5830W        W 9349   0.847   6.218   2.981
 5831W        W 9350   4.120   9.060   1.933
 5832W        W 9351   6.093   0.026   9.149
 5833W        W 9352   9.770   3.752   9.453
 5834W        W 9353   2.548   8.387   1.970
 5835W        W 9354   3.906   8.935  10.262
 5836W        W 9355   4.223   6.880   2.768
 5837W        W 9356   3.056   4.131  11.101
 5838W        W 9357   0.410   3.128   1.617
 5839W        W 9358   1.789   8.096   3.915
 5840W        W 9359   1.021   2.958  10.084
 5841W        W 9360   7.040   3.196  11.233
 5842W        W 9361   0.876   6.005   0.340
 5843W        W 9362   3.144   3.782   0.375
 5844W        W 9363   0.952   1.092  11.237
 5845W        W 9364   0.884   7.013  10.841
 5846W        W 9365   6.705   7.081  11.358
 5847W        W 9366   6.548   3.334  11.439
 5848W        W 9367   3.404   2.587   2.255
 5849W        W 9368   9.086   4.462   2.908
 5850W        W 9369   8.431   7.417  11.067
 5851W        W 9370   8.242   8.847  10.948
 5852W        W 9371   0.223   8.835  10.771
 5853W        W 9372   4.694   3.501  11.292
 5854W        W 9373   3.832   7.080   9.935
 5855W        W 9374   3.788   5.911  11.236
 5856W        W 9375   5.705   6.008  11.594
 5857W        W 9376   1.228   8.834  11.847
 5858W        W 9377   1.269   1.906  11.564
 5859W        W 9378   2.893   7.105   9.785
 5860W        W 9379   4.804   4.304   3.682
 5861W        W 9380   6.024   9.505   2.615
 5862W        W 9381   8.977   4.114  11.580
 5863W        W 9382   3.382   2.730   9.759
 5864W        W 9383   7.842   3.620   3.225
 5865W        W 9384   0.868   7.733   9.628
 5866W        W 9385   4.711   1.931  10.364
 5867W        W 9386   8.717   6.667   2.801
 5868W        W 9387   3.105   0.615   1.405
 5869W        W 9388   4.630   2.858   9.983
 5870W        W 9389   5.101   0.698  10.011
 5871W        W 9390   7.423   6.820  11.107
 5872W        W 9391   4.450   8.214   1.843
 5873W        W 9392   9.878   6.676  11.799
 5874W        W 9393   1.337   1.694   8.835
 5875W        W 9394   4.291   6.655   8.687
 5876W        W 9395   9.003   3.948   3.643
 5877W        W 9396   2.667   2.630   1.832
 5878W        W 9397   0.844   2.522   3.002
 5879W        W 9398   6.045   3.238   2.948
 5880W        W 9399   6.894   6.846   8.915
 5881W        W 9400   9.910   5.928   9.511
 5882W        W 9401   7.436   8.026  10.020
 5883W        W 9402   9.972   1.995   3.711
 5884W        W 9403   0.285   7.418  10.158
 5885W        W 9404   4.606   6.220  11.358
 5886W        W 9405   4.095   3.571   0.837
 5887W        W 9406   3.052   0.426  10.719
 5888W        W 9407   6.775   1.196   9.483
 5889W        W 9408   5.267   2.379   3.466
 5890W        W 9409   5.693   4.881   0.092
 5891W        W 9410   1.844   9.980  10.170
 5892W        W 9411   5.170   4.514   2.583
 5893W        W 9412   7.328   2.624   9.080
 5894W        W 9413   2.800   0.446   2.981
 5895W        W 9414   0.169   9.041   2.343
 5896W        W 9415   7.934   6.896   1.262
 5897W        W 9416   0.799   1.398   2.218
 5898W        W 9417   0.950   8.409  11.880
 5899W        W 9418   7.310   1.152  11.521
 5900W        W 9419   9.190   6.561  10.404
 5901W        W 9420   2.656   9.723   2.253
 5902W        W 9421   2.637   3.101   1.979
 5903W        W 9422   7.167   5.637   9.924
 5904W        W 9423   3.873   4.716   0.804
 5905W        W 9424   2.470   0.474   9.685
 5906W        W 9425   0.432   0.803   9.349
 5907W        W 9426   0.904   1.265   1.313
 5908W        W 9427   3.955   9.517   9.487
 5909W        W 9428   7.493   8.179   0.271
 5910W        W 9429   2.355   5.126  11.079
 5911W        W 9430   0.149   0.621   8.146
 5912W        W 9431   9.877   2.702  10.064
 5913W        W 9432   6.454   5.487   1.655
 5914W        W 9433   5.024   1.563   9.413
 5915W        W 9434   1.324   0.427   0.597
 5916W        W 9435   9.970   1.541   9.312
 5917W        W 9436   0.588   6.524   9.059
 5918W        W 9437   5.106   4.866  11.602
 5919W        W 9438   7.174   4.843   1.440
 5920W        W 9439   6.521   8.597   8.643
 5921W        W 9440   8.138   2.349   9.571
 5922W        W 9441   1.626   7.179  10.388
 5923W        W 9442   6.291   9.451   2.019
 5924W        W 9443   3.074   8.972   8.697
 5925W        W 9444   5.575   8.011   1.310
 5926W        W 9445   5.718   4.140   0.708
 5927W        W 9446   2.771   9.554   2.715
 5928W        W 9447   1.257   5.961   1.573
 5929W        W 9448   1.869   3.263   0.897
 5930W        W 9449   8.540   6.261   3.031
 5931W        W 9450   3.419   5.277   9.980
 5932W        W 9451   8.798   6.129   9.053
 5933W        W 9452   8.104   4.547   9.199
 5934W        W 9453   8.867   2.757   0.268
 5935W        W 9454   6.247   2.057   3.513
 5936W        W 9455   0.527   5.209   9.958
 5937W        W 9456   3.453   8.664   8.567
 5938W        W 9457   5.546   5.308   2.105
 5939W        W 9458   1.715   4.250   3.420
 5940W        W 9459   9.574   6.985   0.734
 5941W        W 9460   1.336   9.455   1.010
 5942W        W 9461   7.677   5.584   0.912
 5943W        W 9462   0.881   3.238   1.378
 5944W        W 9463   9.210   9.656   3.422
 5945W        W 9464   1.253   6.983   2.612
 5946W        W 9465   3.004   4.180   3.267
 5947W        W 9466   3.542   2.898   8.808
 5948W        W 9467   5.292   1.280   1.406
 5949W        W 9468   4.421   0.183   0.377
 5950W        W 9469   2.262   5.638   3.068
 5951W        W 9470   8.923   8.288   3.273
 5952W        W 9471   6.239   9.076  11.674
 5953W        W 9472   7.152   8.622   1.851
 5954W        W 9473   1.360   4.793   1.955
 5955W        W 9474   3.220   7.078  11.884
 5956W        W 9475   5.955   2.283  10.014
 5957W        W 9476   3.008   7.402   1.413
 5958W        W 9477   1.813   6.593   0.471
 5959W        W 9478   4.025   2.156   3.394
 5960W        W 9479   1.074   0.789   1.455
 5961W        W 9480   8.294   0.654   0.005
 5962W        W 9481   4.020   5.087  11.940
 5963W        W 9482   2.663   5.747   9.310
 5964W        W 9483   4.711   4.401   0.746
 5965W        W 9484   5.748   6.249   1.572
 5966W        W 9485   7.512   0.899   2.851
 5967W        W 9486   1.635   7.300   8.775
 5968W        W 9487   1.860   9.116  11.254
 5969W        W 9488   8.474   7.993   0.559
 5970W        W 9489   3.629   6.215   3.423
 5971W        W 9490   6.719   2.822   0.583
 5972W        W 9491   5.566   2.714   2.377
 5973W        W 9492   4.389   2.761   9.126
 5974W        W 9493   6.622   8.295   3.415
 5975W        W 9494   4.127   6.606   0.078
 5976W        W 9495   3.382   5.515   8.841
 5977W        W 9496   2.593   1.759   9.574
 5978W        W 9497   0.331   2.249   2.868
 5979W        W 9498   5.086   1.930   9.068
 5980W        W 9499   1.856   7.634  10.305
 5981W        W 9500   9.963   1.462   2.114
 5982W        W 9501   3.402   9.859   8.845
 5983W        W 9502   5.931   4.075   9.566
 5984W        W 9503   1.953   6.455   3.568
 5985W        W 9504   5.293   1.540   1.876
 5986W        W 9505   4.602   1.753  11.887
 5987W        W 9506   8.583   0.883   9.399
 5988W        W 9507   0.576   9.134  11.024
 5989W        W 9508   2.775   2.203  10.969
 5990W        W 9509   9.156   4.843  10.704
 5991W        W 9510   4.941   7.843  10.626
 5992W        W 9511   9.394   5.550  10.510
 5993W        W 9512   0.696   3.107  10.453
 5994W        W 9513   5.535   1.661   9.204
 5995W        W 9514   3.221   8.690  11.143
 5996W        W 9515   1.481   4.939  10.923
 5997W        W 9516   9.696   6.152  11.833
 5998W        W 9517   4.956   7.202   3.636
 5999W        W 9518   8.093   0.475   3.576
 6000W        W 9519   3.344   4.420  10.780
 6001W        W 9520   4.460   3.081   8.726
 6002W        W 9521   6.446   9.490  11.952
 6003W        W 9522   2.805   2.387   9.811
 6004W        W 9523   3.127   7.562   2.368
 6005W        W 9524   5.043   8.617  11.697
 6006W        W 9525   9.768   8.858  11.310
 6007W        W 9526   7.624   4.001  11.320
 6008W        W 9527   4.474   4.145  10.246
 6009W        W 9528   7.020   8.262   9.863
 6010W        W 9529   9.807   3.429   1.099
 6011W        W 9530   3.787   9.744   2.758
 6012W        W 9531   8.909   3.838  10.493
 6013W        W 9532   9.889   4.801   3.313
 6014W        W 9533   4.838   9.053   3.119
 6015W        W 9534   8.966   0.352  11.550
 6016W        W 9535   2.788   2.887   9.903
 6017W        W 9536   9.012   3.008  10.874
 6018W        W 9537   9.292   2.308   2.665
 6019W        W 9538   1.368   1.022   3.697
 6020W        W 9539   0.303   8.846   1.901
 6021W        W 9540   9.334   2.365   2.160
 6022W        W 9541   3.672   0.680   8.741
 6023W        W 9542   0.465   2.630   8.785
 6024W        W 9543   8.750   0.684   1.161
 6025W        W 9544   6.121   7.130   1.750
 6026W        W 9545   6.501   2.831   1.988
 6027W        W 9546   8.295   0.500   9.582
 6028W        W 9547   7.184   9.984   0.388
 6029W        W 9548   4.931   2.290  11.305
 6030W        W 9549   4.069   5.346  10.459
 6031W        W 9550   5.335   8.254   3.630
 6032W        W 9551   8.006   6.093   2.486
 6033W        W 9552   9.755   6.663   1.840
 6034W        W 9553   7.808   8.602  10.795
 6035W        W 9554   5.684   6.274   0.455
 6036W        W 9555   4.984   1.669  10.902
 6037W        W 9556   6.984   2.866   2.366
 6038W        W 9557   9.813   4.411  11.223
 6039W        W 9558   8.010   5.810   3.456
 6040W        W 9559   6.810   6.508   2.199
 6041W        W 9560   2.618   8.207   9.845
 6042W        W 9561   4.451   5.593   1.455
 6043W        W 9562   4.414   6.466   4.011
 6044W        W 9563   3.717   1.578  10.380
 6045W        W 9564   3.055   7.197   2.009
 6046W        W 9565   2.508   7.905   8.852
 6047W        W 9566   4.667   8.538   0.886
 6048W        W 9567   2.930   1.561   0.934
 6049W        W 9568   4.060   3.226   0.392
 6050W        W 9569   3.503   2.304   1.815
 6051W        W 9570   0.277   8.612   1.057
 6052W        W 9571   1.208   8.002   0.280
 6053W        W 9572   4.520   4.522  11.441
 6054W        W 9573   2.175   2.865   1.015
 6055W        W 9574   9.997   5.934   2.908
 6056W        W 9575   0.899   4.478  10.403
 6057W        W 9576   4.921   4.152   9.550
 6058W        W 9577   3.281   8.876   1.743
 6059W        W 9578   0.369   8.135   1.208
 6060W        W 9579   2.194   5.868   1.490
 6061W        W 9580   1.063   1.510   9.430
 6062W        W 9581   1.438   2.160   8.622
 6063W        W 9582   4.437   8.726   9.406
 6064W        W 9583   5.532   3.103   3.943
 6065W        W 9584   0.862   8.756   9.652
 6066W        W 9585   0.801   8.261   9.777
 6067W        W 9586   8.801   9.045  11.678
 6068W        W 9587   0.487   3.664   3.055
 6069W        W 9588   4.831   3.869   4.001
 6070W        W 9589   5.685   2.444   8.633
 6071W        W 9590   0.519   9.812   0.466
 6072W        W 9591   2.384   1.705   1.614
 6073W        W 9592   6.548   5.624   8.773
 6074W        W 9593   0.019   4.357   2.155
 6075W        W 9594   0.315   8.137   9.711
 6076W        W 9595   6.936   3.143   1.935
 6077W        W 9596   3.070   7.930   9.912
 6078W        W 9597   8.021   0.911   0.360
 6079W        W 9598   7.116   0.239  10.193
 6080W        W 9599   5.465   3.651   2.695
 6081W        W 9600   7.942   2.833   0.733
 6082W        W 9601   2.293   6.356   9.615
 6083W        W 9602   6.756   3.043   9.829
 6084W        W 9603   5.740   3.201   1.560
 6085W        W 9604   0.537   4.318   2.169
 6086W        W 9605   6.534   7.284  10.260
 6087W        W 9606   0.196   5.056   9.621
 6088W        W 9607   9.807   2.611   0.187
 6089W        W 9608   3.688   4.940   9.687
 6090W        W 9609   7.773   2.720   1.600
 6091W        W 9610   3.358   7.737   3.333
 6092W        W 9611   9.089   1.363   1.780
 6093W        W 9612   7.964   7.382   2.172
 6094W        W 9613   9.295   1.082   9.842
 6095W        W 9614   7.966   1.849  10.751
 6096W        W 9615   5.276   2.899   9.334
 6097W        W 9616   3.153   0.396   1.891
 6098W        W 9617   1.522   0.882   3.239
 6099W        W 9618   1.339   9.363   3.137
 6100W        W 9619   4.953   3.660   2.719
 6101W        W 9620   5.724   9.849   0.109
 6102W        W 9621   1.366   1.903   2.119
 6103W        W 9622   6.701   5.406  10.001
 6104W        W 9623   3.597   1.895   3.335
 6105W        W 9624   9.778   5.154   8.662
 6106W        W 9625   2.309   1.999   3.108
 6107W        W 9626   6.629   7.526   2.150
 6108W        W 9627   2.120   8.217  11.145
 6109W        W 9628   6.015   5.908  11.211
 6110W        W 9629   8.073   8.915  11.807
 6111W        W 9630   2.775   9.832   1.788
 6112W        W 9631   0.082   7.346   9.361
 6113W        W 9632   1.841   8.504   8.727
 6114W        W 9633   3.558   1.422   1.642
 6115W        W 9634   0.228   3.813   0.288
 6116W        W 9635   2.529   4.213   3.127
 6117W        W 9636   4.966   4.475   8.492
 6118W        W 9637   1.823   6.660   1.338
 6119W        W 9638   1.487   1.326   0.284
 6120W        W 9639   8.124   2.357   1.385
 6121W        W 9640   6.113   9.035   8.956
 6122W        W 9641   6.755   3.692   1.884
 6123W        W 9642   3.783   5.448   0.677
 6124W        W 9643   4.985   9.659  10.161
 6125W        W 9644   1.506   6.231  10.582
 6126W        W 9645   4.443   8.097   3.183
 6127W        W 9646   0.441   5.093  11.062
 6128W        W 9647   7.891   0.026   3.716
 6129W        W 9648   6.939   3.629  11.523
 6130W        W 9649   6.293   4.137  11.995
 6131W        W 9650   8.026   4.329   1.027
 6132W        W 9651   5.963   1.303  11.280
 6133W        W 9652   4.822   6.377   2.807
 6134W        W 9653   5.669   8.860   1.477
 6135W        W 9654   0.432   6.627   0.378
 6136W        W 9655   1.171   6.529   2.316
 6137W        W 9656   9.552   1.953   2.359
 6138W        W 9657   7.350   6.114   0.646
 6139W        W 9658   4.013   1.060  10.559
 6140W        W 9659   0.763   5.697   9.538
 6141W        W 9660   9.937   2.037   3.163
 6142W        W 9661   0.572   5.195   9.280
 6143W        W 9662   1.738   3.256  11.836
 6144W        W 9663   5.164   5.671   9.352
 6145W        W 9664   6.039   3.660   3.594
 6146W        W 9665   8.794   5.341   3.044
 6147W        W 9666   1.878   4.533   0.431
 6148W        W 9667   2.519   8.734  11.822
 6149W        W 9668   6.512   0.219   3.080
 6150W        W 9669   7.352   3.630  10.494
 6151W        W 9670   9.395   2.723   3.256
 6152W        W 9671   8.911   3.508  10.948
 6153W        W 9672   1.723   8.120  11.504
 6154W        W 9673   7.539   0.339   2.860
 6155W        W 9674   6.501   8.732   9.149
 6156W        W 9675   1.058   9.066   1.224
 6157W        W 9676   9.819   4.298   8.794
 6158W        W 9677   8.023   6.713  11.339
 6159W        W 9678   0.404   5.013  11.817
 6160W        W 9679   1.877   4.721   2.200
 6161W        W 9680   9.955   2.786   8.778
 6162W        W 9681   0.513   0.879  10.483
 6163W        W 9682   4.462   9.765   1.997
 6164W        W 9683   6.230   1.359  10.282
 6165W        W 9684   9.320   2.673   0.027
 6166W        W 9685   1.059   9.874  11.522
 6167W        W 9686   6.479   0.353   1.611
 6168W        W 9687   6.394   5.156  10.371
 6169W        W 9688   9.535   3.564   2.700
 6170W        W 9689   6.439   2.924   3.016
 6171W        W 9690   7.010   1.142   0.746
 6172W        W 9691   6.660   6.077  10.669
 6173W        W 9692   3.062   4.682   2.893
 6174W        W 9693   2.667   9.917   0.250
 6175W        W 9694   1.992   7.814   0.973
 6176W        W 9695   1.230   9.968  11.047
 6177W        W 9696   9.353   7.434   0.774
 6178W        W 9697   3.341   0.788   2.672
 6179W        W 9698   1.853   1.081   1.692
 6180W        W 9699   7.084   3.230  10.216
 6181W        W 9700   8.964   2.649  11.249
 6182W        W 9701   4.387   0.348   1.432
 6183W        W 9702   7.037   4.146  10.351
 6184W        W 9703   5.070   8.375   2.429
 6185W        W 9704   3.433   7.426   1.675
 6186W        W 9705   0.384   6.890  10.887
 6187W        W 9706   4.955   7.311   1.882
 6188W        W 9707   1.740   6.114   9.341
 6189W        W 9708   3.188   6.279   8.260
 6190W        W 9709   0.470   0.924  10.990
 6191W        W 9710   1.978   1.672  11.114
 6192W        W 9711   9.585   9.465   2.270
 6193W        W 9712   9.611   9.412   9.176
 6194W        W 9713   9.269   3.025  11.523
 6195W        W 9714   7.276   5.071   1.889
 6196W        W 9715   3.529   3.566  10.292
 6197W        W 9716   0.743   2.197   1.017
 6198W        W 9717   8.882   5.156   2.106
 6199W        W 9718   7.580   7.255  10.833
 6200W        W 9719   3.379   5.549   4.101
 6201W        W 9720   8.742   5.319   8.991
 6202W        W 9721   4.657   6.391  11.842
 6203W        W 9722   2.045   5.063   1.277
 6204W        W 9723   4.656   9.748   8.889
 6205W        W 9724   7.152   3.827   2.681
 6206W        W 9725   4.629   0.631   9.307
 6207W        W 9726   1.304   1.066  11.899
 6208W        W 9727   7.389   0.610   8.601
 6209W        W 9728   1.919   1.297   9.945
 6210W        W 9729   8.516   9.305  10.911
 6211W        W 9730   2.268   1.757  10.471
 6212W        W 9731   8.521   7.124   9.245
 6213W        W 9732   8.489   3.630  10.697
 6214W        W 9733   2.226   9.410   8.986
 6215W        W 9734   2.618   2.491   1.333
 6216W        W 9735   1.674   3.726   3.214
 6217W        W 9736   4.703   7.800   2.840
 6218W        W 9737   5.159   7.970   1.582
 6219W        W 9738   3.380   3.079  11.725
 6220W        W 9739   5.645   0.993   2.563
 6221W        W 9740   3.716   7.839   2.978
 6222W        W 9741   1.790   6.189   2.245
 6223W        W 9742   7.719   2.124  11.117
 6224W        W 9743   4.597   0.091   9.322
 6225W        W 9744   3.630   3.443  11.330
 6226W        W 9745   8.412   8.021   3.437
 6227W        W 9746   1.497   7.887   3.148
 6228W        W 9747   3.483   7.042   9.080
 6229W        W 9748   0.874   0.333   1.423
 6230W        W 9749   5.814   5.061   9.666
 6231W        W 9750   7.985   8.797   9.061
 6232W        W 9751   4.923   3.965   8.378
 6233W        W 9752   6.349   7.395   9.079
 6234W        W 9753   3.053   2.363   1.568
 6235W        W 9754   7.202   1.482   0.131
 6236W        W 9755   2.899   6.554   1.824
 6237W        W 9756   7.963   0.635   2.789
 6238W        W 9757   4.682   5.658   3.836
 6239W        W 9758   2.450   3.015   1.443
 6240W        W 9759   5.434   3.970   2.018
 6241W        W 9760   8.537   7.453  10.264
 6242W        W 9761   7.601   7.732   3.232
 6243W        W 9762   2.647   6.037   3.097
 6244W        W 9763   4.630   0.881   9.781
 6245W        W 9764   5.255   9.800  11.837
 6246W        W 9765   0.362   6.973   9.210
 6247W        W 9766   6.571   3.708   1.318
 6248W        W 9767   6.211   5.105   3.381
 6249W        W 9768   6.574   4.030  10.176
 6250W        W 9769   5.679   8.894   2.393
 6251W        W 9770   0.704   1.752   0.776
 6252W        W 9771   2.497   0.442  10.775
 6253W        W 9772   4.877   3.276   1.007
 6254W        W 9773   0.883   4.864  10.059
 6255W        W 9774   3.128   8.442   1.521
 6256W        W 9775   0.831   3.116   9.170
 6257W        W 9776   6.150   4.489   2.127
 6258W        W 9777   5.689   0.885   8.600
 6259W        W 9778   9.396   4.381   9.856
 6260W        W 9779   1.900   0.908   3.636
 6261W        W 9780   4.630   8.830   3.567
 6262W        W 9781   9.956   8.462   0.012
 6263W        W 9782   7.613   5.808  11.521
 6264W        W 9783   2.507   1.628   0.612
 6265W        W 9784   6.978   2.881   9.384
 6266W        W 9785   9.459   8.742   3.286
 6267W        W 9786   9.934   4.316   2.693
 6268W        W 9787   0.949   8.306   3.601
 6269W        W 9788   0.471   5.723   9.991
 6270W        W 9789   4.810   7.264   9.660
 6271W        W 9790   9.399   1.389   3.287
 6272W        W 9791   2.529   4.194  10.915
 6273W        W 9792   9.471   6.070   3.048
 6274W        W 9793   4.138   2.287   9.778
 6275W        W 9794   3.514   5.058  11.940
 6276W        W 9795   3.136   6.583   2.640
 6277W        W 9796   3.550   6.109   4.018
 6278W        W 9797   0.396   8.629   9.807
 6279W        W 9798   3.131   9.397  11.518
 6280W        W 9799   4.677   3.770   3.146
 6281W        W 9800   9.201   9.445   1.393
 6282W        W 9801   8.303   1.015  10.710
 6283W        W 9802   0.347   8.683  11.699
 6284W        W 9803   3.285   6.114  10.540
 6285W        W 9804   4.090   5.105   2.058
 6286W        W 9805   7.372   5.933  11.071
 6287W        W 9806   7.858   2.811   0.191
 6288W        W 9807   7.175   9.124   1.906
 6289W        W 9808   1.861   6.944  10.825
 6290W        W 9809   4.188   1.911  10.448
 6291W        W 9810   6.470   3.183   0.312
 6292W        W 9811   8.153   9.928   0.599
 6293W        W 9812   1.745   0.873   0.345
 6294W        W 9813   9.466   1.050   1.931
 6295W        W 9814   5.497   9.601   9.260
 6296W        W 9815   4.485   7.534  10.547
 6297W        W 9816   0.441   7.895   1.963
 6298W        W 9817   5.967   6.170   2.025
 6299W        W 9818   6.563   0.713   2.934
 6300W        W 9819   2.251   9.847  10.491
 6301W        W 9820   3.148   5.536  11.266
 6302W        W 9821   7.640   2.200   9.482
 6303W        W 9822   9.574   4.143   1.951
 6304W        W 9823   2.970   8.386   8.596
 6305W        W 9824   7.164   3.549   8.513
 6306W        W 9825   8.400   5.223   1.342
 6307W        W 9826   8.137   9.740   8.924
 6308W        W 9827   1.405   3.238   1.129
 6309W        W 9828   5.621   7.457   9.367
 6310W        W 9829   7.780   3.305   0.295
 6311W        W 9830   3.174   4.068  11.950
 6312W        W 9831   6.347   5.008   2.041
 6313W        W 9832   8.248   9.284   1.237
 6314W        W 9833   8.259   8.897   9.480
 6315W        W 9834   9.822   1.243   2.554
 6316W        W 9835   7.241   3.153   9.725
 6317W        W 9836   7.981   1.006   3.125
 6318W        W 9837   1.828   9.534  11.596
 6319W        W 9838   2.097   8.303   9.894
 6320W        W 9839   4.987   4.013   9.061
 6321W        W 9840   4.245   1.595   0.734
 6322W        W 9841   2.621   5.161  11.750
 6323W        W 9842   1.678   2.159   0.532
 6324W        W 9843   0.843   4.678   1.895
 6325W        W 9844   7.385   9.488   8.508
 6326W        W 9845   9.371   1.610  10.455
 6327W        W 9846   8.251   0.499   1.280
 6328W        W 9847   1.184   2.599  11.880
 6329W        W 9848   9.001   1.898   9.336
 6330W        W 9849   1.659   2.384   3.530
 6331W        W 9850   2.699   3.484  10.214
 6332W        W 9851   3.463   5.880   1.984
 6333W        W 9852   8.937   7.788  10.253
 6334W        W 9853   6.089   2.119   8.462
 6335W        W 9854   7.266   1.830  11.090
 6336W        W 9855   6.894   9.618   2.638
 6337W        W 9856   5.565   8.394  10.858
 6338W        W 9857   2.932   1.294   0.488
 6339W        W 9858   5.153   9.687  10.941
 6340W        W 9859   0.307   8.543   8.565
 6341W        W 9860   4.336   9.719   2.712
 6342W        W 9861   3.548   9.678   2.276
 6343W        W 9862   0.194   3.849  11.421
 6344W        W 9863   8.837   7.001   2.113
 6345W        W 9864   4.210   1.212   9.795
 6346W        W 9865   7.357   6.701   3.447
 6347W        W 9866   1.300   1.884   0.333
 6348W        W 9867   6.546   9.548   9.965
 6349W        W 9868   4.940   2.206   9.943
 6350W        W 9869   4.963   6.091   9.052
 6351W        W 9870   7.421   0.495   1.116
 6352W        W 9871   8.838   0.744   3.280
 6353W        W 9872   8.076   6.648   1.676
 6354W        W 9873   1.366   9.263   9.214
 6355W        W 9874   1.728   5.759  10.419
 6356W        W 9875   6.896   6.118   3.218
 6357W        W 9876   3.050   5.227   8.532
 6358W        W 9877   6.417   3.247  10.955
 6359W        W 9878   5.501   0.253  10.401
 6360W        W 9879   1.271   3.215   2.605
 6361W        W 9880   5.123   2.010   0.664
 6362W        W 9881   3.211   6.825   0.330
 6363W        W 9882   1.800   3.722   1.800
 6364W        W 9883   0.386   5.683   1.186
 6365W        W 9884   4.504   0.997  10.298
 6366W        W 9885   7.346   5.222   0.646
 6367W        W 9886   1.058   3.615   1.053
 6368W        W 9887   3.471   8.488   0.829
 6369W        W 9888   4.349   2.517   3.505
 6370W        W 9889   2.299   0.758  10.136
 6371W        W 9890   3.094   8.031  10.558
 6372W        W 9891   9.833   8.629   0.483
 6373W        W 9892   2.852   6.714  11.902
 6374W        W 9893   6.102   0.550   9.901
 6375W        W 9894   8.773   0.898  10.875
 6376W        W 9895   8.060   2.497   1.965
 6377W        W 9896   2.544   0.141  11.791
 6378W        W 9897   9.779   2.579   1.230
 6379W        W 9898   2.883   6.890   0.747
 6380W        W 9899   2.081   1.542   3.044
 6381W        W 9900   8.990   3.434   9.656
 6382W        W 9901   0.697   6.443   3.446
 6383W        W 9902   5.963   9.188   0.759
 6384W        W 9903   6.427   9.396  10.884
 6385W        W 9904   5.278   3.971   3.744
 6386W        W 9905   0.022   2.268   8.881
 6387W        W 9906   4.003   8.282   2.962
 6388W        W 9907   0.265   6.743   2.600
 6389W        W 9908   2.174   5.336   0.172
 6390W        W 9909   4.851   6.678  11.468
 6391W        W 9910   0.004   1.361   1.336
 6392W        W 9911   7.989   3.340   0.771
 6393W        W 9912   5.463   1.234  10.122
 6394W        W 9913   8.383   5.971  10.645
 6395W        W 9914   8.573   5.009  11.351
 6396W        W 9915   7.022   6.403  10.437
 6397W        W 9916   8.098   7.709   0.843
 6398W        W 9917   4.797   4.635  11.966
 6399W        W 9918   4.037   1.313   9.333
 6400W        W 9919   7.379   2.431   1.712
 6401W        W 9920   2.489   7.918   0.799
 6402W        W 9921   5.105   2.412   9.369
 6403W        W 9922   8.041   0.872   9.367
 6404W        W 9923   7.218   0.783  11.131
 6405W        W 9924   1.698   0.606   2.809
 6406W        W 9925   0.826   1.740   3.425
 6407W        W 9926   6.580   8.592  11.832
 6408W        W 9927   9.324   8.964   9.387
 6409W        W 9928   3.050   0.176  11.983
 6410W        W 9929   1.584   6.550   1.943
 6411W        W 9930   7.556   1.608   9.532
 6412W        W 9931   1.094   5.075   2.721
 6413W        W 9932   8.640   6.668   0.626
 6414W        W 9933   2.309   2.767  10.446
 6415W        W 9934   9.150   2.921  10.377
 6416W        W 9935   0.972   6.855   1.376
 6417W        W 9936   5.767   0.847  11.402
 6418W        W 9937   3.983   0.806   0.894
 6419W        W 9938   7.374   8.853   2.278
 6420W        W 9939   3.206   9.351   0.019
 6421W        W 9940   1.623   6.305  11.700
 6422W        W 9941   3.072   3.681   9.399
 6423W        W 9942   6.905   6.686  10.997
 6424W        W 9943   2.388   2.491   0.066
 6425W        W 9944   9.806   4.631   9.199
 6426W        W 9945   2.458   8.667  10.039
 6427W        W 9946   4.487   4.363   0.294
 6428W        W 9947   1.380   3.683   2.820
 6429W        W 9948   9.360   2.081  11.173
 6430W        W 9949   5.983   2.948   0.262
 6431W        W 9950   5.662   5.841  10.811
 6432W        W 9951   0.776   3.181  10.962
 6433W        W 9952   2.797   9.661   0.683
 6434W        W 9953   8.400   4.326   8.837
 6435W        W 9954   7.664   6.028  10.365
 6436W        W 9955   0.769   8.619  10.164
 6437W        W 9956   3.204   2.642   2.788
 6438W        W 9957   9.439   0.123  11.438
 6439W        W 9958   2.722   9.416   0.214
 6440W        W 9959   8.210   1.731   8.986
 6441W        W 9960   5.911   3.169  11.002
 6442W        W 9961   9.501   5.803   0.201
 6443W        W 9962   9.986   0.372   3.093
 6444W        W 9963   7.618   1.875   2.486
 6445W        W 9964   8.150   3.202  11.926
 6446W        W 9965   1.644   8.407   9.636
 6447W        W 9966   7.991   1.575   9.850
 6448W        W 9967   1.229   5.794  10.430
 6449W        W 9968   8.483   5.531  10.181
 6450W        W 9969   8.321   5.834  11.703
 6451W        W 9970   9.690   2.358  10.396
 6452W        W 9971   4.786   0.114   3.195
 6453W        W 9972   8.625   5.600   2.034
 6454W        W 9973   8.895   0.456   2.304
 6455W        W 9974   2.859   1.902   1.365
 6456W        W 9975   1.972   3.200   0.350
 6457W        W 9976   3.306   7.450   9.688
 6458W        W 9977   2.084   2.893  11.966
 6459W        W 9978   3.931   4.206   8.162
 6460W        W 9979   5.663   2.044   3.407
 6461W        W 9980   9.559   3.123  10.146
 6462W        W 9981   8.772   1.330  11.635
 6463W        W 9982   0.402   6.206   1.204
 6464W        W 9983   1.289   7.530   0.484
 6465W        W 9984   0.976   6.229  10.476
 6466W        W 9985   8.060   4.500   1.513
 6467W        W 9986   2.416   1.209   2.825
 6468W        W 9987   0.944   1.653  11.231
 6469W        W 9988   0.064   8.214   2.760
 6470W        W 9989   1.551   4.957   0.612
 6471W        W 9990   3.463   9.353   2.699
 6472W        W 9991   7.432   2.284   2.745
 6473W        W 9992   1.536   4.319   2.136
 6474W        W 9993   3.504   7.574   1.154
 6475W        W 9994   9.174   5.039   0.196
 6476W        W 9995   6.909   0.940  10.772
 6477W        W 9996   4.332   9.807   9.669
 6478W        W 9997   3.688   1.773  10.870
 6479W        W 9998   0.720   6.720   9.507
 6480W        W 9999   6.490   9.401   9.070
 6481W        W10000   2.604   4.987  10.309
 6482W        W10001   5.736   5.765   1.772
 6483W        W10002   2.800   8.285   9.072
 6484W        W10003   4.177   7.047   0.992
 6485W        W10004   6.582   2.324   1.939
 6486W        W10005   8.301   8.011   9.027
 6487W        W10006   5.947   2.166  11.595
 6488W        W10007   8.326   4.106   2.816
 6489W        W10008   5.174   7.453   1.393
 6490W        W10009   3.076   5.721   2.312
 6491W        W10010   1.827   7.283   3.245
 6492W        W10011   9.348   9.636   1.841
 6493W        W10012   5.209   6.873   1.929
 6494W        W10013   0.138   5.379   0.040
 6495W        W10014   8.551   0.730   0.444
 6496W        W10015   0.081   5.070   1.755
 6497W        W10016   7.844   1.471   8.738
 6498W        W10017   7.147   8.158   0.670
 6499W        W10018   9.221   6.238   1.181
 6500W        W10019   0.506   8.584   3.667
 6501W        W10020   7.910   7.807  10.062
 6502W        W10021   2.335   7.522   9.365
 6503W        W10022   3.121   5.091   9.017
 6504W        W10023   6.073   7.735   9.356
 6505W        W10024   2.868   8.877  11.459
 6506W        W10025   2.930   5.165   0.741
 6507W        W10026   5.101   0.704   0.978
 6508W        W10027   2.305   3.952  11.967
 6509W        W10028   5.594   4.875   0.911
 6510W        W10029   0.929   9.522  10.502
 6511W        W10030   7.511   1.095   3.333
 6512W        W10031   2.309   4.334   9.158
 6513W        W10032   5.073   9.993  10.536
 6514W        W10033   9.860   7.693  10.264
 6515W        W10034   5.844   1.476   0.125
 6516W        W10035   4.926   2.494  10.391
 6517W        W10036   6.041   3.829   9.134
 6518W        W10037   6.877   1.138  11.254
 6519W        W10038   7.600   3.645   0.925
 6520W        W10039   6.042   0.381   2.971
 6521W        W10040   4.208   7.877   0.676
 6522W        W10041   0.002   3.026   1.324
 6523W        W10042   2.646   0.838   9.099
 6524W        W10043   2.658   5.985   2.313
 6525W        W10044   5.675   7.730   0.460
 6526W        W10045   2.593   5.605   0.004
 6527W        W10046   6.118   9.807  10.838
 6528W        W10047   7.438   8.200   3.421
 6529W        W10048   9.383   4.566   8.925
 6530W        W10049   5.482   6.849   2.366
 6531W        W10050   1.520   7.747   8.989
 6532W        W10051   7.640   5.775   8.794
 6533W        W10052   5.496   9.351  11.687
 6534W        W10053   9.406   7.882  10.453
 6535W        W10054   9.024   4.094   0.096
 6536W        W10055   1.643   8.025   8.575
 6537W        W10056   8.057   8.829   1.363
 6538W        W10057   1.428   3.940  11.962
 6539W        W10058   4.765   4.577   8.939
 6540W        W10059   3.028   8.483   9.496
 6541W        W10060   2.760   4.177   9.374
 6542W        W10061   1.421   2.535  10.867
 6543W        W10062   2.248   5.842   9.603
 6544W        W10063   1.802   4.700  11.765
 6545W        W10064   8.106   2.790  11.130
 6546W        W10065   3.865   0.898   0.342
 6547W        W10066   3.657   3.293   3.203
 6548W        W10067   9.655   7.595   9.429
 6549W        W10068   5.547   5.886   3.640
 6550W        W10069   8.544   6.793   9.644
 6551W        W10070   7.687   6.100   8.369
 6552W        W10071   2.156   0.380   0.893
 6553W        W10072   3.143   9.499  11.029
 6554W        W10073   9.772   0.816   2.262
 6555W        W10074   4.479   0.222  11.867
 6556W        W10075   3.621   9.325  11.737
 6557W        W10076   7.394   3.293   1.236
 6558W        W10077   8.479   4.082   3.570
 6559W        W10078   0.101   9.051   9.816
 6560W        W10079   4.385   6.086   8.465
 6561W        W10080   1.774   9.566   9.197
 6562W        W10081   2.672   2.592   9.032
 6563W        W10082   3.624   7.110   0.545
 6564W        W10083   5.330   5.545   2.632
 6565W        W10084   7.721   5.308  11.121
 6566W        W10085   7.512   7.127   2.038
 6567W        W10086   5.007   5.997   2.487
 6568W        W10087   7.153   3.721  11.053
 6569W        W10088   9.884   3.731   1.919
 6570W        W10089   4.613   0.516  10.153
 6571W        W10090   5.629   3.169   2.633
 6572W        W10091   2.723   2.521  10.293
 6573W        W10092   9.649   9.308  11.577
 6574W        W10093   5.373   5.404   3.541
 6575W        W10094   9.635   7.544  11.244
 6576W        W10095   6.775   5.030   1.747
 6577W        W10096   7.656   2.702   2.546
 6578W        W10097   8.819   0.487   9.618
 6579W        W10098   7.476   7.927   1.389
 6580W        W10099   2.442   8.412  10.804
 6581W        W10100   4.755   3.854  10.894
 6582W        W10101   6.421   1.208   0.002
 6583W        W10102   7.181   9.895  11.882
 6584W        W10103   3.549   5.472   8.365
 6585W        W10104   5.180   0.865   0.460
 6586W        W10105   5.074   8.056   8.615
 6587W        W10106   0.744   0.307  11.586
 6588W        W10107   4.807   6.125  10.664
 6589W        W10108   9.731   5.650   3.326
 6590W        W10109   6.001   0.517   1.003
 6591W        W10110   0.306   7.076   2.213
 6592W        W10111   4.619   3.176   0.198
 6593W        W10112   5.054   5.225   2.352
 6594W        W10113   6.295   9.380   3.188
 6595W        W10114   2.609   5.640   1.929
 6596W        W10115   1.226   2.539   1.739
 6597W        W10116   4.203   2.976  11.961
 6598W        W10117   4.746   5.731  11.514
 6599W        W10118   7.553   4.900   3.314
 6600W        W10119   6.752   2.851   1.531
 6601W        W10120   7.513   4.768   2.690
 6602W        W10121   5.450   8.193   0.332
 6603W        W10122   4.027   4.092   9.948
 6604W        W10123   4.471   9.547  10.325
 6605W        W10124   1.831   9.324  10.068
 6606W        W10125   9.573   6.264   1.554
 6607W        W10126   8.897   7.426   9.035
 6608W        W10127   2.609   4.243   1.655
 6609W        W10128   2.706   4.326   2.635
 6610W        W10129   3.339   3.822   1.983
 6611W        W10130   3.988   0.265   3.592
 6612W        W10131   5.370   5.571  11.117
 6613W        W10132   9.146   2.749   2.457
 6614W        W10133   5.613   3.844  11.212
 6615W        W10134   4.843   0.421   2.405
 6616W        W10135   5.741   1.428   1.644
 6617W        W10136   2.759   5.102  10.769
 6618W        W10137   0.320   8.463   0.564
 6619W        W10138   1.915   1.954   1.757
 6620W        W10139   7.292   2.229  11.415
 6621W        W10140   7.040   4.446   0.397
 6622W        W10141   0.747   6.638  11.484
 6623W        W10142   4.477   5.872   9.330
 6624W        W10143   1.433   9.755  11.862
 6625W        W10144   4.891   1.157   1.125
 6626W        W10145   1.636   5.762  11.875
 6627W        W10146   0.557   2.247   9.559
 6628W        W10147   8.547   0.247  10.858
 6629W        W10148   5.574   9.776   3.355
 6630W        W10149   0.800   7.409  10.014
 6631W        W10150   0.743   1.347  10.843
 6632W        W10151   4.186   2.001   0.048
 6633W        W10152   8.267   5.473   3.148
 6634W        W10153   7.354   1.422   2.513
 6635W        W10154   7.291   4.683   2.203
 6636W        W10155   4.577   4.647  10.553
 6637W        W10156   3.990   7.174   2.396
 6638W        W10157   5.369   8.448   1.608
 6639W        W10158   7.949   8.048  10.524
 6640W        W10159   4.119   3.506   8.729
 6641W        W10160   0.861   6.914   9.960
 6642W        W10161   7.886   6.057   0.683
 6643W        W10162   1.752   9.072   3.295
 6644W        W10163   3.835   7.618  10.698
 6645W        W10164   5.253   6.625   9.720
 6646W        W10165   4.990   1.153  10.869
 6647W        W10166   7.069   7.807   2.153
 6648W        W10167   9.987   8.578   9.002
 6649W        W10168   1.683   3.387   3.590
 6650W        W10169   3.860   7.506   3.355
 6651W        W10170   6.997   8.620   8.921
 6652W        W10171   5.966   8.166  11.756
 6653W        W10172   5.850   4.235   2.919
 6654W        W10173   4.937   5.177   0.938
 6655W        W10174   0.306   3.780   9.392
 6656W        W10175   5.071   8.564   0.233
 6657W        W10176   0.541   7.657  11.352
 6658W        W10177   4.534   9.332   0.202
 6659W        W10178   1.371   7.131  10.824
 6660W        W10179   2.411   9.693   8.592
 6661W        W10180   4.684   1.885   0.916
 6662W        W10181   5.933   3.436   0.290
 6663W        W10182   4.518   4.313   8.282
 6664W        W10183   5.525   0.970   9.663
 6665W        W10184   8.298   6.200   1.644
 6666W        W10185   8.424   3.703   1.346
 6667W        W10186   1.642   6.652   2.463
 6668W        W10187   0.295   2.230   0.778
 6669W        W10188   4.782   5.470  10.950
 6670W        W10189   1.207   0.740   2.868
 6671W        W10190   9.217   9.229   2.538
 6672W        W10191   6.808   2.199   1.494
 6673W        W10192   1.683   8.058   0.072
 6674W        W10193   5.931   3.623   1.272
 6675W        W10194   2.068   7.970  10.694
 6676W        W10195   1.786   1.200   1.205
 6677W        W10196   8.140   8.380   0.402
 6678W        W10197   0.624   5.284   3.436
 6679W        W10198   2.200   5.519   1.100
 6680W        W10199   6.251   4.097  11.136
 6681W        W10200   5.816   7.152   2.623
 6682W        W10201   0.416   0.451   2.392
 6683W        W10202   1.131   8.985  10.039
 6684W        W10203   3.367   9.734   1.186
 6685W        W10204   6.673   0.867   3.430
 6686W        W10205   4.085   9.801  10.114
 6687W        W10206   4.567   6.068  10.234
 6688W        W10207   0.547   7.967   3.596
 6689W        W10208   2.595   4.479  10.311
 6690W        W10209   6.151   5.684   2.052
 6691W        W10210   6.168   2.628   8.527
 6692W        W10211   3.577   4.863  10.679
 6693W        W10212   0.976   7.961   3.193
 6694W        W10213   7.854   5.574   2.818
 6695W        W10214   3.653   6.830   0.087
 6696W        W10215   2.903   1.385   9.781
 6697W        W10216   7.234   4.790   0.933
 6698W        W10217   6.701   1.712   9.542
 6699W        W10218   7.076   3.161   0.438
 6700W        W10219   6.487   6.951   9.264
 6701W        W10220   6.964   0.339  11.820
 6702W        W10221   7.645   6.033   2.832
 6703W        W10222   0.208   0.557  10.230
 6704W        W10223   3.516   4.050  10.098
 6705ION    NA+10224   4.457   0.494  10.994
 6706ION    NA+10225   7.915   4.171   8.838
 6707ION    NA+10226   6.255   8.437   0.703
 6708ION    NA+10227   3.354   1.629   1.218
 6709ION    NA+10228   3.875   6.167   1.838
 6710ION    NA+10229   2.260   5.749  10.455
 6711ION    NA+10230   4.515   6.574  10.386
 6712ION    NA+10231   6.641   5.087  11.698
 6713ION    NA+10232   9.561   3.108   8.593
 6714ION    NA+10233   4.620   8.678   9.904
 6715ION    NA+10234   6.207   3.640   9.594
 6716ION    NA+10235   4.697   7.864   0.787
 6717ION    NA+10236   7.895   5.597  11.916
 6718ION    NA+10237   0.856   3.146  11.945
 6719ION    NA+10238   0.075   9.888   3.178
 6720ION    NA+10239   7.563   8.952  11.747
 6721ION    NA+10240   1.664   7.052   9.514
 6722ION    NA+10241   4.031   2.376  10.301
 6723ION    NA+10242   3.811   0.184   8.907
 6724ION    NA+10243   3.875   8.466   9.526
 6725ION    NA+10244   6.960   1.201   9.011
 6726ION    NA+10245   3.594   5.515  10.993
 6727ION    NA+10246   7.460   4.080   9.605
 6728ION    NA+10247   5.302   9.258  10.122
 6729ION    NA+10248   6.910   9.572  10.704
 6730ION    NA+10249   3.133   0.916   8.971
 6731ION    NA+10250   0.223   5.396  11.505
 6732ION    NA+10251   9.317   3.408   1.282
 6733ION    NA+10252   7.967   1.350   3.502
 6734ION    NA+10253   2.624   5.047   8.835
 6735ION    NA+10254   6.393   0.886   1.688
 6736ION    NA+10255   8.675   1.401  10.780
 6737ION    NA+10256   5.240   8.845   2.629
 6738ION    NA+10257   1.772   4.595   1.725
 6739ION    NA+10258   7.331   9.384   2.781
 6740ION    NA+10259   1.810   9.816   0.427
 6741ION    NA+10260   7.898   7.892   2.210
 6742ION    NA+10261   2.783   6.794   2.298
 6743ION    NA+10262   1.551   6.513   0.919
 6744ION    NA+10263   1.327   8.624   1.126
 6745ION    NA+10264   2.135   5.896  11.998
 6746ION    NA+10265   8.172   4.719   2.004
 6747ION    NA+10266   8.913   9.003  10.243
 6748ION    NA+10267   8.396   7.991  11.971
 6749ION    NA+10268   8.421   7.952   1.605
 6750ION    NA+10269   6.039   6.683   3.996
 6751ION    NA+10270   4.242   9.502   1.010
 6752ION    NA+10271   0.912   3.251   9.667
 6753ION    NA+10272   1.383   0.513   3.684
 6754ION    NA+10273   4.115   5.515   2.412
 6755ION    NA+10274   8.670   2.745   1.235
 6756ION    NA+10275   6.434   8.413   2.250
 6757ION    NA+10276   7.787   4.832  10.912
 6758ION    NA+10277   4.171   5.267   0.403
 6759ION    NA+10278   0.619   4.925   0.293
 6760ION    NA+10279   1.829   0.125   3.071
 6761ION    NA+10280   3.828   4.979  10.181
 6762ION    NA+10281   9.682   7.886   2.989
 6763ION    NA+10282   5.057   5.818   3.461
 6764ION    NA+10283   3.623   9.578   0.224
 6765ION    NA+10284   0.264   0.433   8.617
 6766ION    NA+10285   8.712   7.944   2.391
 6767ION    NA+10286   3.848   6.299   9.166
 6768ION    NA+10287   4.311   0.328   9.760
 6769ION    NA+10288   8.042   7.843   9.576
 6770ION    NA+10289   2.691   1.810   2.449
 6771ION    NA+10290   3.009   2.780  11.572
 6772ION    NA+10291   7.605   2.568  10.409
 6773ION    NA+10292   2.075   5.711   8.924
 6774ION    NA+10293   5.281   4.541   1.553
 6775ION    NA+10294   6.533   7.023   9.801
 6776ION    CL-10295   8.578   4.710   2.192
 6777ION    CL-10296   0.188   1.212   2.919
 6778ION    CL-10297   5.156   8.818   1.299
 6779ION    CL-10298   6.094   0.547  11.158
 6780ION    CL-10299   4.954   4.583   3.041
 6781ION    CL-10300   6.138   3.839   9.986
 6782ION    CL-10301   1.127   3.638   9.722
 6783ION    CL-10302   2.370   5.378   9.037
 6784ION    CL-10303   3.939   5.847   2.154
 6785ION    CL-10304   1.769   1.853   3.367
 6786ION    CL-10305   6.453   8.560   0.325
 6787ION    CL-10306   4.282   8.385   9.747
 6788ION    CL-10307   4.533   1.507   9.526
 6789ION    CL-10308   2.701   5.334   2.331
 6790ION    CL-10309   0.911   4.695   0.041
 6791ION    CL-10310   7.041   1.020   8.583
 6792ION    CL-10311   7.775   4.096   9.270
 6793ION    CL-10312   4.643   7.715   0.368
 6794ION    CL-10313   2.114   8.526  11.558
 6795ION    CL-10314   4.135   6.664  10.603
 6796ION    CL-10315   2.186   9.135   2.086
 6797ION    CL-10316   7.726   9.190   0.090
 6798ION    CL-10317   9.206   2.684   9.489
 6799ION    CL-10318   5.036   4.269   1.282
 6800ION    CL-10319   1.409   9.983   0.332
 6801ION    CL-10320   8.999   3.061   1.255
 6802ION    CL-10321   3.301   3.739   3.539
 6803ION    CL-10322   5.696   7.263   2.135
 6804ION    CL-10323   3.199   4.943   0.366
 6805ION    CL-10324   0.229   0.583   0.909
 6806ION    CL-10325   6.245   2.428   2.324
 6807ION    CL-10326   4.909   5.140   8.766
 6808ION    CL-10327   9.072   1.250  10.647
 6809ION    CL-10328   7.527   4.323   0.271
 6810ION    CL-10329   7.785   5.178  10.631
 6811ION    CL-10330   5.600   6.691   0.187
 6812ION    CL-10331   0.994   8.718   0.833
 6813ION    CL-10332   0.818   8.337   2.302
 6814ION    CL-10333   6.630   1.505   9.087
 6815ION    CL-10334   1.301   4.551  10.099
 6816ION    CL-10335   0.079   7.718   2.853
 6817ION    CL-10336   4.317   4.708  11.018
 6818ION    CL-10337   4.384   0.060  11.061
 6819ION    CL-10338   3.500   8.712   9.441
 6820ION    CL-10339   3.139   7.312   0.374
 6821ION    CL-10340   2.021   5.982  11.573
 6822ION    CL-10341   2.417   1.466   2.355
 6823ION    CL-10342   5.498   4.884   1.760
 6824ION    CL-10343   8.346   7.931   2.072
 6825ION    CL-10344   7.076   4.151   9.835
 6826ION    CL-10345   9.896   0.696   8.750
 6827ION    CL-10346   5.163   8.685   3.047
 6828ION    CL-10347   5.760   3.188   1.052
 6829ION    CL-10348   6.712   3.394   3.197
 6830ION    CL-10349   7.511   9.860   0.800
 6831ION    CL-10350   8.924   9.303  10.571
 6832ION    CL-10351   8.461   9.218   3.559
 6833ION    CL-10352   3.732   6.679   9.374
 6834ION    CL-10353   0.078   3.686   2.731
 6835ION    CL-10354   6.366   7.885   8.948
 6836ION    CL-10355   4.573   3.335   9.769
 6837ION    CL-10356   4.948   8.990  10.018
 6838ION    CL-10357   5.575   0.217   3.079
 6839ION    CL-10358   5.771   3.605   3.153
 6840ION    CL-10359   5.078   7.592   9.380
 6841ION    CL-10360   9.586   5.768   9.144
 6842ION    CL-10361   9.818   2.516   3.031
 6843ION    CL-10362   2.668   4.700  11.554
 6844ION    CL-10363   7.758   2.566  10.825
 6845ION    CL-10364   1.673   8.541   1.413
 6846ION    CL-10365   9.610   3.714   1.459
  10.00000  10.00000  12.00000
