Protein in INSANE! Membrane UpperLeaflet>POPC=1.0 LowerLeaflet>POPC=1.0
12676
    1AU     AUC    1   4.753   6.716   7.056 -0.0018  0.0761  0.0410
    1AU     AUC    2   4.445   6.673   7.095 -0.0445  0.0568 -0.1203
    1AU     AUC    3   4.573   6.746   6.827  0.0086  0.0142 -0.1098
    1AU     AUC    4   4.918   6.660   7.286  0.0288  0.0395  0.0589
    1AU     AUC    5   5.044   6.768   7.031  0.0259 -0.0772 -0.0063
    1AU     AUC    6   4.864   6.954   7.188 -0.0697 -0.1032  0.0287
    1AU     AUC    7   4.564   6.956   7.087  0.0592 -0.1062 -0.0207
    1AU     AUC    8   4.900   6.463   7.047  0.0088 -0.0182  0.0043
    1AU     AUC    9   4.642   6.474   6.907 -0.0033  0.0196 -0.0692
    1AU     AUC   10   4.852   6.642   6.774 -0.0750  0.0087 -0.1320
    1AU     AUC   11   4.828   6.947   6.885  0.0554  0.0552 -0.0410
    1AU     AUC   12   4.652   6.483   7.243 -0.0634  0.0631  0.0619
    1AU     AUC   13   4.635   6.765   7.327  0.0074 -0.0342 -0.1685
    1AU     AUC   14   4.151   6.631   7.141  0.0764  0.0518 -0.0504
    1AU     AUC   15   4.255   6.719   6.865  0.0087 -0.0457  0.0614
    1AU     AUC   16   4.391   6.817   6.603  0.0116  0.0270 -0.0570
    1AU     AUC   17   5.104   6.586   7.516  0.0357 -0.0618 -0.0302
    1AU     AUC   18   5.214   6.708   7.246  0.0174 -0.0484  0.0322
    1AU     AUC   19   5.321   6.833   6.993  0.0973 -0.0591  0.0549
    1AU     AUC   20   4.973   7.214   7.323 -0.0795 -0.0053  0.0991
    1AU     AUC   21   4.680   7.214   7.204  0.0241  0.0582 -0.1138
    1AU     AUC   22   4.419   7.213   7.085 -0.0137  0.0278 -0.0279
    1AU     AUC   23   5.086   6.209   7.004 -0.0225 -0.0708  0.0045
    1AU     AUC   24   4.806   6.205   6.921  0.1042 -0.0256 -0.0015
    1AU     AUC   25   4.544   6.224   6.783  0.1100  0.0450  0.1135
    1AU     AUC   26   4.977   6.555   6.517  0.0498 -0.0941 -0.0425
    1AU     AUC   27   4.940   6.858   6.586 -0.0529  0.0178  0.0952
    1AU     AUC   28   4.887   7.149   6.669  0.0899  0.0531 -0.0109
    1AU     AUC   29   4.573   6.262   7.414  0.0002 -0.0056 -0.0455
    1AU     AUC   30   4.546   6.543   7.510  0.0075  0.0059 -0.0401
    1AU     AUC   31   4.522   6.838   7.601  0.0958  0.0415  0.0392
    1AU     AUC   32   4.672   6.690   6.541 -0.0801 -0.0162 -0.0575
    1AU     AUC   33   4.654   6.963   6.620 -0.0159 -0.0910  0.0429
    1AU     AUC   34   4.356   6.446   7.279 -0.0861 -0.0065  0.0018
    1AU     AUC   35   4.311   6.727   7.368 -0.0352 -0.0195 -0.0095
    1AU     AUC   36   5.185   6.687   6.745  0.0464  0.0022 -0.0501
    1AU     AUC   37   5.121   6.993   6.823 -0.0162 -0.0461 -0.0412
    1AU     AUC   38   4.818   6.429   7.495 -0.1099  0.0141  0.0673
    1AU     AUC   39   4.829   6.718   7.586  0.1187 -0.0055 -0.0907
    1AU     AUC   40   4.284   6.920   7.124 -0.0262  0.1004  0.0399
    1AU     AUC   41   4.381   7.000   6.834 -0.0836  0.0337 -0.0594
    1AU     AUC   42   5.052   6.906   7.411  0.0277  0.0043 -0.0207
    1AU     AUC   43   5.147   7.021   7.139  0.0451 -0.0058 -0.0645
    1AU     AUC   44   4.329   6.419   6.946  0.0639  0.1078  0.0715
    1AU     AUC   45   4.445   6.512   6.680 -0.0106  0.0649  0.1220
    1AU     AUC   46   5.085   6.407   7.275 -0.0502  0.0424 -0.0785
    1AU     AUC   47   5.220   6.516   6.994 -0.0572  0.0833  0.0453
    1AU     AUC   48   4.944   7.198   6.990  0.0027 -0.0923 -0.0533
    1AU     AUC   49   4.643   7.196   6.909  0.0645  0.0770  0.0336
    1AU     AUC   50   5.035   6.389   6.774 -0.0098 -0.0545 -0.0404
    1AU     AUC   51   4.763   6.400   6.645  0.0424  0.0028 -0.1041
    1AU     AUC   52   4.754   7.032   7.475 -0.0500  0.0225  0.1518
    1AU     AUC   53   4.461   7.026   7.359  0.0364 -0.0048  0.0924
    1AU     AUC   54   4.829   6.233   7.233 -0.0686 -0.0689  0.0770
    1AU     AUC   55   4.536   6.251   7.083  0.0268  0.0289 -0.0038
    1AU    AUSL   56   4.678   6.853   6.356 -0.0888 -0.1019 -0.0277
    1AU    AUSL   57   4.713   6.440   6.245  0.1288  0.0077 -0.0325
    1AU     AUL   58   4.670   6.658   5.957 -0.0065  0.0603 -0.0164
    1AU       S   59   4.423   6.230   5.990 -0.4338 -0.1203 -0.1114
    1AU     LIG   60   4.314   5.958   5.651 -0.1109  0.0808  0.2615
    1AU     LIG   61   4.322   5.481   5.642  0.1587 -0.3990  0.0906
    1AU     LIG   62   4.528   5.211   5.926  0.0010  0.1732 -0.5943
    1AU     LIG   63   4.543   4.790   6.040  0.2698  0.2045  0.1750
    1AU     LIG   64   4.372   4.491   6.234  0.1859 -0.0705  0.2969
    1AU     LIG   65   4.370   4.112   6.479 -0.2355  0.0738 -0.0903
    1AU       S   66   4.932   7.208   5.952 -0.1199  0.2139 -0.0932
    1AU     LIG   67   4.884   7.591   5.703 -0.0778  0.0575  0.2970
    1AU     LIG   68   4.917   8.081   5.751 -0.0503  0.0632  0.1637
    1AU     LIG   69   5.013   8.247   5.387  0.1638  0.0881 -0.1470
    1AU     LIG   70   5.269   8.278   5.085 -0.2703 -0.2796  0.0811
    1AU     LIG   71   5.610   8.079   4.930 -0.1161 -0.1147  0.3242
    1AU     LIG   72   5.932   7.929   4.766  0.0408 -0.3386  0.1236
    1AU    AUSL   73   5.032   6.693   6.219 -0.0078 -0.0375  0.0345
    1AU    AUSL   74   5.104   7.064   6.374  0.0336  0.0470 -0.0556
    1AU     AUL   75   5.186   6.685   6.031 -0.0355  0.0053 -0.0150
    1AU       S   76   4.931   7.047   5.939  0.2854  0.3112 -0.0227
    1AU     LIG   77   4.927   6.792   5.575  0.2435 -0.0612  0.2832
    1AU     LIG   78   5.028   6.388   5.665  0.1989  0.0864 -0.4040
    1AU     LIG   79   4.843   6.077   5.626  0.1637  0.1434 -0.1062
    1AU     LIG   80   4.709   5.726   5.941 -0.2408 -0.2789 -0.0492
    1AU     LIG   81   4.969   5.396   6.057  0.0311 -0.1489 -0.1236
    1AU     LIG   82   5.186   5.099   6.318  0.0015 -0.1489  0.1212
    1AU       S   83   5.418   7.080   6.111 -0.0270  0.3404  0.2035
    1AU     LIG   84   5.346   7.497   5.927  0.1303  0.2849 -0.0435
    1AU     LIG   85   5.141   7.785   6.070  0.0151  0.3374 -0.7110
    1AU     LIG   86   5.280   7.892   6.417  0.1478  0.0876 -0.3339
    1AU     LIG   87   5.163   8.196   6.750 -0.0841  0.1654 -0.0284
    1AU     LIG   88   5.143   8.518   7.055  0.2907  0.0288 -0.2774
    1AU     LIG   89   5.183   8.695   7.543 -0.0023 -0.2983  0.0423
    1AU    AUSL   90   4.754   7.254   6.368  0.0751  0.0205  0.0486
    1AU    AUSL   91   4.327   7.057   6.438 -0.0643 -0.0538 -0.1262
    1AU     AUL   92   4.506   7.045   6.118 -0.0195 -0.1262  0.1057
    1AU       S   93   4.799   7.415   6.172  0.0561  0.2675  0.1424
    1AU     LIG   94   4.639   7.835   6.217  0.3155 -0.1236  0.3936
    1AU     LIG   95   4.736   8.085   6.466 -0.0360  0.0470 -0.0968
    1AU     LIG   96   4.695   8.374   6.745 -0.1390 -0.0606  0.0947
    1AU     LIG   97   4.738   8.802   6.965 -0.4151 -0.0726  0.2263
    1AU     LIG   98   4.676   9.308   7.144 -0.1170  0.0261  0.3488
    1AU     LIG   99   4.441   9.362   7.535 -0.0226  0.0602  0.4997
    1AU       S  100   4.099   7.114   6.327  0.2784 -0.1799 -0.1526
    1AU     LIG  101   3.684   6.937   6.213 -0.1544 -0.0858  0.0764
    1AU     LIG  102   3.232   6.774   6.293  0.4098 -0.0836  0.2318
    1AU     LIG  103   2.955   6.642   6.537  0.3681  0.3264 -0.0246
    1AU     LIG  104   2.772   6.846   6.809  0.2223 -0.1702 -0.2588
    1AU     LIG  105   2.440   7.147   6.606 -0.2106 -0.0749  0.2769
    1AU     LIG  106   2.020   7.273   6.623 -0.0174  0.2182 -0.0533
    1AU    AUSL  107   4.031   6.592   7.411 -0.0225  0.0257  0.1253
    1AU    AUSL  108   4.170   6.931   7.634 -0.0241 -0.0135  0.0498
    1AU     AUL  109   3.855   6.690   7.715  0.0174 -0.0036  0.0173
    1AU       S  110   3.813   6.246   7.875 -0.1177  0.6881 -0.2348
    1AU     LIG  111   3.365   6.342   7.831 -0.0062 -0.3554  0.1420
    1AU     LIG  112   2.919   6.578   7.650 -0.0456 -0.2511 -0.1007
    1AU     LIG  113   2.934   6.824   7.350  0.1206 -0.0070  0.0038
    1AU     LIG  114   2.733   7.032   7.338  0.2894 -0.0218 -0.1197
    1AU     LIG  115   2.324   7.171   7.250  0.0460  0.0235  0.2085
    1AU     LIG  116   2.093   7.480   7.029 -0.2692  0.0782 -0.1689
    1AU       S  117   3.682   7.153   7.633 -0.2405  0.1554  0.1618
    1AU     LIG  118   3.358   7.267   7.821  0.2066 -0.0646  0.1850
    1AU     LIG  119   3.017   7.525   7.775  0.3390 -0.3756 -0.0406
    1AU     LIG  120   2.618   7.551   7.450 -0.0371 -0.1348 -0.2079
    1AU     LIG  121   2.386   7.784   7.250  0.3783  0.5229  0.1084
    1AU     LIG  122   2.052   8.053   7.190 -0.0291 -0.0829 -0.1686
    1AU     LIG  123   1.764   8.318   7.359  0.0412  0.2288  0.3835
    1AU    AUSL  124   4.214   6.239   7.574 -0.0151  0.0018  0.0889
    1AU    AUSL  125   4.012   6.279   7.156  0.0478  0.0654 -0.0634
    1AU     AUL  126   3.820   6.321   7.421 -0.0143 -0.0567  0.0244
    1AU       S  127   3.915   5.904   7.213 -0.0445  0.0357  0.0239
    1AU     LIG  128   3.599   5.551   7.302 -0.0198 -0.0635  0.2861
    1AU     LIG  129   3.461   5.235   7.169  0.2186 -0.0301  0.2531
    1AU     LIG  130   3.422   4.871   7.369 -0.2109 -0.2425 -0.2568
    1AU     LIG  131   3.395   4.459   7.464  0.1775 -0.2188  0.3898
    1AU     LIG  132   3.247   4.125   7.179 -0.2618  0.4653  0.0946
    1AU     LIG  133   3.367   3.767   6.906 -0.0583  0.2784  0.0857
    1AU       S  134   4.056   6.035   7.784 -0.2145  0.0413 -0.2171
    1AU     LIG  135   3.589   5.852   7.672  0.5859  0.0156 -0.1020
    1AU     LIG  136   3.330   5.942   7.355  0.1152 -0.0647 -0.0859
    1AU     LIG  137   3.120   5.689   7.092  0.1437 -0.0620 -0.0842
    1AU     LIG  138   2.857   5.634   6.797  0.3359 -0.3872  0.0098
    1AU     LIG  139   2.379   5.722   6.813 -0.2483 -0.0558  0.0294
    1AU     LIG  140   2.295   5.940   7.055 -0.0284  0.0162  0.0142
    1AU    AUSL  141   4.410   6.615   7.563 -0.0675 -0.0843 -0.0117
    1AU    AUSL  142   4.563   6.293   7.771 -0.0065  0.0790  0.0545
    1AU     AUL  143   4.206   6.476   7.882  0.0448  0.0383 -0.0003
    1AU       S  144   4.551   6.231   8.073  0.2051 -0.2828 -0.2254
    1AU     LIG  145   4.199   5.979   8.237 -0.0714 -0.1507 -0.1132
    1AU     LIG  146   3.812   5.718   8.133 -0.4432  0.0193 -0.0002
    1AU     LIG  147   3.343   5.515   8.033  0.5346 -0.2411  0.0442
    1AU     LIG  148   2.803   5.398   7.866 -0.0223  0.1572  0.0500
    1AU     LIG  149   2.478   5.719   7.780  0.0387 -0.2014 -0.1191
    1AU     LIG  150   2.397   6.125   7.530 -0.3191 -0.0371 -0.3622
    1AU       S  151   4.140   6.088   7.675 -0.4365  0.5324  0.1284
    1AU     LIG  152   4.452   5.724   7.790 -0.2032 -0.0116 -0.1861
    1AU     LIG  153   4.507   5.287   7.802 -0.1599 -0.0601  0.3932
    1AU     LIG  154   4.794   5.103   7.745  0.1296 -0.2737 -0.1485
    1AU     LIG  155   5.131   4.841   7.685 -0.0819  0.0045  0.0225
    1AU     LIG  156   5.199   4.592   8.072 -0.0431 -0.3585 -0.1381
    1AU     LIG  157   5.271   4.226   8.350  0.2696 -0.2963  0.3324
    1AU    AUSL  158   5.411   6.951   6.654 -0.0445 -0.0912  0.0365
    1AU    AUSL  159   5.182   7.306   6.701 -0.0275 -0.0313 -0.0458
    1AU     AUL  160   5.248   7.371   6.431  0.0494  0.0027  0.0345
    1AU       S  161   5.567   7.080   6.261 -0.3368 -0.0067  0.1835
    1AU     LIG  162   6.086   7.243   6.421  0.0045  0.3245 -0.1355
    1AU     LIG  163   6.434   7.427   6.470  0.5366 -0.2865  0.2322
    1AU     LIG  164   6.814   7.477   6.276  0.2806  0.4379 -0.0121
    1AU     LIG  165   7.252   7.623   6.354 -0.0893  0.0556 -0.0148
    1AU     LIG  166   7.647   7.764   6.525  0.1062  0.5075 -0.0937
    1AU     LIG  167   8.142   7.774   6.552  0.0682 -0.2475 -0.1506
    1AU       S  168   5.660   7.408   6.681 -0.1181 -0.1845  0.2412
    1AU     LIG  169   6.015   7.620   6.697  0.1072 -0.5271  0.1813
    1AU     LIG  170   6.314   7.912   6.750 -0.2053 -0.0908 -0.0745
    1AU     LIG  171   6.578   8.330   6.646  0.2116 -0.0669  0.3506
    1AU     LIG  172   6.870   8.473   6.371  0.0809 -0.2519  0.2766
    1AU     LIG  173   7.464   8.463   6.285  0.1010  0.2599  0.0294
    1AU     LIG  174   7.791   8.197   6.265  0.0333 -0.0876 -0.2014
    1AU    AUSL  175   5.083   6.728   6.618  0.0426  0.0403  0.0597
    1AU    AUSL  176   5.582   6.616   6.816  0.0791  0.0086 -0.0208
    1AU     AUL  177   5.636   6.858   6.667  0.1138  0.0359  0.0154
    1AU       S  178   5.839   6.417   6.689  0.1608  0.3516 -0.4016
    1AU     LIG  179   6.294   6.404   6.710  0.0928  0.2498 -0.1099
    1AU     LIG  180   6.600   6.337   6.944  0.0888 -0.3629  0.0958
    1AU     LIG  181   6.890   6.607   7.184 -0.1594 -0.2152 -0.6518
    1AU     LIG  182   7.175   6.874   7.414 -0.0856  0.3861  0.1825
    1AU     LIG  183   7.413   7.286   7.595 -0.1627  0.0870 -0.0904
    1AU     LIG  184   7.407   7.709   7.555  0.2304 -0.5136  0.1328
    1AU       S  185   5.536   6.890   6.219 -0.0684 -0.0549  0.1241
    1AU     LIG  186   5.682   6.553   5.921 -0.0088  0.3246  0.0732
    1AU     LIG  187   6.070   6.308   5.659 -0.0040  0.0284  0.0010
    1AU     LIG  188   6.458   6.159   5.835  0.3890 -0.1187  0.2262
    1AU     LIG  189   6.573   5.883   6.114 -0.3351 -0.2685  0.2937
    1AU     LIG  190   6.658   5.943   6.499 -0.1310 -0.1483  0.0626
    1AU     LIG  191   7.043   6.027   6.564  0.2587  0.1055 -0.0642
    1AU    AUSL  192   4.898   6.498   7.702 -0.0265 -0.0685 -0.0667
    1AU    AUSL  193   4.812   6.115   7.521  0.0828 -0.0364 -0.0199
    1AU     AUL  194   4.901   6.102   7.882  0.0062 -0.0456  0.0106
    1AU       S  195   4.699   6.389   8.281 -0.0124  0.1252  0.0017
    1AU     LIG  196   5.067   6.124   8.336  0.4067  0.2033 -0.1849
    1AU     LIG  197   5.409   5.946   8.100 -0.2726 -0.3956  0.2872
    1AU     LIG  198   5.870   6.065   7.916  0.1485  0.3817 -0.1638
    1AU     LIG  199   6.218   6.071   7.609 -0.0212 -0.2602  0.0263
    1AU     LIG  200   6.448   5.696   7.517 -0.1519  0.0542 -0.1998
    1AU     LIG  201   6.447   5.320   7.641 -0.0536 -0.0431  0.2231
    1AU       S  202   5.182   5.777   7.710 -0.3133 -0.2929 -0.0324
    1AU     LIG  203   5.198   5.379   7.721 -0.0042 -0.1346  0.0597
    1AU     LIG  204   5.424   5.181   8.027 -0.0324 -0.1497 -0.0971
    1AU     LIG  205   5.724   4.834   8.213 -0.0480 -0.1066 -0.0531
    1AU     LIG  206   5.775   4.403   8.107 -0.1388 -0.0402 -0.0676
    1AU     LIG  207   5.796   4.068   8.375  0.0619 -0.1086  0.0966
    1AU     LIG  208   5.867   3.902   8.729  0.0043 -0.2053 -0.5268
    1AU    AUSL  209   4.590   6.707   7.920  0.0473  0.1450  0.0643
    1AU    AUSL  210   5.128   6.798   7.850  0.0035 -0.0321  0.1149
    1AU     AUL  211   5.036   6.531   8.014  0.0303 -0.0003  0.0350
    1AU       S  212   5.203   6.931   8.235 -0.0605 -0.0072  0.3536
    1AU     LIG  213   5.591   6.952   8.172  0.0760 -0.2041 -0.1914
    1AU     LIG  214   6.065   7.086   8.083 -0.0284 -0.2660 -0.4679
    1AU     LIG  215   6.436   7.124   7.815  0.0151  0.0125 -0.2106
    1AU     LIG  216   6.690   7.139   7.425  0.1810 -0.2992  0.2109
    1AU     LIG  217   7.053   7.266   7.206  0.0910  0.2439 -0.2663
    1AU     LIG  218   7.037   7.711   7.122 -0.0657  0.2146 -0.0227
    1AU       S  219   4.576   6.576   8.108 -0.4042  0.1766  0.0978
    1AU     LIG  220   4.359   6.974   8.169 -0.0734  0.2894  0.3458
    1AU     LIG  221   4.092   7.331   8.155  0.0621  0.0812  0.0111
    1AU     LIG  222   3.706   7.502   8.277 -0.3553 -0.3458 -0.1292
    1AU     LIG  223   3.371   7.769   8.055 -0.2521  0.1979  0.0503
    1AU     LIG  224   3.078   7.998   7.574  0.0264 -0.0699  0.0549
    1AU     LIG  225   2.980   8.432   7.334 -0.0246 -0.2442  0.1511
    1AU    AUSL  226   4.116   7.288   7.037  0.0537 -0.0567 -0.0812
    1AU    AUSL  227   3.970   6.965   7.268  0.0525  0.0773 -0.1120
    1AU     AUL  228   3.890   7.437   7.278 -0.0093 -0.0093  0.0113
    1AU       S  229   3.686   7.032   7.438  0.4651  0.2791  0.1624
    1AU     LIG  230   3.373   7.270   7.237 -0.1208  0.0313  0.1526
    1AU     LIG  231   3.137   7.619   7.193  0.2184 -0.3169 -0.3365
    1AU     LIG  232   2.872   7.976   7.106  0.0871 -0.1106 -0.1775
    1AU     LIG  233   2.581   8.258   7.064 -0.2261  0.1450  0.4312
    1AU     LIG  234   2.248   8.367   6.791 -0.3390 -0.1259 -0.0861
    1AU     LIG  235   2.014   8.684   6.911 -0.0373  0.1215 -0.0735
    1AU       S  236   3.745   7.163   6.925 -0.0661  0.0644  0.1130
    1AU     LIG  237   3.547   7.539   6.881 -0.2906  0.5590 -0.2388
    1AU     LIG  238   3.267   7.909   6.826  0.1134  0.0441  0.1785
    1AU     LIG  239   3.006   8.294   6.760 -0.0592 -0.0247 -0.0197
    1AU     LIG  240   2.771   8.672   6.808  0.2882  0.1500  0.3826
    1AU     LIG  241   2.451   8.975   6.735 -0.0785  0.1881 -0.0246
    1AU     LIG  242   2.285   9.207   6.431  0.0553  0.1452 -0.3944
    1AU    AUSL  243   3.869   6.699   6.988  0.0466  0.0056 -0.0041
    1AU    AUSL  244   4.008   6.678   6.571  0.0594 -0.0279  0.0695
    1AU     AUL  245   3.661   6.603   6.683  0.0560 -0.1408  0.0079
    1AU       S  246   3.694   7.019   6.898  0.4039 -0.1390 -0.1598
    1AU     LIG  247   3.301   6.797   6.975  0.1123  0.3209  0.2060
    1AU     LIG  248   2.999   6.387   7.205 -0.2160  0.2792  0.2086
    1AU     LIG  249   2.792   6.029   7.193  0.2755 -0.5624 -0.3024
    1AU     LIG  250   2.633   5.561   7.368  0.0527 -0.0079 -0.1213
    1AU     LIG  251   2.250   5.542   7.384 -0.2076  0.0617  0.1355
    1AU     LIG  252   1.929   5.666   7.261  0.1876 -0.4278  0.0481
    1AU       S  253   3.725   6.285   6.353 -0.1432 -0.0519 -0.1395
    1AU     LIG  254   3.317   6.266   6.529 -0.0628  0.0418  0.1496
    1AU     LIG  255   2.924   6.165   6.759 -0.2766  0.0105  0.0001
    1AU     LIG  256   2.638   6.376   6.881  0.0222 -0.4890  0.0323
    1AU     LIG  257   2.517   6.562   7.332 -0.2011 -0.0231 -0.0394
    1AU     LIG  258   2.529   6.867   7.803 -0.0172 -0.2386  0.0783
    1AU     LIG  259   2.840   7.068   7.837 -0.0824 -0.2829 -0.1611
    1AU    AUSL  260   4.172   6.950   6.816  0.0087 -0.0249 -0.0506
    1AU    AUSL  261   4.369   7.356   6.716 -0.0095  0.1035  0.0128
    1AU     AUL  262   4.102   7.359   6.735  0.0173  0.0475  0.0604
    1AU       S  263   4.202   7.350   6.293 -0.0931 -0.2672 -0.1425
    1AU     LIG  264   3.781   7.562   6.394  0.0949 -0.3367 -0.0175
    1AU     LIG  265   3.326   7.614   6.403  0.0772 -0.1844  0.0688
    1AU     LIG  266   2.942   7.701   6.493  0.0376 -0.0769 -0.3134
    1AU     LIG  267   2.546   7.657   6.394 -0.2386 -0.0598  0.0352
    1AU     LIG  268   2.145   7.684   6.213 -0.0874 -0.2521 -0.2370
    1AU     LIG  269   1.717   7.422   6.269  0.2947 -0.2513  0.0175
    1AU       S  270   3.783   7.053   6.719 -0.0294 -0.1606 -0.0533
    1AU     LIG  271   3.330   7.196   6.626  0.1559  0.2857 -0.0176
    1AU     LIG  272   2.992   7.267   6.805 -0.0831  0.0768  0.1784
    1AU     LIG  273   2.688   7.551   6.879 -0.1664  0.1671  0.1735
    1AU     LIG  274   2.324   7.868   6.766  0.0222 -0.0184  0.0823
    1AU     LIG  275   1.946   7.933   6.667  0.1960  0.3114 -0.0861
    1AU     LIG  276   1.603   7.539   6.768 -0.3933 -0.2734  0.1351
    1AU    AUSL  277   5.319   7.232   7.395 -0.0508 -0.0482 -0.0955
    1AU    AUSL  278   5.437   7.163   6.995  0.0185  0.0258  0.0431
    1AU     AUL  279   5.377   7.522   7.218  0.0512 -0.0115 -0.0454
    1AU       S  280   5.597   7.285   6.902  0.3392 -0.2117 -0.1404
    1AU     LIG  281   6.017   7.191   6.931 -0.2497  0.1213 -0.1194
    1AU     LIG  282   6.454   7.326   6.959 -0.1931 -0.1010  0.0841
    1AU     LIG  283   6.480   7.671   7.223  0.1536  0.0026  0.4153
    1AU     LIG  284   6.656   8.089   7.240  0.0690  0.4439 -0.0574
    1AU     LIG  285   6.951   8.326   6.959 -0.0162 -0.4498 -0.0158
    1AU     LIG  286   7.160   8.709   7.069  0.0866  0.0419 -0.1096
    1AU       S  287   5.680   7.294   7.505  0.4676 -0.5615 -0.2243
    1AU     LIG  288   5.871   7.597   7.174 -0.3747 -0.2781 -0.2126
    1AU     LIG  289   5.952   8.076   7.117 -0.1946 -0.3080 -0.1767
    1AU     LIG  290   6.207   8.358   7.017 -0.2441  0.0986 -0.0209
    1AU     LIG  291   6.064   8.750   6.867 -0.3297 -0.2687 -0.1959
    1AU     LIG  292   6.012   9.159   6.878  0.1187  0.3679 -0.0207
    1AU     LIG  293   5.679   9.393   6.991  0.2417 -0.2606 -0.0981
    1AU    AUSL  294   5.199   6.845   7.455 -0.0947 -0.0088 -0.0991
    1AU    AUSL  295   5.041   7.207   7.683  0.0862 -0.0110  0.1523
    1AU     AUL  296   5.299   7.120   7.719  0.0840  0.1087  0.0619
    1AU       S  297   5.813   7.150   7.610  0.0441  0.0935 -0.0643
    1AU     LIG  298   6.096   7.498   7.563 -0.0973  0.1379 -0.2706
    1AU     LIG  299   6.367   7.830   7.668 -0.4027  0.1943  0.0290
    1AU     LIG  300   6.731   8.132   7.715 -0.4526 -0.2894  0.1054
    1AU     LIG  301   7.075   8.162   7.450 -0.2733 -0.2771  0.0866
    1AU     LIG  302   7.504   8.062   7.141  0.0376 -0.1447 -0.3036
    1AU     LIG  303   7.811   7.778   7.364  0.1489  0.1850  0.0252
    1AU       S  304   5.133   7.271   8.116 -0.0574 -0.2062  0.5342
    1AU     LIG  305   5.318   7.624   7.750  0.0604  0.1863 -0.2785
    1AU     LIG  306   5.701   7.827   7.572  0.3014  0.0284 -0.0384
    1AU     LIG  307   5.975   8.181   7.720  0.2006 -0.0094  0.0780
    1AU     LIG  308   6.334   8.375   7.590 -0.3384 -0.2900  0.2088
    1AU     LIG  309   6.635   8.601   7.359 -0.2846  0.0948 -0.0742
    1AU     LIG  310   6.606   8.669   7.020 -0.0018 -0.1010  0.0384
    1AU    AUSL  311   5.554   6.905   7.258 -0.0163 -0.0739 -0.1538
    1AU    AUSL  312   5.455   6.537   7.487 -0.1026  0.0620 -0.0125
    1AU     AUL  313   5.569   6.776   7.657 -0.0563  0.0107 -0.1192
    1AU       S  314   5.879   6.475   7.422 -0.2055  0.0090  0.3295
    1AU     LIG  315   6.185   6.125   7.159 -0.3604  0.3473  0.0262
    1AU     LIG  316   6.544   5.873   7.062 -0.1183 -0.2101  0.1475
    1AU     LIG  317   6.703   5.470   7.112  0.0440  0.0728  0.2610
    1AU     LIG  318   6.993   5.049   7.249  0.3815 -0.3893 -0.2674
    1AU     LIG  319   7.371   4.883   7.411 -0.1731 -0.5504 -0.1130
    1AU     LIG  320   7.716   4.536   7.232  0.2607  0.2398  0.3997
    1AU       S  321   5.779   7.020   7.312  0.0249  0.2100 -0.3619
    1AU     LIG  322   6.206   6.833   7.504 -0.1445  0.0603  0.3103
    1AU     LIG  323   6.389   6.478   7.440  0.4159 -0.0091 -0.0923
    1AU     LIG  324   6.713   6.251   7.429 -0.0269 -0.1084  0.2054
    1AU     LIG  325   6.921   5.971   7.361 -0.0424 -0.0744  0.4192
    1AU     LIG  326   7.111   5.731   7.039  0.0034 -0.0863  0.0552
    1AU     LIG  327   7.327   5.387   7.149  0.0939  0.2235  0.0601
    1AU    AUSL  328   4.178   6.264   6.573  0.1103 -0.1285  0.0702
    1AU    AUSL  329   4.349   6.621   6.364  0.0460 -0.0051  0.0234
    1AU     AUL  330   4.057   6.612   6.253  0.1317 -0.0130  0.0406
    1AU       S  331   3.932   6.075   6.379  0.3583  0.1455  0.6089
    1AU     LIG  332   3.758   5.748   6.392 -0.2092  0.3253 -0.1323
    1AU     LIG  333   3.607   5.364   6.353 -0.2401  0.1481 -0.1049
    1AU     LIG  334   3.232   5.143   6.608  0.0341 -0.0787 -0.1388
    1AU     LIG  335   2.935   5.065   6.996 -0.1848 -0.2693  0.2204
    1AU     LIG  336   2.459   5.151   7.067 -0.1990  0.0457  0.0240
    1AU     LIG  337   2.102   5.335   6.957 -0.2043  0.2329  0.0467
    1AU       S  338   4.403   6.335   6.147 -0.2119  0.3945  0.1910
    1AU     LIG  339   4.241   6.729   5.824 -0.0441 -0.1073  0.3179
    1AU     LIG  340   4.133   7.179   5.804 -0.0808 -0.2044 -0.0110
    1AU     LIG  341   3.907   7.535   5.891 -0.3383  0.1559 -0.2365
    1AU     LIG  342   3.494   7.809   5.930 -0.2837  0.0501  0.2587
    1AU     LIG  343   3.386   8.113   5.644  0.2056 -0.3197 -0.3248
    1AU     LIG  344   3.237   8.354   5.359  0.1535 -0.1173  0.2273
    1AU    AUSL  345   4.210   6.513   6.899  0.0998 -0.0067  0.0941
    1AU    AUSL  346   4.271   6.045   6.910  0.0014 -0.0553 -0.0093
    1AU     AUL  347   3.910   6.263   6.878 -0.0052  0.0484 -0.0490
    1AU       S  348   4.082   6.187   6.451  0.7620  0.3314 -0.0702
    1AU     LIG  349   4.252   5.700   6.598  0.0422 -0.2411 -0.1588
    1AU     LIG  350   4.344   5.351   6.857  0.0032 -0.1978 -0.0526
    1AU     LIG  351   4.587   5.038   7.063 -0.0313 -0.3087 -0.2625
    1AU     LIG  352   4.819   4.758   7.281  0.0752  0.0477 -0.1159
    1AU     LIG  353   4.882   4.427   7.422  0.2243 -0.2175 -0.3705
    1AU     LIG  354   5.030   3.935   7.366 -0.1418 -0.2160 -0.0474
    1AU       S  355   3.970   5.827   6.982  0.0439  0.1050  0.0210
    1AU     LIG  356   3.771   5.409   6.843 -0.1527  0.3129  0.3501
    1AU     LIG  357   3.695   4.938   6.793  0.1619 -0.1355  0.1689
    1AU     LIG  358   3.371   4.627   6.891  0.0997  0.2290 -0.1356
    1AU     LIG  359   2.988   4.571   7.170  0.2144 -0.0969 -0.0929
    1AU     LIG  360   2.520   4.752   7.359  0.0276 -0.0900 -0.1262
    1AU     LIG  361   2.388   5.126   7.687  0.1692 -0.1255 -0.0233
    1AU    AUSL  362   5.418   6.208   7.222 -0.0213  0.0369  0.0531
    1AU    AUSL  363   5.192   6.250   7.594 -0.0235  0.0311 -0.0030
    1AU     AUL  364   5.517   6.254   7.635 -0.0065 -0.0364  0.0206
    1AU       S  365   5.289   5.871   7.606 -0.2051 -0.2794  0.0245
    1AU     LIG  366   5.687   5.606   7.857 -0.0841 -0.5559  0.2872
    1AU     LIG  367   6.200   5.580   7.974 -0.2532 -0.1697  0.0011
    1AU     LIG  368   6.650   5.802   7.974 -0.2028 -0.0883 -0.1909
    1AU     LIG  369   6.772   6.390   7.968  0.1564  0.6347 -0.2588
    1AU     LIG  370   6.739   6.748   7.687 -0.0940 -0.0794  0.3848
    1AU     LIG  371   6.996   7.120   7.817  0.4348  0.0710  0.0284
    1AU       S  372   5.837   6.369   7.313  0.5509  0.4587 -0.2979
    1AU     LIG  373   5.756   5.919   7.406  0.1092 -0.0435  0.2914
    1AU     LIG  374   6.022   5.451   7.373 -0.0942  0.1355 -0.0895
    1AU     LIG  375   6.093   4.964   7.369  0.5295  0.2818  0.0042
    1AU     LIG  376   6.447   4.779   7.518  0.1196 -0.4217  0.6693
    1AU     LIG  377   6.500   4.319   7.413  0.0888  0.0048  0.0503
    1AU     LIG  378   6.639   4.011   7.110  0.1217  0.1094 -0.0586
    1AU    AUSL  379   5.310   6.605   7.102  0.0506 -0.0395  0.0299
    1AU    AUSL  380   5.309   6.291   6.816  0.0908 -0.0905  0.0422
    1AU     AUL  381   5.544   6.198   6.978 -0.0279 -0.0083  0.0452
    1AU       S  382   5.754   6.254   6.564 -0.0689  0.1066 -0.2555
    1AU     LIG  383   5.655   5.816   6.492 -0.2710 -0.0804 -0.2798
    1AU     LIG  384   5.490   5.396   6.573 -0.0347  0.3015 -0.3843
    1AU     LIG  385   5.445   4.957   6.722  0.1909 -0.1301 -0.1132
    1AU     LIG  386   5.425   4.534   6.744 -0.1820  0.1738  0.0989
    1AU     LIG  387   5.076   4.468   6.907  0.2789 -0.2516  0.0087
    1AU     LIG  388   4.699   4.251   6.986  0.0729 -0.2893 -0.1928
    1AU       S  389   5.770   6.503   7.256  0.1930  0.1334  0.2129
    1AU     LIG  390   6.129   6.733   7.025 -0.0465  0.2970  0.0040
    1AU     LIG  391   6.495   6.858   6.979 -0.2561 -0.1318  0.2301
    1AU     LIG  392   6.859   7.018   6.802 -0.2339 -0.0661  0.2215
    1AU     LIG  393   7.013   7.377   6.689  0.3137  0.2796  0.1755
    1AU     LIG  394   7.469   7.543   6.897  0.0015  0.1269 -0.4167
    1AU     LIG  395   7.909   7.558   6.964  0.1134  0.1076  0.2283
    1AU    AUSL  396   4.837   7.502   6.781  0.1284 -0.0630 -0.0671
    1AU    AUSL  397   5.057   7.250   7.084  0.0487 -0.0491  0.0584
    1AU     AUL  398   5.116   7.615   6.861  0.0221  0.0552 -0.0456
    1AU       S  399   5.565   7.520   6.768 -0.1903  0.1119  0.2016
    1AU     LIG  400   5.638   8.024   6.753  0.2812  0.0600  0.0027
    1AU     LIG  401   5.619   8.518   6.709  0.0319  0.0560  0.0949
    1AU     LIG  402   5.590   8.893   6.931  0.3518  0.0915 -0.1743
    1AU     LIG  403   5.764   9.069   7.342  0.0614  0.1218 -0.0926
    1AU     LIG  404   5.881   9.318   7.732  0.0804 -0.1630 -0.2113
    1AU     LIG  405   5.984   9.736   7.925 -0.2280 -0.2308 -0.1137
    1AU       S  406   4.716   7.905   6.925  0.0221 -0.2193  0.0398
    1AU     LIG  407   4.316   8.181   7.080 -0.0563 -0.1173 -0.0572
    1AU     LIG  408   4.035   8.471   6.963 -0.2709  0.4799 -0.0792
    1AU     LIG  409   3.707   8.428   6.706  0.1870 -0.4496  0.2239
    1AU     LIG  410   3.378   8.204   6.421  0.1158  0.3213  0.3438
    1AU     LIG  411   3.083   8.177   6.244 -0.1809  0.0225 -0.0976
    1AU     LIG  412   2.884   8.232   6.021  0.1262  0.0234 -0.3458
    1AU    AUSL  413   4.919   7.576   7.261  0.0716  0.0719 -0.0226
    1AU    AUSL  414   4.358   7.432   7.420 -0.0656  0.0151 -0.0469
    1AU     AUL  415   4.781   7.681   7.512  0.1066  0.0879 -0.0757
    1AU       S  416   4.795   7.868   7.090 -0.0407 -0.4601 -0.1343
    1AU     LIG  417   5.177   7.982   7.241  0.0136  0.0521 -0.1802
    1AU     LIG  418   5.458   8.309   7.340  0.2067 -0.1203 -0.2601
    1AU     LIG  419   5.874   8.532   7.334 -0.1885 -0.1252 -0.1104
    1AU     LIG  420   6.167   8.764   7.385  0.1679 -0.3159  0.0705
    1AU     LIG  421   6.413   9.155   7.306  0.0185  0.0754 -0.5068
    1AU     LIG  422   6.771   9.047   7.254 -0.1610  0.0743 -0.0197
    1AU       S  423   4.303   7.658   7.485  0.2037 -0.2007 -0.4369
    1AU     LIG  424   3.976   8.010   7.487  0.2535 -0.2010  0.0212
    1AU     LIG  425   4.077   8.408   7.491  0.0495 -0.1710  0.0969
    1AU     LIG  426   4.508   8.545   7.357  0.0183 -0.2623 -0.0534
    1AU     LIG  427   4.750   8.939   7.464  0.3344 -0.1922  0.5850
    1AU     LIG  428   5.150   9.118   7.227 -0.0349  0.1067 -0.0097
    1AU     LIG  429   5.124   9.548   7.043 -0.4292  0.0224  0.2189
    1AU    AUSL  430   4.560   7.443   7.068  0.0448 -0.0218 -0.0346
    1AU    AUSL  431   4.715   7.129   6.734  0.0751  0.0169  0.0279
    1AU     AUL  432   4.556   7.549   6.649  0.0089 -0.0654 -0.0226
    1AU       S  433   4.324   7.427   6.275 -0.3043  0.0005  0.2648
    1AU     LIG  434   4.204   7.829   6.464  0.0845  0.0239 -0.1214
    1AU     LIG  435   4.238   8.232   6.530 -0.1234  0.0999 -0.2408
    1AU     LIG  436   4.328   8.730   6.689 -0.0417 -0.0218 -0.1953
    1AU     LIG  437   4.276   9.036   7.044 -0.3126 -0.1858  0.0271
    1AU     LIG  438   4.201   8.919   7.477 -0.2420  0.2068 -0.0588
    1AU     LIG  439   4.546   8.970   7.923  0.3633 -0.2800 -0.1899
    1AU       S  440   4.490   7.719   7.078  0.2342  0.0257 -0.2040
    1AU     LIG  441   4.065   7.799   6.979 -0.3071  0.1141  0.0702
    1AU     LIG  442   3.792   7.959   6.695  0.1825  0.1391  0.1048
    1AU     LIG  443   3.854   8.214   6.232  0.3181 -0.2207  0.0029
    1AU     LIG  444   3.994   8.088   5.962  0.0860 -0.1443  0.0362
    1AU     LIG  445   3.988   8.085   5.569 -0.1822 -0.2349  0.1668
    1AU     LIG  446   4.165   8.176   5.132 -0.1371  0.1574 -0.0205
    1AU    AUSL  447   4.991   6.275   6.511  0.0213  0.0523 -0.0383
    1AU    AUSL  448   4.576   6.355   6.614 -0.0061 -0.0369  0.0100
    1AU     AUL  449   4.891   6.239   6.202 -0.0000  0.0632  0.0829
    1AU       S  450   5.095   5.787   6.290  0.2097  0.4549 -0.2440
    1AU     LIG  451   5.328   6.082   6.014  0.2566 -0.0876  0.0472
    1AU     LIG  452   5.820   6.086   6.009  0.2886  0.1827 -0.0230
    1AU     LIG  453   6.150   6.248   6.236 -0.0873  0.3572 -0.3924
    1AU     LIG  454   6.583   6.380   6.306  0.0725 -0.1163 -0.2398
    1AU     LIG  455   6.956   6.545   6.635 -0.0876 -0.1446  0.3147
    1AU     LIG  456   7.209   6.306   6.937  0.4325 -0.1355 -0.0930
    1AU       S  457   4.437   6.051   6.196  0.2199  0.2372  0.2080
    1AU     LIG  458   4.237   5.654   6.108  0.3284 -0.1202  0.3371
    1AU     LIG  459   4.151   5.222   6.216 -0.3056 -0.1170  0.0682
    1AU     LIG  460   3.980   4.894   6.273 -0.3204 -0.0824 -0.2033
    1AU     LIG  461   4.009   4.585   6.674  0.0447  0.0794  0.2009
    1AU     LIG  462   4.196   4.146   6.931 -0.1571  0.4275  0.3606
    1AU     LIG  463   4.602   3.777   6.996 -0.0997 -0.1551 -0.2750
    1AU    AUSL  464   5.055   5.981   6.782  0.0132  0.0073 -0.0567
    1AU    AUSL  465   5.356   6.494   6.459 -0.0167  0.0263  0.0435
    1AU     AUL  466   5.290   6.138   6.491 -0.0573 -0.0711  0.0236
    1AU       S  467   5.156   5.694   6.575  0.0850 -0.5685 -0.1513
    1AU     LIG  468   5.000   5.231   6.773  0.1204  0.1231 -0.0484
    1AU     LIG  469   4.958   4.922   6.744 -0.1637 -0.0649 -0.0848
    1AU     LIG  470   4.914   4.523   6.397  0.0977  0.3921 -0.4136
    1AU     LIG  471   5.099   4.333   6.127  0.4074  0.3606 -0.2392
    1AU     LIG  472   5.021   3.902   5.836  0.2267  0.2452  0.4114
    1AU     LIG  473   4.981   3.454   5.712  0.5573  0.2203 -0.1735
    1AU       S  474   5.637   6.436   6.395  0.2318  0.1791  0.0516
    1AU     LIG  475   6.024   6.761   6.382 -0.0141  0.1163  0.3536
    1AU     LIG  476   6.480   6.884   6.445 -0.1609 -0.0744 -0.5062
    1AU     LIG  477   6.840   6.825   6.196 -0.1118 -0.3064 -0.1025
    1AU     LIG  478   7.100   6.550   6.143  0.1798 -0.2215  0.2558
    1AU     LIG  479   7.039   6.118   6.080 -0.1171 -0.0707 -0.0194
    1AU     LIG  480   7.041   5.584   6.184  0.1239 -0.1468 -0.0387
    1AU    AUSL  481   4.685   5.969   6.563 -0.0481  0.0584 -0.0541
    1AU    AUSL  482   4.951   5.869   7.166 -0.0188 -0.0446  0.0368
    1AU     AUL  483   4.761   5.668   6.765  0.0748 -0.0245 -0.1034
    1AU       S  484   5.033   5.518   7.194  0.0631  0.0155 -0.2679
    1AU     LIG  485   5.223   5.056   7.246  0.0721  0.0835 -0.0389
    1AU     LIG  486   5.383   4.626   7.319  0.0096 -0.3553  0.5263
    1AU     LIG  487   5.428   4.181   7.286  0.0453  0.0576  0.0475
    1AU     LIG  488   5.709   4.243   7.036  0.1688  0.1356  0.0844
    1AU     LIG  489   5.928   4.464   7.261 -0.1283  0.1264  0.1248
    1AU     LIG  490   6.290   4.674   7.021  0.4238 -0.0043 -0.1464
    1AU       S  491   4.900   5.801   6.353 -0.1309 -0.2015 -0.1897
    1AU     LIG  492   4.560   5.449   6.376 -0.0120  0.2414 -0.0292
    1AU     LIG  493   4.565   5.016   6.438  0.1974  0.0402 -0.0759
    1AU     LIG  494   4.496   4.677   6.793  0.2753 -0.3150  0.2042
    1AU     LIG  495   4.351   4.583   7.032 -0.2540  0.0460 -0.0276
    1AU     LIG  496   4.401   4.172   7.407 -0.4795 -0.0344  0.1605
    1AU     LIG  497   4.704   3.982   7.776  0.5199 -0.0750 -0.0545
    1AU    AUSL  498   4.488   7.147   7.729 -0.0154 -0.0330 -0.0363
    1AU    AUSL  499   4.353   7.062   7.268 -0.1022 -0.0162 -0.0044
    1AU     AUL  500   4.160   7.223   7.640  0.1224  0.0145 -0.0643
    1AU       S  501   4.403   7.600   7.866  0.8024  0.3232  0.0179
    1AU     LIG  502   3.870   7.627   7.831  0.2119 -0.0810  0.0012
    1AU     LIG  503   3.527   7.666   7.607  0.3054  0.1707  0.2491
    1AU     LIG  504   3.516   7.932   7.360  0.1139 -0.1927 -0.2265
    1AU     LIG  505   3.414   8.348   7.103  0.0301 -0.5282  0.5000
    1AU     LIG  506   3.279   8.750   6.941 -0.2029 -0.1199 -0.0908
    1AU     LIG  507   3.352   9.048   6.688 -0.0409 -0.3880  0.2662
    1AU       S  508   3.814   6.995   7.362  0.1270 -0.2487 -0.2001
    1AU     LIG  509   3.476   6.617   7.409  0.2514 -0.3138  0.1523
    1AU     LIG  510   3.465   6.297   7.085 -0.2966 -0.4418 -0.1497
    1AU     LIG  511   3.501   5.951   6.891 -0.0510  0.0818 -0.1730
    1AU     LIG  512   3.282   5.677   6.633 -0.1788 -0.1090 -0.3236
    1AU     LIG  513   3.018   5.630   6.279 -0.0089 -0.2079 -0.2139
    1AU     LIG  514   2.840   5.143   6.103  0.2079 -0.1595  0.0077
    1AU    AUSL  515   4.741   7.255   7.416 -0.0514  0.0227  0.0813
    1AU    AUSL  516   4.791   6.900   7.629  0.0208  0.0291 -0.0170
    1AU     AUL  517   4.759   7.321   7.831 -0.0845  0.0063  0.0091
    1AU       S  518   4.357   7.666   7.660 -0.3627 -0.1965 -0.1112
    1AU     LIG  519   4.495   8.087   7.560  0.1059  0.0874  0.1752
    1AU     LIG  520   4.955   8.257   7.544  0.4445 -0.4514 -0.2474
    1AU     LIG  521   5.168   8.082   7.801  0.0975  0.0691  0.2748
    1AU     LIG  522   5.476   7.923   8.130  0.2704  0.0677 -0.0368
    1AU     LIG  523   5.523   8.109   8.623  0.0017 -0.2785 -0.1556
    1AU     LIG  524   5.371   7.955   9.026  0.3326 -0.3428  0.1307
    1AU       S  525   4.917   7.063   8.158  0.1219  0.0235  0.1280
    1AU     LIG  526   4.604   7.417   8.297  0.0754  0.1463 -0.1292
    1AU     LIG  527   4.228   7.737   8.431  0.1601  0.1884 -0.1828
    1AU     LIG  528   3.810   7.999   8.367  0.0961 -0.1283  0.2315
    1AU     LIG  529   3.356   8.253   8.456  0.0926  0.0349 -0.1457
    1AU     LIG  530   3.326   8.749   8.592  0.3225  0.1418  0.0775
    1AU     LIG  531   3.040   9.162   8.414 -0.2189 -0.4205 -0.1104
    1AU    AUSL  532   4.537   5.901   7.314  0.0766 -0.0646 -0.0284
    1AU    AUSL  533   5.026   6.251   7.197  0.0685 -0.0419 -0.1142
    1AU     AUL  534   4.796   5.855   7.492  0.0024  0.1643  0.0257
    1AU       S  535   5.313   5.810   7.453 -0.0011  0.0579  0.0033
    1AU     LIG  536   5.568   5.489   7.369  0.1380 -0.0867 -0.1981
    1AU     LIG  537   5.710   5.300   7.059 -0.0373  0.0679 -0.1213
    1AU     LIG  538   5.976   5.058   6.746 -0.1112 -0.0893  0.0390
    1AU     LIG  539   5.962   4.590   6.680  0.1087 -0.4785 -0.0473
    1AU     LIG  540   6.243   4.181   6.770  0.2597 -0.3888 -0.2518
    1AU     LIG  541   6.103   3.990   7.190  0.1538  0.3672  0.0326
    1AU       S  542   4.747   5.473   7.205 -0.0945  0.4312  0.1352
    1AU     LIG  543   4.425   5.447   7.355  0.1725  0.0774  0.2445
    1AU     LIG  544   4.208   5.153   7.346 -0.3919 -0.2469  0.3935
    1AU     LIG  545   3.890   4.927   7.218  0.5853 -0.0862  0.2394
    1AU     LIG  546   3.796   4.491   7.147  0.2478  0.0149  0.1451
    1AU     LIG  547   3.704   4.226   6.892  0.3238  0.3944 -0.1066
    1AU     LIG  548   3.624   3.893   6.459  0.3453 -0.0641  0.0935
    1AU    AUSL  549   4.670   6.072   6.952 -0.0148  0.0074 -0.0118
    1AU    AUSL  550   4.418   6.272   7.240  0.1060 -0.0903  0.0565
    1AU     AUL  551   4.428   5.820   7.055 -0.0091 -0.0403 -0.0343
    1AU       S  552   5.000   5.682   7.141  0.0665 -0.2067 -0.0746
    1AU     LIG  553   5.441   5.735   6.968 -0.0336 -0.2688 -0.1143
    1AU     LIG  554   5.805   5.759   6.938 -0.0637 -0.1369  0.0330
    1AU     LIG  555   6.184   5.504   6.933  0.4105  0.0934 -0.0539
    1AU     LIG  556   6.586   5.064   6.879  0.2441  0.1485  0.0989
    1AU     LIG  557   6.895   4.893   6.734 -0.3904  0.0841  0.2701
    1AU     LIG  558   6.713   4.742   6.306  0.1710  0.0556  0.0670
    1AU       S  559   4.031   5.812   7.303 -0.1270  0.2408 -0.3668
    1AU     LIG  560   4.005   5.545   7.647 -0.3010  0.3469 -0.2205
    1AU     LIG  561   3.627   5.296   7.677  0.3879  0.1320 -0.1187
    1AU     LIG  562   3.211   5.430   7.550 -0.0047 -0.2327  0.2333
    1AU     LIG  563   2.993   5.920   7.809  0.2856  0.2462  0.2582
    1AU     LIG  564   2.800   6.115   8.122  0.0271 -0.0313 -0.2890
    1AU     LIG  565   2.709   6.513   8.381 -0.0543 -0.2622 -0.0894
    2POPC   NC3  566   3.416   3.421   9.406  0.1671  0.1829 -0.1662
    2POPC   PO4  567   3.617   3.863   9.566  0.0747  0.1816  0.0541
    2POPC   GL1  568   3.448   3.998   9.127 -0.0898 -0.0375  0.3324
    2POPC   GL2  569   3.694   4.176   9.072  0.0321 -0.1404 -0.2455
    2POPC   C1A  570   3.487   4.067   8.631  0.0806  0.1410  0.2365
    2POPC   D2A  571   3.338   4.063   8.243 -0.2081 -0.1960 -0.1281
    2POPC   C3A  572   2.932   3.866   8.084  0.0972  0.0960 -0.2803
    2POPC   C4A  573   2.678   3.527   8.260  0.3070 -0.3455  0.1349
    2POPC   C1B  574   3.789   4.486   8.850 -0.0609 -0.1211 -0.0352
    2POPC   C2B  575   3.954   4.733   8.568  0.1068  0.0015 -0.1720
    2POPC   C3B  576   4.237   4.649   8.218  0.0028 -0.2327 -0.1952
    2POPC   C4B  577   4.548   4.940   8.174 -0.1331  0.2736 -0.4968
    3POPC   NC3  578   7.551   0.661   9.196 -0.4320 -0.1150  0.0229
    3POPC   PO4  579   7.290   0.295   9.147 -0.0075  0.0305  0.3166
    3POPC   GL1  580   7.501   0.326   8.719  0.0380  0.0415  0.3478
    3POPC   GL2  581   7.823   0.346   8.738 -0.0782 -0.1143 -0.2315
    3POPC   C1A  582   7.554   0.364   8.236 -0.1831 -0.0986 -0.1181
    3POPC   D2A  583   7.740   0.064   7.982  0.4928  0.2349  0.3849
    3POPC   C3A  584   7.597  -0.079   7.575  0.0280 -0.0329  0.1363
    3POPC   C4A  585   7.800  -0.419   7.313 -0.2968  0.3245  0.2298
    3POPC   C1B  586   7.941   0.011   8.448  0.1587 -0.0788 -0.0547
    3POPC   C2B  587   8.138  -0.120   8.155 -0.0177 -0.0344 -0.3576
    3POPC   C3B  588   8.152  -0.229   7.695 -0.0741 -0.0775 -0.1552
    3POPC   C4B  589   8.397  -0.097   7.263 -0.1320 -0.0137  0.0182
    4POPC   NC3  590   7.565   4.885   9.601  0.2313  0.2992 -0.0676
    4POPC   PO4  591   7.655   5.104   9.257  0.2125  0.0919  0.1577
    4POPC   GL1  592   7.732   5.198   8.844  0.2449 -0.0837 -0.0866
    4POPC   GL2  593   7.967   5.165   8.802  0.1607 -0.1036  0.0001
    4POPC   C1A  594   7.772   5.647   8.622 -0.0317 -0.0412  0.1684
    4POPC   D2A  595   7.581   5.983   8.393 -0.2973 -0.1015  0.2211
    4POPC   C3A  596   7.209   6.104   8.310 -0.4225  0.0926  0.1822
    4POPC   C4A  597   7.185   5.889   7.876  0.0423 -0.0676  0.0026
    4POPC   C1B  598   8.027   5.062   8.358  0.0462  0.0304 -0.0321
    4POPC   C2B  599   8.045   5.161   7.986  0.0098  0.3706 -0.0636
    4POPC   C3B  600   7.920   5.272   7.531 -0.1178  0.1121 -0.2658
    4POPC   C4B  601   7.816   5.031   7.194  0.0372  0.2464 -0.0872
    5POPC   NC3  602   8.126   2.804   9.562 -0.1505 -0.1499  0.0602
    5POPC   PO4  603   7.952   3.169   9.349  0.0877 -0.1039  0.1457
    5POPC   GL1  604   7.625   3.389   8.923  0.0403 -0.1038  0.0807
    5POPC   GL2  605   7.575   3.701   8.820 -0.1603  0.1220 -0.1041
    5POPC   C1A  606   7.375   3.269   8.511 -0.1152  0.1025 -0.1578
    5POPC   D2A  607   7.525   3.300   8.032  0.0330 -0.1160 -0.1242
    5POPC   C3A  608   7.964   3.430   8.063 -0.2991  0.1730  0.0557
    5POPC   C4A  609   8.315   3.381   8.142  0.1968  0.1615 -0.0986
    5POPC   C1B  610   7.383   3.742   8.354 -0.1937 -0.0208  0.1946
    5POPC   C2B  611   7.651   3.836   7.940 -0.1046  0.1131  0.2858
    5POPC   C3B  612   7.847   3.673   7.613  0.0178 -0.1299 -0.3150
    5POPC   C4B  613   8.282   3.349   7.546 -0.0149 -0.2982  0.0316
    6POPC   NC3  614   4.417   9.206   9.360 -0.0896  0.3138  0.1400
    6POPC   PO4  615   4.361   9.499   9.053 -0.0898 -0.2489 -0.1198
    6POPC   GL1  616   4.214   9.258   8.723 -0.2382 -0.3271  0.1137
    6POPC   GL2  617   4.016   9.478   8.642  0.2187 -0.1978  0.0232
    6POPC   C1A  618   4.220   8.916   8.411 -0.2782 -0.1664 -0.1252
    6POPC   D2A  619   4.132   8.752   7.976 -0.0510 -0.1791 -0.1465
    6POPC   C3A  620   3.849   8.476   7.911  0.0272  0.0994 -0.0216
    6POPC   C4A  621   3.521   8.243   7.939  0.0600  0.0247  0.2098
    6POPC   C1B  622   4.031   9.438   8.254  0.0754 -0.0610 -0.4134
    6POPC   C2B  623   4.100   9.267   7.863 -0.3145  0.1233  0.2812
    6POPC   C3B  624   3.954   9.336   7.360  0.1423 -0.2980 -0.1881
    6POPC   C4B  625   3.816   9.367   6.861 -0.1269 -0.2748 -0.0263
    7POPC   NC3  626   1.100   3.132   9.149 -0.1782 -0.0735 -0.0981
    7POPC   PO4  627   1.527   3.432   9.194 -0.2289  0.0218  0.0738
    7POPC   GL1  628   1.715   3.566   8.838  0.1641  0.3454 -0.0035
    7POPC   GL2  629   2.035   3.715   8.695 -0.1553  0.0505  0.0708
    7POPC   C1A  630   1.818   3.442   8.368  0.0109 -0.3250  0.1619
    7POPC   D2A  631   1.779   3.094   8.138  0.4729  0.3081 -0.0552
    7POPC   C3A  632   2.001   2.991   7.825  0.4375 -0.1468  0.0872
    7POPC   C4A  633   2.246   2.898   7.377 -0.1762 -0.1045 -0.0686
    7POPC   C1B  634   2.231   3.825   8.345  0.0884 -0.0614  0.2875
    7POPC   C2B  635   2.356   3.986   7.891 -0.1287 -0.4660 -0.0267
    7POPC   C3B  636   2.751   4.130   7.659 -0.2464  0.0288 -0.0796
    7POPC   C4B  637   3.181   4.142   7.738  0.1771 -0.0249 -0.1161
    8POPC   NC3  638   1.987   9.729   9.431 -0.0104 -0.3462  0.2333
    8POPC   PO4  639   2.348   9.622   9.152 -0.0332 -0.0487  0.3500
    8POPC   GL1  640   2.080   9.689   8.748  0.3236 -0.0966  0.0722
    8POPC   GL2  641   1.715   9.851   8.802  0.1510 -0.0300  0.0517
    8POPC   C1A  642   2.297   9.714   8.371 -0.3421 -0.0438 -0.2136
    8POPC   D2A  643   2.203   9.590   7.934  0.0259  0.1925 -0.1491
    8POPC   C3A  644   1.986   9.159   7.836  0.1055  0.6013 -0.0217
    8POPC   C4A  645   1.556   9.024   7.904 -0.0469  0.2551  0.2594
    8POPC   C1B  646   1.982  10.126   8.443  0.0534 -0.3003  0.0183
    8POPC   C2B  647   2.135  10.432   8.207  0.2887  0.0798  0.1523
    8POPC   C3B  648   1.828  10.586   7.930 -0.1474 -0.1146  0.1144
    8POPC   C4B  649   1.821  10.567   7.426 -0.0571  0.3093 -0.0326
    9POPC   NC3  650   8.107   0.373   9.637 -0.0907  0.0609  0.4142
    9POPC   PO4  651   8.319  -0.006   9.322  0.1811  0.1476  0.2844
    9POPC   GL1  652   8.264   0.013   8.857  0.1963 -0.0327  0.0745
    9POPC   GL2  653   8.240  -0.378   8.673  0.2909 -0.2034 -0.1054
    9POPC   C1A  654   8.518  -0.023   8.452  0.1406 -0.0587 -0.0104
    9POPC   D2A  655   8.938   0.088   8.284  0.5105  0.2092 -0.0067
    9POPC   C3A  656   8.966   0.291   7.839  0.0733  0.0730  0.0376
    9POPC   C4A  657   9.317   0.377   7.566  0.0942  0.2919  0.3191
    9POPC   C1B  658   7.915  -0.497   8.379 -0.1063  0.2838 -0.1867
    9POPC   C2B  659   7.733  -0.490   7.842 -0.1219  0.0358  0.0327
    9POPC   C3B  660   7.402  -0.611   7.625 -0.1096 -0.2592 -0.1563
    9POPC   C4B  661   7.272  -0.564   7.173  0.1431  0.0767  0.0285
   10POPC   NC3  662  10.200   9.066   9.272 -0.0351 -0.0553  0.2141
   10POPC   PO4  663  10.118   8.994   8.776 -0.4097 -0.3027  0.1222
   10POPC   GL1  664  10.119   8.920   8.330 -0.0770  0.0236  0.1570
   10POPC   GL2  665   9.992   8.649   8.505 -0.0641  0.2694  0.1180
   10POPC   C1A  666  10.151   8.810   7.828 -0.0080  0.0483 -0.3307
   10POPC   D2A  667  10.398   8.693   7.554  0.1250 -0.0087 -0.2026
   10POPC   C3A  668  10.537   8.846   7.120  0.0671 -0.3869 -0.2774
   10POPC   C4A  669  10.289   8.718   6.730 -0.0543 -0.3050  0.0447
   10POPC   C1B  670  10.078   8.413   8.150 -0.2659 -0.3237  0.0439
   10POPC   C2B  671  10.049   8.250   7.688  0.2649  0.2831  0.1659
   10POPC   C3B  672   9.721   8.337   7.427 -0.2858 -0.2261 -0.2910
   10POPC   C4B  673   9.295   8.521   7.270  0.0645 -0.1626  0.0772
   11POPC   NC3  674   8.852   6.507   8.990  0.4938  0.2170 -0.1590
   11POPC   PO4  675   8.737   6.883   9.247 -0.0396  0.2924 -0.1905
   11POPC   GL1  676   8.589   6.900   8.782 -0.0343  0.1641  0.0514
   11POPC   GL2  677   8.464   6.664   8.691  0.0326 -0.0193  0.1697
   11POPC   C1A  678   8.554   7.049   8.361  0.0147  0.3921 -0.0583
   11POPC   D2A  679   8.525   7.128   7.906  0.1844  0.2059  0.0103
   11POPC   C3A  680   8.270   6.854   7.602  0.0196  0.1322  0.1394
   11POPC   C4A  681   8.194   6.390   7.434  0.0910 -0.2403  0.0236
   11POPC   C1B  682   8.385   6.521   8.233 -0.2728 -0.3704 -0.3145
   11POPC   C2B  683   8.510   6.432   7.842 -0.0435  0.0483  0.0584
   11POPC   C3B  684   8.682   6.325   7.388  0.1703  0.1500 -0.2204
   11POPC   C4B  685   8.891   6.008   7.210 -0.1162 -0.2367  0.1888
   12POPC   NC3  686   6.577   4.040   9.524 -0.4423 -0.0282 -0.3766
   12POPC   PO4  687   6.522   3.636   9.441 -0.1306 -0.0369  0.1330
   12POPC   GL1  688   6.641   3.718   8.961  0.0571  0.0081 -0.0182
   12POPC   GL2  689   6.504   3.455   8.841  0.0409 -0.2867  0.2460
   12POPC   C1A  690   6.871   3.725   8.535  0.1458 -0.4665  0.3349
   12POPC   D2A  691   6.785   3.770   8.171 -0.1458  0.0534  0.0777
   12POPC   C3A  692   7.007   3.542   7.793  0.0881  0.2335  0.2076
   12POPC   C4A  693   7.325   3.585   7.600 -0.1679  0.1700  0.0027
   12POPC   C1B  694   6.408   3.414   8.443 -0.3043  0.2692  0.1172
   12POPC   C2B  695   6.544   3.343   8.016 -0.0190 -0.3289  0.2278
   12POPC   C3B  696   6.215   3.367   7.724 -0.0034  0.0601 -0.1802
   12POPC   C4B  697   5.932   3.431   7.396 -0.0084  0.3164  0.0661
   13POPC   NC3  698   5.622   1.063   8.989  0.1355  0.1181 -0.1850
   13POPC   PO4  699   5.350   0.653   9.003 -0.2633  0.0258 -0.1721
   13POPC   GL1  700   5.294   0.491   8.566  0.1742 -0.0618  0.4044
   13POPC   GL2  701   5.123   0.713   8.387 -0.2197  0.0369 -0.0399
   13POPC   C1A  702   5.631   0.303   8.187  0.0230 -0.1143  0.0098
   13POPC   D2A  703   5.521   0.126   7.717 -0.1049 -0.0030  0.0227
   13POPC   C3A  704   5.544   0.138   7.308 -0.1847 -0.0094  0.4069
   13POPC   C4A  705   5.572   0.507   6.867  0.0501  0.0026 -0.1962
   13POPC   C1B  706   5.536   0.797   8.122  0.0726 -0.1424 -0.0914
   13POPC   C2B  707   5.777   1.058   7.823 -0.1401 -0.0979  0.0594
   13POPC   C3B  708   6.125   0.935   7.581  0.0663 -0.0802  0.2168
   13POPC   C4B  709   6.453   0.662   7.320  0.1247  0.1493  0.0583
   14POPC   NC3  710   3.983   7.535  10.128  0.1500 -0.1223  0.0593
   14POPC   PO4  711   3.525   7.761  10.018  0.0302 -0.0161 -0.1848
   14POPC   GL1  712   3.559   7.658   9.582  0.0712  0.1386  0.0981
   14POPC   GL2  713   3.616   7.999   9.307 -0.0452 -0.1994  0.1721
   14POPC   C1A  714   3.955   7.605   9.496 -0.1448  0.1461 -0.1313
   14POPC   D2A  715   4.178   7.951   9.399 -0.5683  0.1806 -0.3161
   14POPC   C3A  716   4.518   7.722   9.363 -0.1166 -0.1178 -0.0985
   14POPC   C4A  717   4.906   7.785   9.143 -0.0980 -0.0925 -0.0716
   14POPC   C1B  718   3.853   7.873   9.005  0.2357 -0.0841  0.0304
   14POPC   C2B  719   4.108   7.422   8.922  0.0872 -0.0025  0.0559
   14POPC   C3B  720   4.348   7.198   8.653 -0.0593 -0.0846 -0.2127
   14POPC   C4B  721   4.517   6.752   8.631  0.0505  0.1839  0.1240
   15POPC   NC3  722   4.983   2.693   9.211  0.2196 -0.3309 -0.0155
   15POPC   PO4  723   4.978   3.223   9.280 -0.1311 -0.1826 -0.1043
   15POPC   GL1  724   4.775   3.023   8.874  0.0650  0.2295 -0.1675
   15POPC   GL2  725   5.019   2.875   8.617  0.1449  0.1578  0.1987
   15POPC   C1A  726   4.651   3.076   8.419  0.2454  0.3537 -0.1500
   15POPC   D2A  727   4.571   3.071   8.009  0.2163  0.0975 -0.2082
   15POPC   C3A  728   4.750   3.122   7.523  0.0144 -0.0699 -0.1032
   15POPC   C4A  729   4.681   3.277   7.170  0.0191 -0.3864 -0.0759
   15POPC   C1B  730   5.135   3.195   8.209 -0.0180 -0.0912 -0.1746
   15POPC   C2B  731   5.175   3.010   7.762 -0.1106  0.1494  0.0333
   15POPC   C3B  732   5.233   3.135   7.280  0.2807 -0.5603 -0.0612
   15POPC   C4B  733   5.404   3.463   7.002 -0.3707 -0.0773 -0.2792
   16POPC   NC3  734   9.980   0.253   9.024 -0.2808 -0.0540 -0.0268
   16POPC   PO4  735   9.717   0.016   8.941  0.0616  0.1428  0.4552
   16POPC   GL1  736   9.568   0.232   8.636  0.2786  0.1444  0.3012
   16POPC   GL2  737   9.713   0.434   8.565 -0.1891 -0.0348 -0.1373
   16POPC   C1A  738   9.276   0.435   8.353 -0.0029 -0.3603  0.2907
   16POPC   D2A  739   9.196   0.691   7.877 -0.0075  0.0411 -0.0343
   16POPC   C3A  740   9.195   0.966   7.566  0.0852  0.0702 -0.2288
   16POPC   C4A  741   9.038   0.951   7.184 -0.3620 -0.0501 -0.6257
   16POPC   C1B  742   9.687   0.635   8.150 -0.1894  0.1744  0.1230
   16POPC   C2B  743   9.644   0.735   7.671  0.0281 -0.2624  0.0696
   16POPC   C3B  744   9.646   0.796   7.275  0.0686  0.0251 -0.0411
   16POPC   C4B  745   9.906   0.654   6.861 -0.2226 -0.1787 -0.1632
   17POPC   NC3  746   4.741   8.917   9.818 -0.1451 -0.2073  0.3003
   17POPC   PO4  747   4.891   9.340   9.587 -0.2169  0.1495  0.0008
   17POPC   GL1  748   4.860   9.236   9.199  0.1772 -0.1507  0.1767
   17POPC   GL2  749   4.839   9.473   9.025  0.1853  0.3325 -0.1713
   17POPC   C1A  750   5.171   9.099   8.864  0.0643  0.0655  0.0364
   17POPC   D2A  751   5.402   9.101   8.503 -0.1166  0.1840  0.1667
   17POPC   C3A  752   5.368   9.241   8.095  0.3227 -0.0879 -0.2983
   17POPC   C4A  753   5.542   8.912   7.770  0.0044 -0.1077 -0.1580
   17POPC   C1B  754   5.189   9.634   8.797  0.1425  0.2633  0.0935
   17POPC   C2B  755   5.191   9.663   8.389 -0.3797 -0.1681 -0.0451
   17POPC   C3B  756   5.018   9.593   8.009  0.1538  0.1734  0.1215
   17POPC   C4B  757   5.009   9.224   7.753  0.1857 -0.0166  0.0787
   18POPC   NC3  758   9.031   1.683   8.956 -0.0574 -0.1999  0.2591
   18POPC   PO4  759   8.635   1.909   8.824 -0.0963 -0.0094 -0.0033
   18POPC   GL1  760   8.382   1.912   8.530  0.0319 -0.2443 -0.2969
   18POPC   GL2  761   8.161   2.086   8.642 -0.1755  0.0586  0.5869
   18POPC   C1A  762   8.286   2.160   8.141  0.1816 -0.1839 -0.0861
   18POPC   D2A  763   8.210   2.041   7.758 -0.0925  0.2795  0.0097
   18POPC   C3A  764   7.849   1.794   7.803  0.0072  0.2013  0.3025
   18POPC   C4A  765   7.449   1.451   7.884 -0.0093 -0.0270 -0.0689
   18POPC   C1B  766   8.056   2.574   8.421  0.2582  0.1673  0.0047
   18POPC   C2B  767   8.062   2.913   8.671 -0.1459 -0.0622  0.2254
   18POPC   C3B  768   7.960   3.232   8.511 -0.0727  0.2251 -0.3374
   18POPC   C4B  769   7.899   3.775   8.450  0.0312  0.1347  0.1323
   19POPC   NC3  770   8.592   2.378   9.510  0.4046  0.1966  0.2825
   19POPC   PO4  771   8.577   2.688   9.348  0.3223 -0.2558  0.1882
   19POPC   GL1  772   8.384   3.070   9.046 -0.1053 -0.3209  0.1289
   19POPC   GL2  773   8.379   3.410   9.234 -0.0576 -0.2528 -0.1428
   19POPC   C1A  774   8.402   3.402   8.670 -0.1217 -0.2566  0.1140
   19POPC   D2A  775   8.357   3.865   8.693  0.4103 -0.0453 -0.1067
   19POPC   C3A  776   8.429   4.125   8.292 -0.0126 -0.0855 -0.0988
   19POPC   C4A  777   8.174   3.930   8.027 -0.1363 -0.0840  0.0095
   19POPC   C1B  778   8.805   3.396   9.080 -0.2765  0.4113 -0.2951
   19POPC   C2B  779   9.178   3.460   8.911  0.0910  0.0422  0.1903
   19POPC   C3B  780   9.577   3.480   8.842 -0.0924 -0.4670  0.3804
   19POPC   C4B  781  10.010   3.538   8.821 -0.1947  0.0241 -0.0667
   20POPC   NC3  782   8.743   0.203   9.065 -0.1323  0.2033 -0.0113
   20POPC   PO4  783   8.625   0.704   9.107  0.3116 -0.0632 -0.4100
   20POPC   GL1  784   8.442   0.555   8.824  0.1278  0.2441  0.1070
   20POPC   GL2  785   8.744   0.516   8.609 -0.0685 -0.0756 -0.1777
   20POPC   C1A  786   8.308   0.456   8.379 -0.0570  0.3222 -0.0010
   20POPC   D2A  787   8.394   0.212   7.966 -0.3835  0.0879  0.2650
   20POPC   C3A  788   8.495   0.379   7.548  0.2180  0.1153  0.0762
   20POPC   C4A  789   8.853   0.584   7.502  0.0592 -0.1445  0.1943
   20POPC   C1B  790   8.793   0.574   8.203 -0.0032 -0.2905  0.0172
   20POPC   C2B  791   8.514   0.692   7.969  0.1289 -0.0864  0.2500
   20POPC   C3B  792   8.268   0.918   7.685 -0.1610 -0.0834 -0.1694
   20POPC   C4B  793   8.359   0.893   7.348  0.1600  0.1578  0.0881
   21POPC   NC3  794   7.917   4.659   9.289  0.0488 -0.2958 -0.1746
   21POPC   PO4  795   7.497   4.524   9.271 -0.2254 -0.0313  0.0970
   21POPC   GL1  796   7.676   4.641   8.831  0.2936 -0.3219 -0.0700
   21POPC   GL2  797   7.359   4.844   8.789  0.1680 -0.4005 -0.1717
   21POPC   C1A  798   7.615   4.753   8.398  0.0948 -0.1183  0.1587
   21POPC   D2A  799   7.626   4.896   7.913 -0.1421 -0.1119 -0.0317
   21POPC   C3A  800   7.885   4.766   7.607  0.1518 -0.1381 -0.6091
   21POPC   C4A  801   8.246   4.510   7.498  0.3245 -0.1186  0.2133
   21POPC   C1B  802   7.381   5.187   8.462 -0.1644  0.0110 -0.1019
   21POPC   C2B  803   7.594   5.483   8.194  0.2172 -0.0379 -0.2566
   21POPC   C3B  804   7.651   5.709   7.837 -0.0306  0.0934  0.1263
   21POPC   C4B  805   7.439   5.887   7.444 -0.0586 -0.1690  0.1865
   22POPC   NC3  806   9.174   7.541   8.890 -0.0196 -0.0762 -0.2541
   22POPC   PO4  807   9.564   7.323   9.033  0.1091 -0.0130  0.0597
   22POPC   GL1  808   9.470   7.222   8.594  0.2022  0.2233 -0.0086
   22POPC   GL2  809   9.504   6.830   8.483  0.2994  0.2216 -0.0310
   22POPC   C1A  810   9.402   7.313   8.284  0.0982  0.0823  0.1895
   22POPC   D2A  811   9.340   7.578   7.990  0.2965  0.0361  0.2180
   22POPC   C3A  812   9.033   7.563   7.691  0.3433  0.1977 -0.1558
   22POPC   C4A  813   9.041   7.601   7.388 -0.2041 -0.1262  0.1548
   22POPC   C1B  814   9.434   6.627   8.053 -0.0449 -0.0056 -0.0438
   22POPC   C2B  815   9.370   6.747   7.583 -0.5166  0.2350  0.1874
   22POPC   C3B  816   9.156   6.549   7.230  0.2014 -0.0798 -0.1884
   22POPC   C4B  817   9.254   6.535   6.747 -0.0033 -0.1661 -0.0946
   23POPC   NC3  818   0.579   7.206   8.859  0.1198  0.2556  0.1560
   23POPC   PO4  819   0.284   7.002   8.571 -0.2684 -0.1235  0.1553
   23POPC   GL1  820   0.315   6.591   8.358 -0.1330 -0.0020 -0.2625
   23POPC   GL2  821   0.107   6.365   8.338 -0.1782  0.0700  0.0062
   23POPC   C1A  822   0.365   6.638   7.912  0.0382  0.0869 -0.2593
   23POPC   D2A  823   0.673   6.891   7.776 -0.0911  0.3248  0.2552
   23POPC   C3A  824   0.617   6.810   7.381  0.1516  0.0210  0.0934
   23POPC   C4A  825   0.621   6.693   7.011 -0.1465 -0.0730  0.1085
   23POPC   C1B  826   0.159   6.158   7.919  0.2009 -0.2180 -0.0324
   23POPC   C2B  827   0.480   6.048   7.564  0.0200  0.1864 -0.0015
   23POPC   C3B  828   0.602   6.224   7.074  0.2349  0.0335  0.1183
   23POPC   C4B  829   0.468   6.513   6.622 -0.0889 -0.2368  0.3956
   24POPC   NC3  830   4.649   6.934  10.076  0.0478 -0.4160 -0.1994
   24POPC   PO4  831   4.987   6.894  10.362 -0.0696 -0.0968  0.0566
   24POPC   GL1  832   5.169   7.128   9.965 -0.0801  0.1329  0.3418
   24POPC   GL2  833   5.372   7.420   9.712 -0.0500  0.0352 -0.2570
   24POPC   C1A  834   5.211   6.997   9.531  0.0725  0.1556  0.0901
   24POPC   D2A  835   5.156   7.012   9.071  0.1124  0.0358  0.0635
   24POPC   C3A  836   5.044   6.690   8.837 -0.0361  0.0896  0.0454
   24POPC   C4A  837   5.006   6.613   8.520  0.4374 -0.0706 -0.0377
   24POPC   C1B  838   5.358   7.460   9.306  0.1282  0.1101 -0.0113
   24POPC   C2B  839   5.190   7.490   8.824 -0.0474  0.0625 -0.3435
   24POPC   C3B  840   5.058   7.620   8.410 -0.1436 -0.0363  0.0804
   24POPC   C4B  841   4.896   7.793   8.084 -0.2464 -0.1557  0.1247
   25POPC   NC3  842   1.683   4.269   9.208  0.2774  0.2373 -0.1589
   25POPC   PO4  843   1.981   4.576   9.264  0.0793  0.1064  0.1500
   25POPC   GL1  844   2.186   4.790   8.931  0.0965  0.2678  0.0827
   25POPC   GL2  845   2.513   4.671   8.774  0.3541  0.1829  0.1027
   25POPC   C1A  846   2.103   4.978   8.554 -0.1403  0.0996  0.1565
   25POPC   D2A  847   2.431   5.265   8.212  0.2398  0.1586  0.0340
   25POPC   C3A  848   2.749   4.953   8.199  0.0782  0.0068  0.0191
   25POPC   C4A  849   2.968   4.690   8.450  0.0924 -0.1379  0.1391
   25POPC   C1B  850   2.414   4.625   8.212  0.2914  0.0287 -0.1484
   25POPC   C2B  851   2.349   4.566   7.824 -0.4262  0.0878 -0.2321
   25POPC   C3B  852   2.240   4.243   7.484  0.2230  0.1150  0.2548
   25POPC   C4B  853   2.081   4.165   7.044  0.3117 -0.2483 -0.1088
   26POPC   NC3  854   3.600   4.277  10.115 -0.0676  0.1873  0.1680
   26POPC   PO4  855   3.574   4.375   9.711  0.1149 -0.0462 -0.4245
   26POPC   GL1  856   3.313   4.439   9.319  0.0607  0.0344 -0.1775
   26POPC   GL2  857   3.430   4.711   9.105  0.0770  0.0342 -0.0108
   26POPC   C1A  858   3.172   4.376   8.877  0.2323  0.1336 -0.0475
   26POPC   D2A  859   3.438   4.564   8.533  0.0179  0.2056 -0.1445
   26POPC   C3A  860   3.330   4.609   8.054 -0.1665 -0.0251  0.2318
   26POPC   C4A  861   3.218   5.004   7.908 -0.2822 -0.0203  0.2805
   26POPC   C1B  862   3.639   4.992   8.826 -0.1640  0.0846 -0.0007
   26POPC   C2B  863   3.736   5.376   8.618 -0.0507  0.0095  0.0775
   26POPC   C3B  864   3.466   5.726   8.489  0.1486 -0.2196 -0.0473
   26POPC   C4B  865   3.390   6.009   8.210 -0.2772  0.0070 -0.2236
   27POPC   NC3  866   1.183   2.332   9.136  0.0286 -0.2270 -0.0342
   27POPC   PO4  867   0.869   2.691   9.076  0.2647 -0.0271 -0.3466
   27POPC   GL1  868   0.628   2.698   8.653 -0.3295  0.0795  0.3004
   27POPC   GL2  869   0.364   2.906   8.576  0.2654  0.0122  0.0788
   27POPC   C1A  870   0.639   2.692   8.168 -0.0912 -0.0428  0.0467
   27POPC   D2A  871   0.502   2.715   7.711  0.0129 -0.2065 -0.0888
   27POPC   C3A  872   0.214   2.954   7.605  0.0372 -0.0594  0.0439
   27POPC   C4A  873   0.088   3.138   7.238 -0.0023 -0.2358 -0.1223
   27POPC   C1B  874   0.196   3.013   8.151 -0.0124  0.1774  0.4861
   27POPC   C2B  875  -0.254   3.053   8.033 -0.0409 -0.1014  0.2316
   27POPC   C3B  876  -0.629   3.180   7.811  0.0365  0.3288 -0.3618
   27POPC   C4B  877  -0.651   2.999   7.382  0.0689  0.0973  0.1825
   28POPC   NC3  878   2.830   1.771   8.502 -0.0578  0.1358  0.0246
   28POPC   PO4  879   3.257   1.665   8.425  0.1766  0.2663  0.1785
   28POPC   GL1  880   3.299   1.692   7.927 -0.0202 -0.0943  0.1779
   28POPC   GL2  881   2.920   1.751   8.006 -0.0101 -0.1636 -0.0090
   28POPC   C1A  882   3.677   1.932   7.686 -0.1232 -0.0133 -0.0713
   28POPC   D2A  883   4.127   1.995   7.461 -0.3595 -0.1722 -0.3021
   28POPC   C3A  884   4.523   2.083   7.704  0.2236 -0.4332  0.0677
   28POPC   C4A  885   4.549   1.956   8.128  0.2678  0.4302 -0.0672
   28POPC   C1B  886   2.916   1.450   7.656  0.2651 -0.0909 -0.0354
   28POPC   C2B  887   2.954   1.027   7.393  0.0234 -0.0370  0.2480
   28POPC   C3B  888   2.753   0.703   7.226 -0.2360 -0.1137 -0.0976
   28POPC   C4B  889   2.383   0.445   7.152 -0.2199 -0.0896  0.0118
   29POPC   NC3  890   5.485   4.902   9.849  0.2486  0.0839  0.1927
   29POPC   PO4  891   5.763   4.738   9.542 -0.0732 -0.0278 -0.0831
   29POPC   GL1  892   6.058   4.792   9.163  0.0035  0.0196 -0.0434
   29POPC   GL2  893   6.220   4.522   9.017 -0.0726  0.4691 -0.0482
   29POPC   C1A  894   5.801   4.857   8.808 -0.0182 -0.1722 -0.1521
   29POPC   D2A  895   5.497   5.122   8.553 -0.0632  0.0482 -0.4094
   29POPC   C3A  896   5.650   5.507   8.441  0.2856 -0.0701 -0.0317
   29POPC   C4A  897   5.817   5.766   8.318  0.2422 -0.1013 -0.2205
   29POPC   C1B  898   5.926   4.346   8.762  0.1043 -0.1278  0.2783
   29POPC   C2B  899   5.585   4.507   8.646  0.3435  0.2742 -0.0621
   29POPC   C3B  900   5.235   4.636   8.580  0.2019  0.0270  0.0945
   29POPC   C4B  901   5.048   5.095   8.379  0.1012 -0.0909 -0.0911
   30POPC   NC3  902   3.653   2.000   8.758  0.1501 -0.0601  0.0102
   30POPC   PO4  903   3.492   2.423   8.818  0.0500 -0.0883  0.1965
   30POPC   GL1  904   3.409   2.583   8.381 -0.1933  0.1560 -0.1117
   30POPC   GL2  905   3.491   2.240   8.261 -0.3177 -0.0686 -0.0318
   30POPC   C1A  906   3.232   2.680   7.996  0.2238  0.2093 -0.2452
   30POPC   D2A  907   3.189   2.887   7.593  0.1551 -0.1948 -0.0303
   30POPC   C3A  908   3.135   3.304   7.485 -0.3930  0.1839  0.0828
   30POPC   C4A  909   3.361   3.657   7.501 -0.1818 -0.0204  0.0132
   30POPC   C1B  910   3.305   2.255   7.781 -0.5307  0.0937  0.2696
   30POPC   C2B  911   3.147   2.425   7.394  0.2470  0.0158  0.3486
   30POPC   C3B  912   3.223   2.870   7.080 -0.3067  0.1458 -0.1747
   30POPC   C4B  913   3.448   3.315   7.071 -0.3816 -0.1581  0.2097
   31POPC   NC3  914   5.738   2.035   9.492 -0.0395 -0.0601  0.1524
   31POPC   PO4  915   5.373   2.356   9.364  0.1283  0.0284 -0.1053
   31POPC   GL1  916   5.714   2.489   9.048 -0.1673  0.0650  0.3935
   31POPC   GL2  917   5.980   2.276   9.018  0.1209  0.1922 -0.0149
   31POPC   C1A  918   5.937   2.740   8.784  0.0624 -0.3674  0.0405
   31POPC   D2A  919   6.259   2.941   8.700  0.0046  0.0607 -0.0132
   31POPC   C3A  920   6.117   3.018   8.373  0.2924  0.1203  0.0061
   31POPC   C4A  921   6.177   2.864   7.899  0.1300  0.1500 -0.3765
   31POPC   C1B  922   6.058   2.321   8.586  0.1836  0.0485  0.0001
   31POPC   C2B  923   5.957   2.560   8.249 -0.1181  0.2938 -0.1331
   31POPC   C3B  924   5.659   2.798   8.033  0.2675  0.0964  0.0445
   31POPC   C4B  925   5.734   3.251   7.896 -0.2616 -0.1229  0.1714
   32POPC   NC3  926   8.283   1.030   8.983 -0.0280 -0.1388  0.1226
   32POPC   PO4  927   7.972   0.898   9.224 -0.0202  0.3774  0.0509
   32POPC   GL1  928   7.775   0.798   8.811  0.0869 -0.3307  0.0554
   32POPC   GL2  929   7.549   0.931   8.716 -0.4850 -0.0749 -0.0480
   32POPC   C1A  930   7.899   0.709   8.387  0.0917  0.2227  0.2756
   32POPC   D2A  931   7.989   0.542   7.912 -0.2610  0.0498  0.0286
   32POPC   C3A  932   7.976   0.239   7.598 -0.2394  0.0379 -0.1165
   32POPC   C4A  933   7.925   0.031   7.196  0.3909 -0.1931  0.4653
   32POPC   C1B  934   7.379   0.817   8.317 -0.0110  0.1604 -0.1610
   32POPC   C2B  935   7.576   0.914   7.930  0.0809  0.1041  0.1831
   32POPC   C3B  936   7.427   0.991   7.579 -0.1628  0.0993  0.2429
   32POPC   C4B  937   7.167   1.317   7.450 -0.2367  0.0862 -0.0339
   33POPC   NC3  938   0.539   1.233   9.575 -0.2702  0.1919 -0.0330
   33POPC   PO4  939   0.236   1.141   9.185  0.3179  0.0969  0.3060
   33POPC   GL1  940   0.080   0.995   8.732  0.1880 -0.2961  0.0805
   33POPC   GL2  941  -0.200   0.803   8.693  0.1983  0.0111  0.0103
   33POPC   C1A  942  -0.102   1.064   8.299  0.1396  0.2823  0.1796
   33POPC   D2A  943  -0.147   0.935   7.912  0.0827 -0.1493 -0.1305
   33POPC   C3A  944  -0.308   1.202   7.651  0.2191  0.2124  0.2079
   33POPC   C4A  945  -0.662   1.268   7.537  0.2221 -0.1989 -0.0900
   33POPC   C1B  946  -0.022   0.546   8.329  0.1285 -0.5470 -0.0086
   33POPC   C2B  947   0.123   0.218   8.043 -0.2093  0.2754 -0.0514
   33POPC   C3B  948  -0.142  -0.094   7.838  0.0343  0.0880 -0.3746
   33POPC   C4B  949  -0.531  -0.465   7.810 -0.3849  0.1902  0.3116
   34POPC   NC3  950   1.332   3.921   9.023 -0.4750 -0.1815 -0.2578
   34POPC   PO4  951   1.282   4.312   8.835  0.3289  0.2152 -0.1126
   34POPC   GL1  952   0.988   4.128   8.517 -0.0771 -0.0677 -0.2711
   34POPC   GL2  953   1.192   4.106   8.339  0.0301 -0.0156  0.0285
   34POPC   C1A  954   0.729   4.061   8.134  0.0472 -0.2736 -0.0919
   34POPC   D2A  955   0.423   4.005   7.788 -0.1012 -0.0714 -0.0094
   34POPC   C3A  956   0.165   4.290   7.665  0.2010  0.2941  0.1505
   34POPC   C4A  957   0.118   4.282   7.166  0.0757  0.1503  0.2232
   34POPC   C1B  958   1.426   4.361   7.998 -0.1211  0.1095 -0.4106
   34POPC   C2B  959   1.513   4.718   7.724  0.1067  0.1329  0.2040
   34POPC   C3B  960   1.246   4.982   7.378 -0.1407  0.1101 -0.2108
   34POPC   C4B  961   0.832   4.795   7.142  0.2610 -0.0581  0.0920
   35POPC   NC3  962   8.153   9.101   9.250 -0.2912 -0.0577 -0.1070
   35POPC   PO4  963   8.534   9.284   9.000 -0.0142  0.1345  0.0870
   35POPC   GL1  964   8.424   9.247   8.680  0.0534 -0.0690  0.0088
   35POPC   GL2  965   8.170   9.293   8.458  0.3828 -0.0628 -0.1169
   35POPC   C1A  966   8.537   9.196   8.212 -0.0455  0.2798 -0.0149
   35POPC   D2A  967   8.304   9.405   7.858 -0.0743 -0.0070  0.0736
   35POPC   C3A  968   8.346   9.423   7.444 -0.0435  0.2322  0.0085
   35POPC   C4A  969   8.164   9.214   7.087  0.1657 -0.0641 -0.3621
   35POPC   C1B  970   7.886   9.285   8.046  0.1698 -0.1640 -0.3104
   35POPC   C2B  971   7.376   9.302   8.051  0.0390  0.0842  0.0584
   35POPC   C3B  972   7.053   9.316   8.462  0.0193 -0.0432  0.1823
   35POPC   C4B  973   6.773   9.271   8.774 -0.0441 -0.0089  0.1152
   36POPC   NC3  974   7.940   3.683   9.188 -0.2605  0.2804  0.2229
   36POPC   PO4  975   8.313   3.970   9.184 -0.2635 -0.3400  0.0824
   36POPC   GL1  976   8.117   4.338   8.932 -0.1220  0.1510  0.0262
   36POPC   GL2  977   7.850   4.155   8.873  0.1741  0.4260 -0.2213
   36POPC   C1A  978   8.074   4.435   8.506 -0.0515 -0.1624  0.0950
   36POPC   D2A  979   8.016   4.520   8.020  0.2130  0.2862  0.1112
   36POPC   C3A  980   7.791   4.293   7.721  0.0326 -0.2565 -0.0629
   36POPC   C4A  981   7.370   4.142   7.464  0.0024 -0.3665 -0.0489
   36POPC   C1B  982   7.524   4.265   8.604  0.0842 -0.1329 -0.1313
   36POPC   C2B  983   7.528   4.312   8.161  0.1064  0.0041 -0.2301
   36POPC   C3B  984   7.258   4.507   7.809  0.0384 -0.1681 -0.1739
   36POPC   C4B  985   6.953   4.570   7.430 -0.0598 -0.1483 -0.0957
   37POPC   NC3  986   9.077   0.864   9.030 -0.1306  0.2750  0.0276
   37POPC   PO4  987   9.213   1.248   9.069 -0.2014  0.1125 -0.0843
   37POPC   GL1  988   9.208   1.410   8.596 -0.3225  0.1869 -0.0202
   37POPC   GL2  989   8.814   1.619   8.497  0.1392  0.1743  0.0519
   37POPC   C1A  990   9.324   1.660   8.219 -0.1693 -0.1780  0.0742
   37POPC   D2A  991   9.679   1.630   7.923 -0.0985 -0.0225  0.1250
   37POPC   C3A  992   9.516   1.861   7.495 -0.0075  0.1842 -0.1114
   37POPC   C4A  993   9.664   2.257   7.344 -0.1938  0.0445 -0.2288
   37POPC   C1B  994   8.847   1.812   8.145 -0.0765 -0.1690 -0.1349
   37POPC   C2B  995   8.733   2.112   7.863 -0.2989 -0.1333  0.1150
   37POPC   C3B  996   8.577   2.230   7.406 -0.1325 -0.0152 -0.0915
   37POPC   C4B  997   8.145   2.372   7.340  0.0124  0.1149  0.1360
   38POPC   NC3  998   1.796   1.934   8.816 -0.1877 -0.3546 -0.2462
   38POPC   PO4  999   1.508   1.624   8.789 -0.2691  0.2425  0.2478
   38POPC   GL1 1000   1.480   1.404   8.372  0.0774  0.0752 -0.0605
   38POPC   GL2 1001   1.409   1.065   8.514  0.2611  0.2010  0.0575
   38POPC   C1A 1002   1.233   1.268   7.983  0.1469  0.2016 -0.0801
   38POPC   D2A 1003   1.109   1.444   7.628  0.1639 -0.1038  0.0515
   38POPC   C3A 1004   1.343   1.787   7.482  0.0328  0.2426  0.0629
   38POPC   C4A 1005   1.338   2.148   7.721 -0.4469 -0.0492 -0.2366
   38POPC   C1B 1006   1.463   0.812   8.095  0.0011 -0.0746 -0.1118
   38POPC   C2B 1007   1.368   0.432   7.706 -0.1063 -0.2734  0.0964
   38POPC   C3B 1008   1.452   0.057   7.610 -0.1523  0.2556  0.0255
   38POPC   C4B 1009   1.836  -0.184   7.432  0.0087 -0.1961  0.1936
   39POPC   NC3 1010   8.143   5.844   9.606  0.2706 -0.2057  0.1145
   39POPC   PO4 1011   8.335   5.698   9.141 -0.2108 -0.1381  0.0359
   39POPC   GL1 1012   8.255   5.799   8.774  0.0865 -0.0217 -0.3010
   39POPC   GL2 1013   8.472   6.166   8.727  0.0331 -0.0881 -0.0098
   39POPC   C1A 1014   8.236   5.630   8.303  0.0569 -0.0649 -0.0397
   39POPC   D2A 1015   8.223   5.575   7.844  0.1356  0.1783  0.2448
   39POPC   C3A 1016   8.091   5.822   7.521 -0.1234  0.1797 -0.0381
   39POPC   C4A 1017   8.333   5.976   7.318 -0.0279  0.1775  0.3467
   39POPC   C1B 1018   8.576   6.044   8.296 -0.0172  0.0411  0.3129
   39POPC   C2B 1019   8.647   5.933   7.847  0.3709  0.0860  0.0433
   39POPC   C3B 1020   8.636   5.622   7.589 -0.1180  0.0275  0.1115
   39POPC   C4B 1021   8.853   5.336   7.309  0.1272  0.0607  0.2412
   40POPC   NC3 1022   9.824   1.354   9.562  0.1543 -0.4840  0.1749
   40POPC   PO4 1023  10.043   1.454   9.095  0.0653  0.2676 -0.3283
   40POPC   GL1 1024   9.739   1.277   8.793  0.2081  0.3210 -0.0979
   40POPC   GL2 1025   9.539   0.947   8.788 -0.1666 -0.0700  0.0504
   40POPC   C1A 1026   9.654   1.305   8.409  0.1173  0.3972 -0.1103
   40POPC   D2A 1027   9.427   1.124   8.022 -0.2292  0.2808  0.3371
   40POPC   C3A 1028   9.074   1.321   7.907  0.2504 -0.1745 -0.0793
   40POPC   C4A 1029   9.062   1.714   7.731  0.0225 -0.0605 -0.0051
   40POPC   C1B 1030   9.181   0.970   8.455  0.6251 -0.0381  0.0718
   40POPC   C2B 1031   8.797   1.071   8.205  0.1932  0.1140 -0.1054
   40POPC   C3B 1032   8.439   1.307   8.048  0.0151 -0.0428  0.2633
   40POPC   C4B 1033   8.172   1.647   8.194  0.1301  0.1287  0.0398
   41POPC   NC3 1034   1.117   1.873   8.555  0.0406 -0.0495 -0.3554
   41POPC   PO4 1035   1.348   2.118   8.737  0.0842  0.2694 -0.4046
   41POPC   GL1 1036   1.196   2.445   8.536  0.2398  0.0827  0.0599
   41POPC   GL2 1037   1.004   2.338   8.252 -0.2043  0.0106  0.2047
   41POPC   C1A 1038   1.415   2.785   8.154 -0.1549  0.1131 -0.0468
   41POPC   D2A 1039   1.473   2.754   7.809 -0.4551 -0.1355  0.1388
   41POPC   C3A 1040   1.264   2.587   7.514  0.3828  0.1319  0.2039
   41POPC   C4A 1041   1.108   2.316   7.243 -0.2812  0.2340 -0.2239
   41POPC   C1B 1042   0.982   2.421   7.896  0.0251 -0.1479 -0.2873
   41POPC   C2B 1043   0.681   2.324   7.539  0.1131 -0.1027  0.0918
   41POPC   C3B 1044   0.418   2.052   7.258  0.3785 -0.0900  0.3154
   41POPC   C4B 1045   0.451   1.791   6.886  0.2818 -0.1697  0.0011
   42POPC   NC3 1046   1.289   5.080   9.075 -0.2163  0.1726  0.0118
   42POPC   PO4 1047   1.178   4.740   9.181  0.1736  0.3801  0.1904
   42POPC   GL1 1048   1.180   4.744   8.671  0.2566 -0.1410  0.1273
   42POPC   GL2 1049   1.486   4.977   8.581 -0.0466 -0.1711 -0.0554
   42POPC   C1A 1050   1.138   5.013   8.235 -0.0951 -0.1069 -0.3568
   42POPC   D2A 1051   1.226   5.202   7.816 -0.2971 -0.2740  0.1410
   42POPC   C3A 1052   1.517   5.545   7.928  0.0180 -0.0743 -0.1213
   42POPC   C4A 1053   1.892   5.822   7.699 -0.2538 -0.2779 -0.0839
   42POPC   C1B 1054   1.736   4.656   8.447 -0.2476  0.1591  0.2047
   42POPC   C2B 1055   1.925   4.773   7.997 -0.1816 -0.0726 -0.0846
   42POPC   C3B 1056   2.001   4.779   7.564 -0.0470 -0.0233  0.0704
   42POPC   C4B 1057   2.073   4.834   7.137  0.0954 -0.1846  0.0716
   43POPC   NC3 1058   9.595   6.864   8.962 -0.0788 -0.0255  0.1561
   43POPC   PO4 1059   9.128   6.910   8.849 -0.2711  0.2462 -0.1507
   43POPC   GL1 1060   8.963   6.717   8.469  0.2624 -0.1286  0.2287
   43POPC   GL2 1061   8.898   6.349   8.529  0.4580  0.0194  0.1119
   43POPC   C1A 1062   8.820   6.760   8.056  0.0013  0.0027 -0.1540
   43POPC   D2A 1063   8.840   6.805   7.521  0.0168 -0.2215 -0.1440
   43POPC   C3A 1064   8.732   7.215   7.475 -0.0905 -0.0712  0.1979
   43POPC   C4A 1065   8.695   7.405   7.046 -0.2934  0.2057 -0.1426
   43POPC   C1B 1066   9.059   6.248   8.127  0.0361 -0.0714 -0.1056
   43POPC   C2B 1067   9.148   6.299   7.665  0.0497 -0.3200  0.2314
   43POPC   C3B 1068   9.454   6.187   7.423 -0.5146  0.1015 -0.1959
   43POPC   C4B 1069   9.484   6.153   6.973 -0.0346  0.1229  0.1838
   44POPC   NC3 1070   9.395   1.579   9.375  0.1503 -0.1759 -0.0472
   44POPC   PO4 1071   9.261   1.988   9.213  0.1528 -0.0479  0.1698
   44POPC   GL1 1072   9.051   2.237   8.860  0.1952  0.2745 -0.1721
   44POPC   GL2 1073   8.738   2.375   8.995  0.0266  0.4691 -0.1589
   44POPC   C1A 1074   8.950   2.263   8.393  0.3631 -0.0788 -0.0620
   44POPC   D2A 1075   8.541   2.576   8.215 -0.4625 -0.2013  0.1439
   44POPC   C3A 1076   8.388   2.605   7.804 -0.0414  0.2296  0.0327
   44POPC   C4A 1077   8.246   2.831   7.473 -0.2017  0.0470 -0.1771
   44POPC   C1B 1078   8.496   2.549   8.715 -0.1199  0.2192  0.2305
   44POPC   C2B 1079   8.505   2.919   8.526  0.0671 -0.0827 -0.0210
   44POPC   C3B 1080   8.644   3.057   8.136  0.0000 -0.0329  0.0324
   44POPC   C4B 1081   8.671   3.087   7.704  0.4649  0.0681  0.1911
   45POPC   NC3 1082   9.509   9.751   9.100 -0.0437  0.0118  0.0581
   45POPC   PO4 1083   9.969   9.763   9.034  0.0719 -0.3103 -0.1436
   45POPC   GL1 1084   9.821   9.467   8.688  0.1324  0.1759 -0.0774
   45POPC   GL2 1085   9.987   9.475   8.464 -0.0346 -0.3815  0.3469
   45POPC   C1A 1086   9.602   9.447   8.214 -0.0316 -0.0785  0.1127
   45POPC   D2A 1087   9.546   9.259   7.789  0.3035 -0.0423 -0.0316
   45POPC   C3A 1088   9.708   8.865   7.598 -0.1631 -0.2205 -0.0164
   45POPC   C4A 1089   9.987   8.731   7.202 -0.2493 -0.1070 -0.2443
   45POPC   C1B 1090  10.060   9.476   8.029  0.0783 -0.1141  0.2083
   45POPC   C2B 1091  10.041   9.251   7.653  0.2301  0.0228 -0.1559
   45POPC   C3B 1092   9.841   9.200   7.301 -0.0847 -0.3580 -0.0249
   45POPC   C4B 1093   9.592   9.187   6.845 -0.1027  0.2324  0.2643
   46POPC   NC3 1094   7.171   6.629   9.514  0.1889  0.4040 -0.4621
   46POPC   PO4 1095   7.338   6.211   9.586 -0.0806  0.0815  0.0527
   46POPC   GL1 1096   7.414   6.259   9.179 -0.3926 -0.0412  0.0282
   46POPC   GL2 1097   7.494   6.036   8.943  0.2078 -0.1018  0.0148
   46POPC   C1A 1098   7.358   6.430   8.676 -0.1493 -0.1711 -0.1704
   46POPC   D2A 1099   7.654   6.451   8.310  0.1338 -0.0874  0.0399
   46POPC   C3A 1100   7.580   6.211   7.850 -0.1345  0.1682  0.0001
   46POPC   C4A 1101   7.263   6.369   7.664  0.0695 -0.1681  0.0466
   46POPC   C1B 1102   7.008   6.009   8.772 -0.0145 -0.0444  0.3318
   46POPC   C2B 1103   6.707   6.102   8.443 -0.3194  0.0372 -0.1589
   46POPC   C3B 1104   6.357   6.196   8.137 -0.0652  0.2498 -0.3910
   46POPC   C4B 1105   6.151   6.525   7.889 -0.0261  0.0373 -0.0201
   47POPC   NC3 1106   6.933  10.192   9.245 -0.3241  0.1031  0.0205
   47POPC   PO4 1107   6.849   9.768   9.244 -0.2298 -0.3599  0.3561
   47POPC   GL1 1108   6.899   9.831   8.737 -0.1492  0.0279 -0.4274
   47POPC   GL2 1109   6.597   9.785   8.585  0.0681 -0.2555 -0.1294
   47POPC   C1A 1110   6.937   9.915   8.245 -0.0910  0.3675  0.1234
   47POPC   D2A 1111   7.058   9.780   7.870 -0.0644 -0.0895 -0.1005
   47POPC   C3A 1112   7.062  10.030   7.543  0.2904  0.1501  0.0299
   47POPC   C4A 1113   6.964  10.447   7.456  0.0919  0.0562 -0.2152
   47POPC   C1B 1114   6.510   9.448   8.359 -0.3167  0.2417  0.4542
   47POPC   C2B 1115   6.845   9.304   7.909 -0.2147  0.1260 -0.3565
   47POPC   C3B 1116   7.069   9.171   7.660  0.0941 -0.0275 -0.3608
   47POPC   C4B 1117   7.414   8.776   7.688 -0.0463 -0.0101  0.1491
   48POPC   NC3 1118   2.701  10.202   8.894 -0.0579  0.0160 -0.1516
   48POPC   PO4 1119   2.853  10.368   8.576 -0.0740  0.4650  0.0659
   48POPC   GL1 1120   2.751  10.303   8.224 -0.2740 -0.1424  0.0157
   48POPC   GL2 1121   2.659  10.730   8.315  0.2531  0.1863  0.0464
   48POPC   C1A 1122   2.581   9.967   7.950  0.3260  0.1668 -0.2141
   48POPC   D2A 1123   2.706   9.531   7.717 -0.0599 -0.1081  0.0733
   48POPC   C3A 1124   2.453   9.168   7.614 -0.1572  0.0187 -0.1546
   48POPC   C4A 1125   2.399   9.215   7.199 -0.1627 -0.4290 -0.0349
   48POPC   C1B 1126   2.639  10.622   7.906  0.2960 -0.1762  0.1173
   48POPC   C2B 1127   2.667  10.383   7.532  0.1322  0.1042  0.3446
   48POPC   C3B 1128   2.647  10.187   7.083  0.0736  0.0814 -0.1064
   48POPC   C4B 1129   2.955  10.008   6.726  0.0052 -0.0247  0.2930
   49POPC   NC3 1130   6.805   7.331   9.723  0.3199  0.0486 -0.2046
   49POPC   PO4 1131   6.733   6.941   9.593 -0.2729  0.2890 -0.0110
   49POPC   GL1 1132   6.842   6.772   9.167 -0.2005 -0.0146  0.0936
   49POPC   GL2 1133   6.934   6.405   9.118 -0.2226 -0.4100 -0.0128
   49POPC   C1A 1134   6.981   6.881   8.807 -0.1712  0.2576  0.0562
   49POPC   D2A 1135   6.972   6.629   8.415 -0.3493 -0.1310 -0.1352
   49POPC   C3A 1136   7.207   6.650   8.076 -0.1640 -0.1548  0.0445
   49POPC   C4A 1137   7.484   6.952   8.013 -0.0900  0.2586  0.0471
   49POPC   C1B 1138   6.728   6.429   8.814  0.0807  0.1130  0.0331
   49POPC   C2B 1139   6.466   6.519   8.545 -0.2779 -0.0338  0.1026
   49POPC   C3B 1140   6.607   6.947   8.352  0.3289  0.0545 -0.0050
   49POPC   C4B 1141   6.618   7.353   8.618  0.0947 -0.0833  0.0074
   50POPC   NC3 1142   3.571  10.119   9.106  0.1493  0.0633  0.1697
   50POPC   PO4 1143   3.153   9.973   8.906  0.0170  0.1193  0.1763
   50POPC   GL1 1144   2.870   9.850   8.557  0.2460 -0.1211  0.1608
   50POPC   GL2 1145   3.117   9.982   8.266 -0.0520  0.0960 -0.0392
   50POPC   C1A 1146   2.764   9.572   8.224 -0.1365  0.1443 -0.0985
   50POPC   D2A 1147   2.636   9.224   8.073  0.0114  0.1905 -0.1724
   50POPC   C3A 1148   2.296   9.198   8.354  0.0371  0.2368  0.0800
   50POPC   C4A 1149   2.114   9.164   8.751  0.3321 -0.0760  0.2037
   50POPC   C1B 1150   3.186   9.743   7.793 -0.0824  0.2548  0.1436
   50POPC   C2B 1151   3.166   9.504   7.456 -0.1328  0.5786 -0.0388
   50POPC   C3B 1152   3.454   9.196   7.156  0.1262 -0.1320  0.1086
   50POPC   C4B 1153   3.801   8.896   7.052 -0.2460 -0.4601  0.0618
   51POPC   NC3 1154   6.862   3.249   9.290  0.3271 -0.0979  0.0108
   51POPC   PO4 1155   6.856   2.761   9.148  0.1175 -0.3257 -0.4319
   51POPC   GL1 1156   6.740   3.001   8.808 -0.4313 -0.1592  0.2774
   51POPC   GL2 1157   6.875   3.231   8.551 -0.2391  0.0079 -0.2614
   51POPC   C1A 1158   6.619   2.944   8.354 -0.1815  0.1870  0.0266
   51POPC   D2A 1159   6.680   2.790   7.962  0.0410  0.2858 -0.0365
   51POPC   C3A 1160   6.411   2.369   7.889  0.0217 -0.1933  0.1026
   51POPC   C4A 1161   6.365   1.984   7.750  0.0117 -0.2163  0.2980
   51POPC   C1B 1162   7.033   3.085   8.157 -0.0279  0.2041  0.1235
   51POPC   C2B 1163   7.138   3.030   7.717 -0.2653 -0.2172 -0.0129
   51POPC   C3B 1164   7.028   3.301   7.317  0.1545  0.2065  0.6208
   51POPC   C4B 1165   6.770   3.531   7.043 -0.1098  0.0846  0.1901
   52POPC   NC3 1166   1.797   7.622   9.353 -0.1607  0.4061 -0.1635
   52POPC   PO4 1167   1.550   7.813   8.986  0.0619  0.2194 -0.2174
   52POPC   GL1 1168   1.461   7.804   8.523  0.2037  0.1477  0.0138
   52POPC   GL2 1169   1.378   7.499   8.473  0.0999  0.0795 -0.1328
   52POPC   C1A 1170   1.249   8.007   8.185 -0.0460 -0.1466 -0.2815
   52POPC   D2A 1171   1.134   8.225   7.740 -0.0097 -0.0115  0.0982
   52POPC   C3A 1172   1.288   8.115   7.424  0.0299 -0.2963 -0.3108
   52POPC   C4A 1173   1.463   7.934   7.051  0.0178 -0.1337 -0.2585
   52POPC   C1B 1174   1.369   7.524   8.016 -0.1488 -0.1635 -0.4772
   52POPC   C2B 1175   1.383   7.355   7.607 -0.1412 -0.1125  0.3173
   52POPC   C3B 1176   1.414   7.275   7.215 -0.0223 -0.1659  0.0076
   52POPC   C4B 1177   1.753   7.092   7.008 -0.1243 -0.0436 -0.1438
   53POPC   NC3 1178   8.603   8.416   8.961  0.1722  0.2247  0.2268
   53POPC   PO4 1179   8.337   8.758   8.851  0.0411 -0.1589 -0.1965
   53POPC   GL1 1180   8.335   8.749   8.482 -0.1840 -0.1909  0.0164
   53POPC   GL2 1181   8.431   8.562   8.385 -0.0218 -0.1429  0.1028
   53POPC   C1A 1182   8.120   8.858   8.122  0.3678 -0.2314 -0.3605
   53POPC   D2A 1183   7.711   8.836   8.074  0.4291  0.2600 -0.0071
   53POPC   C3A 1184   7.477   8.365   8.127  0.2318 -0.0447 -0.3626
   53POPC   C4A 1185   7.274   7.974   7.996  0.1443 -0.0952  0.1639
   53POPC   C1B 1186   8.411   8.450   7.950  0.0159 -0.1570  0.0358
   53POPC   C2B 1187   8.423   8.559   7.488 -0.0206  0.1823 -0.1862
   53POPC   C3B 1188   8.369   8.782   7.145  0.1083  0.0363 -0.0206
   53POPC   C4B 1189   8.365   8.833   6.746 -0.1434 -0.1129  0.1105
   54POPC   NC3 1190   6.124   7.874  10.440 -0.3200  0.2969 -0.0528
   54POPC   PO4 1191   6.086   7.606  10.116 -0.0554  0.3364  0.0451
   54POPC   GL1 1192   6.061   7.290   9.739 -0.1793 -0.0426 -0.2573
   54POPC   GL2 1193   6.301   7.207   9.699  0.2271 -0.0486  0.0337
   54POPC   C1A 1194   5.815   7.133   9.391  0.0995  0.0438 -0.0935
   54POPC   D2A 1195   5.660   7.132   8.973  0.0756  0.0433  0.2467
   54POPC   C3A 1196   5.387   7.033   8.667 -0.0409 -0.1344  0.1903
   54POPC   C4A 1197   4.864   7.119   8.630  0.3174 -0.2803 -0.2033
   54POPC   C1B 1198   6.223   7.308   9.222 -0.2140 -0.0126  0.0351
   54POPC   C2B 1199   6.107   7.382   8.822  0.3098  0.0839 -0.0143
   54POPC   C3B 1200   5.953   7.050   8.594  0.1917  0.0718  0.0129
   54POPC   C4B 1201   6.028   6.642   8.405 -0.1990  0.0089  0.1390
   55POPC   NC3 1202   4.285   3.410   9.847  0.0033  0.1592  0.0097
   55POPC   PO4 1203   4.278   3.390   9.351  0.4684 -0.1017 -0.2758
   55POPC   GL1 1204   4.363   3.345   8.851 -0.0737  0.0723 -0.0603
   55POPC   GL2 1205   3.996   3.225   8.712 -0.2830 -0.0301 -0.0571
   55POPC   C1A 1206   4.355   3.505   8.516 -0.1422 -0.0440 -0.0229
   55POPC   D2A 1207   4.427   3.563   8.038 -0.0850 -0.0229 -0.3208
   55POPC   C3A 1208   4.314   3.414   7.756 -0.0226 -0.1007 -0.1526
   55POPC   C4A 1209   4.246   3.681   7.341 -0.0852  0.3436  0.3191
   55POPC   C1B 1210   3.942   3.755   8.552 -0.1215 -0.2418  0.0239
   55POPC   C2B 1211   3.934   4.195   8.270  0.1317 -0.0100  0.1344
   55POPC   C3B 1212   3.702   4.277   7.970 -0.0100  0.0744 -0.3576
   55POPC   C4B 1213   3.768   4.689   7.722 -0.0204  0.3818 -0.0291
   56POPC   NC3 1214   2.904   1.366   9.220 -0.1252 -0.3816 -0.1513
   56POPC   PO4 1215   3.201   1.512   8.907 -0.4199  0.0120  0.2552
   56POPC   GL1 1216   3.211   1.175   8.595 -0.0243  0.0279 -0.0385
   56POPC   GL2 1217   3.022   1.278   8.190 -0.2854  0.0319  0.0528
   56POPC   C1A 1218   3.016   0.832   8.370 -0.0242  0.0862  0.1337
   56POPC   D2A 1219   2.701   0.867   7.987  0.1476  0.1367 -0.0761
   56POPC   C3A 1220   2.441   0.833   7.623 -0.1189 -0.0061  0.2011
   56POPC   C4A 1221   2.232   0.571   7.611  0.2411  0.1788 -0.2931
   56POPC   C1B 1222   3.242   0.967   7.858 -0.2476 -0.0359 -0.3888
   56POPC   C2B 1223   3.186   0.635   7.492  0.0874  0.2914 -0.1093
   56POPC   C3B 1224   3.309   0.263   7.199  0.2954  0.0634  0.1390
   56POPC   C4B 1225   3.356  -0.155   7.072  0.1297 -0.1576 -0.2535
   57POPC   NC3 1226   4.349  10.161   9.603 -0.0099  0.2208 -0.3332
   57POPC   PO4 1227   4.248  10.137   9.199  0.0695 -0.3149  0.1548
   57POPC   GL1 1228   4.157  10.029   8.760 -0.0020 -0.0796  0.2280
   57POPC   GL2 1229   3.899  10.132   8.702  0.1670  0.1566  0.1090
   57POPC   C1A 1230   4.247   9.866   8.330  0.1665 -0.3660 -0.3497
   57POPC   D2A 1231   4.007   9.812   7.945 -0.0304  0.0135  0.1085
   57POPC   C3A 1232   4.085   9.791   7.520 -0.0699 -0.0032  0.1390
   57POPC   C4A 1233   3.970   9.831   7.088  0.3206  0.3205  0.2331
   57POPC   C1B 1234   3.745  10.089   8.337 -0.0406 -0.2622 -0.1194
   57POPC   C2B 1235   3.478  10.194   7.982 -0.2658  0.2542  0.0406
   57POPC   C3B 1236   3.620  10.014   7.612  0.0923 -0.2180 -0.1134
   57POPC   C4B 1237   3.579   9.666   7.270  0.0316 -0.0837  0.1879
   58POPC   NC3 1238   9.301   3.955   9.694 -0.1291 -0.2083 -0.0503
   58POPC   PO4 1239   9.307   4.034   9.314 -0.1049  0.0179  0.0243
   58POPC   GL1 1240   9.254   3.910   8.769  0.1530 -0.0776 -0.0537
   58POPC   GL2 1241   9.260   3.714   8.331 -0.0301 -0.0061  0.2441
   58POPC   C1A 1242   8.857   3.834   8.535  0.0553  0.2191 -0.2446
   58POPC   D2A 1243   8.800   3.600   8.178 -0.2402 -0.0705 -0.1634
   58POPC   C3A 1244   8.593   3.767   7.882  0.0315 -0.2169  0.0879
   58POPC   C4A 1245   8.690   3.592   7.560  0.1861  0.0365 -0.1696
   58POPC   C1B 1246   9.214   3.665   7.887  0.1053 -0.0240 -0.3299
   58POPC   C2B 1247   9.198   3.583   7.496  0.0926  0.3560 -0.1823
   58POPC   C3B 1248   9.285   3.918   7.196 -0.1043 -0.2179  0.2166
   58POPC   C4B 1249   9.432   4.140   6.861 -0.1248 -0.0925 -0.0533
   59POPC   NC3 1250   7.989   6.676   9.512 -0.0311 -0.4485  0.1575
   59POPC   PO4 1251   7.653   6.590   9.444 -0.2266  0.2152  0.1113
   59POPC   GL1 1252   7.783   6.524   8.980  0.3784 -0.0462 -0.1986
   59POPC   GL2 1253   7.950   6.703   8.904 -0.1128 -0.2171 -0.1377
   59POPC   C1A 1254   7.932   6.201   8.734 -0.4030  0.1880  0.1840
   59POPC   D2A 1255   8.086   6.201   8.439 -0.2548 -0.0499  0.0762
   59POPC   C3A 1256   8.131   6.040   8.013 -0.1186 -0.0744 -0.1612
   59POPC   C4A 1257   8.034   6.399   7.892  0.0738 -0.3193 -0.3803
   59POPC   C1B 1258   8.007   6.942   8.478  0.1637  0.3669 -0.3237
   59POPC   C2B 1259   8.026   6.928   8.026  0.0329  0.3202  0.1973
   59POPC   C3B 1260   7.713   6.748   7.619  0.2522  0.2781 -0.0937
   59POPC   C4B 1261   7.586   6.627   7.238  0.2177  0.2633  0.0852
   60POPC   NC3 1262   2.241   6.888   9.667 -0.0154  0.0369  0.0426
   60POPC   PO4 1263   1.857   7.121   9.555  0.4284  0.0500  0.2336
   60POPC   GL1 1264   1.849   7.010   9.073  0.1312  0.0445  0.1152
   60POPC   GL2 1265   1.639   7.296   8.849  0.0610  0.0073  0.4614
   60POPC   C1A 1266   2.131   7.109   8.673 -0.1767 -0.0088  0.1577
   60POPC   D2A 1267   2.471   6.987   8.322 -0.1873 -0.0136  0.1063
   60POPC   C3A 1268   2.907   7.173   8.422 -0.2001 -0.1862  0.2038
   60POPC   C4A 1269   3.173   7.456   8.481  0.0019 -0.0014  0.1078
   60POPC   C1B 1270   1.622   7.056   8.451  0.0630  0.0428 -0.2656
   60POPC   C2B 1271   1.507   7.005   7.982  0.0794  0.4138  0.0170
   60POPC   C3B 1272   1.573   6.848   7.626  0.0097  0.1841 -0.0979
   60POPC   C4B 1273   1.380   6.500   7.545 -0.2368  0.3275  0.0607
   61POPC   NC3 1274   2.315   1.374   8.946  0.0711 -0.1678  0.0145
   61POPC   PO4 1275   2.335   1.675   8.616 -0.1563 -0.0123  0.1121
   61POPC   GL1 1276   2.481   1.933   8.235 -0.2052  0.1901 -0.2639
   61POPC   GL2 1277   2.400   1.814   8.012 -0.0620 -0.2173  0.2448
   61POPC   C1A 1278   2.528   2.386   8.026  0.2507 -0.0358  0.2019
   61POPC   D2A 1279   2.426   2.586   7.739 -0.0852  0.3111 -0.1291
   61POPC   C3A 1280   2.273   2.372   7.321  0.2996 -0.1366  0.1894
   61POPC   C4A 1281   2.043   2.110   6.960  0.1762 -0.2945 -0.1302
   61POPC   C1B 1282   2.536   1.744   7.594 -0.0315 -0.3548  0.3179
   61POPC   C2B 1283   2.667   2.063   7.231 -0.2426 -0.0088  0.0289
   61POPC   C3B 1284   3.107   2.091   7.033 -0.2614  0.0127 -0.2912
   61POPC   C4B 1285   3.487   1.885   7.019  0.0439 -0.0141 -0.0300
   62POPC   NC3 1286   0.486   8.261   8.959  0.2556 -0.1223  0.1458
   62POPC   PO4 1287   0.887   8.516   9.019  0.1248 -0.0229 -0.1581
   62POPC   GL1 1288   0.727   8.484   8.578  0.3059  0.2210  0.0249
   62POPC   GL2 1289   0.346   8.440   8.491  0.2439 -0.0310  0.0089
   62POPC   C1A 1290   0.864   8.365   8.192  0.1498 -0.1337 -0.1754
   62POPC   D2A 1291   0.715   8.112   7.889 -0.1149  0.1440  0.0789
   62POPC   C3A 1292   0.345   8.232   7.673 -0.2186  0.1064 -0.2029
   62POPC   C4A 1293   0.282   8.311   7.313 -0.0558  0.0978  0.1572
   62POPC   C1B 1294   0.368   8.527   8.089  0.3118  0.2594  0.0854
   62POPC   C2B 1295   0.706   8.588   7.742  0.2707 -0.1588  0.1220
   62POPC   C3B 1296   0.733   8.601   7.282  0.0601 -0.0067 -0.0916
   62POPC   C4B 1297   1.045   8.764   6.988 -0.1403 -0.1329  0.1947
   63POPC   NC3 1298   3.043   7.607   9.847 -0.2012  0.2160 -0.0705
   63POPC   PO4 1299   2.630   7.835   9.732  0.1590 -0.0081 -0.0825
   63POPC   GL1 1300   2.968   7.609   9.395  0.0438 -0.3832  0.0028
   63POPC   GL2 1301   3.132   7.722   9.219  0.1072  0.1423 -0.1356
   63POPC   C1A 1302   2.867   7.313   9.058  0.1076 -0.0215  0.0618
   63POPC   D2A 1303   2.606   7.033   8.851 -0.0026 -0.0122 -0.5089
   63POPC   C3A 1304   2.650   6.581   8.897  0.0959  0.1347 -0.1323
   63POPC   C4A 1305   2.475   6.175   8.814 -0.2497 -0.0652  0.1495
   63POPC   C1B 1306   3.018   7.765   8.874  0.0105  0.2517 -0.0169
   63POPC   C2B 1307   2.866   7.930   8.505  0.2360  0.2542 -0.0456
   63POPC   C3B 1308   3.012   8.019   8.157  0.1919  0.0961  0.2056
   63POPC   C4B 1309   3.025   8.385   7.882  0.2824 -0.1764  0.3539
   64POPC   NC3 1310   7.237   2.498   9.664  0.0469 -0.4357 -0.1164
   64POPC   PO4 1311   7.331   2.769   9.299 -0.1459  0.1739 -0.0438
   64POPC   GL1 1312   7.275   2.564   8.855 -0.2603  0.2101 -0.0183
   64POPC   GL2 1313   7.623   2.502   8.691 -0.1292  0.1025 -0.0691
   64POPC   C1A 1314   7.103   2.656   8.528  0.0760 -0.1321  0.0125
   64POPC   D2A 1315   7.287   2.691   8.144 -0.4402 -0.1405 -0.0725
   64POPC   C3A 1316   7.642   2.751   8.203 -0.0640 -0.1189  0.1135
   64POPC   C4A 1317   8.031   2.922   8.055  0.0359  0.0026  0.3460
   64POPC   C1B 1318   7.640   2.254   8.334 -0.1033  0.0410 -0.1361
   64POPC   C2B 1319   7.805   2.252   7.884 -0.2065 -0.2645 -0.0972
   64POPC   C3B 1320   7.809   2.658   7.676 -0.0161 -0.3237  0.0083
   64POPC   C4B 1321   7.789   3.199   7.625  0.1918 -0.1147  0.0659
   65POPC   NC3 1322   7.319   2.230   9.225 -0.0469  0.2088  0.1622
   65POPC   PO4 1323   7.761   2.112   8.991 -0.2200  0.0494  0.0570
   65POPC   GL1 1324   7.385   1.966   8.800 -0.0710 -0.0602  0.1463
   65POPC   GL2 1325   7.161   1.600   8.866 -0.3438 -0.3936  0.2531
   65POPC   C1A 1326   7.103   2.045   8.510 -0.0514 -0.3369  0.0548
   65POPC   D2A 1327   6.810   2.053   8.221  0.1672  0.1280 -0.1672
   65POPC   C3A 1328   6.927   2.370   7.872 -0.0909 -0.0275  0.0052
   65POPC   C4A 1329   6.939   2.625   7.458 -0.1957 -0.5217  0.1167
   65POPC   C1B 1330   7.276   1.376   8.390 -0.2939 -0.0276  0.0409
   65POPC   C2B 1331   7.033   1.632   8.030  0.0188 -0.0010 -0.2348
   65POPC   C3B 1332   6.789   1.590   7.676  0.0257 -0.0819  0.1439
   65POPC   C4B 1333   6.395   1.708   7.273 -0.1032 -0.0602  0.0658
   66POPC   NC3 1334   6.263   5.016   9.615 -0.1276  0.1528  0.1140
   66POPC   PO4 1335   6.638   4.711   9.688  0.2464  0.2867 -0.0074
   66POPC   GL1 1336   6.584   4.805   9.246  0.2396  0.0924  0.0042
   66POPC   GL2 1337   6.576   5.083   9.258  0.1115  0.3928 -0.1574
   66POPC   C1A 1338   6.742   4.675   8.747  0.0119  0.1789  0.0080
   66POPC   D2A 1339   6.611   4.354   8.564 -0.2227 -0.1448  0.0887
   66POPC   C3A 1340   6.654   4.399   8.166 -0.1912 -0.1923  0.1050
   66POPC   C4A 1341   6.754   4.623   7.876 -0.1694 -0.0111  0.1573
   66POPC   C1B 1342   6.492   5.108   8.848 -0.1014 -0.1393 -0.2717
   66POPC   C2B 1343   6.250   4.906   8.581  0.1477 -0.0564  0.0731
   66POPC   C3B 1344   6.177   4.540   8.379  0.0319  0.1258  0.0714
   66POPC   C4B 1345   6.241   4.364   7.975 -0.0379  0.1076 -0.0139
   67POPC   NC3 1346   4.465   4.190   9.300  0.0439  0.1931 -0.3916
   67POPC   PO4 1347   4.325   3.889   9.078 -0.0134  0.3068 -0.1446
   67POPC   GL1 1348   4.357   4.042   8.714 -0.1393  0.1237  0.0405
   67POPC   GL2 1349   4.169   4.260   8.714 -0.2076 -0.0870 -0.3463
   67POPC   C1A 1350   4.403   4.030   8.242 -0.0747 -0.2196 -0.1333
   67POPC   D2A 1351   4.158   4.310   7.833 -0.2201 -0.0030 -0.1000
   67POPC   C3A 1352   3.810   4.156   7.515 -0.1260  0.1109  0.2321
   67POPC   C4A 1353   3.797   3.787   7.147  0.1982 -0.1057 -0.1733
   67POPC   C1B 1354   4.396   4.647   8.750  0.1373 -0.0746 -0.2661
   67POPC   C2B 1355   4.607   5.109   8.682 -0.0656  0.0428 -0.0134
   67POPC   C3B 1356   4.860   5.502   8.667 -0.1105 -0.2520 -0.2418
   67POPC   C4B 1357   4.659   5.827   8.420  0.0720  0.1197  0.0536
   68POPC   NC3 1358   8.303   8.352   9.734  0.1323  0.1446 -0.0730
   68POPC   PO4 1359   7.878   8.196   9.544 -0.1135 -0.2330  0.2060
   68POPC   GL1 1360   7.755   8.285   9.106 -0.1460  0.0343 -0.2550
   68POPC   GL2 1361   7.994   8.373   8.887  0.1016  0.0155 -0.1420
   68POPC   C1A 1362   7.466   8.234   8.729 -0.2045  0.1656  0.0566
   68POPC   D2A 1363   7.016   8.195   8.643 -0.1388 -0.0001 -0.0942
   68POPC   C3A 1364   6.947   8.387   8.236  0.1132 -0.0678  0.1903
   68POPC   C4A 1365   6.999   8.541   7.757 -0.0605 -0.4908  0.2721
   68POPC   C1B 1366   7.919   8.423   8.460  0.0504  0.0647  0.1276
   68POPC   C2B 1367   7.950   8.388   7.976 -0.1675  0.1213 -0.0873
   68POPC   C3B 1368   7.884   8.593   7.608  0.0870 -0.0520  0.0302
   68POPC   C4B 1369   7.609   8.626   7.266  0.0678 -0.1067  0.2254
   69POPC   NC3 1370   9.909   2.641   9.537  0.0155  0.1189  0.1065
   69POPC   PO4 1371   9.640   2.384   9.374 -0.0140  0.0419 -0.0949
   69POPC   GL1 1372   9.626   2.288   8.983  0.0845 -0.0662  0.0581
   69POPC   GL2 1373   9.809   2.224   8.716  0.1003  0.1182  0.0024
   69POPC   C1A 1374   9.458   2.551   8.625  0.1899  0.0595  0.2802
   69POPC   D2A 1375   9.563   2.784   8.258  0.2640 -0.2807  0.2003
   69POPC   C3A 1376   9.712   2.633   7.811  0.1621 -0.2075  0.2952
   69POPC   C4A 1377   9.976   2.799   7.514 -0.1080  0.0038 -0.2371
   69POPC   C1B 1378  10.016   2.110   8.272  0.4136 -0.4367  0.2874
   69POPC   C2B 1379   9.938   2.026   7.830 -0.0202 -0.1378 -0.1820
   69POPC   C3B 1380  10.081   1.996   7.453  0.1419 -0.0081 -0.0428
   69POPC   C4B 1381  10.060   2.204   7.082  0.1280 -0.4338  0.1139
   70POPC   NC3 1382   8.756   7.363   9.632 -0.0489  0.2213 -0.2042
   70POPC   PO4 1383   8.424   7.566   9.453 -0.3852  0.1323  0.0526
   70POPC   GL1 1384   8.195   7.533   9.117 -0.1607 -0.0753 -0.1203
   70POPC   GL2 1385   8.194   7.430   8.812 -0.0373 -0.3008 -0.1428
   70POPC   C1A 1386   7.905   7.837   8.851  0.0351 -0.2283  0.0824
   70POPC   D2A 1387   7.737   7.875   8.355 -0.1169  0.1773 -0.0652
   70POPC   C3A 1388   7.768   7.900   7.863  0.1291  0.4315 -0.2140
   70POPC   C4A 1389   7.567   8.224   7.601  0.1358 -0.2953 -0.0344
   70POPC   C1B 1390   7.841   7.418   8.488  0.4732  0.6668 -0.3132
   70POPC   C2B 1391   7.564   7.411   8.096  0.2171  0.2647  0.1940
   70POPC   C3B 1392   7.156   7.531   7.934  0.1496 -0.2310 -0.1367
   70POPC   C4B 1393   6.892   7.684   7.610 -0.0315  0.0357 -0.0435
   71POPC   NC3 1394   2.303   6.259  10.265 -0.1225 -0.1015  0.0097
   71POPC   PO4 1395   2.484   6.524   9.990 -0.0931 -0.0083  0.0702
   71POPC   GL1 1396   2.671   6.563   9.612  0.3886  0.0179  0.0627
   71POPC   GL2 1397   2.740   6.876   9.438 -0.1361 -0.1587  0.2253
   71POPC   C1A 1398   2.894   6.446   9.277  0.4065  0.3225 -0.1532
   71POPC   D2A 1399   2.966   5.984   9.008  0.4334 -0.1118 -0.1798
   71POPC   C3A 1400   3.000   5.846   8.585  0.1949  0.1484 -0.0112
   71POPC   C4A 1401   2.902   5.416   8.369  0.4927  0.0457 -0.0071
   71POPC   C1B 1402   3.105   6.842   9.124  0.0151 -0.0805 -0.1000
   71POPC   C2B 1403   3.190   6.801   8.768  0.0293 -0.0613  0.0196
   71POPC   C3B 1404   3.386   7.053   8.466 -0.2086  0.2539 -0.1676
   71POPC   C4B 1405   3.750   7.044   8.108  0.1649  0.1950 -0.0837
   72POPC   NC3 1406   6.480  10.060   9.055 -0.0848 -0.0358  0.0952
   72POPC   PO4 1407   5.989  10.087   9.228 -0.0779  0.0748 -0.0391
   72POPC   GL1 1408   6.069  10.150   8.697 -0.1898  0.2610 -0.0501
   72POPC   GL2 1409   5.989   9.788   8.716  0.1383  0.0463 -0.2427
   72POPC   C1A 1410   6.207  10.017   8.258 -0.3246  0.0918  0.1615
   72POPC   D2A 1411   6.524   9.803   7.892 -0.0166  0.3746  0.1660
   72POPC   C3A 1412   6.346   9.832   7.526  0.1620  0.1055  0.1393
   72POPC   C4A 1413   5.976   9.636   7.314 -0.0309 -0.2592  0.1002
   72POPC   C1B 1414   6.106   9.495   8.633 -0.2751 -0.3262  0.3406
   72POPC   C2B 1415   6.269   9.094   8.868  0.1057 -0.1515 -0.1922
   72POPC   C3B 1416   6.530   8.801   8.885 -0.1658  0.1741 -0.1613
   72POPC   C4B 1417   6.929   8.745   8.693 -0.0403 -0.1511 -0.0907
   73POPC   NC3 1418   1.678   0.723   8.862  0.0213 -0.1745  0.0077
   73POPC   PO4 1419   2.111   0.830   9.046  0.4088  0.0734  0.1405
   73POPC   GL1 1420   2.129   0.772   8.558  0.0631 -0.1642  0.6491
   73POPC   GL2 1421   1.863   0.623   8.366 -0.0004  0.2685 -0.0981
   73POPC   C1A 1422   1.871   1.124   8.383  0.1337  0.0495 -0.2039
   73POPC   D2A 1423   2.023   1.382   8.086  0.2599 -0.1458  0.1115
   73POPC   C3A 1424   2.014   1.538   7.680 -0.0139  0.3413 -0.0829
   73POPC   C4A 1425   1.872   1.675   7.222  0.3270 -0.0273 -0.0758
   73POPC   C1B 1426   1.581   0.196   8.327 -0.1500 -0.2133  0.0119
   73POPC   C2B 1427   1.773  -0.130   8.009 -0.0263  0.4381 -0.7472
   73POPC   C3B 1428   2.164   0.035   7.731  0.0322 -0.0256  0.0092
   73POPC   C4B 1429   2.354  -0.203   7.424  0.1810 -0.2063 -0.1082
   74POPC   NC3 1430   6.436   1.906   9.641  0.0071 -0.0248  0.1884
   74POPC   PO4 1431   6.388   2.103   9.240  0.0429 -0.0464 -0.0061
   74POPC   GL1 1432   6.250   1.850   8.854 -0.3811 -0.2896  0.0153
   74POPC   GL2 1433   6.383   1.950   8.576  0.1162 -0.1448  0.0062
   74POPC   C1A 1434   6.239   1.494   8.703  0.1914 -0.1407 -0.1367
   74POPC   D2A 1435   6.433   1.176   8.587 -0.0767  0.0418  0.3766
   74POPC   C3A 1436   6.733   1.269   8.310 -0.1433 -0.3073  0.2420
   74POPC   C4A 1437   6.979   1.106   8.002 -0.0875 -0.0010 -0.1105
   74POPC   C1B 1438   6.161   2.040   8.229 -0.0325  0.0578 -0.0175
   74POPC   C2B 1439   5.867   2.134   7.839  0.1762 -0.0217 -0.4461
   74POPC   C3B 1440   5.954   2.520   7.599  0.3692 -0.3443 -0.2632
   74POPC   C4B 1441   6.102   2.976   7.382  0.0575 -0.1264 -0.1355
   75POPC   NC3 1442   5.420  10.100   9.819 -0.0044 -0.0637 -0.1503
   75POPC   PO4 1443   5.444  10.308   9.405  0.3650 -0.3189  0.0945
   75POPC   GL1 1444   5.364  10.331   8.949 -0.0424  0.0085  0.0014
   75POPC   GL2 1445   5.067  10.284   8.778 -0.1445  0.1935  0.3959
   75POPC   C1A 1446   5.566  10.203   8.607  0.1545 -0.4334 -0.2337
   75POPC   D2A 1447   5.743   9.998   8.298  0.1029 -0.0579 -0.1127
   75POPC   C3A 1448   5.494   9.832   7.937 -0.0036 -0.1047  0.1469
   75POPC   C4A 1449   5.675   9.900   7.586  0.0787  0.0246  0.0173
   75POPC   C1B 1450   5.141  10.284   8.358  0.0133 -0.0431  0.0700
   75POPC   C2B 1451   5.056  10.072   7.937 -0.0309 -0.0682 -0.2725
   75POPC   C3B 1452   4.983  10.183   7.510  0.0473 -0.0735  0.2085
   75POPC   C4B 1453   5.098  10.138   7.110  0.0051  0.0873 -0.0451
   76POPC   NC3 1454   1.284   1.303   9.107  0.0913  0.2036 -0.1143
   76POPC   PO4 1455   1.170   0.939   9.079  0.1597  0.1227  0.1553
   76POPC   GL1 1456   0.970   0.822   8.702 -0.0478  0.0077  0.0577
   76POPC   GL2 1457   1.253   0.557   8.519 -0.1602 -0.0250 -0.1476
   76POPC   C1A 1458   0.850   1.027   8.286 -0.3830  0.2297  0.2873
   76POPC   D2A 1459   0.354   0.977   8.201  0.0581  0.0737 -0.0740
   76POPC   C3A 1460   0.268   0.672   7.819  0.1156 -0.1718 -0.1153
   76POPC   C4A 1461   0.473   0.676   7.408  0.3297  0.3233 -0.4403
   76POPC   C1B 1462   0.923   0.517   8.272 -0.2181 -0.3347  0.1492
   76POPC   C2B 1463   0.726   0.467   7.856 -0.0117 -0.1404 -0.2586
   76POPC   C3B 1464   0.967   0.512   7.400  0.3385 -0.1676  0.2002
   76POPC   C4B 1465   1.364   0.421   7.173 -0.0426  0.0866  0.2700
   77POPC   NC3 1466   0.293   4.781   9.173 -0.0451 -0.0928  0.0720
   77POPC   PO4 1467  -0.065   4.722   8.991 -0.0883 -0.1699 -0.0127
   77POPC   GL1 1468  -0.252   4.496   8.614  0.1221 -0.0285 -0.0234
   77POPC   GL2 1469  -0.583   4.444   8.603 -0.1512 -0.0524 -0.0769
   77POPC   C1A 1470  -0.262   4.232   8.254 -0.1921 -0.0505  0.0456
   77POPC   D2A 1471  -0.257   4.097   7.791 -0.2423  0.2121 -0.2259
   77POPC   C3A 1472  -0.009   3.802   7.475  0.0261  0.2221 -0.0763
   77POPC   C4A 1473   0.425   3.554   7.556  0.2415 -0.1577  0.0640
   77POPC   C1B 1474  -0.543   4.700   8.203 -0.1929  0.0577  0.0829
   77POPC   C2B 1475  -0.441   4.518   7.803  0.2208 -0.1502  0.3054
   77POPC   C3B 1476  -0.613   4.674   7.541 -0.2818 -0.0184 -0.0109
   77POPC   C4B 1477  -0.642   5.122   7.350 -0.2060 -0.1559  0.1046
   78POPC   NC3 1478   4.712   3.553   9.101 -0.1512 -0.0000 -0.1649
   78POPC   PO4 1479   4.900   3.918   9.099 -0.1373  0.3246 -0.3785
   78POPC   GL1 1480   4.781   3.697   8.669 -0.3268 -0.0705  0.1577
   78POPC   GL2 1481   5.000   3.381   8.667 -0.1953 -0.1344 -0.0614
   78POPC   C1A 1482   4.886   3.592   8.273  0.1236  0.0037 -0.1052
   78POPC   D2A 1483   4.876   3.460   7.908 -0.0530 -0.2925  0.2310
   78POPC   C3A 1484   5.302   3.477   7.630  0.0161 -0.1780 -0.2120
   78POPC   C4A 1485   5.562   3.736   7.505 -0.1219  0.0815  0.0478
   78POPC   C1B 1486   5.376   3.602   8.533 -0.1549 -0.0981 -0.1009
   78POPC   C2B 1487   5.309   3.707   8.042  0.0063 -0.1183 -0.3092
   78POPC   C3B 1488   5.237   4.053   7.863  0.1268  0.2625  0.1457
   78POPC   C4B 1489   5.439   4.370   7.710 -0.0876  0.1024 -0.0799
   79POPC   NC3 1490   4.252   2.084   9.057  0.1550 -0.0868 -0.1822
   79POPC   PO4 1491   4.060   2.355   8.909 -0.3084  0.0166  0.1497
   79POPC   GL1 1492   3.899   2.520   8.564  0.0637  0.1147 -0.1829
   79POPC   GL2 1493   3.702   2.835   8.640 -0.1737 -0.1648 -0.2574
   79POPC   C1A 1494   3.787   2.621   8.068  0.2470  0.1020 -0.1180
   79POPC   D2A 1495   3.658   2.632   7.588 -0.1173  0.0716 -0.0487
   79POPC   C3A 1496   3.622   2.319   7.257  0.0306 -0.3310 -0.1946
   79POPC   C4A 1497   3.611   2.369   6.827  0.0333 -0.0357  0.3430
   79POPC   C1B 1498   4.104   2.900   8.312  0.0413 -0.1788 -0.1322
   79POPC   C2B 1499   4.110   2.999   7.897  0.2153 -0.1804 -0.0154
   79POPC   C3B 1500   4.225   3.009   7.473  0.0521  0.1918  0.0241
   79POPC   C4B 1501   4.440   2.872   7.193  0.1339 -0.0843 -0.1377
   80POPC   NC3 1502   9.904   3.163   9.308  0.0323 -0.1520 -0.2190
   80POPC   PO4 1503   9.545   3.080   9.537  0.1438 -0.1340  0.3478
   80POPC   GL1 1504   9.426   3.022   9.104 -0.1252 -0.1191  0.3178
   80POPC   GL2 1505   9.674   2.849   8.946  0.1587  0.1669 -0.2389
   80POPC   C1A 1506   9.290   3.032   8.688  0.0393  0.1042 -0.0964
   80POPC   D2A 1507   9.005   2.795   8.435  0.0041  0.1650 -0.1605
   80POPC   C3A 1508   9.139   2.705   8.046 -0.2311 -0.1734  0.2942
   80POPC   C4A 1509   9.153   3.012   7.703  0.0860  0.2771 -0.0129
   80POPC   C1B 1510   9.874   3.073   8.648  0.2863 -0.0496  0.1572
   80POPC   C2B 1511   9.643   3.308   8.358  0.0056  0.1070 -0.0607
   80POPC   C3B 1512   9.197   3.203   8.229  0.2352 -0.0541  0.2432
   80POPC   C4B 1513   8.877   3.279   8.534  0.2515 -0.1996 -0.1483
   81POPC   NC3 1514   9.811   7.715   8.767  0.2542  0.1891 -0.0665
   81POPC   PO4 1515   9.835   8.237   8.730  0.1744  0.1855  0.2775
   81POPC   GL1 1516   9.394   8.326   8.460 -0.4368 -0.0997 -0.1309
   81POPC   GL2 1517   9.625   8.046   8.233 -0.0599  0.0500  0.0319
   81POPC   C1A 1518   9.220   8.675   8.174  0.2381 -0.0522 -0.1095
   81POPC   D2A 1519   9.113   8.932   7.709  0.1096 -0.2220  0.0283
   81POPC   C3A 1520   8.832   8.813   7.366  0.1424  0.0670 -0.1042
   81POPC   C4A 1521   8.793   8.962   6.970 -0.1387 -0.1606 -0.3148
   81POPC   C1B 1522   9.264   8.137   7.940  0.3571 -0.0582 -0.0320
   81POPC   C2B 1523   9.147   8.115   7.507 -0.0086  0.2952 -0.2926
   81POPC   C3B 1524   9.327   7.962   7.200 -0.3368 -0.2337  0.3548
   81POPC   C4B 1525   9.664   7.980   6.850 -0.2294  0.0219  0.2166
   82POPC   NC3 1526   3.113   4.054   9.558  0.2988  0.1420  0.3270
   82POPC   PO4 1527   2.986   3.781   9.301 -0.0556 -0.1082  0.1682
   82POPC   GL1 1528   2.740   3.785   8.895 -0.1608 -0.1313 -0.0853
   82POPC   GL2 1529   2.506   4.025   8.727  0.0935 -0.2218  0.0271
   82POPC   C1A 1530   2.986   3.935   8.561 -0.1151  0.0292 -0.2538
   82POPC   D2A 1531   3.177   3.625   8.487 -0.4626  0.0136 -0.1199
   82POPC   C3A 1532   3.528   3.586   8.348  0.0791 -0.1549  0.2830
   82POPC   C4A 1533   3.969   3.413   8.157  0.1836  0.1737 -0.0020
   82POPC   C1B 1534   2.653   4.269   8.419 -0.0874  0.0944 -0.0781
   82POPC   C2B 1535   2.869   4.386   8.051  0.1929 -0.1166 -0.1475
   82POPC   C3B 1536   2.863   4.666   7.729  0.0243 -0.0328 -0.1342
   82POPC   C4B 1537   2.888   5.036   7.478  0.0545 -0.0515  0.0547
   83POPC   NC3 1538   3.822   8.877   9.677 -0.2574  0.0241 -0.1755
   83POPC   PO4 1539   4.183   8.668   9.703 -0.1371  0.0551  0.1380
   83POPC   GL1 1540   4.358   8.579   9.318  0.2583 -0.2276  0.0737
   83POPC   GL2 1541   4.502   8.783   9.113 -0.1662 -0.1726  0.1860
   83POPC   C1A 1542   4.747   8.308   9.072 -0.2289  0.0835 -0.0569
   83POPC   D2A 1543   4.990   8.077   8.694 -0.0137 -0.4035 -0.0514
   83POPC   C3A 1544   5.032   8.231   8.247 -0.4163 -0.0843  0.0034
   83POPC   C4A 1545   5.491   8.427   7.997  0.0920  0.0529 -0.1151
   83POPC   C1B 1546   4.507   8.644   8.703  0.1928  0.1188  0.1830
   83POPC   C2B 1547   4.602   8.612   8.325  0.1681 -0.4349  0.0741
   83POPC   C3B 1548   4.496   8.406   7.955  0.2156 -0.4995 -0.1212
   83POPC   C4B 1549   4.154   8.038   8.019  0.1595  0.2141  0.0787
   84POPC   NC3 1550   9.405   8.024   8.861  0.0236 -0.0458  0.1247
   84POPC   PO4 1551   8.996   7.994   8.975 -0.0623 -0.0123 -0.0499
   84POPC   GL1 1552   8.722   8.046   8.592  0.1452  0.1204 -0.1426
   84POPC   GL2 1553   8.416   8.146   8.618 -0.1710 -0.0042 -0.1582
   84POPC   C1A 1554   8.683   7.838   8.148  0.2287  0.3266  0.1665
   84POPC   D2A 1555   8.755   7.985   7.753 -0.2967  0.1559  0.0515
   84POPC   C3A 1556   8.520   7.737   7.516 -0.2427  0.0626  0.0163
   84POPC   C4A 1557   8.267   7.355   7.336 -0.2059 -0.0851 -0.3669
   84POPC   C1B 1558   8.228   8.004   8.181  0.0193  0.2188  0.2280
   84POPC   C2B 1559   8.145   8.070   7.665 -0.1254 -0.1574 -0.1172
   84POPC   C3B 1560   8.004   8.257   7.233 -0.1179 -0.4155 -0.0330
   84POPC   C4B 1561   7.891   8.100   6.819 -0.0036 -0.0791 -0.1350
   85POPC   NC3 1562   3.432   5.834   9.956 -0.0786  0.2048 -0.1409
   85POPC   PO4 1563   3.370   5.386   9.809 -0.1543  0.1305  0.3135
   85POPC   GL1 1564   3.706   5.484   9.585  0.0496  0.0202  0.1024
   85POPC   GL2 1565   3.953   5.733   9.671  0.2792 -0.0383 -0.0578
   85POPC   C1A 1566   3.826   5.364   9.111 -0.0150 -0.1131 -0.2094
   85POPC   D2A 1567   4.111   5.114   8.898 -0.1029  0.4153 -0.1575
   85POPC   C3A 1568   4.167   5.178   8.441  0.1766 -0.1265 -0.0917
   85POPC   C4A 1569   4.389   5.436   8.243  0.1719 -0.3985 -0.3902
   85POPC   C1B 1570   4.101   5.765   9.261 -0.1227 -0.0971 -0.2118
   85POPC   C2B 1571   4.346   5.932   9.023 -0.1864 -0.2416 -0.0602
   85POPC   C3B 1572   4.342   6.178   8.637 -0.0581  0.1676  0.0615
   85POPC   C4B 1573   4.166   6.469   8.393  0.2042 -0.1498  0.1421
   86POPC   NC3 1574   7.969   6.779   9.971  0.0220 -0.0758  0.1158
   86POPC   PO4 1575   7.602   7.022   9.637  0.3468 -0.2351  0.1328
   86POPC   GL1 1576   7.659   7.151   9.155 -0.0137  0.2454  0.1734
   86POPC   GL2 1577   7.698   7.385   9.000 -0.1462 -0.1566 -0.4354
   86POPC   C1A 1578   7.502   6.905   8.802 -0.2281  0.0295  0.1465
   86POPC   D2A 1579   7.395   7.022   8.480  0.1247 -0.0294  0.2204
   86POPC   C3A 1580   7.035   7.219   8.360  0.2790  0.0611 -0.0556
   86POPC   C4A 1581   6.696   7.424   8.153 -0.3684  0.1925 -0.1452
   86POPC   C1B 1582   7.399   7.490   8.706  0.1778 -0.0795  0.4019
   86POPC   C2B 1583   7.188   7.703   8.446  0.3432  0.0776 -0.0317
   86POPC   C3B 1584   6.879   7.888   8.225  0.0539 -0.1514 -0.1408
   86POPC   C4B 1585   6.464   7.982   8.130  0.0133 -0.2089  0.1199
   87POPC   NC3 1586   0.751   4.626   9.410 -0.2774  0.1224 -0.2774
   87POPC   PO4 1587   0.427   4.259   9.248  0.1585 -0.0071  0.0167
   87POPC   GL1 1588   0.065   4.238   9.052  0.1111 -0.0092  0.1552
   87POPC   GL2 1589  -0.158   3.949   9.114  0.1738  0.1487 -0.1040
   87POPC   C1A 1590  -0.021   4.065   8.642 -0.4104  0.0351 -0.2041
   87POPC   D2A 1591   0.073   3.851   8.190 -0.0502 -0.0859  0.0012
   87POPC   C3A 1592   0.456   3.687   8.187  0.1601 -0.0128  0.1520
   87POPC   C4A 1593   0.751   3.632   8.544 -0.0670  0.1538 -0.0349
   87POPC   C1B 1594  -0.461   3.961   8.821  0.1023 -0.2672 -0.1454
   87POPC   C2B 1595  -0.406   3.829   8.460  0.0284  0.0189  0.0053
   87POPC   C3B 1596  -0.472   3.712   8.044 -0.0158 -0.0940  0.0864
   87POPC   C4B 1597  -0.524   3.600   7.577 -0.0252  0.0836 -0.1613
   88POPC   NC3 1598   5.835   8.868   9.572 -0.0795 -0.2629  0.2087
   88POPC   PO4 1599   6.070   8.477   9.713  0.0778  0.2984  0.4352
   88POPC   GL1 1600   6.245   8.553   9.312  0.2674  0.0467  0.2458
   88POPC   GL2 1601   6.030   8.664   9.123 -0.1115  0.0418  0.4401
   88POPC   C1A 1602   6.440   8.244   9.025  0.1160  0.1576  0.3633
   88POPC   D2A 1603   6.518   8.421   8.562 -0.2498  0.1009  0.0265
   88POPC   C3A 1604   6.407   8.464   8.162  0.1371  0.0543 -0.2047
   88POPC   C4A 1605   6.502   8.807   7.813  0.1602 -0.2587  0.1695
   88POPC   C1B 1606   6.051   8.560   8.685  0.0336  0.1203  0.0970
   88POPC   C2B 1607   5.913   8.320   8.308  0.0616  0.0480  0.1344
   88POPC   C3B 1608   5.940   7.921   8.182 -0.2317  0.0764  0.0653
   88POPC   C4B 1609   6.097   7.569   8.323 -0.0662  0.1998 -0.0645
   89POPC   NC3 1610   0.488   8.795   8.907 -0.1483 -0.1572  0.1473
   89POPC   PO4 1611   0.551   9.122   9.153  0.0159 -0.1485 -0.0499
   89POPC   GL1 1612   0.584   9.237   8.716  0.3330  0.0946  0.1785
   89POPC   GL2 1613   0.454   9.052   8.483 -0.1285 -0.1946 -0.0535
   89POPC   C1A 1614   0.818   9.353   8.417  0.0087  0.1227  0.0688
   89POPC   D2A 1615   0.881   9.346   7.881 -0.2553 -0.2544 -0.1465
   89POPC   C3A 1616   1.274   9.307   7.662 -0.0091  0.3205 -0.0325
   89POPC   C4A 1617   1.618   9.284   7.447  0.0558 -0.0949 -0.1446
   89POPC   C1B 1618   0.578   8.996   8.041 -0.0328  0.0268  0.3903
   89POPC   C2B 1619   0.607   9.050   7.645 -0.0474 -0.2950 -0.0109
   89POPC   C3B 1620   1.015   9.023   7.426  0.2039 -0.4079  0.2111
   89POPC   C4B 1621   1.124   9.319   7.053  0.0735  0.2479  0.0622
   90POPC   NC3 1622   4.732   1.809   9.437  0.0239 -0.0523  0.0358
   90POPC   PO4 1623   4.942   1.521   9.277 -0.3070 -0.3104 -0.1087
   90POPC   GL1 1624   5.069   1.657   8.908  0.0499  0.1824  0.2075
   90POPC   GL2 1625   5.201   1.373   8.858 -0.0361  0.3488  0.1984
   90POPC   C1A 1626   5.276   1.777   8.578  0.0161 -0.0955  0.4897
   90POPC   D2A 1627   5.353   1.859   8.137  0.0169 -0.1119  0.1596
   90POPC   C3A 1628   5.425   1.672   7.824 -0.5241 -0.3739  0.2459
   90POPC   C4A 1629   5.345   1.370   7.464  0.3664  0.2322  0.1264
   90POPC   C1B 1630   5.227   1.217   8.437  0.0785 -0.2268 -0.1560
   90POPC   C2B 1631   5.290   1.191   7.979  0.0036 -0.0680  0.0544
   90POPC   C3B 1632   5.180   0.833   7.717 -0.0881 -0.0733 -0.1591
   90POPC   C4B 1633   5.107   0.393   7.876 -0.2676  0.2113 -0.1165
   91POPC   NC3 1634   1.150  10.000   9.052 -0.0975  0.0587 -0.1108
   91POPC   PO4 1635   0.708  10.117   9.008 -0.1406 -0.1622 -0.1743
   91POPC   GL1 1636   0.510  10.004   8.573  0.0603  0.1451 -0.0182
   91POPC   GL2 1637   0.415   9.682   8.525 -0.1509  0.2874 -0.0818
   91POPC   C1A 1638   0.721   9.797   8.172  0.1043 -0.1113 -0.1892
   91POPC   D2A 1639   0.731   9.796   7.697 -0.1116  0.1468  0.0047
   91POPC   C3A 1640   0.720   9.613   7.314 -0.0385 -0.0161 -0.1988
   91POPC   C4A 1641   0.581   9.795   6.908  0.0077 -0.0151  0.0876
   91POPC   C1B 1642   0.337   9.427   8.182 -0.2847 -0.0539  0.4282
   91POPC   C2B 1643   0.313   9.437   7.742 -0.2877  0.2793  0.0985
   91POPC   C3B 1644   0.275   9.341   7.282 -0.0898  0.0027 -0.0736
   91POPC   C4B 1645   0.017   9.140   6.949 -0.0601  0.1787 -0.2412
   92POPC   NC3 1646   5.804   0.346   9.180  0.0330 -0.0596 -0.1998
   92POPC   PO4 1647   5.998   0.763   9.156  0.1612  0.2252  0.2685
   92POPC   GL1 1648   5.944   0.735   8.692  0.1391 -0.1665  0.1143
   92POPC   GL2 1649   5.812   0.434   8.689  0.1444  0.0344 -0.0591
   92POPC   C1A 1650   5.984   0.738   8.247  0.2043  0.2879  0.3204
   92POPC   D2A 1651   5.899   0.546   7.797  0.0289  0.2429 -0.2755
   92POPC   C3A 1652   5.626   0.622   7.468  0.1381  0.0714  0.3065
   92POPC   C4A 1653   5.263   0.915   7.223 -0.3202  0.2380  0.1632
   92POPC   C1B 1654   6.119   0.300   8.373 -0.1118 -0.0153 -0.2493
   92POPC   C2B 1655   6.177   0.108   7.883  0.3111 -0.4476  0.4585
   92POPC   C3B 1656   5.988   0.054   7.503 -0.0233 -0.0366  0.1778
   92POPC   C4B 1657   6.028   0.405   7.275 -0.3026  0.1045  0.0679
   93POPC   NC3 1658   1.635   8.838   9.494  0.1262 -0.2278 -0.0301
   93POPC   PO4 1659   1.376   8.927   9.135  0.2266  0.1832  0.0569
   93POPC   GL1 1660   1.489   8.742   8.660  0.0910 -0.2651  0.2890
   93POPC   GL2 1661   1.277   8.628   8.419 -0.1292  0.0458  0.0459
   93POPC   C1A 1662   1.816   8.844   8.438  0.4227  0.0621  0.1632
   93POPC   D2A 1663   1.972   8.461   8.095  0.0619 -0.0561 -0.2722
   93POPC   C3A 1664   2.023   8.645   7.773 -0.2135 -0.1543  0.1222
   93POPC   C4A 1665   2.115   8.788   7.388 -0.2489  0.2683 -0.0216
   93POPC   C1B 1666   1.411   8.537   8.092  0.0732  0.0614 -0.4566
   93POPC   C2B 1667   1.648   8.198   7.884 -0.1294 -0.0129 -0.4104
   93POPC   C3B 1668   1.648   7.891   7.651  0.1481 -0.0559  0.3543
   93POPC   C4B 1669   1.786   7.662   7.355 -0.3623 -0.1507 -0.0201
   94POPC   NC3 1670   1.004   9.276   9.227  0.0739  0.0716 -0.1233
   94POPC   PO4 1671   1.367   9.567   9.095  0.1379 -0.0606 -0.3194
   94POPC   GL1 1672   1.324   9.277   8.831 -0.1209 -0.0183  0.0386
   94POPC   GL2 1673   1.593   9.268   8.640 -0.4291 -0.0075  0.1636
   94POPC   C1A 1674   1.279   9.111   8.321 -0.0829  0.3772  0.4127
   94POPC   D2A 1675   1.065   8.854   7.984  0.1085  0.3174  0.0337
   94POPC   C3A 1676   1.305   8.700   7.648 -0.1923 -0.5768 -0.1488
   94POPC   C4A 1677   1.559   8.833   7.271  0.0352  0.0591  0.1696
   94POPC   C1B 1678   1.686   9.529   8.279  0.0451  0.1005 -0.0766
   94POPC   C2B 1679   1.692   9.571   7.865 -0.0287  0.1010 -0.3133
   94POPC   C3B 1680   2.074   9.531   7.423 -0.1026 -0.0313 -0.0121
   94POPC   C4B 1681   2.196   9.742   7.000 -0.2061 -0.0028 -0.2111
   95POPC   NC3 1682   1.168   7.476   8.935  0.0016 -0.2679  0.1140
   95POPC   PO4 1683   0.903   7.426   8.611 -0.0181  0.0713  0.1120
   95POPC   GL1 1684   1.014   7.212   8.260  0.0651 -0.0092  0.0904
   95POPC   GL2 1685   0.636   7.209   8.201 -0.0410  0.4821  0.0051
   95POPC   C1A 1686   0.956   7.288   7.798  0.1988 -0.0874 -0.3333
   95POPC   D2A 1687   0.727   7.261   7.407  0.0907  0.2257  0.0349
   95POPC   C3A 1688   0.254   7.240   7.576 -0.1011 -0.3693  0.1761
   95POPC   C4A 1689   0.211   7.075   7.988 -0.0030  0.0077  0.1277
   95POPC   C1B 1690   0.452   7.482   7.944  0.0093  0.1333 -0.0702
   95POPC   C2B 1691   0.441   7.760   7.623  0.0681  0.0348  0.2802
   95POPC   C3B 1692   0.284   7.787   7.236  0.2025 -0.1609  0.0369
   95POPC   C4B 1693   0.243   7.881   6.788 -0.2466 -0.3026  0.1752
   96POPC   NC3 1694   9.249   9.404   8.876 -0.1448  0.0041 -0.2132
   96POPC   PO4 1695   9.040   9.676   9.208  0.2524  0.0752  0.1577
   96POPC   GL1 1696   8.833   9.692   8.715  0.1428 -0.2623 -0.6596
   96POPC   GL2 1697   9.127   9.702   8.534 -0.1726  0.2679  0.2863
   96POPC   C1A 1698   8.616   9.723   8.276  0.0228  0.1343  0.3620
   96POPC   D2A 1699   8.623   9.977   7.850 -0.1888  0.1466 -0.0351
   96POPC   C3A 1700   8.711   9.757   7.450  0.0272  0.1579 -0.1056
   96POPC   C4A 1701   9.144   9.839   7.276 -0.1079 -0.3100  0.1018
   96POPC   C1B 1702   9.177   9.766   8.084 -0.3532  0.0239 -0.0565
   96POPC   C2B 1703   9.217  10.009   7.714  0.1664 -0.2460 -0.0839
   96POPC   C3B 1704   9.635  10.040   7.427 -0.2928  0.0417  0.0268
   96POPC   C4B 1705  10.052  10.130   7.195  0.0674 -0.1057 -0.1497
   97POPC   NC3 1706   5.302   1.797   9.418 -0.0655  0.4605 -0.1887
   97POPC   PO4 1707   5.571   1.566   9.300 -0.1176  0.0240 -0.0598
   97POPC   GL1 1708   5.746   1.609   8.949  0.2946 -0.1235  0.0192
   97POPC   GL2 1709   5.639   1.479   8.691  0.2785 -0.1427  0.0184
   97POPC   C1A 1710   5.773   1.934   8.600  0.0594 -0.2801 -0.0036
   97POPC   D2A 1711   5.575   2.288   8.287 -0.0472  0.0252 -0.0353
   97POPC   C3A 1712   5.490   2.741   8.480  0.2214  0.1671 -0.2233
   97POPC   C4A 1713   5.562   3.162   8.394  0.2758 -0.0237 -0.0484
   97POPC   C1B 1714   5.870   1.180   8.403 -0.0270 -0.0322  0.3174
   97POPC   C2B 1715   6.237   1.151   8.105 -0.1821  0.2778 -0.0188
   97POPC   C3B 1716   6.348   1.367   7.654 -0.1905  0.0470  0.0316
   97POPC   C4B 1717   6.273   1.211   7.235  0.3552  0.0233 -0.1113
   98POPC   NC3 1718   6.506   0.695   9.375 -0.1049 -0.1223 -0.1717
   98POPC   PO4 1719   6.719   0.423   9.218 -0.1792  0.0687 -0.3231
   98POPC   GL1 1720   6.902   0.201   8.815  0.0147  0.0457  0.0899
   98POPC   GL2 1721   6.622   0.131   8.658  0.1405  0.1846 -0.0774
   98POPC   C1A 1722   7.087   0.341   8.374 -0.1438 -0.2079 -0.2169
   98POPC   D2A 1723   7.065   0.551   8.003 -0.2080  0.3478 -0.3479
   98POPC   C3A 1724   7.423   0.443   7.699 -0.0322  0.0751 -0.4486
   98POPC   C4A 1725   7.464   0.404   7.281 -0.1593 -0.0294  0.0030
   98POPC   C1B 1726   6.582   0.205   8.242 -0.1035  0.0475 -0.0538
   98POPC   C2B 1727   6.695   0.029   7.847 -0.0068  0.2784 -0.4628
   98POPC   C3B 1728   6.515   0.056   7.402 -0.0524  0.2067 -0.0886
   98POPC   C4B 1729   6.530   0.304   6.987 -0.1865  0.0736 -0.2460
   99POPC   NC3 1730   5.560   8.526   9.847 -0.1909  0.4387  0.3879
   99POPC   PO4 1731   5.305   8.848   9.702 -0.4238 -0.1126  0.0496
   99POPC   GL1 1732   5.444   8.688   9.301  0.2115 -0.0840 -0.1265
   99POPC   GL2 1733   5.228   8.394   9.216  0.0044 -0.0161 -0.2790
   99POPC   C1A 1734   5.504   8.587   8.838  0.0582  0.2850 -0.0164
   99POPC   D2A 1735   5.315   8.592   8.473 -0.0256 -0.1229 -0.0487
   99POPC   C3A 1736   5.099   8.797   8.132 -0.0668 -0.1572 -0.1177
   99POPC   C4A 1737   4.893   9.130   8.208 -0.2539 -0.4726 -0.0438
   99POPC   C1B 1738   5.003   8.665   8.811 -0.0574 -0.0690  0.1478
   99POPC   C2B 1739   4.703   9.077   8.748  0.3095  0.4216 -0.1469
   99POPC   C3B 1740   4.652   9.427   8.499 -0.1050  0.0405 -0.0430
   99POPC   C4B 1741   4.537   9.473   8.037 -0.0826  0.3051 -0.2744
  100POPC   NC3 1742  10.027   5.524   9.535  0.2360 -0.0933 -0.4423
  100POPC   PO4 1743   9.766   5.771   9.207  0.0562  0.2500  0.1644
  100POPC   GL1 1744   9.656   5.801   8.721  0.0813 -0.3054 -0.0744
  100POPC   GL2 1745   9.446   5.963   8.797 -0.0862  0.0749 -0.1632
  100POPC   C1A 1746   9.638   5.619   8.282 -0.0843 -0.0737 -0.5343
  100POPC   D2A 1747   9.777   5.231   8.128 -0.0939  0.0043  0.0930
  100POPC   C3A 1748   9.877   5.076   7.685 -0.1222 -0.1020 -0.3007
  100POPC   C4A 1749  10.202   5.127   7.405  0.0440 -0.2924 -0.1306
  100POPC   C1B 1750   9.416   6.050   8.358  0.4153  0.0703 -0.2792
  100POPC   C2B 1751   9.528   6.143   7.972 -0.1881 -0.2248  0.0938
  100POPC   C3B 1752   9.861   6.075   7.676  0.1114 -0.1852  0.2388
  100POPC   C4B 1753  10.002   6.186   7.226  0.1135  0.1653  0.3112
  101POPC   NC3 1754   8.724   7.336   9.072 -0.0963 -0.1149  0.0677
  101POPC   PO4 1755   8.635   7.650   8.992 -0.4442 -0.3243 -0.1557
  101POPC   GL1 1756   8.622   7.532   8.608 -0.2003 -0.0249  0.1564
  101POPC   GL2 1757   8.911   7.231   8.595 -0.0605  0.2718  0.1644
  101POPC   C1A 1758   8.372   7.473   8.218  0.0135 -0.2840  0.3548
  101POPC   D2A 1759   8.170   7.589   7.878 -0.0875  0.3053  0.2348
  101POPC   C3A 1760   7.918   7.298   7.712  0.0739 -0.1734  0.4889
  101POPC   C4A 1761   7.825   7.152   7.307 -0.1768  0.2076  0.2285
  101POPC   C1B 1762   8.925   7.293   8.133 -0.0382  0.3103 -0.3094
  101POPC   C2B 1763   9.157   7.117   7.866  0.3163 -0.1714  0.3146
  101POPC   C3B 1764   9.569   7.197   7.814  0.1867 -0.1054  0.1674
  101POPC   C4B 1765   9.934   7.105   8.080 -0.1499 -0.2119 -0.1630
  102POPC   NC3 1766   0.220   6.509   8.843  0.3498 -0.1616 -0.2854
  102POPC   PO4 1767   0.534   6.771   9.132  0.0612 -0.3337  0.0916
  102POPC   GL1 1768   0.761   6.747   8.683  0.1529 -0.2362 -0.2300
  102POPC   GL2 1769   1.071   6.864   8.629  0.1330 -0.1907  0.3082
  102POPC   C1A 1770   0.794   6.728   8.255 -0.1383 -0.3342  0.0269
  102POPC   D2A 1771   1.100   6.707   7.911 -0.1646  0.0563 -0.3705
  102POPC   C3A 1772   1.062   6.890   7.451 -0.0737 -0.3705 -0.1066
  102POPC   C4A 1773   1.123   6.933   6.982 -0.0529 -0.1668 -0.0757
  102POPC   C1B 1774   1.160   6.419   8.506  0.0746  0.0774  0.0782
  102POPC   C2B 1775   1.251   6.177   8.173 -0.2872 -0.0354 -0.1904
  102POPC   C3B 1776   1.426   5.999   7.748 -0.0679 -0.2283  0.0161
  102POPC   C4B 1777   1.482   5.648   7.480 -0.0014 -0.1988 -0.0446
  103POPC   NC3 1778   9.625   8.659   8.989 -0.2144  0.1842  0.0454
  103POPC   PO4 1779   9.192   8.497   8.928  0.0975  0.0359  0.4153
  103POPC   GL1 1780   8.951   8.494   8.582  0.1042 -0.0260  0.0773
  103POPC   GL2 1781   8.838   8.816   8.399  0.1321  0.0721  0.3300
  103POPC   C1A 1782   8.839   8.301   8.204 -0.1633 -0.1852 -0.1615
  103POPC   D2A 1783   8.879   8.444   7.737  0.0308  0.2391  0.0494
  103POPC   C3A 1784   8.706   8.204   7.324  0.4622  0.1151 -0.1145
  103POPC   C4A 1785   8.336   7.891   7.065 -0.3010 -0.0526 -0.0720
  103POPC   C1B 1786   8.739   8.795   8.008 -0.2918  0.1883 -0.2055
  103POPC   C2B 1787   8.502   9.012   7.733 -0.3340 -0.2536  0.5096
  103POPC   C3B 1788   8.087   9.009   7.640 -0.1199 -0.1565 -0.0138
  103POPC   C4B 1789   7.729   9.140   7.456  0.0295 -0.0197  0.0577
  104POPC   NC3 1790   6.775   5.473   9.486 -0.0096 -0.1921  0.0134
  104POPC   PO4 1791   6.388   5.487   9.730  0.3878  0.2581  0.0193
  104POPC   GL1 1792   6.128   5.606   9.345  0.1401 -0.2362 -0.1043
  104POPC   GL2 1793   6.148   5.291   9.143 -0.2481 -0.0511  0.2876
  104POPC   C1A 1794   6.027   5.740   8.965 -0.1261 -0.0979 -0.2662
  104POPC   D2A 1795   6.169   5.969   8.608 -0.1655  0.3181  0.3906
  104POPC   C3A 1796   6.410   5.638   8.418  0.3099  0.1986  0.1425
  104POPC   C4A 1797   6.596   5.384   8.140 -0.0702 -0.1021 -0.3402
  104POPC   C1B 1798   6.084   5.347   8.686  0.0302  0.2948 -0.0024
  104POPC   C2B 1799   6.042   5.204   8.270  0.0075  0.0269 -0.1043
  104POPC   C3B 1800   5.956   5.188   7.808  0.1750  0.1683 -0.1401
  104POPC   C4B 1801   5.625   5.014   7.582 -0.1517  0.4516  0.2285
  105POPC   NC3 1802   4.253   2.855   9.005 -0.1497  0.1545 -0.2030
  105POPC   PO4 1803   4.627   2.544   8.965 -0.1760 -0.1336  0.0212
  105POPC   GL1 1804   4.784   2.298   8.629  0.0379  0.1376 -0.2356
  105POPC   GL2 1805   4.853   2.046   8.516 -0.0525  0.1017  0.1588
  105POPC   C1A 1806   4.807   2.577   8.261  0.0646  0.1733  0.4964
  105POPC   D2A 1807   5.048   2.654   8.013  0.1004 -0.2729  0.1682
  105POPC   C3A 1808   5.386   2.360   7.747 -0.1506  0.3279 -0.0958
  105POPC   C4A 1809   5.490   1.985   7.357 -0.1581 -0.1982  0.2534
  105POPC   C1B 1810   4.962   2.159   7.963 -0.2016 -0.0264 -0.0625
  105POPC   C2B 1811   5.084   2.040   7.611  0.0680 -0.0568  0.2327
  105POPC   C3B 1812   5.036   2.198   7.143 -0.3510  0.3244  0.0476
  105POPC   C4B 1813   5.248   2.037   6.680  0.2883  0.2654  0.1286
  106POPC   NC3 1814   5.988   5.685   9.887  0.2564  0.2461  0.0763
  106POPC   PO4 1815   5.556   5.839  10.016  0.0849  0.1594  0.1172
  106POPC   GL1 1816   5.572   5.741   9.571 -0.2187 -0.0615 -0.0242
  106POPC   GL2 1817   5.265   5.761   9.520  0.1252  0.0292 -0.1603
  106POPC   C1A 1818   5.781   6.049   9.305  0.4502  0.1908  0.1537
  106POPC   D2A 1819   5.982   6.287   8.977 -0.1424 -0.0510 -0.1068
  106POPC   C3A 1820   6.056   6.710   8.942  0.0014  0.1837  0.1045
  106POPC   C4A 1821   6.388   6.896   8.906 -0.0001  0.0058  0.2695
  106POPC   C1B 1822   5.332   5.608   9.171 -0.1100 -0.1488  0.1603
  106POPC   C2B 1823   5.239   5.760   8.693 -0.1194  0.3349  0.2302
  106POPC   C3B 1824   5.194   5.573   8.302 -0.2343  0.1380 -0.2604
  106POPC   C4B 1825   4.874   5.478   8.100  0.2369  0.2567  0.3668
  107POPC   NC3 1826   0.774   5.557   9.735  0.1370 -0.1608  0.1127
  107POPC   PO4 1827   0.636   5.153   9.487  0.0759 -0.0081 -0.0722
  107POPC   GL1 1828   0.808   5.027   9.007 -0.3046 -0.0763 -0.0438
  107POPC   GL2 1829   0.758   4.661   8.900 -0.1440 -0.3115 -0.0180
  107POPC   C1A 1830   0.764   5.090   8.613 -0.0676 -0.0562  0.4829
  107POPC   D2A 1831   0.573   4.996   8.204 -0.1930  0.0450 -0.0562
  107POPC   C3A 1832   0.207   4.789   8.366 -0.0292  0.0545  0.4313
  107POPC   C4A 1833   0.014   4.602   8.039 -0.2111  0.1062 -0.0562
  107POPC   C1B 1834   0.739   4.556   8.476  0.0463 -0.1406 -0.0075
  107POPC   C2B 1835   0.965   4.535   8.050 -0.1822  0.0821  0.0091
  107POPC   C3B 1836   1.120   4.477   7.577  0.0978  0.0796 -0.3595
  107POPC   C4B 1837   0.982   4.325   7.236 -0.0133 -0.3075  0.1094
  108POPC   NC3 1838   4.639   9.956   8.937 -0.1465 -0.0917 -0.1755
  108POPC   PO4 1839   4.599  10.333   8.768  0.0147  0.2207  0.0815
  108POPC   GL1 1840   4.527  10.220   8.344  0.1041 -0.2081  0.1046
  108POPC   GL2 1841   4.311  10.426   8.328  0.5317  0.0712 -0.0044
  108POPC   C1A 1842   4.516  10.028   7.885 -0.1664  0.3353 -0.1897
  108POPC   D2A 1843   4.710   9.801   7.585 -0.3590 -0.1419  0.0925
  108POPC   C3A 1844   5.086   9.698   7.496 -0.1342 -0.1044 -0.2662
  108POPC   C4A 1845   5.415   9.417   7.567 -0.4189 -0.0109 -0.0228
  108POPC   C1B 1846   4.109  10.328   7.885  0.2461 -0.2372  0.0062
  108POPC   C2B 1847   3.944  10.416   7.529 -0.2970  0.2949  0.2465
  108POPC   C3B 1848   3.761  10.394   7.098 -0.2883 -0.3136 -0.1075
  108POPC   C4B 1849   3.817  10.063   6.729 -0.5133  0.0309  0.1879
  109POPC   NC3 1850   7.143   3.569   9.764  0.1066 -0.0458  0.0434
  109POPC   PO4 1851   6.929   3.894   9.280 -0.1342 -0.0374 -0.0573
  109POPC   GL1 1852   7.041   4.094   8.805  0.0530 -0.0579  0.2251
  109POPC   GL2 1853   7.076   4.416   8.857  0.2444 -0.2992  0.1617
  109POPC   C1A 1854   7.079   4.172   8.379 -0.0228  0.0282 -0.1135
  109POPC   D2A 1855   7.176   4.022   8.011  0.0682  0.2999  0.0345
  109POPC   C3A 1856   6.824   4.058   7.751  0.2487 -0.2041 -0.1291
  109POPC   C4A 1857   7.031   3.846   7.365  0.2113 -0.3096  0.0886
  109POPC   C1B 1858   7.091   4.635   8.379 -0.2718 -0.0374 -0.0182
  109POPC   C2B 1859   7.134   4.944   8.064 -0.1872  0.0428 -0.2837
  109POPC   C3B 1860   6.899   5.080   7.761  0.0656 -0.1006  0.1363
  109POPC   C4B 1861   6.949   5.546   7.519 -0.1638  0.1272  0.1306
  110POPC   NC3 1862   0.122   5.773   9.255  0.0929 -0.0881  0.1100
  110POPC   PO4 1863   0.293   5.413   9.232  0.1766 -0.0746  0.2548
  110POPC   GL1 1864   0.489   5.476   8.893 -0.0203  0.2967 -0.1215
  110POPC   GL2 1865   0.806   5.651   8.871  0.1163  0.1734 -0.3866
  110POPC   C1A 1866   0.270   5.431   8.374  0.0604 -0.0554 -0.1413
  110POPC   D2A 1867   0.054   5.153   8.040  0.0428  0.1906  0.1537
  110POPC   C3A 1868   0.295   4.925   7.756 -0.0862 -0.1770 -0.0668
  110POPC   C4A 1869   0.472   5.122   7.415 -0.2409 -0.1491  0.1222
  110POPC   C1B 1870   0.735   5.601   8.400  0.0376 -0.2706  0.1641
  110POPC   C2B 1871   1.020   5.635   8.021  0.2113  0.4494 -0.0559
  110POPC   C3B 1872   0.926   5.870   7.587 -0.1594  0.0246  0.0548
  110POPC   C4B 1873   1.067   5.863   7.108 -0.1381  0.0289  0.1132
  111POPC   NC3 1874   0.215   1.490   8.846 -0.2145  0.2947 -0.0968
  111POPC   PO4 1875   0.614   1.753   8.632  0.1666 -0.4037 -0.0837
  111POPC   GL1 1876   0.792   1.560   8.262 -0.2694  0.5211 -0.1465
  111POPC   GL2 1877   0.846   1.868   8.025 -0.2967 -0.0961  0.0831
  111POPC   C1A 1878   0.687   1.412   7.960  0.0791 -0.0447  0.1454
  111POPC   D2A 1879   0.692   0.947   7.799  0.1794  0.0046 -0.0778
  111POPC   C3A 1880   1.046   0.906   7.682  0.1680  0.1878 -0.0383
  111POPC   C4A 1881   1.368   0.902   7.472  0.2084 -0.3395 -0.0529
  111POPC   C1B 1882   0.958   1.887   7.683 -0.1318 -0.3538 -0.1637
  111POPC   C2B 1883   0.850   1.893   7.307 -0.1177  0.3170  0.0197
  111POPC   C3B 1884   1.005   1.806   6.967 -0.2358  0.3249  0.0190
  111POPC   C4B 1885   1.263   1.761   6.531  0.0079  0.2042  0.1425
  112POPC   NC3 1886   8.247   1.385   9.339 -0.1527 -0.1139  0.1199
  112POPC   PO4 1887   7.873   1.353   9.037  0.0424 -0.2869 -0.0497
  112POPC   GL1 1888   7.735   1.434   8.642  0.0233  0.0037  0.0473
  112POPC   GL2 1889   7.817   1.697   8.576  0.1357 -0.1044 -0.4340
  112POPC   C1A 1890   7.837   1.244   8.285 -0.1873 -0.1967  0.0795
  112POPC   D2A 1891   7.949   1.283   7.840 -0.2594  0.2353 -0.0479
  112POPC   C3A 1892   8.205   1.485   7.602  0.2368 -0.1387  0.0277
  112POPC   C4A 1893   8.553   1.737   7.556  0.3825  0.0055  0.3842
  112POPC   C1B 1894   7.502   1.798   8.301  0.0222  0.0582 -0.0102
  112POPC   C2B 1895   7.370   1.986   7.970  0.1247 -0.1407  0.0463
  112POPC   C3B 1896   7.124   1.943   7.634  0.2518  0.2129 -0.1028
  112POPC   C4B 1897   6.943   1.749   7.231 -0.0630  0.1386  0.0962
  113POPC   NC3 1898   1.721   5.539   9.449 -0.1670  0.2937 -0.1533
  113POPC   PO4 1899   2.087   5.655   9.515  0.1842  0.0684  0.0240
  113POPC   GL1 1900   2.242   5.504   9.161  0.0031  0.0982  0.0084
  113POPC   GL2 1901   2.130   5.751   8.966  0.3607 -0.2008  0.1300
  113POPC   C1A 1902   2.671   5.585   8.991 -0.0998  0.0399 -0.1751
  113POPC   D2A 1903   3.156   5.528   8.874 -0.4149  0.3219 -0.3451
  113POPC   C3A 1904   3.532   5.739   8.961  0.0478 -0.0719  0.0826
  113POPC   C4A 1905   3.757   6.106   9.038  0.1640  0.1248 -0.3199
  113POPC   C1B 1906   1.811   5.566   8.599 -0.1073 -0.2524 -0.0808
  113POPC   C2B 1907   1.899   5.308   8.132  0.0774 -0.0163 -0.4490
  113POPC   C3B 1908   1.838   5.243   7.666 -0.1449 -0.1147  0.0338
  113POPC   C4B 1909   1.758   5.166   7.301  0.0439  0.4456  0.3035
  114POPC   NC3 1910   3.769   9.634   9.040 -0.0223 -0.2772 -0.0695
  114POPC   PO4 1911   3.892   9.264   9.351 -0.1904 -0.0296 -0.0336
  114POPC   GL1 1912   3.949   8.938   9.166 -0.0562  0.1654  0.0695
  114POPC   GL2 1913   3.933   8.604   9.062  0.0227 -0.2986  0.0110
  114POPC   C1A 1914   3.848   8.914   8.704 -0.0356  0.1204 -0.2337
  114POPC   D2A 1915   3.782   8.510   8.461 -0.0759 -0.1023 -0.1118
  114POPC   C3A 1916   4.166   8.375   8.377  0.0294  0.2528  0.2942
  114POPC   C4A 1917   4.553   8.104   8.375 -0.1552 -0.2793 -0.0250
  114POPC   C1B 1918   4.169   8.317   8.864  0.1405 -0.1320 -0.4930
  114POPC   C2B 1919   4.362   7.974   8.908  0.1456  0.2919  0.0938
  114POPC   C3B 1920   4.607   7.582   8.854 -0.0594 -0.1083 -0.1879
  114POPC   C4B 1921   4.739   7.288   9.114 -0.1408 -0.0467  0.2850
  115POPC   NC3 1922   0.528   3.645   9.665 -0.1129 -0.2315  0.1128
  115POPC   PO4 1923   0.606   3.289   9.312  0.2494 -0.3423  0.1299
  115POPC   GL1 1924   0.682   3.211   8.826  0.2321 -0.1003 -0.0647
  115POPC   GL2 1925   0.997   3.006   8.666  0.3055  0.0711  0.5522
  115POPC   C1A 1926   0.600   3.214   8.315 -0.0827 -0.0223 -0.0220
  115POPC   D2A 1927   0.597   3.189   7.847  0.0432 -0.1481 -0.1246
  115POPC   C3A 1928   0.874   3.456   7.763 -0.0531 -0.0712  0.0047
  115POPC   C4A 1929   0.982   3.338   7.331 -0.0576 -0.2132  0.1483
  115POPC   C1B 1930   1.156   3.177   8.335 -0.1431  0.4388  0.1848
  115POPC   C2B 1931   1.236   3.601   8.236 -0.1472 -0.3091 -0.3343
  115POPC   C3B 1932   1.107   3.890   7.886 -0.0247 -0.1643 -0.1289
  115POPC   C4B 1933   0.880   4.038   7.686  0.0448 -0.3741 -0.0287
  116POPC   NC3 1934   3.042   6.626   9.892  0.2514 -0.2265 -0.0712
  116POPC   PO4 1935   3.429   6.342  10.089 -0.0398  0.2940  0.0412
  116POPC   GL1 1936   3.464   6.304   9.591 -0.1126 -0.2577 -0.3260
  116POPC   GL2 1937   3.645   6.045   9.496  0.2675 -0.0825 -0.1140
  116POPC   C1A 1938   3.343   6.344   9.186 -0.2642  0.0290 -0.0979
  116POPC   D2A 1939   3.358   6.189   8.778  0.2220  0.1006  0.2060
  116POPC   C3A 1940   3.168   6.418   8.398 -0.0053  0.1652 -0.1328
  116POPC   C4A 1941   3.194   6.821   8.100  0.2103 -0.0214 -0.2969
  116POPC   C1B 1942   3.985   6.341   9.519  0.4282 -0.0013  0.2215
  116POPC   C2B 1943   4.181   6.788   9.465  0.1911 -0.1699  0.0457
  116POPC   C3B 1944   4.358   7.223   9.501  0.0321 -0.0371  0.0254
  116POPC   C4B 1945   4.820   7.411   9.577 -0.1234  0.1466  0.2082
  117POPC   NC3 1946   0.139   7.677   9.440 -0.4122  0.2941  0.1277
  117POPC   PO4 1947  -0.091   7.877   9.118  0.0282 -0.1936 -0.2914
  117POPC   GL1 1948   0.133   7.933   8.743  0.0551 -0.0121  0.0969
  117POPC   GL2 1949  -0.019   8.002   8.448  0.1871  0.0161 -0.3136
  117POPC   C1A 1950   0.507   7.925   8.402 -0.0208  0.0163 -0.2093
  117POPC   D2A 1951   0.854   7.711   8.185  0.0427  0.3812 -0.4735
  117POPC   C3A 1952   1.010   7.769   7.759 -0.2690  0.0105 -0.0351
  117POPC   C4A 1953   1.027   7.629   7.301  0.2264  0.1577  0.0447
  117POPC   C1B 1954   0.103   7.987   8.104 -0.1227 -0.3012 -0.0721
  117POPC   C2B 1955  -0.055   7.707   7.706 -0.3470  0.0123 -0.1192
  117POPC   C3B 1956  -0.262   7.423   7.519  0.2248  0.1390 -0.1353
  117POPC   C4B 1957  -0.507   7.071   7.358  0.0342  0.1160  0.1089
  118POPC   NC3 1958   2.111   2.707   9.297  0.0313 -0.3259  0.0757
  118POPC   PO4 1959   1.935   2.905   8.886  0.1314 -0.0463  0.2926
  118POPC   GL1 1960   2.101   2.745   8.586 -0.2359 -0.1119 -0.0679
  118POPC   GL2 1961   2.446   2.729   8.470  0.0299  0.1061  0.1188
  118POPC   C1A 1962   2.063   2.464   8.137 -0.2171  0.1321 -0.1883
  118POPC   D2A 1963   1.885   2.439   7.780  0.0080 -0.0603  0.1890
  118POPC   C3A 1964   1.768   1.965   7.624 -0.1413 -0.1693  0.1257
  118POPC   C4A 1965   1.568   1.682   7.955  0.0940  0.1116  0.1456
  118POPC   C1B 1966   2.321   2.958   8.163 -0.2829  0.0410 -0.3093
  118POPC   C2B 1967   2.278   3.438   8.008  0.2104  0.0935  0.3222
  118POPC   C3B 1968   1.973   3.661   7.796 -0.0035 -0.3530 -0.0831
  118POPC   C4B 1969   1.891   3.877   7.470 -0.0100  0.0365  0.1619
  119POPC   NC3 1970   4.106   0.384   8.745  0.0029 -0.2879  0.1887
  119POPC   PO4 1971   3.664   0.348   8.892  0.1136  0.0572 -0.2578
  119POPC   GL1 1972   3.767   0.344   8.387  0.0774 -0.2358 -0.1647
  119POPC   GL2 1973   3.508   0.583   8.389 -0.1577 -0.2643 -0.1035
  119POPC   C1A 1974   3.726   0.425   7.947 -0.0733 -0.0016  0.2346
  119POPC   D2A 1975   3.679   0.751   7.657 -0.0594 -0.2670 -0.3411
  119POPC   C3A 1976   3.894   0.741   7.307 -0.0495 -0.1551  0.1915
  119POPC   C4A 1977   4.280   0.499   7.157  0.3227  0.2306 -0.1888
  119POPC   C1B 1978   3.196   0.440   8.024 -0.1734  0.1116  0.0738
  119POPC   C2B 1979   3.054   0.094   7.806 -0.2687  0.0495 -0.1836
  119POPC   C3B 1980   2.996  -0.235   7.406 -0.3234 -0.0239  0.2242
  119POPC   C4B 1981   2.724  -0.585   7.171  0.0470  0.3260 -0.1646
  120POPC   NC3 1982   4.606   1.734   8.867  0.1414 -0.1035 -0.0257
  120POPC   PO4 1983   4.071   1.722   8.788 -0.1135 -0.1547  0.0159
  120POPC   GL1 1984   4.015   1.799   8.415  0.0785  0.2597 -0.0713
  120POPC   GL2 1985   3.743   1.828   8.297  0.1212 -0.3377 -0.1610
  120POPC   C1A 1986   4.103   2.182   8.055  0.1743  0.1447  0.0133
  120POPC   D2A 1987   4.362   2.512   8.060  0.0903  0.1142 -0.2722
  120POPC   C3A 1988   4.641   2.629   7.695 -0.0354  0.3396 -0.1007
  120POPC   C4A 1989   4.955   2.645   7.374  0.1115  0.3803 -0.0363
  120POPC   C1B 1990   3.802   1.535   7.973  0.1192  0.1191  0.0907
  120POPC   C2B 1991   3.588   1.357   7.758  0.4020  0.1439 -0.0734
  120POPC   C3B 1992   3.520   1.128   7.377 -0.1131 -0.1923  0.1353
  120POPC   C4B 1993   3.336   1.237   7.038 -0.3181  0.0124 -0.0808
  121POPC   NC3 1994  10.144   2.253   9.206  0.2906  0.1800 -0.3160
  121POPC   PO4 1995  10.162   1.956   8.968  0.2849  0.3607  0.0330
  121POPC   GL1 1996   9.901   1.730   8.721  0.0675 -0.0594  0.0910
  121POPC   GL2 1997   9.554   1.758   8.734 -0.0305 -0.1918  0.0042
  121POPC   C1A 1998  10.009   1.620   8.314  0.2133 -0.0693  0.4591
  121POPC   D2A 1999  10.271   1.667   7.993  0.2024  0.0237  0.1349
  121POPC   C3A 2000  10.401   1.286   7.889  0.0500 -0.0613 -0.1967
  121POPC   C4A 2001  10.488   1.128   7.496 -0.0696  0.0180 -0.0273
  121POPC   C1B 2002   9.426   2.093   8.411 -0.1281  0.2090  0.0739
  121POPC   C2B 2003   9.422   2.218   8.036 -0.2363 -0.0913 -0.0181
  121POPC   C3B 2004   9.227   2.247   7.743 -0.1437  0.1898 -0.2117
  121POPC   C4B 2005   9.042   2.047   7.369 -0.0408 -0.2077 -0.0347
  122POPC   NC3 2006   3.524   0.876   8.784  0.2451  0.0355 -0.1152
  122POPC   PO4 2007   3.917   0.852   8.618  0.2396  0.0776 -0.3181
  122POPC   GL1 2008   4.100   1.093   8.282  0.1399  0.1801 -0.0082
  122POPC   GL2 2009   4.241   1.308   8.444  0.4307  0.1129 -0.0880
  122POPC   C1A 2010   4.261   1.090   7.834 -0.1950  0.0880 -0.2703
  122POPC   D2A 2011   4.015   1.184   7.539 -0.0121  0.0597  0.1798
  122POPC   C3A 2012   4.285   1.006   7.164  0.0365  0.2384 -0.0210
  122POPC   C4A 2013   4.314   1.053   6.747 -0.0435 -0.2458 -0.1095
  122POPC   C1B 2014   4.405   1.483   8.079  0.3707  0.3460  0.1349
  122POPC   C2B 2015   4.312   1.617   7.699  0.0090  0.0140 -0.1341
  122POPC   C3B 2016   4.350   1.465   7.233 -0.1421 -0.4018  0.2227
  122POPC   C4B 2017   4.620   1.614   6.781 -0.3712  0.3876 -0.3079
  123POPC   NC3 2018   2.737   0.505   8.975 -0.0973  0.1003 -0.2904
  123POPC   PO4 2019   2.545   0.785   8.731  0.1025 -0.2736 -0.1707
  123POPC   GL1 2020   2.445   1.092   8.346 -0.0854  0.4511  0.0037
  123POPC   GL2 2021   2.486   1.402   8.285 -0.1460 -0.2940  0.0186
  123POPC   C1A 2022   2.145   0.895   8.028  0.0494  0.0086  0.0460
  123POPC   D2A 2023   1.859   0.864   7.689 -0.1298  0.0696 -0.0192
  123POPC   C3A 2024   1.703   1.176   7.735 -0.1856 -0.1099  0.0752
  123POPC   C4A 2025   1.502   1.378   7.329  0.1112  0.0560  0.0881
  123POPC   C1B 2026   2.438   1.273   7.815  0.0653 -0.0062  0.2504
  123POPC   C2B 2027   2.326   1.332   7.295 -0.1294 -0.0989 -0.0620
  123POPC   C3B 2028   2.626   1.142   6.926  0.0244 -0.4044  0.0620
  123POPC   C4B 2029   2.996   0.886   6.861  0.2589  0.0265  0.0018
  124POPC   NC3 2030   2.524   3.191   9.494 -0.1771 -0.3307  0.3735
  124POPC   PO4 2031   2.881   3.282   9.144 -0.0374 -0.3112 -0.4033
  124POPC   GL1 2032   2.997   3.239   8.760  0.2451 -0.2120  0.2719
  124POPC   GL2 2033   2.832   3.067   8.549 -0.3045 -0.1518  0.2009
  124POPC   C1A 2034   3.344   3.138   8.571 -0.1039 -0.1221 -0.1438
  124POPC   D2A 2035   3.597   3.038   8.215  0.2953 -0.0604 -0.2980
  124POPC   C3A 2036   3.545   3.178   7.804  0.0298  0.4624 -0.3127
  124POPC   C4A 2037   3.808   3.301   7.561  0.1150  0.2089 -0.2091
  124POPC   C1B 2038   3.059   3.194   8.178  0.2564 -0.0743 -0.0751
  124POPC   C2B 2039   3.241   3.545   7.958 -0.2083 -0.2213 -0.2810
  124POPC   C3B 2040   3.686   3.824   7.884 -0.1542  0.2366 -0.3199
  124POPC   C4B 2041   4.115   3.843   7.797 -0.0066 -0.1621 -0.1348
  125POPC   NC3 2042   0.258   2.949   9.046 -0.1484  0.0218 -0.0879
  125POPC   PO4 2043  -0.050   2.763   9.161  0.0331 -0.1079  0.0678
  125POPC   GL1 2044  -0.080   2.568   8.819  0.0335 -0.0317 -0.0895
  125POPC   GL2 2045   0.205   2.370   8.686 -0.0349  0.0214 -0.1239
  125POPC   C1A 2046  -0.166   2.712   8.400  0.0848  0.0579  0.0931
  125POPC   D2A 2047   0.035   2.562   7.967  0.1992  0.2412  0.3892
  125POPC   C3A 2048   0.128   2.401   7.501  0.0572 -0.0876  0.1333
  125POPC   C4A 2049   0.229   2.574   7.078 -0.1730  0.2128 -0.0875
  125POPC   C1B 2050   0.293   2.366   8.308  0.2787  0.0707  0.0091
  125POPC   C2B 2051   0.326   2.150   8.041  0.3482  0.2106  0.1974
  125POPC   C3B 2052   0.433   1.837   7.690 -0.1426  0.2729 -0.0444
  125POPC   C4B 2053   0.605   1.498   7.432 -0.1173 -0.0108 -0.0312
  126POPC   NC3 2054   5.716   7.778   9.811 -0.0007  0.2876  0.2185
  126POPC   PO4 2055   5.434   8.108   9.644 -0.1144 -0.1431  0.1491
  126POPC   GL1 2056   5.763   8.150   9.394 -0.0881  0.0431 -0.0038
  126POPC   GL2 2057   5.961   7.889   9.409  0.0350 -0.1536 -0.2480
  126POPC   C1A 2058   5.886   8.143   9.002  0.0813  0.0401  0.2243
  126POPC   D2A 2059   6.087   7.922   8.714 -0.0651  0.0835 -0.2796
  126POPC   C3A 2060   6.500   7.876   8.669  0.0599  0.3685  0.1147
  126POPC   C4A 2061   6.919   7.672   8.901  0.3311 -0.3695  0.1258
  126POPC   C1B 2062   5.789   7.639   9.119 -0.1362 -0.0208 -0.0445
  126POPC   C2B 2063   5.645   7.630   8.721  0.0883 -0.0762 -0.0840
  126POPC   C3B 2064   5.628   7.430   8.365  0.0614 -0.0501  0.2910
  126POPC   C4B 2065   5.670   7.452   7.986  0.3750  0.1410 -0.0533
  127POPC   NC3 2066   4.214   7.074  10.764 -0.0195 -0.2643  0.2764
  127POPC   PO4 2067   4.182   7.006  10.253  0.0965 -0.2089  0.0922
  127POPC   GL1 2068   3.964   6.957   9.886  0.1909  0.1088  0.1567
  127POPC   GL2 2069   3.675   6.762   9.864 -0.1470  0.1499 -0.2089
  127POPC   C1A 2070   3.812   7.132   9.427 -0.0808 -0.1937 -0.1260
  127POPC   D2A 2071   3.476   7.210   9.250  0.3858 -0.0461  0.0975
  127POPC   C3A 2072   3.486   7.494   8.860  0.2601  0.1350 -0.4667
  127POPC   C4A 2073   3.454   7.841   8.656  0.1695 -0.1056  0.2421
  127POPC   C1B 2074   3.612   6.693   9.384  0.1497  0.0184  0.4632
  127POPC   C2B 2075   3.586   6.763   9.018  0.2492 -0.0041 -0.1994
  127POPC   C3B 2076   3.695   6.552   8.717  0.2892  0.3281 -0.1241
  127POPC   C4B 2077   3.669   6.541   8.231  0.0825  0.1604  0.2244
  128POPC   NC3 2078   2.524   9.071   9.939 -0.0672 -0.2004 -0.3747
  128POPC   PO4 2079   2.584   8.794   9.615  0.3644 -0.1831  0.2830
  128POPC   GL1 2080   2.629   8.617   9.208 -0.2539  0.0037  0.0913
  128POPC   GL2 2081   2.354   8.533   8.990  0.0136  0.1074 -0.0123
  128POPC   C1A 2082   2.818   8.516   8.821 -0.1883  0.0242  0.0479
  128POPC   D2A 2083   2.894   8.507   8.342  0.2599 -0.1768  0.0926
  128POPC   C3A 2084   2.978   8.868   8.013  0.1082 -0.0045  0.2439
  128POPC   C4A 2085   3.204   9.224   7.905  0.1741  0.1667 -0.0979
  128POPC   C1B 2086   2.337   8.755   8.625  0.2336  0.3896  0.0172
  128POPC   C2B 2087   2.366   8.753   8.193 -0.1012 -0.0949  0.0717
  128POPC   C3B 2088   2.583   8.649   7.783 -0.0004  0.1115 -0.0347
  128POPC   C4B 2089   2.674   8.755   7.305  0.2778  0.0573 -0.1103
  129POPC   NC3 2090   7.583   5.806   9.460  0.2644 -0.0061  0.2473
  129POPC   PO4 2091   7.255   5.504   9.576 -0.2803 -0.2016 -0.3338
  129POPC   GL1 2092   7.251   5.386   9.127 -0.3057  0.0471 -0.2826
  129POPC   GL2 2093   7.005   5.265   9.111  0.3173 -0.0337  0.3995
  129POPC   C1A 2094   7.273   5.615   8.745  0.3453  0.0711  0.3179
  129POPC   D2A 2095   6.922   5.642   8.431  0.1833 -0.1031 -0.3364
  129POPC   C3A 2096   7.093   5.440   8.154  0.0853  0.1137 -0.0290
  129POPC   C4A 2097   7.402   5.297   7.720  0.2430  0.5090  0.2700
  129POPC   C1B 2098   6.928   5.197   8.642 -0.0531  0.0058 -0.1942
  129POPC   C2B 2099   6.716   4.957   8.286 -0.0973 -0.0898 -0.0802
  129POPC   C3B 2100   6.349   4.882   8.000  0.2849 -0.0344 -0.0430
  129POPC   C4B 2101   5.942   4.652   7.740  0.5599  0.2453  0.0340
  130POPC   NC3 2102   5.692   9.741   9.503  0.1225  0.0450  0.1837
  130POPC   PO4 2103   5.517   9.330   9.673 -0.0315  0.1487 -0.0318
  130POPC   GL1 2104   5.520   9.194   9.306  0.2098  0.2324  0.1125
  130POPC   GL2 2105   5.488   9.378   9.107 -0.3382  0.1436 -0.0336
  130POPC   C1A 2106   5.757   8.989   8.925  0.0299  0.1527 -0.2338
  130POPC   D2A 2107   5.892   9.041   8.544 -0.1984 -0.0297  0.0401
  130POPC   C3A 2108   5.760   8.877   8.236  0.2624  0.0298  0.1701
  130POPC   C4A 2109   6.011   8.634   7.918  0.0302  0.1449  0.1808
  130POPC   C1B 2110   5.663   9.482   8.730 -0.3802  0.3692 -0.4582
  130POPC   C2B 2111   5.790   9.437   8.285 -0.0622  0.1823  0.2181
  130POPC   C3B 2112   6.105   9.307   8.164  0.0162 -0.2669 -0.0859
  130POPC   C4B 2113   6.368   9.315   7.816  0.1913 -0.0199  0.1692
  131POPC   NC3 2114   0.221   9.899   9.006 -0.2339 -0.0760  0.2171
  131POPC   PO4 2115   0.261  10.360   8.859 -0.0051 -0.2304  0.0932
  131POPC   GL1 2116   0.008  10.355   8.586  0.1833  0.3907  0.1998
  131POPC   GL2 2117  -0.180  10.019   8.638 -0.2056  0.2429 -0.0010
  131POPC   C1A 2118  -0.312  10.308   8.232 -0.1438  0.0986  0.0337
  131POPC   D2A 2119  -0.586  10.440   7.872 -0.0303  0.1731  0.1838
  131POPC   C3A 2120  -0.253  10.615   7.643 -0.1363 -0.0199 -0.0413
  131POPC   C4A 2121  -0.107  10.979   7.461  0.2811 -0.3585 -0.1337
  131POPC   C1B 2122   0.109   9.951   8.249  0.1851  0.1030  0.0181
  131POPC   C2B 2123   0.279   9.909   7.992  0.0376 -0.2285  0.3023
  131POPC   C3B 2124   0.282   9.848   7.428 -0.4681 -0.2758 -0.0679
  131POPC   C4B 2125   0.299  10.189   7.004  0.0266 -0.2571 -0.0116
  132POPC   NC3 2126  10.031   6.771   8.601 -0.0687  0.2225 -0.1412
  132POPC   PO4 2127   9.919   6.515   8.856 -0.1353  0.4900  0.0631
  132POPC   GL1 2128   9.741   6.364   8.490 -0.0501 -0.0964  0.0765
  132POPC   GL2 2129   9.973   6.032   8.323 -0.2846  0.1743  0.3154
  132POPC   C1A 2130   9.905   6.454   8.026  0.2184 -0.0186 -0.0791
  132POPC   D2A 2131  10.132   6.687   7.746 -0.0634  0.2079  0.1007
  132POPC   C3A 2132  10.191   6.895   7.321  0.0433 -0.0303 -0.2527
  132POPC   C4A 2133  10.057   6.931   6.976  0.2695 -0.0708 -0.3332
  132POPC   C1B 2134  10.114   5.647   8.018 -0.1230  0.0469  0.1647
  132POPC   C2B 2135  10.273   5.572   7.632  0.0737  0.1954  0.2228
  132POPC   C3B 2136  10.267   5.710   7.158  0.0013  0.1036 -0.1254
  132POPC   C4B 2137  10.405   5.907   6.813 -0.1063 -0.2692  0.1232
  133POPC   NC3 2138   2.811   9.172   9.170  0.1499 -0.0415  0.2449
  133POPC   PO4 2139   3.134   9.442   9.090 -0.0551 -0.1609  0.2571
  133POPC   GL1 2140   3.342   9.538   8.701 -0.0574  0.2175  0.3076
  133POPC   GL2 2141   3.464   9.790   8.555 -0.3179 -0.0399  0.0063
  133POPC   C1A 2142   3.530   9.253   8.435  0.1245  0.1850 -0.0883
  133POPC   D2A 2143   3.759   9.035   8.147 -0.2978  0.0361  0.0624
  133POPC   C3A 2144   3.497   8.778   7.987 -0.0382  0.5004  0.0532
  133POPC   C4A 2145   3.206   8.844   7.572  0.1521  0.2945 -0.1859
  133POPC   C1B 2146   3.541   9.674   8.160  0.1391  0.0793 -0.0580
  133POPC   C2B 2147   3.682   9.500   7.771 -0.0468  0.0445  0.0066
  133POPC   C3B 2148   3.709   8.998   7.555  0.1267 -0.1116 -0.1846
  133POPC   C4B 2149   3.589   8.558   7.536  0.0828 -0.1106  0.3151
  134POPC   NC3 2150   7.210   8.945   9.315  0.2179 -0.0900 -0.0342
  134POPC   PO4 2151   7.706   9.030   9.271  0.0213  0.2837  0.0588
  134POPC   GL1 2152   7.788   8.801   8.911  0.1691  0.3148 -0.4910
  134POPC   GL2 2153   7.928   8.951   8.733  0.2293  0.0212 -0.0555
  134POPC   C1A 2154   7.490   8.690   8.535  0.1230  0.0063  0.0033
  134POPC   D2A 2155   7.259   8.823   8.244  0.0352  0.2150 -0.1072
  134POPC   C3A 2156   6.813   8.857   8.195 -0.1447 -0.0008  0.0257
  134POPC   C4A 2157   6.358   8.942   8.352 -0.1852  0.1389  0.3749
  134POPC   C1B 2158   7.658   9.205   8.489  0.1856 -0.1653 -0.0115
  134POPC   C2B 2159   7.451   9.636   8.485  0.0332 -0.1069 -0.1140
  134POPC   C3B 2160   7.390  10.098   8.323 -0.2404  0.0426 -0.2166
  134POPC   C4B 2161   7.230  10.253   8.001 -0.0698  0.1492  0.0176
  135POPC   NC3 2162   9.003   8.706   9.279  0.0147  0.0644 -0.0405
  135POPC   PO4 2163   9.249   8.988   9.097 -0.1032  0.1854  0.2029
  135POPC   GL1 2164   9.284   8.956   8.599 -0.0748  0.2108 -0.2487
  135POPC   GL2 2165   9.536   9.018   8.535 -0.2257  0.0926 -0.0885
  135POPC   C1A 2166   9.162   9.163   8.172 -0.1810 -0.1520  0.1671
  135POPC   D2A 2167   8.869   9.379   7.955  0.2134  0.0346 -0.0426
  135POPC   C3A 2168   9.182   9.532   7.640 -0.0411 -0.0067 -0.0553
  135POPC   C4A 2169   9.555   9.562   7.287 -0.0014 -0.0647  0.0175
  135POPC   C1B 2170   9.707   8.848   8.134 -0.1710 -0.0810  0.0058
  135POPC   C2B 2171   9.653   8.437   7.873  0.0406  0.0345 -0.0525
  135POPC   C3B 2172   9.665   7.953   7.702  0.1911  0.0567  0.1815
  135POPC   C4B 2173   9.556   7.681   7.487  0.1694  0.4380  0.1020
  136POPC   NC3 2174   4.040   1.215   8.900  0.1666 -0.1777  0.1128
  136POPC   PO4 2175   4.466   1.283   9.053  0.2559 -0.4094 -0.1872
  136POPC   GL1 2176   4.646   1.195   8.671  0.2870  0.0694  0.1049
  136POPC   GL2 2177   4.757   1.485   8.466 -0.0156  0.0727  0.0511
  136POPC   C1A 2178   4.731   1.021   8.220 -0.0800  0.0261  0.2197
  136POPC   D2A 2179   4.717   0.810   7.904  0.1364 -0.0308  0.0189
  136POPC   C3A 2180   4.732   1.075   7.622 -0.2733 -0.0086  0.1822
  136POPC   C4A 2181   4.736   1.256   7.148 -0.1842 -0.0464 -0.3446
  136POPC   C1B 2182   4.947   1.578   7.982 -0.1232 -0.0475 -0.1636
  136POPC   C2B 2183   4.774   1.616   7.565 -0.3534  0.1817 -0.0907
  136POPC   C3B 2184   4.647   1.896   7.273  0.1417  0.0328  0.4647
  136POPC   C4B 2185   4.352   1.943   7.008 -0.0369  0.0748 -0.0587
  137POPC   NC3 2186   4.508   5.025   9.853  0.1507 -0.1126  0.0070
  137POPC   PO4 2187   4.950   4.938   9.908  0.2289 -0.0271  0.3580
  137POPC   GL1 2188   4.782   5.219   9.531 -0.5210 -0.0786 -0.2239
  137POPC   GL2 2189   4.708   5.548   9.568  0.2448  0.3931  0.3251
  137POPC   C1A 2190   4.463   5.429   9.145 -0.3288  0.1487  0.1622
  137POPC   D2A 2191   4.307   5.530   8.743  0.0200 -0.1046 -0.0670
  137POPC   C3A 2192   3.987   5.767   8.639 -0.0649 -0.1674  0.1534
  137POPC   C4A 2193   3.781   6.134   8.520 -0.4374  0.0220 -0.0581
  137POPC   C1B 2194   4.858   5.708   9.109  0.1340  0.0451 -0.0164
  137POPC   C2B 2195   4.826   6.020   8.832 -0.2441  0.1676  0.3137
  137POPC   C3B 2196   4.654   6.404   8.912 -0.0655 -0.1859 -0.0786
  137POPC   C4B 2197   4.609   6.804   9.084 -0.0531  0.0944  0.0530
  138POPC   NC3 2198   6.871   1.444   9.516  0.1175  0.1641  0.2581
  138POPC   PO4 2199   6.823   1.009   9.626 -0.2699  0.1641 -0.2212
  138POPC   GL1 2200   6.745   1.061   9.192  0.1179 -0.3238  0.1472
  138POPC   GL2 2201   6.594   1.425   9.095  0.0142 -0.1930  0.1722
  138POPC   C1A 2202   6.905   1.148   8.767 -0.1681 -0.2021  0.0945
  138POPC   D2A 2203   6.884   0.803   8.470  0.3545 -0.1226 -0.0039
  138POPC   C3A 2204   6.582   0.717   8.180 -0.0254 -0.0228 -0.1228
  138POPC   C4A 2205   6.407   0.608   7.867 -0.2076 -0.1165 -0.2848
  138POPC   C1B 2206   6.710   1.556   8.733  0.2223 -0.1190 -0.1845
  138POPC   C2B 2207   6.404   1.609   8.236  0.0330 -0.0946  0.1486
  138POPC   C3B 2208   5.951   1.628   7.952 -0.2550  0.1855  0.2723
  138POPC   C4B 2209   5.852   1.668   7.515 -0.0001  0.1033  0.0622
  139POPC   NC3 2210   5.624   6.437  10.125  0.3680  0.1202  0.3020
  139POPC   PO4 2211   5.952   6.530  10.159 -0.3860 -0.0401 -0.1840
  139POPC   GL1 2212   5.954   6.809   9.830 -0.0129  0.0852 -0.0632
  139POPC   GL2 2213   5.635   6.869   9.792  0.0391  0.1490  0.0484
  139POPC   C1A 2214   6.124   6.666   9.466 -0.1072  0.1416 -0.1109
  139POPC   D2A 2215   6.448   6.528   9.236  0.1941  0.1700 -0.1631
  139POPC   C3A 2216   6.477   6.086   9.073 -0.0850  0.2053 -0.0377
  139POPC   C4A 2217   6.701   5.694   8.887  0.1426 -0.0006 -0.0389
  139POPC   C1B 2218   5.511   6.651   9.301  0.2036 -0.5082  0.1612
  139POPC   C2B 2219   5.513   6.614   8.932  0.0522  0.0282 -0.1297
  139POPC   C3B 2220   5.495   6.602   8.475  0.3585 -0.1155 -0.2378
  139POPC   C4B 2221   5.588   6.480   8.062  0.2837  0.0687 -0.2577
  140POPC   NC3 2222   1.239   8.516   9.380 -0.2146 -0.3586 -0.0364
  140POPC   PO4 2223   1.539   8.232   9.363  0.1248 -0.1467 -0.1396
  140POPC   GL1 2224   1.517   8.313   9.012  0.0339 -0.3178  0.0691
  140POPC   GL2 2225   1.315   8.270   8.808 -0.0641 -0.3221  0.0300
  140POPC   C1A 2226   1.948   8.446   8.676 -0.1713  0.2005  0.2141
  140POPC   D2A 2227   2.373   8.319   8.383  0.0814 -0.0684  0.0714
  140POPC   C3A 2228   2.361   8.193   7.991 -0.0028 -0.1829 -0.0133
  140POPC   C4A 2229   2.154   8.037   7.744 -0.1535 -0.2532 -0.2137
  140POPC   C1B 2230   1.593   8.250   8.400 -0.2160 -0.0015  0.0515
  140POPC   C2B 2231   1.953   8.045   8.299 -0.0189 -0.5006 -0.2366
  140POPC   C3B 2232   2.172   7.747   8.131  0.0728  0.0784 -0.1510
  140POPC   C4B 2233   2.351   7.350   7.871  0.2432 -0.1439  0.1158
  141POPC   NC3 2234   2.111   7.542   9.765 -0.2420 -0.0631 -0.1952
  141POPC   PO4 2235   2.255   7.707   9.383 -0.1252 -0.1734 -0.1650
  141POPC   GL1 2236   2.520   7.740   9.057 -0.0381 -0.2882  0.1018
  141POPC   GL2 2237   2.554   8.093   8.871 -0.2493 -0.2194 -0.1791
  141POPC   C1A 2238   2.549   7.501   8.634 -0.0687 -0.1906 -0.0546
  141POPC   D2A 2239   2.675   7.580   8.151  0.0371  0.1459 -0.0666
  141POPC   C3A 2240   2.639   7.826   7.859  0.2652  0.1671 -0.1278
  141POPC   C4A 2241   2.560   8.156   7.553  0.1754  0.0990 -0.1651
  141POPC   C1B 2242   2.113   7.955   8.744 -0.2030 -0.0484  0.2722
  141POPC   C2B 2243   1.882   7.581   8.532 -0.0442 -0.3488  0.0841
  141POPC   C3B 2244   1.794   7.343   8.093  0.1642 -0.2737  0.1051
  141POPC   C4B 2245   1.888   7.225   7.610  0.2852 -0.3879  0.1099
  142POPC   NC3 2246   2.526   6.044   9.908  0.2184  0.0297  0.1440
  142POPC   PO4 2247   2.205   6.249   9.695 -0.3183 -0.0483  0.0878
  142POPC   GL1 2248   1.993   6.477   9.312 -0.1276 -0.1730 -0.0830
  142POPC   GL2 2249   2.240   6.652   9.240  0.1861 -0.1456  0.0576
  142POPC   C1A 2250   1.986   6.230   9.062  0.2319  0.1283  0.2199
  142POPC   D2A 2251   1.630   5.906   9.055 -0.1081  0.2982  0.1178
  142POPC   C3A 2252   1.346   5.900   8.615 -0.1859  0.1160 -0.0388
  142POPC   C4A 2253   1.316   5.446   8.404 -0.0950  0.2623  0.3779
  142POPC   C1B 2254   2.079   6.640   8.805  0.0565  0.2367 -0.1555
  142POPC   C2B 2255   2.085   6.685   8.305 -0.2463 -0.1230 -0.2331
  142POPC   C3B 2256   2.039   6.843   7.888 -0.2376 -0.0965 -0.4377
  142POPC   C4B 2257   2.067   6.743   7.425 -0.0383  0.0245  0.4488
  143POPC   NC3 2258   9.475   4.839   9.084 -0.2354 -0.0240  0.0405
  143POPC   PO4 2259   9.207   5.149   9.140  0.2683  0.1009  0.1683
  143POPC   GL1 2260   8.967   5.006   8.749 -0.0635 -0.2642 -0.2281
  143POPC   GL2 2261   8.851   5.213   8.552 -0.0857 -0.0061  0.0187
  143POPC   C1A 2262   8.881   4.829   8.218  0.1197 -0.3559 -0.2702
  143POPC   D2A 2263   8.849   4.655   7.786 -0.0778 -0.1409 -0.1494
  143POPC   C3A 2264   8.500   4.257   7.816  0.3370  0.6597 -0.0026
  143POPC   C4A 2265   8.245   3.961   7.575 -0.2588 -0.1223  0.1562
  143POPC   C1B 2266   8.715   5.327   8.078  0.0163  0.1513 -0.2213
  143POPC   C2B 2267   8.963   5.228   7.792 -0.0129  0.2954 -0.4619
  143POPC   C3B 2268   9.408   5.419   7.698  0.4108  0.1872  0.0850
  143POPC   C4B 2269   9.682   5.595   7.808 -0.1434  0.1542 -0.1154
  144POPC   NC3 2270   2.395   3.635   9.159  0.0476 -0.1369 -0.0537
  144POPC   PO4 2271   2.172   4.109   9.056 -0.0040  0.4419 -0.0953
  144POPC   GL1 2272   1.893   4.309   8.747  0.1395  0.0993  0.0784
  144POPC   GL2 2273   1.711   4.062   8.488 -0.0296  0.1487 -0.0098
  144POPC   C1A 2274   2.023   4.322   8.267  0.2580 -0.0816  0.1554
  144POPC   D2A 2275   1.900   4.310   7.834 -0.2366 -0.0923  0.1794
  144POPC   C3A 2276   1.723   4.398   7.400 -0.0997 -0.0590  0.0538
  144POPC   C4A 2277   1.542   4.601   6.988  0.2176 -0.0732 -0.1900
  144POPC   C1B 2278   1.727   3.863   8.157 -0.0640 -0.0102 -0.1917
  144POPC   C2B 2279   1.515   3.619   7.837  0.4001 -0.0584 -0.3388
  144POPC   C3B 2280   1.355   3.230   7.821 -0.0419 -0.0341  0.0118
  144POPC   C4B 2281   0.965   2.949   7.700 -0.2510  0.2060 -0.0758
  145POPC   NC3 2282   4.483   0.863   9.303  0.3286  0.1338 -0.1369
  145POPC   PO4 2283   4.451   0.783   8.898  0.0881  0.1372  0.2967
  145POPC   GL1 2284   4.417   0.726   8.504 -0.0172  0.1608 -0.3264
  145POPC   GL2 2285   4.662   0.491   8.385 -0.0949 -0.1565 -0.2118
  145POPC   C1A 2286   4.251   0.626   8.064  0.1303  0.0220 -0.2682
  145POPC   D2A 2287   4.366   0.667   7.603  0.1078 -0.0234  0.3182
  145POPC   C3A 2288   4.799   0.560   7.508  0.0008 -0.1863  0.1052
  145POPC   C4A 2289   5.173   0.435   7.263  0.0020  0.0895  0.2110
  145POPC   C1B 2290   4.623   0.328   7.961  0.3188 -0.2929 -0.0340
  145POPC   C2B 2291   4.483   0.176   7.540 -0.3884  0.0061  0.1915
  145POPC   C3B 2292   4.431  -0.113   7.335  0.2270 -0.1079  0.1486
  145POPC   C4B 2293   4.700  -0.415   7.075 -0.0619 -0.0940  0.0060
  146POPC   NC3 2294   1.127   6.473   9.650 -0.0724 -0.1778 -0.1975
  146POPC   PO4 2295   1.367   6.306   9.360  0.1792 -0.2951  0.0755
  146POPC   GL1 2296   1.450   6.443   8.968 -0.3690 -0.3841 -0.1963
  146POPC   GL2 2297   1.513   6.650   8.727  0.1651 -0.3625 -0.2089
  146POPC   C1A 2298   1.742   6.194   8.646 -0.0889 -0.1131  0.0348
  146POPC   D2A 2299   2.056   6.093   8.593 -0.2668 -0.2650 -0.0282
  146POPC   C3A 2300   2.250   6.235   8.203  0.0629 -0.0169 -0.0407
  146POPC   C4A 2301   2.457   6.456   7.980  0.2571  0.3596  0.1801
  146POPC   C1B 2302   1.609   6.530   8.308 -0.0070 -0.2334  0.2801
  146POPC   C2B 2303   1.793   6.380   7.890 -0.3115 -0.2750  0.1002
  146POPC   C3B 2304   1.865   6.264   7.437 -0.1498  0.2171 -0.2040
  146POPC   C4B 2305   2.010   6.322   7.087 -0.0431 -0.0518 -0.2406
  147POPC   NC3 2306   2.451   4.469   9.214 -0.2301  0.2859 -0.1589
  147POPC   PO4 2307   2.843   4.640   9.463 -0.2946  0.3604 -0.1005
  147POPC   GL1 2308   2.888   4.886   9.193  0.1079 -0.1817 -0.1845
  147POPC   GL2 2309   2.583   5.022   9.113 -0.0410 -0.0141 -0.4186
  147POPC   C1A 2310   3.104   5.058   8.807 -0.0933 -0.0753  0.1423
  147POPC   D2A 2311   3.297   5.097   8.410 -0.0396  0.3389  0.0801
  147POPC   C3A 2312   3.698   5.046   8.250  0.2125  0.1486  0.1102
  147POPC   C4A 2313   4.127   5.028   7.955  0.1262 -0.1037  0.0008
  147POPC   C1B 2314   2.409   5.237   8.823  0.2594  0.3290  0.1243
  147POPC   C2B 2315   2.406   5.586   8.588  0.1761  0.1868 -0.0502
  147POPC   C3B 2316   2.125   5.746   8.226 -0.0782  0.1065 -0.1227
  147POPC   C4B 2317   1.685   5.935   8.246 -0.1835 -0.0133 -0.1528
  148POPC   NC3 2318   8.762   5.580   8.935 -0.1079  0.0856 -0.1241
  148POPC   PO4 2319   8.921   5.982   8.863 -0.4650 -0.1039 -0.1884
  148POPC   GL1 2320   9.015   5.818   8.462  0.1086  0.2683 -0.4684
  148POPC   GL2 2321   9.210   5.540   8.627 -0.0849  0.0550  0.2111
  148POPC   C1A 2322   9.144   5.705   8.013 -0.1136 -0.2375 -0.2044
  148POPC   D2A 2323   9.144   5.837   7.586 -0.1553 -0.0304  0.1804
  148POPC   C3A 2324   9.263   5.611   7.193 -0.0968 -0.0071  0.0838
  148POPC   C4A 2325   9.315   5.485   6.859  0.2006 -0.1887 -0.0662
  148POPC   C1B 2326   9.272   5.286   8.230 -0.0145  0.4393 -0.2706
  148POPC   C2B 2327   9.368   4.938   7.922  0.2480  0.2721 -0.0328
  148POPC   C3B 2328   9.273   4.481   7.916 -0.1203  0.0780  0.1948
  148POPC   C4B 2329   9.428   4.081   7.706 -0.1512 -0.0230 -0.0903
  149POPC   NC3 2330   0.154   6.661   9.471  0.1307 -0.0229 -0.3591
  149POPC   PO4 2331   0.510   6.259   9.207  0.1282 -0.0478  0.1933
  149POPC   GL1 2332   0.479   6.091   8.917 -0.0712 -0.3459  0.0800
  149POPC   GL2 2333   0.761   6.242   8.727  0.3123  0.1704  0.1408
  149POPC   C1A 2334   0.297   5.937   8.486 -0.3072  0.4911  0.2555
  149POPC   D2A 2335   0.511   5.737   7.980 -0.1836 -0.2670 -0.3670
  149POPC   C3A 2336   0.678   5.340   7.885 -0.1993  0.1301 -0.0625
  149POPC   C4A 2337   0.831   4.907   7.702  0.0486  0.2652  0.3229
  149POPC   C1B 2338   0.727   6.127   8.257 -0.2183  0.1301 -0.0719
  149POPC   C2B 2339   0.813   6.260   7.921  0.0244 -0.0086 -0.1333
  149POPC   C3B 2340   0.927   6.362   7.502  0.1928 -0.1256  0.0249
  149POPC   C4B 2341   1.097   6.406   7.017  0.1066 -0.1415 -0.1344
  150POPC   NC3 2342   8.934   4.974   9.703  0.0532  0.0382  0.0614
  150POPC   PO4 2343   8.948   4.720   9.289  0.1766 -0.0283  0.2924
  150POPC   GL1 2344   8.997   4.554   8.961  0.1374  0.2293 -0.2134
  150POPC   GL2 2345   9.240   4.473   8.890  0.0808  0.2253  0.1691
  150POPC   C1A 2346   8.632   4.514   8.681  0.1236  0.3526 -0.2238
  150POPC   D2A 2347   8.392   4.804   8.480 -0.1680 -0.2492  0.1642
  150POPC   C3A 2348   8.368   4.816   8.024  0.1863  0.4549  0.1560
  150POPC   C4A 2349   8.491   5.066   7.639 -0.5873 -0.0752  0.1570
  150POPC   C1B 2350   9.101   4.444   8.425 -0.0636  0.1731 -0.2147
  150POPC   C2B 2351   8.997   4.097   8.130 -0.2318 -0.1711  0.0463
  150POPC   C3B 2352   8.927   4.112   7.718  0.1977  0.2277 -0.2481
  150POPC   C4B 2353   8.787   4.045   7.345  0.0280  0.1564  0.2316
  151POPC   NC3 2354   4.771   6.262  10.604  0.0024  0.1561  0.1486
  151POPC   PO4 2355   4.754   6.346  10.173 -0.1651 -0.0198 -0.0670
  151POPC   GL1 2356   4.608   6.560   9.722 -0.0607 -0.1987 -0.0158
  151POPC   GL2 2357   4.716   6.836   9.577 -0.1736 -0.0952 -0.0579
  151POPC   C1A 2358   4.480   6.361   9.322  0.3398  0.4254 -0.2445
  151POPC   D2A 2359   4.154   6.527   9.037 -0.2332 -0.1378 -0.0442
  151POPC   C3A 2360   4.076   6.924   9.008  0.0173 -0.3825  0.2104
  151POPC   C4A 2361   3.865   7.109   8.610 -0.0215  0.1990 -0.0902
  151POPC   C1B 2362   4.986   6.526   9.398  0.2221  0.4185  0.2037
  151POPC   C2B 2363   5.218   6.209   9.124 -0.3539 -0.1296 -0.1064
  151POPC   C3B 2364   5.493   6.118   8.833  0.1244 -0.1030  0.0665
  151POPC   C4B 2365   5.776   6.230   8.514 -0.0085 -0.1714  0.2479
  152POPC   NC3 2366   5.611   3.764   9.464  0.0617 -0.1796 -0.1336
  152POPC   PO4 2367   5.317   4.141   9.390 -0.3138 -0.0161  0.0872
  152POPC   GL1 2368   4.953   4.360   9.192 -0.2246  0.2454 -0.2908
  152POPC   GL2 2369   4.747   4.296   8.887  0.1574 -0.1179  0.0571
  152POPC   C1A 2370   4.891   4.763   9.165  0.1746  0.0417  0.2073
  152POPC   D2A 2371   5.035   5.203   9.031 -0.3513 -0.0592  0.0265
  152POPC   C3A 2372   5.439   5.085   9.078 -0.0682 -0.1945 -0.0152
  152POPC   C4A 2373   5.667   5.372   8.922 -0.0684 -0.2909 -0.0374
  152POPC   C1B 2374   4.782   4.385   8.498  0.0518 -0.0588 -0.1619
  152POPC   C2B 2375   4.754   4.458   8.065  0.1243 -0.0391  0.0587
  152POPC   C3B 2376   4.568   4.649   7.741 -0.0035 -0.2481  0.1038
  152POPC   C4B 2377   4.215   4.662   7.484 -0.0276 -0.1438  0.0254
  153POPC   NC3 2378  10.042   3.650   9.812 -0.1099 -0.2385 -0.4365
  153POPC   PO4 2379  10.304   3.526   9.428  0.0626 -0.2057 -0.2612
  153POPC   GL1 2380  10.433   3.461   9.037  0.3093 -0.0874 -0.1201
  153POPC   GL2 2381  10.557   3.811   9.070  0.1679  0.2215  0.2550
  153POPC   C1A 2382  10.474   3.624   8.629  0.1735  0.0193  0.0538
  153POPC   D2A 2383  10.158   3.444   8.353 -0.2275  0.0973  0.0803
  153POPC   C3A 2384  10.238   3.467   7.867  0.1862 -0.2511  0.0175
  153POPC   C4A 2385  10.068   3.334   7.590 -0.0728  0.1168  0.0724
  153POPC   C1B 2386  10.683   4.026   8.636  0.0547  0.0604  0.0896
  153POPC   C2B 2387  10.543   4.295   8.256  0.1962 -0.0870  0.1628
  153POPC   C3B 2388  10.753   4.504   7.829  0.0620 -0.0357 -0.1496
  153POPC   C4B 2389  10.769   4.440   7.455 -0.0154 -0.0679 -0.1139
  154POPC   NC3 2390   2.797   2.210   9.100  0.1681 -0.0876 -0.1540
  154POPC   PO4 2391   2.656   2.203   8.668 -0.0607 -0.2422  0.0660
  154POPC   GL1 2392   2.902   2.424   8.325 -0.1093 -0.4208  0.1961
  154POPC   GL2 2393   2.966   2.206   8.124  0.1563 -0.2322  0.2756
  154POPC   C1A 2394   2.797   2.817   8.112  0.1906  0.1044 -0.1841
  154POPC   D2A 2395   2.691   3.123   7.819 -0.2346 -0.0478 -0.0415
  154POPC   C3A 2396   2.783   3.591   7.727 -0.2089 -0.0875  0.0995
  154POPC   C4A 2397   2.501   3.772   7.461 -0.1067  0.1384 -0.0630
  154POPC   C1B 2398   2.790   2.167   7.734 -0.1032  0.1541  0.0228
  154POPC   C2B 2399   3.040   1.929   7.499  0.1534 -0.0494  0.1144
  154POPC   C3B 2400   3.351   1.649   7.396  0.0267 -0.2489  0.2106
  154POPC   C4B 2401   3.802   1.649   7.331 -0.1132 -0.0322 -0.1785
  155POPC   NC3 2402   6.147   2.929   9.601  0.1550 -0.2241 -0.2511
  155POPC   PO4 2403   5.977   3.415   9.518 -0.3616 -0.1893  0.1276
  155POPC   GL1 2404   5.990   3.595   9.080  0.0087 -0.1160 -0.1437
  155POPC   GL2 2405   6.178   3.926   9.141  0.0420  0.2442 -0.0067
  155POPC   C1A 2406   5.891   3.332   8.726  0.0796 -0.2717 -0.3723
  155POPC   D2A 2407   5.987   3.578   8.293 -0.3141 -0.1686  0.0151
  155POPC   C3A 2408   5.789   3.820   7.951  0.1927  0.0801  0.1541
  155POPC   C4A 2409   5.959   4.131   7.664 -0.1807 -0.0809  0.2073
  155POPC   C1B 2410   6.345   3.885   8.673 -0.3706 -0.3613 -0.0222
  155POPC   C2B 2411   6.303   3.964   8.234 -0.2274 -0.2304  0.1466
  155POPC   C3B 2412   6.328   3.854   7.864 -0.1423  0.1326  0.1284
  155POPC   C4B 2413   6.616   3.659   7.514  0.2062 -0.0476  0.0733
  156POPC   NC3 2414   0.819   0.419   8.940 -0.2534  0.0783 -0.0641
  156POPC   PO4 2415   1.279   0.409   9.051  0.1105  0.1850 -0.0049
  156POPC   GL1 2416   1.237   0.053   8.637 -0.0008  0.0652  0.1773
  156POPC   GL2 2417   1.296  -0.318   8.568  0.0366  0.0864 -0.2949
  156POPC   C1A 2418   1.035   0.016   8.263 -0.1600 -0.0194 -0.1473
  156POPC   D2A 2419   0.957   0.014   7.917 -0.3167  0.1031 -0.0443
  156POPC   C3A 2420   0.487   0.036   7.746  0.3512  0.1367  0.2033
  156POPC   C4A 2421   0.361   0.109   7.489  0.0031  0.0987  0.1113
  156POPC   C1B 2422   1.223  -0.581   8.254  0.0545 -0.1426 -0.2753
  156POPC   C2B 2423   1.263  -0.395   7.859  0.2924  0.1945  0.2971
  156POPC   C3B 2424   1.305  -0.458   7.424  0.2867 -0.0054  0.1904
  156POPC   C4B 2425   1.563  -0.592   7.059  0.0144  0.2207  0.4249
  157POPC   NC3 2426   5.740   9.156   4.395  0.3005 -0.2559 -0.0332
  157POPC   PO4 2427   5.426   9.144   4.715  0.5953 -0.0838 -0.1463
  157POPC   GL1 2428   5.420   9.153   5.192  0.0038 -0.2604 -0.1571
  157POPC   GL2 2429   5.080   9.294   5.322 -0.1896  0.1429 -0.0223
  157POPC   C1A 2430   5.514   9.305   5.621  0.0837  0.1443 -0.3519
  157POPC   D2A 2431   5.484   9.264   6.037  0.2157 -0.2216 -0.0238
  157POPC   C3A 2432   5.152   9.501   6.260  0.4853 -0.0605  0.3009
  157POPC   C4A 2433   4.787   9.482   6.598  0.1102 -0.0193 -0.1328
  157POPC   C1B 2434   5.102   8.978   5.666  0.0696  0.1548  0.3059
  157POPC   C2B 2435   5.058   8.593   5.824  0.0370  0.4347 -0.3690
  157POPC   C3B 2436   5.138   8.512   6.178  0.1713  0.1492  0.3954
  157POPC   C4B 2437   5.604   8.359   6.235  0.4051  0.0886  0.1516
  158POPC   NC3 2438   5.576   4.505   4.512  0.1988 -0.0867  0.1987
  158POPC   PO4 2439   5.094   4.446   4.451  0.2818  0.0004 -0.1967
  158POPC   GL1 2440   5.038   4.496   4.808  0.0802  0.3925  0.3925
  158POPC   GL2 2441   4.914   4.301   5.017  0.0685 -0.0494  0.2095
  158POPC   C1A 2442   5.167   4.781   5.112  0.0065 -0.3160 -0.3579
  158POPC   D2A 2443   5.410   5.127   5.286  0.2880 -0.2694 -0.0616
  158POPC   C3A 2444   5.756   5.398   5.370 -0.1534  0.0010  0.2072
  158POPC   C4A 2445   5.896   5.798   5.608  0.2040 -0.0859  0.0877
  158POPC   C1B 2446   5.346   4.286   5.139 -0.0122  0.2560  0.0046
  158POPC   C2B 2447   5.543   4.222   5.460 -0.0595 -0.0213  0.1842
  158POPC   C3B 2448   5.911   3.966   5.615 -0.0223  0.0314 -0.1726
  158POPC   C4B 2449   6.259   3.726   5.725 -0.1484 -0.5063  0.0217
  159POPC   NC3 2450   9.360   7.079   4.527 -0.1494  0.1051 -0.2284
  159POPC   PO4 2451   9.075   7.130   4.881  0.0854 -0.0218 -0.0226
  159POPC   GL1 2452   8.911   7.106   5.240 -0.0005 -0.0281 -0.1067
  159POPC   GL2 2453   9.075   7.260   5.542 -0.0591 -0.0311  0.0542
  159POPC   C1A 2454   8.618   7.072   5.572 -0.0492 -0.0068  0.2161
  159POPC   D2A 2455   8.425   7.330   5.956  0.1349  0.1072 -0.0860
  159POPC   C3A 2456   8.523   7.564   6.284 -0.2998  0.1473  0.1990
  159POPC   C4A 2457   8.583   7.619   6.628  0.1116 -0.0363  0.0270
  159POPC   C1B 2458   8.935   7.532   5.844 -0.0750 -0.2025 -0.1362
  159POPC   C2B 2459   9.091   7.658   6.273 -0.0354  0.0058 -0.2325
  159POPC   C3B 2460   9.108   7.900   6.566  0.0007 -0.0132 -0.0628
  159POPC   C4B 2461   8.835   7.867   6.957 -0.3824 -0.0003  0.0948
  160POPC   NC3 2462   0.224   1.384   4.887 -0.3793 -0.4611  0.0560
  160POPC   PO4 2463   0.223   1.585   5.258 -0.0125  0.2767 -0.0763
  160POPC   GL1 2464   0.406   1.489   5.627  0.0711 -0.2785 -0.0385
  160POPC   GL2 2465   0.203   1.213   5.670 -0.0254  0.1597 -0.0415
  160POPC   C1A 2466   0.733   1.502   5.951 -0.2021 -0.2423  0.2799
  160POPC   D2A 2467   1.087   1.825   5.987 -0.1929 -0.1079 -0.1440
  160POPC   C3A 2468   1.060   2.148   6.186 -0.1902  0.2640  0.3669
  160POPC   C4A 2469   1.147   2.242   6.596  0.1498 -0.3589  0.2679
  160POPC   C1B 2470  -0.078   1.381   5.930 -0.1424  0.0518  0.1101
  160POPC   C2B 2471  -0.343   1.308   6.245  0.0115  0.1642 -0.0437
  160POPC   C3B 2472  -0.312   1.395   6.715 -0.1325 -0.3326  0.0591
  160POPC   C4B 2473  -0.279   1.148   7.127  0.2312 -0.0236  0.0518
  161POPC   NC3 2474   4.547   1.142   5.116  0.0468 -0.0005  0.1569
  161POPC   PO4 2475   4.554   1.453   4.875 -0.0260  0.1212  0.0044
  161POPC   GL1 2476   4.648   1.855   5.106  0.3203  0.3842 -0.1171
  161POPC   GL2 2477   4.816   1.677   5.355  0.1294  0.4239  0.0763
  161POPC   C1A 2478   4.805   2.142   5.538  0.1671  0.2413 -0.0127
  161POPC   D2A 2479   4.877   2.417   5.901 -0.2595 -0.0430 -0.0324
  161POPC   C3A 2480   4.855   2.227   6.299  0.0945  0.0574 -0.2534
  161POPC   C4A 2481   4.700   2.082   6.643 -0.2304  0.5152  0.1439
  161POPC   C1B 2482   4.811   1.651   5.730  0.1371 -0.0065 -0.1502
  161POPC   C2B 2483   4.805   1.739   6.155 -0.2141 -0.1433  0.0079
  161POPC   C3B 2484   5.015   1.516   6.465  0.0927  0.0911 -0.0627
  161POPC   C4B 2485   4.760   1.135   6.515 -0.1933  0.2892 -0.0601
  162POPC   NC3 2486   6.171   9.401   5.163  0.1183  0.1128 -0.1457
  162POPC   PO4 2487   6.412   9.082   5.183 -0.1153 -0.1139  0.3383
  162POPC   GL1 2488   6.322   9.066   5.558 -0.0223  0.0289 -0.1635
  162POPC   GL2 2489   6.068   9.056   5.549 -0.3974  0.0339  0.1635
  162POPC   C1A 2490   6.196   9.111   6.037  0.0562  0.2255 -0.1206
  162POPC   D2A 2491   6.243   9.298   6.470 -0.4115  0.2299  0.0467
  162POPC   C3A 2492   6.515   9.084   6.727  0.2475 -0.2447  0.1231
  162POPC   C4A 2493   6.944   8.874   6.619  0.0610  0.1124 -0.1866
  162POPC   C1B 2494   5.789   8.821   5.452 -0.1971 -0.2093 -0.2376
  162POPC   C2B 2495   5.380   8.638   5.459 -0.0687 -0.3173 -0.0387
  162POPC   C3B 2496   5.080   8.695   5.134  0.1968 -0.0083 -0.1795
  162POPC   C4B 2497   4.902   8.476   4.730  0.1331 -0.1007 -0.4640
  163POPC   NC3 2498   8.383   1.433   5.626 -0.0339  0.1406  0.0330
  163POPC   PO4 2499   8.482   0.974   5.771 -0.4022  0.0181  0.0722
  163POPC   GL1 2500   8.499   0.769   6.154 -0.1225  0.0677  0.0000
  163POPC   GL2 2501   8.172   0.492   6.143 -0.1646  0.2241  0.2197
  163POPC   C1A 2502   8.513   0.432   6.482 -0.0252  0.0598 -0.1625
  163POPC   D2A 2503   8.375   0.134   6.750 -0.4086 -0.1660 -0.2267
  163POPC   C3A 2504   8.097  -0.124   6.691  0.0246  0.0123  0.2468
  163POPC   C4A 2505   7.654  -0.315   6.609  0.0389  0.2427 -0.0628
  163POPC   C1B 2506   8.134   0.729   6.450 -0.2900 -0.0356 -0.0409
  163POPC   C2B 2507   8.071   0.928   6.902 -0.1399  0.4528  0.2911
  163POPC   C3B 2508   7.952   1.198   7.310  0.0661  0.1599 -0.1594
  163POPC   C4B 2509   7.713   1.496   7.434  0.0162  0.1249  0.0860
  164POPC   NC3 2510   2.893   0.465   4.646  0.1873 -0.0223 -0.1896
  164POPC   PO4 2511   2.849   0.876   4.705 -0.2851 -0.2371  0.2928
  164POPC   GL1 2512   2.796   1.039   5.117 -0.0142 -0.2116  0.0735
  164POPC   GL2 2513   2.808   1.334   5.376  0.2172  0.1075  0.2961
  164POPC   C1A 2514   2.911   0.858   5.449  0.1431 -0.0522  0.3683
  164POPC   D2A 2515   2.936   1.068   5.836  0.1724 -0.2127  0.1527
  164POPC   C3A 2516   3.071   0.846   6.313  0.2805 -0.0412  0.0489
  164POPC   C4A 2517   3.347   1.054   6.584  0.4149 -0.1350  0.0695
  164POPC   C1B 2518   2.804   1.558   5.735  0.0056 -0.3010  0.2392
  164POPC   C2B 2519   2.605   1.599   6.097 -0.0602 -0.0211  0.1453
  164POPC   C3B 2520   2.456   1.489   6.568 -0.2649  0.3542 -0.0487
  164POPC   C4B 2521   2.348   1.668   6.944  0.0449  0.1419 -0.3757
  165POPC   NC3 2522   9.174   5.619   5.488  0.1933  0.2435 -0.3279
  165POPC   PO4 2523   9.310   6.099   5.563  0.2397 -0.1354  0.1764
  165POPC   GL1 2524   9.317   5.838   5.998  0.2809  0.2334  0.4195
  165POPC   GL2 2525   8.977   5.648   5.962 -0.0211 -0.0741  0.2242
  165POPC   C1A 2526   9.219   5.530   6.368  0.1044  0.1445 -0.1437
  165POPC   D2A 2527   9.006   5.508   6.517 -0.1344  0.0029  0.3443
  165POPC   C3A 2528   8.892   5.743   6.748 -0.1572 -0.0570 -0.4319
  165POPC   C4A 2529   8.580   5.798   6.962  0.0541  0.1629 -0.0159
  165POPC   C1B 2530   8.672   5.802   6.155  0.0872 -0.1050  0.0278
  165POPC   C2B 2531   8.320   5.935   6.582 -0.0834 -0.2823  0.0916
  165POPC   C3B 2532   8.030   5.856   6.939  0.0335  0.0550 -0.0539
  165POPC   C4B 2533   7.760   5.648   7.131 -0.1937 -0.2934  0.0082
  166POPC   NC3 2534   1.389   9.983   4.803 -0.1472  0.3577 -0.0945
  166POPC   PO4 2535   1.283  10.240   5.185 -0.2216 -0.0321 -0.0913
  166POPC   GL1 2536   1.176  10.035   5.544 -0.0439 -0.0000 -0.0137
  166POPC   GL2 2537   0.928  10.080   5.789  0.2444 -0.0503 -0.3695
  166POPC   C1A 2538   1.210   9.619   5.800  0.0622 -0.2241 -0.0323
  166POPC   D2A 2539   1.427   9.441   6.261  0.0942 -0.2599 -0.2165
  166POPC   C3A 2540   1.380   9.713   6.510 -0.2633 -0.0445 -0.2253
  166POPC   C4A 2541   1.174   9.913   6.933 -0.0512 -0.1870 -0.1719
  166POPC   C1B 2542   1.045   9.900   6.194  0.2734  0.0240 -0.0545
  166POPC   C2B 2543   0.743  10.108   6.579 -0.2710  0.3412 -0.0282
  166POPC   C3B 2544   0.783  10.248   7.006 -0.2841 -0.1352  0.1528
  166POPC   C4B 2545   1.041  10.170   7.343 -0.0259 -0.1512  0.1674
  167POPC   NC3 2546   2.531   5.157   4.585 -0.0130 -0.0897  0.2584
  167POPC   PO4 2547   2.969   5.140   4.703  0.3852 -0.1798 -0.2346
  167POPC   GL1 2548   3.082   5.467   4.956 -0.2923 -0.1357 -0.2854
  167POPC   GL2 2549   3.411   5.482   4.902  0.2150  0.0843  0.3313
  167POPC   C1A 2550   3.328   5.633   5.407 -0.3745 -0.0114 -0.2577
  167POPC   D2A 2551   3.783   5.588   5.679  0.1382  0.0941  0.0559
  167POPC   C3A 2552   3.899   5.893   5.888  0.0139 -0.0819  0.2929
  167POPC   C4A 2553   3.899   6.294   5.867 -0.0223  0.1326 -0.0420
  167POPC   C1B 2554   3.724   5.522   5.136 -0.3426 -0.1040 -0.2270
  167POPC   C2B 2555   4.217   5.515   5.100 -0.3774  0.2413  0.0924
  167POPC   C3B 2556   4.638   5.605   5.224  0.0644 -0.3340 -0.0762
  167POPC   C4B 2557   4.952   5.809   5.179  0.0041 -0.2731  0.1169
  168POPC   NC3 2558   6.811   5.039   4.201 -0.1565 -0.0138 -0.4637
  168POPC   PO4 2559   6.499   5.190   4.473 -0.1061  0.0663 -0.0149
  168POPC   GL1 2560   6.203   5.518   4.454 -0.1659 -0.1994 -0.1547
  168POPC   GL2 2561   6.089   5.688   4.074  0.0378 -0.1295  0.0835
  168POPC   C1A 2562   6.185   5.765   4.917 -0.0911  0.0037  0.1453
  168POPC   D2A 2563   6.246   5.926   5.270  0.2106  0.1565  0.2682
  168POPC   C3A 2564   5.822   6.199   5.264 -0.4280  0.0286 -0.0142
  168POPC   C4A 2565   5.542   6.198   5.582  0.0841  0.1066 -0.2187
  168POPC   C1B 2566   5.863   5.949   4.233 -0.0963  0.1767 -0.3065
  168POPC   C2B 2567   5.816   6.103   4.702 -0.0152 -0.1932  0.3378
  168POPC   C3B 2568   6.073   6.363   4.821 -0.1220  0.1247  0.0396
  168POPC   C4B 2569   6.253   6.459   5.165 -0.0707 -0.0868  0.2593
  169POPC   NC3 2570   4.288   3.834   4.205 -0.0281  0.0026  0.0356
  169POPC   PO4 2571   4.061   4.164   4.537 -0.2888 -0.1097  0.0342
  169POPC   GL1 2572   4.082   4.163   5.038  0.0901  0.2508  0.3717
  169POPC   GL2 2573   3.813   4.294   4.971 -0.3277  0.0415 -0.1546
  169POPC   C1A 2574   4.099   4.218   5.449  0.0778  0.0859 -0.0827
  169POPC   D2A 2575   4.227   4.041   5.832 -0.0740  0.0510 -0.1668
  169POPC   C3A 2576   3.981   4.114   6.184  0.1556 -0.2062 -0.0858
  169POPC   C4A 2577   3.708   4.427   6.306  0.0068 -0.2319  0.0762
  169POPC   C1B 2578   3.428   4.115   5.235  0.0192 -0.3157 -0.0963
  169POPC   C2B 2579   3.198   3.812   5.550 -0.1290  0.0603  0.2174
  169POPC   C3B 2580   2.980   3.903   5.904  0.0811 -0.2781 -0.1252
  169POPC   C4B 2581   2.787   4.140   6.221 -0.1294  0.2755  0.1139
  170POPC   NC3 2582   9.569   8.312   4.863 -0.2059 -0.1869 -0.0500
  170POPC   PO4 2583   9.137   7.948   4.973 -0.0071 -0.2159 -0.0240
  170POPC   GL1 2584   9.268   8.118   5.258  0.1070 -0.2507 -0.2947
  170POPC   GL2 2585   9.517   8.128   5.450  0.3613 -0.1035 -0.0656
  170POPC   C1A 2586   8.989   7.991   5.717  0.0049 -0.1109  0.4299
  170POPC   D2A 2587   9.028   8.147   6.161 -0.1656  0.3056  0.5063
  170POPC   C3A 2588   8.699   8.125   6.441  0.2219 -0.0855 -0.3067
  170POPC   C4A 2589   8.587   8.423   6.928 -0.3051  0.2258 -0.1549
  170POPC   C1B 2590   9.372   8.314   5.786  0.3702 -0.0252  0.0350
  170POPC   C2B 2591   9.681   8.537   6.020 -0.0885 -0.0831  0.0111
  170POPC   C3B 2592  10.057   8.714   6.130  0.0381 -0.1701  0.0746
  170POPC   C4B 2593  10.470   8.870   6.189  0.1448  0.0447 -0.1855
  171POPC   NC3 2594   5.622   9.998   4.804 -0.3238  0.1229  0.3104
  171POPC   PO4 2595   5.385   9.682   5.111  0.3419  0.2134  0.0247
  171POPC   GL1 2596   5.150   9.782   5.397  0.0856  0.0195  0.1149
  171POPC   GL2 2597   5.096  10.057   5.530  0.1962 -0.0001 -0.0255
  171POPC   C1A 2598   5.000   9.570   5.732 -0.1711  0.0404  0.0127
  171POPC   D2A 2599   4.723   9.365   6.009 -0.0292  0.1526  0.0187
  171POPC   C3A 2600   4.873   9.033   6.172  0.0711 -0.0207  0.1789
  171POPC   C4A 2601   4.700   8.661   6.320 -0.0615  0.2975 -0.1839
  171POPC   C1B 2602   5.073  10.056   5.883  0.1533  0.1586  0.2268
  171POPC   C2B 2603   4.932  10.263   6.263 -0.2576  0.0813 -0.0672
  171POPC   C3B 2604   4.890  10.329   6.732 -0.1924 -0.1165  0.3385
  171POPC   C4B 2605   4.727  10.451   7.126  0.0295 -0.0309 -0.0404
  172POPC   NC3 2606   5.020   7.590   3.459 -0.1585 -0.0809  0.0743
  172POPC   PO4 2607   4.590   7.732   3.536 -0.1755  0.0122  0.1830
  172POPC   GL1 2608   4.749   7.671   4.014  0.0327  0.0125  0.0669
  172POPC   GL2 2609   4.572   7.381   3.999 -0.1606  0.2866 -0.2037
  172POPC   C1A 2610   5.104   7.676   4.360  0.0232 -0.1094 -0.1381
  172POPC   D2A 2611   5.490   7.537   4.566 -0.0549 -0.4432 -0.1944
  172POPC   C3A 2612   5.592   7.647   5.008  0.1790  0.3419 -0.0647
  172POPC   C4A 2613   5.493   7.903   5.436 -0.1765 -0.2131 -0.0285
  172POPC   C1B 2614   4.538   7.273   4.385  0.0972 -0.1276 -0.1684
  172POPC   C2B 2615   4.655   7.080   4.834 -0.1470 -0.1818 -0.1324
  172POPC   C3B 2616   4.719   7.113   5.233  0.0050  0.1709 -0.2147
  172POPC   C4B 2617   4.571   7.176   5.605  0.0423  0.1382  0.1456
  173POPC   NC3 2618   4.093   4.901   3.777 -0.1394  0.1535 -0.0441
  173POPC   PO4 2619   4.251   5.038   4.095  0.0243 -0.0613  0.1216
  173POPC   GL1 2620   4.279   5.185   4.508  0.3768 -0.0607  0.0097
  173POPC   GL2 2621   4.105   5.572   4.507 -0.0057 -0.0081  0.1122
  173POPC   C1A 2622   4.397   5.131   4.866 -0.3390  0.0867 -0.4015
  173POPC   D2A 2623   4.464   5.143   5.276 -0.3904  0.0362 -0.1463
  173POPC   C3A 2624   4.306   4.767   5.569 -0.6587  0.2370  0.1529
  173POPC   C4A 2625   4.046   4.560   5.893 -0.3016  0.1026 -0.1662
  173POPC   C1B 2626   3.816   5.176   4.696  0.0792  0.0637  0.0200
  173POPC   C2B 2627   3.824   5.056   5.060 -0.2686 -0.1991 -0.1649
  173POPC   C3B 2628   3.950   5.188   5.402  0.0726  0.3054  0.0246
  173POPC   C4B 2629   3.894   5.033   5.708 -0.3930  0.0490 -0.1296
  174POPC   NC3 2630   2.190   4.092   5.162 -0.0584 -0.1210  0.2685
  174POPC   PO4 2631   1.831   4.362   5.130  0.0709  0.1721 -0.0513
  174POPC   GL1 2632   2.030   4.476   5.457 -0.0765  0.4860 -0.1652
  174POPC   GL2 2633   2.233   4.629   5.198  0.0300 -0.1269  0.0863
  174POPC   C1A 2634   1.984   4.659   5.889 -0.0274  0.0352  0.1862
  174POPC   D2A 2635   1.986   4.696   6.173  0.1418  0.2050  0.2243
  174POPC   C3A 2636   1.678   4.447   6.448 -0.0435  0.2546  0.1400
  174POPC   C4A 2637   1.696   4.160   6.673  0.0700  0.0826  0.2290
  174POPC   C1B 2638   2.637   4.699   5.413  0.2544  0.1136 -0.1760
  174POPC   C2B 2639   3.045   4.720   5.266 -0.1859  0.2817 -0.0009
  174POPC   C3B 2640   3.324   4.618   5.336 -0.0120  0.2779 -0.2918
  174POPC   C4B 2641   3.813   4.661   5.376 -0.1524 -0.2095  0.0383
  175POPC   NC3 2642   3.204   1.345   5.046 -0.0363 -0.0317  0.3308
  175POPC   PO4 2643   3.180   1.721   5.192  0.2540  0.0988 -0.2159
  175POPC   GL1 2644   3.324   1.926   5.660 -0.0708 -0.2968  0.1684
  175POPC   GL2 2645   3.140   2.178   5.862  0.2711 -0.3910  0.3526
  175POPC   C1A 2646   3.345   1.751   6.145  0.1346 -0.3593  0.0589
  175POPC   D2A 2647   3.763   1.883   6.320  0.3182 -0.0732 -0.0724
  175POPC   C3A 2648   3.840   1.488   6.245  0.2850 -0.3945  0.2674
  175POPC   C4A 2649   3.907   1.116   6.510  0.0881 -0.2083  0.0982
  175POPC   C1B 2650   3.452   2.266   6.110  0.1033 -0.2287 -0.1743
  175POPC   C2B 2651   3.611   2.617   6.327  0.3882  0.2071  0.0249
  175POPC   C3B 2652   3.368   2.977   6.546 -0.0617  0.1196  0.1158
  175POPC   C4B 2653   3.311   3.387   6.566  0.0247  0.0944  0.0587
  176POPC   NC3 2654   7.476   9.226   4.614  0.1720 -0.1158  0.2475
  176POPC   PO4 2655   7.344   8.817   4.662 -0.0824 -0.2462  0.3063
  176POPC   GL1 2656   7.148   8.510   5.071 -0.0991 -0.1527  0.2195
  176POPC   GL2 2657   7.427   8.441   5.249 -0.1296  0.1847  0.1387
  176POPC   C1A 2658   6.994   8.427   5.510  0.1566 -0.0903  0.0335
  176POPC   D2A 2659   6.740   8.256   5.848 -0.1340 -0.2014  0.5549
  176POPC   C3A 2660   6.329   8.357   6.170  0.2472  0.0335 -0.1676
  176POPC   C4A 2661   6.006   8.290   6.527 -0.2522  0.0866  0.3069
  176POPC   C1B 2662   7.707   8.570   5.585  0.0185  0.0503 -0.3383
  176POPC   C2B 2663   7.841   8.640   6.027  0.0524  0.1724 -0.2022
  176POPC   C3B 2664   7.893   8.725   6.484 -0.2803  0.1295  0.0640
  176POPC   C4B 2665   7.920   8.745   6.858 -0.1782  0.1529  0.1046
  177POPC   NC3 2666   8.097   3.709   4.726  0.1977 -0.2074  0.2537
  177POPC   PO4 2667   8.354   3.518   5.018 -0.1435 -0.0788 -0.1919
  177POPC   GL1 2668   8.468   3.456   5.528  0.1444 -0.2423 -0.1315
  177POPC   GL2 2669   8.308   3.467   5.753  0.0325 -0.0493  0.0475
  177POPC   C1A 2670   8.776   3.645   5.836 -0.0441  0.0137  0.1699
  177POPC   D2A 2671   8.668   3.801   6.164 -0.0022  0.3674  0.1248
  177POPC   C3A 2672   8.568   3.631   6.642 -0.0259  0.1939 -0.0464
  177POPC   C4A 2673   8.353   3.671   7.090 -0.0436 -0.0438 -0.2160
  177POPC   C1B 2674   8.182   3.695   6.085  0.0558 -0.0090  0.1951
  177POPC   C2B 2675   7.728   3.668   6.180  0.0360 -0.2963 -0.1941
  177POPC   C3B 2676   7.309   3.582   6.318 -0.0409  0.1590  0.2433
  177POPC   C4B 2677   7.150   3.088   6.270  0.1090  0.3853 -0.3512
  178POPC   NC3 2678   5.031   5.041   3.606  0.1254  0.0822 -0.1234
  178POPC   PO4 2679   5.325   5.194   3.757  0.0495 -0.0327  0.1357
  178POPC   GL1 2680   5.141   5.502   3.998 -0.0534  0.3125 -0.2699
  178POPC   GL2 2681   5.386   5.787   4.003 -0.0746  0.0949  0.1137
  178POPC   C1A 2682   4.977   5.681   4.355 -0.0745 -0.1132  0.3911
  178POPC   D2A 2683   5.072   5.931   4.707 -0.0960 -0.0019 -0.1061
  178POPC   C3A 2684   4.726   6.076   4.874 -0.0276  0.0740  0.1748
  178POPC   C4A 2685   4.568   6.100   5.219  0.2183 -0.1483 -0.0310
  178POPC   C1B 2686   5.421   5.524   4.422  0.0379  0.0819 -0.2734
  178POPC   C2B 2687   5.245   5.410   4.750  0.1334 -0.1724  0.1320
  178POPC   C3B 2688   4.956   5.242   4.997  0.1279 -0.1458  0.0242
  178POPC   C4B 2689   4.908   5.272   5.482 -0.2393  0.0894 -0.2572
  179POPC   NC3 2690   2.290   7.426   4.311  0.4209  0.0707  0.0597
  179POPC   PO4 2691   2.714   7.266   4.128 -0.0213 -0.2116  0.0693
  179POPC   GL1 2692   2.854   7.423   4.474 -0.1108 -0.2744 -0.2629
  179POPC   GL2 2693   3.028   7.170   4.639 -0.4550  0.1027  0.3403
  179POPC   C1A 2694   2.928   7.605   4.818 -0.1079  0.1476 -0.1601
  179POPC   D2A 2695   2.959   7.533   5.305 -0.1596  0.1399  0.1577
  179POPC   C3A 2696   2.587   7.643   5.583 -0.0731 -0.0950 -0.1071
  179POPC   C4A 2697   2.443   7.418   5.926 -0.3213  0.0517  0.0727
  179POPC   C1B 2698   3.249   7.195   5.009  0.4654 -0.3176  0.1235
  179POPC   C2B 2699   3.143   7.030   5.364 -0.1480 -0.1106  0.0242
  179POPC   C3B 2700   3.312   6.802   5.789 -0.1802 -0.2418 -0.2447
  179POPC   C4B 2701   3.342   6.375   5.937  0.0466 -0.1484  0.0435
  180POPC   NC3 2702   0.224   4.515   5.120 -0.1315 -0.1424 -0.0219
  180POPC   PO4 2703   0.432   4.169   5.221 -0.2361 -0.1711  0.0791
  180POPC   GL1 2704   0.403   4.386   5.601 -0.0073 -0.0851  0.0868
  180POPC   GL2 2705   0.802   4.397   5.772 -0.0284 -0.0508  0.0202
  180POPC   C1A 2706   0.299   4.380   5.984  0.1591 -0.0283  0.0537
  180POPC   D2A 2707   0.236   4.490   6.400  0.0275  0.0000 -0.1792
  180POPC   C3A 2708  -0.013   4.496   6.694  0.0971 -0.3559  0.2299
  180POPC   C4A 2709  -0.362   4.351   6.861 -0.1561  0.2959 -0.0880
  180POPC   C1B 2710   0.736   4.128   6.090 -0.3785  0.1925 -0.0672
  180POPC   C2B 2711   0.447   4.011   6.372  0.2563  0.0123  0.1021
  180POPC   C3B 2712   0.174   4.007   6.764  0.1964 -0.0920  0.1648
  180POPC   C4B 2713  -0.043   3.659   6.975  0.0346  0.0496 -0.2438
  181POPC   NC3 2714   3.011   8.382   3.902 -0.1121 -0.0232  0.1918
  181POPC   PO4 2715   3.214   8.734   4.203 -0.1700  0.1797  0.4351
  181POPC   GL1 2716   3.467   8.926   4.497 -0.0932 -0.0296 -0.1847
  181POPC   GL2 2717   3.601   8.579   4.648  0.3577  0.1701  0.0683
  181POPC   C1A 2718   3.443   8.937   4.996  0.1194  0.2951  0.1629
  181POPC   D2A 2719   3.586   9.102   5.336  0.1511 -0.0008  0.3001
  181POPC   C3A 2720   4.023   8.932   5.543 -0.1184  0.0966  0.1556
  181POPC   C4A 2721   4.165   8.560   5.868  0.1150  0.0882 -0.0679
  181POPC   C1B 2722   3.462   8.370   4.948  0.1329 -0.3335  0.1553
  181POPC   C2B 2723   3.656   8.083   5.202 -0.1655  0.2976  0.1440
  181POPC   C3B 2724   3.993   7.707   5.142 -0.0129 -0.1357 -0.1760
  181POPC   C4B 2725   4.214   7.449   5.344 -0.0665 -0.0635 -0.0132
  182POPC   NC3 2726   8.151   7.474   4.742  0.1781  0.3542 -0.1092
  182POPC   PO4 2727   8.400   7.882   4.848  0.5700 -0.2270 -0.2092
  182POPC   GL1 2728   8.266   7.789   5.233  0.1765 -0.2246 -0.0144
  182POPC   GL2 2729   7.999   7.660   5.343 -0.0927 -0.1526  0.0079
  182POPC   C1A 2730   8.301   8.138   5.467  0.0529  0.0066  0.1748
  182POPC   D2A 2731   7.978   8.255   5.842 -0.2040  0.0126  0.0656
  182POPC   C3A 2732   8.226   8.272   6.099  0.2712 -0.1427  0.2823
  182POPC   C4A 2733   8.274   8.367   6.561  0.0814 -0.2685 -0.1318
  182POPC   C1B 2734   7.994   7.759   5.678  0.4218 -0.0769  0.0002
  182POPC   C2B 2735   8.068   7.725   6.056  0.1131  0.1139 -0.2287
  182POPC   C3B 2736   8.014   7.384   6.272  0.0162 -0.1731 -0.0258
  182POPC   C4B 2737   7.767   7.184   6.633 -0.2828  0.1223 -0.2433
  183POPC   NC3 2738   0.867   8.261   4.894 -0.1186  0.2470 -0.0961
  183POPC   PO4 2739   0.427   8.063   4.954 -0.1440 -0.0771  0.2874
  183POPC   GL1 2740   0.293   7.846   5.333  0.2755 -0.0349 -0.0926
  183POPC   GL2 2741   0.190   7.555   5.466  0.1682  0.0156  0.2063
  183POPC   C1A 2742   0.304   7.933   5.752 -0.0107 -0.2886  0.2003
  183POPC   D2A 2743   0.307   7.918   6.298 -0.0431  0.1722  0.0901
  183POPC   C3A 2744   0.724   8.012   6.515  0.4244  0.2247  0.2846
  183POPC   C4A 2745   1.108   7.833   6.514 -0.1781 -0.3569  0.1094
  183POPC   C1B 2746   0.224   7.502   5.965  0.3310  0.2000  0.1337
  183POPC   C2B 2747   0.083   7.338   6.385 -0.1065  0.1965  0.0809
  183POPC   C3B 2748   0.237   7.030   6.633 -0.1070 -0.0255 -0.0971
  183POPC   C4B 2749   0.402   7.194   6.966  0.1073 -0.1800  0.2561
  184POPC   NC3 2750   2.484   0.551   4.887  0.2298  0.1563 -0.0640
  184POPC   PO4 2751   2.615   0.145   4.920 -0.1214  0.0199 -0.0352
  184POPC   GL1 2752   2.461  -0.167   5.326 -0.1924  0.0815  0.0421
  184POPC   GL2 2753   2.089  -0.174   5.434 -0.1289  0.1112 -0.1886
  184POPC   C1A 2754   2.538  -0.177   5.767 -0.2077 -0.0101 -0.2108
  184POPC   D2A 2755   2.444   0.057   6.180 -0.0551  0.1596  0.1782
  184POPC   C3A 2756   2.412  -0.234   6.537  0.2357 -0.0909 -0.0966
  184POPC   C4A 2757   2.593  -0.616   6.640  0.3724 -0.2052  0.2008
  184POPC   C1B 2758   2.060  -0.136   5.861 -0.2253  0.0275 -0.2205
  184POPC   C2B 2759   2.000  -0.061   6.303  0.1696  0.2368  0.1447
  184POPC   C3B 2760   1.835  -0.229   6.710  0.2348  0.2138 -0.3819
  184POPC   C4B 2761   2.074   0.040   6.999  0.0459  0.0739 -0.1076
  185POPC   NC3 2762   5.974   3.357   4.649  0.2147  0.0508 -0.0144
  185POPC   PO4 2763   5.670   3.689   4.637 -0.0052  0.0760 -0.0716
  185POPC   GL1 2764   5.445   3.803   5.006 -0.1154  0.1123  0.0789
  185POPC   GL2 2765   5.161   3.665   5.047  0.1719 -0.2631 -0.3512
  185POPC   C1A 2766   5.512   3.703   5.476  0.2442 -0.3080 -0.2261
  185POPC   D2A 2767   5.527   4.023   5.905  0.2387  0.3564 -0.2920
  185POPC   C3A 2768   5.566   4.353   5.906 -0.3510  0.0903 -0.1398
  185POPC   C4A 2769   5.490   4.588   6.204  0.0823 -0.0271  0.1024
  185POPC   C1B 2770   4.987   3.928   5.361 -0.3841 -0.1732  0.1752
  185POPC   C2B 2771   5.099   4.332   5.598 -0.2256 -0.1554  0.2217
  185POPC   C3B 2772   5.372   4.710   5.583 -0.0940 -0.3495  0.2142
  185POPC   C4B 2773   5.451   5.121   5.777  0.3014  0.5150  0.1136
  186POPC   NC3 2774   9.864   8.930   4.331 -0.2241  0.0556  0.0431
  186POPC   PO4 2775   9.956   8.629   4.751  0.1588 -0.0096  0.0118
  186POPC   GL1 2776   9.679   8.815   5.001 -0.2053 -0.0186 -0.0299
  186POPC   GL2 2777   9.724   8.584   5.241 -0.2443  0.2028 -0.1119
  186POPC   C1A 2778   9.281   8.844   5.254 -0.2424  0.0292 -0.0058
  186POPC   D2A 2779   8.925   9.070   5.480  0.1110 -0.2002 -0.0097
  186POPC   C3A 2780   8.629   8.949   5.702 -0.0615  0.0044 -0.1744
  186POPC   C4A 2781   8.361   8.610   5.568 -0.2832  0.0312  0.1704
  186POPC   C1B 2782   9.724   8.831   5.587 -0.0425  0.2305 -0.0993
  186POPC   C2B 2783   9.651   9.020   6.029  0.0367 -0.1190 -0.1803
  186POPC   C3B 2784   9.330   9.033   6.444  0.2988  0.2171  0.0762
  186POPC   C4B 2785   9.233   8.835   6.852 -0.1043 -0.1596  0.1466
  187POPC   NC3 2786   8.031   5.751   5.158 -0.1826  0.1884 -0.1057
  187POPC   PO4 2787   7.575   5.788   5.163 -0.1049  0.3437  0.1914
  187POPC   GL1 2788   7.255   5.685   5.462  0.2128  0.0525 -0.0465
  187POPC   GL2 2789   7.418   5.565   5.708 -0.2871  0.2351 -0.1172
  187POPC   C1A 2790   6.839   5.745   5.654 -0.0135 -0.2889  0.2864
  187POPC   D2A 2791   6.372   5.617   5.736  0.3296  0.1364 -0.1010
  187POPC   C3A 2792   6.140   5.717   6.160 -0.3379  0.3624  0.0407
  187POPC   C4A 2793   6.003   5.426   6.431 -0.2718 -0.2937  0.2390
  187POPC   C1B 2794   7.448   5.985   5.851 -0.1921  0.0264 -0.0752
  187POPC   C2B 2795   7.490   6.274   6.258 -0.0382  0.0115 -0.2744
  187POPC   C3B 2796   7.880   6.278   6.573  0.4520 -0.0433 -0.2046
  187POPC   C4B 2797   8.203   6.311   6.880 -0.1971  0.1846 -0.5713
  188POPC   NC3 2798   7.283   2.574   5.626  0.0877  0.1399  0.2738
  188POPC   PO4 2799   7.719   2.786   5.496 -0.2854  0.1485  0.1368
  188POPC   GL1 2800   7.750   2.634   5.860 -0.3380  0.2931  0.0216
  188POPC   GL2 2801   7.604   2.328   5.920 -0.0441  0.0396  0.1683
  188POPC   C1A 2802   7.529   2.636   6.287 -0.1135  0.0146  0.3122
  188POPC   D2A 2803   7.569   2.648   6.692  0.2435 -0.1404 -0.5299
  188POPC   C3A 2804   7.279   2.319   6.944 -0.0385  0.0496 -0.1644
  188POPC   C4A 2805   7.160   2.264   7.247  0.0888  0.2064  0.1537
  188POPC   C1B 2806   7.846   2.272   6.269 -0.1275 -0.2652 -0.6025
  188POPC   C2B 2807   8.213   2.123   6.645  0.1705 -0.0521  0.0720
  188POPC   C3B 2808   8.284   2.017   7.013 -0.2010  0.2079  0.0920
  188POPC   C4B 2809   8.064   1.853   7.288 -0.0183  0.0560  0.1342
  189POPC   NC3 2810   6.474   8.363   4.484  0.3132 -0.0867 -0.1361
  189POPC   PO4 2811   6.191   8.753   4.591  0.0354  0.0156 -0.0687
  189POPC   GL1 2812   6.080   8.412   4.857 -0.0616  0.1640  0.2011
  189POPC   GL2 2813   6.245   8.212   4.978  0.0828  0.2158  0.0144
  189POPC   C1A 2814   5.801   8.395   5.255 -0.0511  0.2302 -0.0978
  189POPC   D2A 2815   5.495   8.278   5.769  0.1084  0.3819 -0.0414
  189POPC   C3A 2816   5.604   7.909   5.980 -0.3755  0.0249 -0.0304
  189POPC   C4A 2817   5.699   7.585   6.226 -0.1321 -0.0754 -0.2085
  189POPC   C1B 2818   5.976   7.928   5.255  0.0651 -0.0370 -0.3271
  189POPC   C2B 2819   5.787   7.465   5.502 -0.0666 -0.2030 -0.0544
  189POPC   C3B 2820   5.570   7.104   5.605  0.3089  0.1791  0.0727
  189POPC   C4B 2821   5.440   6.650   5.505  0.1416  0.1074 -0.0684
  190POPC   NC3 2822   6.429   3.554   5.090  0.0440 -0.0473 -0.2747
  190POPC   PO4 2823   6.414   3.028   5.067 -0.0376  0.1270 -0.4874
  190POPC   GL1 2824   6.195   3.306   5.511  0.2588  0.1297 -0.1717
  190POPC   GL2 2825   5.874   3.250   5.473 -0.1375  0.0280  0.0661
  190POPC   C1A 2826   6.241   3.365   6.022  0.0335  0.0967  0.0402
  190POPC   D2A 2827   6.088   3.234   6.397 -0.4069  0.0267 -0.2023
  190POPC   C3A 2828   5.768   3.390   6.631  0.1118 -0.0874 -0.3231
  190POPC   C4A 2829   5.701   3.826   6.767 -0.2002  0.0889  0.0509
  190POPC   C1B 2830   5.792   3.540   5.892  0.2925 -0.0924 -0.0932
  190POPC   C2B 2831   5.823   3.642   6.196 -0.2673  0.0902 -0.2506
  190POPC   C3B 2832   6.129   3.696   6.553 -0.1862 -0.2301  0.1020
  190POPC   C4B 2833   6.572   3.795   6.676 -0.0121 -0.0751  0.3892
  191POPC   NC3 2834   8.039   1.625   5.146  0.1027  0.2368  0.2573
  191POPC   PO4 2835   7.894   1.545   5.630 -0.2230 -0.6834 -0.0541
  191POPC   GL1 2836   7.767   1.797   5.994  0.0328  0.0416  0.3061
  191POPC   GL2 2837   7.414   1.937   6.082  0.0377  0.2720 -0.0566
  191POPC   C1A 2838   7.938   1.761   6.387  0.2398 -0.1475 -0.1807
  191POPC   D2A 2839   7.865   1.690   6.814  0.4167 -0.1568  0.1391
  191POPC   C3A 2840   7.713   1.342   6.931 -0.1050  0.0370 -0.0946
  191POPC   C4A 2841   7.647   1.006   6.613 -0.0611 -0.1026  0.2984
  191POPC   C1B 2842   7.534   2.083   6.563  0.1757 -0.3033  0.0058
  191POPC   C2B 2843   7.744   2.165   6.993  0.0564 -0.0770  0.0218
  191POPC   C3B 2844   7.654   2.214   7.416 -0.2394  0.0636 -0.0086
  191POPC   C4B 2845   7.380   2.420   7.741 -0.1279 -0.2740 -0.2672
  192POPC   NC3 2846   3.495   4.355   3.880 -0.0554  0.2001 -0.0462
  192POPC   PO4 2847   3.772   4.537   3.995  0.0995 -0.2829 -0.3703
  192POPC   GL1 2848   3.840   4.694   4.397  0.0989 -0.1602  0.1957
  192POPC   GL2 2849   4.085   4.726   4.631 -0.4282  0.1339 -0.1651
  192POPC   C1A 2850   3.556   4.724   4.719  0.1994 -0.1149  0.2913
  192POPC   D2A 2851   3.339   4.961   4.956 -0.1003  0.0757  0.3969
  192POPC   C3A 2852   3.401   5.143   5.336  0.0501 -0.1124  0.2191
  192POPC   C4A 2853   3.460   5.204   5.863 -0.2160 -0.6894  0.1519
  192POPC   C1B 2854   4.156   4.716   5.056 -0.0896  0.1566 -0.0195
  192POPC   C2B 2855   4.616   4.709   5.129 -0.0274 -0.3250 -0.0509
  192POPC   C3B 2856   4.814   4.753   5.494  0.0555  0.2661 -0.3884
  192POPC   C4B 2857   5.028   4.830   5.949 -0.2954  0.1684 -0.1671
  193POPC   NC3 2858   6.401   2.560   5.251  0.3071 -0.1870  0.3292
  193POPC   PO4 2859   6.031   2.461   5.113 -0.0246  0.0363  0.1298
  193POPC   GL1 2860   5.791   2.436   5.488 -0.2330 -0.4032 -0.0873
  193POPC   GL2 2861   5.919   2.341   5.775  0.1437 -0.2985  0.0613
  193POPC   C1A 2862   5.691   2.761   5.703  0.2677 -0.0800  0.1890
  193POPC   D2A 2863   5.855   3.031   5.985 -0.2475 -0.1104  0.0304
  193POPC   C3A 2864   5.594   3.106   6.248  0.0373 -0.1000 -0.5075
  193POPC   C4A 2865   5.394   3.088   6.659 -0.1175  0.1380  0.0127
  193POPC   C1B 2866   6.069   2.604   6.151 -0.2211  0.4048  0.0919
  193POPC   C2B 2867   6.252   2.726   6.540  0.1686 -0.1762  0.0098
  193POPC   C3B 2868   6.079   2.978   6.846  0.0656  0.1500  0.1972
  193POPC   C4B 2869   5.690   3.056   7.087 -0.1720 -0.0645 -0.1406
  194POPC   NC3 2870   1.444   6.970   4.412  0.1572 -0.0240  0.0288
  194POPC   PO4 2871   1.214   6.795   4.738  0.3926  0.3684 -0.1148
  194POPC   GL1 2872   1.225   6.789   5.220 -0.0426  0.0559 -0.3119
  194POPC   GL2 2873   1.407   6.504   5.388  0.2639  0.4224 -0.0792
  194POPC   C1A 2874   1.045   7.018   5.545 -0.0358  0.0858 -0.2132
  194POPC   D2A 2875   1.087   7.296   5.980  0.0020  0.3702 -0.2793
  194POPC   C3A 2876   0.980   7.354   6.373 -0.1208 -0.0457  0.1809
  194POPC   C4A 2877   1.098   7.442   6.834 -0.1712 -0.1150  0.0206
  194POPC   C1B 2878   1.446   6.511   5.839 -0.2193  0.0922  0.1575
  194POPC   C2B 2879   1.576   6.486   6.389 -0.2198 -0.1550  0.3405
  194POPC   C3B 2880   1.713   6.673   6.732  0.0542  0.3149  0.0124
  194POPC   C4B 2881   1.630   6.601   7.138 -0.0918  0.0637 -0.0866
  195POPC   NC3 2882   9.017   2.170   5.511  0.1595  0.1856  0.2757
  195POPC   PO4 2883   8.773   1.731   5.516  0.0723  0.1101  0.1565
  195POPC   GL1 2884   8.793   1.526   5.894 -0.1753  0.0112 -0.0413
  195POPC   GL2 2885   8.944   1.752   5.938  0.0364 -0.0192  0.0146
  195POPC   C1A 2886   8.777   1.453   6.322 -0.0149 -0.3334  0.2013
  195POPC   D2A 2887   8.890   1.301   6.815 -0.1612  0.1683 -0.0864
  195POPC   C3A 2888   8.701   1.319   7.301  0.1027 -0.0413  0.0238
  195POPC   C4A 2889   8.696   1.093   7.688 -0.1074 -0.0061  0.0852
  195POPC   C1B 2890   9.060   1.945   6.322  0.0924  0.0288 -0.1808
  195POPC   C2B 2891   9.178   2.303   6.485 -0.1988  0.1036 -0.1413
  195POPC   C3B 2892   9.543   2.610   6.512  0.2362  0.0484 -0.0653
  195POPC   C4B 2893   9.893   2.448   6.600 -0.2125  0.1178 -0.0850
  196POPC   NC3 2894   5.596   2.212   5.071  0.2798 -0.0717 -0.0021
  196POPC   PO4 2895   5.215   2.386   5.058  0.1327  0.4072 -0.0665
  196POPC   GL1 2896   5.227   2.396   5.464 -0.1996  0.2998  0.0279
  196POPC   GL2 2897   5.327   2.043   5.471 -0.3437 -0.1325  0.0886
  196POPC   C1A 2898   5.356   2.398   5.865 -0.1305  0.1150  0.0934
  196POPC   D2A 2899   5.206   2.645   6.218  0.0619 -0.1243 -0.1439
  196POPC   C3A 2900   5.029   2.532   6.646 -0.1851 -0.0806  0.1132
  196POPC   C4A 2901   5.307   2.644   6.918  0.1743 -0.0117  0.0647
  196POPC   C1B 2902   5.157   1.946   5.824 -0.1363 -0.2495  0.0791
  196POPC   C2B 2903   5.269   1.914   6.243 -0.1067 -0.4894 -0.1020
  196POPC   C3B 2904   5.551   1.624   6.552 -0.2899 -0.0647 -0.0048
  196POPC   C4B 2905   5.635   1.791   6.923  0.0986 -0.2567  0.1984
  197POPC   NC3 2906  10.048   0.568   4.996  0.2237  0.1119 -0.1897
  197POPC   PO4 2907  10.488   0.467   5.213  0.1192  0.1019 -0.0586
  197POPC   GL1 2908  10.187   0.679   5.538 -0.2249  0.0995  0.2484
  197POPC   GL2 2909   9.810   0.638   5.442  0.0085 -0.0142 -0.1651
  197POPC   C1A 2910  10.430   0.798   5.940 -0.0875  0.5148 -0.0760
  197POPC   D2A 2911  10.640   0.974   6.168  0.0426  0.3714 -0.2964
  197POPC   C3A 2912  10.653   1.049   6.587  0.1534  0.1851  0.1707
  197POPC   C4A 2913  10.349   0.920   6.950  0.2929  0.5114  0.1637
  197POPC   C1B 2914   9.931   0.325   5.793  0.1423 -0.0244 -0.1349
  197POPC   C2B 2915   9.762  -0.022   6.110 -0.2029 -0.1271  0.2727
  197POPC   C3B 2916   9.861  -0.107   6.489  0.0216 -0.0810 -0.0998
  197POPC   C4B 2917   9.985   0.111   6.768 -0.2344  0.1480  0.1014
  198POPC   NC3 2918   4.976   9.429   4.569 -0.1853  0.0454 -0.0791
  198POPC   PO4 2919   4.805   9.524   4.988  0.0238  0.1167  0.2390
  198POPC   GL1 2920   4.647   9.664   5.363 -0.2558  0.4246  0.1020
  198POPC   GL2 2921   4.395   9.874   5.351 -0.0781  0.0185  0.2286
  198POPC   C1A 2922   4.558   9.236   5.514 -0.0175  0.0536  0.0499
  198POPC   D2A 2923   4.510   8.946   5.779  0.0082 -0.2810  0.1771
  198POPC   C3A 2924   4.325   8.983   6.207 -0.1036  0.4905 -0.3265
  198POPC   C4A 2925   4.439   9.184   6.581 -0.2173 -0.0342 -0.3022
  198POPC   C1B 2926   4.587   9.898   5.794 -0.2437 -0.1876 -0.2935
  198POPC   C2B 2927   4.672   9.810   6.201 -0.1771 -0.2611  0.0611
  198POPC   C3B 2928   4.525   9.913   6.626 -0.1110  0.4844 -0.1365
  198POPC   C4B 2929   4.319  10.110   6.853 -0.0431  0.2433 -0.0616
  199POPC   NC3 2930   4.850   0.442   5.071  0.1004  0.0722  0.1179
  199POPC   PO4 2931   4.951   0.786   5.315 -0.1791 -0.0493 -0.4405
  199POPC   GL1 2932   4.639   0.730   5.579 -0.0780 -0.0898 -0.0205
  199POPC   GL2 2933   4.338   0.963   5.533 -0.0618  0.2987 -0.1972
  199POPC   C1A 2934   4.681   0.632   6.045  0.1491 -0.1149  0.6204
  199POPC   D2A 2935   4.885   0.561   6.381  0.0058  0.1018  0.2587
  199POPC   C3A 2936   5.253   0.771   6.577  0.2442  0.1012  0.0464
  199POPC   C4A 2937   5.627   0.999   6.738 -0.4699  0.0187 -0.0946
  199POPC   C1B 2938   4.121   1.025   5.807 -0.0583 -0.1551  0.0993
  199POPC   C2B 2939   3.782   0.878   6.023 -0.5223 -0.0206  0.1292
  199POPC   C3B 2940   3.350   1.158   6.069 -0.1189 -0.3462  0.0906
  199POPC   C4B 2941   3.050   1.402   6.338 -0.1976 -0.1585  0.0833
  200POPC   NC3 2942   4.827  10.054   5.123  0.0357 -0.5614 -0.1484
  200POPC   PO4 2943   4.459  10.341   4.994  0.0913  0.4531  0.2439
  200POPC   GL1 2944   4.609  10.463   5.493  0.1807 -0.3908 -0.0894
  200POPC   GL2 2945   4.897  10.518   5.734  0.0742 -0.0316  0.2139
  200POPC   C1A 2946   4.239  10.739   5.747 -0.2162  0.4470 -0.0694
  200POPC   D2A 2947   4.167  10.677   6.172  0.1001 -0.1304  0.0010
  200POPC   C3A 2948   4.269  11.128   6.272 -0.2006 -0.3149  0.1302
  200POPC   C4A 2949   4.303  11.554   6.379 -0.0528 -0.0864  0.3624
  200POPC   C1B 2950   4.558  10.390   5.989 -0.0566  0.0712  0.1567
  200POPC   C2B 2951   4.511  10.402   6.457  0.1495  0.1091  0.1063
  200POPC   C3B 2952   4.570  10.756   6.766 -0.2919 -0.1500  0.1676
  200POPC   C4B 2953   4.835  10.941   6.946  0.3611  0.0816  0.0696
  201POPC   NC3 2954   0.846   5.292   5.533 -0.0241 -0.2530 -0.1353
  201POPC   PO4 2955   0.812   5.659   5.377  0.1629  0.1628  0.2087
  201POPC   GL1 2956   0.832   5.753   5.828 -0.1609  0.0264  0.1339
  201POPC   GL2 2957   1.016   5.571   5.953  0.0773 -0.2334  0.0351
  201POPC   C1A 2958   0.902   6.127   6.035  0.3113  0.2168 -0.0903
  201POPC   D2A 2959   1.141   6.283   6.323  0.1540 -0.1238 -0.2044
  201POPC   C3A 2960   0.998   6.596   6.598  0.0492 -0.0819  0.1508
  201POPC   C4A 2961   0.755   7.016   6.662 -0.0124  0.0055  0.1623
  201POPC   C1B 2962   1.083   5.765   6.276  0.0281 -0.3798 -0.1913
  201POPC   C2B 2963   1.067   5.549   6.637 -0.2139 -0.2094 -0.2146
  201POPC   C3B 2964   0.949   5.407   7.079 -0.0326 -0.0622 -0.2541
  201POPC   C4B 2965   0.990   5.377   7.449  0.2499  0.0693 -0.1387
  202POPC   NC3 2966   8.904   6.490   5.436  0.0801 -0.0433  0.0506
  202POPC   PO4 2967   8.516   6.357   5.310 -0.2625  0.3173  0.1187
  202POPC   GL1 2968   8.386   6.360   5.687 -0.1926  0.0169 -0.1142
  202POPC   GL2 2969   8.383   6.628   5.738 -0.0904  0.2195 -0.0857
  202POPC   C1A 2970   8.670   6.281   6.045 -0.1196  0.2629  0.0412
  202POPC   D2A 2971   9.106   6.295   6.114 -0.0802 -0.2368  0.1301
  202POPC   C3A 2972   9.208   6.058   6.515  0.1658 -0.1405  0.0362
  202POPC   C4A 2973   9.520   5.831   6.545  0.0696  0.1664 -0.0845
  202POPC   C1B 2974   8.501   6.765   6.053  0.1923 -0.0178  0.2511
  202POPC   C2B 2975   8.897   6.695   6.475  0.1266  0.0471  0.0601
  202POPC   C3B 2976   8.720   6.794   6.814  0.0465 -0.6361 -0.0462
  202POPC   C4B 2977   8.522   6.951   7.107  0.0049 -0.0218 -0.3763
  203POPC   NC3 2978   9.387   2.667   5.141 -0.2483  0.1163  0.3920
  203POPC   PO4 2979   9.585   2.229   5.280  0.2101 -0.2716  0.1231
  203POPC   GL1 2980   9.695   2.116   5.700 -0.1258 -0.2981 -0.0416
  203POPC   GL2 2981   9.342   2.011   5.819  0.2221  0.0392  0.0522
  203POPC   C1A 2982   9.737   2.449   6.088 -0.1779 -0.2271  0.1655
  203POPC   D2A 2983   9.861   2.814   6.195  0.2982 -0.0650  0.2494
  203POPC   C3A 2984  10.328   2.802   6.481 -0.0294 -0.0388  0.1434
  203POPC   C4A 2985  10.501   3.001   6.751  0.0422 -0.1590 -0.3798
  203POPC   C1B 2986   9.507   2.016   6.155 -0.1727 -0.1051 -0.0402
  203POPC   C2B 2987   9.566   2.022   6.605  0.1783 -0.0479  0.1911
  203POPC   C3B 2988   9.432   2.166   6.884  0.2965 -0.3372  0.1252
  203POPC   C4B 2989   8.864   2.233   6.872 -0.0946  0.0479 -0.0739
  204POPC   NC3 2990   1.259   2.320   5.242 -0.1111 -0.2303  0.3335
  204POPC   PO4 2991   1.628   2.165   5.415 -0.0739  0.1421  0.4000
  204POPC   GL1 2992   1.768   2.020   5.755 -0.0509  0.4651  0.0303
  204POPC   GL2 2993   1.967   1.670   5.797 -0.3064  0.3439 -0.1430
  204POPC   C1A 2994   1.662   1.852   6.189  0.1423 -0.1118 -0.0214
  204POPC   D2A 2995   1.693   2.078   6.527  0.1426  0.0270 -0.1045
  204POPC   C3A 2996   1.952   2.330   6.498  0.0277  0.1372  0.1633
  204POPC   C4A 2997   2.215   2.561   6.825 -0.1006  0.0156 -0.0546
  204POPC   C1B 2998   2.139   1.592   6.165  0.2448 -0.2993  0.2488
  204POPC   C2B 2999   2.001   1.655   6.572  0.2633  0.0362  0.4145
  204POPC   C3B 3000   2.058   1.299   6.861  0.0296  0.0559 -0.0263
  204POPC   C4B 3001   2.194   0.860   6.977 -0.0544 -0.1106 -0.0324
  205POPC   NC3 3002   7.899   4.465   4.867  0.2291 -0.0999 -0.0041
  205POPC   PO4 3003   8.077   4.014   5.103  0.0883 -0.1661 -0.1691
  205POPC   GL1 3004   8.081   4.237   5.448  0.2365 -0.3726  0.1186
  205POPC   GL2 3005   7.777   4.375   5.566  0.2795  0.2599  0.1722
  205POPC   C1A 3006   8.340   4.545   5.741  0.0150 -0.2641  0.0703
  205POPC   D2A 3007   8.436   4.969   5.896  0.2608  0.0226 -0.1688
  205POPC   C3A 3008   8.161   5.081   6.251  0.2143 -0.0300 -0.1462
  205POPC   C4A 3009   8.050   5.002   6.732 -0.3773 -0.3331 -0.1456
  205POPC   C1B 3010   7.479   4.413   5.991  0.0835  0.2464  0.2221
  205POPC   C2B 3011   7.568   4.148   6.455  0.0598  0.2333  0.1744
  205POPC   C3B 3012   7.513   4.195   6.845  0.0026 -0.1188  0.0860
  205POPC   C4B 3013   7.224   4.556   6.985  0.2552  0.0183 -0.0205
  206POPC   NC3 3014   5.857   5.796   3.296  0.0043  0.0085 -0.0596
  206POPC   PO4 3015   5.555   6.222   3.318  0.0530 -0.0292  0.2334
  206POPC   GL1 3016   5.451   6.405   3.682 -0.0149 -0.2692 -0.3774
  206POPC   GL2 3017   5.186   6.665   3.751 -0.0096 -0.3407 -0.3812
  206POPC   C1A 3018   5.594   6.439   4.083 -0.0771 -0.4561  0.0563
  206POPC   D2A 3019   6.004   6.445   4.255  0.1810  0.0506  0.1066
  206POPC   C3A 3020   6.287   6.619   4.499 -0.0645 -0.0390 -0.0707
  206POPC   C4A 3021   6.531   6.565   4.712 -0.1603  0.2254 -0.0247
  206POPC   C1B 3022   5.147   6.685   4.254 -0.0971 -0.0205  0.3247
  206POPC   C2B 3023   5.456   6.698   4.643 -0.0571 -0.1919 -0.2537
  206POPC   C3B 3024   5.703   6.680   5.113 -0.0631 -0.0232  0.1126
  206POPC   C4B 3025   5.937   6.738   5.430 -0.0077 -0.2612  0.0309
  207POPC   NC3 3026   0.775   6.109   5.063  0.1182  0.1338  0.0115
  207POPC   PO4 3027   0.777   6.467   4.828 -0.1391  0.0358 -0.3975
  207POPC   GL1 3028   0.689   6.625   5.225  0.0913 -0.1870 -0.0598
  207POPC   GL2 3029   0.569   6.858   5.356 -0.1692  0.0845  0.1543
  207POPC   C1A 3030   0.913   6.556   5.670  0.3489 -0.2060  0.2383
  207POPC   D2A 3031   0.887   6.775   6.054  0.0885  0.0511  0.2176
  207POPC   C3A 3032   1.250   6.889   6.251 -0.3170 -0.1993  0.2499
  207POPC   C4A 3033   1.430   7.122   6.586 -0.0618  0.0340 -0.1593
  207POPC   C1B 3034   0.543   7.100   5.746  0.1244 -0.0382  0.1402
  207POPC   C2B 3035   0.569   7.202   6.187  0.1450 -0.1550 -0.1405
  207POPC   C3B 3036   0.552   7.541   6.499 -0.0055 -0.2178  0.0874
  207POPC   C4B 3037   0.650   7.639   6.940 -0.1365  0.3184  0.0697
  208POPC   NC3 3038   2.292   8.467   3.543 -0.0102 -0.0625  0.1275
  208POPC   PO4 3039   2.567   8.329   3.914  0.1411 -0.0287  0.0370
  208POPC   GL1 3040   2.903   8.379   4.406  0.0564 -0.0920 -0.1052
  208POPC   GL2 3041   3.040   8.582   4.634 -0.1407 -0.1337  0.1387
  208POPC   C1A 3042   3.126   8.095   4.745  0.2247  0.1269  0.0836
  208POPC   D2A 3043   2.860   8.141   5.128  0.1225  0.1724 -0.1902
  208POPC   C3A 3044   2.893   7.995   5.535 -0.1033  0.0161 -0.2790
  208POPC   C4A 3045   2.979   7.766   5.956  0.0888  0.1249  0.1339
  208POPC   C1B 3046   3.061   8.717   5.093  0.0212 -0.0224  0.0572
  208POPC   C2B 3047   3.265   8.804   5.578  0.4011 -0.3467 -0.1227
  208POPC   C3B 3048   3.606   8.947   5.865 -0.0388  0.1339 -0.0477
  208POPC   C4B 3049   3.713   8.767   6.327 -0.2433 -0.1627 -0.0971
  209POPC   NC3 3050   2.833   6.453   3.930  0.0759 -0.2383  0.2275
  209POPC   PO4 3051   3.224   6.676   4.019 -0.0559 -0.0426 -0.2415
  209POPC   GL1 3052   3.394   6.814   4.414 -0.0393 -0.0924  0.0827
  209POPC   GL2 3053   3.634   7.040   4.446  0.1793 -0.3902  0.1413
  209POPC   C1A 3054   3.434   6.745   4.835 -0.0087  0.0729 -0.3847
  209POPC   D2A 3055   3.608   6.799   5.241  0.2313  0.0170 -0.0176
  209POPC   C3A 3056   3.593   6.426   5.470  0.0270 -0.0037 -0.0676
  209POPC   C4A 3057   3.539   6.048   5.557  0.1243  0.0817  0.1856
  209POPC   C1B 3058   3.764   7.174   4.835  0.2546  0.0818 -0.0228
  209POPC   C2B 3059   3.791   7.255   5.285 -0.1020  0.1339 -0.2725
  209POPC   C3B 3060   3.724   7.041   5.666 -0.0498  0.1799 -0.3989
  209POPC   C4B 3061   3.484   7.294   6.017 -0.1578 -0.0069  0.0721
  210POPC   NC3 3062   1.795   2.891   4.894  0.0687 -0.0414 -0.0711
  210POPC   PO4 3063   1.639   2.741   5.254 -0.1236 -0.1673 -0.0123
  210POPC   GL1 3064   1.948   2.579   5.596  0.0374 -0.2884 -0.1874
  210POPC   GL2 3065   1.963   2.836   5.803 -0.1684  0.1294  0.1181
  210POPC   C1A 3066   1.710   2.501   6.032 -0.3037  0.2409  0.0468
  210POPC   D2A 3067   1.530   2.871   6.124 -0.4410 -0.1571 -0.1220
  210POPC   C3A 3068   1.587   2.823   6.519 -0.0622  0.1287 -0.0811
  210POPC   C4A 3069   1.542   2.425   6.862 -0.0227 -0.1514 -0.0654
  210POPC   C1B 3070   2.077   2.814   6.265 -0.0410 -0.2295  0.1180
  210POPC   C2B 3071   2.297   3.032   6.515 -0.1011 -0.2758  0.1331
  210POPC   C3B 3072   2.470   3.432   6.733 -0.0108  0.1490 -0.2233
  210POPC   C4B 3073   2.343   3.726   6.978 -0.2308  0.2720  0.1967
  211POPC   NC3 3074   0.326   9.569   4.739  0.1919  0.2345  0.2140
  211POPC   PO4 3075   0.104   9.401   5.088 -0.0468 -0.1349 -0.0554
  211POPC   GL1 3076   0.077   9.350   5.596 -0.2307 -0.2795 -0.0707
  211POPC   GL2 3077   0.180   9.540   5.790 -0.0171  0.0620  0.3202
  211POPC   C1A 3078  -0.102   9.181   5.987 -0.1613  0.1289 -0.2447
  211POPC   D2A 3079  -0.199   9.120   6.390  0.1678 -0.1220  0.1315
  211POPC   C3A 3080  -0.380   8.717   6.540  0.2218  0.0577 -0.0019
  211POPC   C4A 3081  -0.488   8.513   6.901  0.3020 -0.1852 -0.0397
  211POPC   C1B 3082   0.350   9.349   6.242 -0.1704 -0.0700 -0.2494
  211POPC   C2B 3083   0.294   9.472   6.641 -0.3550 -0.2769 -0.3162
  211POPC   C3B 3084  -0.038   9.643   7.066 -0.4059  0.1622 -0.1792
  211POPC   C4B 3085  -0.179   9.701   7.480 -0.0498  0.0942 -0.4270
  212POPC   NC3 3086  10.147   5.557   5.844 -0.0152  0.1874 -0.2855
  212POPC   PO4 3087   9.745   5.628   5.699 -0.1556  0.2404 -0.1154
  212POPC   GL1 3088   9.865   5.809   6.163 -0.2886 -0.1192  0.2080
  212POPC   GL2 3089  10.175   5.688   6.350  0.0220 -0.0873  0.1916
  212POPC   C1A 3090   9.657   6.269   6.378  0.0380 -0.3506 -0.0284
  212POPC   D2A 3091   9.716   6.522   6.764  0.2751 -0.3475  0.0924
  212POPC   C3A 3092   9.609   6.674   7.093  0.2678 -0.2105  0.1630
  212POPC   C4A 3093   9.812   6.560   7.427 -0.2573  0.0050 -0.4654
  212POPC   C1B 3094  10.123   5.482   6.699  0.0243 -0.2344 -0.4580
  212POPC   C2B 3095   9.893   5.310   7.011 -0.3502  0.0727  0.3030
  212POPC   C3B 3096   9.964   4.853   7.063  0.0202  0.0191  0.1435
  212POPC   C4B 3097  10.066   4.564   7.424  0.0828  0.2415 -0.0511
  213POPC   NC3 3098   6.435   0.551   5.439 -0.0500  0.0568  0.0911
  213POPC   PO4 3099   6.465   0.186   5.583 -0.3465  0.1906 -0.2091
  213POPC   GL1 3100   6.613  -0.023   5.944 -0.1718 -0.2613 -0.0223
  213POPC   GL2 3101   6.675  -0.403   5.816  0.0326  0.2136  0.0536
  213POPC   C1A 3102   6.824  -0.154   6.393  0.1594 -0.0075  0.2388
  213POPC   D2A 3103   7.001  -0.236   6.675  0.0821  0.1961 -0.0385
  213POPC   C3A 3104   6.777  -0.283   7.149 -0.1245  0.0197  0.0525
  213POPC   C4A 3105   6.752  -0.686   7.439 -0.0598  0.1812 -0.1297
  213POPC   C1B 3106   6.466  -0.434   6.148  0.0293  0.0256 -0.1230
  213POPC   C2B 3107   6.287  -0.305   6.431 -0.5356  0.3500  0.0748
  213POPC   C3B 3108   6.402   0.087   6.499 -0.0749 -0.0410  0.3271
  213POPC   C4B 3109   6.414   0.557   6.376 -0.2211  0.2395  0.1258
  214POPC   NC3 3110   7.287   7.348   3.844 -0.1046  0.1006 -0.1605
  214POPC   PO4 3111   7.164   7.354   4.252  0.1103 -0.2580 -0.2237
  214POPC   GL1 3112   7.053   7.438   4.709 -0.1623  0.0304 -0.1832
  214POPC   GL2 3113   6.874   7.675   4.973  0.1411 -0.2357  0.5582
  214POPC   C1A 3114   7.260   7.144   5.040  0.0357  0.0989 -0.0601
  214POPC   D2A 3115   7.663   7.230   5.421  0.0615 -0.2223  0.0767
  214POPC   C3A 3116   7.582   7.459   5.767  0.1652 -0.2001 -0.0563
  214POPC   C4A 3117   7.513   7.837   6.002  0.1073 -0.0804 -0.2568
  214POPC   C1B 3118   6.739   7.638   5.428  0.0252  0.5594  0.1765
  214POPC   C2B 3119   6.603   7.807   5.884 -0.3084  0.0969  0.0362
  214POPC   C3B 3120   6.701   7.982   6.255 -0.0409  0.0345 -0.1442
  214POPC   C4B 3121   6.771   7.849   6.722  0.2061  0.0877  0.1597
  215POPC   NC3 3122   5.604   1.177   5.120 -0.0446 -0.1346  0.0948
  215POPC   PO4 3123   5.953   0.998   5.449 -0.0874  0.3030 -0.0985
  215POPC   GL1 3124   6.036   0.597   5.767  0.4868  0.3520 -0.0205
  215POPC   GL2 3125   5.655   0.580   5.752  0.0449  0.3006  0.4750
  215POPC   C1A 3126   6.065   0.353   6.040  0.1691 -0.3251 -0.2809
  215POPC   D2A 3127   5.885   0.224   6.377 -0.3641 -0.1195  0.2444
  215POPC   C3A 3128   6.045   0.314   6.800 -0.0864 -0.0146  0.1898
  215POPC   C4A 3129   6.151  -0.065   7.010  0.1522 -0.3110 -0.0366
  215POPC   C1B 3130   5.670   0.712   6.241 -0.3931  0.0918 -0.0193
  215POPC   C2B 3131   5.939   0.700   6.536  0.3790 -0.0769 -0.1224
  215POPC   C3B 3132   5.987   0.793   7.016  0.1289  0.2971  0.2647
  215POPC   C4B 3133   5.744   1.177   7.246  0.1841  0.1926  0.3243
  216POPC   NC3 3134   0.055   8.474   5.096  0.3161 -0.2155 -0.0052
  216POPC   PO4 3135  -0.225   8.173   5.124  0.2860 -0.2316  0.3073
  216POPC   GL1 3136  -0.180   8.416   5.579  0.1430  0.0278 -0.4414
  216POPC   GL2 3137   0.101   8.376   5.602  0.1947  0.0321 -0.1298
  216POPC   C1A 3138  -0.001   8.844   5.642 -0.1196  0.2137 -0.0525
  216POPC   D2A 3139   0.423   8.951   5.669 -0.0960  0.3124  0.0461
  216POPC   C3A 3140   0.725   9.122   5.742 -0.0260  0.0373 -0.2654
  216POPC   C4A 3141   0.858   9.304   6.211 -0.1831  0.2365 -0.2898
  216POPC   C1B 3142   0.202   8.429   6.005 -0.0086 -0.0197  0.0110
  216POPC   C2B 3143   0.398   8.365   6.488 -0.0717 -0.3707 -0.1091
  216POPC   C3B 3144   0.610   8.379   6.872 -0.1175 -0.0246  0.2687
  216POPC   C4B 3145   0.799   8.115   7.250  0.2172  0.3727  0.0108
  217POPC   NC3 3146   0.150   3.774   5.257 -0.1026  0.0384  0.1676
  217POPC   PO4 3147  -0.152   4.216   5.193 -0.0296 -0.6549  0.0790
  217POPC   GL1 3148   0.048   4.097   5.599  0.0753  0.0560 -0.2145
  217POPC   GL2 3149  -0.236   3.952   5.825 -0.1306 -0.0499  0.2940
  217POPC   C1A 3150   0.286   3.853   5.905  0.1100  0.0181 -0.4163
  217POPC   D2A 3151   0.600   3.569   5.986  0.1085 -0.0979 -0.0849
  217POPC   C3A 3152   0.782   3.551   6.427  0.0462 -0.0947 -0.1048
  217POPC   C4A 3153   0.693   3.853   6.807  0.1797 -0.1060 -0.0140
  217POPC   C1B 3154  -0.521   3.808   6.237  0.1590 -0.0812  0.1766
  217POPC   C2B 3155  -0.483   3.689   6.699  0.2605  0.0011  0.1558
  217POPC   C3B 3156  -0.444   3.881   7.135 -0.0885  0.1680 -0.1980
  217POPC   C4B 3157  -0.520   4.258   7.358 -0.0870 -0.1830 -0.1238
  218POPC   NC3 3158   6.450   1.698   5.227 -0.1615  0.2756 -0.0291
  218POPC   PO4 3159   6.281   2.113   5.405 -0.2025 -0.0535 -0.1527
  218POPC   GL1 3160   6.393   1.974   5.783  0.1727  0.2667  0.2855
  218POPC   GL2 3161   6.203   2.002   6.006  0.5686  0.0544  0.1084
  218POPC   C1A 3162   6.610   1.917   6.214 -0.1786  0.0988  0.0506
  218POPC   D2A 3163   6.530   1.860   6.610 -0.2040  0.1299  0.0397
  218POPC   C3A 3164   6.694   2.043   6.997 -0.2423 -0.0959 -0.0829
  218POPC   C4A 3165   6.685   2.142   7.450 -0.0973  0.1261 -0.0631
  218POPC   C1B 3166   6.134   2.172   6.383  0.2603 -0.0583 -0.1738
  218POPC   C2B 3167   5.815   2.257   6.703  0.2008 -0.1448 -0.0731
  218POPC   C3B 3168   5.702   2.399   7.151  0.1392 -0.0320  0.0779
  218POPC   C4B 3169   5.562   2.807   7.471 -0.1053 -0.3856 -0.1080
  219POPC   NC3 3170   3.779   2.737   5.004  0.1462 -0.0081  0.0636
  219POPC   PO4 3171   3.894   2.383   5.234  0.0168  0.2280  0.2421
  219POPC   GL1 3172   3.867   2.202   5.737  0.2682  0.0732 -0.1890
  219POPC   GL2 3173   3.995   1.887   5.859  0.0676 -0.0695  0.1169
  219POPC   C1A 3174   3.964   2.315   6.209 -0.2951  0.1798  0.3723
  219POPC   D2A 3175   4.162   2.261   6.694  0.1702 -0.1527  0.1877
  219POPC   C3A 3176   4.089   2.446   7.160 -0.0267  0.1568 -0.0044
  219POPC   C4A 3177   4.131   2.475   7.603  0.0202 -0.0069 -0.1795
  219POPC   C1B 3178   4.284   1.578   5.885 -0.1240  0.1698 -0.0574
  219POPC   C2B 3179   4.580   1.193   5.917  0.1177  0.0499 -0.0899
  219POPC   C3B 3180   4.951   1.052   6.085  0.3549  0.0432  0.4082
  219POPC   C4B 3181   5.259   0.782   5.932 -0.0053 -0.4114 -0.1749
  220POPC   NC3 3182   7.513   5.260   4.383  0.1301  0.1019  0.1763
  220POPC   PO4 3183   7.125   5.437   4.500  0.0885 -0.0592  0.2783
  220POPC   GL1 3184   6.670   5.595   4.741 -0.4580 -0.1780  0.1855
  220POPC   GL2 3185   6.785   5.548   5.099 -0.0653 -0.2890 -0.0315
  220POPC   C1A 3186   6.673   6.046   4.922 -0.3649  0.0134 -0.0840
  220POPC   D2A 3187   6.690   6.189   5.372 -0.2252 -0.0362 -0.0703
  220POPC   C3A 3188   7.057   6.155   5.428  0.0323 -0.1236 -0.2741
  220POPC   C4A 3189   7.423   6.457   5.659 -0.0438  0.1967  0.2262
  220POPC   C1B 3190   6.378   5.432   5.197 -0.3885  0.1148 -0.1159
  220POPC   C2B 3191   6.083   5.173   4.931 -0.1730 -0.0724  0.2662
  220POPC   C3B 3192   5.904   4.851   5.264 -0.0247  0.1292  0.2731
  220POPC   C4B 3193   6.033   4.471   5.390 -0.0245 -0.4748  0.0830
  221POPC   NC3 3194   8.467   5.313   5.563 -0.0567 -0.1927  0.1210
  221POPC   PO4 3195   8.596   5.796   5.392  0.0019  0.5416 -0.0322
  221POPC   GL1 3196   8.295   5.851   5.679  0.2865  0.2129 -0.2485
  221POPC   GL2 3197   7.871   5.883   5.615  0.0089  0.0959 -0.1340
  221POPC   C1A 3198   8.225   5.598   6.081  0.0208 -0.2145  0.1124
  221POPC   D2A 3199   8.068   5.481   6.581  0.2908  0.1188  0.1270
  221POPC   C3A 3200   7.715   5.304   6.738  0.0478  0.2558  0.4208
  221POPC   C4A 3201   7.387   5.021   6.862 -0.2735  0.0287  0.1840
  221POPC   C1B 3202   7.886   5.950   6.062 -0.3403 -0.0063 -0.3557
  221POPC   C2B 3203   7.602   5.811   6.336  0.1087 -0.1247 -0.5656
  221POPC   C3B 3204   7.587   5.987   6.829  0.1798  0.0723  0.0545
  221POPC   C4B 3205   7.784   6.170   7.216  0.1586  0.3591  0.1872
  222POPC   NC3 3206   7.275   7.955   4.749  0.0391 -0.1932 -0.2475
  222POPC   PO4 3207   6.841   8.244   4.795  0.1839  0.2313  0.2667
  222POPC   GL1 3208   6.760   8.118   5.170 -0.0780  0.2209  0.0953
  222POPC   GL2 3209   7.075   8.042   5.250 -0.0689  0.1630  0.4989
  222POPC   C1A 3210   6.477   8.044   5.472 -0.2022 -0.1396 -0.0522
  222POPC   D2A 3211   6.141   8.148   5.785 -0.1120 -0.3119 -0.1084
  222POPC   C3A 3212   5.967   8.596   5.910 -0.2517  0.1440  0.2372
  222POPC   C4A 3213   5.545   8.797   5.960  0.1570 -0.3070  0.3355
  222POPC   C1B 3214   7.055   7.929   5.689 -0.3929  0.0570  0.0216
  222POPC   C2B 3215   7.091   7.611   5.886 -0.1496 -0.0685 -0.2964
  222POPC   C3B 3216   7.154   7.153   6.025 -0.0748  0.0501  0.1194
  222POPC   C4B 3217   7.230   6.988   6.433 -0.1543  0.2715  0.0521
  223POPC   NC3 3218   1.765  10.097   5.070 -0.2219 -0.2244  0.2028
  223POPC   PO4 3219   1.706   9.740   5.217  0.1787 -0.3243  0.0295
  223POPC   GL1 3220   1.621   9.916   5.628  0.3513 -0.0384  0.1294
  223POPC   GL2 3221   1.616  10.272   5.529  0.5041  0.3844  0.0695
  223POPC   C1A 3222   1.668   9.798   5.994  0.0937  0.0652  0.3283
  223POPC   D2A 3223   1.909   9.579   6.205 -0.1387 -0.0659  0.0873
  223POPC   C3A 3224   1.857   9.505   6.530  0.1359  0.0213 -0.0537
  223POPC   C4A 3225   1.864   9.214   6.835 -0.0896  0.3618 -0.1614
  223POPC   C1B 3226   1.662  10.370   5.947  0.2858 -0.2550  0.3322
  223POPC   C2B 3227   1.529  10.238   6.260  0.1454  0.1878  0.0740
  223POPC   C3B 3228   1.404  10.286   6.655  0.0494  0.0137 -0.2140
  223POPC   C4B 3229   1.517  10.184   7.127  0.0841 -0.1398  0.0334
  224POPC   NC3 3230   6.589   4.265   4.691 -0.3191  0.1770 -0.0469
  224POPC   PO4 3231   6.757   3.872   4.870  0.1955  0.1076  0.1686
  224POPC   GL1 3232   6.743   4.083   5.185 -0.1375  0.2179 -0.0794
  224POPC   GL2 3233   6.937   4.150   5.346  0.2622  0.0105  0.2683
  224POPC   C1A 3234   6.489   4.165   5.578 -0.1573  0.1940 -0.0815
  224POPC   D2A 3235   6.274   4.401   5.852  0.3236  0.2333 -0.1427
  224POPC   C3A 3236   6.325   4.463   6.305  0.0841 -0.0217 -0.1875
  224POPC   C4A 3237   6.290   4.911   6.388  0.1102  0.1083  0.0467
  224POPC   C1B 3238   6.968   4.215   5.727 -0.0490 -0.1452  0.2594
  224POPC   C2B 3239   6.747   4.333   6.024  0.1086  0.1091  0.0888
  224POPC   C3B 3240   6.682   4.246   6.466  0.1070  0.0775 -0.1430
  224POPC   C4B 3241   6.725   4.402   6.872  0.0841  0.1645  0.0789
  225POPC   NC3 3242   9.356   7.451   5.134  0.0045  0.2011 -0.0100
  225POPC   PO4 3243   9.616   7.748   5.138 -0.1958  0.2026  0.2828
  225POPC   GL1 3244   9.859   7.744   5.560 -0.0331 -0.1602 -0.0838
  225POPC   GL2 3245  10.034   7.925   5.626  0.0064 -0.1230  0.1799
  225POPC   C1A 3246   9.960   7.624   6.028 -0.1724 -0.2151  0.0344
  225POPC   D2A 3247  10.036   7.748   6.441  0.0359  0.1348 -0.2088
  225POPC   C3A 3248  10.051   7.677   6.799  0.3253 -0.0878 -0.1577
  225POPC   C4A 3249  10.146   7.414   6.995  0.0800  0.0871  0.3309
  225POPC   C1B 3250  10.019   8.112   6.055  0.0597  0.4275  0.2349
  225POPC   C2B 3251  10.009   8.246   6.465  0.0122  0.3760  0.0457
  225POPC   C3B 3252  10.158   8.238   6.919 -0.0218 -0.0763  0.2583
  225POPC   C4B 3253   9.992   7.960   7.242 -0.0767  0.0014 -0.3140
  226POPC   NC3 3254   6.007   0.120   5.323  0.2662 -0.1495 -0.2404
  226POPC   PO4 3255   5.586   0.052   5.210  0.1569  0.1141 -0.0990
  226POPC   GL1 3256   5.594   0.041   5.673 -0.0602  0.3196 -0.1600
  226POPC   GL2 3257   5.830   0.036   5.812 -0.1190  0.0379  0.0286
  226POPC   C1A 3258   5.385   0.214   6.078  0.0863  0.0691 -0.1900
  226POPC   D2A 3259   5.359   0.316   6.481 -0.1088 -0.0601  0.0959
  226POPC   C3A 3260   5.534  -0.001   6.785 -0.1745  0.2841  0.0955
  226POPC   C4A 3261   5.510  -0.345   7.155  0.4803 -0.0242 -0.1899
  226POPC   C1B 3262   6.063  -0.144   6.050 -0.2993 -0.1365  0.0762
  226POPC   C2B 3263   5.819  -0.269   6.384 -0.0051 -0.1155  0.1771
  226POPC   C3B 3264   5.994  -0.471   6.787  0.1426  0.0018 -0.0124
  226POPC   C4B 3265   6.393  -0.550   6.926 -0.2362  0.0020  0.1043
  227POPC   NC3 3266   8.770   5.491   5.000 -0.0087  0.0496 -0.2840
  227POPC   PO4 3267   8.682   5.086   5.169  0.1707  0.0871  0.1245
  227POPC   GL1 3268   8.934   5.215   5.637 -0.0227  0.1753  0.1541
  227POPC   GL2 3269   9.065   4.914   5.746  0.0320 -0.1489 -0.3153
  227POPC   C1A 3270   8.805   5.197   6.106  0.0825  0.2620  0.0241
  227POPC   D2A 3271   8.543   5.240   6.506 -0.2653 -0.0708  0.1796
  227POPC   C3A 3272   8.572   5.325   6.844  0.0042  0.1182  0.4092
  227POPC   C4A 3273   8.186   5.405   7.091  0.3328  0.3432  0.3691
  227POPC   C1B 3274   8.871   4.628   6.052 -0.2528 -0.0992  0.2731
  227POPC   C2B 3275   8.707   4.738   6.381  0.0592 -0.1549  0.0407
  227POPC   C3B 3276   8.540   4.778   6.750 -0.0934 -0.0825 -0.0347
  227POPC   C4B 3277   8.286   4.937   7.182  0.0613  0.0719  0.0184
  228POPC   NC3 3278   0.175   2.340   5.533  0.1960  0.0653  0.0828
  228POPC   PO4 3279   0.381   1.977   5.436 -0.0931  0.1229  0.1421
  228POPC   GL1 3280   0.590   1.987   5.841 -0.1056 -0.3386 -0.1349
  228POPC   GL2 3281   0.328   1.848   5.978  0.2292  0.0679  0.0862
  228POPC   C1A 3282   0.702   1.870   6.356  0.1990  0.1764  0.1614
  228POPC   D2A 3283   0.766   1.435   6.459 -0.1048  0.2442  0.3087
  228POPC   C3A 3284   0.705   1.332   6.933  0.1820  0.1001  0.2227
  228POPC   C4A 3285   0.779   1.029   7.226  0.0762  0.2217  0.2124
  228POPC   C1B 3286   0.278   1.462   6.219  0.3040  0.3148  0.1892
  228POPC   C2B 3287   0.160   1.430   6.570 -0.1493  0.0252  0.2322
  228POPC   C3B 3288   0.239   1.363   7.065 -0.1276  0.3265 -0.0218
  228POPC   C4B 3289   0.052   1.533   7.511  0.0119  0.1771  0.0354
  229POPC   NC3 3290   3.326   5.665   3.503 -0.1863 -0.2392 -0.1222
  229POPC   PO4 3291   3.626   5.662   3.865  0.0012  0.2119  0.1741
  229POPC   GL1 3292   3.611   5.674   4.391  0.3803  0.0327  0.2276
  229POPC   GL2 3293   3.280   5.769   4.502 -0.0794 -0.2029 -0.0284
  229POPC   C1A 3294   3.729   5.883   4.757 -0.0212  0.1439  0.0725
  229POPC   D2A 3295   3.740   6.314   4.952 -0.0074 -0.3989 -0.3226
  229POPC   C3A 3296   3.907   6.688   4.739  0.2324  0.2496 -0.0186
  229POPC   C4A 3297   4.145   6.888   4.466  0.4521  0.0355  0.1428
  229POPC   C1B 3298   3.273   5.962   4.997  0.0567 -0.2743 -0.2705
  229POPC   C2B 3299   3.165   6.444   5.119 -0.1826  0.2080 -0.1617
  229POPC   C3B 3300   2.712   6.492   5.163 -0.0443 -0.2487 -0.1315
  229POPC   C4B 3301   2.382   6.754   5.323  0.0779  0.6060  0.2713
  230POPC   NC3 3302   1.427   3.070   5.569 -0.0445  0.0284  0.0298
  230POPC   PO4 3303   1.095   2.740   5.436 -0.1033  0.0454  0.0416
  230POPC   GL1 3304   1.056   2.894   5.863 -0.0552 -0.0367 -0.2208
  230POPC   GL2 3305   1.178   3.260   5.973 -0.3221 -0.1832 -0.1122
  230POPC   C1A 3306   1.113   2.607   6.251  0.0386 -0.0279  0.0085
  230POPC   D2A 3307   1.112   2.712   6.699  0.0685 -0.0388 -0.0109
  230POPC   C3A 3308   0.972   2.781   7.150 -0.0687  0.2380  0.1057
  230POPC   C4A 3309   0.587   2.990   7.316 -0.0786  0.0500 -0.1796
  230POPC   C1B 3310   1.275   3.191   6.475 -0.2682 -0.4010  0.0095
  230POPC   C2B 3311   1.315   3.164   6.926  0.1052  0.0991 -0.2118
  230POPC   C3B 3312   1.507   3.028   7.285  0.1021  0.5459 -0.0996
  230POPC   C4B 3313   1.775   2.637   7.277 -0.1859 -0.0584 -0.0750
  231POPC   NC3 3314   1.958   6.962   4.601  0.1118  0.0981  0.0106
  231POPC   PO4 3315   1.650   7.011   4.901  0.1093  0.1620 -0.2828
  231POPC   GL1 3316   2.106   7.219   5.014  0.0527 -0.0025 -0.0440
  231POPC   GL2 3317   2.115   7.468   4.840  0.0044 -0.0166  0.0015
  231POPC   C1A 3318   2.233   7.245   5.415 -0.3137 -0.1441  0.1213
  231POPC   D2A 3319   1.978   7.448   5.797 -0.2645  0.3315  0.0211
  231POPC   C3A 3320   2.034   7.086   6.073  0.3226  0.1497  0.0005
  231POPC   C4A 3321   1.718   6.867   6.111  0.1180 -0.2781  0.3782
  231POPC   C1B 3322   2.030   7.711   5.296 -0.0652  0.2764 -0.0167
  231POPC   C2B 3323   2.168   7.934   5.706 -0.2712 -0.3950  0.1016
  231POPC   C3B 3324   2.435   8.116   6.113  0.0840  0.0982  0.2043
  231POPC   C4B 3325   2.569   8.295   6.451  0.0864 -0.0686  0.2293
  232POPC   NC3 3326   7.995   6.250   5.277 -0.1216  0.0823 -0.0204
  232POPC   PO4 3327   7.846   6.593   4.995  0.3986 -0.1050  0.0215
  232POPC   GL1 3328   7.741   6.776   5.329 -0.0611  0.0766  0.1791
  232POPC   GL2 3329   7.874   6.639   5.563  0.1780  0.2286  0.3224
  232POPC   C1A 3330   7.499   6.884   5.737  0.0658 -0.0587 -0.4678
  232POPC   D2A 3331   7.596   6.720   6.196 -0.1088  0.2647 -0.0056
  232POPC   C3A 3332   7.464   6.628   6.680 -0.1926  0.1411  0.0697
  232POPC   C4A 3333   7.371   7.022   6.926 -0.2450  0.3197  0.0190
  232POPC   C1B 3334   7.940   6.433   5.927 -0.1691  0.3553 -0.2347
  232POPC   C2B 3335   8.172   6.331   6.182  0.0188  0.0627 -0.1830
  232POPC   C3B 3336   8.448   6.475   6.514  0.0359 -0.0394  0.1816
  232POPC   C4B 3337   8.718   6.319   6.771  0.1722 -0.1232  0.4083
  233POPC   NC3 3338   0.408   6.896   4.861 -0.2075  0.3350 -0.3486
  233POPC   PO4 3339   0.294   7.306   4.946  0.2407  0.0871  0.1064
  233POPC   GL1 3340   0.658   7.364   5.312 -0.1301  0.2006 -0.0778
  233POPC   GL2 3341   1.075   7.425   5.307 -0.0678 -0.0307 -0.1235
  233POPC   C1A 3342   0.687   7.565   5.768 -0.0866 -0.2266 -0.2612
  233POPC   D2A 3343   0.775   7.725   6.079  0.2045  0.0706 -0.1394
  233POPC   C3A 3344   0.805   8.156   6.086 -0.3224 -0.0596  0.2226
  233POPC   C4A 3345   0.638   8.321   5.686 -0.2208 -0.0794  0.0801
  233POPC   C1B 3346   1.155   7.814   5.613  0.0221 -0.1004 -0.0485
  233POPC   C2B 3347   1.330   7.696   6.064  0.0661  0.0182 -0.1469
  233POPC   C3B 3348   1.624   7.875   6.206  0.0038 -0.1316 -0.1493
  233POPC   C4B 3349   1.933   8.214   6.208 -0.0885  0.0218 -0.2885
  234POPC   NC3 3350   4.855   3.904   4.674 -0.6287  0.1887 -0.2682
  234POPC   PO4 3351   4.711   3.432   4.670  0.0269 -0.0147  0.4282
  234POPC   GL1 3352   4.651   3.422   5.107 -0.0379 -0.1717 -0.0250
  234POPC   GL2 3353   4.775   3.290   5.263 -0.1150  0.0850  0.1040
  234POPC   C1A 3354   4.304   3.329   5.445 -0.0787 -0.1719 -0.3603
  234POPC   D2A 3355   4.038   3.498   5.818  0.0896  0.2798 -0.0227
  234POPC   C3A 3356   4.072   3.640   6.260  0.1703  0.1472 -0.0554
  234POPC   C4A 3357   4.155   3.663   6.672  0.1977  0.0724 -0.1610
  234POPC   C1B 3358   4.663   3.011   5.650 -0.1615 -0.2426 -0.0497
  234POPC   C2B 3359   4.332   3.078   5.940  0.3652 -0.3298 -0.1920
  234POPC   C3B 3360   4.255   3.207   6.406  0.1642  0.2035  0.0081
  234POPC   C4B 3361   4.421   3.186   6.772 -0.0184 -0.0296  0.0506
  235POPC   NC3 3362   7.988   2.341   5.515 -0.1647  0.0577  0.1666
  235POPC   PO4 3363   8.501   2.267   5.379 -0.0664 -0.3820  0.4300
  235POPC   GL1 3364   8.636   2.135   5.795 -0.2002  0.0166  0.2646
  235POPC   GL2 3365   8.788   2.282   5.970 -0.1708 -0.2398 -0.1705
  235POPC   C1A 3366   8.449   1.943   6.183 -0.0464 -0.0393 -0.0986
  235POPC   D2A 3367   8.619   1.836   6.560 -0.1077 -0.3349 -0.0346
  235POPC   C3A 3368   8.393   1.577   6.724 -0.2914 -0.0954  0.2543
  235POPC   C4A 3369   8.327   1.385   6.980 -0.0043  0.0363 -0.2548
  235POPC   C1B 3370   8.658   2.348   6.435 -0.0105 -0.2423  0.0606
  235POPC   C2B 3371   8.462   2.548   6.894  0.0896 -0.0464  0.1908
  235POPC   C3B 3372   8.730   2.655   7.263 -0.0189  0.1484 -0.0809
  235POPC   C4B 3373   8.839   2.618   7.656  0.2116 -0.2108  0.1790
  236POPC   NC3 3374   7.275   5.356   5.016 -0.0619 -0.0727 -0.0495
  236POPC   PO4 3375   7.370   4.970   4.804 -0.1528  0.3071 -0.0221
  236POPC   GL1 3376   7.245   4.868   5.127  0.0076 -0.0159 -0.0234
  236POPC   GL2 3377   7.007   5.054   5.308 -0.2299  0.2431 -0.2784
  236POPC   C1A 3378   7.234   4.597   5.515  0.1230 -0.0988  0.0814
  236POPC   D2A 3379   7.124   4.793   5.968 -0.2451  0.4178 -0.0875
  236POPC   C3A 3380   7.117   5.051   6.277 -0.3283 -0.1545 -0.2461
  236POPC   C4A 3381   7.089   5.369   6.626  0.1294 -0.0021  0.1530
  236POPC   C1B 3382   6.820   5.142   5.801  0.0355 -0.3375 -0.1083
  236POPC   C2B 3383   6.663   5.261   6.203  0.0621 -0.2004  0.2547
  236POPC   C3B 3384   6.468   5.490   6.538  0.0370 -0.3346  0.0549
  236POPC   C4B 3385   6.176   5.920   6.655 -0.0308  0.0029 -0.0670
  237POPC   NC3 3386   2.192   3.451   5.358 -0.0972  0.3152  0.3873
  237POPC   PO4 3387   2.356   3.665   5.005 -0.2550 -0.1128  0.1568
  237POPC   GL1 3388   2.568   3.817   5.373 -0.3195  0.1840  0.3685
  237POPC   GL2 3389   2.547   3.542   5.614 -0.0947 -0.0861  0.0847
  237POPC   C1A 3390   2.826   4.201   5.517 -0.0566  0.3467 -0.1367
  237POPC   D2A 3391   3.100   4.346   5.781 -0.0268 -0.3154  0.1206
  237POPC   C3A 3392   3.101   4.828   5.823  0.0500  0.3560 -0.1006
  237POPC   C4A 3393   3.013   5.123   5.616  0.2428  0.1427 -0.1168
  237POPC   C1B 3394   2.649   3.625   6.133 -0.0167 -0.3643 -0.2895
  237POPC   C2B 3395   2.520   3.801   6.463  0.2962 -0.0482 -0.3452
  237POPC   C3B 3396   2.836   3.837   6.815 -0.1853 -0.1888  0.0747
  237POPC   C4B 3397   2.953   3.714   7.228  0.0497 -0.1745  0.3756
  238POPC   NC3 3398   6.738   2.159   5.411 -0.0601  0.1777  0.2705
  238POPC   PO4 3399   6.830   1.734   5.493  0.1865 -0.1742  0.0415
  238POPC   GL1 3400   6.805   1.542   5.969  0.0937 -0.3717 -0.0303
  238POPC   GL2 3401   6.785   1.263   6.003  0.1808  0.1906  0.2293
  238POPC   C1A 3402   6.799   1.517   6.389 -0.1081  0.0103 -0.2592
  238POPC   D2A 3403   6.753   1.399   6.723 -0.1223  0.0626  0.0939
  238POPC   C3A 3404   6.349   1.441   6.853 -0.1071 -0.0511  0.2359
  238POPC   C4A 3405   5.942   1.409   6.817  0.3257 -0.2598  0.0713
  238POPC   C1B 3406   7.000   0.943   6.292  0.0384 -0.2177 -0.1383
  238POPC   C2B 3407   6.890   0.895   6.703  0.2973 -0.0654 -0.0325
  238POPC   C3B 3408   6.917   0.653   7.053 -0.0748  0.2598  0.1637
  238POPC   C4B 3409   7.055   0.719   7.447 -0.1827  0.3818  0.1983
  239POPC   NC3 3410   7.359   1.581   5.691  0.2192 -0.1482  0.1476
  239POPC   PO4 3411   7.214   2.111   5.515 -0.0366  0.0176 -0.1408
  239POPC   GL1 3412   6.994   2.182   5.901 -0.0744  0.1734  0.1926
  239POPC   GL2 3413   7.078   2.543   6.076 -0.3428  0.1129  0.2303
  239POPC   C1A 3414   7.054   2.124   6.346 -0.1263  0.1397 -0.1698
  239POPC   D2A 3415   7.034   1.884   6.737  0.0101 -0.0684 -0.0637
  239POPC   C3A 3416   7.295   1.777   6.860  0.2014 -0.0440  0.1835
  239POPC   C4A 3417   7.436   1.831   7.289 -0.0294 -0.0979 -0.0461
  239POPC   C1B 3418   7.052   2.599   6.471  0.1624 -0.1805 -0.2151
  239POPC   C2B 3419   6.896   2.626   6.957  0.1807 -0.1062 -0.0189
  239POPC   C3B 3420   6.669   2.980   7.158 -0.1182  0.0236  0.0637
  239POPC   C4B 3421   6.651   3.169   7.590 -0.0464  0.1503 -0.3108
  240POPC   NC3 3422   2.114   2.146   5.414  0.2810  0.0466 -0.1915
  240POPC   PO4 3423   2.430   2.424   5.482 -0.0658  0.2640  0.2831
  240POPC   GL1 3424   2.341   2.433   5.946  0.2831  0.0252 -0.2638
  240POPC   GL2 3425   2.148   2.122   6.044  0.0019 -0.1344  0.0638
  240POPC   C1A 3426   2.434   2.510   6.374  0.0983 -0.1645  0.0158
  240POPC   D2A 3427   2.747   2.805   6.645 -0.0515 -0.3239 -0.5294
  240POPC   C3A 3428   2.523   2.984   6.984 -0.0474 -0.1996  0.0364
  240POPC   C4A 3429   2.661   3.279   7.330  0.0997  0.1485  0.4158
  240POPC   C1B 3430   2.358   1.985   6.450 -0.4944 -0.4209 -0.1337
  240POPC   C2B 3431   2.655   2.218   6.766 -0.0637  0.2148  0.0123
  240POPC   C3B 3432   2.709   2.540   7.085  0.1691  0.2340  0.2276
  240POPC   C4B 3433   2.730   2.748   7.446 -0.0330  0.3216  0.2035
  241POPC   NC3 3434   2.519   5.581   4.126  0.0412 -0.0978 -0.0528
  241POPC   PO4 3435   2.786   5.563   4.439 -0.1413  0.1432 -0.0326
  241POPC   GL1 3436   2.844   5.945   4.795  0.0943  0.1074  0.2760
  241POPC   GL2 3437   2.759   6.302   4.620  0.0075  0.1967  0.1460
  241POPC   C1A 3438   2.835   6.017   5.284  0.2116  0.0630  0.1895
  241POPC   D2A 3439   3.013   6.344   5.576 -0.0163  0.3647 -0.1261
  241POPC   C3A 3440   2.836   6.369   6.069  0.3335 -0.0866  0.1036
  241POPC   C4A 3441   2.535   6.432   6.368  0.0907  0.0465 -0.0585
  241POPC   C1B 3442   2.905   6.728   4.767  0.0754 -0.0696 -0.1517
  241POPC   C2B 3443   2.737   7.050   5.070  0.0567  0.2645  0.3071
  241POPC   C3B 3444   2.706   7.128   5.469 -0.2285 -0.3003 -0.2677
  241POPC   C4B 3445   2.771   6.755   5.600 -0.0175 -0.3045  0.0227
  242POPC   NC3 3446   8.078   5.199   4.506 -0.0807 -0.1250  0.0515
  242POPC   PO4 3447   7.799   5.245   4.894 -0.1852  0.0955  0.3321
  242POPC   GL1 3448   7.882   5.284   5.310 -0.0437  0.2047  0.2662
  242POPC   GL2 3449   7.550   5.179   5.431  0.2341  0.1836 -0.1525
  242POPC   C1A 3450   7.890   5.341   5.822 -0.0638 -0.0436  0.0638
  242POPC   D2A 3451   7.678   5.286   6.182 -0.5688  0.1083  0.1880
  242POPC   C3A 3452   7.519   4.820   6.364 -0.3097  0.1184  0.1139
  242POPC   C4A 3453   7.195   4.534   6.389 -0.0564 -0.0256  0.1170
  242POPC   C1B 3454   7.636   4.899   5.902  0.1393  0.1607  0.3601
  242POPC   C2B 3455   7.922   4.732   5.990 -0.0705 -0.3330 -0.0348
  242POPC   C3B 3456   8.170   4.609   6.381  0.0818  0.0707 -0.1081
  242POPC   C4B 3457   8.002   4.547   6.768 -0.1797  0.3396  0.0627
  243POPC   NC3 3458  10.192   7.710   4.970  0.2445 -0.0071  0.0273
  243POPC   PO4 3459   9.984   7.379   5.284 -0.0851  0.0352  0.0597
  243POPC   GL1 3460   9.578   7.355   5.583  0.2897 -0.0470 -0.2175
  243POPC   GL2 3461   9.362   7.673   5.635  0.2407 -0.1396 -0.2511
  243POPC   C1A 3462   9.424   7.356   5.987 -0.1523 -0.1842 -0.0161
  243POPC   D2A 3463   9.576   7.527   6.276  0.3077  0.0178 -0.0199
  243POPC   C3A 3464   9.635   7.475   6.588 -0.1274 -0.2017  0.1787
  243POPC   C4A 3465   9.628   7.469   7.056  0.2492 -0.2779  0.1615
  243POPC   C1B 3466   9.416   7.868   6.002  0.1569 -0.0415 -0.1210
  243POPC   C2B 3467   9.568   8.075   6.331 -0.1008 -0.1043 -0.0224
  243POPC   C3B 3468   9.346   8.418   6.613 -0.2915  0.0249 -0.0405
  243POPC   C4B 3469   9.058   8.333   6.880 -0.0586 -0.0423  0.1205
  244POPC   NC3 3470   2.161   2.922   5.352  0.1929  0.0141  0.1063
  244POPC   PO4 3471   1.802   3.243   5.276  0.0461  0.4441  0.0944
  244POPC   GL1 3472   1.914   3.338   5.761  0.1750 -0.1956  0.1623
  244POPC   GL2 3473   1.632   3.498   5.746  0.3551  0.2208  0.2725
  244POPC   C1A 3474   2.233   3.289   6.061 -0.0582 -0.0497  0.0870
  244POPC   D2A 3475   2.633   3.126   6.172 -0.1071 -0.3624  0.1101
  244POPC   C3A 3476   2.853   3.285   6.511 -0.0674 -0.2097 -0.1135
  244POPC   C4A 3477   2.951   3.342   6.941 -0.1205  0.3684  0.1142
  244POPC   C1B 3478   1.642   3.350   6.181 -0.2560 -0.0533 -0.1811
  244POPC   C2B 3479   1.780   3.267   6.669  0.0922 -0.0841 -0.0698
  244POPC   C3B 3480   2.035   3.256   7.000  0.1398 -0.1719 -0.1154
  244POPC   C4B 3481   2.059   3.362   7.435 -0.1701 -0.3031  0.0693
  245POPC   NC3 3482   6.975   9.023   4.921  0.2206 -0.1089  0.0936
  245POPC   PO4 3483   7.013   9.307   5.203 -0.1730  0.0692 -0.3018
  245POPC   GL1 3484   6.892   9.212   5.726  0.0428  0.1698  0.0814
  245POPC   GL2 3485   6.662   9.308   5.885  0.1089 -0.0314  0.4349
  245POPC   C1A 3486   7.142   9.122   6.162 -0.2256 -0.1073  0.3185
  245POPC   D2A 3487   7.552   8.999   6.268  0.0986  0.1496  0.3208
  245POPC   C3A 3488   7.443   8.854   6.679 -0.1097  0.1305  0.1419
  245POPC   C4A 3489   7.500   8.429   6.809 -0.0967 -0.2607 -0.1337
  245POPC   C1B 3490   6.675   9.080   6.212 -0.1516 -0.0730  0.2104
  245POPC   C2B 3491   6.430   8.790   6.366  0.0303  0.4168 -0.0437
  245POPC   C3B 3492   5.987   8.805   6.331 -0.1909  0.1925 -0.1514
  245POPC   C4B 3493   5.636   8.993   6.423  0.3378 -0.1961 -0.1237
  246POPC   NC3 3494   7.220   2.680   5.039 -0.4046 -0.3212  0.2368
  246POPC   PO4 3495   6.904   2.645   5.343  0.1912 -0.4515 -0.3403
  246POPC   GL1 3496   6.692   2.722   5.699  0.2264  0.2308  0.1824
  246POPC   GL2 3497   6.557   2.415   5.818  0.1691 -0.1864  0.0818
  246POPC   C1A 3498   6.645   2.891   6.059  0.1052  0.3735 -0.3075
  246POPC   D2A 3499   6.690   2.921   6.546 -0.0653 -0.0999 -0.1837
  246POPC   C3A 3500   6.476   3.217   6.767  0.2600 -0.0958  0.1117
  246POPC   C4A 3501   6.251   3.457   7.041  0.1284 -0.0589 -0.0641
  246POPC   C1B 3502   6.574   2.413   6.195 -0.4184 -0.3858  0.0536
  246POPC   C2B 3503   6.490   2.346   6.686  0.0520  0.0610 -0.0876
  246POPC   C3B 3504   6.275   2.431   7.006 -0.2915 -0.1979  0.0945
  246POPC   C4B 3505   6.417   2.586   7.378 -0.0495  0.1352 -0.2254
  247POPC   NC3 3506   6.855  10.134   5.379  0.2106 -0.1188  0.4579
  247POPC   PO4 3507   6.974  10.590   5.330 -0.3414  0.0370  0.0208
  247POPC   GL1 3508   7.041  10.451   5.778 -0.0679  0.2205  0.1277
  247POPC   GL2 3509   7.116  10.103   5.823  0.0905 -0.0475 -0.0133
  247POPC   C1A 3510   6.890  10.650   6.240  0.1364 -0.0184  0.3493
  247POPC   D2A 3511   6.839  10.518   6.618  0.2354  0.1363  0.0540
  247POPC   C3A 3512   7.101  10.421   6.925  0.3918 -0.0081 -0.1388
  247POPC   C4A 3513   7.429  10.159   7.016 -0.0655  0.0988  0.1859
  247POPC   C1B 3514   7.209  10.267   6.244 -0.0562  0.1468  0.0753
  247POPC   C2B 3515   7.461  10.377   6.557 -0.1960  0.0306 -0.3942
  247POPC   C3B 3516   7.802  10.562   6.783  0.0271  0.0303 -0.0677
  247POPC   C4B 3517   8.221  10.686   7.058 -0.0402 -0.0410  0.0698
  248POPC   NC3 3518   4.146   5.698   3.495  0.1503  0.2739  0.2403
  248POPC   PO4 3519   4.513   5.315   3.638  0.2354 -0.0885 -0.3256
  248POPC   GL1 3520   4.576   5.771   3.797  0.1436 -0.2542 -0.1765
  248POPC   GL2 3521   4.934   6.015   3.781 -0.1764  0.4002 -0.1703
  248POPC   C1A 3522   4.471   5.968   4.259 -0.0971  0.0499  0.0784
  248POPC   D2A 3523   4.146   6.137   4.475  0.0748 -0.1439 -0.0473
  248POPC   C3A 3524   4.188   6.056   4.945 -0.3182  0.2155  0.1819
  248POPC   C4A 3525   3.972   5.946   5.281 -0.1129  0.3605 -0.1158
  248POPC   C1B 3526   5.120   6.244   4.050  0.0131  0.0765 -0.0490
  248POPC   C2B 3527   5.386   6.157   4.439 -0.0795 -0.0507  0.0277
  248POPC   C3B 3528   5.436   6.296   4.944  0.0639 -0.0922  0.3851
  248POPC   C4B 3529   5.165   6.263   5.186 -0.1721  0.0528 -0.0323
  249POPC   NC3 3530   3.991   0.298   4.820 -0.0720  0.2407  0.0682
  249POPC   PO4 3531   3.977  -0.055   4.991 -0.3649 -0.0660  0.1904
  249POPC   GL1 3532   3.819  -0.277   5.360  0.0026 -0.1424  0.1359
  249POPC   GL2 3533   3.610  -0.044   5.506  0.1586  0.0644 -0.1624
  249POPC   C1A 3534   3.673  -0.470   5.783 -0.0405 -0.1123  0.2206
  249POPC   D2A 3535   3.769  -0.400   6.184 -0.1605 -0.0545 -0.0699
  249POPC   C3A 3536   3.469  -0.543   6.607 -0.1506 -0.0521  0.2824
  249POPC   C4A 3537   3.233  -0.652   6.909 -0.1146 -0.2293  0.1363
  249POPC   C1B 3538   3.443  -0.009   5.934 -0.0436 -0.0815  0.1352
  249POPC   C2B 3539   3.395  -0.068   6.359  0.0934  0.0333  0.0060
  249POPC   C3B 3540   3.441   0.257   6.747  0.0402 -0.0028  0.1618
  249POPC   C4B 3541   3.452   0.701   6.969  0.1644  0.3049  0.0620
  250POPC   NC3 3542   8.203   0.291   4.965 -0.1172  0.4737  0.0448
  250POPC   PO4 3543   8.297  -0.119   4.954  0.1128  0.5136 -0.1493
  250POPC   GL1 3544   8.067  -0.288   5.361  0.0887 -0.0580 -0.0753
  250POPC   GL2 3545   7.746  -0.267   5.208 -0.0436 -0.3833 -0.1492
  250POPC   C1A 3546   8.101  -0.531   5.803  0.0736  0.1929 -0.0594
  250POPC   D2A 3547   7.839  -0.821   6.156  0.4261 -0.0576  0.1231
  250POPC   C3A 3548   7.876  -0.827   6.606 -0.1699 -0.0054 -0.1524
  250POPC   C4A 3549   7.679  -0.832   6.910  0.0051 -0.2504 -0.1207
  250POPC   C1B 3550   7.623  -0.177   5.670  0.0691  0.1218  0.0825
  250POPC   C2B 3551   7.577  -0.402   6.100  0.2767 -0.0782  0.0665
  250POPC   C3B 3552   7.308  -0.659   6.416 -0.1410 -0.0405  0.2796
  250POPC   C4B 3553   7.191  -0.900   6.711  0.0840  0.1172  0.1196
  251POPC   NC3 3554   6.628   9.478   5.385  0.0751 -0.1928 -0.0536
  251POPC   PO4 3555   6.398   9.853   5.263 -0.0293 -0.0275 -0.3188
  251POPC   GL1 3556   6.136   9.819   5.580 -0.0536 -0.0090 -0.2992
  251POPC   GL2 3557   6.250   9.502   5.733  0.0417 -0.1782 -0.3401
  251POPC   C1A 3558   5.807   9.722   5.693  0.0986  0.1526  0.0724
  251POPC   D2A 3559   5.477   9.759   5.942  0.1572  0.0646 -0.1440
  251POPC   C3A 3560   5.325   9.981   6.322 -0.4800  0.2820 -0.1121
  251POPC   C4A 3561   5.066   9.859   6.690  0.2270 -0.2086  0.2094
  251POPC   C1B 3562   5.941   9.559   6.168 -0.2100  0.1270  0.0462
  251POPC   C2B 3563   5.595   9.540   6.440 -0.1187  0.0214  0.0041
  251POPC   C3B 3564   5.249   9.233   6.674 -0.1387  0.1878  0.0108
  251POPC   C4B 3565   5.189   8.735   6.579  0.3823 -0.1613  0.0648
  252POPC   NC3 3566   2.629   8.806   4.322 -0.2412 -0.0889  0.2046
  252POPC   PO4 3567   2.119   8.845   4.452  0.0803  0.1687 -0.0514
  252POPC   GL1 3568   2.315   8.834   4.925  0.1308  0.1857  0.3050
  252POPC   GL2 3569   2.527   9.149   5.034  0.2637  0.1279  0.0456
  252POPC   C1A 3570   2.561   8.603   5.238  0.2409  0.1729 -0.1445
  252POPC   D2A 3571   2.646   8.407   5.552 -0.0527  0.2375  0.0351
  252POPC   C3A 3572   2.905   8.673   5.897  0.1080  0.2582  0.0492
  252POPC   C4A 3573   2.557   8.831   6.211  0.0930  0.2155  0.0854
  252POPC   C1B 3574   2.286   9.107   5.325  0.2039 -0.0197 -0.2329
  252POPC   C2B 3575   2.193   8.730   5.579  0.2836 -0.0034  0.0779
  252POPC   C3B 3576   2.128   8.613   5.982 -0.0804 -0.1175  0.1579
  252POPC   C4B 3577   2.185   8.649   6.409  0.1726 -0.3586 -0.0949
  253POPC   NC3 3578   3.054   3.660   4.550  0.0606 -0.3087 -0.4039
  253POPC   PO4 3579   3.294   3.461   4.788 -0.1686  0.1082  0.1835
  253POPC   GL1 3580   3.503   3.532   5.164 -0.0809  0.1091 -0.2614
  253POPC   GL2 3581   3.920   3.635   5.216  0.2359 -0.1714 -0.0002
  253POPC   C1A 3582   3.454   3.399   5.627  0.0864  0.0742  0.0444
  253POPC   D2A 3583   3.573   3.664   5.998  0.2129  0.1965 -0.0944
  253POPC   C3A 3584   3.410   4.117   6.075 -0.0566  0.0549  0.0932
  253POPC   C4A 3585   3.214   4.407   6.249  0.0427 -0.1548  0.1767
  253POPC   C1B 3586   3.729   3.825   5.550  0.0905  0.0938  0.2727
  253POPC   C2B 3587   3.659   4.285   5.644 -0.0429  0.2924 -0.2181
  253POPC   C3B 3588   3.548   4.663   5.853 -0.1523 -0.2314 -0.1590
  253POPC   C4B 3589   3.423   4.910   6.246  0.0770 -0.1936 -0.1112
  254POPC   NC3 3590   9.754   3.237   4.574  0.1137  0.1609 -0.1250
  254POPC   PO4 3591   9.561   3.212   5.013 -0.1336 -0.0182 -0.1421
  254POPC   GL1 3592   9.851   3.057   5.387  0.1138  0.1837 -0.1289
  254POPC   GL2 3593   9.677   3.192   5.649  0.1593 -0.1683 -0.0425
  254POPC   C1A 3594  10.125   2.904   5.668 -0.0020  0.1005  0.0818
  254POPC   D2A 3595  10.361   2.641   5.905 -0.0118  0.2536  0.3068
  254POPC   C3A 3596  10.276   2.329   6.238 -0.0234 -0.3727  0.2231
  254POPC   C4A 3597  10.428   2.263   6.677  0.0601  0.0673 -0.0515
  254POPC   C1B 3598   9.376   2.912   6.066  0.1967 -0.1192  0.0936
  254POPC   C2B 3599   9.098   2.781   6.408 -0.3672 -0.2954  0.0134
  254POPC   C3B 3600   9.041   2.694   6.866 -0.0455 -0.1280  0.1186
  254POPC   C4B 3601   9.294   2.595   7.234 -0.2573  0.0227  0.1426
  255POPC   NC3 3602   8.457   9.372   4.586 -0.0391 -0.0774 -0.2155
  255POPC   PO4 3603   8.270   8.998   4.770  0.1653  0.2315  0.1055
  255POPC   GL1 3604   8.325   9.115   5.167  0.2407  0.0462  0.1936
  255POPC   GL2 3605   8.142   9.011   5.389 -0.1171 -0.0647 -0.0957
  255POPC   C1A 3606   8.456   9.338   5.545  0.5404  0.0096  0.1175
  255POPC   D2A 3607   8.829   9.507   5.748  0.2946 -0.2192  0.1437
  255POPC   C3A 3608   9.096   9.416   6.059 -0.1090  0.0421 -0.0141
  255POPC   C4A 3609   9.409   9.454   6.242 -0.2638 -0.0068 -0.2503
  255POPC   C1B 3610   8.142   8.991   5.868  0.0042  0.0374 -0.1617
  255POPC   C2B 3611   8.188   9.072   6.347  0.0051 -0.0305  0.1823
  255POPC   C3B 3612   8.289   9.513   6.579 -0.1861  0.0005 -0.2523
  255POPC   C4B 3613   8.221   9.690   7.031  0.3856  0.1911  0.3128
  256POPC   NC3 3614   0.684   3.020   5.138  0.0876  0.1975  0.1627
  256POPC   PO4 3615   0.530   3.476   5.401  0.2740 -0.2717  0.0307
  256POPC   GL1 3616   0.174   3.389   5.692  0.4164 -0.0211 -0.1830
  256POPC   GL2 3617  -0.124   3.502   5.552 -0.1278  0.0451  0.0279
  256POPC   C1A 3618   0.103   3.167   6.099 -0.1111  0.1885 -0.0137
  256POPC   D2A 3619  -0.137   3.239   6.525  0.0114  0.2294  0.2634
  256POPC   C3A 3620  -0.185   2.852   6.875 -0.2269 -0.0783 -0.2604
  256POPC   C4A 3621  -0.411   2.670   7.042  0.0660 -0.4218 -0.0014
  256POPC   C1B 3622  -0.239   3.486   5.981  0.1064  0.3300  0.0668
  256POPC   C2B 3623  -0.572   3.327   6.224 -0.0365  0.1493  0.1223
  256POPC   C3B 3624  -0.752   3.213   6.611  0.0273 -0.1788  0.3725
  256POPC   C4B 3625  -0.726   2.979   6.914 -0.2778 -0.2969 -0.2211
  257POPC   NC3 3626   1.628   0.907   4.938 -0.0381 -0.0170 -0.0313
  257POPC   PO4 3627   2.131   0.859   5.041  0.2419  0.1761 -0.1822
  257POPC   GL1 3628   2.186   0.878   5.411  0.1614 -0.0396 -0.4055
  257POPC   GL2 3629   2.456   0.625   5.403 -0.0171 -0.0067 -0.1211
  257POPC   C1A 3630   2.047   0.804   5.750  0.0348  0.1548 -0.1271
  257POPC   D2A 3631   1.966   0.964   6.091 -0.0643  0.1745  0.1583
  257POPC   C3A 3632   2.148   1.155   6.346 -0.1847 -0.4079 -0.1061
  257POPC   C4A 3633   2.630   1.060   6.400 -0.0169 -0.0447  0.0564
  257POPC   C1B 3634   2.537   0.342   5.699  0.1044  0.0701 -0.1705
  257POPC   C2B 3635   2.748   0.456   6.111 -0.2098  0.1069  0.1755
  257POPC   C3B 3636   3.021   0.326   6.460  0.0592  0.1857  0.0720
  257POPC   C4B 3637   2.943   0.334   6.844 -0.3159  0.1028  0.2045
  258POPC   NC3 3638   1.667   5.457   5.175  0.2898 -0.0957 -0.1457
  258POPC   PO4 3639   1.829   5.320   4.880 -0.1805  0.0374  0.0502
  258POPC   GL1 3640   2.179   5.147   5.201 -0.1455  0.2119 -0.0641
  258POPC   GL2 3641   2.059   5.083   5.455 -0.0511  0.0183  0.0941
  258POPC   C1A 3642   2.586   5.322   5.353  0.3964  0.1391  0.2105
  258POPC   D2A 3643   2.772   5.727   5.692 -0.2020 -0.0736 -0.1515
  258POPC   C3A 3644   3.139   5.804   5.869 -0.0565 -0.1403 -0.2237
  258POPC   C4A 3645   3.441   5.975   6.142 -0.2939 -0.0882 -0.0927
  258POPC   C1B 3646   2.383   5.029   5.703  0.0170 -0.2574  0.0129
  258POPC   C2B 3647   2.408   5.012   6.252 -0.1291  0.1219 -0.2341
  258POPC   C3B 3648   2.275   4.870   6.613 -0.4577  0.1349  0.0632
  258POPC   C4B 3649   2.020   4.586   6.765 -0.0674  0.1131  0.2393
  259POPC   NC3 3650   8.994   1.272   5.500  0.2847  0.0570 -0.0334
  259POPC   PO4 3651   8.865   0.878   5.494  0.0369  0.3301 -0.0560
  259POPC   GL1 3652   8.961   1.001   5.887  0.2914  0.3036  0.0792
  259POPC   GL2 3653   9.029   0.662   6.016 -0.0344  0.0350  0.2330
  259POPC   C1A 3654   8.896   0.998   6.367  0.1843  0.2002 -0.3636
  259POPC   D2A 3655   8.971   0.611   6.661 -0.1334 -0.0367  0.5643
  259POPC   C3A 3656   9.336   0.599   6.904  0.1209  0.1339  0.2241
  259POPC   C4A 3657   9.664   0.276   7.188 -0.0653  0.0582  0.0791
  259POPC   C1B 3658   9.330   0.458   6.291 -0.0538 -0.0176 -0.2225
  259POPC   C2B 3659   9.776   0.477   6.380 -0.0765  0.1714  0.0359
  259POPC   C3B 3660  10.198   0.341   6.253 -0.1728  0.0597 -0.0560
  259POPC   C4B 3661  10.380   0.247   5.974  0.1641  0.0457  0.0396
  260POPC   NC3 3662   4.394   9.730   4.860  0.1118 -0.2751 -0.0640
  260POPC   PO4 3663   4.442   9.366   4.499 -0.0037  0.1392 -0.1576
  260POPC   GL1 3664   4.222   9.085   4.738 -0.1832 -0.1130  0.0382
  260POPC   GL2 3665   4.030   8.825   4.584  0.3372 -0.1256 -0.0256
  260POPC   C1A 3666   4.242   9.038   5.139 -0.1824  0.2239  0.0530
  260POPC   D2A 3667   4.371   8.636   5.286  0.0245 -0.2310  0.1804
  260POPC   C3A 3668   4.532   8.399   5.575  0.1210  0.0678  0.2135
  260POPC   C4A 3669   4.502   8.252   6.003  0.1804  0.1734  0.0269
  260POPC   C1B 3670   3.874   8.658   5.030  0.1240 -0.1668 -0.1062
  260POPC   C2B 3671   3.746   8.483   5.437  0.0390 -0.3022 -0.3058
  260POPC   C3B 3672   3.674   8.483   5.809  0.1400 -0.2100  0.3406
  260POPC   C4B 3673   3.380   8.460   5.974 -0.0935 -0.1584 -0.1486
  261POPC   NC3 3674  10.139   4.869   4.703 -0.0542 -0.0867 -0.1251
  261POPC   PO4 3675  10.276   4.976   5.168  0.0662 -0.1157  0.0537
  261POPC   GL1 3676  10.230   4.716   5.582 -0.0506  0.1399  0.2859
  261POPC   GL2 3677   9.994   4.533   5.720  0.0699 -0.0666  0.2027
  261POPC   C1A 3678  10.268   4.905   6.039  0.0194 -0.0955 -0.1109
  261POPC   D2A 3679  10.591   4.967   6.305 -0.1637 -0.1761  0.3770
  261POPC   C3A 3680  10.641   4.835   6.767 -0.0228 -0.1431 -0.1121
  261POPC   C4A 3681  10.435   4.743   7.179  0.1081  0.1666  0.1434
  261POPC   C1B 3682  10.034   4.430   6.111 -0.0276  0.1939  0.2163
  261POPC   C2B 3683  10.046   4.140   6.390 -0.0176 -0.0446  0.0904
  261POPC   C3B 3684  10.167   3.741   6.390 -0.1043 -0.0337  0.0679
  261POPC   C4B 3685  10.473   3.488   6.565  0.0639  0.3043  0.2835
  262POPC   NC3 3686   6.460   7.761   3.524  0.3159 -0.1471 -0.0028
  262POPC   PO4 3687   6.191   7.887   3.814 -0.1865 -0.0845 -0.2786
  262POPC   GL1 3688   6.210   7.793   4.240 -0.2594 -0.0092 -0.0606
  262POPC   GL2 3689   6.390   7.851   4.567  0.1271  0.1030  0.0396
  262POPC   C1A 3690   6.038   7.485   4.537 -0.0950 -0.0372  0.0942
  262POPC   D2A 3691   6.012   7.372   4.996  0.3323 -0.1677  0.1682
  262POPC   C3A 3692   5.587   7.175   5.037 -0.2504 -0.2709 -0.4358
  262POPC   C4A 3693   5.219   6.847   5.083  0.1418 -0.4694  0.1196
  262POPC   C1B 3694   6.356   7.701   5.028  0.0028  0.0179 -0.1377
  262POPC   C2B 3695   6.272   7.587   5.507  0.2156  0.0180 -0.0434
  262POPC   C3B 3696   6.135   7.696   5.961  0.1112 -0.0236  0.3989
  262POPC   C4B 3697   6.148   7.874   6.321 -0.0771 -0.0039  0.1757
  263POPC   NC3 3698   9.330   0.676   5.389  0.0422  0.1134  0.0250
  263POPC   PO4 3699   9.452   1.074   5.487  0.1371  0.1652  0.1629
  263POPC   GL1 3700   9.468   1.010   5.849  0.1786  0.0410  0.0672
  263POPC   GL2 3701   9.513   0.733   5.866 -0.1425 -0.2291  0.0648
  263POPC   C1A 3702   9.516   0.931   6.338 -0.0650 -0.4369 -0.1334
  263POPC   D2A 3703   9.595   1.019   6.689  0.1136  0.0004  0.0383
  263POPC   C3A 3704   9.406   1.202   7.028 -0.1481  0.2041 -0.4532
  263POPC   C4A 3705   9.182   1.577   7.242  0.2523  0.3403 -0.1496
  263POPC   C1B 3706   9.899   0.796   5.971  0.0668  0.3758 -0.0761
  263POPC   C2B 3707  10.102   0.829   6.451 -0.1318 -0.0961 -0.2162
  263POPC   C3B 3708  10.340   0.472   6.696  0.2308 -0.1064 -0.0016
  263POPC   C4B 3709  10.306   0.463   7.139  0.0968  0.0864 -0.1122
  264POPC   NC3 3710   6.792   6.067   4.101 -0.1712 -0.0280  0.3289
  264POPC   PO4 3711   7.022   6.388   4.258 -0.4526  0.3555 -0.2801
  264POPC   GL1 3712   7.028   6.472   4.743  0.3306  0.1183  0.1040
  264POPC   GL2 3713   7.255   6.643   4.870 -0.0307 -0.0033  0.0479
  264POPC   C1A 3714   6.807   6.733   5.113 -0.0749  0.1439  0.3027
  264POPC   D2A 3715   6.679   7.184   5.091 -0.3677 -0.0669 -0.1691
  264POPC   C3A 3716   6.445   7.300   4.695 -0.1696  0.2404  0.1878
  264POPC   C4A 3717   6.531   7.296   4.296 -0.0271 -0.1045 -0.0225
  264POPC   C1B 3718   7.253   6.730   5.284  0.0253  0.0428 -0.2644
  264POPC   C2B 3719   7.030   6.749   5.666  0.1968  0.1753  0.0279
  264POPC   C3B 3720   6.639   6.618   5.740  0.3289  0.4207 -0.0166
  264POPC   C4B 3721   6.223   6.824   5.878 -0.4231  0.2989  0.1658
  265POPC   NC3 3722   3.456   2.140   5.220  0.0040 -0.0008 -0.2614
  265POPC   PO4 3723   3.299   2.571   5.146 -0.2604  0.1251  0.2219
  265POPC   GL1 3724   3.591   2.703   5.497  0.0627  0.1343  0.2852
  265POPC   GL2 3725   3.341   2.604   5.672 -0.1159 -0.1334 -0.2996
  265POPC   C1A 3726   3.782   2.649   5.868 -0.0925  0.0030 -0.4565
  265POPC   D2A 3727   4.129   2.724   6.302 -0.1274 -0.4186  0.0687
  265POPC   C3A 3728   4.032   2.819   6.788 -0.0099 -0.1128 -0.4086
  265POPC   C4A 3729   3.722   2.810   7.082  0.0764 -0.3997 -0.2121
  265POPC   C1B 3730   3.438   2.998   5.886 -0.0413 -0.2269  0.0126
  265POPC   C2B 3731   3.792   3.211   6.210 -0.1523  0.1023 -0.0132
  265POPC   C3B 3732   3.810   3.301   6.699  0.2669 -0.3671  0.0539
  265POPC   C4B 3733   4.103   3.275   7.111  0.2910 -0.1154  0.1841
  266POPC   NC3 3734   1.622   3.994   4.850 -0.1360  0.0224  0.1221
  266POPC   PO4 3735   1.832   3.775   5.285  0.2827  0.1857 -0.1286
  266POPC   GL1 3736   2.153   3.860   5.571 -0.1735 -0.0393 -0.0834
  266POPC   GL2 3737   2.158   3.757   5.844 -0.1377 -0.0238 -0.2168
  266POPC   C1A 3738   2.393   4.169   5.768 -0.1639 -0.0361 -0.0366
  266POPC   D2A 3739   2.560   4.549   5.899 -0.2031 -0.1392 -0.2560
  266POPC   C3A 3740   2.758   4.690   6.274 -0.2332  0.2571 -0.3641
  266POPC   C4A 3741   2.795   4.576   6.729 -0.0227 -0.1030 -0.0938
  266POPC   C1B 3742   1.952   3.721   6.265  0.0085  0.1488  0.0772
  266POPC   C2B 3743   1.974   3.732   6.598 -0.3039  0.1282 -0.1242
  266POPC   C3B 3744   1.800   3.703   7.026 -0.4087  0.2762 -0.0121
  266POPC   C4B 3745   1.454   3.544   7.378  0.1273 -0.1201  0.0268
  267POPC   NC3 3746   7.791   9.763   4.753 -0.2161  0.1497 -0.0863
  267POPC   PO4 3747   7.398   9.583   4.957 -0.1142  0.3257 -0.3115
  267POPC   GL1 3748   7.536   9.464   5.351  0.0283 -0.2105  0.0868
  267POPC   GL2 3749   7.867   9.456   5.447 -0.3018 -0.0408 -0.2004
  267POPC   C1A 3750   7.337   9.432   5.764  0.2513 -0.0589 -0.2495
  267POPC   D2A 3751   7.029   9.622   6.042 -0.2816  0.0382 -0.3141
  267POPC   C3A 3752   6.832   9.503   6.468  0.1202  0.1186 -0.2137
  267POPC   C4A 3753   6.793   9.414   6.969 -0.2373 -0.4494 -0.1271
  267POPC   C1B 3754   7.731   9.091   5.634 -0.0729 -0.0773 -0.2827
  267POPC   C2B 3755   7.388   8.803   5.853 -0.0325 -0.0868 -0.0687
  267POPC   C3B 3756   6.931   8.684   5.924  0.1322 -0.0173 -0.1772
  267POPC   C4B 3757   6.466   8.689   5.861  0.0424 -0.1424  0.1684
  268POPC   NC3 3758   8.687   0.380   5.751  0.0841  0.1406 -0.0659
  268POPC   PO4 3759   9.179   0.279   5.714 -0.0082 -0.1329 -0.3418
  268POPC   GL1 3760   9.155   0.028   6.065 -0.1539 -0.0589 -0.1033
  268POPC   GL2 3761   8.920   0.148   6.236 -0.1839 -0.0784 -0.4568
  268POPC   C1A 3762   9.365  -0.173   6.363 -0.2134 -0.1985  0.1648
  268POPC   D2A 3763   9.459   0.110   6.735 -0.0232  0.0738  0.4272
  268POPC   C3A 3764   9.189   0.069   7.092  0.4104  0.1172 -0.2154
  268POPC   C4A 3765   8.854   0.096   7.412  0.3033  0.2097  0.1241
  268POPC   C1B 3766   8.978   0.070   6.636 -0.1420  0.3105 -0.2045
  268POPC   C2B 3767   9.165  -0.377   6.771 -0.0431  0.0235  0.1848
  268POPC   C3B 3768   9.193  -0.810   7.005 -0.1907  0.2037  0.0864
  268POPC   C4B 3769   9.367  -1.131   7.319 -0.1057  0.0156  0.1047
  269POPC   NC3 3770   0.238   9.840   5.362  0.1506 -0.1108  0.0181
  269POPC   PO4 3771   0.393  10.147   5.121  0.1653 -0.1708 -0.2503
  269POPC   GL1 3772   0.481  10.240   5.590 -0.0369 -0.1704 -0.0887
  269POPC   GL2 3773   0.678  10.535   5.702 -0.0333 -0.2622  0.0262
  269POPC   C1A 3774   0.553  10.110   6.073 -0.2167 -0.2758 -0.0401
  269POPC   D2A 3775   0.495   9.775   6.321 -0.1079 -0.0243  0.2079
  269POPC   C3A 3776   0.879   9.577   6.644 -0.3176  0.0029 -0.2608
  269POPC   C4A 3777   1.121   9.136   6.629  0.0402 -0.0177 -0.0172
  269POPC   C1B 3778   0.660  10.722   6.040  0.0709 -0.0577 -0.3038
  269POPC   C2B 3779   0.560  10.552   6.436 -0.2044 -0.2275  0.1867
  269POPC   C3B 3780   0.234  10.181   6.471 -0.2199 -0.2157  0.2016
  269POPC   C4B 3781   0.047   9.908   6.155  0.0624  0.1163 -0.0274
  270POPC   NC3 3782   8.795   2.655   5.607  0.2690  0.0823 -0.1235
  270POPC   PO4 3783   8.759   3.094   5.329 -0.0458 -0.0701  0.0334
  270POPC   GL1 3784   8.679   3.070   5.823 -0.4772 -0.0944  0.2522
  270POPC   GL2 3785   8.722   2.816   6.055  0.0318  0.1555 -0.1953
  270POPC   C1A 3786   8.463   3.289   6.194 -0.0522 -0.2278  0.2017
  270POPC   D2A 3787   8.290   3.240   6.581 -0.3541  0.0713  0.1830
  270POPC   C3A 3788   7.980   3.526   6.594 -0.0215 -0.4253  0.0331
  270POPC   C4A 3789   7.636   3.647   6.705 -0.0379  0.0102  0.0062
  270POPC   C1B 3790   8.637   2.903   6.586  0.0756 -0.0691  0.0045
  270POPC   C2B 3791   8.504   3.050   6.989 -0.0934 -0.2287  0.2607
  270POPC   C3B 3792   8.124   3.204   7.085 -0.0308  0.0436  0.1603
  270POPC   C4B 3793   7.865   3.548   7.111 -0.0652  0.1325  0.1250
  271POPC   NC3 3794   7.124   3.538   4.654  0.0864 -0.0369 -0.0141
  271POPC   PO4 3795   7.121   3.531   5.161  0.1323 -0.3993 -0.1738
  271POPC   GL1 3796   7.050   3.559   5.429  0.0892  0.3521 -0.1474
  271POPC   GL2 3797   6.734   3.676   5.521  0.1743 -0.0732 -0.0767
  271POPC   C1A 3798   6.859   3.317   5.907  0.0834  0.0998  0.1459
  271POPC   D2A 3799   6.715   3.427   6.372 -0.1404 -0.3577 -0.1530
  271POPC   C3A 3800   6.996   3.382   6.635  0.2623  0.1835 -0.0837
  271POPC   C4A 3801   7.092   3.059   6.863  0.0589 -0.2094 -0.2728
  271POPC   C1B 3802   6.790   3.785   5.868 -0.3404  0.0555  0.1104
  271POPC   C2B 3803   6.392   3.930   6.162 -0.3950 -0.0676 -0.1883
  271POPC   C3B 3804   5.969   4.104   6.139  0.0075 -0.1738 -0.0514
  271POPC   C4B 3805   5.651   4.207   6.462 -0.3263 -0.0197 -0.1561
  272POPC   NC3 3806   0.117   6.360   5.266 -0.0739 -0.0305 -0.3371
  272POPC   PO4 3807   0.004   6.025   5.565  0.0911  0.2520  0.1134
  272POPC   GL1 3808   0.092   6.116   5.990  0.1221  0.1963  0.0588
  272POPC   GL2 3809   0.360   5.919   6.038 -0.3735  0.1084 -0.4286
  272POPC   C1A 3810  -0.030   6.190   6.431  0.1370 -0.0213 -0.2780
  272POPC   D2A 3811  -0.296   6.085   6.748  0.1098  0.3434  0.0164
  272POPC   C3A 3812  -0.424   5.761   6.963 -0.2631  0.0320  0.1824
  272POPC   C4A 3813  -0.449   5.685   7.345 -0.1858 -0.1118  0.1172
  272POPC   C1B 3814   0.527   6.116   6.415  0.1376  0.0099 -0.4676
  272POPC   C2B 3815   0.827   6.025   6.670  0.0860 -0.1695 -0.0313
  272POPC   C3B 3816   0.656   5.709   6.902 -0.0422 -0.1738 -0.0185
  272POPC   C4B 3817   0.550   5.589   7.332  0.1014 -0.1161  0.0429
  273POPC   NC3 3818   0.581   0.497   4.795 -0.0916 -0.2393  0.2421
  273POPC   PO4 3819   0.655   0.901   4.809  0.2334  0.4363  0.0590
  273POPC   GL1 3820   0.766   0.811   5.284 -0.2354 -0.0258  0.0520
  273POPC   GL2 3821   0.531   0.819   5.569  0.0614 -0.0459 -0.3261
  273POPC   C1A 3822   1.108   0.706   5.570 -0.1265 -0.0900  0.1044
  273POPC   D2A 3823   1.203   0.322   5.837  0.3097  0.3526  0.2296
  273POPC   C3A 3824   1.132   0.389   6.255 -0.1536 -0.0415 -0.0010
  273POPC   C4A 3825   1.340   0.594   6.692  0.2362  0.1088 -0.0348
  273POPC   C1B 3826   0.689   1.056   5.766 -0.0938  0.4072 -0.0438
  273POPC   C2B 3827   0.948   0.900   6.149  0.0631 -0.0472  0.2495
  273POPC   C3B 3828   0.872   0.760   6.501 -0.0685  0.2343 -0.0606
  273POPC   C4B 3829   0.731   0.573   6.879 -0.1606  0.2296 -0.1283
  274POPC   NC3 3830   9.449   4.402   4.965 -0.0783 -0.0273  0.0371
  274POPC   PO4 3831   9.243   3.986   5.130 -0.2017  0.0847 -0.1125
  274POPC   GL1 3832   9.239   3.882   5.690 -0.2711  0.1314 -0.0419
  274POPC   GL2 3833   9.498   3.707   5.793 -0.1316 -0.1489  0.0660
  274POPC   C1A 3834   9.184   3.851   6.143 -0.1912 -0.2245  0.1837
  274POPC   D2A 3835   9.138   3.651   6.589  0.3371  0.0183  0.2691
  274POPC   C3A 3836   9.391   3.484   6.994  0.1770  0.0380  0.0158
  274POPC   C4A 3837   9.820   3.366   7.137  0.1063  0.0331  0.0235
  274POPC   C1B 3838   9.182   3.350   6.017  0.1535 -0.0548  0.0787
  274POPC   C2B 3839   8.938   3.287   6.303  0.0926  0.0399 -0.1099
  274POPC   C3B 3840   8.970   3.239   6.764 -0.2467  0.1220  0.2278
  274POPC   C4B 3841   8.977   3.087   7.233 -0.0012  0.0325 -0.1833
  275POPC   NC3 3842   2.544   9.808   4.882 -0.0754 -0.2940 -0.0159
  275POPC   PO4 3843   2.933   9.668   4.610 -0.2859  0.0314 -0.1726
  275POPC   GL1 3844   3.012   9.454   4.933 -0.1244 -0.4091  0.4519
  275POPC   GL2 3845   3.381   9.418   4.916 -0.2059  0.0002  0.0551
  275POPC   C1A 3846   3.057   9.241   5.233 -0.1666  0.0696  0.1172
  275POPC   D2A 3847   3.211   9.311   5.669 -0.0054 -0.1806 -0.1709
  275POPC   C3A 3848   3.230   8.984   6.160  0.2361  0.2247 -0.2018
  275POPC   C4A 3849   3.122   8.722   6.431 -0.2793  0.2853  0.2074
  275POPC   C1B 3850   3.774   9.482   5.084 -0.2052 -0.2414 -0.0771
  275POPC   C2B 3851   4.076   9.438   5.335 -0.1414  0.0492  0.0156
  275POPC   C3B 3852   4.219   9.590   5.723 -0.0395  0.1056  0.0848
  275POPC   C4B 3853   4.153   9.469   6.123  0.0489 -0.3269  0.0202
  276POPC   NC3 3854   7.370   4.509   4.593  0.0539  0.1133 -0.0358
  276POPC   PO4 3855   6.982   4.545   4.843 -0.2064  0.2301  0.0309
  276POPC   GL1 3856   6.786   4.598   5.225 -0.1696  0.2454  0.3588
  276POPC   GL2 3857   6.481   4.535   5.202 -0.0767  0.0737  0.1500
  276POPC   C1A 3858   6.706   4.653   5.667  0.0094  0.0854 -0.3689
  276POPC   D2A 3859   6.428   4.863   5.900 -0.0370 -0.2362 -0.3166
  276POPC   C3A 3860   5.901   4.779   5.904  0.0670  0.0339  0.2084
  276POPC   C4A 3861   5.739   4.978   6.320 -0.1592 -0.0272  0.2593
  276POPC   C1B 3862   6.462   4.978   5.356  0.1882  0.1906  0.0735
  276POPC   C2B 3863   6.140   5.149   5.589 -0.1520 -0.0294  0.0908
  276POPC   C3B 3864   5.927   5.341   5.875  0.1707 -0.0412 -0.1474
  276POPC   C4B 3865   5.474   5.480   6.099 -0.0884  0.0468 -0.0729
  277POPC   NC3 3866   7.254   0.900   5.551  0.0595 -0.0981 -0.1477
  277POPC   PO4 3867   7.052   1.245   5.601 -0.2469 -0.0414  0.1245
  277POPC   GL1 3868   7.323   1.246   6.079 -0.0058  0.2537  0.0214
  277POPC   GL2 3869   7.603   1.318   6.082  0.0126 -0.0437 -0.1864
  277POPC   C1A 3870   7.248   1.349   6.523  0.0241  0.1373 -0.3057
  277POPC   D2A 3871   7.162   1.258   6.947  0.1345 -0.1914  0.0120
  277POPC   C3A 3872   6.790   1.103   7.235 -0.3941 -0.1861  0.0691
  277POPC   C4A 3873   6.643   0.966   7.658  0.4512 -0.3790 -0.2728
  277POPC   C1B 3874   8.067   1.287   6.435 -0.2922 -0.0844  0.0506
  277POPC   C2B 3875   8.406   1.154   6.522  0.0133 -0.2096  0.0957
  277POPC   C3B 3876   8.617   0.872   6.878 -0.0900  0.2452  0.1758
  277POPC   C4B 3877   8.761   0.347   7.029 -0.0962 -0.0296  0.0368
  278POPC   NC3 3878   0.156   2.498   4.795 -0.1377 -0.0418 -0.0116
  278POPC   PO4 3879   0.331   2.626   5.183  0.3016 -0.1570 -0.2742
  278POPC   GL1 3880   0.597   2.769   5.591 -0.0416 -0.1345  0.1087
  278POPC   GL2 3881   0.474   3.030   5.593 -0.0770 -0.2426 -0.2261
  278POPC   C1A 3882   0.715   2.563   5.968  0.2365 -0.0635  0.0826
  278POPC   D2A 3883   0.612   2.386   6.203 -0.0018  0.0382 -0.0556
  278POPC   C3A 3884   0.632   2.599   6.545  0.2407  0.0373 -0.1346
  278POPC   C4A 3885   0.671   2.388   6.950 -0.3004 -0.0742  0.3014
  278POPC   C1B 3886   0.635   3.073   5.999 -0.3771 -0.0252 -0.1460
  278POPC   C2B 3887   0.741   3.100   6.287  0.1706 -0.1428  0.0526
  278POPC   C3B 3888   0.807   3.161   6.743  0.0824 -0.0686 -0.0462
  278POPC   C4B 3889   0.476   3.383   7.006 -0.0783  0.0702 -0.0049
  279POPC   NC3 3890   3.428   9.823   4.602 -0.1329  0.2475  0.4737
  279POPC   PO4 3891   3.170  10.224   4.655  0.1821 -0.0374  0.3079
  279POPC   GL1 3892   3.213  10.001   5.029  0.0330  0.0919 -0.0191
  279POPC   GL2 3893   2.988   9.917   5.274  0.1920 -0.3335  0.1918
  279POPC   C1A 3894   3.392   9.693   5.360  0.1441 -0.0542  0.2727
  279POPC   D2A 3895   3.175   9.841   5.769  0.2565  0.0918 -0.2842
  279POPC   C3A 3896   3.240   9.526   6.153  0.0075  0.0395  0.1656
  279POPC   C4A 3897   3.633   9.284   6.279 -0.1977 -0.0009 -0.0850
  279POPC   C1B 3898   2.894  10.254   5.492  0.0798  0.2006 -0.5066
  279POPC   C2B 3899   3.092  10.520   5.758 -0.1289  0.1574 -0.2479
  279POPC   C3B 3900   3.330  10.674   6.095  0.3625  0.3758 -0.2031
  279POPC   C4B 3901   3.571  10.807   6.437 -0.2165  0.0574  0.2517
  280POPC   NC3 3902   5.172   1.909   4.982  0.0826 -0.0482 -0.0267
  280POPC   PO4 3903   5.530   1.640   5.135 -0.0291 -0.0485 -0.0448
  280POPC   GL1 3904   5.386   1.424   5.555  0.1721  0.0758  0.0167
  280POPC   GL2 3905   5.637   1.283   5.636  0.1374  0.1603 -0.1328
  280POPC   C1A 3906   5.258   1.463   5.966  0.0279 -0.1020 -0.1498
  280POPC   D2A 3907   5.422   1.211   6.361 -0.1313  0.1798 -0.1270
  280POPC   C3A 3908   5.250   1.289   6.873 -0.0155  0.3894 -0.1202
  280POPC   C4A 3909   5.193   1.713   7.176  0.0485 -0.0546 -0.3147
  280POPC   C1B 3910   5.618   1.153   5.964 -0.0423 -0.0168 -0.0783
  280POPC   C2B 3911   5.918   1.188   6.313  0.0265 -0.0676  0.0027
  280POPC   C3B 3912   6.242   1.083   6.535  0.0026 -0.0312  0.2378
  280POPC   C4B 3913   6.445   0.769   6.839  0.2328 -0.3103 -0.1577
  281POPC   NC3 3914   1.854  10.042   4.434 -0.0158  0.2612 -0.0653
  281POPC   PO4 3915   2.139  10.213   4.760 -0.0180  0.0028 -0.5363
  281POPC   GL1 3916   2.111  10.440   5.081 -0.0419 -0.2191 -0.0351
  281POPC   GL2 3917   1.847  10.582   5.129  0.0716 -0.2571  0.0940
  281POPC   C1A 3918   2.015  10.528   5.551  0.1003 -0.1589  0.0243
  281POPC   D2A 3919   2.124  10.596   6.021  0.0320  0.0915 -0.0947
  281POPC   C3A 3920   1.789  10.693   6.409 -0.0474  0.1358 -0.0565
  281POPC   C4A 3921   1.787  10.589   6.796 -0.0534  0.1267  0.0872
  281POPC   C1B 3922   1.603  10.750   5.577 -0.2440 -0.0001  0.0480
  281POPC   C2B 3923   1.519  10.886   6.047  0.0873 -0.0482 -0.0915
  281POPC   C3B 3924   1.517  11.098   6.352 -0.2833  0.0862  0.0227
  281POPC   C4B 3925   1.794  11.081   6.691 -0.1115 -0.0880 -0.4185
  282POPC   NC3 3926   9.487   4.775   5.594 -0.3416 -0.0959  0.0481
  282POPC   PO4 3927   9.472   5.224   5.586  0.5014  0.0256  0.1703
  282POPC   GL1 3928   9.458   5.290   6.012  0.0744 -0.0649  0.1728
  282POPC   GL2 3929   9.835   5.233   6.100  0.1052 -0.2054  0.0886
  282POPC   C1A 3930   9.263   5.056   6.324 -0.1063  0.2520  0.3841
  282POPC   D2A 3931   9.060   4.991   6.537  0.0592 -0.0460 -0.1550
  282POPC   C3A 3932   9.062   4.983   7.022 -0.2120 -0.2870  0.1436
  282POPC   C4A 3933   9.161   4.923   7.467  0.0754  0.3562 -0.0429
  282POPC   C1B 3934   9.679   5.278   6.559  0.2563 -0.1055 -0.0475
  282POPC   C2B 3935   9.512   4.955   6.846 -0.2139  0.1631 -0.0210
  282POPC   C3B 3936   9.413   4.633   7.065 -0.0757 -0.0429 -0.1827
  282POPC   C4B 3937   9.183   4.409   7.373  0.1690 -0.0374  0.0700
  283POPC   NC3 3938   4.374   2.367   5.063 -0.1010  0.0544  0.2838
  283POPC   PO4 3939   4.283   2.760   5.029 -0.1024  0.1064 -0.1233
  283POPC   GL1 3940   4.228   2.642   5.481 -0.0507 -0.0871  0.0308
  283POPC   GL2 3941   4.304   2.290   5.561  0.0406  0.0728  0.2468
  283POPC   C1A 3942   4.437   2.573   5.916 -0.1314 -0.2605 -0.1486
  283POPC   D2A 3943   4.612   2.795   6.245 -0.3701 -0.1096 -0.1551
  283POPC   C3A 3944   4.460   2.642   6.655 -0.1597  0.0205  0.3042
  283POPC   C4A 3945   4.623   2.419   7.055 -0.2052 -0.0742 -0.1362
  283POPC   C1B 3946   4.428   2.097   5.939  0.2170 -0.0882 -0.0131
  283POPC   C2B 3947   4.255   1.843   6.329 -0.0241  0.2908 -0.2926
  283POPC   C3B 3948   4.101   1.606   6.721 -0.1928 -0.1269  0.1401
  283POPC   C4B 3949   3.910   1.249   7.017  0.0359 -0.0468  0.3665
  284POPC   NC3 3950   8.053   8.281   4.790 -0.1720  0.2293  0.0620
  284POPC   PO4 3951   7.902   7.913   4.875 -0.1581 -0.1093  0.1484
  284POPC   GL1 3952   7.577   7.885   5.122 -0.0184  0.1966 -0.1556
  284POPC   GL2 3953   7.347   7.607   5.263 -0.1438  0.0117  0.1291
  284POPC   C1A 3954   7.522   8.021   5.540  0.1446  0.3477  0.1193
  284POPC   D2A 3955   7.423   8.284   5.804  0.1094 -0.0602  0.0912
  284POPC   C3A 3956   7.107   8.113   6.111  0.0579 -0.0592  0.3319
  284POPC   C4A 3957   7.214   8.051   6.552 -0.3789  0.1152  0.0563
  284POPC   C1B 3958   7.160   7.238   5.537  0.2366 -0.0360 -0.1932
  284POPC   C2B 3959   6.781   7.190   5.702  0.1754  0.3659  0.2111
  284POPC   C3B 3960   6.399   7.290   5.886 -0.1114  0.0857  0.1626
  284POPC   C4B 3961   5.931   7.237   5.961 -0.2085  0.2054 -0.0441
  285POPC   NC3 3962   5.139   8.564   3.656 -0.2277 -0.1123  0.1191
  285POPC   PO4 3963   4.865   8.712   4.067  0.1423  0.0443 -0.1304
  285POPC   GL1 3964   4.629   8.411   4.256 -0.0127  0.0053 -0.1188
  285POPC   GL2 3965   4.457   8.141   4.045  0.1312  0.3031 -0.1999
  285POPC   C1A 3966   4.741   8.064   4.467 -0.0671  0.0292  0.0846
  285POPC   D2A 3967   5.039   7.921   4.797 -0.5374  0.0682  0.0022
  285POPC   C3A 3968   5.051   7.759   5.201 -0.3218  0.1195 -0.3041
  285POPC   C4A 3969   5.214   7.381   5.361  0.0203 -0.4828  0.2446
  285POPC   C1B 3970   4.342   7.705   4.331 -0.0211  0.0810  0.0684
  285POPC   C2B 3971   4.193   7.472   4.768  0.0416  0.0176  0.1270
  285POPC   C3B 3972   4.214   7.093   5.003 -0.0869 -0.3199  0.3079
  285POPC   C4B 3973   4.163   6.924   5.342  0.3256 -0.0839 -0.1866
  286POPC   NC3 3974   1.632   9.020   4.546  0.1520  0.0600 -0.0379
  286POPC   PO4 3975   1.508   9.200   4.933  0.0901 -0.1439  0.0157
  286POPC   GL1 3976   1.777   9.249   5.255 -0.3252 -0.1115  0.0770
  286POPC   GL2 3977   1.355   9.307   5.398  0.3745  0.1277  0.2952
  286POPC   C1A 3978   1.796   9.222   5.717 -0.0793  0.1011  0.2820
  286POPC   D2A 3979   2.157   9.114   5.968  0.1034  0.1729  0.1715
  286POPC   C3A 3980   2.465   9.145   5.764  0.0087 -0.1615  0.1481
  286POPC   C4A 3981   2.745   9.055   5.582 -0.0745 -0.1136  0.1571
  286POPC   C1B 3982   1.244   9.120   5.855  0.2085 -0.1069 -0.0464
  286POPC   C2B 3983   1.237   8.913   6.218 -0.1766  0.1623  0.0069
  286POPC   C3B 3984   1.062   8.637   6.541 -0.0967 -0.0283 -0.0846
  286POPC   C4B 3985   1.114   8.248   6.777 -0.0938  0.0844  0.3858
  287POPC   NC3 3986   6.515   4.751   4.707 -0.3631  0.1201 -0.1249
  287POPC   PO4 3987   6.147   4.470   4.628 -0.3757 -0.2827 -0.0123
  287POPC   GL1 3988   5.903   4.897   4.591  0.1416  0.2201 -0.1101
  287POPC   GL2 3989   5.681   5.051   4.406 -0.0521  0.0986 -0.0532
  287POPC   C1A 3990   5.549   5.021   4.844 -0.1247  0.1552  0.5391
  287POPC   D2A 3991   5.163   4.984   4.532  0.0665 -0.0128 -0.0396
  287POPC   C3A 3992   4.842   5.205   4.544  0.1441  0.0048  0.2466
  287POPC   C4A 3993   4.589   5.577   4.735  0.2307 -0.0631  0.1889
  287POPC   C1B 3994   5.792   5.463   4.666  0.0675 -0.1614  0.1794
  287POPC   C2B 3995   5.706   5.689   4.924  0.1515 -0.3072 -0.2997
  287POPC   C3B 3996   5.446   5.764   5.232  0.0771  0.0791 -0.0965
  287POPC   C4B 3997   5.258   5.721   5.683 -0.0437 -0.0574  0.1856
  288POPC   NC3 3998   8.193   3.073   5.313  0.4153 -0.0444 -0.1179
  288POPC   PO4 3999   8.261   2.777   5.546  0.1786 -0.0602 -0.0082
  288POPC   GL1 4000   8.205   2.828   5.887 -0.3228 -0.0996  0.1149
  288POPC   GL2 4001   8.283   2.477   5.928  0.1978 -0.0234 -0.1425
  288POPC   C1A 4002   8.018   3.057   6.165 -0.1229 -0.1937  0.1783
  288POPC   D2A 4003   7.680   3.198   6.339 -0.1720  0.2188 -0.2414
  288POPC   C3A 4004   7.657   3.139   6.808  0.1073  0.3609  0.1524
  288POPC   C4A 4005   7.604   3.118   7.171  0.1803 -0.0857 -0.2251
  288POPC   C1B 4006   8.272   2.656   6.342  0.1254  0.0058  0.1304
  288POPC   C2B 4007   8.056   2.804   6.660  0.3233  0.0585  0.1126
  288POPC   C3B 4008   7.930   2.802   7.031  0.0500 -0.0349 -0.1093
  288POPC   C4B 4009   7.486   2.677   7.263  0.0195  0.2324  0.1633
  289POPC   NC3 4010   5.794   6.702   3.417 -0.0630 -0.2059  0.0583
  289POPC   PO4 4011   5.630   7.123   3.382  0.1714 -0.0241 -0.0619
  289POPC   GL1 4012   5.509   7.191   3.801  0.0528  0.1128 -0.0481
  289POPC   GL2 4013   5.651   6.867   3.853  0.1464  0.0565  0.0876
  289POPC   C1A 4014   5.182   7.196   4.173  0.1582  0.0033  0.2043
  289POPC   D2A 4015   5.120   7.052   4.596 -0.1421  0.1389 -0.1597
  289POPC   C3A 4016   5.106   7.368   4.898 -0.0376  0.0063 -0.4129
  289POPC   C4A 4017   4.663   7.571   5.008  0.0812  0.3486 -0.2927
  289POPC   C1B 4018   5.625   7.049   4.329 -0.2086 -0.0282 -0.0708
  289POPC   C2B 4019   5.871   6.971   4.680 -0.1430 -0.0879 -0.0466
  289POPC   C3B 4020   6.190   6.937   4.980 -0.3607 -0.0520  0.1395
  289POPC   C4B 4021   6.326   7.072   5.412  0.1549  0.0756  0.0308
  290POPC   NC3 4022   0.877   3.870   5.205 -0.3332  0.0644 -0.0223
  290POPC   PO4 4023   1.169   4.122   5.637  0.0412  0.0672  0.2742
  290POPC   GL1 4024   1.430   4.000   5.784 -0.0963  0.1503 -0.0824
  290POPC   GL2 4025   1.701   4.141   5.680 -0.0030 -0.2816  0.1665
  290POPC   C1A 4026   1.479   3.780   6.140 -0.0847  0.4356 -0.1181
  290POPC   D2A 4027   1.479   3.638   6.589  0.2867  0.0813 -0.2129
  290POPC   C3A 4028   1.099   3.587   6.817 -0.2343  0.2539 -0.1905
  290POPC   C4A 4029   0.975   3.826   7.190 -0.2334 -0.1442 -0.0149
  290POPC   C1B 4030   1.926   4.140   6.018 -0.3068  0.0913  0.0063
  290POPC   C2B 4031   2.138   4.170   6.357 -0.0170  0.1255 -0.0853
  290POPC   C3B 4032   2.395   4.267   6.708 -0.2534  0.0252  0.1689
  290POPC   C4B 4033   2.591   4.225   7.094 -0.2269 -0.3125  0.1261
  291POPC   NC3 4034   2.005   9.332   4.831 -0.3303  0.0451 -0.2060
  291POPC   PO4 4035   2.012   9.713   4.792 -0.2563 -0.1706  0.0513
  291POPC   GL1 4036   2.224   9.585   5.219  0.0694  0.1005 -0.1945
  291POPC   GL2 4037   2.607   9.548   5.364  0.1372  0.3282  0.1405
  291POPC   C1A 4038   2.221   9.529   5.636  0.2459 -0.0508  0.0431
  291POPC   D2A 4039   2.376   9.622   6.023 -0.1937 -0.1985 -0.2995
  291POPC   C3A 4040   2.814   9.750   6.189 -0.1823 -0.2620  0.0598
  291POPC   C4A 4041   2.975  10.157   6.084 -0.1422 -0.0286 -0.1393
  291POPC   C1B 4042   2.790   9.545   5.731  0.0017 -0.3480  0.0214
  291POPC   C2B 4043   2.823   9.231   6.099 -0.0239 -0.1372  0.2279
  291POPC   C3B 4044   2.864   9.159   6.516  0.1014 -0.2093 -0.0945
  291POPC   C4B 4045   2.937   9.178   6.998 -0.0217  0.0675 -0.0247
  292POPC   NC3 4046   8.357   6.627   4.772  0.3312 -0.0475  0.0066
  292POPC   PO4 4047   8.469   7.079   4.800 -0.2552  0.1126  0.0112
  292POPC   GL1 4048   8.399   7.288   5.192 -0.0796  0.1029 -0.1894
  292POPC   GL2 4049   8.018   7.212   5.162 -0.0292  0.1159 -0.3649
  292POPC   C1A 4050   8.526   7.613   5.560 -0.0256  0.0735 -0.3016
  292POPC   D2A 4051   8.517   7.911   5.876 -0.2492  0.1246 -0.0848
  292POPC   C3A 4052   8.740   8.354   5.850  0.0726  0.0616  0.0360
  292POPC   C4A 4053   8.878   8.564   5.419  0.1496  0.1716 -0.0671
  292POPC   C1B 4054   8.082   7.151   5.659  0.0679 -0.2561 -0.0547
  292POPC   C2B 4055   8.021   6.916   6.019  0.0924 -0.0235  0.1556
  292POPC   C3B 4056   8.030   6.777   6.486 -0.2440  0.0290  0.0898
  292POPC   C4B 4057   8.014   6.772   7.000  0.0978 -0.0014 -0.3016
  293POPC   NC3 4058   3.954   3.680   4.708  0.2532 -0.0124  0.0052
  293POPC   PO4 4059   4.384   3.829   4.679 -0.1309 -0.0367 -0.2851
  293POPC   GL1 4060   4.537   3.962   5.015  0.1893  0.3089  0.2353
  293POPC   GL2 4061   4.362   3.822   5.256 -0.0437 -0.1456 -0.1001
  293POPC   C1A 4062   4.622   4.215   5.346  0.0451 -0.2636 -0.0451
  293POPC   D2A 4063   4.578   4.385   5.694 -0.2263 -0.1105 -0.1797
  293POPC   C3A 4064   4.635   4.161   6.042  0.2475 -0.0799  0.1979
  293POPC   C4A 4065   4.864   4.022   6.502 -0.1127  0.1721  0.0698
  293POPC   C1B 4066   4.550   3.772   5.588  0.0871  0.1125  0.1074
  293POPC   C2B 4067   4.525   3.559   5.994 -0.0050 -0.3377  0.2182
  293POPC   C3B 4068   4.691   3.504   6.380  0.1220  0.2504  0.2891
  293POPC   C4B 4069   4.973   3.473   6.777  0.0726  0.0491  0.1070
  294POPC   NC3 4070   3.719   8.640   4.144 -0.0080 -0.1281  0.0114
  294POPC   PO4 4071   4.044   8.360   4.360  0.1606  0.2087 -0.5173
  294POPC   GL1 4072   3.973   8.107   4.674 -0.0284 -0.0789 -0.0355
  294POPC   GL2 4073   3.813   7.806   4.596  0.2358  0.1199 -0.3617
  294POPC   C1A 4074   4.335   7.922   4.772  0.0324  0.0860  0.1360
  294POPC   D2A 4075   4.635   8.072   5.020 -0.0721 -0.0293 -0.1596
  294POPC   C3A 4076   4.564   7.872   5.471 -0.1982 -0.1939  0.0727
  294POPC   C4A 4077   4.377   7.657   5.756  0.0734 -0.1380 -0.2948
  294POPC   C1B 4078   3.433   7.723   4.856 -0.1232  0.1988 -0.3683
  294POPC   C2B 4079   3.403   7.727   5.328  0.1484 -0.1998  0.1480
  294POPC   C3B 4080   3.375   7.419   5.568 -0.2191 -0.1128  0.3485
  294POPC   C4B 4081   3.030   7.203   5.812 -0.1820 -0.1246  0.0300
  295POPC   NC3 4082   6.558   1.273   5.538 -0.2347  0.0409 -0.1537
  295POPC   PO4 4083   6.411   0.901   5.797 -0.3144  0.1022  0.1329
  295POPC   GL1 4084   6.096   1.242   5.818  0.5874  0.0114 -0.2288
  295POPC   GL2 4085   6.058   1.559   5.649  0.1346 -0.1395 -0.0321
  295POPC   C1A 4086   5.703   1.610   6.100  0.0689  0.1647  0.1360
  295POPC   D2A 4087   5.678   1.907   5.926 -0.1551  0.2049  0.2360
  295POPC   C3A 4088   5.639   2.226   6.210 -0.1674 -0.0479  0.1458
  295POPC   C4A 4089   5.651   2.635   6.452  0.3372 -0.2391 -0.2095
  295POPC   C1B 4090   6.300   1.458   6.164 -0.0526  0.3369  0.2625
  295POPC   C2B 4091   6.101   1.659   6.424 -0.0347 -0.0156 -0.0951
  295POPC   C3B 4092   6.127   1.958   6.915  0.1604 -0.1316 -0.2310
  295POPC   C4B 4093   6.098   2.172   7.356 -0.0170  0.0400 -0.1054
  296POPC   NC3 4094   9.461   1.785   4.973 -0.0747  0.1951 -0.3059
  296POPC   PO4 4095   9.243   1.772   5.423  0.2541  0.2260  0.0091
  296POPC   GL1 4096   9.369   1.516   5.736  0.0025 -0.2612  0.1472
  296POPC   GL2 4097   9.636   1.635   5.866 -0.1906  0.2660 -0.0201
  296POPC   C1A 4098   9.341   1.541   6.227  0.0129  0.2326 -0.0550
  296POPC   D2A 4099   9.408   1.523   6.597 -0.0367  0.0430  0.3381
  296POPC   C3A 4100   9.105   1.782   6.804  0.0929 -0.0981 -0.0754
  296POPC   C4A 4101   8.712   1.781   7.061 -0.2825  0.0803 -0.1041
  296POPC   C1B 4102   9.991   1.846   6.127  0.3090 -0.1937  0.0184
  296POPC   C2B 4103  10.135   1.853   6.489 -0.2460 -0.1673 -0.0631
  296POPC   C3B 4104  10.160   1.784   6.988  0.0267  0.0146  0.0158
  296POPC   C4B 4105   9.806   1.628   7.186 -0.2710  0.1390 -0.0014
  297POPC   NC3 4106   9.764   6.942   5.195  0.1444 -0.1012  0.0820
  297POPC   PO4 4107   9.338   6.802   5.214 -0.3093 -0.3649 -0.0820
  297POPC   GL1 4108   9.417   6.836   5.671  0.1995  0.0394  0.1580
  297POPC   GL2 4109   9.342   6.574   5.688  0.2362  0.2702  0.1062
  297POPC   C1A 4110   9.067   7.006   5.943 -0.1145  0.1978  0.0592
  297POPC   D2A 4111   8.805   7.133   6.191  0.1055 -0.2778  0.0459
  297POPC   C3A 4112   8.424   7.094   6.454 -0.1778  0.1061  0.2248
  297POPC   C4A 4113   8.279   7.285   6.794 -0.0198  0.0244  0.1405
  297POPC   C1B 4114   9.363   6.720   6.182  0.2991 -0.0955  0.0197
  297POPC   C2B 4115   9.282   7.061   6.410 -0.1256  0.0728 -0.3442
  297POPC   C3B 4116   9.019   7.217   6.641 -0.0423 -0.0562  0.2050
  297POPC   C4B 4117   9.185   7.495   6.905 -0.3270 -0.1029 -0.0822
  298POPC   NC3 4118   2.033   6.112   4.639  0.3081 -0.0085  0.1471
  298POPC   PO4 4119   2.431   5.949   4.491 -0.0992 -0.0243 -0.2261
  298POPC   GL1 4120   2.406   6.077   4.921 -0.0705  0.2178  0.0819
  298POPC   GL2 4121   2.255   6.290   5.097  0.0219 -0.1671 -0.2518
  298POPC   C1A 4122   2.341   5.842   5.324 -0.0040 -0.4023  0.0158
  298POPC   D2A 4123   2.154   5.527   5.713 -0.1324 -0.0759 -0.0587
  298POPC   C3A 4124   1.999   5.186   6.014 -0.1268  0.0665 -0.0411
  298POPC   C4A 4125   2.112   5.337   6.477 -0.1230 -0.1638 -0.1670
  298POPC   C1B 4126   2.440   6.323   5.607 -0.3410  0.1608  0.1056
  298POPC   C2B 4127   2.376   6.020   5.935 -0.0910  0.3159  0.5214
  298POPC   C3B 4128   2.515   5.563   6.161 -0.1549  0.0479 -0.0540
  298POPC   C4B 4129   2.646   5.272   6.552  0.1224  0.1296 -0.0804
  299POPC   NC3 4130   1.263   1.806   5.026  0.1101 -0.0080  0.4857
  299POPC   PO4 4131   1.082   1.408   5.351 -0.0790  0.1781 -0.1201
  299POPC   GL1 4132   1.191   1.266   5.721  0.0128 -0.0802 -0.1655
  299POPC   GL2 4133   1.532   1.434   5.787  0.1512  0.1658 -0.0507
  299POPC   C1A 4134   1.207   1.328   6.157  0.1594  0.0371 -0.1273
  299POPC   D2A 4135   1.212   1.127   6.714  0.0055 -0.0339 -0.0052
  299POPC   C3A 4136   1.456   1.038   6.975 -0.1521  0.3271  0.0441
  299POPC   C4A 4137   1.768   0.814   7.191  0.1299  0.0517  0.0638
  299POPC   C1B 4138   1.709   1.376   6.262 -0.1949  0.0922  0.1793
  299POPC   C2B 4139   1.660   1.347   6.553 -0.1565  0.3308 -0.0904
  299POPC   C3B 4140   1.554   1.544   6.861 -0.1583 -0.1998 -0.1497
  299POPC   C4B 4141   1.529   1.933   7.011  0.0519 -0.1249  0.0938
  300POPC   NC3 4142   1.448   7.972   4.452 -0.0768 -0.3290  0.0298
  300POPC   PO4 4143   1.185   7.907   4.706  0.0733  0.0674  0.0005
  300POPC   GL1 4144   1.218   8.012   5.158 -0.0801  0.0975 -0.1886
  300POPC   GL2 4145   1.099   8.300   5.330  0.0248 -0.0506 -0.1282
  300POPC   C1A 4146   1.658   8.178   5.287  0.1100  0.0207 -0.0181
  300POPC   D2A 4147   2.059   8.352   5.301  0.2152  0.1008 -0.1621
  300POPC   C3A 4148   2.240   8.087   5.031 -0.0398  0.0334 -0.0003
  300POPC   C4A 4149   2.506   7.706   5.063  0.1120 -0.0199 -0.0202
  300POPC   C1B 4150   1.273   8.235   5.730  0.0418 -0.0457 -0.2099
  300POPC   C2B 4151   1.407   8.411   6.237  0.0128  0.0936  0.0219
  300POPC   C3B 4152   1.673   8.434   6.519  0.0991 -0.1906 -0.1201
  300POPC   C4B 4153   1.616   8.318   6.860  0.0038  0.0729 -0.2221
  301POPC   NC3 4154   1.750   4.828   5.220 -0.0508  0.0442 -0.2570
  301POPC   PO4 4155   1.348   5.078   5.250 -0.1626 -0.0142  0.0240
  301POPC   GL1 4156   1.552   5.129   5.614 -0.0711 -0.1439  0.1600
  301POPC   GL2 4157   1.279   5.220   5.819 -0.0456  0.2340 -0.0385
  301POPC   C1A 4158   1.579   4.945   6.035  0.1465  0.2829  0.0576
  301POPC   D2A 4159   1.736   4.931   6.532  0.1157  0.0835 -0.0459
  301POPC   C3A 4160   1.597   5.071   6.877  0.1271  0.0810  0.1582
  301POPC   C4A 4161   1.467   5.448   7.031  0.1037  0.2494  0.3843
  301POPC   C1B 4162   1.549   5.467   5.989 -0.0738  0.0669 -0.2451
  301POPC   C2B 4163   1.857   5.731   6.074  0.2824 -0.0777 -0.2415
  301POPC   C3B 4164   2.162   5.851   6.391 -0.2206  0.1816  0.2328
  301POPC   C4B 4165   2.142   6.214   6.567  0.3005  0.1547  0.1731
  302POPC   NC3 4166   1.009   9.172   5.022  0.1389 -0.0703 -0.0268
  302POPC   PO4 4167   0.855   8.776   4.896  0.0585 -0.0236 -0.2698
  302POPC   GL1 4168   0.943   8.781   5.357  0.1588 -0.0644  0.3479
  302POPC   GL2 4169   1.398   8.726   5.309  0.1280 -0.0235  0.1360
  302POPC   C1A 4170   0.998   8.672   5.757  0.0837  0.1358  0.2593
  302POPC   D2A 4171   0.742   8.664   6.158 -0.0659 -0.3340 -0.3431
  302POPC   C3A 4172   0.604   9.021   6.563  0.1213 -0.0695  0.0201
  302POPC   C4A 4173   0.676   9.175   7.004 -0.0098 -0.1453 -0.1739
  302POPC   C1B 4174   1.668   8.653   5.652 -0.1672 -0.0038  0.1031
  302POPC   C2B 4175   1.708   8.853   5.990 -0.3473 -0.1037 -0.1164
  302POPC   C3B 4176   1.718   9.015   6.321 -0.1323  0.1406  0.0711
  302POPC   C4B 4177   1.490   8.886   6.714 -0.0582  0.0032 -0.3890
  303POPC   NC3 4178   2.317   1.484   4.575 -0.2468 -0.2792 -0.2375
  303POPC   PO4 4179   2.267   1.744   5.000 -0.1618 -0.1975  0.1142
  303POPC   GL1 4180   2.349   1.628   5.529  0.0482  0.4837 -0.2780
  303POPC   GL2 4181   2.497   1.984   5.726 -0.2534 -0.0066  0.0987
  303POPC   C1A 4182   2.344   1.205   5.777  0.1194 -0.1130  0.2780
  303POPC   D2A 4183   2.461   0.884   5.993 -0.0812 -0.0975 -0.0768
  303POPC   C3A 4184   2.277   0.690   6.425 -0.2220  0.3187  0.4686
  303POPC   C4A 4185   2.381   0.297   6.592  0.0022  0.0695  0.2012
  303POPC   C1B 4186   2.761   2.050   6.052  0.1042 -0.2289  0.1426
  303POPC   C2B 4187   2.875   1.882   6.458 -0.1887 -0.1931  0.1598
  303POPC   C3B 4188   2.930   1.702   6.798  0.2923  0.2056  0.1374
  303POPC   C4B 4189   2.860   1.520   7.167  0.0667  0.0084 -0.0906
  304POPC   NC3 4190   7.975   3.602   5.280  0.0868  0.0252 -0.0972
  304POPC   PO4 4191   7.564   3.864   5.056 -0.1729 -0.0036 -0.2214
  304POPC   GL1 4192   7.530   3.928   5.472 -0.3936  0.0821 -0.1099
  304POPC   GL2 4193   7.795   3.887   5.653  0.1327 -0.2035 -0.0170
  304POPC   C1A 4194   7.364   3.894   5.924  0.2213 -0.3287 -0.2222
  304POPC   D2A 4195   7.049   3.996   6.281  0.2488  0.0071 -0.1152
  304POPC   C3A 4196   7.107   3.951   6.676 -0.1700 -0.2940  0.1141
  304POPC   C4A 4197   7.290   3.578   7.006 -0.1523 -0.2252 -0.2149
  304POPC   C1B 4198   8.001   4.173   5.994  0.0901 -0.4195 -0.0147
  304POPC   C2B 4199   8.048   4.075   6.427  0.0270 -0.1446  0.3724
  304POPC   C3B 4200   7.952   4.005   6.781 -0.2134 -0.2257 -0.0645
  304POPC   C4B 4201   7.820   4.008   7.206 -0.1672  0.0299 -0.0486
  305POPC   NC3 4202   9.727   6.297   5.286  0.1869 -0.1375  0.2642
  305POPC   PO4 4203   9.806   6.593   5.468  0.2187 -0.1854 -0.0512
  305POPC   GL1 4204   9.971   6.960   5.701 -0.1298  0.0328  0.1043
  305POPC   GL2 4205  10.282   7.092   5.698 -0.0362 -0.1283 -0.1095
  305POPC   C1A 4206   9.878   7.103   6.104  0.1113  0.0242 -0.0719
  305POPC   D2A 4207   9.844   6.984   6.520  0.3984 -0.4612  0.2848
  305POPC   C3A 4208   9.558   7.032   6.806 -0.0034 -0.1841 -0.1536
  305POPC   C4A 4209   9.213   7.014   7.090  0.0573 -0.0034 -0.0940
  305POPC   C1B 4210  10.368   6.941   6.109 -0.3507  0.2166  0.0852
  305POPC   C2B 4211  10.155   6.659   6.398  0.2015  0.0670 -0.0496
  305POPC   C3B 4212  10.185   6.451   6.874 -0.0812 -0.0083  0.0712
  305POPC   C4B 4213  10.421   6.467   7.320 -0.2087 -0.0506 -0.0499
  306POPC   NC3 4214   1.314   5.412   4.836  0.0686  0.0530  0.2351
  306POPC   PO4 4215   1.217   5.803   5.081  0.0576 -0.0445 -0.0277
  306POPC   GL1 4216   1.468   6.042   5.390  0.0256 -0.0783  0.1056
  306POPC   GL2 4217   1.712   5.874   5.448 -0.1411  0.0868 -0.0781
  306POPC   C1A 4218   1.423   5.956   5.850 -0.1131  0.0823 -0.2317
  306POPC   D2A 4219   1.591   6.009   6.332  0.1340 -0.3495  0.4079
  306POPC   C3A 4220   1.392   6.084   6.718 -0.1637 -0.3097 -0.1031
  306POPC   C4A 4221   1.524   6.086   7.137  0.1005  0.1984  0.1096
  306POPC   C1B 4222   1.860   6.181   5.848 -0.1213  0.2448  0.0664
  306POPC   C2B 4223   2.040   6.371   6.065  0.2596 -0.0202 -0.3505
  306POPC   C3B 4224   2.114   6.720   6.398 -0.3730 -0.3678 -0.0960
  306POPC   C4B 4225   2.236   6.719   6.869 -0.1432  0.1647  0.1106
  307POPC   NC3 4226   1.423   4.529   5.473 -0.0066  0.1564  0.0115
  307POPC   PO4 4227   1.087   4.772   5.588  0.0873  0.0839 -0.1313
  307POPC   GL1 4228   1.199   4.666   5.989  0.0990  0.2764 -0.1031
  307POPC   GL2 4229   1.423   4.454   6.009 -0.3335  0.1228  0.1728
  307POPC   C1A 4230   1.240   4.789   6.410  0.0949  0.3531 -0.2010
  307POPC   D2A 4231   1.092   5.011   6.752 -0.1491  0.2984  0.1623
  307POPC   C3A 4232   0.717   5.228   6.652 -0.0867 -0.2009 -0.0428
  307POPC   C4A 4233   0.598   5.621   6.373  0.0552 -0.0309  0.0381
  307POPC   C1B 4234   1.203   4.260   6.335  0.3184 -0.1253 -0.1442
  307POPC   C2B 4235   1.147   4.126   6.777 -0.1017  0.0665  0.3286
  307POPC   C3B 4236   1.419   4.151   7.110 -0.0671 -0.1893  0.4477
  307POPC   C4B 4237   1.405   4.055   7.504  0.2156 -0.6128 -0.0211
  308POPC   NC3 4238   5.054   3.189   4.894 -0.0590 -0.0881  0.2650
  308POPC   PO4 4239   5.582   3.259   4.934 -0.1018  0.1428 -0.3142
  308POPC   GL1 4240   5.353   3.153   5.356 -0.0307  0.3561  0.0590
  308POPC   GL2 4241   5.079   2.830   5.260 -0.0849 -0.2912  0.1947
  308POPC   C1A 4242   5.381   3.249   5.806 -0.2937  0.1356 -0.2384
  308POPC   D2A 4243   5.300   3.493   6.110  0.0383 -0.2134  0.0478
  308POPC   C3A 4244   5.275   3.803   6.400  0.1851  0.1138 -0.0026
  308POPC   C4A 4245   5.242   3.985   6.864  0.2143  0.1807  0.4052
  308POPC   C1B 4246   5.154   2.874   5.644 -0.2322  0.3604 -0.1057
  308POPC   C2B 4247   5.002   3.084   6.079  0.0127  0.1307  0.3972
  308POPC   C3B 4248   4.913   3.068   6.510  0.0456 -0.0298 -0.2110
  308POPC   C4B 4249   4.857   2.937   6.892 -0.0912  0.3470 -0.1590
  309POPC   NC3 4250   9.151   9.937   5.137 -0.0503  0.0225 -0.0986
  309POPC   PO4 4251   8.922  10.137   5.478 -0.0693 -0.2030 -0.2363
  309POPC   GL1 4252   8.703  10.085   5.865  0.1481  0.3153  0.1105
  309POPC   GL2 4253   8.346  10.302   5.871  0.0285 -0.0612  0.0643
  309POPC   C1A 4254   8.896   9.900   6.293 -0.0864 -0.0487 -0.0197
  309POPC   D2A 4255   8.941   9.468   6.517 -0.3339 -0.1291 -0.0016
  309POPC   C3A 4256   8.684   9.109   6.346  0.0656  0.1491 -0.0443
  309POPC   C4A 4257   8.458   8.700   6.204 -0.3207  0.2316  0.1007
  309POPC   C1B 4258   8.421  10.183   6.243 -0.3333 -0.0851  0.0522
  309POPC   C2B 4259   8.648   9.918   6.719 -0.0849  0.0894 -0.4884
  309POPC   C3B 4260   8.730   9.542   6.987 -0.1450  0.0943  0.0087
  309POPC   C4B 4261   8.838   9.304   7.344  0.0461 -0.0207  0.1268
  310POPC   NC3 4262   9.834   9.348   5.036  0.1579  0.2123  0.0274
  310POPC   PO4 4263   9.318   9.580   4.886  0.0384  0.1500 -0.4043
  310POPC   GL1 4264   9.350   9.395   5.264 -0.0777  0.1604 -0.4503
  310POPC   GL2 4265   9.289   9.694   5.520 -0.2920  0.0281  0.2119
  310POPC   C1A 4266   9.315   9.201   5.666  0.3958 -0.1555 -0.0814
  310POPC   D2A 4267   9.259   8.806   5.738  0.1581 -0.2430 -0.0802
  310POPC   C3A 4268   9.145   8.625   6.126  0.1277 -0.0552 -0.2465
  310POPC   C4A 4269   8.846   8.613   6.479 -0.4236 -0.2342 -0.1496
  310POPC   C1B 4270   9.481   9.801   5.900 -0.0233 -0.1306  0.2779
  310POPC   C2B 4271   9.868   9.595   6.127 -0.0242  0.2491 -0.3154
  310POPC   C3B 4272   9.796   9.574   6.538  0.0613 -0.0289  0.1844
  310POPC   C4B 4273   9.702   9.810   6.911  0.0332  0.0139  0.3325
  311POPC   NC3 4274   2.926   3.015   4.804  0.0243 -0.0716 -0.0607
  311POPC   PO4 4275   2.753   2.703   5.072  0.0722  0.0155  0.1141
  311POPC   GL1 4276   2.955   2.879   5.368  0.1551 -0.1708 -0.1110
  311POPC   GL2 4277   2.854   2.725   5.733 -0.1641 -0.0329 -0.2071
  311POPC   C1A 4278   2.910   3.244   5.683  0.1093  0.0866 -0.4408
  311POPC   D2A 4279   3.136   3.443   6.092 -0.2866 -0.0748  0.0560
  311POPC   C3A 4280   3.133   3.800   6.378  0.1089 -0.1984 -0.0606
  311POPC   C4A 4281   3.163   4.155   6.668 -0.0988  0.2235 -0.2131
  311POPC   C1B 4282   3.087   2.617   6.193 -0.2031  0.0459 -0.2682
  311POPC   C2B 4283   3.115   2.412   6.639 -0.0519  0.1611  0.3687
  311POPC   C3B 4284   3.322   2.014   6.580  0.1065  0.0473  0.1624
  311POPC   C4B 4285   3.501   1.569   6.622 -0.1629 -0.2556 -0.3070
  312POPC   NC3 4286   0.600   4.791   5.327  0.4060  0.1875 -0.2266
  312POPC   PO4 4287   0.325   5.139   5.527 -0.0746  0.1036 -0.0045
  312POPC   GL1 4288   0.522   4.812   5.840 -0.2776 -0.1743 -0.5323
  312POPC   GL2 4289   0.772   4.947   5.923  0.0031 -0.0161  0.1101
  312POPC   C1A 4290   0.711   4.593   6.242  0.1862  0.0126  0.0184
  312POPC   D2A 4291   0.867   4.562   6.669 -0.5038 -0.0005 -0.1887
  312POPC   C3A 4292   0.572   4.330   6.908  0.0503  0.2888  0.0569
  312POPC   C4A 4293   0.508   3.980   7.279  0.0584 -0.0429 -0.0899
  312POPC   C1B 4294   0.975   5.206   6.220 -0.1991  0.3321  0.1287
  312POPC   C2B 4295   1.395   5.258   6.386  0.1361  0.0596  0.2219
  312POPC   C3B 4296   1.670   5.447   6.582 -0.2634 -0.2136 -0.1359
  312POPC   C4B 4297   1.840   5.822   6.791  0.3544 -0.2783 -0.2880
  313POPC   NC3 4298   1.293   6.317   4.917  0.2310  0.1790 -0.3380
  313POPC   PO4 4299   1.756   6.172   5.061 -0.1861 -0.2306  0.1827
  313POPC   GL1 4300   1.913   6.481   5.394  0.0390  0.0450 -0.1420
  313POPC   GL2 4301   1.913   6.724   5.176  0.0315  0.2790  0.0262
  313POPC   C1A 4302   2.050   6.760   5.715  0.0776 -0.1585 -0.1622
  313POPC   D2A 4303   2.400   6.684   5.932  0.2069  0.1629 -0.2948
  313POPC   C3A 4304   2.649   6.922   6.180 -0.1446  0.2462  0.0729
  313POPC   C4A 4305   2.846   7.267   6.282 -0.1153  0.1160  0.2358
  313POPC   C1B 4306   1.670   6.972   5.535  0.0164 -0.2559 -0.4257
  313POPC   C2B 4307   1.470   7.369   5.620 -0.3903  0.0107  0.1640
  313POPC   C3B 4308   1.658   7.781   5.710  0.2854 -0.1221 -0.0467
  313POPC   C4B 4309   1.781   8.204   5.737  0.0302 -0.1471 -0.5638
  314POPC   NC3 4310   4.763   6.708   3.439 -0.2024 -0.4639  0.2180
  314POPC   PO4 4311   4.645   6.409   3.574 -0.1091 -0.2035 -0.1955
  314POPC   GL1 4312   4.745   6.518   3.954 -0.1995  0.0633  0.1953
  314POPC   GL2 4313   4.767   6.935   3.999  0.3268 -0.2834 -0.0154
  314POPC   C1A 4314   4.809   6.305   4.422 -0.1401 -0.1359 -0.1998
  314POPC   D2A 4315   4.997   6.473   4.792  0.1973  0.0586  0.0301
  314POPC   C3A 4316   4.749   6.569   5.150 -0.0292 -0.2853  0.2691
  314POPC   C4A 4317   4.523   6.560   5.476 -0.0156  0.0464 -0.3577
  314POPC   C1B 4318   4.674   6.778   4.402  0.1114  0.2311 -0.1878
  314POPC   C2B 4319   4.426   6.510   4.691  0.1935 -0.2140 -0.1723
  314POPC   C3B 4320   4.239   6.527   5.046  0.1331  0.1360  0.0988
  314POPC   C4B 4321   4.060   6.415   5.403 -0.0940  0.1388  0.1960
  315POPC   NC3 4322   8.018   0.962   5.899 -0.2473  0.0214  0.0322
  315POPC   PO4 4323   7.696   1.110   5.671  0.0292 -0.1703  0.3364
  315POPC   GL1 4324   7.601   0.719   5.885  0.3221 -0.4064  0.0610
  315POPC   GL2 4325   7.309   0.648   5.968  0.3313  0.2548  0.1520
  315POPC   C1A 4326   7.592   0.589   6.331 -0.0096 -0.3323 -0.1244
  315POPC   D2A 4327   7.340   0.657   6.757  0.0813 -0.0065 -0.4829
  315POPC   C3A 4328   7.627   0.815   7.096 -0.3196  0.0797 -0.1653
  315POPC   C4A 4329   7.827   0.737   7.423  0.2419 -0.0967 -0.1001
  315POPC   C1B 4330   7.578   0.240   5.978  0.0816  0.4776 -0.0277
  315POPC   C2B 4331   7.815   0.032   6.220 -0.0175 -0.0962  0.0225
  315POPC   C3B 4332   8.059  -0.362   6.269 -0.2179  0.0578  0.0292
  315POPC   C4B 4333   8.535  -0.626   6.149 -0.1872  0.1754  0.0047
  316POPC   NC3 4334   9.745   3.814   5.373 -0.1367 -0.0393  0.2381
  316POPC   PO4 4335   9.679   4.162   5.516 -0.1571  0.3691  0.0618
  316POPC   GL1 4336   9.498   4.238   5.939  0.0418  0.0200  0.1867
  316POPC   GL2 4337   9.355   4.526   5.978 -0.0428  0.0246  0.3781
  316POPC   C1A 4338   9.596   4.311   6.393 -0.0107  0.1149  0.2080
  316POPC   D2A 4339   9.376   4.515   6.568 -0.1466 -0.0304 -0.1794
  316POPC   C3A 4340   8.984   4.471   6.835 -0.0321 -0.1205 -0.0708
  316POPC   C4A 4341   8.742   4.486   7.099 -0.1808  0.3208  0.0116
  316POPC   C1B 4342   9.601   4.749   6.197  0.0055  0.1554  0.2183
  316POPC   C2B 4343   9.813   4.818   6.468 -0.3012  0.3680 -0.3582
  316POPC   C3B 4344  10.143   5.011   6.625  0.2931  0.0762 -0.0570
  316POPC   C4B 4345  10.521   5.307   6.953 -0.2048 -0.1097 -0.1695
  317POPC   NC3 4346   3.514   0.227   5.056 -0.1269 -0.1827 -0.2052
  317POPC   PO4 4347   3.693   0.569   5.001  0.0174 -0.1081 -0.1334
  317POPC   GL1 4348   3.855   0.428   5.342 -0.4339  0.1624  0.0598
  317POPC   GL2 4349   4.102   0.146   5.437 -0.1159  0.0461 -0.2537
  317POPC   C1A 4350   3.787   0.377   5.896  0.3409 -0.0056  0.0455
  317POPC   D2A 4351   3.818   0.109   6.270  0.2119  0.1230  0.2740
  317POPC   C3A 4352   4.006   0.372   6.670 -0.0357  0.0005 -0.1087
  317POPC   C4A 4353   3.934   0.693   6.813  0.0585  0.1792 -0.0758
  317POPC   C1B 4354   4.122  -0.142   5.878 -0.0014  0.0735  0.0649
  317POPC   C2B 4355   4.205  -0.165   6.220 -0.1130  0.0984  0.2820
  317POPC   C3B 4356   4.094  -0.513   6.590 -0.2086  0.0287 -0.1131
  317POPC   C4B 4357   4.302  -0.677   6.946 -0.1864  0.0273  0.0193
  318POPC   NC3 4358   8.906   3.819   4.765 -0.2721  0.0758  0.0523
  318POPC   PO4 4359   8.527   3.986   4.903  0.0259 -0.0288 -0.1153
  318POPC   GL1 4360   8.508   3.963   5.384  0.1173  0.0675  0.4011
  318POPC   GL2 4361   8.825   4.018   5.401  0.2337 -0.0569 -0.0313
  318POPC   C1A 4362   8.379   4.034   5.776 -0.1811  0.1131  0.1368
  318POPC   D2A 4363   8.466   4.243   6.126 -0.1659 -0.2240 -0.0469
  318POPC   C3A 4364   8.469   4.249   6.593  0.2270  0.1329  0.2650
  318POPC   C4A 4365   8.392   4.144   6.972  0.0499 -0.2322 -0.3811
  318POPC   C1B 4366   8.849   4.170   5.871 -0.2153  0.1779 -0.1663
  318POPC   C2B 4367   8.993   4.256   6.323  0.2246 -0.0048 -0.0341
  318POPC   C3B 4368   8.875   3.990   6.813  0.2871 -0.2005  0.0571
  318POPC   C4B 4369   8.894   3.590   7.074 -0.1724  0.2185  0.2317
  319W        W 4370   1.549   8.455  11.307 -0.2262 -0.0872 -0.1065
  320W        W 4371   1.403   9.669   1.954  0.0247 -0.1317  0.0178
  321W        W 4372   3.437  10.149   0.183  0.0699  0.0726 -0.1172
  322W        W 4373   9.790   1.579   3.151  0.2225 -0.1606  0.3016
  323W        W 4374   8.955   9.763   1.159  0.2150  0.1237 -0.0428
  324W        W 4375   8.720   0.552  11.943 -0.0405  0.2185  0.1450
  325W        W 4376   1.797   1.730  11.204  0.0592 -0.1297 -0.0385
  326W        W 4377   8.611   4.189  10.623 -0.0783 -0.0868  0.0185
  327W        W 4378   0.817   3.653   1.454 -0.0294 -0.1249 -0.2306
  328W        W 4379   2.941   3.731   0.372  0.0514  0.3231 -0.1599
  329W        W 4380  10.204   7.448   1.479  0.1818 -0.0315 -0.2647
  330W        W 4381   8.831   1.228   4.687 -0.1780 -0.1350 -0.2421
  331W        W 4382   9.331   7.662  10.892  0.1117  0.2177 -0.0647
  332W        W 4383   1.688   5.778   9.929  0.1193  0.1541 -0.1364
  333W        W 4384   7.570   5.677   4.710 -0.0237 -0.3258  0.0692
  334W        W 4385   7.470   5.954  12.948 -0.0687  0.0355  0.1967
  335W        W 4386   1.974   3.557  10.270  0.0383  0.2008  0.2697
  336W        W 4387   7.573   9.871   1.105 -0.2944 -0.1744  0.1002
  337W        W 4388   2.724   2.138   0.857 -0.2777 -0.3025  0.0757
  338W        W 4389   6.589   5.564   4.184  0.0564  0.1193  0.0574
  339W        W 4390   3.694   2.641   3.833  0.1317 -0.1195  0.1130
  340W        W 4391   3.035   7.445   3.719  0.0413 -0.0440  0.2668
  341W        W 4392   5.233  10.067  12.778  0.0153 -0.2487  0.4089
  342W        W 4393   2.791   7.241  12.121 -0.0767 -0.1413 -0.3106
  343W        W 4394   8.261   5.732   1.950  0.3183 -0.0938  0.1733
  344W        W 4395   6.771   2.682   2.857  0.0039 -0.1860 -0.0851
  345W        W 4396   0.391   9.089   0.016 -0.0102 -0.3556  0.3875
  346W        W 4397   4.557   5.459   4.215 -0.0058 -0.1042 -0.2577
  347W        W 4398   1.883   1.115  12.248  0.1635  0.3786  0.1107
  348W        W 4399   4.324   3.334  13.210 -0.1248  0.2750  0.2174
  349W        W 4400   1.295   6.442  12.309 -0.0294 -0.1699  0.0569
  350W        W 4401   0.140   3.161   5.233  0.0485 -0.0481 -0.1093
  351W        W 4402   9.193   2.274   4.845 -0.3118 -0.0133  0.0319
  352W        W 4403   6.700   6.724   0.822  0.0306  0.0678 -0.0939
  353W        W 4404   9.446   2.020   9.690 -0.1691 -0.0458  0.0836
  354W        W 4405   7.916   9.869   3.580 -0.2441 -0.3415 -0.2053
  355W        W 4406   5.506   9.216  13.019 -0.1095  0.0150 -0.4274
  356W        W 4407   2.001   0.489   1.426  0.1029  0.3744  0.0147
  357W        W 4408   0.918   3.447   4.944 -0.1128  0.2769 -0.0163
  358W        W 4409   6.698  10.119   1.122  0.1468  0.1024  0.0641
  359W        W 4410   5.712   9.472   3.007  0.1370 -0.0346 -0.1191
  360W        W 4411   1.848   2.752   3.977  0.0950  0.0903 -0.1501
  361W        W 4412  10.033   5.693   0.422 -0.0104  0.3312 -0.1641
  362W        W 4413   8.023   7.753  10.317 -0.1476 -0.2582  0.1190
  363W        W 4414   6.406   3.249   0.374 -0.2393  0.0420  0.0558
  364W        W 4415   5.848   4.446   3.495 -0.2930 -0.0742 -0.0215
  365W        W 4416   3.488   3.319   3.902  0.0065 -0.2055  0.1759
  366W        W 4417   3.374   1.721  10.455 -0.1991  0.1673 -0.3434
  367W        W 4418   2.868   3.992  12.471 -0.1914 -0.2169 -0.2448
  368W        W 4419   7.426   9.923   3.842 -0.1454  0.1505  0.2358
  369W        W 4420   0.659   9.842   0.766  0.0662 -0.1665 -0.1643
  370W        W 4421   3.503   8.102  10.462 -0.1236  0.1140 -0.0254
  371W        W 4422   7.292   2.704  13.717 -0.1054 -0.0268  0.0995
  372W        W 4423   5.314   8.565  11.685 -0.5507  0.2356  0.0867
  373W        W 4424   1.022   9.244   2.002 -0.0016 -0.0631 -0.0591
  374W        W 4425   6.096   9.669   2.769  0.0586  0.1786  0.0230
  375W        W 4426   5.086   2.925   0.657 -0.4717  0.0269 -0.0575
  376W        W 4427   2.521   0.869   3.685  0.0026 -0.0204  0.2375
  377W        W 4428   3.543   6.243   0.629  0.6991  0.0320 -0.0833
  378W        W 4429   1.392   4.175  12.486 -0.2728 -0.2998  0.0171
  379W        W 4430   2.232   2.570   1.701 -0.2077 -0.2905 -0.0145
  380W        W 4431   9.380   4.231   3.466 -0.1430 -0.0327  0.2164
  381W        W 4432   8.868   0.392   5.249  0.4592 -0.3224  0.0526
  382W        W 4433   7.618   8.199  12.687 -0.0490  0.0763 -0.0063
  383W        W 4434   2.805   4.309   3.263  0.1076  0.3934  0.0654
  384W        W 4435   3.277   3.004  13.494 -0.1373 -0.0320  0.0772
  385W        W 4436   8.125   4.063   1.485  0.1013  0.2361  0.1278
  386W        W 4437   9.939   1.407   1.080 -0.0854 -0.3988 -0.1035
  387W        W 4438   1.893  10.008  10.962 -0.2849  0.0192 -0.1356
  388W        W 4439   2.833   2.506   4.131 -0.1458 -0.1042 -0.0189
  389W        W 4440   5.289   5.242   9.480  0.0140 -0.2290  0.1747
  390W        W 4441   1.487   8.476   0.711 -0.2608  0.3702 -0.2919
  391W        W 4442   0.408   7.080  10.331  0.2598  0.1582 -0.1368
  392W        W 4443   8.481   3.726  11.381 -0.1793  0.2389  0.1745
  393W        W 4444   7.494   6.187   1.201 -0.2025 -0.2455 -0.0264
  394W        W 4445   8.828   9.809   4.745  0.2169  0.3400  0.2788
  395W        W 4446  10.165   7.511  13.373  0.2292  0.2363  0.0782
  396W        W 4447   8.377   1.309   1.826  0.0376 -0.1254  0.2284
  397W        W 4448   6.412   8.080  13.558  0.4928 -0.0110 -0.0513
  398W        W 4449   3.316   6.879  10.252 -0.1323  0.2298  0.0220
  399W        W 4450   1.486   0.992   5.425  0.0227 -0.0038  0.0145
  400W        W 4451   8.259   9.152   9.767  0.0795  0.0439  0.0568
  401W        W 4452   8.054   6.313  10.273 -0.3360  0.0579  0.2825
  402W        W 4453   7.165   5.654   0.187  0.1476  0.0558 -0.1033
  403W        W 4454   0.941   0.662  13.673  0.0120 -0.0740 -0.3410
  404W        W 4455   3.154   9.885  12.578 -0.1604  0.1381  0.0652
  405W        W 4456   1.849   7.819  12.253  0.0628 -0.2923  0.2419
  406W        W 4457   1.343   0.017  11.588 -0.1447 -0.1066  0.1417
  407W        W 4458   8.356  10.197   3.523  0.2500  0.3231 -0.1832
  408W        W 4459   7.498   7.721  13.851 -0.0210 -0.0973 -0.2278
  409W        W 4460   9.651   5.544   0.815 -0.3367  0.1328 -0.0536
  410W        W 4461   5.871   5.902   2.237 -0.0739 -0.4079  0.2509
  411W        W 4462   7.521  10.191  13.132  0.2875  0.2251 -0.2031
  412W        W 4463   0.793   8.773   4.405  0.0273  0.2356 -0.0686
  413W        W 4464   9.823   9.723   1.896 -0.1013  0.1363  0.0190
  414W        W 4465   7.242   9.278   1.050  0.3367  0.2631 -0.0511
  415W        W 4466   4.401   1.869  10.719 -0.1112 -0.0950 -0.1519
  416W        W 4467   6.791   1.301   1.687 -0.0244  0.0936 -0.1923
  417W        W 4468   5.241   7.399  10.462  0.1158 -0.2310 -0.2375
  418W        W 4469   1.243   3.869   1.335 -0.0183  0.0629 -0.0173
  419W        W 4470   6.497   2.934  13.876  0.0966  0.2037  0.3164
  420W        W 4471   9.908   3.820   3.928  0.0453  0.3452 -0.0121
  421W        W 4472   7.834   2.962   2.055  0.0706  0.1958 -0.2697
  422W        W 4473   9.602   3.288  13.135  0.1211 -0.0085  0.2237
  423W        W 4474   8.954   4.330   3.160  0.3454 -0.2214 -0.2867
  424W        W 4475   2.950   4.722  11.918 -0.1495 -0.1308 -0.0283
  425W        W 4476   0.049  10.134   9.380 -0.6612  0.0036  0.2633
  426W        W 4477   5.738   3.098   2.773 -0.2099  0.0738  0.0995
  427W        W 4478   6.490  10.037  11.300 -0.0732 -0.1027 -0.1391
  428W        W 4479   7.483   9.597   1.551 -0.1329  0.4247 -0.2099
  429W        W 4480   3.179   6.987  11.156 -0.0833 -0.0008  0.1706
  430W        W 4481   6.267   2.341  11.090 -0.0908 -0.1417 -0.0288
  431W        W 4482   7.467   5.942   9.995  0.1943  0.0309  0.1535
  432W        W 4483   3.274   5.697   9.432  0.6121 -0.1649  0.4125
  433W        W 4484   9.520   6.300   4.025  0.3406 -0.0894  0.0283
  434W        W 4485   0.798   0.385  13.071 -0.1657  0.0198 -0.2772
  435W        W 4486   0.431   6.023  11.278  0.5190 -0.1135 -0.2747
  436W        W 4487   6.806   2.777   3.596  0.3270  0.0613  0.0762
  437W        W 4488   8.330   0.448   3.828  0.0749 -0.0352  0.0049
  438W        W 4489   5.588   6.965   2.887 -0.2070  0.0560 -0.2394
  439W        W 4490   5.997   2.317   2.340  0.2786 -0.0877 -0.0871
  440W        W 4491   2.936   7.734  12.300 -0.0192 -0.0670  0.1086
  441W        W 4492   9.723   9.890   2.663  0.1947 -0.0244  0.0869
  442W        W 4493   0.600   8.697   0.360  0.0160 -0.1373  0.0191
  443W        W 4494   9.803   2.109  12.063 -0.0928 -0.0182  0.0226
  444W        W 4495   7.921   6.048   0.301  0.1360 -0.2054 -0.0120
  445W        W 4496   8.124   3.524  13.297 -0.3145  0.2133  0.3018
  446W        W 4497   0.634   7.254  12.881  0.2645  0.1606  0.1703
  447W        W 4498   1.966   6.835  13.450  0.0032  0.3523  0.1607
  448W        W 4499   7.805   9.259  11.149  0.1018  0.2042  0.2232
  449W        W 4500   7.631   1.574   3.263  0.0079  0.2446  0.1559
  450W        W 4501   9.008   7.487   4.263  0.4650  0.2823  0.2336
  451W        W 4502   9.991   9.131   2.600  0.2995  0.0978 -0.3595
  452W        W 4503   1.856   4.850  10.212  0.1456  0.3528  0.1265
  453W        W 4504   0.517   5.163  10.789  0.0127 -0.1472  0.2083
  454W        W 4505   7.095   1.331  11.386  0.2303  0.0188 -0.3808
  455W        W 4506   5.315   0.644  13.462 -0.1781  0.1053  0.0303
  456W        W 4507   6.205   6.221   1.589 -0.2316 -0.1498  0.2544
  457W        W 4508   0.615   3.120   3.527  0.1468  0.2140  0.1367
  458W        W 4509   0.379   2.937   1.932 -0.2257 -0.0272 -0.2233
  459W        W 4510   2.772   1.631   1.727  0.0504  0.0173 -0.3571
  460W        W 4511   1.312   9.543  12.885  0.0666 -0.0718  0.0741
  461W        W 4512   2.219   3.306   2.018 -0.3842  0.2511  0.3209
  462W        W 4513   0.771   3.225  11.990  0.0222  0.1362 -0.2966
  463W        W 4514   8.606   7.904   2.799  0.1313  0.3394 -0.3673
  464W        W 4515   5.458   6.196  11.647  0.0208  0.0168  0.1119
  465W        W 4516   8.168   7.354  12.473 -0.2460 -0.0541  0.5430
  466W        W 4517   3.875   4.499   2.292  0.1039 -0.2245  0.1690
  467W        W 4518   7.914   8.674   3.985 -0.1333 -0.3239  0.2521
  468W        W 4519   1.522   3.129   8.612 -0.0363 -0.2374 -0.2749
  469W        W 4520   6.351   5.341   1.243 -0.1670  0.0799  0.1870
  470W        W 4521   2.839   8.581  13.038  0.0176 -0.1859  0.2763
  471W        W 4522   6.682   0.914   0.917  0.1125  0.3599 -0.2029
  472W        W 4523   2.316   9.034   9.160 -0.1547 -0.2252 -0.0695
  473W        W 4524   8.581   8.742  13.131 -0.0519 -0.2426  0.0316
  474W        W 4525   0.652   4.793   3.736 -0.2751  0.3103  0.3527
  475W        W 4526  10.010   7.269   8.722 -0.0707  0.2879 -0.1001
  476W        W 4527   1.672   9.051   9.937  0.0577 -0.1688  0.4600
  477W        W 4528   7.022   3.561   1.856 -0.2448  0.0648  0.0436
  478W        W 4529   4.601   1.269   9.574 -0.1024 -0.0255 -0.3868
  479W        W 4530   2.218   7.974  10.157 -0.0417 -0.0569 -0.4087
  480W        W 4531   2.144   4.440   3.392 -0.2955  0.1105  0.0399
  481W        W 4532   7.058   5.883   9.254 -0.2367  0.0540 -0.1147
  482W        W 4533   5.859   9.787   0.556 -0.1729 -0.2971 -0.0755
  483W        W 4534   6.075   0.591   4.475  0.2534  0.1677 -0.0175
  484W        W 4535   6.312   7.539   2.407 -0.0694 -0.1125 -0.1358
  485W        W 4536   4.374   8.226   1.247  0.3058 -0.0899  0.1742
  486W        W 4537   4.740   9.452   3.423 -0.2221 -0.0427  0.0791
  487W        W 4538   3.518   2.310   2.306 -0.1342 -0.1117 -0.2760
  488W        W 4539   9.482   2.204   3.789  0.0367 -0.1771 -0.1670
  489W        W 4540   1.852   4.337   0.187 -0.0691 -0.1506 -0.0672
  490W        W 4541   4.328   6.339  12.502  0.0659 -0.0768 -0.0169
  491W        W 4542   5.124   6.195   1.176 -0.1142 -0.2257  0.3056
  492W        W 4543   7.175   0.272   9.747  0.2686  0.2164  0.1547
  493W        W 4544   9.746   1.726   5.366 -0.1743 -0.1037  0.2969
  494W        W 4545   6.196   7.484  11.810  0.2641  0.0993  0.1634
  495W        W 4546   3.966   2.996   1.860  0.1247  0.0658  0.0185
  496W        W 4547   9.222   4.165  12.952 -0.1115 -0.0554 -0.2577
  497W        W 4548   9.583   4.399  10.356  0.0184 -0.2312 -0.3110
  498W        W 4549   9.274   5.877   0.064 -0.2410  0.0649  0.2027
  499W        W 4550   7.201   2.259  13.071  0.2704 -0.0710  0.1065
  500W        W 4551   8.215   1.927   5.650 -0.0076 -0.0368  0.2386
  501W        W 4552   4.916   7.125   1.257 -0.0520 -0.0018  0.0284
  502W        W 4553   7.648   5.976   3.779 -0.1379  0.0697 -0.0110
  503W        W 4554   0.090   7.104  12.064 -0.3138 -0.1856  0.0627
  504W        W 4555   2.374   6.597   3.693 -0.1262 -0.0535 -0.0305
  505W        W 4556   0.838   0.641   3.576  0.1091 -0.0097 -0.1771
  506W        W 4557   8.819   7.896   1.766 -0.0912  0.0838 -0.3905
  507W        W 4558   8.401   4.196  10.136 -0.0587 -0.0535  0.2147
  508W        W 4559   9.376   5.019   1.446  0.1119 -0.0912  0.1333
  509W        W 4560   7.706   8.968  11.971  0.1799 -0.0563 -0.1110
  510W        W 4561   3.938   2.516  11.028  0.0294 -0.1089  0.1075
  511W        W 4562   3.446   7.614   1.209  0.0359 -0.2665 -0.2754
  512W        W 4563   8.181   0.164  12.513  0.0972 -0.1830 -0.0847
  513W        W 4564   9.006   6.915   9.694 -0.0737 -0.0548 -0.4256
  514W        W 4565   5.780   5.996   2.786  0.2275  0.1639 -0.2477
  515W        W 4566   6.403   0.203  10.981  0.0306 -0.1634  0.0796
  516W        W 4567   2.066  10.064  10.050  0.0529 -0.2907 -0.1438
  517W        W 4568   1.211   0.999  10.170  0.0849  0.2102  0.0670
  518W        W 4569   7.189   2.606   3.126 -0.2776 -0.0290  0.1005
  519W        W 4570   5.358   8.344  13.840 -0.1337 -0.4621 -0.3426
  520W        W 4571   3.415   4.695   3.054  0.1535  0.1156 -0.2021
  521W        W 4572   8.963   8.856   1.495 -0.0983 -0.2984 -0.2283
  522W        W 4573   7.610   9.207  12.503 -0.2550 -0.0199 -0.2515
  523W        W 4574   1.435   0.903  12.028 -0.1470 -0.0592 -0.2620
  524W        W 4575   8.885   0.649   1.575 -0.0835  0.0385  0.2241
  525W        W 4576   0.302   3.747   1.356 -0.2509 -0.3350 -0.0179
  526W        W 4577   6.800   0.732   1.770  0.0831 -0.0706 -0.0909
  527W        W 4578   2.254   6.669  12.686  0.1188  0.0687 -0.0243
  528W        W 4579   0.784   7.643   4.900 -0.2131  0.3656 -0.2332
  529W        W 4580   1.126   1.336   0.078  0.0230  0.2596 -0.1771
  530W        W 4581   6.724   3.619   1.317  0.1825  0.1271  0.1362
  531W        W 4582   3.369   9.725   2.661 -0.1014  0.3492 -0.0720
  532W        W 4583   1.837   7.768   1.002 -0.0658 -0.0232  0.0055
  533W        W 4584   8.681   5.516   3.319 -0.1263  0.0593 -0.0775
  534W        W 4585   7.041   7.071  12.109 -0.2115 -0.0918 -0.2544
  535W        W 4586  10.148   8.868  13.723 -0.3235 -0.0930  0.0634
  536W        W 4587   6.793   2.123   8.850  0.0113  0.2744  0.0115
  537W        W 4588   3.893   8.591  11.725  0.1594  0.0456  0.0752
  538W        W 4589   8.107   7.173  11.974  0.1162  0.1019  0.2661
  539W        W 4590   2.379   7.877  11.402 -0.1990  0.0257  0.0210
  540W        W 4591   0.593   2.782  13.327 -0.0533  0.2015 -0.2338
  541W        W 4592   7.639   2.924   9.742  0.0451 -0.3035 -0.2408
  542W        W 4593   0.191   3.636   4.039  0.1116 -0.1682 -0.2054
  543W        W 4594   8.439   3.582   1.096  0.3083 -0.2977  0.0928
  544W        W 4595   1.266   5.742   2.257 -0.0524 -0.0128 -0.4569
  545W        W 4596   8.988   5.193  12.352  0.0601 -0.0953 -0.4186
  546W        W 4597   4.543   6.001   3.250  0.1260 -0.1624 -0.1973
  547W        W 4598   8.434   0.917   3.116  0.1678  0.1599  0.0437
  548W        W 4599   1.409   4.542   3.077 -0.4501 -0.1178  0.0201
  549W        W 4600  10.056   5.635  11.874  0.0462  0.1430  0.1954
  550W        W 4601   6.289   1.704   1.138 -0.0291 -0.1246  0.0300
  551W        W 4602   1.936   4.306   0.770 -0.0535  0.1662 -0.0848
  552W        W 4603   7.855   8.392   0.099 -0.2543  0.1266  0.0577
  553W        W 4604   6.541   4.448   3.380  0.2076  0.3088  0.0154
  554W        W 4605   0.495   2.551   0.710 -0.2273 -0.1989 -0.0160
  555W        W 4606   8.769   1.856  13.331  0.0604  0.2404  0.2077
  556W        W 4607   8.850  10.158   3.419  0.0757 -0.2162  0.0618
  557W        W 4608   8.542   8.639   3.284  0.1464  0.0529 -0.1281
  558W        W 4609   0.048   0.237  13.654 -0.0115  0.2451  0.0066
  559W        W 4610   6.793   4.267  10.263 -0.1784  0.0665  0.2563
  560W        W 4611   5.034   6.499  11.329 -0.1179 -0.3065 -0.0585
  561W        W 4612   8.285   1.802  11.560  0.1270  0.2046  0.3659
  562W        W 4613   9.859   3.122   0.237  0.1082  0.1942  0.1962
  563W        W 4614   4.091   7.493   1.871  0.0888 -0.1602  0.2637
  564W        W 4615   9.076   4.744   0.587 -0.1415 -0.0757 -0.2095
  565W        W 4616   5.800   0.256   4.323  0.2275  0.0110 -0.0633
  566W        W 4617   6.934   7.840  13.899  0.3229 -0.2168  0.3397
  567W        W 4618   7.518   7.116  11.197 -0.3440 -0.2481 -0.3705
  568W        W 4619   7.107   1.843   2.335 -0.3203 -0.1854  0.1275
  569W        W 4620   5.994   8.548   3.235 -0.0911 -0.3383 -0.1517
  570W        W 4621   0.049   0.031  10.795  0.2373 -0.1130  0.0701
  571W        W 4622   4.642   2.103   0.243  0.1917 -0.1710 -0.1215
  572W        W 4623   1.002   2.233  12.069  0.0182  0.1332 -0.1971
  573W        W 4624   6.467   3.280  10.428  0.0304 -0.0571 -0.1378
  574W        W 4625   5.942   6.186  11.869  0.1370 -0.1375 -0.2776
  575W        W 4626   0.281   1.680   4.091  0.2994  0.0995 -0.1717
  576W        W 4627   9.490   0.990   9.426  0.0304 -0.2265 -0.0239
  577W        W 4628   2.106   6.645   2.530  0.1748  0.0981  0.1898
  578W        W 4629   0.862   2.068   3.166 -0.0945 -0.0321 -0.2370
  579W        W 4630   0.878   0.996  13.340  0.1573  0.0483  0.1624
  580W        W 4631   4.009   3.173  10.726  0.0318  0.0766  0.1942
  581W        W 4632   5.608   2.717   2.349  0.0023  0.0218 -0.1033
  582W        W 4633   3.515   0.749  10.802 -0.0123 -0.0738 -0.0464
  583W        W 4634   5.985   0.205  11.951 -0.0972 -0.3129 -0.3183
  584W        W 4635   1.447   4.510   3.994 -0.2746  0.1002  0.2556
  585W        W 4636   4.196   3.425   1.543  0.3433  0.1903  0.0287
  586W        W 4637   2.114   0.479   2.974  0.2121  0.2185 -0.3896
  587W        W 4638   0.715   2.388   1.141  0.3852 -0.1049 -0.0685
  588W        W 4639   1.597   2.296  10.001  0.0448  0.1556  0.0709
  589W        W 4640   6.810   1.415   4.456  0.1904 -0.0129  0.0079
  590W        W 4641   8.615   7.461  12.037  0.0919  0.0253  0.0834
  591W        W 4642   2.322   1.541  11.349 -0.2229 -0.1609 -0.1428
  592W        W 4643   1.396   3.667   2.310  0.1256  0.0170  0.0062
  593W        W 4644   2.797   0.074   1.606 -0.1837 -0.1136 -0.4417
  594W        W 4645   7.805   0.745  13.515  0.0135  0.2049  0.2625
  595W        W 4646   5.287   5.558   1.993  0.0023 -0.1573 -0.1825
  596W        W 4647   3.804   4.025   1.923  0.1302 -0.4763  0.2124
  597W        W 4648   7.606   8.337   3.763  0.1381 -0.1816  0.1467
  598W        W 4649   7.995   0.990  12.437  0.0484 -0.1817 -0.0906
  599W        W 4650   0.973   8.747   2.239  0.1487 -0.1800 -0.4680
  600W        W 4651   7.718   2.499   9.371 -0.0129  0.3597 -0.0679
  601W        W 4652   9.687  10.143  13.027  0.1921 -0.3442  0.2319
  602W        W 4653   2.231   1.087  12.593 -0.3229 -0.1586 -0.0156
  603W        W 4654   8.999   1.301   3.726 -0.2023 -0.2384  0.2592
  604W        W 4655   4.822   3.438  13.706 -0.3123 -0.0552 -0.2176
  605W        W 4656   9.880   3.719  13.393 -0.0507  0.0310  0.0369
  606W        W 4657   1.169   4.232  11.300  0.0039  0.1786  0.2568
  607W        W 4658   8.398   7.107   3.425 -0.0558  0.2229  0.2100
  608W        W 4659   3.491   2.244  10.196  0.0638  0.0801 -0.1144
  609W        W 4660   5.634   5.374  13.395  0.3589 -0.2230 -0.1911
  610W        W 4661   7.249   3.532  12.147 -0.3510  0.0704 -0.1083
  611W        W 4662   3.556   5.790   2.351 -0.0473 -0.1739 -0.0162
  612W        W 4663   3.651   1.392   1.642 -0.0380 -0.1075 -0.1220
  613W        W 4664   4.276   9.272  13.024 -0.0476  0.1713 -0.1263
  614W        W 4665   3.782   2.641  12.303  0.1674 -0.3991 -0.1276
  615W        W 4666   5.487   0.173   1.939 -0.2584  0.1173 -0.0700
  616W        W 4667   0.163   1.621   0.512 -0.0112  0.4372  0.0306
  617W        W 4668   1.240   3.438   8.817 -0.0389 -0.0933  0.0972
  618W        W 4669   3.276   8.154   1.612  0.0659  0.0317  0.1150
  619W        W 4670   1.094   7.361  11.478 -0.0306 -0.2608  0.0009
  620W        W 4671   2.978   2.745   1.154  0.0500  0.0413 -0.4474
  621W        W 4672   2.992   1.339  11.396  0.0443  0.2134  0.1596
  622W        W 4673   0.616   1.583   0.289  0.1739  0.3951  0.1439
  623W        W 4674   6.768   2.241   0.392 -0.0095 -0.2008 -0.0183
  624W        W 4675   6.368   3.003  11.847  0.1131 -0.1726  0.0669
  625W        W 4676   4.236   2.598  11.932  0.1659  0.0896 -0.3251
  626W        W 4677   5.490   9.547  11.966  0.2168  0.1711  0.1194
  627W        W 4678   3.745  10.020   3.700 -0.0328 -0.3498  0.1813
  628W        W 4679   1.409   8.287   4.060 -0.1538 -0.1641  0.2987
  629W        W 4680   7.714   6.334   1.663  0.3757 -0.1628 -0.1954
  630W        W 4681   4.992   6.698  10.840  0.2830 -0.3943  0.0776
  631W        W 4682   1.472   3.982   9.565  0.1867  0.1005 -0.1924
  632W        W 4683   0.853   7.108   4.876  0.0369  0.0622 -0.5833
  633W        W 4684   5.355   1.866  10.407  0.0014 -0.4454  0.1094
  634W        W 4685   0.766   3.745  13.329 -0.1956  0.3231  0.3960
  635W        W 4686   7.550   4.319   2.081  0.0765 -0.4066 -0.0620
  636W        W 4687   7.843   7.335  10.901 -0.0688 -0.1642 -0.1146
  637W        W 4688   0.587   9.068   1.265 -0.1906  0.4271  0.1171
  638W        W 4689   8.632   0.606  12.447  0.0363  0.1487  0.2366
  639W        W 4690   9.277   6.601   3.196  0.0219 -0.1941 -0.1356
  640W        W 4691   3.953   7.867   0.739  0.1536 -0.0278 -0.1972
  641W        W 4692   3.651   7.489   4.189 -0.2284 -0.3291  0.0342
  642W        W 4693   5.372   5.389  12.901 -0.1192 -0.1140  0.0662
  643W        W 4694   2.278   7.564   0.837 -0.0760  0.3149 -0.2442
  644W        W 4695   3.480   4.142   2.386  0.1009  0.0063  0.0774
  645W        W 4696   4.985   8.152  11.636  0.1847 -0.0514  0.2276
  646W        W 4697   5.629   7.976  13.603 -0.0144  0.0562 -0.0605
  647W        W 4698   9.169   8.572  11.932  0.4343 -0.0086 -0.0674
  648W        W 4699   4.073   3.326   4.402 -0.3191 -0.3155  0.0474
  649W        W 4700   8.273   1.228   2.599  0.0876 -0.0588  0.4657
  650W        W 4701   2.878   2.872   2.753 -0.2371 -0.1848 -0.3042
  651W        W 4702   2.853   5.569   2.721  0.2036  0.5479 -0.0361
  652W        W 4703   1.094   8.944   1.414  0.2625  0.2749 -0.3397
  653W        W 4704   5.335   0.474   2.506 -0.1612  0.1155 -0.1532
  654W        W 4705   9.802   0.829  13.323  0.0046 -0.0449  0.3855
  655W        W 4706   4.375   2.714  10.411  0.1379 -0.0697  0.3034
  656W        W 4707   5.876   0.600   2.672 -0.1691  0.0326  0.2857
  657W        W 4708   9.729   4.567   2.273 -0.1077  0.4276  0.0290
  658W        W 4709   0.076   1.341  10.314 -0.2757 -0.2631 -0.1698
  659W        W 4710   3.630   7.038  12.214  0.2849  0.0282  0.0532
  660W        W 4711   1.193   8.958  13.500 -0.0428  0.0877  0.0174
  661W        W 4712   3.603   8.664  13.189  0.2532 -0.0356  0.1361
  662W        W 4713   3.001   4.509   9.940 -0.2441  0.3467 -0.1632
  663W        W 4714   4.050   1.117   1.809  0.0986  0.1765 -0.2774
  664W        W 4715   2.100   6.676   0.336  0.2833 -0.0987  0.1382
  665W        W 4716   4.244   6.501   4.126 -0.1205  0.1285 -0.1062
  666W        W 4717   1.251   1.919  10.160  0.1024  0.4596  0.0608
  667W        W 4718   9.613   9.566  13.080  0.1036  0.2323  0.2028
  668W        W 4719   9.545   1.013  13.786 -0.2872  0.0608 -0.3004
  669W        W 4720   8.374   6.926  12.726  0.0619  0.3636  0.2816
  670W        W 4721   3.506   4.908  11.659 -0.0182  0.0120 -0.0995
  671W        W 4722   7.653   4.242   1.565 -0.1104  0.3098  0.1323
  672W        W 4723   6.767   6.019  12.581 -0.3324  0.3669 -0.0049
  673W        W 4724   5.513   9.931   3.084  0.3031 -0.0608  0.0302
  674W        W 4725   4.477   0.890  11.764 -0.0142  0.1035  0.3147
  675W        W 4726   2.697   5.019   2.874 -0.2817  0.2915  0.0225
  676W        W 4727   7.248   8.230  11.915 -0.0797 -0.1425 -0.0667
  677W        W 4728   2.091   1.042   2.685 -0.1433  0.4649 -0.0508
  678W        W 4729   8.267   6.790   5.232 -0.0875 -0.1217  0.2047
  679W        W 4730   4.471   2.106   1.899  0.0306  0.1330 -0.4307
  680W        W 4731   3.353   1.623   2.830 -0.1011  0.0510 -0.0081
  681W        W 4732   8.897   4.080  10.009  0.0814  0.1015 -0.2713
  682W        W 4733   4.465   1.555   1.996 -0.0274  0.1660  0.1790
  683W        W 4734   8.007   9.864  13.789  0.1835 -0.2242  0.0531
  684W        W 4735   2.491   6.364   2.310 -0.1149  0.2485  0.0829
  685W        W 4736   8.639   1.494   3.432  0.2051  0.2125  0.0964
  686W        W 4737   9.541   9.440  10.959  0.1160 -0.2292 -0.2512
  687W        W 4738  10.174   1.232   3.535 -0.1432 -0.0572  0.2285
  688W        W 4739   8.889   8.749  10.724 -0.1435 -0.2466 -0.1630
  689W        W 4740   2.850   5.839   3.576  0.0612  0.0326  0.0314
  690W        W 4741   1.464   5.277  11.893 -0.1207 -0.2587  0.1351
  691W        W 4742   7.982   6.640  12.042  0.4456 -0.2806  0.0326
  692W        W 4743   7.419   8.270  13.228 -0.2184 -0.1297  0.3678
  693W        W 4744   6.272   6.967  13.201 -0.1647  0.1159 -0.3783
  694W        W 4745   8.596   3.824   0.124 -0.0946 -0.1428  0.3601
  695W        W 4746   6.146  10.185   2.843  0.0588 -0.1980  0.2256
  696W        W 4747  10.016   8.394  13.909  0.1588  0.2544 -0.2433
  697W        W 4748   5.143   0.191  11.514 -0.0741 -0.1056 -0.0421
  698W        W 4749   9.323   9.021   0.454  0.0651 -0.0745 -0.2265
  699W        W 4750   2.277   4.054   3.062  0.0178  0.1668 -0.0638
  700W        W 4751   4.868   5.486   1.362 -0.2056 -0.2458 -0.1168
  701W        W 4752   2.790   1.561  12.285  0.1631 -0.2350 -0.1361
  702W        W 4753   9.487   5.240  12.293  0.1267  0.0286 -0.2634
  703W        W 4754   2.572  10.059   1.163 -0.1715  0.0185  0.0592
  704W        W 4755   9.214   9.805  13.256 -0.0474  0.0335 -0.1319
  705W        W 4756   6.479   2.400  10.250  0.2544  0.0110 -0.2630
  706W        W 4757   7.578   8.474  10.683  0.0737  0.1911 -0.2223
  707W        W 4758   8.483   0.255   2.506  0.2870 -0.0174 -0.1095
  708W        W 4759   9.675   7.454   9.913  0.0333 -0.2289 -0.2262
  709W        W 4760   6.317   0.550   1.717  0.0620 -0.0506  0.1528
  710W        W 4761   7.588   2.064   3.740 -0.1232 -0.0678 -0.2893
  711W        W 4762   7.637   1.616   1.862  0.0969  0.2722 -0.0103
  712W        W 4763   8.040   4.498  13.441 -0.2491 -0.2928  0.1745
  713W        W 4764   9.226   8.602  11.403  0.1893 -0.0132 -0.0267
  714W        W 4765   2.628   4.271   1.542 -0.1345  0.2195  0.2249
  715W        W 4766   3.993   0.646  12.045  0.0277 -0.1505 -0.1260
  716W        W 4767   7.643   0.222   1.900  0.0679 -0.2669 -0.2345
  717W        W 4768   5.347   4.069   4.626  0.0855  0.4639  0.1964
  718W        W 4769   8.143   3.623   0.025 -0.0897 -0.0193  0.0682
  719W        W 4770   2.389   2.381  11.985  0.3513 -0.0665 -0.0141
  720W        W 4771   0.118   4.104   4.284 -0.1223  0.1966 -0.1434
  721W        W 4772   0.636   4.350  12.685 -0.1695 -0.3448 -0.1274
  722W        W 4773   2.503   2.730  13.365 -0.0688  0.1536  0.2297
  723W        W 4774   4.965   2.352  11.538 -0.1186 -0.3039 -0.0202
  724W        W 4775   7.112   5.568   0.794 -0.2333  0.0359 -0.0643
  725W        W 4776   3.924   9.019  11.979  0.0680  0.0044 -0.0931
  726W        W 4777   3.080   6.085  12.845 -0.3482  0.4176  0.1352
  727W        W 4778   3.284   0.828   5.177  0.1090 -0.2366 -0.0994
  728W        W 4779   8.519   4.526   3.125 -0.0555 -0.1325  0.1512
  729W        W 4780   6.591   0.731   3.091 -0.0632 -0.0616  0.0149
  730W        W 4781   5.702   9.950   2.117  0.3409 -0.3433  0.3661
  731W        W 4782   8.791   9.068   9.859 -0.3895  0.0823  0.2654
  732W        W 4783   7.503   9.674   8.967 -0.0395  0.1836  0.0648
  733W        W 4784   4.085   9.525   0.273 -0.3715 -0.2241  0.1936
  734W        W 4785   8.822   8.960   4.954  0.2309  0.0000  0.0615
  735W        W 4786   9.938   0.526  10.977  0.0794  0.3967 -0.1399
  736W        W 4787   0.967   3.210  13.641  0.3681 -0.0621 -0.0185
  737W        W 4788   7.347   2.892   2.268  0.0393  0.1282 -0.1566
  738W        W 4789   5.690   7.977   4.308 -0.0104 -0.0718 -0.2097
  739W        W 4790   5.637   3.871   1.935  0.0910  0.0258  0.0185
  740W        W 4791   4.821   6.762   0.338 -0.1234  0.0460  0.0582
  741W        W 4792   7.230   1.890  11.967  0.2061 -0.2100  0.1586
  742W        W 4793   5.549   6.906  10.295 -0.0474 -0.1453  0.1626
  743W        W 4794   8.750   9.776  11.674 -0.0465 -0.3911 -0.1035
  744W        W 4795   3.253   9.277   1.763  0.1637 -0.0572 -0.2968
  745W        W 4796   5.080   6.298   0.203 -0.0199 -0.0082 -0.0017
  746W        W 4797   2.875   4.637   4.392  0.1908 -0.1864  0.3273
  747W        W 4798   0.062   5.807  10.056  0.0742  0.0134 -0.0782
  748W        W 4799   6.653   1.794   2.584 -0.0320 -0.0172 -0.0106
  749W        W 4800   9.172   1.960   1.103  0.0533 -0.1980  0.0558
  750W        W 4801   4.749   9.576   1.739 -0.1967 -0.0489  0.0882
  751W        W 4802   9.919   5.027   8.635 -0.1708 -0.1786  0.0619
  752W        W 4803   2.304   7.089  10.460  0.1097  0.0290 -0.0110
  753W        W 4804   5.718   7.662   1.004  0.0621 -0.0069 -0.1760
  754W        W 4805   9.803   8.018  10.764 -0.1843 -0.0936  0.1173
  755W        W 4806   4.205   3.209  11.603 -0.0387 -0.0069  0.1316
  756W        W 4807   1.303   7.361   4.811 -0.0150  0.1522 -0.0511
  757W        W 4808   4.161   6.235  11.933  0.2436  0.0246  0.1580
  758W        W 4809   4.920   3.049  11.182  0.2863 -0.1127  0.1196
  759W        W 4810   3.946   4.841  11.486 -0.0677 -0.0121  0.0054
  760W        W 4811   1.967   5.087  11.690  0.0297 -0.1689 -0.0269
  761W        W 4812   0.584   4.866  12.111  0.2055 -0.3438 -0.0287
  762W        W 4813   0.225   3.635  11.683 -0.1192 -0.1045  0.1919
  763W        W 4814   4.438   3.195   4.088  0.0610 -0.1451 -0.0315
  764W        W 4815   9.241   0.516  12.192 -0.0145 -0.1516 -0.3070
  765W        W 4816   1.165   5.311   3.043 -0.1633  0.1077 -0.0244
  766W        W 4817   1.709   9.878  13.757 -0.3025  0.1594  0.1041
  767W        W 4818   8.882   8.925  11.261 -0.3215 -0.1515  0.0667
  768W        W 4819   6.554   0.336   4.345  0.4309  0.0712 -0.4606
  769W        W 4820   4.685  10.143   2.144  0.3429  0.2358 -0.0417
  770W        W 4821   8.186   5.920  13.381  0.1712  0.1275 -0.2558
  771W        W 4822   3.502   6.245  11.471  0.0067 -0.0285  0.0343
  772W        W 4823   2.959   9.043  11.954  0.0027  0.1349 -0.0400
  773W        W 4824   9.330   4.551  11.297  0.1014  0.2111  0.1310
  774W        W 4825   2.701   8.133  13.271  0.0290 -0.0382  0.1562
  775W        W 4826   3.036   7.770  13.003  0.2164 -0.1055  0.1796
  776W        W 4827   2.665   1.207   3.279 -0.0914 -0.0137 -0.1337
  777W        W 4828   5.593   3.730   1.402 -0.0124  0.0401 -0.2049
  778W        W 4829   9.953   6.423   2.630  0.1377 -0.1964  0.2182
  779W        W 4830   1.231   3.931  10.884  0.0440 -0.0672 -0.2093
  780W        W 4831   0.559   9.565  13.796 -0.4320 -0.0081  0.1153
  781W        W 4832   8.513   6.263   0.627 -0.0994 -0.3390 -0.0487
  782W        W 4833   1.970   7.521  11.409 -0.1326 -0.0449  0.0796
  783W        W 4834   5.299   7.939  10.959 -0.2230  0.1291  0.0051
  784W        W 4835   7.412   3.915   3.278 -0.1617  0.1417  0.3501
  785W        W 4836   1.172   6.451   4.425 -0.0760  0.1338 -0.0160
  786W        W 4837   9.969   7.004  10.772 -0.2188  0.2188 -0.1027
  787W        W 4838   6.135   1.728   4.321 -0.1713  0.1625  0.0922
  788W        W 4839   5.767   1.061  11.480  0.3735  0.0300  0.0028
  789W        W 4840   2.799   6.088   1.908  0.2034 -0.2937 -0.1801
  790W        W 4841   2.370   4.612   1.873 -0.1476 -0.0528  0.1008
  791W        W 4842   1.935   9.228   3.272  0.0267 -0.1293  0.1173
  792W        W 4843   3.524   0.771   1.819 -0.1016  0.1591  0.0702
  793W        W 4844   9.240   3.258  10.453  0.1420  0.2894 -0.1538
  794W        W 4845   3.767  10.201  11.362  0.1438 -0.0605 -0.0877
  795W        W 4846   7.810   8.435   0.590  0.0802 -0.1908 -0.1782
  796W        W 4847   3.371   4.365  12.818 -0.1307 -0.0973  0.1041
  797W        W 4848   1.110   8.231   2.135 -0.2178 -0.1988  0.0354
  798W        W 4849   9.835   5.679   3.375 -0.2409 -0.0418 -0.1489
  799W        W 4850   4.234   2.724  11.429  0.2909 -0.1580 -0.4532
  800W        W 4851   9.519   9.318  10.013 -0.2579  0.1131  0.2277
  801W        W 4852   5.003   2.570   1.106 -0.1908  0.0127 -0.3036
  802W        W 4853   6.955   1.309   3.452  0.1638 -0.0869  0.1589
  803W        W 4854   9.098   9.825  12.301 -0.1450  0.2754 -0.2980
  804W        W 4855   8.556   0.475   1.196  0.3680 -0.0391  0.0592
  805W        W 4856   9.075   2.294   9.600 -0.0247 -0.2561  0.1324
  806W        W 4857   5.028   8.887  11.971 -0.0637  0.0851  0.0845
  807W        W 4858   0.884   3.661   9.060  0.0233  0.0301 -0.3355
  808W        W 4859   0.941   6.194   2.592  0.1304  0.2361 -0.1726
  809W        W 4860   2.944   2.457   2.435 -0.1819 -0.2595 -0.1553
  810W        W 4861   8.115   8.270   3.375 -0.0326  0.0314 -0.1199
  811W        W 4862   4.972   5.264  10.754 -0.1440  0.0826  0.1245
  812W        W 4863   8.221   8.694  11.768  0.0652 -0.1070  0.0021
  813W        W 4864  10.155   1.852  10.902 -0.0275  0.3920  0.1097
  814W        W 4865   4.646   4.794  10.985 -0.2991 -0.1249 -0.0273
  815W        W 4866   8.161   7.311  11.308 -0.1239 -0.0755  0.1159
  816W        W 4867   4.108   6.130   0.546  0.1323 -0.0073 -0.1479
  817W        W 4868   4.245   4.169  13.776  0.0195 -0.1441 -0.4664
  818W        W 4869   3.042   6.964   2.823  0.0156  0.1444  0.0928
  819W        W 4870  10.181   1.874  10.407  0.1354  0.0149 -0.3252
  820W        W 4871   1.318   4.855  13.661 -0.0201 -0.2309 -0.2633
  821W        W 4872   8.920   9.408  12.051 -0.1275  0.1494  0.0440
  822W        W 4873   6.934   8.154   9.164 -0.3359  0.2354  0.0983
  823W        W 4874   4.860   0.975  11.455  0.1255 -0.1823  0.1402
  824W        W 4875   9.233   6.684   9.296 -0.1777 -0.0552 -0.0199
  825W        W 4876   8.192   9.042   4.187 -0.0349 -0.0227 -0.2372
  826W        W 4877   4.295  10.119  13.195  0.1334  0.1772 -0.2338
  827W        W 4878   7.629   0.495   1.049  0.2428 -0.1638  0.0308
  828W        W 4879   3.591   1.177   8.252 -0.2847 -0.3516  0.0742
  829W        W 4880   7.523   3.645  13.176  0.0431  0.0195 -0.1833
  830W        W 4881   8.408   3.790  12.289 -0.1342 -0.0591 -0.0156
  831W        W 4882   4.871   0.203   4.101  0.2380 -0.2085 -0.0359
  832W        W 4883   2.824   4.153  10.724 -0.0550  0.2359  0.0837
  833W        W 4884   3.030   6.209  13.492  0.0910 -0.1049 -0.2029
  834W        W 4885   9.544   7.790  12.866 -0.1504 -0.3052 -0.0162
  835W        W 4886   9.053   8.455   4.932  0.2252 -0.0164  0.0691
  836W        W 4887   7.127   1.235  12.148  0.4760 -0.0876 -0.0881
  837W        W 4888   9.133   9.724   3.315  0.1062  0.0051 -0.3416
  838W        W 4889   7.048   7.466   1.171  0.0553  0.0142 -0.0108
  839W        W 4890   7.585   5.750   2.994  0.3978 -0.0911  0.1661
  840W        W 4891   2.808   5.064  13.244 -0.3510  0.0942 -0.1553
  841W        W 4892   8.709   5.767   4.566  0.2483  0.1478  0.0199
  842W        W 4893   8.903   2.557   5.137 -0.0476 -0.0217  0.0850
  843W        W 4894   0.254   1.491   0.996 -0.1374  0.0146 -0.2162
  844W        W 4895   7.969   6.860   3.937 -0.0423 -0.2808  0.0504
  845W        W 4896   1.631   5.005   3.800  0.0693 -0.1792  0.1425
  846W        W 4897   1.092   4.696   2.385  0.0423  0.2098 -0.0654
  847W        W 4898   0.250   0.769  11.107  0.0155 -0.3032  0.0561
  848W        W 4899   2.625   5.533  12.399 -0.1401 -0.0869  0.3550
  849W        W 4900   9.149   8.638   2.315  0.2289  0.1164  0.0123
  850W        W 4901   6.330  10.015   4.192 -0.1002 -0.0737  0.1283
  851W        W 4902   9.976   1.676   2.575 -0.2777 -0.1524 -0.0126
  852W        W 4903   2.414   6.312   2.930 -0.0361  0.2170  0.0467
  853W        W 4904   0.541   0.849   4.274  0.2616 -0.1794 -0.2588
  854W        W 4905   9.619   7.115  13.680 -0.3299  0.2979  0.0440
  855W        W 4906   9.214   7.187   2.376 -0.0959 -0.0528  0.3255
  856W        W 4907   4.962   2.893  10.687 -0.1130  0.2373 -0.0402
  857W        W 4908   2.791   8.374   3.411 -0.0715 -0.2887 -0.1322
  858W        W 4909   6.048   5.291  11.445  0.2060  0.3872 -0.2763
  859W        W 4910   5.628   7.742  10.380 -0.0679  0.1630 -0.1782
  860W        W 4911   3.143   0.576   8.749 -0.2285  0.3478  0.2288
  861W        W 4912   3.782   7.246  10.923  0.1109 -0.1451  0.0505
  862W        W 4913   0.300   8.030   1.917 -0.1994  0.0328  0.1252
  863W        W 4914   3.332   1.099  13.491  0.0812 -0.2431  0.2653
  864W        W 4915   7.824   2.220  13.887 -0.2543 -0.1384  0.0639
  865W        W 4916   3.636   3.945  12.744 -0.2404 -0.2149 -0.0908
  866W        W 4917   9.085   6.056   4.403 -0.0614 -0.2690 -0.0878
  867W        W 4918   6.928   1.657  10.021 -0.1198  0.3154 -0.1974
  868W        W 4919   4.276   7.656  13.696  0.0708  0.0136 -0.1037
  869W        W 4920   4.869   4.508  13.640  0.1709 -0.0762 -0.0964
  870W        W 4921   5.549   8.732   3.448 -0.0976 -0.0491 -0.1562
  871W        W 4922   5.154   7.438  13.825  0.1319 -0.0201 -0.1050
  872W        W 4923   5.384   9.944  11.511  0.1542 -0.1009 -0.4376
  873W        W 4924   2.084   5.096   9.408  0.2936 -0.2735 -0.1660
  874W        W 4925   9.568   7.401  13.155  0.0635 -0.0089 -0.0808
  875W        W 4926   5.688   1.150  13.012  0.1714  0.0137  0.3042
  876W        W 4927   0.689   4.381  12.047 -0.0099 -0.2057  0.0013
  877W        W 4928   8.543   1.776  12.681 -0.0797 -0.0928 -0.1590
  878W        W 4929   5.474   5.425   1.574  0.3984 -0.1509  0.1661
  879W        W 4930   3.743   9.344  13.369 -0.3569  0.4732 -0.0554
  880W        W 4931   3.370   5.252   4.455 -0.1162  0.0426 -0.3700
  881W        W 4932   2.605   5.321  10.396  0.1896  0.0343 -0.0216
  882W        W 4933   3.690   1.288   9.761  0.3020 -0.0007 -0.0290
  883W        W 4934   5.230   4.192   3.567  0.2695 -0.1624 -0.1909
  884W        W 4935   7.299   0.523   0.354 -0.1679  0.0174  0.0846
  885W        W 4936   9.440   2.978  12.257  0.1488  0.0260  0.2116
  886W        W 4937   1.615   9.779  12.389 -0.0652  0.1083  0.0546
  887W        W 4938   0.122   2.738   2.607  0.1351  0.1345 -0.1236
  888W        W 4939   5.387   8.482   1.222  0.1152 -0.1207  0.1258
  889W        W 4940   1.690   0.172  10.051 -0.0704  0.1039  0.2487
  890W        W 4941   6.875   0.795  11.504 -0.1946  0.0321  0.1453
  891W        W 4942   4.417  10.168   4.076  0.0530  0.2366 -0.3806
  892W        W 4943   5.706   8.808  13.888 -0.1505 -0.0822  0.1547
  893W        W 4944   7.841   9.248   4.941 -0.0481  0.1878 -0.2739
  894W        W 4945   4.727   1.613  12.824  0.1661  0.0525 -0.0496
  895W        W 4946   2.249   9.732  13.327 -0.1409  0.1355 -0.0712
  896W        W 4947   7.869   1.803  13.462 -0.0002  0.1240  0.0011
  897W        W 4948   7.879   5.482  13.509  0.2289 -0.2056  0.0440
  898W        W 4949   7.272   1.197   9.185  0.1473 -0.1246 -0.0567
  899W        W 4950   9.214   1.709  13.429  0.1060  0.1864 -0.1072
  900W        W 4951   3.985   7.823  13.328 -0.1493 -0.1393 -0.0080
  901W        W 4952   9.092   1.825  12.308  0.3339  0.2014 -0.1009
  902W        W 4953   3.749   1.782   5.406 -0.2760  0.0763  0.3214
  903W        W 4954   0.236   7.309  10.735 -0.0411 -0.2337  0.1049
  904W        W 4955   0.922   2.293   0.612  0.0299  0.0219  0.1272
  905W        W 4956   6.618   6.194   3.411 -0.2928  0.3438 -0.0889
  906W        W 4957   1.935   3.248  12.113 -0.0455 -0.0826 -0.0982
  907W        W 4958   6.654   7.612  12.672  0.0030  0.2789  0.2628
  908W        W 4959   6.239   0.956   2.798 -0.1105 -0.0926 -0.1106
  909W        W 4960   2.958   0.660   1.720 -0.0187  0.0942 -0.0640
  910W        W 4961   0.378  10.107   2.175  0.1893 -0.0492  0.1538
  911W        W 4962   3.498   8.742  11.412  0.3042  0.0215 -0.1829
  912W        W 4963   3.766   7.980   4.046 -0.0012  0.2183 -0.1917
  913W        W 4964   8.538   1.498   2.248  0.1700 -0.0401 -0.0289
  914W        W 4965   0.966   6.366   1.004  0.1490  0.3143  0.0554
  915W        W 4966   8.416   5.450   0.231 -0.0648  0.1813  0.1668
  916W        W 4967   0.716   7.470   2.263  0.2231  0.1564 -0.0924
  917W        W 4968   2.386   5.407  13.320  0.0725  0.3228  0.1156
  918W        W 4969   4.189   2.726  13.855  0.2635 -0.3426  0.3125
  919W        W 4970   5.451   1.216  10.056 -0.3160  0.1855 -0.0497
  920W        W 4971   3.488   2.162  11.678 -0.1635 -0.3569  0.1021
  921W        W 4972  10.124   4.382   1.317  0.0090  0.3917  0.0030
  922W        W 4973   3.138   5.240  10.731 -0.1611  0.4386  0.1536
  923W        W 4974   6.249   7.800   2.828 -0.0410  0.0514  0.2245
  924W        W 4975   9.185   5.646   2.222  0.4090 -0.0321 -0.3146
  925W        W 4976   0.604   3.382   0.993 -0.1172  0.0284 -0.3654
  926W        W 4977   1.537   2.788   4.357  0.2951  0.1705 -0.1484
  927W        W 4978   8.553   8.738   9.408  0.2480  0.0666 -0.1182
  928W        W 4979   7.606   2.637  10.479  0.0860  0.2070 -0.0569
  929W        W 4980   9.654   0.668   1.867 -0.2886  0.4445  0.0601
  930W        W 4981   2.822   5.453   3.232  0.0851 -0.1431 -0.3221
  931W        W 4982   1.353   3.631   0.531  0.0861 -0.0830 -0.1983
  932W        W 4983   0.623   8.468   3.501  0.0029  0.3963  0.0455
  933W        W 4984   4.680   6.232  12.127  0.2445  0.1328 -0.1111
  934W        W 4985   9.339   9.638   4.364  0.1349 -0.1211  0.2098
  935W        W 4986   6.839   5.356   1.238  0.0088  0.0715 -0.3544
  936W        W 4987   9.233   2.912   5.560 -0.2267  0.2042  0.1383
  937W        W 4988   2.649   6.917  13.017  0.1919 -0.0053 -0.1426
  938W        W 4989   3.632   9.906  13.747 -0.2333 -0.1339 -0.2255
  939W        W 4990   3.870   3.843  13.691  0.0237  0.1724  0.1141
  940W        W 4991   4.038   9.037   2.444  0.0929  0.1398 -0.2418
  941W        W 4992   0.838   8.785  12.688  0.0580 -0.1352  0.2029
  942W        W 4993   7.826   8.863  11.385 -0.2282 -0.0494 -0.0445
  943W        W 4994   5.309   9.453   1.151 -0.0054 -0.0017  0.2645
  944W        W 4995   3.630   6.292   1.529  0.0558  0.0374 -0.0582
  945W        W 4996   5.313   1.353  10.631  0.1766  0.3644 -0.0259
  946W        W 4997   1.838   1.521   2.704  0.1286  0.0025 -0.1864
  947W        W 4998   7.797   0.541   4.729  0.1642  0.0892  0.2357
  948W        W 4999   4.117   8.798  13.118  0.0043 -0.4005  0.1372
  949W        W 5000   2.605   4.466  12.470 -0.3975  0.3302  0.0967
  950W        W 5001   8.400   0.724   2.593  0.1661  0.0491  0.1197
  951W        W 5002   3.615   7.786  12.212  0.1568 -0.2094  0.1958
  952W        W 5003   5.716   5.504   0.007  0.1251 -0.0495  0.1735
  953W        W 5004   1.284   1.470   2.783 -0.0123 -0.0350  0.0202
  954W        W 5005   4.300   1.761  12.600  0.0582 -0.1514 -0.0739
  955W        W 5006   5.961   9.574   2.288 -0.2012  0.1060 -0.1832
  956W        W 5007   7.519   0.125   4.791 -0.1578  0.5215 -0.1485
  957W        W 5008   1.244   6.700   0.372  0.2572 -0.0557  0.2760
  958W        W 5009   9.540   4.895   4.844 -0.2636  0.4619  0.0590
  959W        W 5010   2.757   6.786   4.338  0.0029 -0.1214 -0.0501
  960W        W 5011   6.219   4.036   5.198  0.0269 -0.1150  0.1881
  961W        W 5012   0.924   4.544  11.542 -0.5498  0.0027  0.2269
  962W        W 5013   4.709   3.614   4.183  0.0126  0.0507  0.0481
  963W        W 5014   9.671   3.397   3.100 -0.2176  0.1101 -0.0612
  964W        W 5015   7.334   2.429   0.893  0.2599 -0.0717  0.1294
  965W        W 5016   0.705   4.636  13.073 -0.0299 -0.0001 -0.2588
  966W        W 5017   9.083   9.428  11.342  0.0577 -0.2903  0.2456
  967W        W 5018   5.378   2.811   1.942  0.0490 -0.4407 -0.0818
  968W        W 5019   2.468   5.922   1.514 -0.1748 -0.3080 -0.1024
  969W        W 5020   4.321   5.029   0.048 -0.0869  0.3875  0.1342
  970W        W 5021   6.026   9.112  11.472  0.1561  0.0802 -0.0725
  971W        W 5022   1.741   3.045  13.580  0.5618 -0.1138 -0.1880
  972W        W 5023   7.952   4.110   2.483 -0.1878  0.2247  0.1893
  973W        W 5024   2.669   2.953   4.373 -0.1395  0.0460 -0.1955
  974W        W 5025   6.916   0.114   0.472  0.2845  0.1159  0.0741
  975W        W 5026   4.379   5.538   0.207 -0.2737  0.0173  0.1233
  976W        W 5027   0.390   3.733   4.449 -0.0342  0.1372 -0.0202
  977W        W 5028   3.819   6.443  12.725  0.0054  0.0395  0.2855
  978W        W 5029   3.657   1.454   8.667  0.0726  0.1969 -0.1299
  979W        W 5030   1.551   2.702  12.880 -0.0515  0.1581 -0.0135
  980W        W 5031   8.173   5.890   3.934  0.2001 -0.1251 -0.1693
  981W        W 5032   4.709   7.545  12.647  0.0735  0.1485 -0.0455
  982W        W 5033   2.586   7.851   4.625  0.0466 -0.3017  0.2738
  983W        W 5034   3.122   3.180  13.031 -0.1772 -0.0751  0.0501
  984W        W 5035   1.242   0.519   0.721  0.2716  0.0337 -0.0421
  985W        W 5036   3.951   0.304  13.334  0.1468 -0.0244  0.0642
  986W        W 5037   7.905   7.392   1.885 -0.0281  0.2304  0.3028
  987W        W 5038   8.254   7.082   9.152 -0.2641  0.3100 -0.0634
  988W        W 5039   5.996   7.457   3.685 -0.1102 -0.2611  0.0009
  989W        W 5040   7.742   4.210   0.652 -0.0826 -0.4793 -0.0189
  990W        W 5041   3.924   1.026  11.691  0.1976 -0.4286 -0.2325
  991W        W 5042   7.527   7.238   0.005 -0.0028 -0.1152 -0.1371
  992W        W 5043   0.015   8.318  10.573 -0.1798  0.3998  0.0427
  993W        W 5044   6.839   0.434  13.818  0.0844  0.0009  0.3038
  994W        W 5045   1.727   0.664   2.614  0.1985 -0.2441 -0.2114
  995W        W 5046   4.396   3.553  12.375 -0.1893  0.0420  0.1785
  996W        W 5047   5.669   1.749   1.990  0.2188 -0.1039  0.2407
  997W        W 5048   6.195   8.510   0.066  0.2608  0.0424  0.2331
  998W        W 5049   9.875   5.966   1.454  0.1567  0.0955  0.2619
  999W        W 5050   6.511   1.424  13.271 -0.0169  0.2249  0.1262
 1000W        W 5051   5.878   8.400  13.619 -0.2125  0.0433 -0.1562
 1001W        W 5052   0.065   1.279   9.759 -0.1895  0.1287 -0.1300
 1002W        W 5053   7.210   8.763  13.323 -0.0469  0.1427 -0.0978
 1003W        W 5054   1.953   9.805   2.489 -0.0948  0.3059  0.2093
 1004W        W 5055   3.419   0.252   9.621  0.0304  0.0310  0.3344
 1005W        W 5056   2.678   9.365   3.104  0.2378 -0.0915 -0.0086
 1006W        W 5057   1.743   4.425  10.463 -0.1172 -0.1408 -0.2894
 1007W        W 5058   4.010   3.728  13.260  0.1339 -0.1169 -0.0352
 1008W        W 5059   1.050   5.051  12.257  0.0857  0.2573  0.0877
 1009W        W 5060   8.528   9.849   9.086 -0.0175  0.2682  0.0353
 1010W        W 5061   4.117   4.227   0.905  0.0386 -0.0460  0.0586
 1011W        W 5062   7.507  10.199   3.407  0.0390  0.2758 -0.0815
 1012W        W 5063   7.938   6.003  12.417 -0.1493  0.0469  0.1563
 1013W        W 5064   7.510   7.442   1.634  0.3076 -0.1224 -0.2215
 1014W        W 5065  10.112   5.041  11.647 -0.0289 -0.0115 -0.0184
 1015W        W 5066   0.009   3.121   3.455 -0.1044 -0.1523 -0.0370
 1016W        W 5067   2.070   2.262   0.037 -0.1590 -0.0526  0.3952
 1017W        W 5068   8.274   5.345   5.002  0.0207  0.0660 -0.2835
 1018W        W 5069   3.789   0.823  13.353 -0.1800  0.1415  0.0537
 1019W        W 5070   0.495   4.897   4.883 -0.2247  0.3742  0.1177
 1020W        W 5071   4.816   5.830   0.995  0.2619  0.0664  0.1813
 1021W        W 5072   6.372   6.116  11.236 -0.0383 -0.0667  0.2660
 1022W        W 5073   6.463   8.687  10.929 -0.2089  0.4332 -0.0690
 1023W        W 5074   4.034   6.778   2.414  0.0332  0.0565 -0.0340
 1024W        W 5075   0.758   8.830  10.557  0.0584 -0.0239 -0.0383
 1025W        W 5076   7.773   4.742   5.236  0.0639  0.0262 -0.0759
 1026W        W 5077   0.054   2.067   2.673  0.0562 -0.1918  0.0048
 1027W        W 5078   5.948   9.338  12.038 -0.1310  0.0049  0.0845
 1028W        W 5079   1.775   4.675  13.770  0.0650  0.1497 -0.2267
 1029W        W 5080   3.579   8.607   1.830 -0.1361  0.0878 -0.0723
 1030W        W 5081   9.014   7.786   0.329 -0.1756 -0.1160 -0.3179
 1031W        W 5082   6.307   0.783   0.646  0.2012  0.2389  0.1596
 1032W        W 5083   2.896   5.666   1.064 -0.0436 -0.0521 -0.1333
 1033W        W 5084   8.436   7.986  10.818  0.1797 -0.0746 -0.0647
 1034W        W 5085   0.439   7.044   3.983  0.0819  0.0734 -0.0889
 1035W        W 5086   3.708   5.160   4.112 -0.1014 -0.1122 -0.0671
 1036W        W 5087   0.336   9.606  13.172 -0.2084 -0.0716 -0.5509
 1037W        W 5088   7.108   1.764  10.518 -0.2945 -0.2567 -0.0501
 1038W        W 5089   9.766   5.074  11.950  0.2259  0.2734  0.0155
 1039W        W 5090   0.065   5.088  11.142  0.3969 -0.0019 -0.1150
 1040W        W 5091   0.513   6.443   9.728 -0.4254 -0.0552  0.1813
 1041W        W 5092   1.341   0.549   5.155  0.0996  0.0485  0.2817
 1042W        W 5093   5.837   8.827  12.420  0.0323  0.1234  0.0142
 1043W        W 5094   2.259   8.266  12.208  0.0703  0.0526 -0.0116
 1044W        W 5095   2.879   8.640  10.111  0.0290 -0.2177  0.1155
 1045W        W 5096   4.163   9.088   3.522  0.3123  0.2898 -0.0665
 1046W        W 5097   0.291   6.498  13.926  0.5730  0.0085 -0.1018
 1047W        W 5098   6.683   6.589  10.970 -0.0253  0.3658  0.1915
 1048W        W 5099   5.696   2.306   1.518  0.0164 -0.1219  0.1387
 1049W        W 5100   1.363   7.160   3.128  0.0212  0.2331 -0.2084
 1050W        W 5101   6.812   8.369  10.790 -0.0073  0.4107 -0.0863
 1051W        W 5102   5.267   2.967  13.237 -0.0244 -0.2435  0.1603
 1052W        W 5103   0.606   6.273  11.671 -0.0486  0.0177 -0.0731
 1053W        W 5104   8.938   8.853   0.804 -0.3320 -0.1581  0.1799
 1054W        W 5105   6.808   6.905   3.092 -0.2177  0.0809  0.0192
 1055W        W 5106   3.019   2.668   8.772  0.1230 -0.1103 -0.0547
 1056W        W 5107   7.016  10.022   2.578  0.2196 -0.1501  0.0990
 1057W        W 5108   8.018   9.745  10.202 -0.1680  0.1740 -0.0600
 1058W        W 5109   7.342   4.064  12.913 -0.1211 -0.1661  0.0367
 1059W        W 5110   0.839   6.010   2.102  0.1884  0.0655 -0.2168
 1060W        W 5111   2.046   5.653   1.447 -0.2047  0.0699 -0.1306
 1061W        W 5112   6.089   6.322   2.183 -0.0425  0.0882 -0.2209
 1062W        W 5113   9.080   3.058   4.950 -0.0936  0.1988 -0.1352
 1063W        W 5114   4.662   4.430   0.116 -0.0881  0.1052  0.0697
 1064W        W 5115   6.634   0.990   3.620 -0.4748 -0.0052  0.3043
 1065W        W 5116   0.867   2.384  13.141  0.1982  0.0097 -0.2415
 1066W        W 5117   4.910  10.100   9.720  0.2202 -0.0929  0.0597
 1067W        W 5118   0.997   7.972   9.089  0.0015  0.4106 -0.0367
 1068W        W 5119   7.156   3.396  13.505  0.2998  0.1159  0.0924
 1069W        W 5120   2.682   1.064   1.564  0.0614 -0.2113  0.0269
 1070W        W 5121   0.815   6.763   3.088  0.0088  0.1350  0.0039
 1071W        W 5122   0.801   6.858   9.590 -0.0806  0.0270 -0.1524
 1072W        W 5123   9.811   6.539   1.814 -0.0978 -0.0010  0.0443
 1073W        W 5124   9.407   4.047   0.086 -0.0867 -0.0257 -0.1754
 1074W        W 5125   1.383   9.911  11.165  0.0358  0.0042  0.1388
 1075W        W 5126   6.226  10.113  12.801 -0.1409 -0.0038  0.2479
 1076W        W 5127   0.329   7.048   0.255  0.2341 -0.0717  0.2706
 1077W        W 5128   6.512   3.451  11.087  0.2250 -0.2003  0.4887
 1078W        W 5129   0.783  10.148  12.652 -0.2678  0.0786 -0.0663
 1079W        W 5130   7.463   8.974   1.876 -0.0165 -0.1271  0.3656
 1080W        W 5131   3.828   8.652  12.723  0.0940 -0.0505  0.0324
 1081W        W 5132   7.170   1.867   9.585 -0.2414 -0.2468  0.2224
 1082W        W 5133   2.738   1.296   8.714  0.0746 -0.0980  0.0797
 1083W        W 5134   0.832   0.812   9.864  0.1074 -0.1406  0.2354
 1084W        W 5135   1.530   7.702  11.340 -0.0061 -0.0716  0.3943
 1085W        W 5136   0.091   0.699   1.666  0.0633  0.0653 -0.2693
 1086W        W 5137   4.391   9.330  11.298  0.1028  0.3583  0.0615
 1087W        W 5138   9.051   2.538  13.032 -0.1317  0.1137 -0.1158
 1088W        W 5139   2.971   4.981   0.579  0.3043  0.0633  0.1636
 1089W        W 5140   9.890   0.576  13.791  0.4505 -0.2458  0.0736
 1090W        W 5141   8.839   2.236  12.441  0.1327  0.0650 -0.2264
 1091W        W 5142   2.034   8.747   9.982  0.0157  0.0383  0.0646
 1092W        W 5143   2.119   9.115  12.592 -0.4412  0.0035 -0.0774
 1093W        W 5144   9.471   4.125   8.178  0.0550  0.2606 -0.1793
 1094W        W 5145   8.917   6.021  12.278  0.0046 -0.1379 -0.0072
 1095W        W 5146   6.815   9.240   9.279 -0.0491  0.1514 -0.0057
 1096W        W 5147   6.556   7.278   0.214 -0.2384 -0.1116  0.0656
 1097W        W 5148   8.297   3.319   4.403  0.5598 -0.1385  0.0101
 1098W        W 5149   1.384   2.619   4.816  0.0772 -0.0018 -0.0663
 1099W        W 5150   3.735   5.940   2.767  0.0672 -0.2155 -0.1561
 1100W        W 5151   7.335   8.084  10.877 -0.2597  0.0259 -0.0307
 1101W        W 5152   8.469   0.270  11.586 -0.1334  0.0409  0.0060
 1102W        W 5153   6.653  10.190  13.925 -0.2129 -0.4755  0.2383
 1103W        W 5154   7.699   9.402   1.006 -0.0003 -0.2341 -0.1004
 1104W        W 5155   6.251   7.677   0.506  0.1577  0.3077  0.1995
 1105W        W 5156   4.824   7.881  12.191 -0.2176 -0.2992  0.3781
 1106W        W 5157   9.305   7.284  11.781  0.1569  0.1474  0.1634
 1107W        W 5158   0.710   9.254  12.457  0.0344  0.4936  0.0020
 1108W        W 5159   8.446   9.201  13.020 -0.0775  0.4438  0.3325
 1109W        W 5160   4.250   9.940   3.685  0.0877  0.5659 -0.3967
 1110W        W 5161   1.899   4.815   3.151 -0.2308  0.2735 -0.0106
 1111W        W 5162   2.298   8.807  13.126 -0.2909 -0.1827  0.1601
 1112W        W 5163   0.980   2.645  13.597  0.1655 -0.0891 -0.0770
 1113W        W 5164   8.492   3.531   0.492 -0.1995  0.1641  0.0224
 1114W        W 5165   2.093   1.720   1.639 -0.1795  0.2751 -0.2798
 1115W        W 5166   0.912   9.516  12.015 -0.1976  0.2583  0.2657
 1116W        W 5167   9.316   7.483   2.791 -0.0940 -0.2520 -0.0642
 1117W        W 5168   3.555   9.150   8.971  0.1811 -0.1819  0.3485
 1118W        W 5169   4.710   2.564   5.373  0.1419 -0.4461  0.1129
 1119W        W 5170   7.455   0.362  12.714  0.1881 -0.0253  0.0369
 1120W        W 5171   3.065   5.808  12.395 -0.1169  0.0619 -0.0737
 1121W        W 5172   4.777   1.751   1.702 -0.1576  0.1341  0.0368
 1122W        W 5173   5.456   0.492   0.601  0.0847 -0.1619 -0.1331
 1123W        W 5174   9.660   2.341   3.311  0.6034  0.3479  0.3042
 1124W        W 5175   3.078   4.094   1.825  0.0727 -0.0353 -0.3320
 1125W        W 5176   0.920   9.598   8.851 -0.0759  0.1951  0.0220
 1126W        W 5177   3.665   2.469   0.080 -0.0897 -0.0074  0.2162
 1127W        W 5178   1.732   0.728   0.099  0.0712  0.2671 -0.0776
 1128W        W 5179   9.555   8.283  12.494  0.1956  0.0241  0.1192
 1129W        W 5180   2.784   3.839  13.752 -0.0131 -0.1902 -0.3398
 1130W        W 5181   7.903   7.939  12.265  0.0908 -0.0405 -0.2556
 1131W        W 5182   8.645   0.594   2.173 -0.0025  0.1862  0.0444
 1132W        W 5183   0.182   3.704  10.691 -0.2114 -0.2140  0.0323
 1133W        W 5184   9.532   0.438   4.572 -0.0657  0.2201  0.0969
 1134W        W 5185   9.975   2.141   9.753  0.2238  0.2883 -0.2315
 1135W        W 5186   1.987   4.410  13.293 -0.1179 -0.1261 -0.1078
 1136W        W 5187   5.688   1.147  13.465 -0.1098  0.2404 -0.3551
 1137W        W 5188   0.350   5.008   3.250 -0.0854 -0.1497  0.0070
 1138W        W 5189   7.641   6.701  10.987  0.1276 -0.1019 -0.1674
 1139W        W 5190   1.617   9.531   4.568  0.1593  0.1677  0.0651
 1140W        W 5191   0.180   9.622  10.991  0.1241  0.4711  0.0532
 1141W        W 5192   8.593   4.042   3.415 -0.3517 -0.0297 -0.3721
 1142W        W 5193   1.591   8.789   1.087  0.2088  0.1045 -0.0833
 1143W        W 5194   1.525   5.160  12.390 -0.2009 -0.1106 -0.3479
 1144W        W 5195   5.981   1.100  12.577 -0.0812 -0.1712  0.3155
 1145W        W 5196   0.014   7.281   2.736 -0.1560 -0.1751 -0.1103
 1146W        W 5197   6.457   3.168   1.300  0.2104  0.0725 -0.0390
 1147W        W 5198   5.354   6.895   1.787  0.2274  0.3246  0.0415
 1148W        W 5199   4.555   8.431   2.697 -0.0681 -0.0511 -0.2338
 1149W        W 5200   7.079   7.344  10.239  0.3893  0.1753  0.0781
 1150W        W 5201   7.087   0.326   1.976  0.0105 -0.2957  0.1163
 1151W        W 5202   0.641   0.255   1.417  0.2002  0.0328  0.0905
 1152W        W 5203   6.963   4.255   2.923  0.2269 -0.0149 -0.2313
 1153W        W 5204   6.048   1.883  10.932 -0.0696  0.1369 -0.1901
 1154W        W 5205   1.453   1.620   2.367 -0.0795 -0.1045 -0.2990
 1155W        W 5206   3.870   3.152   9.164  0.1622  0.2462 -0.0972
 1156W        W 5207   8.855   2.259   0.778  0.0684 -0.0952  0.2033
 1157W        W 5208   2.181   9.356   1.568  0.1536 -0.3741 -0.1949
 1158W        W 5209   7.465   2.733   3.598 -0.1747 -0.3594  0.0764
 1159W        W 5210   5.003   0.608  11.179  0.3842  0.2489  0.0056
 1160W        W 5211   0.971   7.483   3.861  0.1860  0.1011 -0.1587
 1161W        W 5212   9.125   4.153  10.513  0.1388 -0.1474  0.0012
 1162W        W 5213   0.080   0.123  11.273 -0.0586  0.0337  0.1498
 1163W        W 5214   8.755   1.288   9.167 -0.0230  0.3896 -0.0316
 1164W        W 5215   5.403   7.175  12.820  0.4844  0.2987 -0.1634
 1165W        W 5216   4.804   8.040   0.909  0.1871  0.0490  0.1311
 1166W        W 5217   6.728   0.529   4.851 -0.4803 -0.0435  0.0322
 1167W        W 5218   9.533   5.407   4.124  0.5004 -0.2128 -0.1653
 1168W        W 5219   1.430   2.731   8.933  0.1847  0.1228 -0.1346
 1169W        W 5220  10.119   0.089   4.308 -0.3130  0.1091 -0.0144
 1170W        W 5221   7.958   0.329   2.708  0.1141  0.0254 -0.0756
 1171W        W 5222   7.735   2.517   9.951  0.0697 -0.4034 -0.1102
 1172W        W 5223   5.219   0.143   3.223  0.2136 -0.3416 -0.0145
 1173W        W 5224   1.386   6.038   2.679 -0.3595 -0.0248 -0.3634
 1174W        W 5225   6.062   9.097  10.928  0.0483  0.1116  0.0067
 1175W        W 5226   1.046   4.186  13.001 -0.2676 -0.2381 -0.2429
 1176W        W 5227   4.528   5.517   3.088 -0.0948 -0.2037  0.2017
 1177W        W 5228   4.903   9.232   1.392 -0.0190 -0.0146  0.0067
 1178W        W 5229   0.469   2.277  13.442  0.1667  0.0354  0.0386
 1179W        W 5230   1.935   2.100  12.174 -0.1190  0.0846  0.0340
 1180W        W 5231   4.374   7.359   0.163 -0.1235  0.1808 -0.0940
 1181W        W 5232   0.269   5.439   9.758 -0.2811  0.2020  0.2328
 1182W        W 5233   7.120   2.745   4.086 -0.0118 -0.1289  0.0627
 1183W        W 5234   7.040   9.465   0.612 -0.0385 -0.0089 -0.0235
 1184W        W 5235   7.287   6.147  12.562  0.0612  0.3296  0.1026
 1185W        W 5236   2.544   1.086  11.470 -0.1647 -0.2952 -0.1556
 1186W        W 5237   2.334   9.020  13.856  0.0847 -0.1257  0.2606
 1187W        W 5238   1.898   3.588   2.306  0.2034 -0.0348  0.0916
 1188W        W 5239   0.847   6.042   9.782 -0.0345  0.2149  0.1184
 1189W        W 5240   3.053   6.207  11.644 -0.3405 -0.2590 -0.1164
 1190W        W 5241   4.952   6.760   2.586  0.2271 -0.4060 -0.3964
 1191W        W 5242   9.915   2.899  13.225 -0.1915  0.2896 -0.1571
 1192W        W 5243   7.071   6.942   2.614 -0.5300 -0.0651 -0.2159
 1193W        W 5244   7.272   0.595  13.637  0.3139  0.2371 -0.3761
 1194W        W 5245   8.567   1.983  12.097  0.0221  0.0993  0.0992
 1195W        W 5246   4.549   6.982  12.504  0.1230  0.1092  0.0862
 1196W        W 5247   8.128   4.511   4.043 -0.0698 -0.1475 -0.2393
 1197W        W 5248   8.622   1.383   2.915  0.0644  0.0432 -0.1018
 1198W        W 5249   4.344   7.103   3.200  0.0464 -0.1868  0.0243
 1199W        W 5250   1.721   3.248   4.425  0.2087 -0.0961  0.0239
 1200W        W 5251   1.434   0.214   2.553 -0.0534  0.0605 -0.0055
 1201W        W 5252   5.041   1.500   4.127 -0.3280  0.1494 -0.2196
 1202W        W 5253   6.139   5.218  13.342 -0.1122  0.1390 -0.3134
 1203W        W 5254   0.669   6.152   4.408 -0.0930 -0.1589  0.1380
 1204W        W 5255   7.224   0.917   2.393 -0.1555 -0.0957 -0.0777
 1205W        W 5256   2.144   2.069   4.499 -0.1072  0.2146 -0.1581
 1206W        W 5257   0.972   7.927   8.598  0.1181  0.3335  0.2095
 1207W        W 5258  10.139   0.938   0.122  0.1540 -0.2555 -0.0222
 1208W        W 5259   6.200   2.833   5.616 -0.0447 -0.0224 -0.1444
 1209W        W 5260   4.484   0.398   3.859 -0.0876 -0.1243  0.0565
 1210W        W 5261   2.475   7.855  12.425  0.2143  0.0592  0.0141
 1211W        W 5262   1.375   3.918  12.016  0.0715  0.1164  0.0679
 1212W        W 5263   0.967   0.093   9.416 -0.2225  0.2004 -0.0353
 1213W        W 5264   1.352   7.185   2.015  0.0315 -0.2562 -0.0302
 1214W        W 5265   8.962   4.755   2.902  0.2470  0.0100 -0.0854
 1215W        W 5266   8.242   9.702  12.858 -0.1285 -0.1170 -0.0231
 1216W        W 5267   4.818   1.850   0.723  0.4361 -0.0002 -0.2086
 1217W        W 5268   1.908   2.533  11.881  0.0462  0.1175  0.1525
 1218W        W 5269   9.208   4.748   3.384 -0.1204  0.1346  0.0504
 1219W        W 5270   0.424   7.691  13.556 -0.0317  0.0876  0.1534
 1220W        W 5271   4.818   2.215   4.811 -0.3984  0.1386 -0.1407
 1221W        W 5272   5.110   8.853  13.112 -0.2367  0.0185  0.0313
 1222W        W 5273   2.410   4.183  11.248  0.0804 -0.0151 -0.1697
 1223W        W 5274   1.053   5.214  10.575  0.0972 -0.0612 -0.1351
 1224W        W 5275   6.033   6.207   9.795  0.0675  0.0200  0.0050
 1225W        W 5276   9.023   3.223   1.157  0.0911 -0.0943  0.0506
 1226W        W 5277   4.274   0.517  10.230 -0.0869  0.0253 -0.0295
 1227W        W 5278   9.888   6.171   3.533 -0.2313  0.1826 -0.1180
 1228W        W 5279   0.667   2.819  11.408  0.0648  0.4346  0.3019
 1229W        W 5280   6.067   3.525  13.310 -0.1255  0.1080  0.2404
 1230W        W 5281   6.703   5.960  13.435  0.0159  0.2556 -0.0006
 1231W        W 5282   5.805   5.791  12.530 -0.0118 -0.0767  0.1526
 1232W        W 5283   3.995   6.963   0.156 -0.2280  0.1022 -0.1378
 1233W        W 5284   9.380   8.153  11.634 -0.0970 -0.0085 -0.1210
 1234W        W 5285   5.609   6.286  12.741  0.2775  0.1493 -0.0795
 1235W        W 5286   8.901   7.059   2.810  0.3600  0.2788 -0.4000
 1236W        W 5287   3.982   1.724   4.319 -0.3179  0.1266  0.1136
 1237W        W 5288   0.291   4.947   0.828 -0.0021  0.1406 -0.1506
 1238W        W 5289   0.205   7.069  11.563 -0.0930 -0.1217  0.1389
 1239W        W 5290   6.170   3.136   0.806  0.2421 -0.2360  0.3069
 1240W        W 5291   4.050   6.158   0.040 -0.2571  0.1299  0.2220
 1241W        W 5292   1.436   2.212  12.399  0.1187  0.1071  0.1748
 1242W        W 5293   1.415   9.553   3.711  0.1091 -0.0118  0.0346
 1243W        W 5294   7.317   7.374   2.604 -0.1140  0.0352  0.1002
 1244W        W 5295   3.028   9.603   0.447  0.2481 -0.0196  0.4524
 1245W        W 5296   8.528   7.788  12.759  0.0735  0.0335  0.0566
 1246W        W 5297   8.080   7.203   9.621  0.0108  0.2048  0.0555
 1247W        W 5298   5.896   3.617   0.962  0.1728 -0.4654  0.0435
 1248W        W 5299   2.894   8.419   1.760 -0.0047  0.0836  0.0608
 1249W        W 5300   3.305   9.427   4.374  0.1281  0.0065 -0.1904
 1250W        W 5301   8.345   0.915   4.086 -0.0630 -0.0750  0.1119
 1251W        W 5302   7.748   2.443   3.108 -0.2656  0.1616  0.1074
 1252W        W 5303   9.672   7.287   1.535 -0.4042  0.2308 -0.0321
 1253W        W 5304   6.467   1.928   3.015 -0.1937 -0.4349 -0.2639
 1254W        W 5305   1.456   5.462   2.577  0.0615  0.0608 -0.0350
 1255W        W 5306   5.744   0.888   0.657  0.2494 -0.0990  0.2267
 1256W        W 5307   1.313   7.799   9.418  0.0174  0.2881 -0.1524
 1257W        W 5308   9.396   6.978   2.887 -0.1154  0.1413  0.1323
 1258W        W 5309   5.471   4.463  11.267 -0.1823 -0.1217  0.1158
 1259W        W 5310   8.308   1.283   1.078 -0.2292 -0.0088  0.0851
 1260W        W 5311   6.479   0.335   0.327 -0.1569 -0.1813  0.1883
 1261W        W 5312   5.168   8.053  12.508 -0.3093  0.0624  0.3996
 1262W        W 5313   6.746   1.052   2.119 -0.0230  0.1300  0.0720
 1263W        W 5314   1.715   8.025  11.725 -0.1685  0.2070  0.1775
 1264W        W 5315   7.664   7.495   4.849  0.1594 -0.0013  0.1539
 1265W        W 5316   9.106   9.066  11.716 -0.4777  0.0880  0.1347
 1266W        W 5317   6.163   8.030   0.989 -0.1013  0.1198 -0.1583
 1267W        W 5318   8.817   4.328   0.869 -0.3179 -0.4830  0.3141
 1268W        W 5319   3.822   6.351  11.041 -0.3596 -0.1431  0.0255
 1269W        W 5320   8.288   0.844  10.699  0.0362  0.0722  0.0841
 1270W        W 5321   7.242   7.558   9.230  0.1006  0.2051  0.1432
 1271W        W 5322   5.237   2.143   0.257  0.1865 -0.1396 -0.1045
 1272W        W 5323   5.779   5.264   9.570 -0.2483 -0.3493 -0.0608
 1273W        W 5324   7.961   5.831  10.083 -0.2880 -0.1051  0.0788
 1274W        W 5325   7.648   3.576  11.804  0.3495  0.0869 -0.1648
 1275W        W 5326   7.455   0.860  10.244 -0.1249  0.0646  0.1252
 1276W        W 5327   5.869   4.632  10.582  0.0239  0.1289 -0.1419
 1277W        W 5328   4.011   7.998  10.359 -0.2856 -0.1334 -0.0738
 1278W        W 5329   1.019   2.360  10.261 -0.0335 -0.1147 -0.1923
 1279W        W 5330   0.603   4.805   4.307 -0.1284 -0.0695 -0.2635
 1280W        W 5331   3.460   1.871   1.355 -0.1606  0.1949  0.1298
 1281W        W 5332   7.363   3.688  11.251  0.1639 -0.1192 -0.0029
 1282W        W 5333   5.440   4.126  11.753 -0.0972  0.1238 -0.0258
 1283W        W 5334   3.483   0.502   3.672  0.0541  0.0749  0.1551
 1284W        W 5335   3.492   3.323  10.524 -0.0878 -0.2717  0.0833
 1285W        W 5336   9.406   9.026  11.275  0.0856 -0.2656 -0.2245
 1286W        W 5337   6.437   4.936  13.644  0.0303 -0.1383 -0.1392
 1287W        W 5338   2.610   3.214   2.284 -0.0380  0.0855 -0.1555
 1288W        W 5339   7.919   3.013   3.593 -0.2082  0.0496  0.0856
 1289W        W 5340   2.250   8.811   3.988  0.2789 -0.1587  0.0796
 1290W        W 5341   2.676   7.270   0.791 -0.1896 -0.2174  0.1278
 1291W        W 5342   0.018   2.180   4.393  0.3195  0.2109  0.1774
 1292W        W 5343   7.556   0.840   0.037  0.0231  0.3868 -0.0129
 1293W        W 5344   4.256   0.933   0.159  0.1358 -0.1854  0.0588
 1294W        W 5345   5.659   0.048  10.782  0.1860  0.2532  0.3372
 1295W        W 5346   4.518   3.043   1.835  0.0905 -0.2127 -0.1196
 1296W        W 5347   5.667   9.124  10.078  0.0842  0.0740 -0.3421
 1297W        W 5348   0.760   9.662  12.830  0.2113 -0.0314 -0.0859
 1298W        W 5349   8.528   1.043   1.428 -0.3748  0.0017 -0.3722
 1299W        W 5350   2.156   5.655  12.989 -0.1857 -0.0758  0.3246
 1300W        W 5351   7.925   9.635   2.284  0.1010 -0.3050 -0.0818
 1301W        W 5352   2.678   4.162   0.344 -0.3245  0.2227 -0.1514
 1302W        W 5353   8.575   4.374   9.168 -0.1227  0.0138 -0.1532
 1303W        W 5354   9.549   6.712   2.422  0.2905  0.0477 -0.1620
 1304W        W 5355   0.951   4.351   5.261  0.2956 -0.1403 -0.0196
 1305W        W 5356   4.707   5.798  12.372 -0.0653 -0.2015 -0.2077
 1306W        W 5357   4.610   4.863   0.956 -0.1968 -0.0256  0.5530
 1307W        W 5358   5.909   4.651   1.201  0.0730  0.5199 -0.3955
 1308W        W 5359   0.809   6.502   2.197  0.0743 -0.0786 -0.1542
 1309W        W 5360   6.503   2.487   3.205 -0.0072 -0.0791 -0.1401
 1310W        W 5361   9.907   0.829   9.806 -0.1762  0.4580  0.0485
 1311W        W 5362   8.383   2.120   1.708 -0.0015  0.0602  0.2899
 1312W        W 5363   8.733   9.307   3.309 -0.1537 -0.0908 -0.0988
 1313W        W 5364   6.833   0.646   0.511  0.2291 -0.0289 -0.0129
 1314W        W 5365   6.655   2.046  13.880 -0.0887 -0.1348  0.0216
 1315W        W 5366   8.111   9.895  12.416  0.1213  0.2528  0.1175
 1316W        W 5367   8.083   8.810   3.493  0.2797  0.1145  0.0808
 1317W        W 5368   2.094   7.559  12.766  0.0372  0.1301  0.3424
 1318W        W 5369   4.928   1.061  10.921  0.2378  0.1276 -0.3505
 1319W        W 5370   2.599   5.301  12.827  0.0384 -0.3235 -0.3700
 1320W        W 5371   1.366   4.935   2.771  0.0233  0.5152  0.2217
 1321W        W 5372   0.427   0.147   0.151 -0.2946  0.1076 -0.3763
 1322W        W 5373   1.206   1.334   0.762  0.1311 -0.0191  0.0071
 1323W        W 5374   7.349   8.206  13.901  0.3944 -0.3906 -0.2302
 1324W        W 5375   5.191   3.625   2.212  0.0796  0.1164  0.0879
 1325W        W 5376   2.407   6.012  13.252 -0.2053 -0.1909 -0.0249
 1326W        W 5377   7.511   2.602   1.836  0.1776 -0.0711 -0.0526
 1327W        W 5378   9.129   9.139  10.806  0.0260 -0.1820 -0.0969
 1328W        W 5379   4.151   1.477   3.910 -0.0042 -0.1480 -0.1530
 1329W        W 5380   1.583   0.199   3.776 -0.0396 -0.1148  0.0311
 1330W        W 5381   8.488   8.601   3.947 -0.0575  0.2829  0.0588
 1331W        W 5382   6.438   4.574   0.584  0.1621 -0.0603  0.0816
 1332W        W 5383   4.773   1.542  11.007 -0.2133  0.2737  0.3622
 1333W        W 5384   7.154   1.062   3.076  0.1090  0.0425  0.0015
 1334W        W 5385   4.144   7.254   3.734  0.1962 -0.2127 -0.2288
 1335W        W 5386   6.884   3.625   0.549 -0.0399 -0.1793 -0.2305
 1336W        W 5387   4.504   6.963   2.258  0.2151 -0.0346  0.2201
 1337W        W 5388   7.855   1.660  12.154  0.0541 -0.1499 -0.1703
 1338W        W 5389   2.956   6.962   2.294 -0.0259  0.1512 -0.1186
 1339W        W 5390   4.242   0.450  10.743  0.0217  0.2900 -0.0125
 1340W        W 5391   0.763   5.636   4.793  0.0845 -0.3498  0.0027
 1341W        W 5392   2.576   3.164  13.049 -0.0683 -0.0162  0.0873
 1342W        W 5393   3.779   3.651   2.262 -0.1132  0.0951  0.2304
 1343W        W 5394   4.360   8.237  10.079  0.2443  0.0739 -0.1137
 1344W        W 5395   3.280   1.146  11.029  0.1927 -0.2389 -0.2551
 1345W        W 5396   0.386   0.826  11.717  0.2560 -0.0465  0.0155
 1346W        W 5397   9.252   6.371   0.279 -0.1611 -0.2245  0.1033
 1347W        W 5398   0.904   9.822   1.817 -0.3648  0.1084 -0.1729
 1348W        W 5399   8.993   9.173   0.041  0.1206  0.1757 -0.1570
 1349W        W 5400   5.894   7.095  11.844  0.1077  0.1363 -0.0296
 1350W        W 5401   4.664   4.221   4.332  0.0676  0.1597 -0.1163
 1351W        W 5402   4.543   9.678  13.273  0.3143  0.0932 -0.1241
 1352W        W 5403   9.350   8.711   1.729 -0.0423 -0.0114 -0.1846
 1353W        W 5404   4.098   2.530   0.870  0.0239 -0.3087 -0.1891
 1354W        W 5405   8.584   2.018  10.823  0.2937  0.0798 -0.2179
 1355W        W 5406   8.284   5.955  10.565  0.2420  0.0947  0.2396
 1356W        W 5407   8.382   1.016   8.451  0.0452 -0.0031  0.4235
 1357W        W 5408   3.235   8.144  12.245 -0.0710 -0.0327 -0.0522
 1358W        W 5409   6.230   8.408  11.334  0.0423 -0.1220 -0.3463
 1359W        W 5410   3.686   6.277  10.546 -0.0302 -0.0653  0.0574
 1360W        W 5411   2.532   2.482   4.533  0.1947  0.0918  0.0650
 1361W        W 5412   7.247   7.845  12.719 -0.2413  0.2610 -0.0752
 1362W        W 5413   7.401   2.531  12.729 -0.1731 -0.1964 -0.1555
 1363W        W 5414   3.366   7.431  13.823 -0.1286 -0.2554 -0.1110
 1364W        W 5415   8.184   4.982   2.361 -0.0228  0.1623  0.0163
 1365W        W 5416   4.533   4.618   1.610 -0.2907  0.0325  0.0866
 1366W        W 5417   9.780   4.266   1.876 -0.2266  0.2454  0.1522
 1367W        W 5418   9.773   4.628   5.241 -0.1126 -0.4138  0.1572
 1368W        W 5419   9.022   6.703   1.194  0.3217 -0.2931  0.0842
 1369W        W 5420   6.894   8.929   0.714 -0.3571  0.1787 -0.0625
 1370W        W 5421   5.410   6.944  10.846  0.1249 -0.0184 -0.1206
 1371W        W 5422   7.097   3.376   0.919  0.0282  0.2379 -0.3513
 1372W        W 5423   5.714   7.951   3.789 -0.0140 -0.2084  0.0626
 1373W        W 5424   9.755   0.232  11.499  0.2304 -0.1946 -0.2370
 1374W        W 5425   4.426   9.761  10.433 -0.1993  0.0109 -0.2097
 1375W        W 5426   7.015   2.803   0.989 -0.2130 -0.1354  0.0132
 1376W        W 5427   2.039   3.548   0.937 -0.3363 -0.2050  0.1268
 1377W        W 5428   5.217   9.449  11.444  0.3295  0.0395 -0.1993
 1378W        W 5429   9.234   6.295  13.694  0.1660  0.0702 -0.1546
 1379W        W 5430   3.238   5.014   1.908 -0.2484 -0.2285 -0.0671
 1380W        W 5431   1.962   8.061   9.207  0.0842 -0.0865  0.0933
 1381W        W 5432   4.128   7.745   3.838  0.0399  0.1389 -0.0498
 1382W        W 5433   3.637   5.976   0.194 -0.1844 -0.0796  0.2340
 1383W        W 5434   2.648   0.862   9.786  0.2643  0.0677 -0.0262
 1384W        W 5435   6.400   2.835  11.008  0.2147  0.1932 -0.0386
 1385W        W 5436   1.893   9.977   1.530 -0.1000 -0.1990  0.2604
 1386W        W 5437   1.798   5.909  13.248  0.2382 -0.0707  0.1913
 1387W        W 5438   9.276   4.566   0.148 -0.0936 -0.0007  0.0912
 1388W        W 5439   3.299   0.697  13.169 -0.1297  0.0661 -0.2905
 1389W        W 5440   8.375   7.997  12.302 -0.1458  0.1517 -0.2587
 1390W        W 5441   1.252   2.415   0.228  0.0804 -0.0188 -0.0447
 1391W        W 5442   2.485   9.482   0.866  0.3082 -0.2199 -0.0328
 1392W        W 5443   4.081   8.763   2.024 -0.1995  0.0112  0.1082
 1393W        W 5444  10.206   8.141   9.501 -0.0884  0.1370 -0.0251
 1394W        W 5445   5.546   0.937   2.902 -0.3347  0.0466  0.1200
 1395W        W 5446   2.401   3.092   0.081 -0.0967  0.2004  0.0517
 1396W        W 5447   3.951   6.611   3.344  0.0216 -0.0682 -0.1627
 1397W        W 5448   4.589   2.353   2.364 -0.1806  0.1641 -0.1970
 1398W        W 5449   9.666   1.408   0.640 -0.1674 -0.0102  0.0767
 1399W        W 5450   2.023   9.645  12.763 -0.0789 -0.1002  0.2522
 1400W        W 5451   4.647   6.350  13.910  0.2288  0.1199 -0.1833
 1401W        W 5452  10.110   4.944  13.101 -0.2172  0.0373  0.1704
 1402W        W 5453   2.030   4.739   9.766  0.0935  0.0494  0.3154
 1403W        W 5454   2.351   9.237   3.606 -0.0651 -0.0116  0.1645
 1404W        W 5455   9.098   9.008  10.249  0.0895  0.1190 -0.2200
 1405W        W 5456   1.138   2.200   9.701  0.1773 -0.2170 -0.0794
 1406W        W 5457   8.878   0.660   2.857  0.1094 -0.0658 -0.1258
 1407W        W 5458   8.526   8.795   1.651  0.0011  0.0862  0.0810
 1408W        W 5459   4.758   1.555   3.136  0.1834 -0.0378  0.2595
 1409W        W 5460   6.018   3.532   1.928 -0.2967 -0.1750 -0.1170
 1410W        W 5461   4.803   5.547   1.946  0.1153 -0.2917  0.0327
 1411W        W 5462   9.716   3.243   3.633  0.0698 -0.2790  0.0496
 1412W        W 5463   2.006   4.948   2.038 -0.0360  0.0651  0.2670
 1413W        W 5464   8.832   9.238   1.095  0.0208 -0.1062 -0.1295
 1414W        W 5465   7.436   6.819   1.475  0.0958  0.0852 -0.1066
 1415W        W 5466   1.130   7.251   2.563  0.0650 -0.0291 -0.1367
 1416W        W 5467   5.278   1.251  11.573  0.0275  0.0285 -0.3389
 1417W        W 5468   8.609   3.979   3.933  0.0270  0.0827 -0.1587
 1418W        W 5469   4.010  10.050  11.760  0.1421 -0.1259 -0.2554
 1419W        W 5470   8.899   6.072   5.118 -0.3895 -0.2426 -0.2486
 1420W        W 5471   0.285   7.986   0.646 -0.0176  0.2669  0.0314
 1421W        W 5472   0.057   2.545   4.045  0.3569  0.0137 -0.2293
 1422W        W 5473   2.032   5.287  12.654 -0.3606  0.2274 -0.2447
 1423W        W 5474   9.077   4.785  13.670  0.1370 -0.1322 -0.1426
 1424W        W 5475   3.029   9.255   2.774 -0.1395  0.0609 -0.3001
 1425W        W 5476   8.856   1.988   4.526 -0.1062  0.1568  0.3981
 1426W        W 5477   9.398   2.550   9.820 -0.2111 -0.3097 -0.2279
 1427W        W 5478   5.867   5.463  12.930 -0.1779  0.0704 -0.1839
 1428W        W 5479   9.669   2.285   0.410 -0.1420 -0.1758  0.0698
 1429W        W 5480   2.776   5.748  13.499  0.0651  0.0684 -0.0885
 1430W        W 5481   3.089   8.576   2.998 -0.1159  0.0788 -0.3177
 1431W        W 5482   7.801   5.428   1.449 -0.0366 -0.2010  0.0811
 1432W        W 5483   2.517  10.197   9.985  0.1080 -0.3373 -0.2083
 1433W        W 5484   3.010   2.934   9.556  0.1897 -0.4472  0.0034
 1434W        W 5485   3.868   8.341   9.490  0.3994 -0.2733  0.0856
 1435W        W 5486   4.042   7.375   0.532 -0.1010 -0.4511 -0.1752
 1436W        W 5487   3.548   1.090  12.871 -0.0761 -0.1055  0.3452
 1437W        W 5488   9.334   4.299  12.126  0.1753 -0.0919 -0.2973
 1438W        W 5489   0.357   8.629   4.726 -0.2417 -0.3953 -0.0671
 1439W        W 5490   9.972   2.650   0.194 -0.0506 -0.1508  0.2918
 1440W        W 5491   9.523   8.470   2.693 -0.0131 -0.3071 -0.2895
 1441W        W 5492   4.593   2.687   4.102 -0.0555  0.1553 -0.1460
 1442W        W 5493   1.415   2.723  10.263 -0.0307 -0.2060 -0.4267
 1443W        W 5494   9.996   2.343  11.099  0.2002  0.1465  0.1818
 1444W        W 5495   7.954   9.374   2.784 -0.0327  0.1822  0.2651
 1445W        W 5496   0.510   3.953   3.244 -0.0744 -0.2271  0.0764
 1446W        W 5497   0.080   8.960   3.394 -0.0555 -0.3550  0.1505
 1447W        W 5498   3.739   7.710  11.114 -0.0918  0.2182  0.0513
 1448W        W 5499   6.894   6.870   4.408  0.2374 -0.0791  0.2329
 1449W        W 5500   8.054   3.226  11.728  0.1584  0.1066  0.1102
 1450W        W 5501   3.141   8.786  13.403 -0.1027  0.1602  0.0392
 1451W        W 5502   7.250   6.326  10.781  0.0184  0.3008  0.2012
 1452W        W 5503   9.763   5.375  11.578  0.1461 -0.1443 -0.1840
 1453W        W 5504   7.313   7.506   9.736 -0.0573 -0.3648 -0.1267
 1454W        W 5505   0.467  10.064  11.930  0.0679  0.2162 -0.1706
 1455W        W 5506   4.230   9.939   2.889  0.3323 -0.0031 -0.2254
 1456W        W 5507   4.870   3.394  12.448 -0.1463 -0.1568  0.2273
 1457W        W 5508  10.012   5.888  10.463  0.1224  0.0140  0.2232
 1458W        W 5509   2.083   6.894   1.675 -0.0674  0.1412 -0.1290
 1459W        W 5510   5.765   1.825  13.278  0.0922 -0.3019  0.7265
 1460W        W 5511   8.443   4.618   3.678 -0.0785  0.3688  0.2335
 1461W        W 5512   0.459   7.646  10.345  0.0725 -0.2814  0.0720
 1462W        W 5513   3.418   7.101   2.431 -0.2266 -0.0511 -0.0036
 1463W        W 5514   1.347   2.470   5.728 -0.2629 -0.1309 -0.1745
 1464W        W 5515  10.125   3.159   0.670 -0.0406 -0.2274  0.0984
 1465W        W 5516   9.937   1.625  13.275  0.0268 -0.0511 -0.0513
 1466W        W 5517   3.805   7.441  12.489 -0.0718 -0.0911  0.1537
 1467W        W 5518   6.670   6.645   1.650 -0.1378 -0.0804  0.1358
 1468W        W 5519   2.267   0.089   1.559 -0.0309 -0.0757 -0.2932
 1469W        W 5520   8.585   7.725  10.329 -0.0521 -0.1302 -0.0703
 1470W        W 5521  10.075   7.115   9.718  0.0507 -0.1756 -0.0204
 1471W        W 5522   6.838   3.964   2.526  0.0165 -0.2570 -0.0519
 1472W        W 5523   3.908   4.953   0.350 -0.0340  0.1016 -0.0437
 1473W        W 5524   0.486   8.045  10.643 -0.0523 -0.3208  0.1352
 1474W        W 5525   2.051   8.428   4.755  0.2830  0.1413 -0.0996
 1475W        W 5526   1.957   3.335   3.620  0.0403  0.1234  0.1147
 1476W        W 5527   2.553   6.283  13.678  0.1370  0.1379 -0.1215
 1477W        W 5528   0.979   3.333  12.818  0.2424  0.0394  0.1329
 1478W        W 5529   5.692   5.425   0.876 -0.1741  0.2528  0.2491
 1479W        W 5530   3.626   7.445   0.821  0.1639  0.0323  0.0475
 1480W        W 5531   1.684   5.656   1.096 -0.1692 -0.3139  0.0849
 1481W        W 5532   4.294   5.400  13.589 -0.0055  0.1868  0.1792
 1482W        W 5533   3.914   8.279  11.262  0.2143 -0.1357  0.0226
 1483W        W 5534   5.838   1.134   9.440 -0.1050 -0.0533 -0.1246
 1484W        W 5535   9.873   3.110   1.759 -0.2249  0.0217  0.1671
 1485W        W 5536   6.451   5.314   1.741 -0.0122 -0.0185 -0.2928
 1486W        W 5537   8.733   1.099   2.501 -0.0057 -0.0417 -0.2432
 1487W        W 5538   9.695   6.950   3.299 -0.1996  0.1086  0.4562
 1488W        W 5539   9.759   5.346  10.408  0.0162  0.3138  0.0371
 1489W        W 5540   1.591   6.120   4.390  0.3832  0.1852  0.0710
 1490W        W 5541   5.155   3.786   1.664 -0.0494 -0.1349 -0.1852
 1491W        W 5542   6.162   5.393   3.605  0.2795  0.2424 -0.0433
 1492W        W 5543   1.051   6.125  10.346 -0.0514  0.2428  0.0152
 1493W        W 5544   8.804   6.643  10.610 -0.0344  0.2621  0.1845
 1494W        W 5545   8.327   4.388   0.737  0.4634  0.1066 -0.1523
 1495W        W 5546   4.810   9.301   0.498  0.2027  0.0998  0.0001
 1496W        W 5547   0.102  10.085   2.666 -0.0232 -0.0326  0.0928
 1497W        W 5548   5.483  10.081  11.975  0.0804 -0.1120  0.0481
 1498W        W 5549   1.374   3.561   1.729 -0.2515  0.2425 -0.2016
 1499W        W 5550   3.353   3.828  11.263  0.1246 -0.0420  0.0817
 1500W        W 5551   7.597   3.448   1.516 -0.0284 -0.0239  0.0854
 1501W        W 5552   2.509   4.045   9.465 -0.2398 -0.1325 -0.4021
 1502W        W 5553   5.449   4.321   4.004  0.2481 -0.0532  0.3404
 1503W        W 5554   9.184   8.441  13.570 -0.0787  0.1013 -0.0769
 1504W        W 5555   8.185   7.416  13.445 -0.0073 -0.3797  0.1661
 1505W        W 5556   4.550   3.425  12.809 -0.2876  0.1690 -0.2853
 1506W        W 5557   2.187  10.176   2.051 -0.1436  0.1681  0.0491
 1507W        W 5558   7.229   8.724   1.317 -0.1059 -0.0206  0.3291
 1508W        W 5559   5.664   7.997   2.937 -0.3484 -0.0100  0.1953
 1509W        W 5560   4.282   3.523   0.603 -0.1197  0.1387 -0.1455
 1510W        W 5561   7.640   3.777   4.211 -0.4301 -0.0638  0.1075
 1511W        W 5562   0.241   6.546  11.438 -0.3059  0.0829  0.2214
 1512W        W 5563   7.616   5.658   1.053 -0.1761  0.1355  0.0100
 1513W        W 5564   0.612  10.097  10.825  0.2885 -0.0530  0.1286
 1514W        W 5565   4.035   2.532   4.195  0.0996 -0.0781  0.2050
 1515W        W 5566   6.366   2.917  10.087 -0.1759  0.0438 -0.0585
 1516W        W 5567   5.601   3.490   9.935  0.2344  0.1474 -0.2922
 1517W        W 5568   0.393   3.684   2.852  0.2325  0.0216  0.2418
 1518W        W 5569   3.778   2.163  12.123  0.1334 -0.0592  0.0269
 1519W        W 5570   2.746   5.421   0.672 -0.0635 -0.0199  0.4212
 1520W        W 5571   1.618   3.529  11.831 -0.2766  0.1746 -0.0512
 1521W        W 5572   7.840   0.984   2.453  0.0682 -0.2757  0.0368
 1522W        W 5573   5.720   5.495   3.879  0.1363 -0.0171  0.1084
 1523W        W 5574   2.224   6.351  12.288  0.3573 -0.2149  0.0615
 1524W        W 5575   8.094   2.730  12.256 -0.1118 -0.1008  0.0901
 1525W        W 5576   9.520   4.123  11.612 -0.0246 -0.0629 -0.0033
 1526W        W 5577   3.938   9.756   4.678  0.2230 -0.1922 -0.1907
 1527W        W 5578   0.947   5.026   0.087 -0.2134  0.1643  0.2612
 1528W        W 5579   8.579   5.827   1.006 -0.3250  0.1551  0.0410
 1529W        W 5580   9.926   4.173   9.555  0.1939  0.0050  0.2630
 1530W        W 5581   6.750   9.864   1.567 -0.2221 -0.0388  0.0059
 1531W        W 5582   2.350   3.210   2.945 -0.0649  0.0872  0.2038
 1532W        W 5583   7.463   2.126  10.453  0.0281 -0.0872  0.0618
 1533W        W 5584   6.346   9.220  13.427  0.1318  0.0009  0.1548
 1534W        W 5585   3.734   0.917   5.380 -0.0537  0.1987  0.0081
 1535W        W 5586   1.871   3.890   0.500  0.2584  0.1843 -0.1870
 1536W        W 5587   8.367   1.544  12.158 -0.2045 -0.2410  0.0995
 1537W        W 5588   3.223   9.283   2.297 -0.1472 -0.0811 -0.0872
 1538W        W 5589   6.217   8.102   2.425 -0.2377 -0.0249 -0.0438
 1539W        W 5590   1.993   2.836   0.049  0.1809 -0.2221 -0.1189
 1540W        W 5591   1.736   3.526  13.358 -0.0816 -0.0414 -0.0290
 1541W        W 5592   5.778   2.832   3.918 -0.0864 -0.0896  0.2045
 1542W        W 5593   0.165   6.927  11.057 -0.1244 -0.3120  0.2821
 1543W        W 5594   0.482   8.984   5.107 -0.0320 -0.2479  0.1386
 1544W        W 5595   0.161   5.114   8.766  0.2090 -0.0126 -0.3149
 1545W        W 5596   4.562   0.377   0.931 -0.0235  0.2057 -0.1592
 1546W        W 5597   3.624   2.290  12.625 -0.1433  0.1311 -0.1534
 1547W        W 5598   1.078   6.019   9.039  0.1833 -0.1238 -0.2455
 1548W        W 5599   4.118   9.358  10.378 -0.1348  0.0316  0.3587
 1549W        W 5600   0.756   2.897   0.999 -0.2322  0.1044 -0.0810
 1550W        W 5601   7.310   0.553   1.478 -0.2896  0.1218 -0.0691
 1551W        W 5602   1.020   1.264   3.711 -0.0689  0.0035  0.1144
 1552W        W 5603   5.051   9.927   3.471 -0.4485 -0.0524 -0.1117
 1553W        W 5604   5.887   2.990   9.201  0.2222 -0.0563 -0.0807
 1554W        W 5605   3.886   4.775   2.675 -0.0152  0.0548 -0.1295
 1555W        W 5606   2.760   1.103  11.014  0.1661 -0.1363 -0.5371
 1556W        W 5607   7.348   4.297  10.237 -0.0531 -0.0949  0.0158
 1557W        W 5608   4.253   4.120  12.343  0.2336  0.3308 -0.1380
 1558W        W 5609   7.462   5.224   1.854 -0.0239  0.3186 -0.2107
 1559W        W 5610   3.734   5.277   2.803 -0.1121 -0.1392  0.2110
 1560W        W 5611   7.996   0.810   2.931  0.0098 -0.1067 -0.1354
 1561W        W 5612   9.694   5.828   3.806 -0.1854  0.1802  0.2516
 1562W        W 5613   0.902   9.269   9.704 -0.1965  0.0367  0.0968
 1563W        W 5614   0.996   4.641   9.867  0.1023  0.0449  0.1239
 1564W        W 5615   0.902   7.085   4.172  0.1109  0.0383  0.1121
 1565W        W 5616   6.756   4.805  13.256  0.0067  0.0824 -0.1812
 1566W        W 5617   9.351   7.921   9.770 -0.0181 -0.1411 -0.2739
 1567W        W 5618   6.178   8.350   3.654 -0.0434  0.0833  0.0035
 1568W        W 5619   8.649   6.058  13.658  0.1255 -0.0295  0.2258
 1569W        W 5620   2.806   2.931   3.810  0.1527  0.0197  0.2271
 1570W        W 5621   1.270   2.469  10.698 -0.2002 -0.1673  0.0928
 1571W        W 5622   3.138   2.390  12.833 -0.1124  0.1787 -0.1720
 1572W        W 5623   5.714   5.109  10.559  0.0167 -0.0489 -0.0394
 1573W        W 5624   1.968   9.718  10.428 -0.0074  0.0661  0.0748
 1574W        W 5625   7.122   3.018   2.858 -0.0035 -0.1369 -0.2685
 1575W        W 5626   0.569   7.498   4.233  0.0209 -0.0708 -0.2361
 1576W        W 5627   6.877   0.112  12.172  0.0562  0.0014  0.1260
 1577W        W 5628   7.995   9.008   0.358  0.1573  0.3538  0.0431
 1578W        W 5629   0.166   5.166  13.523 -0.0007 -0.1558  0.2064
 1579W        W 5630   2.511   7.647   2.104  0.2465 -0.1258 -0.0974
 1580W        W 5631   0.687   6.753   0.041 -0.1091  0.1636  0.1065
 1581W        W 5632   4.582   9.573  11.690  0.0828  0.2916  0.0117
 1582W        W 5633   7.775   4.090   4.591  0.2798 -0.0623  0.4300
 1583W        W 5634   5.704   2.421   0.094  0.2490 -0.0707 -0.1971
 1584W        W 5635   9.290  10.087  10.497 -0.1396 -0.0909 -0.0487
 1585W        W 5636   4.332   7.885  12.564 -0.4487 -0.3224 -0.1460
 1586W        W 5637   4.271   7.370  11.199 -0.2924  0.4143 -0.2368
 1587W        W 5638   8.160   5.570  12.578 -0.0803 -0.0668 -0.0942
 1588W        W 5639   1.435   8.172  12.664  0.0532  0.1116  0.0035
 1589W        W 5640   5.191  10.161   2.303  0.3925  0.4734 -0.1769
 1590W        W 5641   4.999   0.516   3.406 -0.1716 -0.1825  0.0392
 1591W        W 5642   2.059   9.707  11.818  0.0774 -0.0588 -0.0090
 1592W        W 5643   9.973   2.374   3.677  0.2625  0.4028 -0.1758
 1593W        W 5644   0.791   5.625  10.700  0.1777  0.0599 -0.1249
 1594W        W 5645   9.214   9.966   2.866  0.2841 -0.2831 -0.4807
 1595W        W 5646   6.197   6.625  12.140 -0.2004  0.2387 -0.1206
 1596W        W 5647   5.575   2.419   1.035  0.1932 -0.0608 -0.0976
 1597W        W 5648   4.087   4.283   9.828  0.0580  0.0750 -0.3600
 1598W        W 5649   6.069   4.903   2.713  0.0558  0.0098 -0.2479
 1599W        W 5650   8.561   1.540   5.120  0.0293 -0.0771  0.0908
 1600W        W 5651   6.784   5.436  10.083  0.0564 -0.2657  0.0866
 1601W        W 5652   0.030   4.865  12.135 -0.1982  0.0754 -0.1332
 1602W        W 5653   3.223   7.192   4.159  0.0303 -0.3015  0.1148
 1603W        W 5654   4.828   4.754  13.121 -0.1253 -0.0593  0.1179
 1604W        W 5655   1.433   6.971   9.824 -0.1208  0.1188  0.1147
 1605W        W 5656   2.924   5.673   9.852  0.0642 -0.2045  0.0755
 1606W        W 5657   9.758   0.799  10.309 -0.2114 -0.3409 -0.0026
 1607W        W 5658   5.233   6.007   2.936  0.0690 -0.3662 -0.1673
 1608W        W 5659   2.474   7.779  13.046 -0.2855 -0.0485  0.0859
 1609W        W 5660   7.916   6.274  13.767 -0.1367  0.1755 -0.2010
 1610W        W 5661   5.352   0.037   3.754 -0.2182  0.0205  0.1180
 1611W        W 5662   9.357   3.498   5.390  0.1772  0.0881 -0.2054
 1612W        W 5663   5.670   5.346  12.423 -0.2415  0.0826  0.0825
 1613W        W 5664   8.017  10.196  11.503 -0.0320  0.1842 -0.1393
 1614W        W 5665   2.224   5.193   0.589 -0.3763  0.1505 -0.2501
 1615W        W 5666   0.209   7.186   4.414  0.0018 -0.0678  0.1032
 1616W        W 5667   3.546   1.407   4.556 -0.1307 -0.3801  0.1851
 1617W        W 5668   7.415   9.555   4.291  0.1344 -0.1486  0.0196
 1618W        W 5669   6.031   9.911   3.776  0.1923 -0.0658  0.1063
 1619W        W 5670   9.946   2.579  13.642 -0.3110 -0.1884 -0.5032
 1620W        W 5671   7.162   6.163   3.674 -0.3637  0.0045  0.1535
 1621W        W 5672   0.272   7.945  11.732 -0.1187 -0.2423  0.0419
 1622W        W 5673   4.988   1.193  12.493 -0.1337  0.0184 -0.1630
 1623W        W 5674   5.031   6.493  13.600  0.0637 -0.0360 -0.2975
 1624W        W 5675   4.021   0.205   3.760  0.1437 -0.3418 -0.1682
 1625W        W 5676   4.986   4.915   1.448  0.3263 -0.0998 -0.4908
 1626W        W 5677   2.231   1.433  12.968 -0.2459  0.1452  0.1024
 1627W        W 5678  10.009   0.329   1.870  0.0701 -0.1379 -0.2905
 1628W        W 5679   7.338   5.603  10.774 -0.0431  0.0716 -0.3153
 1629W        W 5680   9.518   3.529   4.191 -0.5077 -0.1596  0.0177
 1630W        W 5681  10.024   5.274   3.962  0.0035 -0.2783 -0.3021
 1631W        W 5682   6.759   0.860  13.564  0.0847 -0.1613 -0.0224
 1632W        W 5683   2.257   3.652   9.652 -0.1230 -0.0160  0.2607
 1633W        W 5684   1.001   5.115   4.554  0.0558  0.1553  0.2229
 1634W        W 5685   0.839   3.852   2.875 -0.3443 -0.1470 -0.0929
 1635W        W 5686   4.649   8.991   3.543  0.3258  0.0602  0.1669
 1636W        W 5687   7.913   4.499   0.292  0.2017 -0.0633 -0.0467
 1637W        W 5688   5.703   6.536   1.860 -0.1804  0.2797  0.3595
 1638W        W 5689   0.237   5.337   1.576 -0.1628 -0.2187 -0.1262
 1639W        W 5690   6.357   9.052   9.439  0.0568 -0.0531 -0.2103
 1640W        W 5691   9.020   5.504  10.473  0.3048 -0.1066 -0.3250
 1641W        W 5692   8.307   3.765  10.406 -0.0855 -0.2006 -0.0071
 1642W        W 5693   0.202   9.069  11.874 -0.2742  0.1991  0.2328
 1643W        W 5694   3.329   2.318  13.574  0.1298 -0.0724 -0.0907
 1644W        W 5695   4.521   3.886   2.325  0.0457 -0.0483 -0.2330
 1645W        W 5696   3.629   7.650  10.607 -0.2138 -0.0155 -0.2178
 1646W        W 5697   1.143   8.372   4.464 -0.0066 -0.0294 -0.2097
 1647W        W 5698   2.052   3.105   9.724 -0.1741 -0.0082  0.0248
 1648W        W 5699   3.801   2.660   9.187  0.2875  0.3389  0.0481
 1649W        W 5700   1.370   6.630   3.107 -0.0425 -0.3369  0.1569
 1650W        W 5701   4.696   7.764  13.913 -0.3083 -0.1314  0.2423
 1651W        W 5702   5.272   4.097   8.778  0.0436 -0.0343  0.1338
 1652W        W 5703   9.316   2.247  12.768  0.0152  0.1382  0.0530
 1653W        W 5704   8.435   5.196   8.859 -0.1312 -0.1422 -0.0559
 1654W        W 5705   5.955   1.131   9.942  0.3556  0.1993 -0.3586
 1655W        W 5706   9.480   4.712   1.845  0.0506  0.1007 -0.1382
 1656W        W 5707   6.270   7.562   1.889  0.3420 -0.1152  0.2614
 1657W        W 5708   1.884   0.200   2.360  0.0198  0.2350 -0.0355
 1658W        W 5709   3.835   2.147   3.921 -0.0617 -0.0763 -0.1627
 1659W        W 5710   6.907   9.942   4.062  0.1267 -0.0048 -0.1650
 1660W        W 5711   6.280   5.516  10.351 -0.3322  0.0028  0.0946
 1661W        W 5712   6.273   4.729   0.112  0.0303  0.1963  0.0624
 1662W        W 5713   9.260   8.987   9.747 -0.0769  0.0078 -0.0225
 1663W        W 5714   2.977   0.071   9.861  0.0339  0.0341  0.1751
 1664W        W 5715   8.510   1.627  11.153  0.1115  0.0113  0.2461
 1665W        W 5716   9.805   1.883   3.582  0.1577  0.0405  0.3118
 1666W        W 5717  10.037   9.825  12.906  0.1063 -0.0454 -0.3346
 1667W        W 5718   7.236   8.705  13.865  0.0626 -0.1728 -0.3165
 1668W        W 5719   7.063   1.851   0.142  0.2293 -0.1800  0.0740
 1669W        W 5720   9.964   6.842  12.320  0.2612  0.0240 -0.0637
 1670W        W 5721   4.865   9.239   2.198  0.0320  0.2868 -0.2029
 1671W        W 5722   1.473   0.987  13.065  0.0504 -0.0272  0.1639
 1672W        W 5723   9.955   9.316  11.227  0.0831  0.0574 -0.2141
 1673W        W 5724   3.820   0.731   0.241 -0.3203 -0.0695  0.4266
 1674W        W 5725   6.248   9.058  12.530 -0.2147  0.1726 -0.0497
 1675W        W 5726   4.161   2.265  10.527 -0.0481  0.3559  0.0425
 1676W        W 5727   3.406   3.533   8.915 -0.5479  0.0058  0.1981
 1677W        W 5728   3.691   1.773   2.555 -0.6304  0.1053  0.2779
 1678W        W 5729   2.383   1.148   4.062 -0.1109 -0.0624 -0.1449
 1679W        W 5730   7.570   0.076  11.698 -0.0047 -0.0946  0.4154
 1680W        W 5731   9.996   3.918  12.542 -0.0129 -0.0653 -0.1746
 1681W        W 5732   0.851   0.858  11.338  0.0147 -0.4176 -0.0032
 1682W        W 5733   0.760   7.446   9.330 -0.2450  0.1288 -0.0121
 1683W        W 5734   3.481   4.872  12.724 -0.1246  0.2646  0.0138
 1684W        W 5735   9.011   8.848  12.833 -0.3405 -0.0628 -0.1202
 1685W        W 5736   7.345   8.992   9.804  0.0656 -0.2067 -0.2447
 1686W        W 5737   9.216   5.556   3.478  0.1211 -0.2154 -0.5576
 1687W        W 5738   0.487   8.801   2.490 -0.1957  0.0817  0.2437
 1688W        W 5739   7.550   0.586   2.222  0.2509  0.0485 -0.2387
 1689W        W 5740   6.596   7.720   0.987 -0.0640 -0.1892 -0.2431
 1690W        W 5741   4.048   2.887  13.390 -0.2064  0.1028 -0.3700
 1691W        W 5742   5.244   3.595  12.096  0.3408 -0.0358 -0.0115
 1692W        W 5743   1.916   7.596   3.490  0.3913 -0.1738 -0.4254
 1693W        W 5744   7.662   5.881  10.460  0.1138  0.1600 -0.0128
 1694W        W 5745   6.849   1.029  12.522  0.1550  0.1002  0.1479
 1695W        W 5746   5.386   2.979   8.964 -0.3021  0.1560  0.0836
 1696W        W 5747   2.501   0.785  13.770  0.1194 -0.0695  0.0245
 1697W        W 5748   2.449   7.412   0.099 -0.1619  0.0698 -0.3751
 1698W        W 5749   3.481   0.995   3.844 -0.0823 -0.2442  0.1999
 1699W        W 5750   9.608   1.199   2.242 -0.0906  0.4310 -0.1663
 1700W        W 5751   2.115   2.800  12.225 -0.0123  0.3660 -0.0754
 1701W        W 5752   9.762   9.576   1.083 -0.1151  0.0402 -0.2651
 1702W        W 5753   6.587   9.172   3.537 -0.1048  0.0085  0.0500
 1703W        W 5754   4.282   9.794   0.661 -0.3597  0.0909  0.1856
 1704W        W 5755   5.070   3.718   1.169  0.0578  0.2275  0.2524
 1705W        W 5756   7.510   9.628   2.555  0.1878 -0.0412  0.2935
 1706W        W 5757   1.513   5.820   1.849 -0.1146 -0.1292  0.2535
 1707W        W 5758   7.476   2.902   0.690  0.0191  0.0517  0.2007
 1708W        W 5759   8.798   9.521   5.158  0.0759  0.1681 -0.0621
 1709W        W 5760   6.217   0.254   9.485  0.1564  0.0315 -0.2229
 1710W        W 5761   9.683   8.194   9.214  0.0340 -0.1586  0.0659
 1711W        W 5762   4.162   8.772   0.574 -0.0466 -0.2538  0.0207
 1712W        W 5763   8.375   9.916   9.818  0.0334  0.0238 -0.0380
 1713W        W 5764   6.346   2.579   9.266  0.1916  0.1047  0.0852
 1714W        W 5765   1.833   8.940  13.801 -0.0049 -0.1585 -0.1596
 1715W        W 5766   4.893   0.876   4.794  0.0967  0.0172 -0.1709
 1716W        W 5767   7.664   7.796   3.944  0.2377 -0.2008  0.2440
 1717W        W 5768   6.735   2.691   4.849 -0.1697 -0.1536  0.2971
 1718W        W 5769   0.574   0.771   9.255  0.0561  0.1698 -0.1093
 1719W        W 5770   5.863   9.286   0.012 -0.3467  0.3125 -0.1957
 1720W        W 5771   7.122   0.326   3.285 -0.1615 -0.0101 -0.0293
 1721W        W 5772   3.519   2.517  11.256  0.2433  0.2435 -0.1838
 1722W        W 5773   7.462   6.465   2.704 -0.1103  0.1891 -0.2787
 1723W        W 5774   7.733   1.279   9.497  0.0738  0.2551 -0.1299
 1724W        W 5775   9.191   0.912  11.449  0.0789  0.2549 -0.0639
 1725W        W 5776   1.584   4.986   9.487 -0.1151  0.1773 -0.0757
 1726W        W 5777   2.367   0.765  12.125  0.1608  0.0873  0.2096
 1727W        W 5778   7.967   2.863   4.396  0.0973 -0.2148  0.0822
 1728W        W 5779   0.315   9.115  13.058 -0.2425  0.1188 -0.2708
 1729W        W 5780   8.383   3.083   3.411 -0.0395 -0.0694  0.2453
 1730W        W 5781   6.950   8.848   1.783 -0.0265 -0.0608  0.0480
 1731W        W 5782   7.775   2.003  11.712 -0.2156  0.0502  0.3472
 1732W        W 5783   4.655  10.100   2.649 -0.1203 -0.2302  0.2794
 1733W        W 5784   7.138   3.533   0.087  0.1009  0.1173 -0.1037
 1734W        W 5785   1.113   3.624  10.002 -0.1597 -0.1832 -0.0337
 1735W        W 5786   5.905   8.735   2.660 -0.0594 -0.2193 -0.1466
 1736W        W 5787   0.914   5.508   1.395  0.1831  0.0625 -0.0189
 1737W        W 5788   7.458   5.117   2.451 -0.0651 -0.3077  0.2043
 1738W        W 5789   2.528   5.845   3.177  0.2672  0.2106  0.1076
 1739W        W 5790   5.657   3.637   0.117  0.1957 -0.3820  0.1132
 1740W        W 5791   1.253   5.967  12.558 -0.3039  0.2070 -0.1347
 1741W        W 5792   3.216   9.743   3.794  0.1923  0.0817 -0.1699
 1742W        W 5793   5.204   7.572  12.316 -0.3159 -0.5822  0.0486
 1743W        W 5794   7.426   0.449   4.407  0.0356 -0.0042  0.1869
 1744W        W 5795   9.757   0.063  13.817 -0.2560  0.0518 -0.0984
 1745W        W 5796   8.061   1.710   1.626 -0.2012 -0.2393  0.1961
 1746W        W 5797   9.044   0.618   0.997 -0.2474 -0.1621  0.4252
 1747W        W 5798   0.319   4.547  10.269 -0.1542 -0.2216 -0.0663
 1748W        W 5799   8.136   3.885   4.056  0.0074  0.1042 -0.0789
 1749W        W 5800   7.018   2.832  12.310  0.0277  0.1460 -0.2019
 1750W        W 5801   5.019   0.606   9.378  0.1701 -0.0283  0.1836
 1751W        W 5802   0.887   1.072   1.623  0.0300 -0.1315  0.1083
 1752W        W 5803   4.692   1.471   1.246 -0.1765  0.1386  0.0322
 1753W        W 5804   4.064   0.256   0.314  0.5814  0.3530  0.2307
 1754W        W 5805   9.374   9.304  13.451 -0.0030  0.1629 -0.2644
 1755W        W 5806  10.064   5.454  10.909 -0.0559  0.0341  0.1980
 1756W        W 5807   5.277   2.054   0.788 -0.0256  0.0179 -0.0777
 1757W        W 5808   7.671   6.453  12.393  0.2538  0.3916 -0.1054
 1758W        W 5809   7.027   3.235   1.412 -0.0024 -0.3725  0.0518
 1759W        W 5810   0.936   9.398   3.714 -0.1019 -0.0513  0.1374
 1760W        W 5811   7.850   5.387   2.223  0.1455 -0.0651 -0.1114
 1761W        W 5812   2.190   7.580   3.031 -0.1027 -0.2695 -0.3230
 1762W        W 5813   1.501   7.449  12.310 -0.1259 -0.0004 -0.0832
 1763W        W 5814  10.060   8.345   0.475 -0.0907 -0.1946 -0.1933
 1764W        W 5815   6.622   6.667  12.991  0.0371  0.1813 -0.0372
 1765W        W 5816   4.524   0.379   9.215 -0.1591  0.1442 -0.0706
 1766W        W 5817   0.861   3.723   4.355 -0.0043  0.1956  0.0959
 1767W        W 5818   9.411   2.844   1.050  0.3196 -0.2373 -0.1708
 1768W        W 5819   7.465   2.270   4.752  0.1999 -0.2089 -0.1476
 1769W        W 5820   1.367   1.099   2.008  0.1023  0.1883  0.2958
 1770W        W 5821   7.105   9.700   2.990  0.3517 -0.2865  0.1484
 1771W        W 5822   2.979   8.574  11.812  0.1251 -0.4099  0.2942
 1772W        W 5823   7.708   7.377   2.308  0.0778  0.1743  0.1839
 1773W        W 5824   0.870   7.357   1.760  0.1722  0.3446 -0.0806
 1774W        W 5825   4.553   6.713  10.519 -0.0864  0.0199  0.1836
 1775W        W 5826   9.000   2.764   0.651 -0.0626  0.1023 -0.1202
 1776W        W 5827   5.971   4.787   2.258 -0.1782  0.0162  0.1799
 1777W        W 5828   4.366   7.378  13.270  0.1099  0.1576 -0.3217
 1778W        W 5829   9.977   5.953  12.793  0.2485 -0.2070 -0.0408
 1779W        W 5830   5.193   0.362   9.803  0.1202 -0.3900  0.2222
 1780W        W 5831   8.978   4.292   2.616 -0.0919  0.0913  0.2192
 1781W        W 5832   4.424   6.645  12.024 -0.1720  0.0171  0.0320
 1782W        W 5833   8.599   9.189  10.842 -0.0801 -0.1307  0.2490
 1783W        W 5834   6.769   5.919  13.899  0.0660 -0.0464  0.2804
 1784W        W 5835   0.629   4.912  12.632  0.4386  0.0554 -0.1464
 1785W        W 5836   8.791   7.179   0.436 -0.0378  0.1648  0.1419
 1786W        W 5837   6.591   8.686  11.692 -0.1004 -0.0097  0.2673
 1787W        W 5838   6.447   9.510   3.200 -0.1426  0.1577  0.0031
 1788W        W 5839   2.102   5.791  11.167 -0.0344 -0.5191  0.2192
 1789W        W 5840   3.718   3.671   1.457  0.1043 -0.0893  0.3291
 1790W        W 5841   3.987   3.677   3.404  0.0781 -0.1579  0.2263
 1791W        W 5842   3.174   0.641  10.439  0.1343  0.0135  0.0290
 1792W        W 5843   7.849   2.404  12.595 -0.0614 -0.1809 -0.0341
 1793W        W 5844   3.035   3.375   5.260  0.1930  0.2065 -0.2302
 1794W        W 5845   8.509   5.575  11.273  0.3024  0.0298 -0.1018
 1795W        W 5846   1.835   8.793   2.495  0.0476 -0.0943  0.2637
 1796W        W 5847   6.401   1.258   4.100 -0.2948  0.0809  0.0965
 1797W        W 5848   5.966   3.628  12.730 -0.1361  0.0373  0.1789
 1798W        W 5849   6.968   7.258  11.092 -0.2215 -0.0057 -0.2615
 1799W        W 5850   3.395   3.771   1.953  0.0093 -0.0567  0.0387
 1800W        W 5851   1.013   1.321  12.757 -0.0906  0.2227 -0.0455
 1801W        W 5852   1.565   1.041  10.510  0.3347 -0.0333 -0.0820
 1802W        W 5853   6.970   6.649   1.251  0.2124 -0.1390 -0.1972
 1803W        W 5854   5.276   1.551   3.287  0.0351 -0.1167 -0.1495
 1804W        W 5855   2.252   8.358  11.377  0.1824  0.1720 -0.0421
 1805W        W 5856   1.456   4.414  13.425  0.1272 -0.5992 -0.4282
 1806W        W 5857   1.419   3.597   3.503 -0.1155 -0.0353 -0.0641
 1807W        W 5858   8.241   5.762   0.605  0.0084 -0.0083 -0.1247
 1808W        W 5859   4.569   0.332   1.788 -0.1680  0.1434  0.0938
 1809W        W 5860   4.780   9.621  11.240  0.0393  0.1419  0.0722
 1810W        W 5861   1.883   6.566  11.160 -0.1843  0.2560 -0.2684
 1811W        W 5862   2.845   4.366  13.713  0.2597  0.2096 -0.0288
 1812W        W 5863   1.552  10.013  12.888 -0.1907 -0.0797  0.2133
 1813W        W 5864   6.614   8.199   0.726  0.0846  0.1315  0.0727
 1814W        W 5865   3.575   3.494   4.382  0.2527 -0.2339 -0.0490
 1815W        W 5866  10.055   2.854   4.379  0.4582 -0.2906  0.1062
 1816W        W 5867   2.032   7.611  13.762 -0.1656  0.0226 -0.1507
 1817W        W 5868   4.797   2.695   4.868  0.1418 -0.3619  0.0267
 1818W        W 5869   3.781   9.907  12.179  0.2922 -0.0585 -0.0463
 1819W        W 5870   9.801   0.068   4.802 -0.0344 -0.1564  0.1908
 1820W        W 5871   8.128   8.784  13.781 -0.0053  0.0072  0.2128
 1821W        W 5872   3.035   0.648   3.758 -0.0229 -0.0281 -0.0699
 1822W        W 5873   7.110   4.855   9.267  0.3324  0.2745  0.1159
 1823W        W 5874   2.817   1.096  10.189 -0.2355  0.3035 -0.0452
 1824W        W 5875   1.570   1.853  12.737  0.0371 -0.0072 -0.2609
 1825W        W 5876   2.855   1.594  10.368  0.2895 -0.1834  0.0377
 1826W        W 5877   4.701   8.255   1.736  0.0710  0.1827 -0.0843
 1827W        W 5878   7.047   0.729  10.495 -0.0715 -0.1803 -0.3300
 1828W        W 5879   0.226   9.299  13.548  0.1915 -0.1642  0.1146
 1829W        W 5880   4.170   4.531   0.243  0.0634 -0.0471  0.2120
 1830W        W 5881   1.654   2.206  10.499  0.3869  0.1249 -0.0577
 1831W        W 5882   0.402   2.012   9.671 -0.0190  0.1505 -0.0702
 1832W        W 5883   1.747   8.431   3.636 -0.3804  0.1079  0.3792
 1833W        W 5884   8.440   4.254   2.526  0.0178  0.2319  0.0811
 1834W        W 5885   3.950   8.320   0.469  0.2484  0.2552  0.2526
 1835W        W 5886   3.142   1.405   0.177 -0.0914 -0.0841  0.0194
 1836W        W 5887   7.629   1.322   0.518 -0.1040 -0.0342  0.0928
 1837W        W 5888   7.673   1.097   1.928  0.0375 -0.2519  0.1026
 1838W        W 5889   4.480   7.502   2.228 -0.0739  0.0067 -0.1027
 1839W        W 5890   6.659   7.747   3.072  0.0528  0.3295 -0.0123
 1840W        W 5891   4.466   1.947  13.136  0.6936  0.0708 -0.1263
 1841W        W 5892   6.033   0.611   3.200  0.0417  0.1152 -0.0740
 1842W        W 5893   6.050   5.497  10.800  0.3085 -0.1647  0.0123
 1843W        W 5894   9.497   7.633   3.206  0.1122  0.0283 -0.0097
 1844W        W 5895   9.534   1.895   0.750  0.1740  0.0030 -0.2838
 1845W        W 5896   3.175   4.226   0.251  0.0289  0.0900  0.1938
 1846W        W 5897   6.526   9.747  12.707  0.1209  0.1389 -0.2078
 1847W        W 5898   1.915   2.303   4.112 -0.2178 -0.2473  0.1809
 1848W        W 5899   2.948   1.622   3.257 -0.0330  0.1470  0.1405
 1849W        W 5900   9.980   1.070   4.912 -0.1518 -0.0612  0.3165
 1850W        W 5901   2.461   9.686   2.750 -0.1257 -0.3396 -0.1005
 1851W        W 5902   4.522   7.348   1.379  0.1114  0.3479  0.3537
 1852W        W 5903   1.973   2.144   1.399 -0.0689  0.1570 -0.3923
 1853W        W 5904   6.369   9.159  11.877  0.0143  0.2747 -0.1672
 1854W        W 5905   2.261   0.594   2.506  0.0537 -0.3248  0.1741
 1855W        W 5906  10.039   5.244   9.151 -0.0326  0.2037 -0.1284
 1856W        W 5907   6.312   6.413  13.902 -0.0422  0.1587 -0.1047
 1857W        W 5908   8.196  10.056  10.743 -0.3195  0.0957 -0.0641
 1858W        W 5909   3.442   8.834   9.977 -0.0294  0.1529 -0.1661
 1859W        W 5910   5.597   7.473  13.645 -0.0078 -0.0410  0.0483
 1860W        W 5911   3.288   1.890  13.865 -0.0941  0.1127 -0.2097
 1861W        W 5912   1.705   6.637  13.869  0.0180 -0.0620  0.2611
 1862W        W 5913   9.371   9.516  10.436  0.1899  0.2024 -0.0741
 1863W        W 5914   0.824   0.396   4.273 -0.3061  0.2709 -0.1078
 1864W        W 5915   3.271   7.163   1.004 -0.0579  0.1736  0.0947
 1865W        W 5916   7.585   6.363  11.899  0.2484 -0.2034 -0.2942
 1866W        W 5917   8.399   1.763   2.627 -0.1088  0.0226 -0.0755
 1867W        W 5918   6.079   2.218   1.082 -0.1814 -0.1047 -0.0960
 1868W        W 5919   1.913   6.442   0.799  0.3420  0.0133  0.5588
 1869W        W 5920   9.621   4.921   4.031 -0.2775 -0.0322 -0.1813
 1870W        W 5921   7.234   4.748  11.334 -0.0349  0.4098  0.0895
 1871W        W 5922   2.146   2.805   2.097  0.3527  0.0476 -0.0667
 1872W        W 5923   9.619   5.315   9.350  0.1453  0.3156 -0.4076
 1873W        W 5924   3.481   3.179  11.586  0.0009 -0.3144  0.0917
 1874W        W 5925   2.290   8.943   1.710  0.0080  0.2257  0.1840
 1875W        W 5926   2.220   5.036   2.892  0.1796 -0.2847  0.4561
 1876W        W 5927   3.755   4.723  13.239  0.3392  0.5894 -0.0343
 1877W        W 5928   2.258   8.304  13.104  0.1514 -0.0708 -0.0578
 1878W        W 5929   7.325   6.106   2.005  0.0861  0.2301 -0.1492
 1879W        W 5930   0.954   9.652   0.402  0.0793  0.1900 -0.1744
 1880W        W 5931   8.553   6.674   0.982 -0.0224 -0.3125 -0.0364
 1881W        W 5932  10.074   4.136   2.247  0.1954  0.3538 -0.0126
 1882W        W 5933   7.223   2.677   1.397 -0.0104 -0.4732  0.3811
 1883W        W 5934   3.693   1.359  10.276  0.3195 -0.2323 -0.0081
 1884W        W 5935   9.552   6.968   1.967 -0.1505 -0.0456  0.1774
 1885W        W 5936   5.012   3.651  12.816 -0.1990  0.1093  0.0895
 1886W        W 5937   6.124   2.729  12.708  0.0946  0.0963 -0.1642
 1887W        W 5938   1.056   2.692   1.452  0.1231  0.1169  0.1564
 1888W        W 5939   3.538   1.865   4.398 -0.1898 -0.1152 -0.3651
 1889W        W 5940   7.635   3.541   4.628  0.0381 -0.2866  0.0701
 1890W        W 5941   4.624   7.405  12.182  0.0899 -0.1140  0.1228
 1891W        W 5942   8.350   9.333  12.480 -0.2224 -0.1183  0.1141
 1892W        W 5943   6.220   7.025   3.510  0.0093 -0.0897 -0.0078
 1893W        W 5944  10.017   5.080   0.033  0.2985 -0.0741  0.2347
 1894W        W 5945   3.118   6.476   1.712  0.0639 -0.2557 -0.0438
 1895W        W 5946   6.151   9.258   3.959 -0.2781 -0.0001  0.0188
 1896W        W 5947   9.529   0.009   1.982  0.1779 -0.0473 -0.0778
 1897W        W 5948   2.014   3.298  11.582 -0.3643 -0.6308  0.1323
 1898W        W 5949   7.536   7.043  10.188 -0.1880  0.0421  0.4302
 1899W        W 5950   8.173   6.952   1.103 -0.1123 -0.0933  0.0888
 1900W        W 5951   7.215   5.165  11.092  0.2821 -0.1395  0.0066
 1901W        W 5952   0.949   3.238   0.580 -0.0046 -0.0629  0.0101
 1902W        W 5953   6.255   3.224  12.940 -0.3955 -0.1802 -0.0761
 1903W        W 5954   8.830   6.884   4.514 -0.1234 -0.1828 -0.1211
 1904W        W 5955   1.530   3.177  13.033 -0.2155  0.1146 -0.0517
 1905W        W 5956   7.896   8.703   9.866  0.0140 -0.3911  0.1912
 1906W        W 5957   8.420   7.412   2.754 -0.2018  0.0736  0.0646
 1907W        W 5958   2.513   8.245  13.724  0.0262 -0.0783  0.1903
 1908W        W 5959   0.177   0.782  12.590 -0.0780  0.0739 -0.0096
 1909W        W 5960   4.664   1.576  13.446  0.2833 -0.2502 -0.0558
 1910W        W 5961   2.834   4.003   0.784 -0.1220  0.0288 -0.0580
 1911W        W 5962   9.674   9.820   5.171  0.3054  0.0940 -0.0935
 1912W        W 5963   4.331   9.282   2.125 -0.0606  0.1555 -0.1484
 1913W        W 5964   9.698   3.864  11.251 -0.0732  0.1889  0.3380
 1914W        W 5965   5.562   4.658  11.817  0.2407  0.0157  0.1294
 1915W        W 5966   9.247   7.559   4.662  0.0405 -0.1922  0.0005
 1916W        W 5967   9.120   0.571   9.490  0.0345  0.0088 -0.1418
 1917W        W 5968   3.034   2.632  13.256 -0.2249 -0.1216  0.3733
 1918W        W 5969   2.541   6.760   3.194 -0.2624  0.0616  0.0876
 1919W        W 5970   3.023   4.952   3.262 -0.1575  0.0636  0.7009
 1920W        W 5971   6.529   8.644   9.849  0.1033  0.0265 -0.1083
 1921W        W 5972   7.965   7.764   1.478  0.1093 -0.2350 -0.2244
 1922W        W 5973   9.748   6.218  10.157 -0.1604 -0.0197  0.1858
 1923W        W 5974   3.037   8.586  11.280  0.0264  0.5307 -0.2549
 1924W        W 5975   4.924   0.718   1.740 -0.0868 -0.0386 -0.2483
 1925W        W 5976   8.431   2.527   2.052 -0.2267 -0.0922 -0.1779
 1926W        W 5977   9.776   2.475   1.951  0.1253  0.2738 -0.4627
 1927W        W 5978   5.224   3.476   4.024  0.3432 -0.0545 -0.0475
 1928W        W 5979  10.119   9.581   2.828 -0.2440  0.3012 -0.0089
 1929W        W 5980   7.944   0.500  11.560  0.0339  0.0555 -0.2803
 1930W        W 5981   3.209   9.973   9.428  0.2375  0.0743 -0.3065
 1931W        W 5982   5.635   5.119   2.775 -0.1265 -0.2046  0.3670
 1932W        W 5983   6.387   8.755   0.492 -0.1807 -0.0599  0.1143
 1933W        W 5984   0.726   0.104   1.895  0.0680 -0.0267 -0.1640
 1934W        W 5985   7.714   2.813   4.987 -0.1842 -0.3790 -0.5326
 1935W        W 5986   0.327   2.181   3.508 -0.2950  0.0271  0.0802
 1936W        W 5987   9.349  10.048   4.662  0.0806  0.2781 -0.0680
 1937W        W 5988   0.252   0.841   2.157  0.1370  0.0232 -0.0303
 1938W        W 5989   7.485   3.847   2.357  0.2463  0.1571 -0.1161
 1939W        W 5990   6.122   2.682   3.541 -0.0889  0.3330  0.3480
 1940W        W 5991   0.067   5.026   9.499 -0.0883 -0.2477  0.0069
 1941W        W 5992   3.541   0.947   4.743  0.0731 -0.0570  0.3176
 1942W        W 5993   0.504   7.466   0.545 -0.3048 -0.2091  0.0749
 1943W        W 5994   4.890   0.436   0.548  0.1381 -0.0117  0.0796
 1944W        W 5995   2.129   0.488   0.048 -0.0755  0.1374 -0.0816
 1945W        W 5996   0.910   0.401  11.687  0.0897  0.0534  0.1783
 1946W        W 5997   1.595   9.885   9.747 -0.1595  0.3318 -0.1397
 1947W        W 5998   3.863   0.474  11.103  0.4233 -0.1362  0.1393
 1948W        W 5999   8.017   9.900   0.468 -0.0419  0.0601  0.1300
 1949W        W 6000   4.832   6.384   2.886 -0.1733 -0.3437 -0.0233
 1950W        W 6001   9.196   3.473   2.920 -0.4786 -0.1237  0.3085
 1951W        W 6002   4.282   4.228   1.989 -0.1925 -0.2581  0.0966
 1952W        W 6003   3.840   0.272   9.346 -0.3277 -0.3048  0.4324
 1953W        W 6004   2.800   0.055   3.354 -0.3141 -0.3153  0.1024
 1954W        W 6005   3.136   3.694  10.692 -0.4379 -0.1114 -0.0319
 1955W        W 6006   0.899   5.698   3.248 -0.0683 -0.3151 -0.3005
 1956W        W 6007   9.782   1.417   1.664 -0.1611 -0.0245 -0.1672
 1957W        W 6008   3.510   7.846  13.415  0.1067 -0.0249 -0.1314
 1958W        W 6009   0.066   3.946   1.757 -0.0481 -0.3258  0.0842
 1959W        W 6010   8.318   8.124   1.053  0.0534  0.1509 -0.0412
 1960W        W 6011   1.318   1.831   5.553 -0.3146  0.1959  0.2596
 1961W        W 6012   4.356   4.024   0.344  0.2021  0.1262 -0.0434
 1962W        W 6013  10.052   6.806   2.293 -0.1669 -0.2245 -0.0659
 1963W        W 6014   9.869   0.005   3.194 -0.1955  0.2115  0.2097
 1964W        W 6015   1.628   3.422   1.218 -0.3283 -0.0410 -0.3102
 1965W        W 6016   5.333   0.701   5.022  0.0640 -0.1032 -0.1047
 1966W        W 6017   9.557   4.468   1.426 -0.0543  0.1603  0.2703
 1967W        W 6018   9.043   5.105   4.760 -0.0341  0.2202 -0.1423
 1968W        W 6019   7.131   1.850   4.531  0.1506  0.0169 -0.0281
 1969W        W 6020   9.005   8.375   1.052 -0.5080  0.1413 -0.1923
 1970W        W 6021   5.321   9.782   0.774  0.2184 -0.2118 -0.3260
 1971W        W 6022   2.872   6.282   0.677 -0.2035  0.2672  0.0666
 1972W        W 6023   1.370   0.561  12.535  0.0358 -0.0722  0.0204
 1973W        W 6024   6.161  10.002   2.354  0.2094  0.1319 -0.2084
 1974W        W 6025   0.384   3.261  11.146 -0.3451 -0.1401  0.1743
 1975W        W 6026   7.457   2.289   2.289  0.0818 -0.4497  0.0106
 1976W        W 6027   4.605   3.953   3.366 -0.4723 -0.1977  0.1713
 1977W        W 6028   3.314   3.731   9.910  0.2207  0.0568  0.0040
 1978W        W 6029   8.949   4.311   3.705 -0.0884  0.3083  0.0248
 1979W        W 6030   9.226   4.605   3.985 -0.0218 -0.0911  0.3497
 1980W        W 6031   4.060   2.484  13.045 -0.0362  0.0373  0.0336
 1981W        W 6032   4.568  10.005  13.654  0.4531 -0.0571  0.1366
 1982W        W 6033   0.244  10.166   0.672  0.0623 -0.1446 -0.0202
 1983W        W 6034   1.760   7.968   2.482 -0.1413  0.2960 -0.0778
 1984W        W 6035   8.249   7.891  13.255 -0.0073 -0.0131 -0.2045
 1985W        W 6036   0.838   7.637  11.962 -0.1696 -0.0671  0.0459
 1986W        W 6037   0.240   5.336  12.018 -0.0672  0.1543  0.0237
 1987W        W 6038   9.165   3.839   2.460 -0.0350  0.2620 -0.1350
 1988W        W 6039   5.342   7.392  11.454 -0.0992 -0.1969  0.0514
 1989W        W 6040   2.752   3.827   3.087  0.1386 -0.1496 -0.1700
 1990W        W 6041   2.474   7.780  13.577  0.0799 -0.1565  0.0757
 1991W        W 6042   0.831   8.836   9.464 -0.1355  0.0094 -0.0523
 1992W        W 6043   4.189   0.400   4.272 -0.0930 -0.0692 -0.2336
 1993W        W 6044   2.986   0.201  13.217 -0.1766 -0.0465  0.1802
 1994W        W 6045   7.023   7.474  12.966 -0.3155 -0.0887 -0.0817
 1995W        W 6046   9.465   7.318   4.145  0.0567 -0.0802  0.2547
 1996W        W 6047   8.810   4.292  12.186  0.1867  0.0932 -0.1090
 1997W        W 6048   2.517   8.550  11.856  0.2101 -0.1320 -0.1057
 1998W        W 6049   7.940   0.058   4.133  0.0447 -0.2198  0.1944
 1999W        W 6050   9.502   8.270  13.219 -0.0136 -0.3448  0.3781
 2000W        W 6051   4.637   1.247   4.061  0.2210 -0.1341 -0.0789
 2001W        W 6052   6.773   9.007  13.329 -0.0762 -0.2631 -0.2063
 2002W        W 6053   6.598   4.209   9.048  0.0444 -0.1413 -0.0822
 2003W        W 6054   9.184   7.059   0.828 -0.0121  0.2090  0.0006
 2004W        W 6055   8.451   4.863   9.527 -0.0928  0.0048  0.1441
 2005W        W 6056   7.729  10.018  10.905 -0.0532  0.1112 -0.0035
 2006W        W 6057   6.074   0.109  13.770  0.0315 -0.0014  0.1767
 2007W        W 6058   5.812   2.323  11.369 -0.0743  0.4098  0.0108
 2008W        W 6059   8.111   8.054   3.831 -0.1348 -0.0610  0.0321
 2009W        W 6060   0.145   2.086  11.353  0.0769  0.3430 -0.4046
 2010W        W 6061   4.304   6.723  13.469 -0.1832 -0.0583  0.1918
 2011W        W 6062   1.805   1.219   8.917  0.1094 -0.1596  0.1089
 2012W        W 6063   6.269   4.281  10.190  0.0442 -0.1000  0.1676
 2013W        W 6064   1.237   3.044   0.944 -0.0709 -0.0523 -0.2460
 2014W        W 6065   2.607   5.226  11.022  0.0083  0.0005 -0.1243
 2015W        W 6066   0.231   5.632  10.528  0.3432 -0.2616  0.1114
 2016W        W 6067   4.677   7.478   3.078  0.0277 -0.1279 -0.1833
 2017W        W 6068   2.149   3.029  10.211 -0.2704  0.4576  0.1303
 2018W        W 6069   7.474  10.061   2.913 -0.1057  0.1421 -0.5124
 2019W        W 6070   0.145   3.097   3.989  0.2374  0.1438  0.1569
 2020W        W 6071   3.282   3.544   3.464  0.0976  0.1889 -0.0269
 2021W        W 6072   1.422   4.949   0.270  0.2882  0.0517 -0.4797
 2022W        W 6073   7.136   5.024  11.762  0.1031 -0.0082 -0.0412
 2023W        W 6074   6.000   9.995  11.438 -0.3770 -0.0781 -0.3120
 2024W        W 6075   2.377   7.239   1.233 -0.2515 -0.1267  0.2010
 2025W        W 6076   9.546   8.609   0.623  0.0484 -0.3022  0.4270
 2026W        W 6077   9.105   8.329   0.523 -0.0075 -0.1868  0.0533
 2027W        W 6078   4.285   6.784   1.867  0.2169  0.0910  0.1731
 2028W        W 6079   1.117   1.024   5.006  0.1480 -0.0165  0.2465
 2029W        W 6080   1.894   7.214  10.088  0.0812 -0.3433  0.2590
 2030W        W 6081  10.166   3.359   3.008 -0.2050  0.1368  0.2170
 2031W        W 6082   4.125   5.027  11.020 -0.3083  0.1234 -0.1867
 2032W        W 6083   2.484   2.831   1.371 -0.1757 -0.2183  0.2917
 2033W        W 6084   9.043   1.766   9.833  0.0317  0.0472 -0.2235
 2034W        W 6085   2.638   5.348  13.759  0.2866 -0.0095 -0.0951
 2035W        W 6086   6.647   2.518  11.412  0.0773 -0.5050  0.2561
 2036W        W 6087   7.762   3.985  10.437 -0.0222 -0.1605 -0.1623
 2037W        W 6088   9.967   8.631   9.302 -0.1344 -0.0402  0.2837
 2038W        W 6089   8.758   6.150   0.237 -0.3189  0.0611  0.2884
 2039W        W 6090   6.028   6.613  12.994  0.3789  0.0971  0.0363
 2040W        W 6091   5.809   4.940  13.593  0.4689 -0.1814  0.1102
 2041W        W 6092   5.454   0.131  12.388 -0.1521 -0.3265  0.0374
 2042W        W 6093   7.188   0.951  11.064  0.0080 -0.1267 -0.0317
 2043W        W 6094   2.419   4.567   2.980 -0.0336  0.3243  0.1445
 2044W        W 6095   1.357   3.006   2.671 -0.3317 -0.1101 -0.2379
 2045W        W 6096   8.407   9.537  12.034 -0.2362  0.3198  0.0933
 2046W        W 6097   2.061   5.658   3.164 -0.0876  0.0204 -0.1050
 2047W        W 6098   1.997   6.584  10.660 -0.0946  0.0175 -0.0802
 2048W        W 6099   4.630   2.847   3.619  0.2451 -0.0827  0.1135
 2049W        W 6100   1.798   6.146  11.472 -0.1930 -0.5150  0.0520
 2050W        W 6101   3.793   0.790   9.595  0.5186 -0.0269  0.0256
 2051W        W 6102   7.945   3.705   2.771 -0.2019  0.1777 -0.2091
 2052W        W 6103   0.722   9.202  13.495 -0.1028  0.2165  0.4059
 2053W        W 6104   6.659   2.503  12.559  0.1173 -0.0500 -0.4276
 2054W        W 6105   9.494   8.979   2.278 -0.1795 -0.2016  0.0684
 2055W        W 6106   0.844   1.940  13.410  0.1354 -0.0472  0.1941
 2056W        W 6107   0.365   8.265   0.195 -0.1004 -0.0687  0.0691
 2057W        W 6108   5.067   7.369   1.683 -0.1696  0.0747 -0.3501
 2058W        W 6109   1.134   9.463  13.397 -0.3794  0.2283 -0.1611
 2059W        W 6110   6.413   3.566   0.793 -0.0307 -0.0234 -0.2142
 2060W        W 6111   3.968   0.762   4.554  0.1414  0.0075 -0.1402
 2061W        W 6112   4.261   9.062   0.160  0.2430  0.1239 -0.3474
 2062W        W 6113   6.804   5.853  11.283 -0.0437  0.1364  0.4141
 2063W        W 6114   1.317   9.920   1.512 -0.2615 -0.4204 -0.2114
 2064W        W 6115   3.276   7.372  10.864 -0.1137  0.0861 -0.2768
 2065W        W 6116   5.311   5.841  11.216  0.1010  0.1063 -0.0998
 2066W        W 6117   1.733   4.824  13.236  0.4130 -0.0909 -0.2193
 2067W        W 6118   0.952   7.607  13.590 -0.0705 -0.1653 -0.0423
 2068W        W 6119   9.491   4.229   2.564 -0.1471  0.2790  0.0603
 2069W        W 6120   0.214   9.255   2.388  0.0738 -0.1535  0.0706
 2070W        W 6121   4.078   0.754   3.647 -0.0749  0.1133  0.1989
 2071W        W 6122   8.412   6.465  12.966  0.0401 -0.3770  0.0918
 2072W        W 6123   1.279   2.230  12.925  0.0262  0.2531 -0.0037
 2073W        W 6124   1.451   9.664   0.195  0.1497 -0.0159 -0.2973
 2074W        W 6125   7.918   3.583   2.266  0.2498 -0.0531 -0.1177
 2075W        W 6126   8.209   5.869  13.846  0.0157  0.1436 -0.1365
 2076W        W 6127   2.142   3.362  13.031  0.1048  0.0139 -0.1902
 2077W        W 6128   9.340   1.002   0.788 -0.1273  0.1616 -0.0738
 2078W        W 6129   7.856   0.567   4.123  0.1184  0.3087 -0.0942
 2079W        W 6130   9.701   2.347   4.284 -0.0123  0.2063 -0.1372
 2080W        W 6131   2.052   0.943  13.135 -0.0037  0.1852 -0.1001
 2081W        W 6132   6.830   4.872  10.867  0.1194  0.1741  0.0214
 2082W        W 6133   3.487   1.366   1.145  0.0637 -0.1189  0.1225
 2083W        W 6134   9.074   1.450   5.055  0.0999 -0.1520  0.2440
 2084W        W 6135   7.279   2.970  13.234 -0.0328  0.1379  0.0732
 2085W        W 6136   8.682   3.640   9.564 -0.1260  0.2539 -0.0123
 2086W        W 6137   1.772   7.392   2.294  0.2478 -0.1769 -0.2014
 2087W        W 6138   2.413   3.141   3.463 -0.3010 -0.0577  0.1642
 2088W        W 6139   1.703   1.133   3.103 -0.1639  0.0703 -0.0006
 2089W        W 6140   4.585   0.935  12.272  0.1116  0.1001 -0.0393
 2090W        W 6141   7.972   2.116   3.482 -0.1318 -0.1010 -0.0368
 2091W        W 6142   4.623   4.964   2.441  0.1162  0.3762 -0.0032
 2092W        W 6143   0.002   0.453   3.971  0.3236  0.1220 -0.4094
 2093W        W 6144   0.976   6.489   9.147  0.0747 -0.1937 -0.1072
 2094W        W 6145   6.887   8.558   0.370  0.0095  0.1450 -0.2904
 2095W        W 6146   5.988   9.388   9.161  0.1083 -0.0124  0.0391
 2096W        W 6147   4.300   4.242  10.320  0.1359  0.1423 -0.2133
 2097W        W 6148   5.746   1.839  11.325 -0.0235  0.0982  0.1611
 2098W        W 6149   4.911   1.858   4.471  0.1308  0.0651  0.1722
 2099W        W 6150   5.953   9.479   1.440  0.0675  0.0156 -0.2688
 2100W        W 6151   8.369   0.382  13.421 -0.1583 -0.0514 -0.2701
 2101W        W 6152   9.639   5.624  12.631 -0.0951  0.0775  0.1725
 2102W        W 6153   8.406   7.404   9.977  0.0053 -0.0638  0.0508
 2103W        W 6154   4.085   3.873   9.528 -0.1018 -0.0430 -0.3705
 2104W        W 6155   5.594   7.654   3.424  0.1317  0.0447 -0.0958
 2105W        W 6156   3.000   8.318  13.904  0.0660 -0.1313  0.1758
 2106W        W 6157   2.419   8.493   1.742 -0.1573 -0.2870  0.0340
 2107W        W 6158   0.661   6.608   1.476 -0.3735 -0.1572 -0.0873
 2108W        W 6159   3.208   8.131   3.422 -0.1346  0.0021 -0.0746
 2109W        W 6160   5.394   9.938  10.592  0.1445  0.0509  0.3427
 2110W        W 6161   1.527   8.797  11.701  0.1832  0.2885 -0.0725
 2111W        W 6162   9.133   3.062   2.292  0.0000 -0.0204  0.2875
 2112W        W 6163   9.221   8.136   2.052 -0.2998 -0.2133 -0.2868
 2113W        W 6164   4.816   0.094   4.567 -0.1262  0.3838 -0.2069
 2114W        W 6165   9.767   4.356  11.213 -0.0359 -0.0229 -0.2119
 2115W        W 6166   8.320   7.501  10.850 -0.1605 -0.2883 -0.0460
 2116W        W 6167   8.486   2.658  13.824 -0.1414  0.0405  0.1841
 2117W        W 6168   7.293  10.072   8.810 -0.1414 -0.0495 -0.1107
 2118W        W 6169   2.249   7.117   0.546 -0.0954 -0.1914 -0.0059
 2119W        W 6170   1.666   9.331  12.580  0.1998 -0.1019  0.0149
 2120W        W 6171   4.301   0.818   4.091 -0.5120  0.0850  0.0920
 2121W        W 6172   0.822   5.486   0.900  0.1325  0.3420 -0.0934
 2122W        W 6173   5.986   1.073   4.359 -0.1647 -0.5104  0.1669
 2123W        W 6174   8.457  10.021  11.333  0.3660  0.0376  0.2713
 2124W        W 6175   2.253   5.461   1.875  0.1604 -0.2769  0.0371
 2125W        W 6176   1.875   9.131  10.783 -0.2175  0.2549  0.2513
 2126W        W 6177   0.372   2.956   3.080  0.0504 -0.2122 -0.1669
 2127W        W 6178   1.806   3.063  12.627  0.0380 -0.0305  0.1037
 2128W        W 6179   4.675   7.733   1.853  0.0289  0.0043 -0.0492
 2129W        W 6180   0.700   3.645  10.814  0.4649 -0.3567  0.0354
 2130W        W 6181   8.952   7.771   9.414  0.2609 -0.0416 -0.0199
 2131W        W 6182   0.070   9.547   0.038  0.1314  0.2911 -0.0645
 2132W        W 6183   1.072   1.770   2.127  0.0655 -0.0890  0.0108
 2133W        W 6184   4.815   6.525  12.927 -0.3349  0.0569  0.2278
 2134W        W 6185   8.437   5.815  10.013  0.0092 -0.1953 -0.0357
 2135W        W 6186   1.677   6.555   4.643  0.2175  0.0052 -0.0303
 2136W        W 6187   6.292   5.909  12.568 -0.1729  0.4038  0.1794
 2137W        W 6188   0.525   0.379  13.475 -0.1428  0.2330  0.2236
 2138W        W 6189   2.144   3.366   0.494  0.4357  0.1617  0.1305
 2139W        W 6190   2.816   1.526  11.791  0.0563 -0.0580  0.0303
 2140W        W 6191   2.673   1.849  13.654  0.2733  0.0772 -0.0628
 2141W        W 6192   4.768   4.027  13.751  0.4157  0.1961  0.1107
 2142W        W 6193   1.009   6.890   0.925 -0.1327 -0.3282 -0.1567
 2143W        W 6194   9.412   7.370   3.665 -0.2980 -0.0180  0.1535
 2144W        W 6195   7.440   6.248   4.511 -0.0473  0.1455  0.0731
 2145W        W 6196   8.910   6.975  11.647  0.1005 -0.1379  0.3730
 2146W        W 6197   9.362   2.977   0.287  0.0023  0.0371 -0.1492
 2147W        W 6198   0.384   4.583  13.428  0.4514  0.2208  0.0702
 2148W        W 6199   3.934   9.248  10.890  0.1207  0.0830  0.1317
 2149W        W 6200   0.833   2.574   4.984  0.0598  0.1666 -0.0062
 2150W        W 6201   2.962   5.162   4.192 -0.2381  0.2833 -0.1710
 2151W        W 6202   7.922   0.342   0.394  0.0110  0.2079  0.0385
 2152W        W 6203   3.044   7.093   9.693 -0.0033  0.0840  0.0183
 2153W        W 6204   9.726   7.325   2.468 -0.4247 -0.1612  0.0319
 2154W        W 6205   6.734   8.591   9.265 -0.1898  0.0407 -0.0338
 2155W        W 6206   9.536   1.351  13.369  0.0914 -0.0087  0.0471
 2156W        W 6207   8.353  10.016   2.689 -0.2892 -0.1104 -0.0217
 2157W        W 6208   6.565   0.039  11.786 -0.2686  0.1791  0.1781
 2158W        W 6209   4.813   8.377  13.773  0.1811 -0.0436  0.1891
 2159W        W 6210   8.904   2.722   9.753  0.1664 -0.1194 -0.1811
 2160W        W 6211   3.199   9.945  13.487 -0.1529  0.3834  0.0941
 2161W        W 6212   9.003   3.400   9.818  0.1354  0.0385  0.2697
 2162W        W 6213   0.761   7.924   5.379 -0.2078 -0.1275 -0.0046
 2163W        W 6214   0.294   5.108   3.764 -0.2353 -0.3122  0.0144
 2164W        W 6215   7.966   3.236   4.841 -0.0451  0.2047 -0.1261
 2165W        W 6216   5.498   8.151  13.126  0.1603 -0.0861  0.1902
 2166W        W 6217   9.998   1.014  12.348 -0.3019 -0.0174 -0.0464
 2167W        W 6218  10.056   9.402   4.588 -0.0852 -0.0988 -0.1232
 2168W        W 6219   2.900   0.569  13.533  0.1139 -0.2816 -0.0545
 2169W        W 6220   5.172   4.600   9.578  0.0239 -0.0084 -0.0971
 2170W        W 6221   2.149   0.363   9.971  0.2440 -0.1784  0.1593
 2171W        W 6222   8.193   2.597  12.926 -0.0995  0.2228  0.2020
 2172W        W 6223   6.761   9.821  13.529  0.1102 -0.2319  0.1638
 2173W        W 6224   8.867   9.927   1.780  0.0313 -0.0451  0.0255
 2174W        W 6225   8.340   2.366  12.496 -0.2780  0.1310 -0.2672
 2175W        W 6226   0.553   1.740  12.623 -0.3189 -0.2927 -0.2408
 2176W        W 6227   6.186   6.530  11.047  0.1074 -0.0423  0.1712
 2177W        W 6228   6.157   4.414   1.511 -0.1519 -0.5531 -0.2070
 2178W        W 6229   4.627   7.593  10.969  0.3480 -0.0072 -0.2769
 2179W        W 6230   8.919   4.780   1.249 -0.4321 -0.1370  0.4874
 2180W        W 6231   7.217   0.797  12.892 -0.0765 -0.1556  0.1487
 2181W        W 6232   6.281   2.638   4.759  0.2565 -0.2046 -0.2053
 2182W        W 6233   0.098   3.660  13.763  0.1066  0.2430 -0.0326
 2183W        W 6234   4.181   2.262   0.101  0.2728  0.0655  0.1977
 2184W        W 6235   4.410   4.879   9.259 -0.1482 -0.1840 -0.2399
 2185W        W 6236   5.806   2.022   0.323  0.2993 -0.1173  0.0486
 2186W        W 6237   8.894   5.273   1.429  0.2710 -0.0080 -0.0685
 2187W        W 6238   8.507   5.998   1.538  0.0456 -0.1897  0.3392
 2188W        W 6239   8.615   7.884   9.762  0.0283 -0.2814 -0.4405
 2189W        W 6240   4.785   2.546   2.809 -0.2127  0.1739 -0.0948
 2190W        W 6241   8.027   8.112  11.802  0.0601  0.2451 -0.0340
 2191W        W 6242   9.429   4.944   8.541 -0.1750 -0.1881 -0.3199
 2192W        W 6243   3.892   1.406  11.203  0.0844 -0.0353 -0.3022
 2193W        W 6244   4.730   7.468  10.091  0.4059  0.1442  0.0131
 2194W        W 6245   3.526   6.794   1.675  0.0719 -0.0139 -0.1508
 2195W        W 6246   6.972   2.586  13.373  0.0694  0.0543 -0.3022
 2196W        W 6247   8.043   0.873   9.710  0.1545  0.4230 -0.1580
 2197W        W 6248   2.095   6.730  10.155 -0.1891  0.0893 -0.1253
 2198W        W 6249   3.968   6.933  11.762 -0.1199  0.1276  0.1955
 2199W        W 6250   8.755   3.847   2.136 -0.3620  0.2802 -0.1715
 2200W        W 6251   2.701   1.739   8.972  0.2341  0.0235  0.0302
 2201W        W 6252   6.755   1.059  10.713 -0.2431  0.1025 -0.1561
 2202W        W 6253   6.274   3.422   3.027  0.5070 -0.2467 -0.2595
 2203W        W 6254   6.094   7.519  12.805  0.1327  0.1607  0.2863
 2204W        W 6255   5.502   4.003  12.201  0.0113 -0.0149 -0.1943
 2205W        W 6256   1.170   0.496  11.243  0.1955  0.0488 -0.1029
 2206W        W 6257   3.885   5.869  10.807 -0.0083 -0.2916  0.3768
 2207W        W 6258   8.455   7.687   3.501  0.1135  0.0503 -0.1863
 2208W        W 6259   7.463   5.768   1.628  0.3329  0.0101 -0.2139
 2209W        W 6260   2.201   3.116   2.468 -0.0354  0.0814  0.1474
 2210W        W 6261   7.144   3.055   9.687  0.3091  0.2402  0.1440
 2211W        W 6262   8.979  10.106   4.353 -0.2601 -0.0272  0.0762
 2212W        W 6263   8.238   6.195   2.461 -0.0463  0.1679 -0.1838
 2213W        W 6264   7.794   2.660  13.702 -0.1215 -0.3814  0.1457
 2214W        W 6265  10.107   7.178   1.913  0.1028 -0.0589 -0.0866
 2215W        W 6266   5.209   9.515   3.158 -0.1387  0.0239  0.2154
 2216W        W 6267   9.150   0.726   2.039 -0.1307 -0.3200 -0.3337
 2217W        W 6268   4.641   9.218  13.503 -0.0649  0.2731  0.3287
 2218W        W 6269   7.207   9.983   1.750  0.2124 -0.4378  0.1574
 2219W        W 6270   5.141   9.861  12.310 -0.2287  0.0079  0.1074
 2220W        W 6271   7.080   8.321  10.437 -0.1349  0.0607  0.3971
 2221W        W 6272   9.378   8.728   1.131  0.2335  0.0736  0.4325
 2222W        W 6273   1.366   5.363   3.985 -0.1703 -0.0732  0.0869
 2223W        W 6274   0.762   9.022  11.111  0.2916  0.6553  0.2814
 2224W        W 6275   1.988   0.953   2.126 -0.0962 -0.2468  0.0517
 2225W        W 6276   0.167   3.484   0.365  0.0098  0.1317 -0.1738
 2226W        W 6277   1.776   1.026   9.839  0.3533  0.1840 -0.1675
 2227W        W 6278   5.635   3.494   2.453  0.1929 -0.0032 -0.0367
 2228W        W 6279   0.164   5.942   1.550  0.0748  0.1591 -0.0822
 2229W        W 6280   9.046   7.927   3.966  0.2112 -0.1804  0.0006
 2230W        W 6281  10.027   2.678   3.329  0.1452 -0.0639  0.1010
 2231W        W 6282   9.720   2.644   5.626 -0.1673  0.0172 -0.1462
 2232W        W 6283   1.413   0.411  13.761  0.1730 -0.0411 -0.3101
 2233W        W 6284   8.364   2.770   9.976  0.0471 -0.0791 -0.0760
 2234W        W 6285   2.502   2.169   4.126  0.0441  0.2927  0.2029
 2235W        W 6286   6.292   3.473  12.427 -0.0926  0.0739  0.1196
 2236W        W 6287   6.303   4.441   1.024  0.0274 -0.2728 -0.2189
 2237W        W 6288   5.873   0.515  10.710 -0.0257  0.1737 -0.1127
 2238W        W 6289   3.132   2.081   8.759  0.1797 -0.4678 -0.3078
 2239W        W 6290   3.260   7.457  11.947  0.1427  0.0334  0.1217
 2240W        W 6291   9.174   3.066   3.868  0.0237 -0.0321  0.1029
 2241W        W 6292   8.188   3.096  13.013 -0.3105 -0.2810  0.1487
 2242W        W 6293   4.151   8.259   2.857  0.1069 -0.1957  0.1707
 2243W        W 6294  10.083   9.088   2.071 -0.2914  0.1948  0.2569
 2244W        W 6295   7.772   4.810   4.463 -0.1430  0.1285 -0.0689
 2245W        W 6296   6.445   7.697  10.938 -0.2159  0.3770  0.1461
 2246W        W 6297   4.148   1.854   5.101 -0.2423 -0.0186 -0.2418
 2247W        W 6298   0.499   5.626   3.745 -0.1322  0.0141  0.0753
 2248W        W 6299   0.302   6.763  12.423  0.3758  0.0775 -0.0511
 2249W        W 6300   6.227   0.747  12.098  0.3027 -0.1452  0.3214
 2250W        W 6301   2.894   9.833   3.020  0.0709  0.0908  0.0864
 2251W        W 6302   4.915   7.315   2.647 -0.0687  0.0693 -0.2020
 2252W        W 6303   2.549   4.798   3.377  0.3945  0.1641  0.0893
 2253W        W 6304   1.214  10.201   9.958 -0.0895 -0.0059  0.0275
 2254W        W 6305   2.323   3.863  12.790 -0.0503 -0.0522 -0.4520
 2255W        W 6306   6.416   4.145   2.162  0.0249  0.1104  0.2002
 2256W        W 6307   3.172   2.443   3.637  0.1761 -0.1130 -0.2885
 2257W        W 6308   8.611   4.547  11.818 -0.2927  0.1055  0.4306
 2258W        W 6309   1.579   2.702   3.015  0.2297 -0.0674 -0.1673
 2259W        W 6310   0.563   3.462  12.468  0.1538 -0.0352 -0.0488
 2260W        W 6311   8.230   9.317   0.921 -0.2495 -0.4256 -0.2139
 2261W        W 6312   6.619   4.775   2.929  0.1590 -0.0511  0.3158
 2262W        W 6313   7.572   8.536  11.620 -0.2455  0.1625 -0.0426
 2263W        W 6314   2.822   0.844  11.880  0.0561  0.0821 -0.1432
 2264W        W 6315   1.653   2.254  11.029 -0.0860 -0.3688  0.1406
 2265W        W 6316   0.686   9.643   5.599  0.1646 -0.0418 -0.2116
 2266W        W 6317   0.258   6.134  10.396 -0.0440 -0.2608  0.1120
 2267W        W 6318   5.998   3.885   2.305  0.2167 -0.0443  0.1008
 2268W        W 6319   7.987   9.931  13.224 -0.3780 -0.1020 -0.0797
 2269W        W 6320   3.887   3.116  12.041 -0.3012 -0.2555 -0.2170
 2270W        W 6321   2.849   0.563  11.468 -0.2655 -0.2471 -0.0297
 2271W        W 6322   5.534   5.275  11.160 -0.1225  0.0956 -0.0370
 2272W        W 6323   9.593   8.848  12.285  0.1296  0.2788 -0.1841
 2273W        W 6324   8.361   0.390   3.110  0.0814 -0.0745  0.0560
 2274W        W 6325   6.088   2.130  12.282 -0.0745 -0.1105 -0.1051
 2275W        W 6326   0.448   5.066  13.138  0.1994  0.2220  0.2035
 2276W        W 6327   5.552   9.911   9.016 -0.1773 -0.0802  0.0253
 2277W        W 6328   1.428   2.245   3.262 -0.0362  0.2628  0.0504
 2278W        W 6329   8.855   6.619  10.069 -0.0270 -0.4107  0.0538
 2279W        W 6330   7.538   1.361   2.361 -0.1640 -0.0033  0.0212
 2280W        W 6331   3.333   4.686   2.300  0.0170  0.2976 -0.0550
 2281W        W 6332   8.021   4.792   0.736 -0.0353 -0.1749  0.0409
 2282W        W 6333   5.876   7.807  10.854 -0.3105 -0.0011  0.1262
 2283W        W 6334   1.283   5.986  10.859  0.2951 -0.0979  0.1439
 2284W        W 6335   2.061   8.114  12.649 -0.2285 -0.0809 -0.0427
 2285W        W 6336   6.971   1.685   3.133 -0.1106  0.3105 -0.0283
 2286W        W 6337   8.006   7.288   0.687  0.2924 -0.4215 -0.0643
 2287W        W 6338   6.674   1.606   2.051 -0.0850  0.0413  0.2209
 2288W        W 6339   4.304   8.039   2.427  0.1030 -0.2668 -0.2399
 2289W        W 6340   4.951   4.465   3.970 -0.2922 -0.3507  0.1259
 2290W        W 6341   9.732   3.197  10.681 -0.1492 -0.0375 -0.0912
 2291W        W 6342   4.995   2.591   4.378 -0.1763  0.2183  0.0736
 2292W        W 6343   5.789   8.335  12.158 -0.0988 -0.2918 -0.1995
 2293W        W 6344   9.887   7.044   4.380  0.2661 -0.1953  0.0726
 2294W        W 6345   9.919   3.348   2.573 -0.0275  0.3188  0.0272
 2295W        W 6346   5.507   4.409   0.988 -0.1317 -0.3525 -0.1056
 2296W        W 6347   3.587   6.190  13.634 -0.0263 -0.1600  0.3051
 2297W        W 6348   5.273   6.682  12.640 -0.1668 -0.1481  0.1381
 2298W        W 6349   9.958   5.105   5.600  0.3876  0.0246  0.0915
 2299W        W 6350   7.527   6.361  10.401 -0.2853 -0.2498  0.2452
 2300W        W 6351   9.184   5.842  10.048  0.0554 -0.2598  0.0524
 2301W        W 6352   3.864   7.787  12.842  0.0833 -0.2418 -0.2238
 2302W        W 6353   2.192   3.053   4.454  0.0855  0.0227 -0.2303
 2303W        W 6354   7.466   3.076   1.194 -0.0850 -0.1851  0.0224
 2304W        W 6355   3.636   0.110   4.598 -0.0778  0.1528  0.1601
 2305W        W 6356   6.567   2.023  10.732  0.3082  0.3020 -0.1578
 2306W        W 6357   7.011   4.352   9.337  0.1637 -0.0169 -0.0412
 2307W        W 6358   7.511   8.257   2.189  0.0867  0.0204  0.2213
 2308W        W 6359  10.175   0.143   1.448  0.2029  0.0949  0.0723
 2309W        W 6360   8.275   3.983   2.080 -0.1070 -0.0138  0.0208
 2310W        W 6361   5.306   8.774  10.249 -0.2574  0.0409 -0.2150
 2311W        W 6362   9.958   3.500   5.001 -0.2040  0.3565  0.1204
 2312W        W 6363   6.851   1.002   4.100  0.0011 -0.1534  0.0922
 2313W        W 6364   8.204   2.780  13.401  0.1341  0.0872 -0.2768
 2314W        W 6365   2.136   2.856  12.929  0.0162 -0.1877 -0.0558
 2315W        W 6366   9.801   7.362   2.963  0.0936 -0.0454 -0.0608
 2316W        W 6367   9.404   7.743  10.279  0.1249  0.1842 -0.1288
 2317W        W 6368   7.484   9.132   0.518 -0.1952  0.3251  0.3106
 2318W        W 6369   8.276   4.767   4.441  0.0734  0.0888 -0.2517
 2319W        W 6370   2.254   1.667   4.113  0.1287  0.3582  0.0244
 2320W        W 6371   4.485   6.863   1.340  0.2369  0.2309 -0.1493
 2321W        W 6372   9.266   5.092  11.157 -0.1287  0.2113  0.0945
 2322W        W 6373   5.275   5.206   3.159 -0.2494 -0.0055 -0.1315
 2323W        W 6374   5.145   8.757   0.223  0.0625  0.0469 -0.0669
 2324W        W 6375   3.525   3.904  13.248 -0.2212  0.0359  0.0835
 2325W        W 6376   9.745   6.496   0.659  0.0637 -0.1396 -0.0141
 2326W        W 6377   0.698   1.711   9.419  0.3114  0.0616 -0.1025
 2327W        W 6378   0.887   5.267   5.049 -0.2136  0.0407  0.2064
 2328W        W 6379   3.559   1.486  13.877  0.0246 -0.1813  0.0048
 2329W        W 6380   1.875   2.463  11.398 -0.4279 -0.2766  0.1641
 2330W        W 6381   7.174   2.382   3.709 -0.1404  0.0163 -0.0072
 2331W        W 6382   4.847   9.869   0.455 -0.1238 -0.0197  0.0351
 2332W        W 6383   2.735   6.388  12.582  0.1505  0.0227  0.1538
 2333W        W 6384   9.461   6.082   3.339  0.2969 -0.0037 -0.0076
 2334W        W 6385   5.331   5.005  12.280 -0.4346 -0.1320 -0.0591
 2335W        W 6386   3.768   4.629  13.811 -0.1983 -0.2158  0.1043
 2336W        W 6387   7.008   8.313   9.597 -0.1858 -0.3664 -0.1138
 2337W        W 6388   8.562   5.052   3.091  0.0701  0.0922  0.3458
 2338W        W 6389   6.073   9.351  10.281 -0.1897  0.0472 -0.1226
 2339W        W 6390   5.425   7.146   1.280 -0.2884  0.0993 -0.1402
 2340W        W 6391   2.479   0.530   1.607  0.0762  0.0031 -0.0333
 2341W        W 6392  10.109   0.600  13.033  0.1249 -0.0555  0.1135
 2342W        W 6393   7.842   7.628   2.727  0.0562  0.0914  0.2839
 2343W        W 6394   0.033   4.461   1.809  0.1637 -0.5421  0.1794
 2344W        W 6395   4.798   2.022   3.009  0.0159 -0.2259  0.1189
 2345W        W 6396   3.316   0.674   0.292  0.2751 -0.2445 -0.3255
 2346W        W 6397   7.379   9.188   8.893  0.0253  0.1739  0.0901
 2347W        W 6398   7.916   6.757  10.470 -0.1723 -0.1341 -0.1642
 2348W        W 6399   7.567   5.669  12.525 -0.1663 -0.1017  0.0664
 2349W        W 6400   4.509   2.713  10.936 -0.2377  0.3358 -0.0942
 2350W        W 6401   5.720   7.483   0.529  0.2692  0.3480  0.1879
 2351W        W 6402   5.484   0.617   3.331  0.0024  0.0773 -0.4432
 2352W        W 6403   7.627   8.741  13.024 -0.0517 -0.2294 -0.3044
 2353W        W 6404   9.846   5.434   2.733 -0.1600 -0.1864  0.4511
 2354W        W 6405   8.458   1.994   4.887 -0.1893  0.0597  0.2986
 2355W        W 6406   5.447   4.741   1.415  0.2644 -0.0780  0.0923
 2356W        W 6407   2.571   5.859  11.128  0.0707  0.0393 -0.0194
 2357W        W 6408   4.160   1.380   5.328 -0.0969 -0.0242 -0.1921
 2358W        W 6409   7.865   3.866   1.833 -0.2572  0.1018 -0.1099
 2359W        W 6410   3.099   0.284  13.910  0.2156 -0.3931 -0.0850
 2360W        W 6411   6.113   8.309   2.838  0.1214  0.1377 -0.0876
 2361W        W 6412   8.748   0.233   4.029  0.0166 -0.0496  0.1530
 2362W        W 6413   2.071   3.906  13.196  0.0930  0.3054 -0.4802
 2363W        W 6414   6.573   0.192   1.904  0.0864 -0.0578 -0.1084
 2364W        W 6415   7.602   6.472   4.016  0.2782  0.0174 -0.0197
 2365W        W 6416   9.913   7.252   0.121 -0.0249 -0.4778  0.2729
 2366W        W 6417   1.174   9.799   9.528  0.2763 -0.0950 -0.0750
 2367W        W 6418   9.431   9.469   0.238  0.1777  0.3537 -0.1285
 2368W        W 6419  10.029   8.427  11.017  0.3370 -0.4094 -0.2038
 2369W        W 6420   4.429   0.427  12.084  0.0660  0.3642  0.2585
 2370W        W 6421   1.993   3.100   1.582  0.0005 -0.0771  0.0857
 2371W        W 6422   5.677   3.025   9.769 -0.0275  0.0231 -0.1738
 2372W        W 6423   6.374   1.765  12.478 -0.3973  0.0680 -0.2640
 2373W        W 6424   1.128   5.849   1.042  0.4593 -0.3895  0.0341
 2374W        W 6425  10.156   6.531   0.970 -0.0121 -0.2262 -0.1883
 2375W        W 6426   6.091   2.783   1.123  0.1174  0.1713 -0.0309
 2376W        W 6427   1.107   6.906  10.543 -0.1902  0.0743 -0.0473
 2377W        W 6428   3.509   3.921   4.813 -0.1766 -0.2743  0.0397
 2378W        W 6429   9.097   9.397   2.986 -0.1312  0.3670  0.0810
 2379W        W 6430   5.524   9.244   3.471 -0.0174  0.1851 -0.0375
 2380W        W 6431   3.168   0.282   9.128 -0.0978 -0.2335 -0.0635
 2381W        W 6432   4.690   3.342   2.285  0.3266  0.4090 -0.0994
 2382W        W 6433   7.477   8.815   3.617 -0.1603 -0.1333  0.0895
 2383W        W 6434   7.742   2.569  13.124  0.3718  0.1833  0.0801
 2384W        W 6435   3.373   4.858  12.187 -0.1190  0.2720  0.3213
 2385W        W 6436  10.176   9.202   0.532  0.0232 -0.0674  0.2959
 2386W        W 6437   8.775   8.161   5.300  0.0182 -0.1065  0.0956
 2387W        W 6438   1.072   0.733  12.859 -0.3209 -0.1629 -0.0712
 2388W        W 6439   6.917   5.726   3.121  0.2137 -0.3591  0.2811
 2389W        W 6440   1.290   8.952   0.735 -0.1013  0.1041 -0.2174
 2390W        W 6441   0.532   1.303   4.498  0.0165 -0.0889 -0.2212
 2391W        W 6442   1.998   9.237  13.399 -0.0449  0.1034  0.0701
 2392W        W 6443   7.517   6.861  12.859 -0.0749 -0.0435  0.1406
 2393W        W 6444   3.980   8.786  11.224  0.0015 -0.0392 -0.2850
 2394W        W 6445   1.192   6.567  10.215  0.0612 -0.0482 -0.1402
 2395W        W 6446   1.978   2.392   2.341 -0.0426 -0.0269 -0.2345
 2396W        W 6447   9.318   0.438  11.712 -0.2555 -0.0192 -0.1264
 2397W        W 6448   0.035   8.263   4.616  0.1853 -0.0758 -0.1788
 2398W        W 6449   1.783   0.385   0.729 -0.0061  0.0858 -0.1026
 2399W        W 6450   3.963   1.869  13.370 -0.2190  0.1344  0.2810
 2400W        W 6451   9.041   9.967   3.862  0.5421  0.2323  0.1605
 2401W        W 6452   1.737   1.337   1.182 -0.0798  0.1273  0.2944
 2402W        W 6453   9.169   3.333  11.979 -0.2236  0.2493  0.2627
 2403W        W 6454   9.156   7.187   9.268 -0.2371 -0.2551 -0.2210
 2404W        W 6455   0.977   2.792  10.467 -0.1331  0.1177 -0.1928
 2405W        W 6456   1.887   0.030  10.488  0.0066  0.1722  0.4105
 2406W        W 6457   1.572   1.394  11.857  0.3611 -0.0346 -0.0957
 2407W        W 6458   3.609   2.849   0.929 -0.0870  0.4269 -0.0707
 2408W        W 6459   1.019   5.218   2.384 -0.0323 -0.1288  0.3050
 2409W        W 6460   8.103   7.571  12.908 -0.1740  0.0147 -0.0001
 2410W        W 6461   4.473   6.957  12.990 -0.0766 -0.1848 -0.0582
 2411W        W 6462   9.933   7.691  10.383  0.1348 -0.1597  0.0073
 2412W        W 6463   1.995   2.475   5.097 -0.1069 -0.2302  0.2762
 2413W        W 6464   4.868   3.040  10.202  0.0597  0.2691  0.1145
 2414W        W 6465   1.802   7.309   0.693  0.3137 -0.0969  0.0543
 2415W        W 6466   5.336   2.398  13.047 -0.0029  0.1910 -0.2053
 2416W        W 6467   3.020   9.833  10.843 -0.1294  0.0132 -0.0077
 2417W        W 6468   9.596   3.920   2.181  0.2047  0.0281  0.0171
 2418W        W 6469   9.518   7.995   2.823  0.0831  0.1317 -0.1361
 2419W        W 6470   4.055   1.726   0.519 -0.2801 -0.1026  0.2880
 2420W        W 6471   2.966   6.450   2.907 -0.1458 -0.1828  0.1399
 2421W        W 6472   6.074   6.249   3.383 -0.2493  0.0445  0.2670
 2422W        W 6473   1.512   6.327   1.805  0.1451 -0.0056  0.3450
 2423W        W 6474   1.803   2.259  13.099  0.0004  0.0749  0.4983
 2424W        W 6475   3.551   3.143   2.179  0.2121 -0.0833  0.2299
 2425W        W 6476   5.015   2.135   2.550  0.1124  0.0769  0.2193
 2426W        W 6477   1.663   4.088   2.261  0.1149  0.1713  0.0466
 2427W        W 6478   5.403   8.771   2.586  0.1151  0.0262 -0.0315
 2428W        W 6479   8.964   1.019   4.212  0.1338 -0.0126 -0.1445
 2429W        W 6480   2.940   7.916   1.956  0.3825 -0.0872 -0.4720
 2430W        W 6481   1.348   4.957   4.277  0.1050  0.0939  0.1419
 2431W        W 6482   8.702   0.099  12.205  0.0206  0.1525 -0.1276
 2432W        W 6483   5.190   2.858  11.545  0.3548  0.3516 -0.0227
 2433W        W 6484   9.742   5.650   4.698  0.1463  0.0427  0.0717
 2434W        W 6485   6.713   9.195  12.734 -0.0641  0.2309 -0.1705
 2435W        W 6486   6.235   0.129  10.501 -0.2408 -0.1411 -0.0190
 2436W        W 6487   6.469   9.188   9.927  0.1440  0.1688  0.2936
 2437W        W 6488   0.800   1.778  12.038 -0.0549  0.3425 -0.0830
 2438W        W 6489   5.175   6.041   0.644 -0.0675 -0.0664  0.1645
 2439W        W 6490   7.229   1.317   0.101  0.1976  0.1710 -0.0511
 2440W        W 6491   9.417   5.131  13.271  0.0215 -0.3038 -0.5495
 2441W        W 6492   6.703   4.098   0.596  0.2112 -0.1200  0.1173
 2442W        W 6493   1.550   9.495  10.797  0.3750 -0.3301 -0.1456
 2443W        W 6494   6.712   8.262  10.125  0.3365  0.0709 -0.2244
 2444W        W 6495   2.262   7.709  10.969  0.1147 -0.4683 -0.2805
 2445W        W 6496   8.851   6.017   5.686  0.0690 -0.0513 -0.1200
 2446W        W 6497   5.639   3.652   4.167  0.0079  0.0066  0.3422
 2447W        W 6498   4.138   0.049  10.386 -0.1710 -0.0946 -0.0408
 2448W        W 6499   1.164   4.564   3.544  0.0094 -0.1453  0.0566
 2449W        W 6500   1.426   3.255  11.382  0.1217  0.0673  0.0698
 2450W        W 6501   0.134  10.166   3.657  0.0190  0.0698 -0.1519
 2451W        W 6502   0.050   4.798   9.949  0.1433  0.0508  0.0225
 2452W        W 6503   5.361   9.553   2.204 -0.3063 -0.1211 -0.1204
 2453W        W 6504   2.631   4.968  11.517  0.3017  0.0069 -0.0999
 2454W        W 6505   7.581   0.999  10.738  0.0114  0.1027  0.0456
 2455W        W 6506   7.806   7.884  10.813 -0.0509 -0.1685  0.1516
 2456W        W 6507   4.004   8.323   3.786  0.0520 -0.1758 -0.0414
 2457W        W 6508   9.447   4.744   2.688  0.2413  0.1610  0.1195
 2458W        W 6509   7.582   2.610  12.233  0.1057 -0.0210 -0.0073
 2459W        W 6510   1.950   8.372  10.353 -0.0159 -0.1416 -0.0685
 2460W        W 6511   5.746   2.288  13.443 -0.2825 -0.1151 -0.2363
 2461W        W 6512   8.821   0.011  13.773 -0.0036 -0.2098  0.1575
 2462W        W 6513   2.070   5.733   4.993 -0.0211 -0.1437  0.0307
 2463W        W 6514   8.371   4.599  10.382  0.0760 -0.4190 -0.1004
 2464W        W 6515   9.397   4.042   3.933 -0.3499  0.0602  0.1535
 2465W        W 6516   3.780   1.761   3.482 -0.1732 -0.3184  0.4598
 2466W        W 6517   3.831   9.096   3.126 -0.2069 -0.0378 -0.1467
 2467W        W 6518   5.441   2.327   2.990 -0.4927 -0.2793  0.4424
 2468W        W 6519   2.175   1.654  13.559  0.1164  0.0747  0.1315
 2469W        W 6520   2.643   4.272   2.056  0.1525  0.1704  0.2599
 2470W        W 6521   6.648   3.210   5.489  0.2125 -0.0197  0.0417
 2471W        W 6522   7.343   2.134   1.790  0.2522 -0.1202 -0.0676
 2472W        W 6523   2.304   6.573   4.654  0.0306 -0.4386 -0.2234
 2473W        W 6524   3.263   2.570  11.661  0.4530 -0.4075 -0.3274
 2474W        W 6525   5.800   9.612  10.590 -0.1158  0.1783 -0.0761
 2475W        W 6526   6.105   3.379   2.513  0.1058  0.1992  0.0517
 2476W        W 6527   7.051   5.417  13.661 -0.5383  0.0046 -0.2037
 2477W        W 6528   7.603   7.240   2.996  0.0428 -0.0642 -0.0758
 2478W        W 6529   3.523   5.293  10.291 -0.1623 -0.1410  0.2879
 2479W        W 6530   4.376   9.977   0.202 -0.2172 -0.2066  0.0403
 2480W        W 6531   6.185   4.124   3.160  0.0324  0.2598  0.1966
 2481W        W 6532   5.097   9.854   4.194  0.4716  0.1559  0.1478
 2482W        W 6533   0.008   0.393  10.322 -0.0379 -0.2187  0.0219
 2483W        W 6534   4.445   9.657   1.331 -0.0347 -0.1544 -0.2372
 2484W        W 6535   9.766   6.001  11.574 -0.2237  0.0107 -0.1462
 2485W        W 6536   1.316   5.960  13.571  0.2639 -0.0046  0.2399
 2486W        W 6537   2.792  10.112   3.839 -0.1630  0.1672 -0.0242
 2487W        W 6538   2.032   5.427   3.938 -0.0939 -0.3811  0.1897
 2488W        W 6539   9.748   0.341   4.117  0.3411  0.2026  0.0479
 2489W        W 6540   7.896  10.017   9.560 -0.1036 -0.1169  0.1550
 2490W        W 6541   3.179   4.883   1.067 -0.1890 -0.0460  0.1731
 2491W        W 6542  10.048   3.401  10.334 -0.1830  0.0649  0.2142
 2492W        W 6543   2.854   9.090  13.843 -0.0253  0.1973 -0.0365
 2493W        W 6544  10.081   7.154  10.266 -0.0401 -0.0441 -0.1082
 2494W        W 6545   0.170   7.631  11.356 -0.0134 -0.0136 -0.0347
 2495W        W 6546   9.921   2.883   2.857 -0.1071  0.0276  0.0506
 2496W        W 6547   6.456   0.750   8.894 -0.1382 -0.1674 -0.0035
 2497W        W 6548   9.273   8.664   3.413 -0.3563 -0.2519 -0.1358
 2498W        W 6549   1.472   1.950   9.201  0.2586 -0.2196  0.1332
 2499W        W 6550   2.809   2.337  13.665  0.0968 -0.0214 -0.0827
 2500W        W 6551   5.434   8.229   1.714 -0.0778 -0.1177 -0.0681
 2501W        W 6552   3.669   4.455   0.557  0.0966 -0.1000 -0.0114
 2502W        W 6553   1.768   8.446  12.942 -0.1887  0.1502 -0.0220
 2503W        W 6554   4.074   6.899  12.631  0.2653  0.0022 -0.2597
 2504W        W 6555   7.199   3.064   5.405  0.3887 -0.0436  0.3587
 2505W        W 6556   7.919   6.612   4.448 -0.2990 -0.0472 -0.2742
 2506W        W 6557   2.502   5.043   1.944 -0.0176  0.1397  0.1925
 2507W        W 6558   8.140   4.254  11.652 -0.3065 -0.2093 -0.0439
 2508W        W 6559   7.419   0.790  12.400 -0.0764 -0.3520 -0.1697
 2509W        W 6560   4.919   9.789  10.261 -0.1200  0.0477 -0.1728
 2510W        W 6561   7.599   8.144   3.176  0.0804 -0.2110 -0.0671
 2511W        W 6562   5.904   4.391  12.078  0.0340 -0.0678  0.0310
 2512W        W 6563   5.682   7.470  13.160 -0.1170  0.1419 -0.0274
 2513W        W 6564   3.980   2.272   2.022 -0.1103 -0.0705 -0.1449
 2514W        W 6565   8.159   8.992   1.306  0.3477 -0.0387 -0.0260
 2515W        W 6566   4.697   9.343  10.232  0.0834  0.1441  0.2339
 2516W        W 6567   0.887   0.926   2.087 -0.0578  0.1223  0.1509
 2517W        W 6568   3.740   6.028   3.585 -0.4383 -0.1458  0.0147
 2518W        W 6569   8.472   3.223  11.379  0.1585  0.1322  0.2687
 2519W        W 6570   2.507   6.061   1.044 -0.3880 -0.2594 -0.2107
 2520W        W 6571   1.128   4.941  12.722 -0.0813 -0.1011 -0.2995
 2521W        W 6572   3.178   4.939  10.221  0.1914 -0.0918  0.0671
 2522W        W 6573   2.326   6.691  13.848 -0.1965 -0.1218 -0.1061
 2523W        W 6574   7.094   5.955  10.322 -0.1580  0.2292 -0.0987
 2524W        W 6575   5.100   6.254   2.479  0.3919 -0.1290  0.0849
 2525W        W 6576   7.700   1.602  10.584  0.2081 -0.1350  0.1730
 2526W        W 6577   4.663   2.340   9.940  0.0646 -0.0553 -0.2871
 2527W        W 6578   0.523   7.037   0.816 -0.2859 -0.0225 -0.0974
 2528W        W 6579   5.007   8.091   3.488 -0.0533 -0.2218 -0.0295
 2529W        W 6580   0.873   8.905  13.864 -0.2083 -0.1155 -0.1168
 2530W        W 6581   0.609   6.731  10.577 -0.4363  0.0838 -0.1179
 2531W        W 6582   7.070   0.841   3.694 -0.6256  0.0157 -0.1340
 2532W        W 6583   0.725   2.408  10.673 -0.0063  0.2749  0.1116
 2533W        W 6584   4.315   8.651  11.943 -0.2008  0.0018 -0.1284
 2534W        W 6585   1.588   5.800  11.818  0.3267 -0.0749 -0.2611
 2535W        W 6586   0.588   1.311  13.052 -0.0033 -0.2098  0.2244
 2536W        W 6587   0.014   4.001   3.112  0.0320  0.0335  0.0362
 2537W        W 6588   8.781   6.877  13.027  0.2668 -0.0615 -0.1994
 2538W        W 6589   1.269   7.855   3.960 -0.0587 -0.2373  0.2733
 2539W        W 6590   4.900   6.759   1.677  0.0026  0.4446  0.1793
 2540W        W 6591   8.669   0.344   0.152  0.3456  0.0844 -0.1326
 2541W        W 6592   7.470   0.441  10.457  0.1367  0.0980  0.1600
 2542W        W 6593   3.081   7.168  12.940 -0.0753  0.3434 -0.2201
 2543W        W 6594   6.230   1.322   1.521  0.1384 -0.0865 -0.1896
 2544W        W 6595   1.200   0.703   2.527  0.2389  0.2092  0.1043
 2545W        W 6596   9.540   3.857  12.293 -0.2061  0.0324 -0.0150
 2546W        W 6597   1.355   0.989  13.662  0.2269  0.1386 -0.0615
 2547W        W 6598   3.262   9.326   3.541 -0.0673  0.2899  0.1373
 2548W        W 6599   0.869   4.824   3.246  0.0958  0.1963  0.1268
 2549W        W 6600   9.019   3.827  11.381  0.1422 -0.0181  0.0711
 2550W        W 6601   9.212   3.293   1.592  0.1711  0.1979 -0.1535
 2551W        W 6602   6.683   3.188   2.626 -0.0780  0.2487 -0.1062
 2552W        W 6603   4.724   4.347   1.179 -0.0946  0.0436  0.2727
 2553W        W 6604   8.099   2.276  12.032  0.2588  0.2888  0.1022
 2554W        W 6605   8.001   1.464   2.157  0.0570  0.1776 -0.2051
 2555W        W 6606   4.712   7.986   3.096  0.0712 -0.1496 -0.1052
 2556W        W 6607   7.123   5.754   1.254 -0.1907  0.0446  0.0519
 2557W        W 6608   3.238   1.601   4.162 -0.0207  0.1820  0.1704
 2558W        W 6609   0.639   0.785   2.534 -0.0637  0.0966  0.1005
 2559W        W 6610   8.459   8.903   0.739  0.0021  0.1266  0.1253
 2560W        W 6611   5.179   7.881   3.107 -0.0338  0.1855  0.1883
 2561W        W 6612   4.546   2.954   9.388 -0.0398  0.0580 -0.0648
 2562W        W 6613   4.925   8.780   9.367 -0.0480 -0.0452  0.0646
 2563W        W 6614   4.210   3.755   1.912 -0.0952  0.1316  0.2098
 2564W        W 6615   9.559   0.334   0.375  0.1885  0.3504 -0.0048
 2565W        W 6616   2.338   2.291   0.494  0.1722 -0.0636 -0.2362
 2566W        W 6617   7.236   4.329   0.669  0.1092  0.0546 -0.1857
 2567W        W 6618   7.676   5.728  13.912  0.3724  0.0315  0.0605
 2568W        W 6619   0.752   7.816   1.940 -0.1833 -0.4600 -0.1339
 2569W        W 6620   8.799  10.130   9.588 -0.1272  0.0290  0.0846
 2570W        W 6621   1.462   5.501   1.538  0.0847 -0.0580 -0.0155
 2571W        W 6622   7.680   1.189  13.651  0.0880  0.0077 -0.4626
 2572W        W 6623   0.654   9.255  10.214  0.0574 -0.0106  0.3212
 2573W        W 6624   6.028   9.878  12.018  0.2288 -0.1258  0.3539
 2574W        W 6625   4.166   4.883  12.337  0.4526  0.2236 -0.3558
 2575W        W 6626   4.992   3.463  10.579  0.0923 -0.1643 -0.2201
 2576W        W 6627   4.716   2.820   0.151 -0.1307 -0.2861 -0.5539
 2577W        W 6628   2.311   7.914   0.143 -0.2601  0.0521 -0.1879
 2578W        W 6629   3.820   4.166   0.152  0.3648 -0.2196 -0.0948
 2579W        W 6630   5.185   1.007   4.151 -0.6740 -0.0028  0.2361
 2580W        W 6631   7.141   2.050  10.926 -0.0944  0.0182  0.2427
 2581W        W 6632   7.753   2.305   0.422 -0.0512  0.2102 -0.2152
 2582W        W 6633   4.618   0.430  11.439  0.2878 -0.2788  0.1413
 2583W        W 6634   7.145   7.848   4.066 -0.0882 -0.3205 -0.0261
 2584W        W 6635   3.293   5.239   3.846  0.0900 -0.2635 -0.1702
 2585W        W 6636   8.842   2.904   8.878 -0.0830 -0.2749  0.1483
 2586W        W 6637   3.439   4.047  12.292  0.0860  0.2022 -0.2632
 2587W        W 6638   7.487   4.205  11.363 -0.0867  0.1352 -0.0355
 2588W        W 6639   4.801   8.615   1.374 -0.0313  0.0944 -0.0352
 2589W        W 6640   7.837   2.111   1.897  0.2410  0.1998 -0.1985
 2590W        W 6641   4.346   5.220   0.628  0.3491  0.3290 -0.2542
 2591W        W 6642   2.647   7.181  11.015  0.0361 -0.2557  0.0291
 2592W        W 6643   4.525   2.973   4.539 -0.0944 -0.1921  0.1453
 2593W        W 6644   0.778   0.232   9.921  0.0270 -0.0478 -0.1786
 2594W        W 6645   3.783   2.998   4.195  0.2658 -0.3472  0.0679
 2595W        W 6646   6.086   0.100   1.927  0.1216 -0.0999  0.3903
 2596W        W 6647   6.444   2.946  12.378 -0.0304 -0.1561  0.0606
 2597W        W 6648   4.383   7.814   9.826 -0.1142 -0.2219 -0.0026
 2598W        W 6649   6.279   3.069  13.425  0.2962  0.1243 -0.4363
 2599W        W 6650   0.293   5.964   4.171  0.0803  0.0523  0.1042
 2600W        W 6651   8.341   8.582   0.314 -0.3801  0.2832  0.1112
 2601W        W 6652   3.005   9.093   4.626  0.1698 -0.2999  0.4905
 2602W        W 6653   1.771   3.622   9.733  0.1083  0.2368  0.2323
 2603W        W 6654   6.395   3.823  11.977  0.0813  0.3953 -0.1122
 2604W        W 6655   9.179   7.008  13.887 -0.2825 -0.0969  0.0753
 2605W        W 6656   1.796   5.230   9.028 -0.0083 -0.2158  0.0114
 2606W        W 6657   8.518   7.567   0.453  0.1074  0.1037 -0.0606
 2607W        W 6658   6.014   7.241  13.513  0.0579  0.0095  0.2265
 2608W        W 6659   0.975   0.005  11.230 -0.0372 -0.1303 -0.0708
 2609W        W 6660   7.037   1.278   0.917  0.0445  0.0837  0.1358
 2610W        W 6661   9.725   3.351  12.616 -0.0963 -0.0276 -0.3200
 2611W        W 6662   9.681   0.820  11.496  0.4783 -0.0716 -0.0648
 2612W        W 6663   9.999   8.988  12.595 -0.0775 -0.1511  0.0127
 2613W        W 6664   9.417   5.049   2.279 -0.0491 -0.1374 -0.0213
 2614W        W 6665   3.758   4.421  11.543 -0.1035  0.0543 -0.0024
 2615W        W 6666   1.071   5.463   9.284  0.0015 -0.0514  0.1711
 2616W        W 6667   0.276   8.615   9.330  0.2498  0.1865 -0.2512
 2617W        W 6668   7.178   8.297   4.353 -0.4179 -0.0016  0.0467
 2618W        W 6669   7.537   2.276  13.489 -0.3143 -0.2773 -0.3960
 2619W        W 6670   0.819   8.400   2.575 -0.0344  0.1267  0.1178
 2620W        W 6671   1.939   1.748   0.061  0.1287  0.1285  0.0743
 2621W        W 6672   9.423   8.358   3.986  0.0465 -0.0774 -0.0807
 2622W        W 6673   8.373   5.588  11.871 -0.1190  0.0442  0.0530
 2623W        W 6674   0.030   8.411   8.914 -0.1706 -0.1238  0.0004
 2624W        W 6675   5.471   2.727  13.625  0.2470 -0.1835 -0.1026
 2625W        W 6676   7.609   1.876   4.304 -0.0821  0.3676 -0.2798
 2626W        W 6677   9.845   8.220   4.242  0.0398 -0.1441  0.3941
 2627W        W 6678   7.455   0.046   1.452  0.1604 -0.1515  0.3651
 2628W        W 6679   1.781   6.620   9.756 -0.1506  0.3947 -0.1053
 2629W        W 6680   3.586   0.073  11.871 -0.1054  0.1257 -0.1779
 2630W        W 6681   5.927   8.960  13.421 -0.2223 -0.2628  0.2597
 2631W        W 6682   6.271   9.276   2.022 -0.1150  0.4267  0.0996
 2632W        W 6683   4.624   0.719  12.743 -0.0210  0.0634  0.5897
 2633W        W 6684   7.712  10.187  12.245  0.0967  0.2646  0.0924
 2634W        W 6685   2.472   8.406   3.025 -0.3112 -0.0732  0.3438
 2635W        W 6686   9.523   9.891  11.176  0.1102  0.0496 -0.0894
 2636W        W 6687   6.749   3.990  11.503 -0.1729  0.0481 -0.1700
 2637W        W 6688   9.028   7.493   2.067  0.1852  0.1817  0.0403
 2638W        W 6689   2.733   2.882  11.120 -0.3159  0.0648  0.1772
 2639W        W 6690   2.991   2.460  11.295  0.0278 -0.0611  0.2331
 2640W        W 6691   7.038   5.943   4.526 -0.2458  0.0526  0.0473
 2641W        W 6692   6.439   4.699   2.459 -0.2182 -0.0386 -0.1092
 2642W        W 6693   2.779   8.134  11.531 -0.2029 -0.0120 -0.0056
 2643W        W 6694   7.134   7.949   3.057 -0.0817  0.2472 -0.2838
 2644W        W 6695   8.831   0.060   1.231 -0.0657  0.4305  0.2692
 2645W        W 6696   1.296   2.930  10.909 -0.0211 -0.1395  0.0522
 2646W        W 6697   5.999   3.400  11.746 -0.0784 -0.0034  0.2014
 2647W        W 6698   2.679   5.900   0.525  0.1320 -0.1791 -0.0182
 2648W        W 6699   1.815   2.486   0.432  0.0395 -0.0673 -0.1397
 2649W        W 6700   7.541   6.333  11.260 -0.2553  0.2753 -0.1896
 2650W        W 6701   5.096   1.493  10.244  0.2265  0.3028 -0.1381
 2651W        W 6702   6.256   1.866  11.426  0.1948  0.3037 -0.1304
 2652W        W 6703   0.711   4.845  10.407 -0.1890  0.0030 -0.0308
 2653W        W 6704   0.566   7.935   9.317 -0.0368  0.0463 -0.2150
 2654W        W 6705   0.189   2.999   9.538 -0.1255 -0.0131 -0.5090
 2655W        W 6706   7.356   0.095  10.793  0.1036 -0.1038  0.1559
 2656W        W 6707   9.695   4.102  10.790  0.0085 -0.0413  0.0620
 2657W        W 6708   3.719   2.970  13.837  0.2567  0.0896 -0.5523
 2658W        W 6709   2.463   1.230  12.048  0.0137 -0.3316  0.0473
 2659W        W 6710   6.345   9.614  13.765  0.2833 -0.1408 -0.0283
 2660W        W 6711   5.772   9.240   1.024 -0.2964 -0.1090 -0.1644
 2661W        W 6712   2.100   5.765  12.466 -0.1329 -0.1075  0.0125
 2662W        W 6713   9.542   3.632  11.721 -0.0968  0.0647  0.4579
 2663W        W 6714   5.327   2.672  10.998  0.1342  0.0494 -0.2154
 2664W        W 6715   4.398   1.045   4.550  0.1060  0.0578  0.1290
 2665W        W 6716   4.357   1.788  10.209 -0.3104 -0.2840  0.1263
 2666W        W 6717   7.705   7.505   0.378 -0.0305  0.0847 -0.0161
 2667W        W 6718   0.844   8.271  12.546 -0.0042 -0.1330  0.0508
 2668W        W 6719   4.587   6.802  11.417  0.0883 -0.1391  0.0759
 2669W        W 6720   6.890   0.498  12.565 -0.0548  0.0014  0.1384
 2670W        W 6721   2.126   9.472  13.795 -0.0117  0.0347  0.0415
 2671W        W 6722   2.495   4.602  13.291 -0.3089 -0.3444  0.1189
 2672W        W 6723   4.743   1.915  12.407 -0.1011  0.1403 -0.0428
 2673W        W 6724   7.996   1.398  10.946 -0.0907  0.1278 -0.3060
 2674W        W 6725   1.102   7.326   9.649 -0.0704  0.0062  0.0845
 2675W        W 6726   9.242   3.322   3.393  0.0258 -0.1907 -0.4689
 2676W        W 6727   7.233   9.692  13.733 -0.0060  0.0667 -0.1227
 2677W        W 6728   1.346   2.717   3.907  0.1433  0.2548  0.2282
 2678W        W 6729   4.434   0.498   2.381 -0.0170  0.0194  0.1570
 2679W        W 6730   3.316   9.180  13.682  0.3758 -0.1685  0.0375
 2680W        W 6731   0.630   5.593   2.286  0.1608  0.0913 -0.1362
 2681W        W 6732   2.190   6.207   3.356  0.0266  0.2209  0.0150
 2682W        W 6733   5.774   8.293   0.981  0.1702 -0.0735  0.1460
 2683W        W 6734   5.849   7.843  11.873  0.3299 -0.0602 -0.1729
 2684W        W 6735   7.014   9.560   2.377 -0.3390 -0.2726 -0.0771
 2685W        W 6736   4.908   9.046   0.892 -0.1200 -0.1736 -0.0138
 2686W        W 6737   5.737   1.064  10.499 -0.0693  0.0949  0.0714
 2687W        W 6738   0.414   8.510  10.782 -0.1366  0.1699 -0.2609
 2688W        W 6739   3.587   7.426   1.997 -0.2488  0.1962 -0.0199
 2689W        W 6740   4.423   8.709   0.984 -0.1683 -0.2243 -0.1823
 2690W        W 6741   6.025   9.089   3.104  0.4065  0.1602 -0.1034
 2691W        W 6742   2.729   8.114  10.987  0.0948  0.0139  0.0595
 2692W        W 6743   8.621   2.614  12.138  0.2871  0.1986 -0.2204
 2693W        W 6744   2.773   2.732   0.333  0.3288  0.0217  0.1039
 2694W        W 6745   7.548   9.760   0.635  0.2207 -0.1276 -0.2108
 2695W        W 6746   6.314   4.644  10.846 -0.1102  0.1735  0.0070
 2696W        W 6747   5.723   8.313   2.415  0.0190  0.2868 -0.2265
 2697W        W 6748   4.399   4.619  13.680  0.1797 -0.0120  0.0071
 2698W        W 6749   2.961   0.339   4.159 -0.0240 -0.0089 -0.0669
 2699W        W 6750   7.988   4.607   1.666  0.3580 -0.2166  0.0427
 2700W        W 6751   0.812   8.791   0.863 -0.0242 -0.4160 -0.0939
 2701W        W 6752   1.011   4.089   0.616  0.3404 -0.2396 -0.0222
 2702W        W 6753   8.159   5.220   9.301 -0.2436 -0.1642  0.0194
 2703W        W 6754   5.285  10.065  13.767 -0.2520 -0.2017 -0.0669
 2704W        W 6755   3.505   2.128  13.168  0.1694  0.2759 -0.1548
 2705W        W 6756   1.779   0.232   8.800  0.1280  0.1148 -0.0254
 2706W        W 6757   3.838   4.854   3.226  0.4579 -0.1780 -0.0239
 2707W        W 6758   8.861   5.236   2.528  0.0302 -0.4145 -0.1186
 2708W        W 6759   0.121   9.611   1.370  0.1059  0.1609 -0.0052
 2709W        W 6760   9.004   3.852   0.971 -0.1635 -0.2030  0.0588
 2710W        W 6761   2.159   5.693  10.063 -0.0301  0.0438 -0.0633
 2711W        W 6762   4.222   5.434  10.477  0.0974  0.1262 -0.1409
 2712W        W 6763   6.427   0.831   9.973 -0.2284 -0.0206 -0.2919
 2713W        W 6764   9.177   3.708  10.163  0.0014 -0.2769  0.0562
 2714W        W 6765   8.513   3.584  10.035  0.0144 -0.0990  0.2389
 2715W        W 6766   0.483   0.552  10.251  0.1025 -0.0463  0.0903
 2716W        W 6767   7.963   9.569   1.374  0.0792  0.1522 -0.3128
 2717W        W 6768   9.556   8.855   3.832 -0.1609 -0.1134  0.4132
 2718W        W 6769   6.925   3.115   5.029 -0.3777 -0.0686 -0.0613
 2719W        W 6770   2.235   3.877  10.912 -0.1087 -0.0575 -0.1832
 2720W        W 6771   2.996   8.290  10.511  0.0174 -0.2414 -0.0237
 2721W        W 6772   7.584   2.382  10.885 -0.0041  0.0237  0.2082
 2722W        W 6773   3.896   8.500  13.873  0.3944  0.0992  0.1890
 2723W        W 6774   9.398   5.699  11.471 -0.2726  0.0774 -0.1641
 2724W        W 6775   1.827   0.627   3.380 -0.0162 -0.3957 -0.0110
 2725W        W 6776   0.148   0.205  12.298  0.3350 -0.2601 -0.2186
 2726W        W 6777   7.186   5.896  13.600  0.0118  0.0236  0.2981
 2727W        W 6778   9.352   1.673   0.274 -0.3080 -0.4040  0.1926
 2728W        W 6779  10.029   3.857  10.279 -0.0470  0.4007  0.0251
 2729W        W 6780   6.649   0.379   9.736 -0.0830  0.1402  0.0320
 2730W        W 6781   1.346   7.254  10.180  0.0964 -0.1638 -0.2735
 2731W        W 6782   3.188   9.256   1.261 -0.1602 -0.4052  0.0756
 2732W        W 6783   0.882   3.415   2.552  0.0251  0.1002  0.0752
 2733W        W 6784   7.629   9.044  10.500  0.1935  0.0304 -0.0204
 2734W        W 6785   1.020   6.391   1.779  0.0252 -0.1864 -0.0039
 2735W        W 6786   5.777   1.933   5.443 -0.0244  0.1469  0.0440
 2736W        W 6787   1.760   8.861   4.036 -0.1987  0.1730 -0.0778
 2737W        W 6788   7.609  10.159  10.382 -0.0525 -0.1640  0.1209
 2738W        W 6789   9.971   8.658   2.950 -0.0173 -0.0328 -0.2749
 2739W        W 6790   4.902   2.425  10.990 -0.1778  0.0201  0.1333
 2740W        W 6791   7.081   7.069   3.460  0.0925 -0.1590 -0.2408
 2741W        W 6792   9.579   1.740   1.348 -0.0210  0.2320  0.0402
 2742W        W 6793   0.354   4.281   2.144 -0.1336  0.2061 -0.1348
 2743W        W 6794   6.968   1.566  12.593 -0.0747  0.1554 -0.0931
 2744W        W 6795  10.125   3.815   2.633  0.1502  0.3341 -0.1053
 2745W        W 6796   8.646   7.651   3.980  0.2470  0.1127  0.0210
 2746W        W 6797   6.044   0.792   3.748  0.3912  0.0258 -0.0132
 2747W        W 6798   3.591   8.980  12.431 -0.0705 -0.2236  0.0155
 2748W        W 6799   4.607   4.379  10.702 -0.0042  0.2258  0.0037
 2749W        W 6800   2.896   8.412   9.633  0.3049 -0.0589  0.1579
 2750W        W 6801   5.103   8.787  13.660 -0.0147 -0.0431 -0.0624
 2751W        W 6802   4.352   0.632   5.173  0.0768  0.3219  0.0875
 2752W        W 6803   2.712   1.540   4.251 -0.0592  0.1509 -0.0499
 2753W        W 6804   0.074   5.281  10.178  0.0715  0.0241 -0.1473
 2754W        W 6805   2.003   4.152   9.633  0.1465  0.0425 -0.2070
 2755W        W 6806   0.581   9.773  12.378 -0.2831  0.4851  0.1274
 2756W        W 6807   5.767   7.037   0.954  0.0541  0.0009  0.2453
 2757W        W 6808   9.462   5.833   2.607  0.1327 -0.1313  0.2446
 2758W        W 6809   0.193   3.441   1.820 -0.2737 -0.4207  0.2321
 2759W        W 6810   9.407   3.953  13.377 -0.0463  0.1756 -0.0902
 2760W        W 6811   4.916   0.225  12.700 -0.1304 -0.2828  0.2282
 2761W        W 6812   0.855   2.664   3.928 -0.4156 -0.0837  0.2190
 2762W        W 6813   2.188   1.523  12.379 -0.2060  0.0468 -0.0612
 2763W        W 6814   0.478  10.081   4.619  0.1697  0.0733  0.2093
 2764W        W 6815   9.299   4.128  11.030  0.3369 -0.2434  0.0543
 2765W        W 6816   0.268   8.579  11.938 -0.1589 -0.2677 -0.0622
 2766W        W 6817   3.425   9.930   0.733 -0.1031  0.1670  0.3381
 2767W        W 6818   3.786   4.942   2.010 -0.5245 -0.0363 -0.1797
 2768W        W 6819   0.130   9.408   8.858 -0.0507 -0.0054  0.0863
 2769W        W 6820   5.017   9.406  12.018 -0.1304 -0.0220  0.2613
 2770W        W 6821   9.763   9.518   2.337 -0.1126  0.5554 -0.2529
 2771W        W 6822   7.449   0.478  13.205  0.2527  0.1731  0.0322
 2772W        W 6823   2.154   4.521  11.592  0.0594  0.1691 -0.0146
 2773W        W 6824   8.465   4.125   9.649  0.1632 -0.0638  0.0016
 2774W        W 6825   8.009   3.183   0.267  0.1337  0.0192  0.1910
 2775W        W 6826   6.592   0.097   2.436 -0.0411  0.1592  0.3563
 2776W        W 6827   0.440   7.426  11.750 -0.2066 -0.1494 -0.2175
 2777W        W 6828   3.165   6.983  13.921  0.4689 -0.2686  0.2336
 2778W        W 6829   9.785   3.490  12.093 -0.0722 -0.1414  0.2197
 2779W        W 6830   9.508   6.319   2.730 -0.3038 -0.1758 -0.2203
 2780W        W 6831   0.609   2.524   3.226  0.4090 -0.0063 -0.0795
 2781W        W 6832   2.106   0.926  11.162 -0.2214 -0.2061  0.1127
 2782W        W 6833   9.192   3.361  12.481  0.1200  0.1673 -0.1143
 2783W        W 6834   7.667   4.088  11.832 -0.1278 -0.1225 -0.0474
 2784W        W 6835   8.188   0.285  11.111  0.3323 -0.0013  0.0891
 2785W        W 6836   7.887   7.801   3.491  0.1419  0.2138 -0.0487
 2786W        W 6837   0.516   1.574   9.992 -0.3012 -0.3423  0.0956
 2787W        W 6838   5.699   9.829   1.088 -0.1925 -0.0473 -0.1490
 2788W        W 6839   1.488   6.541  11.835 -0.1095  0.3146  0.0352
 2789W        W 6840   6.601   7.199   0.684  0.2519 -0.1701  0.2310
 2790W        W 6841   6.709   6.847  13.722  0.0664  0.0106 -0.0604
 2791W        W 6842   2.152   9.951  12.254  0.2565  0.1295  0.0886
 2792W        W 6843   5.339   1.570  13.444  0.1758  0.1964  0.2272
 2793W        W 6844   2.406   1.338   2.406 -0.1129  0.1623  0.1087
 2794W        W 6845   7.215   6.636  12.358 -0.1325  0.2828  0.4555
 2795W        W 6846   5.351   6.741   0.188  0.3046 -0.1400 -0.1840
 2796W        W 6847   1.864   1.756   5.238 -0.1013 -0.1900 -0.1920
 2797W        W 6848   1.658   2.993   9.363 -0.0908 -0.0095 -0.0620
 2798W        W 6849   4.378   0.641   0.578  0.2364 -0.0309 -0.1441
 2799W        W 6850   7.576   7.861  11.780  0.0449 -0.0015 -0.1701
 2800W        W 6851   3.359   6.647   1.250  0.0765  0.3898 -0.1306
 2801W        W 6852   3.273   1.860   2.330 -0.0482 -0.0880  0.0628
 2802W        W 6853   9.992   3.643   3.403  0.1283  0.2071  0.1254
 2803W        W 6854   3.430   8.301   4.311 -0.0252  0.0415  0.2231
 2804W        W 6855   1.161   1.415  13.303  0.3526 -0.2241  0.0384
 2805W        W 6856   5.384   1.385   3.786  0.2676  0.1700 -0.3255
 2806W        W 6857   7.355   1.973  12.656 -0.0910  0.3177 -0.0434
 2807W        W 6858   8.717   7.169   0.960 -0.0286  0.1610  0.0934
 2808W        W 6859   5.408   2.009   8.974  0.2079  0.2027  0.3281
 2809W        W 6860   9.424   4.635  10.792  0.0170 -0.2325 -0.2171
 2810W        W 6861   7.011  10.141  11.599 -0.1333  0.1020 -0.2099
 2811W        W 6862   1.151   9.420   1.585  0.2330 -0.0848  0.2414
 2812W        W 6863   5.398   0.902   5.470 -0.0893  0.4326 -0.1637
 2813W        W 6864   9.047   4.467  12.589 -0.0201 -0.0876 -0.3998
 2814W        W 6865   8.162   2.287   9.923  0.0075 -0.0017 -0.1400
 2815W        W 6866   0.933   4.017  11.763 -0.0006  0.2259  0.2068
 2816W        W 6867   2.130   7.019  13.007 -0.0534 -0.1132 -0.0741
 2817W        W 6868   1.433   2.110   0.577 -0.2105  0.1887 -0.1839
 2818W        W 6869   9.674   0.853   0.440  0.0667 -0.1920  0.1340
 2819W        W 6870   7.972   1.222  10.436  0.0293 -0.1519 -0.1603
 2820W        W 6871   1.446   2.117   2.165 -0.1218 -0.1970  0.1777
 2821W        W 6872   4.750   3.619   2.762 -0.1475  0.3101 -0.2697
 2822W        W 6873   1.222   4.064   1.904  0.2075 -0.3827 -0.0179
 2823W        W 6874   1.307   7.644   1.817  0.0928 -0.0772 -0.0344
 2824W        W 6875   2.739   8.981   8.716 -0.0138 -0.1324 -0.0372
 2825W        W 6876   6.434   0.782  12.606 -0.0720  0.0897  0.1295
 2826W        W 6877   8.455   1.844   0.790 -0.1064 -0.2908  0.1369
 2827W        W 6878   2.505   6.117   3.821  0.0133  0.3429  0.0910
 2828W        W 6879   1.898   1.745  13.142  0.0796  0.0103 -0.0930
 2829W        W 6880   0.426  10.186  10.153 -0.0946  0.2975  0.0232
 2830W        W 6881   9.680   2.612  12.010  0.1420  0.0204 -0.0284
 2831W        W 6882   8.978   9.767  12.789  0.2187 -0.2147  0.1803
 2832W        W 6883   3.724  10.014  13.319 -0.1460  0.1468 -0.0313
 2833W        W 6884   2.985   6.856  13.415  0.0378 -0.2153  0.0155
 2834W        W 6885   8.458   6.801   1.966  0.0206  0.2972  0.0071
 2835W        W 6886   3.685  10.179  10.113 -0.1033 -0.0036 -0.1353
 2836W        W 6887   5.968   4.998  11.001 -0.0613  0.1494 -0.0502
 2837W        W 6888   2.934   1.963  10.002 -0.1328  0.1346  0.2312
 2838W        W 6889   6.875   7.904  11.020  0.0149  0.0116 -0.1476
 2839W        W 6890   3.093   7.989   1.174  0.2482 -0.3624 -0.0060
 2840W        W 6891   0.557   5.366   2.751  0.1255 -0.1903  0.1271
 2841W        W 6892   7.858   6.867  11.527  0.1039 -0.0778 -0.0469
 2842W        W 6893   7.882   6.114   4.784 -0.0906  0.2606 -0.0157
 2843W        W 6894   9.790   9.398   5.542 -0.3396 -0.2643 -0.1248
 2844W        W 6895   0.491   7.530   3.668  0.2364  0.1042  0.0864
 2845W        W 6896   8.539   1.383   0.626  0.0757  0.4341  0.1168
 2846W        W 6897   2.999   4.876   3.735  0.1449 -0.0846 -0.1410
 2847W        W 6898   6.461   8.796   2.003  0.0897 -0.1874 -0.0368
 2848W        W 6899   7.243   2.847  11.459 -0.1399  0.1871 -0.3421
 2849W        W 6900   5.762   7.260  10.575 -0.1256  0.1209  0.1010
 2850W        W 6901   4.701   2.031   3.468  0.2475 -0.0683 -0.1245
 2851W        W 6902   3.481   8.363   3.746 -0.0206 -0.1526 -0.0855
 2852W        W 6903   0.603   4.901   2.245  0.1980 -0.0436  0.2110
 2853W        W 6904   1.595   8.976   1.527  0.1387 -0.3676 -0.0312
 2854W        W 6905   4.550   5.057  12.789 -0.0515  0.1479 -0.0288
 2855W        W 6906   3.667   1.547   3.892 -0.1278  0.0875 -0.0470
 2856W        W 6907   9.542   9.240   4.550 -0.3146 -0.1460  0.0466
 2857W        W 6908   9.457   0.451  11.173 -0.2705 -0.1084 -0.0080
 2858W        W 6909   6.216   9.216   2.557  0.3234 -0.0262  0.0663
 2859W        W 6910   2.975   0.933   8.991  0.1216  0.2345  0.0605
 2860W        W 6911   3.749   7.943   3.324  0.2215 -0.2767  0.0242
 2861W        W 6912   9.025   0.908  12.409  0.2173  0.1035  0.0401
 2862W        W 6913   3.225   7.885   3.881 -0.2397 -0.0165  0.1114
 2863W        W 6914   9.211   3.558  12.972 -0.3760  0.0242 -0.2015
 2864W        W 6915   8.074   1.371   3.056  0.1388  0.0515 -0.1909
 2865W        W 6916   7.917   7.821   0.701  0.1243  0.0833 -0.0479
 2866W        W 6917   6.467   1.845   1.659  0.0973  0.2050  0.0638
 2867W        W 6918   2.557   2.979  12.014  0.0509  0.1112 -0.1526
 2868W        W 6919   0.675   8.385   9.515 -0.0784  0.1573  0.1018
 2869W        W 6920   3.090   0.680   2.818  0.0743 -0.2253  0.1650
 2870W        W 6921   5.958   5.156  10.059  0.2520 -0.4369 -0.3148
 2871W        W 6922   6.598   6.822   2.610 -0.0059  0.2770  0.0819
 2872W        W 6923   8.068   0.695   0.070  0.0048  0.5097 -0.0149
 2873W        W 6924   2.026  10.131  12.993 -0.1904  0.2267 -0.0380
 2874W        W 6925   7.769   7.299   1.235 -0.0715 -0.4171 -0.0912
 2875W        W 6926   4.404   3.617   3.718 -0.0517 -0.2153  0.0815
 2876W        W 6927   8.263   9.065  11.276 -0.0873 -0.1885  0.2388
 2877W        W 6928   2.502   4.936   9.602 -0.0542 -0.1602 -0.1073
 2878W        W 6929   2.697   8.525   2.250 -0.2015  0.4467 -0.0792
 2879W        W 6930   7.129   7.793  10.440  0.0289 -0.3601 -0.2453
 2880W        W 6931   9.603   1.259   2.764  0.0888 -0.1719  0.1688
 2881W        W 6932   1.167   8.564  10.888 -0.2351  0.0818 -0.1508
 2882W        W 6933   3.749   6.370   1.055 -0.0484  0.0760  0.2457
 2883W        W 6934   3.583   6.613   0.166 -0.1117 -0.1161 -0.0275
 2884W        W 6935   5.797   9.860  13.870  0.2925 -0.2839  0.2904
 2885W        W 6936   8.807   0.005  13.213 -0.1559  0.2643  0.1887
 2886W        W 6937   6.012   4.883  11.751 -0.3707  0.2235  0.0651
 2887W        W 6938   3.935   5.655   0.421  0.1615 -0.1289  0.0070
 2888W        W 6939   2.985   2.566   4.595 -0.1651 -0.0605  0.2092
 2889W        W 6940   7.488   3.649  12.611  0.1391 -0.3743  0.2305
 2890W        W 6941   5.038   4.598   0.349 -0.1957 -0.1789  0.0187
 2891W        W 6942   0.501   6.365   2.631  0.0463  0.3302  0.1348
 2892W        W 6943   7.880   6.283  10.745 -0.1821 -0.0397 -0.1166
 2893W        W 6944   2.470   1.526   9.405 -0.0858  0.1549 -0.0780
 2894W        W 6945   7.910   5.307   2.714 -0.2230 -0.0762 -0.0402
 2895W        W 6946   1.925   2.607  10.257  0.0889  0.0274 -0.2215
 2896W        W 6947   8.552   0.967   3.610 -0.0814 -0.3658 -0.0660
 2897W        W 6948   0.851   4.188   9.038  0.1002  0.2275 -0.1434
 2898W        W 6949   5.403   6.829  13.616 -0.0588  0.1467 -0.2126
 2899W        W 6950   3.323   3.601  12.496  0.1967 -0.0790 -0.3157
 2900W        W 6951   5.108   6.636   9.924  0.0647  0.1301  0.2091
 2901W        W 6952   0.752   9.774  13.417  0.1265  0.0150 -0.1661
 2902W        W 6953   5.678   1.856   3.759  0.0129  0.0843 -0.1083
 2903W        W 6954   5.087   1.160  13.578  0.1821  0.1508  0.3436
 2904W        W 6955   7.566   3.278  10.956 -0.0429  0.1651 -0.2929
 2905W        W 6956   9.267   6.971  13.296  0.2197  0.0414 -0.5472
 2906W        W 6957   7.046   2.587   2.002 -0.0149 -0.0449 -0.2239
 2907W        W 6958   2.933   2.177   2.052  0.0290  0.4951 -0.3088
 2908W        W 6959   4.646   8.794  12.368  0.1925 -0.1482  0.2468
 2909W        W 6960   6.513   3.544   3.495  0.0428 -0.2086  0.0241
 2910W        W 6961   7.623   5.394   3.695 -0.3023 -0.2436 -0.0111
 2911W        W 6962  10.033   6.303  11.227  0.0863  0.3379 -0.0318
 2912W        W 6963   5.473   4.233  10.808 -0.3249 -0.0912 -0.2396
 2913W        W 6964   1.777   9.274  11.730  0.0486  0.1172 -0.1290
 2914W        W 6965   3.347   7.940   2.934 -0.0753 -0.2410 -0.0892
 2915W        W 6966   4.192   4.700   0.714  0.0213 -0.1860 -0.3509
 2916W        W 6967   6.502   3.505  11.609  0.2966 -0.0575  0.4130
 2917W        W 6968   1.605   5.359   2.090  0.0157  0.1484 -0.0065
 2918W        W 6969   8.048   6.521   2.019  0.0545  0.2522  0.1258
 2919W        W 6970   7.941   1.604   2.639  0.1051  0.1442  0.1213
 2920W        W 6971   2.782   6.378  13.050 -0.0529 -0.0672 -0.0240
 2921W        W 6972   6.421   3.778   2.673  0.0141  0.1411  0.1071
 2922W        W 6973   9.414   2.350  11.586  0.2540 -0.1829 -0.0530
 2923W        W 6974   6.709   5.457  12.655  0.1158  0.1329  0.0175
 2924W        W 6975   0.272   4.022   0.939 -0.0789  0.0519  0.3702
 2925W        W 6976  10.105   3.358  12.964  0.1724 -0.0883 -0.3031
 2926W        W 6977   8.488   9.737   0.725  0.0314 -0.1368  0.0509
 2927W        W 6978   6.591   3.390  13.857  0.0531  0.1067 -0.0452
 2928W        W 6979   9.998   1.598   2.075  0.1329  0.2393 -0.0735
 2929W        W 6980   3.593   7.241   1.483  0.0024  0.2365  0.1559
 2930W        W 6981   0.973   5.613   3.855 -0.0212  0.2113  0.0802
 2931W        W 6982   8.048   9.813   0.943 -0.0144 -0.0875  0.1129
 2932W        W 6983   9.908   4.281   3.412 -0.0949 -0.3166  0.0798
 2933W        W 6984   1.404   4.449   4.929 -0.1569  0.0213 -0.1444
 2934W        W 6985   4.083   7.623  10.779 -0.0635  0.0657 -0.1476
 2935W        W 6986   7.926   3.910  11.405 -0.1025 -0.0742  0.1615
 2936W        W 6987   3.811  10.078   2.690 -0.0741  0.0197 -0.1948
 2937W        W 6988   8.859   0.500   3.346 -0.0728  0.1475 -0.1084
 2938W        W 6989   0.474   1.307   3.805 -0.0482 -0.2909 -0.0175
 2939W        W 6990   2.429   4.384   3.837  0.2141 -0.3781 -0.2423
 2940W        W 6991   7.703   7.671  12.624 -0.1004  0.2006  0.0804
 2941W        W 6992   7.918   0.419  10.712 -0.2032 -0.1621  0.2274
 2942W        W 6993   4.350   6.117   1.069  0.1554  0.2398  0.3734
 2943W        W 6994   1.642   4.702   8.967 -0.1734  0.1306 -0.0056
 2944W        W 6995   8.051   5.031   9.732  0.4278 -0.1237  0.1018
 2945W        W 6996   2.799   7.815   0.071  0.0572 -0.2164  0.1884
 2946W        W 6997   5.437   0.413  11.053  0.0686 -0.1682  0.0638
 2947W        W 6998   5.441   2.493   9.836  0.0525  0.0209  0.1039
 2948W        W 6999   4.255   0.589  12.498  0.2416 -0.0679  0.0883
 2949W        W 7000   3.469   8.412   1.206 -0.0266 -0.1042 -0.1135
 2950W        W 7001   7.764   3.381   3.937 -0.2701  0.0510 -0.1084
 2951W        W 7002   2.147   2.211   8.573 -0.2567  0.0005  0.0165
 2952W        W 7003   4.686   6.435   1.205 -0.3353 -0.0823  0.1443
 2953W        W 7004   5.927   4.152   3.845  0.1120  0.2148 -0.0139
 2954W        W 7005   9.855   9.897  13.520 -0.1375 -0.0418 -0.0003
 2955W        W 7006   5.196   3.229   3.438  0.2691  0.0287 -0.3032
 2956W        W 7007   7.162   1.394   2.077  0.2934  0.1824  0.1698
 2957W        W 7008   9.966   0.917   9.152 -0.1061 -0.2607  0.0195
 2958W        W 7009   2.137   8.018   3.678  0.1713 -0.0651  0.0486
 2959W        W 7010   9.040   0.821   0.004 -0.0488  0.2587 -0.0848
 2960W        W 7011   7.845   1.960   3.019 -0.1699 -0.0527  0.0159
 2961W        W 7012   3.508   0.902  10.111 -0.1868  0.2194  0.2057
 2962W        W 7013   4.186   5.884  11.495 -0.3615 -0.1080  0.3251
 2963W        W 7014   4.596   9.965   3.295  0.2022  0.0339  0.3597
 2964W        W 7015   1.457   6.528  11.310  0.0031  0.0152  0.3199
 2965W        W 7016   9.573   8.783  12.776  0.0168  0.2047 -0.2288
 2966W        W 7017   6.337   1.411  10.864  0.0712 -0.1679  0.3014
 2967W        W 7018   3.947   4.304  13.392  0.2752 -0.0398  0.0716
 2968W        W 7019   4.279   9.499   3.233  0.0714  0.2670  0.2317
 2969W        W 7020   4.824   4.164   1.690 -0.1804 -0.1153 -0.0859
 2970W        W 7021   5.978   6.030  10.263  0.0051  0.1966  0.0253
 2971W        W 7022  10.148   1.976   1.831  0.2690  0.1364 -0.0926
 2972W        W 7023   0.327   0.320  12.781 -0.2533 -0.0402 -0.0610
 2973W        W 7024   0.088   9.948  11.620 -0.0216 -0.1505  0.1710
 2974W        W 7025   7.434   0.250   2.655  0.0691 -0.0736 -0.0010
 2975W        W 7026   1.604   2.606  13.805  0.2028 -0.3608  0.1733
 2976W        W 7027   6.405   5.097  12.885 -0.0322 -0.0784 -0.0854
 2977W        W 7028   9.940   9.808   3.482  0.2506  0.0527  0.0397
 2978W        W 7029  10.061   4.512  10.780 -0.1539 -0.3525 -0.0858
 2979W        W 7030   6.734   9.004  12.233 -0.0448 -0.4900  0.0283
 2980W        W 7031   7.683   0.727   0.593  0.0359  0.0409 -0.2593
 2981W        W 7032   0.186   3.768  12.773 -0.0311 -0.0969 -0.0880
 2982W        W 7033   7.200   3.987   4.751 -0.2797 -0.0135  0.1287
 2983W        W 7034   6.793   1.642  12.146 -0.0484 -0.0709  0.0002
 2984W        W 7035   7.147   9.727  12.774 -0.2398  0.3447  0.1209
 2985W        W 7036   6.429   5.604  13.049  0.1404  0.0264 -0.2797
 2986W        W 7037   1.885   1.299   4.263 -0.0801  0.0725  0.2157
 2987W        W 7038   8.110   3.152  13.685  0.1598  0.0968 -0.1054
 2988W        W 7039   6.353   4.680   1.943  0.0234  0.3319  0.1160
 2989W        W 7040   8.735   4.288   0.398  0.0932  0.1252 -0.1260
 2990W        W 7041   3.253   1.334  10.009 -0.1201  0.2664  0.0757
 2991W        W 7042   6.231   1.106   3.267 -0.3101  0.2184 -0.0090
 2992W        W 7043   6.845   8.531  12.172 -0.2664 -0.0772 -0.1967
 2993W        W 7044   9.261   5.583  13.085  0.0807 -0.0764  0.0218
 2994W        W 7045   8.291   6.534   1.547 -0.0044  0.0100 -0.1245
 2995W        W 7046   1.996   9.261   2.404 -0.0974 -0.0843 -0.0059
 2996W        W 7047   9.301   1.532   4.590  0.0106  0.1610  0.0132
 2997W        W 7048   6.611   7.177  10.223  0.0398  0.0605  0.1888
 2998W        W 7049   2.019   9.471  12.248 -0.2563 -0.2712  0.1178
 2999W        W 7050   5.183   6.655   1.178 -0.0495  0.0257 -0.0692
 3000W        W 7051   7.760   1.093   3.295  0.0664 -0.0925 -0.3046
 3001W        W 7052   2.381   7.929   3.287 -0.2938 -0.0751 -0.0950
 3002W        W 7053   2.492  10.161  13.217  0.0415  0.0075  0.2962
 3003W        W 7054   0.281   9.404  12.222  0.2264  0.2031  0.0914
 3004W        W 7055   5.986   6.885  10.753 -0.2531  0.0850 -0.0039
 3005W        W 7056   8.203   0.648  12.723 -0.1148  0.0890 -0.1754
 3006W        W 7057   9.639   8.353   3.220  0.1340  0.2957  0.1234
 3007W        W 7058   4.592   8.619   3.127 -0.0003 -0.0391 -0.0442
 3008W        W 7059   0.974   4.462   2.886 -0.1508  0.2440  0.1966
 3009W        W 7060   4.679   2.969  12.678 -0.0906  0.0029 -0.0796
 3010W        W 7061   1.196   4.031  13.548  0.2772 -0.4104  0.0006
 3011W        W 7062   3.374   2.143   9.604  0.0636  0.3449  0.2625
 3012W        W 7063   5.276   7.680   2.654 -0.2937  0.0966  0.1007
 3013W        W 7064   4.884   1.310   4.533  0.2216  0.0493 -0.0397
 3014W        W 7065   9.355   2.416   0.789 -0.1970 -0.1250  0.0284
 3015W        W 7066   8.239   8.286  13.635 -0.1164  0.0454 -0.2264
 3016W        W 7067   6.576   9.969  10.637 -0.1039 -0.2927  0.3857
 3017W        W 7068   9.505   6.068  12.383  0.5411 -0.1011 -0.0571
 3018W        W 7069   0.180   7.315  12.523 -0.2363  0.0365 -0.0782
 3019W        W 7070   4.313   2.288  13.437 -0.1156 -0.1086 -0.2464
 3020W        W 7071   7.498   3.445   2.076 -0.3267 -0.0548 -0.1352
 3021W        W 7072   4.239   9.871  11.344  0.0373  0.2400  0.2030
 3022W        W 7073   6.934   8.013  12.219  0.3009  0.0414  0.0530
 3023W        W 7074   6.810   9.852   4.997  0.1012  0.2423 -0.2425
 3024W        W 7075   1.210   8.436   3.626  0.1672 -0.2432  0.2649
 3025W        W 7076   9.347   1.732   3.702 -0.0368 -0.0390  0.3212
 3026W        W 7077   8.818   7.904   4.499  0.0040  0.2135  0.0934
 3027W        W 7078   9.985   1.586   4.950 -0.1500 -0.1218 -0.1160
 3028W        W 7079   4.134   8.214  12.910 -0.1159  0.0424  0.1009
 3029W        W 7080   1.043   0.766   3.993  0.0793  0.0448  0.2002
 3030W        W 7081   6.728   1.966  11.229  0.2544 -0.0286  0.0693
 3031W        W 7082   3.512   1.339  11.515  0.1765  0.0951 -0.1816
 3032W        W 7083   8.853   2.868  11.658 -0.0282 -0.2171 -0.2846
 3033W        W 7084   9.712   9.018   9.601 -0.2212 -0.3010 -0.1348
 3034W        W 7085   7.041   8.320  13.517 -0.1835 -0.0993  0.1710
 3035W        W 7086   8.230   0.896   2.056  0.0719  0.0907 -0.4606
 3036W        W 7087   6.468   7.716   0.045  0.2196 -0.2502 -0.2607
 3037W        W 7088   7.737   4.821   2.159  0.2992 -0.1199  0.2612
 3038W        W 7089   0.865   4.405   1.977  0.0407 -0.3977 -0.1563
 3039W        W 7090   0.473   4.408   3.080  0.0569 -0.0697 -0.1602
 3040W        W 7091   6.737   2.755   2.361  0.0337  0.2485  0.1838
 3041W        W 7092   8.090   6.543   0.769 -0.1059 -0.1084 -0.0073
 3042W        W 7093   2.384   0.814   1.176 -0.0330 -0.0674  0.1649
 3043W        W 7094   9.320   0.256   5.023 -0.0167  0.0211  0.0463
 3044W        W 7095   6.161   0.321  11.483  0.0288  0.1588 -0.0256
 3045W        W 7096   6.948   0.664   4.439  0.3127 -0.1474  0.4577
 3046W        W 7097   0.904   6.382  12.631  0.0492  0.1870  0.1437
 3047W        W 7098   6.651   0.600   2.246 -0.0575 -0.0399 -0.0803
 3048W        W 7099   5.268   6.714   3.250  0.1208  0.2430  0.0073
 3049W        W 7100   3.863   6.450   2.889  0.0350 -0.1407 -0.1485
 3050W        W 7101   1.398   3.250   9.675 -0.0404  0.3449 -0.1813
 3051W        W 7102   3.900   6.040   4.075 -0.0306  0.2567 -0.2327
 3052W        W 7103   5.883   0.633  11.239 -0.2240 -0.0488  0.0375
 3053W        W 7104   4.413   3.334   1.098  0.0132  0.1097 -0.2144
 3054W        W 7105   9.511   8.886   2.949 -0.2173  0.1250 -0.0995
 3055W        W 7106   7.816   6.991  12.393 -0.0372  0.1530  0.0653
 3056W        W 7107   0.887   7.760  10.564  0.0007 -0.0303 -0.2524
 3057W        W 7108   1.067   5.939   1.600 -0.2109  0.1305  0.0230
 3058W        W 7109   0.536   9.889   0.253 -0.1153 -0.0517 -0.0384
 3059W        W 7110   2.683   0.374   2.857  0.1797  0.2253 -0.0839
 3060W        W 7111   3.400   2.287   4.714 -0.0559  0.2137 -0.1291
 3061W        W 7112   9.638   0.422   9.623 -0.0408 -0.2362 -0.0574
 3062W        W 7113   2.747   7.470  12.743 -0.2505 -0.2790  0.2230
 3063W        W 7114   1.549   6.094   1.367  0.0250 -0.1742  0.3476
 3064W        W 7115   2.514   2.168   2.576 -0.0476  0.0079  0.3524
 3065W        W 7116   1.843   4.834  11.290  0.0184 -0.0261 -0.0863
 3066W        W 7117   8.517   9.210  13.566 -0.2629 -0.1393  0.0439
 3067W        W 7118   3.227   4.515   3.510  0.1488  0.4522  0.3868
 3068W        W 7119   0.743   9.562   1.216  0.0493  0.2860 -0.0681
 3069W        W 7120   3.551   3.444  13.799 -0.2149 -0.3013 -0.1941
 3070W        W 7121   7.164   2.055   0.622  0.1278 -0.3966 -0.0128
 3071W        W 7122   2.565   1.451   3.695 -0.1119  0.4521  0.2452
 3072W        W 7123   2.643   9.570  10.613  0.3548  0.0657 -0.3335
 3073W        W 7124   1.099   1.401  11.730  0.2357  0.0200  0.1595
 3074W        W 7125   9.327   5.264   2.696  0.1414 -0.0824 -0.0630
 3075W        W 7126   8.849   3.888  13.218 -0.0200 -0.0903  0.0981
 3076W        W 7127   0.298   3.798  10.168 -0.0750 -0.1239  0.1922
 3077W        W 7128   8.822   6.605  13.421 -0.1509 -0.0227 -0.0559
 3078W        W 7129   4.061   8.598  10.669  0.2811  0.2339 -0.4850
 3079W        W 7130   5.802   9.200   0.494  0.1278 -0.0922 -0.0104
 3080W        W 7131   3.322   4.571  11.347  0.1330  0.0640  0.2795
 3081W        W 7132   6.087   3.419  10.023  0.0712 -0.0714  0.0339
 3082W        W 7133   1.417   1.070  12.551  0.0464 -0.1011 -0.0913
 3083W        W 7134   8.436   5.091  13.187  0.0049  0.0920  0.1078
 3084W        W 7135   0.959   0.562  10.435  0.2232  0.1056 -0.0963
 3085W        W 7136   1.456   5.763  11.234 -0.1824 -0.3314 -0.0420
 3086W        W 7137   4.744   3.453   3.284  0.0508  0.0422  0.1944
 3087W        W 7138   0.690   1.358   0.692  0.4607  0.2996 -0.0114
 3088W        W 7139   0.938   1.343   4.204  0.1725  0.0517 -0.0760
 3089W        W 7140   2.546   1.827  10.852  0.1547  0.1478 -0.5916
 3090W        W 7141   4.359   5.591   1.152  0.3033 -0.0529  0.0374
 3091W        W 7142   1.573   9.267  13.224  0.0327  0.0277  0.5566
 3092W        W 7143   3.872   9.497   0.850  0.0559  0.0377  0.1808
 3093W        W 7144   9.432   6.247  10.714  0.0674  0.0150 -0.1553
 3094W        W 7145   4.092   4.787   9.763 -0.1041 -0.0374 -0.2471
 3095W        W 7146   9.884   1.831   4.519  0.1192 -0.3954 -0.2009
 3096W        W 7147   0.207  10.169   3.203 -0.0674  0.3001  0.1975
 3097W        W 7148   0.928   9.810   2.841 -0.2773  0.0603 -0.1083
 3098W        W 7149   5.485   2.541   0.493  0.4466 -0.4387  0.1285
 3099W        W 7150   4.387   9.365   3.872  0.0986  0.1173 -0.0134
 3100W        W 7151   1.096   3.546   1.000  0.1712 -0.3130  0.1900
 3101W        W 7152   3.937   3.507   3.948 -0.2110  0.0366  0.0010
 3102W        W 7153   5.396   2.838   4.237 -0.0602 -0.1054 -0.1825
 3103W        W 7154   6.588   8.125   3.999 -0.0802  0.2051  0.3451
 3104W        W 7155   0.058   7.774   3.653  0.0374  0.1555 -0.2431
 3105W        W 7156   1.001   6.776  13.539 -0.0487 -0.0844  0.0001
 3106W        W 7157   4.600   5.000  13.482  0.1812 -0.2803  0.1151
 3107W        W 7158   3.798   2.594   2.878  0.0274  0.0644 -0.2097
 3108W        W 7159   3.191   8.824   3.682 -0.1109  0.1235  0.1525
 3109W        W 7160   9.436   1.318   4.082 -0.1146 -0.1787  0.1466
 3110W        W 7161   3.292   2.633   9.870 -0.0804  0.1306  0.0214
 3111W        W 7162   4.526   4.509  12.681 -0.1129 -0.0114 -0.0947
 3112W        W 7163  10.068   4.786   0.456  0.0990  0.2092  0.4094
 3113W        W 7164   0.039   6.509   5.694  0.0696  0.0658 -0.3206
 3114W        W 7165   6.112   3.977   1.716  0.0293 -0.3673 -0.0056
 3115W        W 7166   6.143   0.317   2.329 -0.2765 -0.0178  0.2391
 3116W        W 7167   8.609   2.463   0.371  0.1361  0.0732 -0.0652
 3117W        W 7168   8.895   9.207   9.404 -0.1580 -0.0712 -0.0306
 3118W        W 7169   7.089   8.799  10.667  0.0378  0.0758 -0.0854
 3119W        W 7170   0.244   3.290   9.926 -0.1211 -0.1612  0.0083
 3120W        W 7171   4.996   7.001   2.104  0.0126  0.0259 -0.0130
 3121W        W 7172  10.198   9.553   3.829  0.2846  0.1965  0.3417
 3122W        W 7173   5.996   0.398  12.716  0.2715  0.0437 -0.1100
 3123W        W 7174   2.064   9.185  10.215  0.3671  0.3106 -0.0256
 3124W        W 7175   4.642   4.399   0.661 -0.2021 -0.3720 -0.1704
 3125W        W 7176   9.121   5.093   0.932  0.1069 -0.2520 -0.0473
 3126W        W 7177   5.552   6.577  11.216 -0.2386 -0.3277 -0.0080
 3127W        W 7178   8.151   0.807  13.198 -0.2730 -0.2612  0.0150
 3128W        W 7179   5.985   1.526   3.366  0.0953 -0.0443  0.3645
 3129W        W 7180   6.384   0.847   0.058 -0.0355 -0.0431 -0.0954
 3130W        W 7181   1.026   9.224   2.949 -0.1672  0.1436 -0.2156
 3131W        W 7182   7.552   0.612   3.551 -0.1877 -0.2344 -0.3462
 3132W        W 7183   4.483   2.702  13.222 -0.4512  0.0486 -0.0399
 3133W        W 7184  10.131   0.393   9.512  0.2820  0.3283 -0.1065
 3134W        W 7185   6.795  10.019  13.072  0.0790 -0.0887 -0.0396
 3135W        W 7186   0.986   6.331  13.198  0.6675 -0.1072  0.0390
 3136W        W 7187   8.957   3.933  12.602  0.1075  0.3242  0.1108
 3137W        W 7188   0.636   6.125   1.308  0.2292 -0.1803  0.0217
 3138W        W 7189   7.414   4.345   5.057 -0.3645 -0.0899  0.1656
 3139W        W 7190   8.790   9.591   0.162 -0.1113  0.2904  0.2361
 3140W        W 7191   7.971   7.014  13.742  0.0630 -0.1733  0.3628
 3141W        W 7192   2.330   9.819  11.442 -0.2270 -0.0990 -0.0570
 3142W        W 7193   6.615   5.223  10.537 -0.1525 -0.1453  0.0256
 3143W        W 7194   1.224   0.404  12.072 -0.0536  0.1498  0.0232
 3144W        W 7195   1.891   5.271   3.481  0.1068  0.2487  0.1589
 3145W        W 7196   1.582   1.669   0.824 -0.1012  0.0610  0.1229
 3146W        W 7197   6.833   0.674   5.807 -0.0130 -0.3810  0.0177
 3147W        W 7198   1.887   8.487  11.736 -0.2705  0.0655 -0.1072
 3148W        W 7199   3.055   7.986   0.471 -0.3838  0.3530 -0.3360
 3149W        W 7200   5.054   5.785  10.791 -0.2769 -0.1000  0.1466
 3150W        W 7201   3.769   0.721   4.101  0.0577  0.0799 -0.1504
 3151W        W 7202   3.322   5.732  13.843  0.2523  0.0547 -0.3277
 3152W        W 7203   7.347   6.696  11.558 -0.0110  0.1546  0.0564
 3153W        W 7204   6.071   3.756  13.744 -0.0152 -0.0020 -0.0781
 3154W        W 7205   0.105   2.599  13.184  0.0136  0.1795 -0.2317
 3155W        W 7206   9.162   3.571   3.855  0.0374  0.1885 -0.0420
 3156W        W 7207   2.199   7.459  12.298  0.0037  0.0661  0.3634
 3157W        W 7208   3.277  10.123  11.553  0.2948 -0.0524  0.1078
 3158W        W 7209   5.872   7.996   1.990  0.0564 -0.5295  0.1429
 3159W        W 7210   3.851   2.891  10.106  0.0533 -0.0461  0.1532
 3160W        W 7211   8.282   1.380  12.618 -0.0296 -0.0666 -0.0762
 3161W        W 7212   2.923   9.619   0.977  0.0869 -0.2900  0.3126
 3162W        W 7213   5.259   2.371  10.608 -0.0984 -0.0104  0.1391
 3163W        W 7214   9.713   6.967  12.845 -0.1883  0.1969 -0.1638
 3164W        W 7215   9.158   5.989   3.915  0.0499 -0.0394  0.0945
 3165W        W 7216   5.496   6.379  13.791 -0.4611 -0.5276 -0.2567
 3166W        W 7217   7.183   9.891   0.252  0.0099  0.2134 -0.1495
 3167W        W 7218   7.510   9.751  12.382 -0.0052 -0.0003  0.2958
 3168W        W 7219   0.151   4.984  10.582  0.1213 -0.2575  0.0666
 3169W        W 7220   0.273   6.008   9.640 -0.3687 -0.2326  0.0801
 3170W        W 7221   6.741   5.504   2.249  0.2337  0.1618  0.0636
 3171W        W 7222   7.088   4.534  12.963  0.0061  0.1246 -0.0144
 3172W        W 7223   2.461   7.989   1.717  0.0111 -0.0402 -0.0402
 3173W        W 7224   6.904   5.979   2.276 -0.1299  0.3809  0.4999
 3174W        W 7225   9.751   1.695   9.940  0.0773  0.2664 -0.2371
 3175W        W 7226   9.129   1.000  13.432 -0.0423  0.1707 -0.0415
 3176W        W 7227   8.921   3.075  12.809 -0.1896  0.5789 -0.3167
 3177W        W 7228   1.817   6.532   1.276 -0.2711 -0.1424 -0.1632
 3178W        W 7229   5.202   0.939  13.006  0.0745 -0.2151  0.0226
 3179W        W 7230   1.115   1.558  10.887 -0.0766  0.1766 -0.4513
 3180W        W 7231   1.950   5.353  12.176  0.1588 -0.2627  0.1437
 3181W        W 7232   7.651   5.092   0.883 -0.1217 -0.0809  0.1037
 3182W        W 7233   3.407   8.461   9.472  0.1596  0.0062 -0.1966
 3183W        W 7234   1.339   2.773   0.549 -0.0566 -0.1066 -0.1440
 3184W        W 7235   9.502   4.274  12.579 -0.1730  0.3895  0.0158
 3185W        W 7236  10.120   5.809  13.460  0.2481 -0.0341 -0.1846
 3186W        W 7237   5.692   1.345   0.542  0.2243 -0.1417  0.0687
 3187W        W 7238   6.929   5.103   2.579  0.0314 -0.0308 -0.1590
 3188W        W 7239   3.660   3.150   2.651  0.1733 -0.1015 -0.1277
 3189W        W 7240   3.222   5.876   0.543 -0.2511  0.1078  0.1081
 3190W        W 7241   1.674   8.742   0.330  0.0520 -0.2038 -0.1181
 3191W        W 7242   2.243   3.089  13.527 -0.2043 -0.4013  0.4638
 3192W        W 7243   5.786   6.060   0.916  0.1429  0.0343 -0.4310
 3193W        W 7244   8.173   8.375   1.481 -0.4835  0.3847 -0.1977
 3194W        W 7245   7.767   5.554  12.963 -0.3520  0.1456  0.1465
 3195W        W 7246   2.359   2.520   8.911  0.0858 -0.2383 -0.0579
 3196W        W 7247   5.888   1.667  12.269  0.0619 -0.0320 -0.1565
 3197W        W 7248   8.144   2.590   5.082 -0.1198  0.2065  0.0500
 3198W        W 7249   4.241   3.281   4.943  0.1080 -0.0789  0.2228
 3199W        W 7250   7.440   2.219   2.776  0.1364 -0.0167  0.1019
 3200W        W 7251   2.805   8.309   2.658 -0.1719  0.0607 -0.0474
 3201W        W 7252   1.803   5.733   3.565  0.0100 -0.0313 -0.1153
 3202W        W 7253   4.699   7.345   0.848  0.0676  0.3279  0.0862
 3203W        W 7254   9.006   9.440   1.566 -0.1319 -0.0049 -0.0680
 3204W        W 7255   7.439   1.851  13.760  0.2111 -0.2418 -0.0068
 3205W        W 7256   1.942   8.670   1.927 -0.3127 -0.1361 -0.0879
 3206W        W 7257   8.577   1.972   9.797  0.0640 -0.0297  0.1317
 3207W        W 7258   6.602  10.086   4.588 -0.2611 -0.1240  0.3989
 3208W        W 7259   9.162   8.122  12.778 -0.0706 -0.0442  0.0466
 3209W        W 7260   7.227   6.889  13.662 -0.3298 -0.0857  0.0852
 3210W        W 7261   3.199   1.763  11.617 -0.2639 -0.2825 -0.1417
 3211W        W 7262   4.648   8.246  12.548 -0.1002  0.2767  0.0680
 3212W        W 7263   9.836   0.951   4.217  0.0072 -0.1516  0.3151
 3213W        W 7264   8.798   5.392  12.895 -0.0296  0.1629  0.1925
 3214W        W 7265   5.986   4.005   0.324  0.2488 -0.0300 -0.0682
 3215W        W 7266   2.139   8.900  11.655 -0.1221  0.2086  0.0315
 3216W        W 7267   2.115   6.966  11.374 -0.2286  0.0440  0.0649
 3217W        W 7268   7.750   8.679   2.161 -0.3860  0.0571  0.0264
 3218W        W 7269   1.621   1.810   3.653 -0.0385 -0.2677 -0.0746
 3219W        W 7270   9.957   4.739  10.357  0.0443 -0.1437 -0.0663
 3220W        W 7271   5.148   6.969  11.254  0.1185  0.5113  0.1753
 3221W        W 7272   5.050   3.942  10.855  0.3639  0.0410  0.0691
 3222W        W 7273   7.831   0.984  11.665  0.1146  0.6709 -0.2211
 3223W        W 7274   8.359  10.025  11.845 -0.0514  0.2220 -0.0340
 3224W        W 7275   8.832   3.606   1.398  0.0733  0.4182  0.2153
 3225W        W 7276   6.215   0.214   9.992  0.0451 -0.0426 -0.2005
 3226W        W 7277   3.252   5.630   1.917  0.0472 -0.2591  0.1693
 3227W        W 7278   9.846   2.150  13.845 -0.1857 -0.1362 -0.0323
 3228W        W 7279   4.947   7.002  12.832  0.0541 -0.0324 -0.2775
 3229W        W 7280   5.968   9.647   4.306 -0.2896  0.2011 -0.1790
 3230W        W 7281   6.567   5.922  10.202  0.1922  0.1767  0.1885
 3231W        W 7282   9.668   5.064   3.018  0.2179 -0.0452 -0.1447
 3232W        W 7283   8.917   6.651   4.970 -0.1357 -0.0051  0.3362
 3233W        W 7284   0.026  10.093   0.066  0.1012 -0.0066 -0.2477
 3234W        W 7285   7.321   7.994   3.586 -0.2789  0.1324 -0.2812
 3235W        W 7286   3.974   9.397  12.391  0.0608  0.0841  0.0812
 3236W        W 7287   4.981   3.800   3.710  0.0620  0.0914  0.0958
 3237W        W 7288   9.953   1.508  12.659  0.2992  0.0001  0.0136
 3238W        W 7289   6.666   6.275   1.285  0.4148  0.1063 -0.4479
 3239W        W 7290   7.003   7.307  13.847 -0.2955 -0.0788 -0.1527
 3240W        W 7291   0.954   1.390   4.693  0.2084  0.0271 -0.2423
 3241W        W 7292   4.566   2.223   1.037  0.0315 -0.1426  0.1926
 3242W        W 7293   3.119   1.200  12.068  0.0627 -0.2265  0.3482
 3243W        W 7294   3.013   3.463  10.248 -0.2703 -0.0264  0.2250
 3244W        W 7295   6.495   1.425   0.832 -0.2140 -0.0732 -0.0647
 3245W        W 7296   1.957   6.312  13.451 -0.1068  0.0896  0.2835
 3246W        W 7297   7.774   4.960  12.051  0.1120 -0.0394 -0.0559
 3247W        W 7298   8.623   4.020  11.713  0.0895 -0.2309 -0.1571
 3248W        W 7299   5.502   2.806  12.629 -0.0166 -0.1014 -0.1062
 3249W        W 7300   8.176   4.853   4.922  0.1590 -0.1535 -0.1320
 3250W        W 7301   2.050   2.721   2.999 -0.3747 -0.0849  0.1126
 3251W        W 7302   0.103   5.065  12.610  0.1390  0.0098 -0.1798
 3252W        W 7303   3.783   9.271  13.914  0.0600  0.1216 -0.2550
 3253W        W 7304   2.318   6.237  10.814 -0.0560 -0.0065  0.0166
 3254W        W 7305   2.005   5.379  10.401  0.4254 -0.1748  0.0803
 3255W        W 7306   8.265   3.260  10.368 -0.1598  0.2833  0.1916
 3256W        W 7307  10.096   0.627   1.220  0.1981  0.1489  0.0010
 3257W        W 7308   8.396   8.554   5.068  0.0930 -0.1160  0.1844
 3258W        W 7309   5.075   8.444   3.112  0.1779  0.1758  0.2708
 3259W        W 7310   4.712   3.538  11.854  0.4045 -0.1959 -0.1650
 3260W        W 7311   7.076   4.557  10.566 -0.0374  0.0086  0.0591
 3261W        W 7312   9.582   4.452   3.084 -0.0365 -0.2157 -0.1254
 3262W        W 7313   5.652   3.389  13.004 -0.0409 -0.1400 -0.3265
 3263W        W 7314   7.801   6.012   4.244 -0.1438 -0.1477 -0.0997
 3264W        W 7315  10.125   6.094   4.513 -0.2758 -0.0029  0.1600
 3265W        W 7316   4.354   3.662   3.051 -0.2253 -0.0408 -0.0529
 3266W        W 7317   6.177   2.129  13.218  0.1670  0.0247 -0.4941
 3267W        W 7318   8.574   4.050   1.240 -0.0148 -0.0132 -0.2583
 3268W        W 7319   8.223   6.930  13.211 -0.1769  0.0672  0.0968
 3269W        W 7320   2.053   1.178  10.285 -0.4980  0.1597 -0.0409
 3270W        W 7321   1.610   9.336  10.347  0.0970  0.0134  0.3070
 3271W        W 7322   6.892   7.658  11.774  0.0742  0.1526 -0.5702
 3272W        W 7323   5.063   6.177   3.354 -0.2920 -0.3446  0.4985
 3273W        W 7324   1.167   8.162   0.488  0.1539  0.0998 -0.1107
 3274W        W 7325   0.816   9.230   4.127 -0.0775  0.1444 -0.7110
 3275W        W 7326   4.740   4.102  12.902 -0.0669 -0.1992 -0.1642
 3276W        W 7327   7.964   6.549   2.569  0.0576 -0.3118  0.2905
 3277W        W 7328   1.592   6.791   1.614 -0.1575 -0.0229 -0.1572
 3278W        W 7329   4.370   0.168   1.388  0.4530 -0.0846 -0.1796
 3279W        W 7330   5.733   9.596  11.507  0.2090  0.0147  0.1945
 3280W        W 7331   9.380   1.375   9.861  0.0042 -0.0249  0.1057
 3281W        W 7332   9.618   5.280   3.524  0.4145 -0.0339  0.0649
 3282W        W 7333   1.569   4.023  13.126  0.4465  0.1888  0.1215
 3283W        W 7334   7.678   3.591   9.668  0.2212 -0.1892  0.1584
 3284W        W 7335   5.245   7.349   3.069 -0.0556  0.3010  0.4043
 3285W        W 7336   0.954   4.922   0.999 -0.1408  0.1413  0.2573
 3286W        W 7337   1.967   9.792   0.282  0.0365  0.1334 -0.0327
 3287W        W 7338   3.161   0.068   2.919 -0.0186  0.0404  0.0842
 3288W        W 7339   4.662   2.982   3.107  0.1008 -0.1169  0.0521
 3289W        W 7340   4.982   6.958  13.856  0.1173 -0.2012 -0.3507
 3290W        W 7341   7.387   1.483  11.749  0.0480 -0.0336 -0.0563
 3291W        W 7342   8.483   5.555  10.742  0.0624  0.2110  0.0355
 3292W        W 7343   1.560   1.127   2.471  0.1681 -0.3264 -0.2481
 3293W        W 7344   9.031  10.028   0.245  0.3710  0.3200 -0.2254
 3294W        W 7345   6.908   4.838   3.304  0.1096  0.4655 -0.1466
 3295W        W 7346   5.241   4.535  12.168  0.0119 -0.1363 -0.2192
 3296W        W 7347   3.120   8.263  12.741 -0.1577  0.2082 -0.2356
 3297W        W 7348   2.952   2.067   4.251  0.0014  0.2354 -0.4503
 3298W        W 7349   6.018  10.001   9.857  0.1620 -0.0212 -0.0336
 3299W        W 7350   7.114   7.363   3.064 -0.0494  0.2363 -0.1940
 3300W        W 7351   6.942   5.863   9.850 -0.0582 -0.0089 -0.3711
 3301W        W 7352   9.147   7.875  11.246 -0.0440  0.0402 -0.0752
 3302W        W 7353   6.251   0.502   1.136  0.0831 -0.0031 -0.0799
 3303W        W 7354   2.305   2.025   9.061  0.0968 -0.1043 -0.1841
 3304W        W 7355   0.162   6.250   0.546  0.1779 -0.1692 -0.0696
 3305W        W 7356   2.194   0.100  11.220 -0.1369 -0.0199  0.0121
 3306W        W 7357  10.027   1.799   0.818 -0.1415 -0.0382  0.0962
 3307W        W 7358   4.315   7.252  11.722 -0.0330 -0.0001  0.0351
 3308W        W 7359   1.768   6.139  12.652 -0.2179 -0.0682 -0.0528
 3309W        W 7360   9.246   7.394   9.705  0.1827 -0.2180  0.0163
 3310W        W 7361   3.559   2.922   9.544  0.1628 -0.2249 -0.1916
 3311W        W 7362   0.664   0.626   0.812  0.0370 -0.0888 -0.1681
 3312W        W 7363   2.476   4.371   0.861  0.1619 -0.3307  0.3249
 3313W        W 7364   3.533   8.400   8.955  0.1954  0.1500 -0.0046
 3314W        W 7365   6.870   2.530   0.001  0.1193  0.4830  0.2899
 3315W        W 7366   0.455   0.462   3.861  0.0821  0.3614 -0.0523
 3316W        W 7367   6.127   2.633  13.269 -0.1986 -0.0517  0.1438
 3317W        W 7368   5.046   5.478   2.828  0.1299 -0.1346  0.1531
 3318W        W 7369   3.094   0.168   0.484  0.1009 -0.0995 -0.1024
 3319W        W 7370   0.479   2.008  10.341  0.0357 -0.3178  0.0669
 3320W        W 7371   6.682   4.208  10.707  0.1339  0.0202  0.3157
 3321W        W 7372   5.225   4.273   0.000 -0.1077 -0.1561  0.0448
 3322W        W 7373   6.406   5.212   2.593  0.1613  0.0582 -0.0544
 3323W        W 7374   1.218   6.883  11.518  0.3005 -0.2628  0.2420
 3324W        W 7375   1.930   0.133   3.358  0.2167  0.2277  0.0935
 3325W        W 7376   4.830   8.943  10.531 -0.1710 -0.2655  0.3672
 3326W        W 7377   7.228   9.281  12.972 -0.2224  0.1383 -0.2189
 3327W        W 7378   6.367   5.163   0.427 -0.2175  0.1963 -0.0991
 3328W        W 7379   6.614   7.695  10.125 -0.1076 -0.0907 -0.2713
 3329W        W 7380   9.396   0.795   4.042  0.1763  0.2586 -0.1174
 3330W        W 7381   0.006   5.395  13.082 -0.3134  0.1451 -0.0100
 3331W        W 7382   5.929   4.299  11.508  0.3824  0.0348 -0.0615
 3332W        W 7383   0.100   6.773   2.694  0.1529  0.3202 -0.2171
 3333W        W 7384   3.770   0.531  12.827  0.0195  0.3083 -0.0343
 3334W        W 7385   8.519   2.292   3.795  0.0908 -0.0490 -0.1080
 3335W        W 7386   5.539   1.705   9.878 -0.1070 -0.2017  0.4617
 3336W        W 7387   1.617   0.240   1.662  0.1080  0.2541  0.0658
 3337W        W 7388   2.550   2.089  10.401 -0.0264  0.2049 -0.3139
 3338W        W 7389   5.435   0.372  10.242  0.1608  0.0329 -0.3454
 3339W        W 7390   1.861   1.986  11.665  0.0354  0.0271 -0.1510
 3340W        W 7391   4.908   3.035   2.651 -0.1393  0.1500  0.1523
 3341W        W 7392   5.617   9.945   4.100  0.2634 -0.3002  0.0192
 3342W        W 7393   3.325   8.947   3.158 -0.1080  0.0623  0.4201
 3343W        W 7394   9.359   1.137   1.731  0.2970  0.1324 -0.0179
 3344W        W 7395   1.619   2.382   9.444  0.1398  0.0275 -0.1027
 3345W        W 7396   9.960   3.639   0.515 -0.1108  0.2969 -0.0754
 3346W        W 7397   1.315   7.649  11.853  0.0214 -0.0021  0.1090
 3347W        W 7398   8.985   9.348   4.573  0.2217  0.2163  0.2316
 3348W        W 7399   8.044   7.458   3.805  0.2005 -0.0282 -0.0814
 3349W        W 7400   4.657   4.367  11.441 -0.0778  0.1860  0.1532
 3350W        W 7401   7.067   5.437  11.446 -0.2241 -0.2090  0.0343
 3351W        W 7402   1.983   8.839   3.571 -0.1660 -0.0831  0.2130
 3352W        W 7403   2.890   3.808   4.960  0.4740  0.0321 -0.4057
 3353W        W 7404   9.568   7.705  11.890  0.4109  0.0173 -0.2631
 3354W        W 7405   0.925   5.234  13.086 -0.1190  0.0704 -0.0438
 3355W        W 7406   0.974   1.802   9.017 -0.4627  0.0283 -0.2741
 3356W        W 7407   8.549   9.021  10.398 -0.0495  0.1060 -0.1922
 3357W        W 7408   9.295   1.494   0.927  0.0474  0.0394 -0.0723
 3358W        W 7409   7.728   9.076   3.189 -0.2866  0.0421 -0.2035
 3359W        W 7410   7.317   4.457  11.800  0.0363 -0.2337  0.0305
 3360W        W 7411   4.845   9.546   0.943 -0.1499  0.0318 -0.2721
 3361W        W 7412   2.475   1.723   3.306 -0.1623 -0.2863  0.2971
 3362W        W 7413   7.985   5.037  10.273 -0.0451  0.1166 -0.1478
 3363W        W 7414   4.075   1.906  11.811 -0.0006 -0.2119  0.0165
 3364W        W 7415   3.410  10.031  10.545 -0.2025  0.3640  0.0871
 3365W        W 7416   7.235   4.696   0.228 -0.0469  0.0894 -0.3452
 3366W        W 7417   2.413   0.465   3.389  0.0617  0.0707 -0.1531
 3367W        W 7418   1.579   1.841   1.322  0.3120  0.2540  0.0997
 3368W        W 7419   9.137   9.131   1.943  0.0561 -0.0069  0.2443
 3369W        W 7420   1.878   3.960   1.234 -0.0064  0.2395  0.2358
 3370W        W 7421   0.989   2.441  11.623  0.1826  0.2413  0.3394
 3371W        W 7422   8.975   8.392   3.682 -0.3632  0.2118  0.1128
 3372W        W 7423   7.912   3.601  10.146 -0.2144  0.2889  0.0826
 3373W        W 7424  10.047   8.786   0.745 -0.1123 -0.1653 -0.0910
 3374W        W 7425   5.909   6.268  11.358  0.2214  0.1463 -0.2925
 3375W        W 7426   6.986   3.937  13.251  0.0574 -0.2714 -0.1553
 3376W        W 7427   5.061   2.549  10.177  0.1214 -0.0069  0.0396
 3377W        W 7428   9.546   0.721   4.971 -0.0881 -0.0950 -0.0131
 3378W        W 7429   1.407   8.611  13.845 -0.1065 -0.2553  0.0398
 3379W        W 7430   5.184   4.176   1.331  0.3524 -0.0171 -0.2108
 3380W        W 7431   5.023   8.472  12.778 -0.4471 -0.2709 -0.0910
 3381W        W 7432   1.543   3.795  11.355 -0.0420  0.1491 -0.1210
 3382W        W 7433   8.521   4.687  13.487 -0.0822  0.1198  0.1585
 3383W        W 7434   0.936   5.837  11.199 -0.0534  0.2061 -0.0141
 3384W        W 7435   6.641   4.423  13.545 -0.2770 -0.0194 -0.2421
 3385W        W 7436   1.769   9.118   0.689  0.0639 -0.3630 -0.1378
 3386W        W 7437   5.912   3.609  11.291  0.0722 -0.1876  0.1295
 3387W        W 7438   3.095   5.730   3.966 -0.0746  0.1525 -0.1316
 3388W        W 7439   8.168   7.286  10.405  0.0705 -0.2940  0.1792
 3389W        W 7440   4.751   4.521   3.384 -0.0958 -0.1298 -0.2063
 3390W        W 7441   3.801   8.486  10.034  0.0027  0.3017  0.0135
 3391W        W 7442   9.807   4.205  13.657  0.1698 -0.3579 -0.0791
 3392W        W 7443   2.631   4.448  11.607  0.0045  0.2788  0.2672
 3393W        W 7444   7.638   3.238   5.277  0.1765 -0.0011  0.2096
 3394W        W 7445   8.523   3.088   9.606  0.0243 -0.0335  0.0868
 3395W        W 7446   9.406   9.124   1.477 -0.0714  0.1053 -0.0041
 3396W        W 7447   4.337   2.732   2.746  0.1745  0.0838 -0.2778
 3397W        W 7448   9.678   8.410  12.006 -0.2805 -0.0313  0.1655
 3398W        W 7449   3.059   9.180   4.010  0.0075 -0.0680  0.0308
 3399W        W 7450   6.653   0.485   3.553  0.2299  0.1543  0.1847
 3400W        W 7451  10.025   7.886   0.267  0.1676  0.0070 -0.2008
 3401W        W 7452   6.418   6.751  10.504 -0.3832  0.1437  0.1614
 3402W        W 7453   8.792   4.682   0.183 -0.1585  0.1317 -0.0411
 3403W        W 7454   4.385   5.817   1.917  0.0636 -0.1825 -0.2378
 3404W        W 7455   9.721   6.340   1.154 -0.2668 -0.1656 -0.2144
 3405W        W 7456   7.194   8.407  12.546 -0.3901 -0.0345 -0.1657
 3406W        W 7457   1.608   0.328   3.019 -0.0004 -0.0423 -0.0305
 3407W        W 7458   6.714   0.292  11.387  0.2461  0.1651 -0.0162
 3408W        W 7459   9.991   7.557  12.774 -0.0834  0.1167 -0.1817
 3409W        W 7460   4.089   5.533   3.965 -0.4080 -0.1376 -0.0203
 3410W        W 7461   6.992   6.554   3.479  0.2887  0.0145  0.0438
 3411W        W 7462   2.090   5.292  11.106  0.0379 -0.0481 -0.1778
 3412W        W 7463   5.998   8.634  10.736  0.1270  0.2390  0.1958
 3413W        W 7464   3.770   1.439   0.782 -0.3773  0.0805  0.4184
 3414W        W 7465   2.862   2.801   3.271 -0.2598 -0.2856  0.3223
 3415W        W 7466   0.884   1.931  11.566  0.0079  0.0585  0.1379
 3416W        W 7467   9.088   2.624  10.807  0.1224 -0.2192  0.0255
 3417W        W 7468   9.348   0.260   1.190 -0.1579  0.0064 -0.0294
 3418W        W 7469   2.239   0.550   0.542 -0.1532 -0.0675 -0.1463
 3419W        W 7470   4.799   0.055   0.103  0.2328  0.2060 -0.1308
 3420W        W 7471   8.959   2.878   1.588 -0.4766 -0.1820  0.1680
 3421W        W 7472   8.980   0.520  10.787  0.2727 -0.4240  0.0087
 3422W        W 7473   5.482   8.667  12.817 -0.3237  0.0102  0.2709
 3423W        W 7474   5.326   8.313   4.443  0.1596 -0.1153 -0.2822
 3424W        W 7475   4.828   1.975  11.276 -0.1107 -0.1746  0.3490
 3425W        W 7476   8.812   7.109  13.536 -0.1459 -0.2783 -0.1460
 3426W        W 7477   7.327   3.329   9.326 -0.0769  0.1671 -0.0063
 3427W        W 7478   2.766   3.897   9.843  0.2221 -0.1263  0.0782
 3428W        W 7479   6.967   4.868  10.189 -0.1508  0.0587 -0.0107
 3429W        W 7480   8.985   1.140  10.042 -0.0673  0.1696  0.0204
 3430W        W 7481   6.535   5.770   0.513  0.0875  0.2152 -0.2243
 3431W        W 7482   5.475   3.638  12.598 -0.0601  0.1077 -0.0908
 3432W        W 7483   1.752   6.106   9.597  0.0626  0.1173  0.0249
 3433W        W 7484   1.316   3.546   5.309  0.1277 -0.2744 -0.5633
 3434W        W 7485   0.853   4.326  10.792  0.0387  0.0768 -0.1753
 3435W        W 7486   4.343   6.824   3.649 -0.0073  0.1948  0.0285
 3436W        W 7487   0.512   7.922   3.934 -0.1508 -0.2303  0.2237
 3437W        W 7488   7.841   8.960   0.810 -0.0741  0.0581 -0.1218
 3438W        W 7489   6.361   3.981  13.353  0.1831  0.0661 -0.0993
 3439W        W 7490   2.760   7.382  13.229 -0.2605  0.0031 -0.1933
 3440W        W 7491   9.562   6.619  13.899  0.1083 -0.1787  0.1309
 3441W        W 7492   3.611   9.676  10.205 -0.2296 -0.2035  0.0649
 3442W        W 7493   2.036   8.243   3.207  0.0277  0.1212 -0.2401
 3443W        W 7494   8.630   5.073  13.860 -0.0901  0.0461 -0.1060
 3444W        W 7495   9.848   2.643  10.064 -0.0121  0.0581  0.0788
 3445W        W 7496   5.335   8.687   4.117  0.0636  0.2250  0.0027
 3446W        W 7497   6.651   3.479  13.318  0.1546  0.2923  0.1906
 3447W        W 7498   7.720   1.447   4.515 -0.1472  0.1559 -0.1054
 3448W        W 7499   2.274   5.940   1.991  0.1114  0.0536  0.0356
 3449W        W 7500   7.913   0.981   4.396  0.1308 -0.2375 -0.1516
 3450W        W 7501   0.045   0.640  12.095 -0.1979 -0.1781  0.1335
 3451W        W 7502   7.598   8.176   0.933  0.1547  0.3756 -0.2041
 3452W        W 7503   2.321   0.496  11.534 -0.0643 -0.2974 -0.2155
 3453W        W 7504   6.393   5.843   3.208 -0.0748 -0.2751  0.0656
 3454W        W 7505   2.070   1.545   3.662 -0.1006 -0.0357  0.0372
 3455W        W 7506   2.679   6.993   0.240  0.3601 -0.0102 -0.0768
 3456W        W 7507   7.241   9.413   9.504 -0.1684 -0.0164  0.1623
 3457W        W 7508   2.139   2.750   3.488  0.1608 -0.0093 -0.0688
 3458W        W 7509   3.024   0.604  10.965 -0.5171  0.2968 -0.1705
 3459W        W 7510   0.470   2.819  11.967  0.0048  0.0285  0.2177
 3460W        W 7511   9.677   6.246   9.133  0.0478  0.1203 -0.0619
 3461W        W 7512   0.497   0.749   1.276  0.1443  0.0687  0.3018
 3462W        W 7513   2.347   6.572  13.288 -0.0689  0.1197  0.0189
 3463W        W 7514   1.509   6.814  10.865 -0.0578  0.3279 -0.1268
 3464W        W 7515   1.216   8.905   9.832 -0.0555  0.1585 -0.0914
 3465W        W 7516   0.750   1.789   3.854 -0.2515 -0.1106 -0.0387
 3466W        W 7517   7.919   3.534  10.674  0.2185 -0.0856 -0.0007
 3467W        W 7518   4.177   5.731  13.152 -0.2005  0.1476  0.1100
 3468W        W 7519   6.083   6.134   0.505  0.2247  0.0373  0.0205
 3469W        W 7520   9.645   3.556   1.710  0.2154 -0.1591  0.1161
 3470W        W 7521   5.482   3.904   0.809 -0.1582 -0.0802 -0.3470
 3471W        W 7522   0.980   0.821  12.296  0.2876 -0.3280  0.1429
 3472W        W 7523   8.068   8.971  12.335 -0.3819 -0.0228 -0.0876
 3473W        W 7524   6.125   2.232   4.001 -0.0250 -0.1545  0.0922
 3474W        W 7525   1.122   6.480   3.491 -0.1421 -0.3833 -0.1040
 3475W        W 7526   5.353   3.623   8.984 -0.0600  0.0250  0.0296
 3476W        W 7527   9.253   3.000   9.979 -0.0897 -0.0702 -0.2087
 3477W        W 7528   6.795   1.502   3.955 -0.2098 -0.0980  0.0174
 3478W        W 7529   9.661   5.557   2.265 -0.0943  0.2530 -0.2122
 3479W        W 7530   8.754   7.432   3.164  0.2393 -0.3400 -0.1051
 3480W        W 7531   2.570   6.585  10.523 -0.0159  0.1267  0.0088
 3481W        W 7532   7.093   9.554  10.034  0.1612 -0.1867 -0.0790
 3482W        W 7533   4.232   7.410  12.763  0.1511  0.1784  0.0931
 3483W        W 7534   9.369   8.563  10.402  0.1118 -0.0514  0.1235
 3484W        W 7535   1.164   9.809   0.970 -0.2870 -0.0862  0.1220
 3485W        W 7536   7.713   6.894  13.271 -0.1903 -0.0390 -0.0027
 3486W        W 7537   1.930   9.530   2.901 -0.1384 -0.1961  0.1976
 3487W        W 7538   4.740   9.021   4.946  0.0685  0.1797  0.2091
 3488W        W 7539   6.620   9.422   4.816 -0.2150 -0.0379  0.1206
 3489W        W 7540   9.319   2.287  12.287  0.1455 -0.0312 -0.1033
 3490W        W 7541   5.192   2.458   1.583 -0.1030 -0.3939 -0.0207
 3491W        W 7542   4.207   2.466   9.371 -0.1007 -0.0239  0.0238
 3492W        W 7543   4.438   9.141   1.292 -0.1129 -0.0422 -0.0869
 3493W        W 7544   8.315   9.812   1.787 -0.1645  0.0317 -0.2497
 3494W        W 7545   6.919   2.302   1.588  0.0372 -0.0683 -0.1954
 3495W        W 7546   5.140   1.853   3.741  0.1094  0.3980 -0.1545
 3496W        W 7547   0.414   8.801  13.443 -0.1711 -0.2780 -0.1005
 3497W        W 7548   9.428   2.898   1.950 -0.2148  0.3370  0.2422
 3498W        W 7549   5.624   3.212  13.568 -0.2146 -0.1061  0.1828
 3499W        W 7550   7.316   2.286   0.047 -0.1237 -0.0341 -0.0241
 3500W        W 7551   0.295   6.484   4.009 -0.3077  0.0323 -0.1692
 3501W        W 7552   6.911   2.143   2.949  0.2528 -0.3420 -0.3056
 3502W        W 7553   2.388   1.865  13.142  0.1683  0.1435  0.0246
 3503W        W 7554   6.685   3.046  11.406 -0.1100 -0.1569 -0.1946
 3504W        W 7555   5.109   4.654   1.062  0.5062 -0.0384 -0.1667
 3505W        W 7556   0.160   5.679   2.804 -0.1661 -0.5311  0.1646
 3506W        W 7557  10.029   7.394   9.243  0.1865  0.1586 -0.3585
 3507W        W 7558   0.484   7.816   9.819 -0.0072 -0.0738 -0.0288
 3508W        W 7559   4.593   7.777  11.771 -0.2323 -0.0499 -0.0204
 3509W        W 7560   5.495   3.286   9.334  0.2202 -0.0687  0.4189
 3510W        W 7561   1.543   6.934  13.147  0.0109  0.0501 -0.1114
 3511W        W 7562   4.855   8.101   2.293 -0.4989 -0.0421  0.1141
 3512W        W 7563   5.788   1.483   1.054 -0.0032  0.1256  0.0605
 3513W        W 7564   3.501   1.624  10.968  0.0852 -0.0414 -0.2006
 3514W        W 7565   8.146   2.099   1.256 -0.1441 -0.1782  0.2052
 3515W        W 7566   2.165   7.112   2.651 -0.0305  0.0573 -0.0444
 3516W        W 7567   9.203   0.833  10.403  0.2409 -0.1617 -0.0413
 3517W        W 7568   9.029   7.518   0.771 -0.1708  0.0204 -0.0739
 3518W        W 7569   4.691   8.751   0.521  0.1008 -0.1080 -0.1834
 3519W        W 7570   6.445   7.158  12.784  0.4358  0.1717  0.2504
 3520W        W 7571   4.726   1.117   2.607 -0.2924 -0.1645  0.0183
 3521W        W 7572   5.161  10.129  11.086  0.1356 -0.1956  0.0683
 3522W        W 7573   0.837   3.756  13.808 -0.0040 -0.0738 -0.1912
 3523W        W 7574   7.675   8.690  12.524 -0.0794 -0.2829  0.1621
 3524W        W 7575   8.274   1.441   8.646 -0.1459 -0.2318  0.2256
 3525W        W 7576   7.846   3.225   5.747 -0.2462  0.0400 -0.0672
 3526W        W 7577   3.846   7.220   3.352 -0.2898  0.1146 -0.0967
 3527W        W 7578   0.080   0.414   3.408  0.1486 -0.0304  0.1626
 3528W        W 7579   8.037   7.081   2.678 -0.2308  0.0775  0.0853
 3529W        W 7580   5.985   1.462   5.186  0.0119 -0.1533 -0.1135
 3530W        W 7581   4.107   0.896  10.927 -0.2042  0.4950  0.0002
 3531W        W 7582   6.995   5.395   1.723 -0.1802  0.0749 -0.0293
 3532W        W 7583   1.817   0.636  10.311  0.0763  0.0572  0.0597
 3533W        W 7584   1.604   7.489   0.041  0.1438 -0.1489  0.1704
 3534W        W 7585   0.707   8.109  10.127 -0.0328 -0.1228 -0.1848
 3535W        W 7586   0.646   3.968   5.615 -0.0597  0.3414 -0.0967
 3536W        W 7587   3.311   1.312   5.538  0.0549 -0.0510  0.1278
 3537W        W 7588   4.636   3.161   0.563 -0.1439 -0.1892  0.1078
 3538W        W 7589   6.879   2.211  11.783  0.0289  0.0678  0.1544
 3539W        W 7590   9.917   3.648  10.806  0.0483 -0.1625 -0.0984
 3540W        W 7591   1.653   1.361  13.427  0.3473  0.3346 -0.1809
 3541W        W 7592   2.655   8.684   0.071  0.0856  0.2634 -0.0145
 3542W        W 7593   3.743   6.169  12.186 -0.3737  0.1451 -0.1500
 3543W        W 7594   2.045   8.788  11.115 -0.2164 -0.1313 -0.0736
 3544W        W 7595   1.607   6.506   2.678  0.0881  0.0038 -0.0762
 3545W        W 7596   4.107   9.108   4.204 -0.0667  0.0368 -0.0604
 3546W        W 7597   2.870   1.130   3.964 -0.2481  0.0997 -0.0629
 3547W        W 7598   7.940   2.158   2.587  0.2399  0.0219  0.0613
 3548W        W 7599   9.674   1.343   3.588  0.0073 -0.1053  0.5554
 3549W        W 7600  10.069   4.759   3.139 -0.1799  0.0820 -0.0529
 3550W        W 7601   0.434   9.418   0.436 -0.1135  0.0059  0.0458
 3551W        W 7602   0.152   5.600   2.086  0.0907  0.0540  0.3226
 3552W        W 7603   6.362   1.038   5.105 -0.0166  0.3540  0.0651
 3553W        W 7604   6.158   7.066   4.042 -0.1487  0.0503 -0.0745
 3554W        W 7605   0.577   8.911   1.948 -0.1590 -0.4357  0.2807
 3555W        W 7606   9.506   3.475   9.841  0.3892 -0.2321  0.2500
 3556W        W 7607   8.516   3.848   4.395 -0.2255 -0.0645 -0.1238
 3557W        W 7608   3.778   4.825   0.942  0.1035 -0.0467 -0.1114
 3558W        W 7609   9.831   2.436  13.032  0.0346 -0.1497  0.2765
 3559W        W 7610   7.323   3.101  10.530  0.0724  0.1848  0.0128
 3560W        W 7611   3.280   2.373  12.107  0.3159  0.3785  0.0568
 3561W        W 7612   3.371   9.389   0.801  0.3659  0.1824 -0.0702
 3562W        W 7613   6.372   6.417  12.620 -0.2586  0.1710  0.1472
 3563W        W 7614   2.193   3.649  11.876 -0.1488  0.1915 -0.1738
 3564W        W 7615   0.259   6.446  10.879  0.0315 -0.1270  0.3207
 3565W        W 7616   7.349   4.970  13.067 -0.0318  0.0942  0.0938
 3566W        W 7617   1.169   9.452  11.160 -0.1978 -0.2172 -0.0199
 3567W        W 7618   6.388   1.452   2.429  0.2522 -0.1961  0.1022
 3568W        W 7619   3.332   5.651  11.616  0.1322  0.1634  0.0431
 3569W        W 7620   8.709   8.111  13.522  0.0112 -0.1008  0.0701
 3570W        W 7621   4.623   9.136   3.079  0.1683 -0.2680  0.0520
 3571W        W 7622   7.249   0.872   1.893 -0.0501 -0.2691  0.2944
 3572W        W 7623   6.198   1.987   3.409  0.1875  0.0925  0.3044
 3573W        W 7624   8.318   2.574   4.159  0.2123  0.1234  0.0162
 3574W        W 7625   4.511   6.048  12.892 -0.0317 -0.1403  0.2225
 3575W        W 7626   7.415   2.830  10.982  0.2249  0.2348 -0.1055
 3576W        W 7627   2.307   1.247   9.851  0.0756  0.1828 -0.2095
 3577W        W 7628   6.745   9.320  13.745  0.0767  0.0330  0.0654
 3578W        W 7629   8.625   9.528  11.221  0.1412 -0.3288 -0.2032
 3579W        W 7630   2.733   3.242  13.483 -0.1135 -0.0656  0.2793
 3580W        W 7631   8.353   2.373   0.931  0.1453  0.0431 -0.0700
 3581W        W 7632   8.239   6.415   2.964 -0.2713 -0.1210 -0.3843
 3582W        W 7633   6.491   9.173   0.769  0.2411  0.3747  0.0449
 3583W        W 7634   6.152   1.455   2.899 -0.1005  0.3194 -0.1747
 3584W        W 7635   9.271   3.975   2.997  0.1223  0.1421 -0.0898
 3585W        W 7636   1.825   0.802  12.699  0.0471  0.0824  0.2117
 3586W        W 7637   0.024   0.120  13.185  0.2394  0.2984 -0.1517
 3587W        W 7638   1.340   8.732   4.802 -0.2249  0.0952 -0.0266
 3588W        W 7639   3.422   1.383   2.096  0.0534  0.0959 -0.0342
 3589W        W 7640   0.389   2.003   3.026 -0.1828 -0.2028 -0.3784
 3590W        W 7641   6.871   8.495   3.065 -0.0662  0.0874  0.3814
 3591W        W 7642   4.213   4.416   4.143  0.1011  0.2641 -0.1417
 3592W        W 7643   1.144   5.216   0.591 -0.1669  0.0058 -0.1212
 3593W        W 7644   4.134   9.957  12.579 -0.1546 -0.1771  0.1577
 3594W        W 7645   7.043   5.587   2.635 -0.1330  0.1495 -0.1233
 3595W        W 7646  10.019   0.539   0.693  0.2475 -0.1473  0.0774
 3596W        W 7647   9.442   5.362   1.849  0.1512 -0.1654  0.2377
 3597W        W 7648   4.479   8.790  11.271 -0.2877  0.0876 -0.0079
 3598W        W 7649   5.271   1.887   2.887  0.0857 -0.0030 -0.2113
 3599W        W 7650   8.596   8.636  13.624 -0.0053 -0.0340  0.3010
 3600W        W 7651   7.960  10.194   2.364 -0.0843 -0.0443  0.0966
 3601W        W 7652   3.827   0.254   2.417 -0.2144 -0.1520  0.2347
 3602W        W 7653   7.641   4.920   1.412 -0.0980 -0.0200 -0.2247
 3603W        W 7654   3.565   2.179  10.716  0.1103  0.1459 -0.0286
 3604W        W 7655   0.628   3.895   1.847 -0.0145 -0.3517  0.2973
 3605W        W 7656   7.238   6.068  11.664 -0.2174  0.0368 -0.1109
 3606W        W 7657   1.078   0.619   9.469 -0.1502  0.2898  0.0491
 3607W        W 7658   2.579   7.744   0.536 -0.2864  0.0074 -0.0490
 3608W        W 7659   1.432   0.225   9.546  0.1183 -0.0415  0.0337
 3609W        W 7660   3.670   8.860   3.637 -0.0105 -0.0039 -0.3537
 3610W        W 7661   1.443   0.524   1.303  0.0399  0.2945  0.2887
 3611W        W 7662   2.234   5.895  13.684 -0.0097  0.1684  0.0318
 3612W        W 7663   7.017   5.677  11.871 -0.1167  0.0826  0.1133
 3613W        W 7664   6.516   9.117  11.331  0.3467  0.0359 -0.1968
 3614W        W 7665   9.458   8.055   3.566 -0.2664  0.0563  0.2748
 3615W        W 7666   0.829   9.146  13.006 -0.0916  0.0292 -0.0659
 3616W        W 7667   3.144   1.774   4.725 -0.3242  0.2280  0.2900
 3617W        W 7668   0.929  10.155   2.385  0.0840  0.0735 -0.1074
 3618W        W 7669   2.278   8.863   2.194  0.3646 -0.1077  0.0009
 3619W        W 7670   8.472   3.032   0.183  0.0216  0.1659  0.1259
 3620W        W 7671   6.710   5.903   2.729  0.4195  0.1615  0.1287
 3621W        W 7672   7.132   7.934   9.995  0.1310  0.1408 -0.2219
 3622W        W 7673   0.569   0.320   2.352 -0.2646 -0.3776 -0.1111
 3623W        W 7674   7.774   0.706   5.328  0.1608  0.0732  0.2624
 3624W        W 7675   0.627   5.149   0.570 -0.4457  0.0892  0.0761
 3625W        W 7676   9.221   0.020   9.314 -0.3041 -0.1552 -0.0486
 3626W        W 7677   7.961   1.279  13.215  0.3964  0.0842  0.2697
 3627W        W 7678   6.344   5.626  11.177 -0.2983 -0.0786  0.0954
 3628W        W 7679   3.430   2.301   1.733 -0.2367 -0.0139  0.0316
 3629W        W 7680   1.314   8.917  13.034  0.1361 -0.1849 -0.0256
 3630W        W 7681   9.276   1.182   0.341  0.0373  0.2577 -0.2002
 3631W        W 7682   0.051   4.000   0.435  0.1892 -0.0656 -0.0411
 3632W        W 7683   6.423   1.362  12.737  0.0473 -0.0329  0.0021
 3633W        W 7684   7.227   3.041   8.915  0.1255  0.1540  0.1486
 3634W        W 7685   1.226   6.057  12.042  0.0991  0.1419 -0.0308
 3635W        W 7686   6.087   8.000  12.692 -0.1663  0.3962 -0.0696
 3636W        W 7687   7.129   9.320  12.470  0.0597 -0.2286 -0.3371
 3637W        W 7688   0.073   6.029   0.034 -0.0390  0.0743  0.1152
 3638W        W 7689   6.848   2.179   9.855 -0.0564  0.1707  0.2316
 3639W        W 7690   3.166   1.387  12.560  0.0079 -0.2090 -0.0907
 3640W        W 7691   3.130   6.669  12.899 -0.0167  0.3246  0.0096
 3641W        W 7692   2.206   8.442   0.152  0.0094 -0.0756  0.0336
 3642W        W 7693   1.567   8.517   2.202  0.0897  0.1403  0.0956
 3643W        W 7694   2.937   6.893  12.526 -0.5268 -0.0186 -0.1894
 3644W        W 7695   6.173   2.704  11.472  0.1115  0.0337 -0.2217
 3645W        W 7696  10.133   8.934   5.162  0.2840  0.1599 -0.0113
 3646W        W 7697   2.571   6.483  11.763  0.2526  0.0866 -0.0005
 3647W        W 7698   9.975   5.930  12.312  0.2718  0.0401 -0.0409
 3648W        W 7699   3.398   6.069  10.876 -0.2819 -0.1525  0.1014
 3649W        W 7700   5.737   7.962   1.398  0.1919 -0.0602 -0.2186
 3650W        W 7701   4.417   6.508   3.148  0.2895 -0.3713 -0.0788
 3651W        W 7702   1.428   7.336   4.034 -0.2521 -0.0341  0.1765
 3652W        W 7703   0.152   1.568   3.178 -0.2793 -0.2470 -0.3852
 3653W        W 7704   3.785   9.270   4.577 -0.0024 -0.1633  0.2383
 3654W        W 7705   3.048   1.934  13.256 -0.1063 -0.2399 -0.1969
 3655W        W 7706   0.436   2.063   0.390  0.1146  0.1725  0.0150
 3656W        W 7707   7.488   4.179   1.070 -0.2353 -0.2293 -0.0037
 3657W        W 7708   1.683   4.542   3.565 -0.2718 -0.0801  0.0835
 3658W        W 7709   5.695   0.375   4.789  0.1517 -0.2128  0.0096
 3659W        W 7710   8.472  10.031  10.348 -0.3416 -0.0010 -0.0910
 3660W        W 7711   8.773   0.196   1.906 -0.0856 -0.0198  0.4201
 3661W        W 7712   8.695   1.104  11.335 -0.4971  0.3758 -0.0909
 3662W        W 7713   8.765   7.492   1.364 -0.2982  0.0675  0.1930
 3663W        W 7714   7.248   5.488  10.093  0.3508 -0.0265 -0.3448
 3664W        W 7715   6.323   8.955  10.522 -0.0989  0.1306  0.0388
 3665W        W 7716   5.760   2.488   4.695  0.0851  0.0723  0.0857
 3666W        W 7717   3.578   8.479   3.278  0.1109 -0.1485 -0.0965
 3667W        W 7718   0.756   5.812  12.330 -0.4170 -0.0646 -0.0411
 3668W        W 7719   1.839   5.359  13.246  0.0707 -0.0530 -0.1225
 3669W        W 7720   2.523   4.130  13.396 -0.0324  0.0409  0.1292
 3670W        W 7721   9.758   6.146   5.783 -0.1747 -0.1112  0.0391
 3671W        W 7722   0.299   1.608   2.679  0.2372  0.1650 -0.0458
 3672W        W 7723   4.089   1.725   1.807  0.3185  0.0941 -0.0543
 3673W        W 7724   0.187   9.021   1.602  0.0360  0.0141  0.0285
 3674W        W 7725   8.378   6.012   4.935 -0.3216  0.0506  0.0827
 3675W        W 7726   5.033   0.017   0.811  0.0351 -0.0999  0.3004
 3676W        W 7727   6.717   7.303   9.228 -0.0353  0.0173 -0.1442
 3677W        W 7728   6.008   3.685   3.720 -0.2309 -0.1950 -0.3304
 3678W        W 7729   2.346   2.230  13.481 -0.0031  0.4491 -0.0906
 3679W        W 7730   5.168   5.345   0.016 -0.1457  0.1835  0.0661
 3680W        W 7731   3.916   0.627   3.181  0.1381  0.0197  0.0653
 3681W        W 7732   7.180   3.096   3.364 -0.1204 -0.3329 -0.1200
 3682W        W 7733   6.442   7.062  11.858 -0.4100  0.3894  0.1438
 3683W        W 7734   9.748   8.572  11.497 -0.0215  0.1114 -0.3731
 3684W        W 7735   3.747   6.445   4.371 -0.0037 -0.3381  0.0196
 3685W        W 7736   8.610   9.757  12.432 -0.2416  0.0336 -0.0020
 3686W        W 7737   0.282   9.027  12.556 -0.0662 -0.0911  0.1092
 3687W        W 7738   5.807   2.493  12.375 -0.1297  0.0726  0.0590
 3688W        W 7739   4.444   0.510   4.699  0.1678 -0.0986 -0.0613
 3689W        W 7740   7.667   4.118   2.898 -0.2923 -0.1569  0.0160
 3690W        W 7741   6.734   9.511  13.088  0.1380  0.1412 -0.1544
 3691W        W 7742   2.183  10.045   0.774  0.0495  0.1018 -0.0731
 3692W        W 7743   5.031   7.120  12.355 -0.5259  0.3099 -0.0705
 3693W        W 7744   9.959   3.339   4.091 -0.1089 -0.1220 -0.0645
 3694W        W 7745   1.364  10.030   3.539  0.0183  0.0143  0.1943
 3695W        W 7746   9.478   6.215  11.218  0.2323  0.1174  0.2735
 3696W        W 7747   7.315   2.012   3.248  0.1990  0.2104  0.1557
 3697W        W 7748   9.739   2.772   0.646 -0.0965  0.0711  0.0002
 3698W        W 7749   8.827   1.062   1.901  0.3581 -0.0507 -0.3229
 3699W        W 7750   8.759   3.355   2.976  0.1066  0.2167 -0.1166
 3700W        W 7751   5.856   3.163  12.565 -0.2328 -0.1677  0.0997
 3701W        W 7752   7.429   6.688   0.103  0.3839  0.2706  0.1218
 3702W        W 7753   6.110   1.568   9.842  0.2884  0.3098 -0.2126
 3703W        W 7754   9.196   0.040  10.965  0.0105  0.1405  0.1988
 3704W        W 7755   7.780  10.046  12.750  0.0942 -0.0152  0.0459
 3705W        W 7756   6.613   6.812  11.437 -0.1953  0.1868  0.3846
 3706W        W 7757   3.086   7.870   2.491 -0.1069 -0.2954  0.0682
 3707W        W 7758   9.776   1.557  10.514  0.0811 -0.2480 -0.0127
 3708W        W 7759   8.591   5.291   1.026  0.3682  0.0425 -0.0078
 3709W        W 7760   9.024   4.273   1.288  0.0092 -0.0121  0.0885
 3710W        W 7761   2.561   1.996  12.743  0.1891 -0.2058  0.1326
 3711W        W 7762   9.867   9.788   0.144 -0.0961  0.1007 -0.2227
 3712W        W 7763   0.014   6.356  10.040  0.3012 -0.0160  0.1968
 3713W        W 7764   8.257   9.605   4.932  0.0908 -0.3740  0.0974
 3714W        W 7765   9.945   4.036   0.867  0.0702  0.4439  0.3460
 3715W        W 7766   5.755   0.274   9.785 -0.0341  0.1444 -0.0053
 3716W        W 7767   7.675   8.220   1.469  0.1677 -0.1966 -0.1682
 3717W        W 7768  10.068   2.933   4.868 -0.1057  0.1151 -0.1084
 3718W        W 7769   0.647   6.099   3.849 -0.0180 -0.0437 -0.2861
 3719W        W 7770   2.456   0.348   4.456  0.1795 -0.1819 -0.0420
 3720W        W 7771   7.977   9.191  12.832 -0.0295  0.1287  0.3133
 3721W        W 7772   2.508   9.344   1.977  0.3167 -0.0022 -0.0190
 3722W        W 7773   1.970   4.686   2.659 -0.1829  0.2211  0.4004
 3723W        W 7774   7.424   7.015   0.527  0.0388 -0.0197  0.0218
 3724W        W 7775   8.651   8.479   2.365  0.0989  0.0816  0.0837
 3725W        W 7776   4.543   8.267  13.224 -0.2121 -0.0489 -0.3743
 3726W        W 7777   8.393   3.635   3.095  0.0385  0.0595  0.1622
 3727W        W 7778   4.896   0.746   2.310  0.1744  0.3211 -0.1006
 3728W        W 7779   2.630   7.273   2.953 -0.0328  0.1920 -0.1111
 3729W        W 7780   4.024   0.998  12.921 -0.0493  0.2247 -0.0395
 3730W        W 7781   6.512   3.279   9.805 -0.1862 -0.4316 -0.1741
 3731W        W 7782   1.628   5.051  10.840 -0.0364  0.5317  0.2741
 3732W        W 7783   1.692   7.441  13.193 -0.3382 -0.1146 -0.2859
 3733W        W 7784   0.425   7.095   3.047  0.0686  0.1001  0.1511
 3734W        W 7785   6.749   6.748  10.042  0.3591  0.1137  0.1005
 3735W        W 7786   1.734   8.074  10.670 -0.1569  0.0323  0.1102
 3736W        W 7787   2.517   0.388  11.021 -0.0275  0.1584 -0.0095
 3737W        W 7788   0.383   9.011   0.764  0.3610  0.0420  0.1993
 3738W        W 7789   5.625   4.907   0.902  0.4301 -0.1876 -0.2352
 3739W        W 7790   5.592   4.166   2.526 -0.0965  0.1960 -0.0143
 3740W        W 7791   8.080   0.215  11.958 -0.0343  0.1229 -0.0335
 3741W        W 7792   0.630   1.312  11.782  0.2360  0.0472 -0.1173
 3742W        W 7793   6.398   6.649   3.237 -0.0387 -0.2791 -0.0028
 3743W        W 7794   3.521   1.867   0.861  0.1568 -0.0964 -0.1489
 3744W        W 7795   1.892   8.802   8.998  0.1170 -0.1633  0.2876
 3745W        W 7796   2.072   7.123   0.066 -0.1831  0.5650  0.0753
 3746W        W 7797   7.352   8.846   0.880 -0.2153 -0.4835  0.1384
 3747W        W 7798   4.345   2.013   9.604  0.5448 -0.0942  0.4462
 3748W        W 7799   2.281   4.525   0.385  0.1684  0.2246  0.1988
 3749W        W 7800   3.504   8.916   1.020  0.1886  0.2883 -0.3810
 3750W        W 7801   4.361   8.788  10.168 -0.1422  0.4927 -0.1881
 3751W        W 7802   3.159   7.503   0.338 -0.0093 -0.0383  0.0741
 3752W        W 7803   8.746   2.225   2.249  0.1258  0.1862  0.3313
 3753W        W 7804   7.288   8.822  12.209  0.0036  0.2864  0.1586
 3754W        W 7805   2.193   4.372   1.282  0.2380  0.1260 -0.1282
 3755W        W 7806   9.126   1.012  10.963  0.1605  0.0819  0.1878
 3756W        W 7807  10.150   5.396   4.842 -0.0367  0.2137  0.3421
 3757W        W 7808   4.896   6.631  12.354 -0.1144  0.2738 -0.0495
 3758W        W 7809   4.774   3.379   1.519  0.2049  0.2181 -0.1748
 3759W        W 7810   8.477   7.344   1.893  0.3151  0.0245 -0.0590
 3760W        W 7811   7.862   3.166   2.626  0.1054 -0.1661  0.2635
 3761W        W 7812   6.406   6.360  10.067 -0.3336 -0.0599  0.2389
 3762W        W 7813   4.011   7.085  13.160 -0.0289 -0.0047  0.0488
 3763W        W 7814   2.748   3.820   2.161  0.1084 -0.3575  0.3931
 3764W        W 7815   6.702   0.025  12.640 -0.3005 -0.1906  0.0972
 3765W        W 7816   2.151   8.230   2.056  0.1036 -0.0458 -0.1559
 3766W        W 7817   5.969   8.843   0.745  0.0705 -0.2104 -0.2107
 3767W        W 7818   1.718   9.736  13.233 -0.2803 -0.0207  0.3391
 3768W        W 7819   7.973   1.272   1.491  0.0774 -0.0450  0.2310
 3769W        W 7820   1.585   4.384   1.156  0.1122 -0.0168  0.0483
 3770W        W 7821   6.650   7.928   1.759 -0.1794  0.2619 -0.1258
 3771W        W 7822   5.688   3.911   3.262  0.0305  0.0686  0.1683
 3772W        W 7823   2.565   2.111   0.140 -0.0750 -0.2138 -0.0318
 3773W        W 7824   3.591   1.738  12.422 -0.1128 -0.2077  0.1529
 3774W        W 7825   1.525   3.869   3.935 -0.2602  0.0066 -0.1136
 3775W        W 7826   8.405   7.055   0.009  0.0046  0.0333  0.0086
 3776W        W 7827   1.638   4.036   1.659  0.1086 -0.0895 -0.3381
 3777W        W 7828   2.999   7.107   3.290  0.0537  0.1025  0.0455
 3778W        W 7829   6.877   2.626  10.060  0.1643 -0.1068 -0.3007
 3779W        W 7830   5.927   2.919   4.914  0.4461  0.0431  0.1004
 3780W        W 7831   9.326   7.601   1.128 -0.1218  0.1643  0.1019
 3781W        W 7832   9.029   3.836   3.462  0.1492  0.2911 -0.0755
 3782W        W 7833   7.623   8.105  11.358 -0.1879 -0.3807 -0.2063
 3783W        W 7834   4.111   7.673  11.571  0.2497  0.1108 -0.2442
 3784W        W 7835   9.123   2.200  13.421 -0.2539  0.2124  0.0315
 3785W        W 7836   1.768   1.796   4.122 -0.0861  0.0917  0.1812
 3786W        W 7837   4.495   6.894   0.017  0.0850 -0.1927 -0.0622
 3787W        W 7838   0.038   4.227  12.877  0.1461 -0.0435  0.4485
 3788W        W 7839   3.220   2.525  10.828  0.0174 -0.0267 -0.2625
 3789W        W 7840   6.630   4.639  12.660  0.2953 -0.1786 -0.2522
 3790W        W 7841   3.229   0.884   4.236 -0.0793 -0.1082 -0.1413
 3791W        W 7842   5.001   2.239   2.044 -0.0936 -0.2245 -0.0140
 3792W        W 7843   6.591   7.355  12.249 -0.1714  0.3262 -0.2719
 3793W        W 7844   1.037   2.738  12.077  0.3603  0.0885 -0.2309
 3794W        W 7845   9.707   2.004  10.703  0.1855 -0.1016 -0.0496
 3795W        W 7846  10.152   5.493   5.337 -0.1336 -0.0640  0.1113
 3796W        W 7847   4.711   0.325   9.646  0.1300  0.0828 -0.6840
 3797W        W 7848   2.198   7.253   2.111 -0.0777 -0.0156 -0.0588
 3798W        W 7849   2.858   0.535   1.227  0.1547  0.1556  0.2069
 3799W        W 7850   6.993   3.892   0.949 -0.0480  0.0281 -0.1622
 3800W        W 7851   5.093   4.969   2.707 -0.0789  0.0091  0.0484
 3801W        W 7852   2.612   6.706  12.192  0.1672 -0.0817  0.1639
 3802W        W 7853   9.503   2.905  12.827  0.0357 -0.2537  0.1303
 3803W        W 7854   6.299   0.305   9.006 -0.2429  0.3780 -0.1480
 3804W        W 7855   0.996   1.870   0.053  0.2134 -0.2386  0.0649
 3805W        W 7856   1.990   5.621   2.260 -0.1209 -0.2806 -0.3445
 3806W        W 7857   7.875   4.040   9.940 -0.0813 -0.2184 -0.0537
 3807W        W 7858   2.536   3.941  11.685  0.2771 -0.1711 -0.1786
 3808W        W 7859   2.140   5.462  13.766 -0.0246  0.4033  0.1855
 3809W        W 7860   9.927   9.436  13.564  0.2385 -0.2074 -0.3319
 3810W        W 7861   3.768   3.091   1.295  0.2861 -0.1795 -0.2197
 3811W        W 7862   6.506   7.308   2.856  0.0907 -0.1059 -0.1696
 3812W        W 7863   4.464   4.927  11.936  0.3302 -0.1790 -0.1588
 3813W        W 7864  10.024   1.452   3.961  0.0810  0.2046  0.3011
 3814W        W 7865   4.077   1.526  13.722  0.2450  0.2928  0.0676
 3815W        W 7866   0.940   7.971   9.711  0.2224 -0.0065  0.2934
 3816W        W 7867   8.437   7.849   1.424 -0.1244  0.1760 -0.0380
 3817W        W 7868   1.764   4.092  13.607  0.1978  0.0980  0.1303
 3818W        W 7869   7.102   0.420  11.752 -0.2256  0.3422  0.2925
 3819W        W 7870   1.779   8.127   0.024  0.2258  0.2175  0.1666
 3820W        W 7871   2.379   1.815   0.597 -0.1038 -0.0512 -0.2488
 3821W        W 7872   7.023   8.478   3.911  0.0676  0.0427 -0.0224
 3822W        W 7873   2.870   1.804   0.388  0.4253  0.2493  0.1717
 3823W        W 7874   8.413   5.162  12.648  0.1040 -0.1467 -0.0913
 3824W        W 7875   3.910  10.142   4.239  0.0644  0.1685  0.1801
 3825W        W 7876   4.753   4.557   2.804 -0.0075  0.0117  0.0149
 3826W        W 7877   9.867   7.909  13.273 -0.0301 -0.1703 -0.2344
 3827W        W 7878   6.782   9.422   1.962 -0.1362 -0.3420 -0.2730
 3828W        W 7879   6.292   8.084  10.014  0.1072 -0.2915  0.1502
 3829W        W 7880   1.595   7.967   3.556  0.2130 -0.0225  0.0715
 3830W        W 7881   5.066   3.645   9.548 -0.0638  0.0747 -0.1786
 3831W        W 7882   6.029   1.659   0.128 -0.0351 -0.0121  0.1334
 3832W        W 7883   6.493   9.581   2.351  0.3122 -0.0064  0.1381
 3833W        W 7884   3.535   3.240   1.698 -0.0051  0.0037  0.0148
 3834W        W 7885   2.624   1.364   0.970 -0.3333  0.0390  0.3122
 3835W        W 7886   0.231   3.318   2.610 -0.1082  0.3338 -0.0505
 3836W        W 7887   7.045   7.529  12.343  0.2543  0.1291  0.0200
 3837W        W 7888   3.719   7.183  10.422  0.0309  0.0117  0.0527
 3838W        W 7889   2.889  10.067  11.825  0.0677  0.1511 -0.4104
 3839W        W 7890   0.388   1.563  10.632  0.1248 -0.0891  0.1357
 3840W        W 7891   8.420   3.469   2.170  0.1336  0.0993  0.0950
 3841W        W 7892   3.307   1.557   9.492  0.1999 -0.0204  0.3449
 3842W        W 7893   8.170   3.755  11.853  0.1310  0.0201  0.0496
 3843W        W 7894   5.482   9.043   2.989  0.1018  0.2378  0.1939
 3844W        W 7895   6.499   8.785   2.730  0.0592  0.2262 -0.3479
 3845W        W 7896   2.710   0.790  10.635 -0.0289  0.0696  0.0769
 3846W        W 7897   7.285   9.976  11.980 -0.2034  0.0127 -0.0184
 3847W        W 7898   5.806   1.476   4.689 -0.0090 -0.0295 -0.2933
 3848W        W 7899   5.084   8.176   4.026  0.0122 -0.0595  0.0427
 3849W        W 7900   4.540   4.945  11.440 -0.0145  0.1635 -0.1282
 3850W        W 7901   4.565   5.697  10.824 -0.1035  0.1331 -0.0325
 3851W        W 7902   3.146   4.461  12.414 -0.0596  0.1835 -0.2552
 3852W        W 7903   7.116   5.171  10.525  0.2337  0.2983 -0.1217
 3853W        W 7904   9.485   1.347  12.840  0.2327 -0.0813 -0.0693
 3854W        W 7905   0.220   2.148   2.160  0.1450  0.0529  0.1914
 3855W        W 7906   9.239   2.564   4.164 -0.3104  0.2005 -0.0912
 3856W        W 7907   5.846   2.001  11.866 -0.1201 -0.0466  0.1951
 3857W        W 7908   2.276   4.491  13.690 -0.1554 -0.0708 -0.3572
 3858W        W 7909   5.665   7.068  11.297  0.0367  0.2077  0.0050
 3859W        W 7910   9.196   0.308   4.154  0.0628  0.0189  0.1247
 3860W        W 7911   5.424   0.084   1.200 -0.1740 -0.1571 -0.0156
 3861W        W 7912   3.045   1.182   2.944  0.1341  0.3053 -0.1342
 3862W        W 7913   9.393   2.480  13.798  0.4016 -0.0644  0.2625
 3863W        W 7914   7.874   7.420   9.987 -0.2479 -0.0109 -0.2214
 3864W        W 7915   0.757   2.182   9.356  0.1195 -0.0635 -0.0290
 3865W        W 7916   4.976   8.503   0.842 -0.3394 -0.2468 -0.0572
 3866W        W 7917   3.825   9.347   9.872 -0.0337  0.2552 -0.1116
 3867W        W 7918   0.928   3.688   3.459 -0.0415  0.0389  0.2393
 3868W        W 7919   7.715   1.068   4.895 -0.5277 -0.1198  0.0124
 3869W        W 7920   2.184   3.004   0.932 -0.2309  0.1684 -0.0504
 3870W        W 7921   1.777   9.604  11.240  0.0054 -0.2135 -0.0988
 3871W        W 7922   0.044   7.791  10.732  0.1259 -0.1987 -0.0250
 3872W        W 7923   8.112   5.262   0.579  0.2227 -0.0921  0.5711
 3873W        W 7924   8.928   4.744  10.929  0.3455 -0.0859  0.1366
 3874W        W 7925   1.146   3.528  11.784  0.0066  0.2314  0.2174
 3875W        W 7926   6.706   2.848   0.409  0.1929  0.0428 -0.0241
 3876W        W 7927   1.388   7.416   1.060 -0.0332 -0.0086 -0.1073
 3877W        W 7928   8.708   6.740   3.765 -0.0722  0.1534  0.0686
 3878W        W 7929   0.058   8.552   4.229 -0.0649  0.1623  0.1135
 3879W        W 7930   8.635   7.624  13.451 -0.0148 -0.0592 -0.0918
 3880W        W 7931   8.781   5.730   9.459 -0.1113  0.0393 -0.0847
 3881W        W 7932   7.767   5.882   2.036 -0.1465 -0.0341  0.1624
 3882W        W 7933   4.150   3.047   0.777 -0.0396  0.4410  0.0997
 3883W        W 7934   0.319   6.256  13.531  0.2001 -0.2135  0.1591
 3884W        W 7935   6.251   3.905  11.441 -0.2411 -0.2041 -0.0942
 3885W        W 7936   4.084   3.738   1.051 -0.1113 -0.0536 -0.1842
 3886W        W 7937   4.712   1.075  13.071  0.0218  0.3311 -0.1542
 3887W        W 7938   5.127   4.511  11.628 -0.0858  0.1004 -0.1366
 3888W        W 7939   4.416   1.182  12.671 -0.1716  0.0336  0.1017
 3889W        W 7940   1.196   3.783  12.826 -0.1654  0.3181 -0.1050
 3890W        W 7941   1.126   2.563   3.420  0.0035 -0.3210 -0.2675
 3891W        W 7942   2.053   1.329  10.824  0.2500  0.2729 -0.1719
 3892W        W 7943   3.180   6.484  11.111  0.3823  0.1116 -0.1562
 3893W        W 7944   0.248   8.480   1.630 -0.1907 -0.4426  0.1932
 3894W        W 7945   9.885   7.366  12.220 -0.0730  0.4271  0.1694
 3895W        W 7946   8.096   1.111   5.403  0.1081  0.1349 -0.1412
 3896W        W 7947   3.862   2.716   0.468 -0.0505  0.2101  0.2306
 3897W        W 7948   1.942   4.470   3.968  0.0359  0.0432  0.1371
 3898W        W 7949   2.338   9.753   4.332 -0.1222  0.0690  0.1710
 3899W        W 7950   9.077   5.706  12.585  0.1197 -0.2195 -0.1187
 3900W        W 7951  10.073   4.593   4.221  0.0481  0.0287  0.3544
 3901W        W 7952   8.462   6.878   2.947 -0.1196 -0.3096  0.1659
 3902W        W 7953   3.018   1.383   2.500  0.1187  0.2425 -0.1075
 3903W        W 7954   1.380   3.550  13.712 -0.4566  0.0142  0.0349
 3904W        W 7955   2.602   8.389   4.852  0.0774  0.0352  0.5362
 3905W        W 7956   0.704   3.348   3.037 -0.0623  0.2751 -0.0437
 3906W        W 7957   4.049   9.476  11.707  0.2411  0.0485 -0.0253
 3907W        W 7958   7.516  10.059   4.350 -0.3485 -0.2047 -0.2457
 3908W        W 7959   4.917   9.726   0.003 -0.2230 -0.1622  0.0306
 3909W        W 7960   1.866   7.310  11.871 -0.0216 -0.0514 -0.1365
 3910W        W 7961   1.185   8.478   1.183  0.3843 -0.2156  0.0580
 3911W        W 7962   1.519   9.353   9.532 -0.1103 -0.0567  0.1866
 3912W        W 7963   2.338   3.629   3.867  0.0852 -0.0115  0.1280
 3913W        W 7964   5.497   0.704   0.038 -0.0582 -0.3433 -0.1720
 3914W        W 7965   1.962   5.563  11.628 -0.2097  0.0495  0.0767
 3915W        W 7966   9.982   0.505  12.466 -0.1483  0.0476 -0.0003
 3916W        W 7967   7.245   9.245  13.535  0.3820 -0.0030  0.1395
 3917W        W 7968   5.065   5.958  10.294  0.0594 -0.2393  0.0430
 3918W        W 7969   8.846   6.497   9.530 -0.0355 -0.0132 -0.3844
 3919W        W 7970   0.418   1.957   9.070  0.1456  0.3808  0.0330
 3920W        W 7971   2.841   0.058   9.385 -0.0589  0.1097  0.2853
 3921W        W 7972   1.127   6.240   0.477 -0.0729 -0.0617 -0.0591
 3922W        W 7973   4.031   4.487   9.270  0.3485  0.0435 -0.1943
 3923W        W 7974   2.859   3.912  11.143  0.1658  0.0151  0.1292
 3924W        W 7975   2.421   8.976   0.898  0.1928 -0.1918  0.0023
 3925W        W 7976   3.244   8.835  12.750 -0.0708  0.1431 -0.1624
 3926W        W 7977   2.369   3.592  11.301  0.0398 -0.2040  0.2834
 3927W        W 7978   0.843   7.066   3.627 -0.0493  0.1019  0.0907
 3928W        W 7979   2.733   1.568   4.909  0.0769 -0.4579  0.1292
 3929W        W 7980   1.724   2.669   1.745  0.0287 -0.2166 -0.2781
 3930W        W 7981   5.742   6.711  12.494  0.1387 -0.1256 -0.1849
 3931W        W 7982   9.960   8.574   2.419 -0.0060 -0.1528  0.2235
 3932W        W 7983   1.194   7.205  13.393  0.2094 -0.1089  0.1338
 3933W        W 7984   0.311   9.368   4.234  0.0310  0.1528  0.0780
 3934W        W 7985   3.726   0.948  11.240 -0.1654  0.2297  0.1287
 3935W        W 7986   4.301   7.795   2.849  0.0356  0.0963 -0.0143
 3936W        W 7987   3.729   4.422   1.316 -0.0955 -0.3539 -0.0287
 3937W        W 7988   4.955   2.144   9.085 -0.0785 -0.1961  0.3266
 3938W        W 7989   4.755  10.094  11.380 -0.1977 -0.0747 -0.2793
 3939W        W 7990   2.513   8.088  10.553  0.0452 -0.1413 -0.0224
 3940W        W 7991   4.510   0.877   1.988  0.0100 -0.2755  0.1575
 3941W        W 7992   9.639   3.210   1.304 -0.0119  0.2982  0.0623
 3942W        W 7993   4.840   2.888   1.420  0.0378 -0.0346  0.4248
 3943W        W 7994   2.551   0.210  13.709  0.1117 -0.0256  0.0198
 3944W        W 7995   2.457   3.040   5.738 -0.0568 -0.1251 -0.3115
 3945W        W 7996   5.345   0.041   4.391 -0.0051 -0.0733 -0.0985
 3946W        W 7997   2.214   4.985  13.094  0.1680 -0.0789 -0.2316
 3947W        W 7998   9.689   2.089  13.332 -0.1311 -0.1019 -0.0529
 3948W        W 7999   7.061   0.722   8.914 -0.1554  0.1344 -0.1381
 3949W        W 8000   5.746   8.442   0.306  0.0746  0.1823  0.1393
 3950W        W 8001   0.889   2.171   4.169  0.0180 -0.2631  0.0584
 3951W        W 8002   7.722   0.765  12.809 -0.0746 -0.0669  0.0298
 3952W        W 8003   3.603   4.871   9.921 -0.0674  0.3461  0.2045
 3953W        W 8004   4.771   8.422  12.087 -0.2580 -0.0216  0.3127
 3954W        W 8005  10.168   1.129  11.810 -0.4601  0.1449  0.2811
 3955W        W 8006   1.848   0.833   0.579  0.3107  0.2837 -0.2313
 3956W        W 8007   0.362   8.543   3.043 -0.2426  0.2311  0.3408
 3957W        W 8008   3.315   0.796   1.333 -0.0192 -0.1089 -0.2999
 3958W        W 8009   2.453   2.669   2.535 -0.2038  0.0760  0.0795
 3959W        W 8010   4.626   6.339   0.620 -0.1555  0.1499 -0.0860
 3960W        W 8011   9.895   8.035  11.713 -0.2763  0.1506  0.0792
 3961W        W 8012   4.201   4.438   3.549  0.0171  0.0756 -0.1100
 3962W        W 8013   1.409   2.502  11.845 -0.1315 -0.3455  0.4134
 3963W        W 8014   0.992   1.769   0.618  0.1587  0.1208  0.1346
 3964W        W 8015   1.470   9.887   2.423  0.1581 -0.0262 -0.0990
 3965W        W 8016   1.468   2.759   2.204 -0.1726 -0.2570  0.0525
 3966W        W 8017   9.593   3.075  11.802  0.0127  0.1379  0.2384
 3967W        W 8018   3.124   1.087   3.467 -0.2125 -0.3756 -0.2392
 3968W        W 8019   7.515   2.832   0.207 -0.1281 -0.1188  0.0562
 3969W        W 8020   0.843   5.857  11.795 -0.1298 -0.0299 -0.1949
 3970W        W 8021   2.882   9.888  11.396  0.4142 -0.0300  0.1444
 3971W        W 8022   8.185   4.717  11.954  0.0062  0.1948 -0.0891
 3972W        W 8023   0.860   2.151  12.654  0.2204 -0.2323  0.0569
 3973W        W 8024   2.425   2.626  10.251  0.2778  0.4198 -0.2725
 3974W        W 8025   8.468   8.275  13.091 -0.0406  0.1040 -0.5079
 3975W        W 8026   6.864   7.508   1.945  0.0528  0.0865  0.0412
 3976W        W 8027   9.077   9.377  13.061 -0.1684  0.1811  0.0909
 3977W        W 8028   1.650   8.283  13.404 -0.0066  0.1671 -0.1373
 3978W        W 8029   1.927   1.459   2.193 -0.0650  0.0259  0.0968
 3979W        W 8030  10.003   6.071   9.640 -0.4239  0.0924  0.0991
 3980W        W 8031   3.330   9.552  11.246  0.3051 -0.0846 -0.0138
 3981W        W 8032   0.630   3.324   4.459  0.1115  0.0662  0.0821
 3982W        W 8033   3.065   0.342   5.178  0.1005 -0.0926  0.0888
 3983W        W 8034   0.190   8.054  13.268  0.2486  0.0820 -0.0153
 3984W        W 8035   7.914   8.325  13.177 -0.4213 -0.1595 -0.0552
 3985W        W 8036   0.068   4.103  10.977  0.1599  0.0026 -0.0031
 3986W        W 8037   7.963   4.718  10.667 -0.4255  0.0292  0.0790
 3987W        W 8038   8.597   8.708   1.172 -0.0857 -0.1478  0.1710
 3988W        W 8039   9.242   7.492  12.239 -0.1873 -0.3429 -0.0590
 3989W        W 8040   2.753   9.063   2.360  0.1799 -0.1255  0.3103
 3990W        W 8041   6.349   9.805   1.845  0.1130  0.5596 -0.1860
 3991W        W 8042   3.143   7.356  10.355 -0.3163  0.1028  0.0424
 3992W        W 8043   9.765   2.897   2.318 -0.1066  0.0273  0.0392
 3993W        W 8044   8.870   7.532   2.616  0.1045 -0.3191 -0.1716
 3994W        W 8045   7.248   0.153   0.028  0.2689  0.1096 -0.1755
 3995W        W 8046   9.380   8.657  10.913 -0.1094  0.1134  0.0351
 3996W        W 8047   9.420   1.908   3.217  0.2844 -0.0567 -0.0971
 3997W        W 8048   6.091   2.870   2.475 -0.2963 -0.0688 -0.1902
 3998W        W 8049   0.038   8.389  11.531  0.2169 -0.3146  0.2600
 3999W        W 8050   5.090   1.906   9.881 -0.1615 -0.0301  0.2266
 4000W        W 8051   9.523   2.941  13.624  0.1963 -0.0930  0.2736
 4001W        W 8052   7.931   5.112  13.110 -0.0559  0.0016 -0.0433
 4002W        W 8053   3.957   3.968   3.037  0.0060 -0.0640  0.2853
 4003W        W 8054   0.956   5.920  13.925  0.1564  0.2766  0.3609
 4004W        W 8055   5.927   8.938   2.190  0.0411 -0.0753 -0.1527
 4005W        W 8056   8.050   7.645   4.280 -0.1138 -0.0460  0.2616
 4006W        W 8057   6.367   2.233  11.729  0.2770  0.1497  0.3009
 4007W        W 8058   5.866   7.409   2.194 -0.0034 -0.1258 -0.0907
 4008W        W 8059   5.720   6.763   1.415  0.0055  0.3838 -0.1501
 4009W        W 8060   2.850   2.070  11.810 -0.2215 -0.1145 -0.1486
 4010W        W 8061   2.398   9.491   9.653 -0.1532 -0.1916 -0.0713
 4011W        W 8062   9.394   3.650   1.251 -0.0533 -0.0311 -0.0789
 4012W        W 8063   2.587   1.348   0.395 -0.0031 -0.1500 -0.0468
 4013W        W 8064   8.178   4.096   0.314 -0.1199  0.2090  0.0679
 4014W        W 8065   1.688   0.762   1.768 -0.3604 -0.1765  0.2336
 4015W        W 8066   8.020   0.331   1.390 -0.0215 -0.2808  0.3919
 4016W        W 8067   0.191   7.475   8.929 -0.0997 -0.1060  0.1225
 4017W        W 8068   2.850   3.024  10.047 -0.0478  0.0106 -0.1055
 4018W        W 8069   2.923   9.993   0.112 -0.0825 -0.1358 -0.0226
 4019W        W 8070   7.316   9.118   2.335  0.0519  0.0161 -0.1389
 4020W        W 8071   0.423   1.003   2.995 -0.2825 -0.0866 -0.0465
 4021W        W 8072   0.834   4.343  10.284 -0.0471  0.3890  0.0717
 4022W        W 8073   7.600   6.912   2.533  0.0346 -0.0475 -0.0756
 4023W        W 8074   7.157   5.082   0.915 -0.0389  0.1382  0.0420
 4024W        W 8075   7.410   9.339   3.551 -0.3499  0.2519 -0.4724
 4025W        W 8076   7.218   1.706   3.652  0.0202 -0.1134  0.0647
 4026W        W 8077   5.088   0.651   2.958  0.2267 -0.0513  0.1196
 4027W        W 8078   9.750   0.777   2.687 -0.2764 -0.0025 -0.0537
 4028W        W 8079   1.669   7.671   4.876 -0.4427  0.0239  0.0198
 4029W        W 8080   5.816   3.182   2.148 -0.0839 -0.2057  0.0937
 4030W        W 8081   4.178   1.639   9.261  0.3651  0.0011  0.3379
 4031W        W 8082   3.825   3.839   0.542  0.0277 -0.2044 -0.1313
 4032W        W 8083   7.095   2.000   1.172  0.1109 -0.0624  0.0325
 4033W        W 8084   0.141   7.651  12.147 -0.1959  0.0472  0.3801
 4034W        W 8085   2.984   5.654  11.928 -0.0203  0.2705 -0.1648
 4035W        W 8086   1.265   0.636  13.330  0.1181  0.3842 -0.0898
 4036W        W 8087   3.317   5.822  13.253 -0.2037 -0.2231 -0.0510
 4037W        W 8088   7.408   4.041   9.135 -0.0177 -0.0040  0.0120
 4038W        W 8089   3.425   9.831   2.181 -0.0147  0.4673  0.1222
 4039W        W 8090   4.205   4.075  10.792 -0.0508 -0.2356 -0.2788
 4040W        W 8091   5.442   2.685  12.032 -0.2614  0.1748  0.1032
 4041W        W 8092   8.184   8.485  12.198  0.2146  0.3543 -0.3469
 4042W        W 8093   3.490   6.114  12.581  0.1251  0.2963  0.0538
 4043W        W 8094   3.867   8.897  10.252 -0.1745  0.1417 -0.2223
 4044W        W 8095   6.566   5.999  11.716 -0.0724 -0.0610  0.2663
 4045W        W 8096   1.559   7.237  10.665  0.0404  0.1111  0.0521
 4046W        W 8097   5.614   6.555   0.933  0.4806 -0.2392 -0.0006
 4047W        W 8098   6.081   6.598   3.787  0.0407  0.0399  0.0755
 4048W        W 8099   0.503   1.108  10.073 -0.2361  0.1703 -0.2394
 4049W        W 8100   4.685   1.668   2.610 -0.1413  0.1681 -0.0303
 4050W        W 8101   3.964   5.231   9.969 -0.0545 -0.2417  0.0567
 4051W        W 8102   2.830   4.895  12.399  0.4305 -0.4370  0.3045
 4052W        W 8103  10.147   7.018   4.791  0.4099 -0.0329 -0.2627
 4053W        W 8104   5.806   2.326  10.863 -0.4190  0.4133  0.3336
 4054W        W 8105   1.998   8.234   1.566  0.1472  0.0583 -0.4568
 4055W        W 8106   2.270  10.198   2.551 -0.1217 -0.0409  0.0464
 4056W        W 8107   8.985   7.748  11.783  0.3185 -0.1049  0.0554
 4057W        W 8108   2.136   8.144   2.746  0.1681 -0.2545  0.0329
 4058W        W 8109   3.659   9.198   4.043  0.1343 -0.2681 -0.0693
 4059W        W 8110   6.077   5.274   3.100 -0.2426  0.0612 -0.0988
 4060W        W 8111   4.834   7.757  10.470 -0.1852  0.2931  0.1202
 4061W        W 8112   6.029   8.009   0.108 -0.2029  0.2452 -0.0182
 4062W        W 8113   0.692   8.773   9.976  0.2187 -0.0433 -0.0407
 4063W        W 8114   9.534   8.574   4.460  0.0098  0.3522  0.1550
 4064W        W 8115   3.790   3.662  11.360 -0.0679  0.0668 -0.0104
 4065W        W 8116   0.726   1.264   9.135  0.1197 -0.3765  0.1815
 4066W        W 8117   7.919   4.484   1.154  0.1850  0.1452  0.0921
 4067W        W 8118   1.446   8.048   9.820 -0.2019 -0.2422 -0.2430
 4068W        W 8119   7.640   9.104   1.435  0.3322 -0.2673 -0.0376
 4069W        W 8120   0.992   5.100  10.079  0.0262 -0.0164  0.1121
 4070W        W 8121   0.237   5.713   4.605  0.0013  0.1361 -0.2876
 4071W        W 8122   9.338   1.657  10.843  0.4204  0.1800  0.0838
 4072W        W 8123   0.988   1.768  12.941  0.0760 -0.3548  0.0356
 4073W        W 8124   4.598   4.839   0.462 -0.0529  0.1061  0.0033
 4074W        W 8125   2.210   4.137   1.752 -0.1618 -0.1205 -0.2031
 4075W        W 8126   7.508   7.415  13.002  0.2405 -0.0408  0.0310
 4076W        W 8127   1.006   8.913   8.818  0.0189 -0.3184 -0.1625
 4077W        W 8128   5.571   2.870   3.380 -0.0546  0.2524  0.2106
 4078W        W 8129   6.814   8.835   5.399 -0.3271  0.0436  0.1229
 4079W        W 8130   4.974   2.148  12.000 -0.2246  0.0836  0.0305
 4080W        W 8131   6.064   4.507  12.608  0.6660 -0.1837 -0.1342
 4081W        W 8132   6.588   7.466   1.507 -0.1054 -0.1937 -0.2792
 4082W        W 8133   8.748   3.371   4.743 -0.0174 -0.0129  0.3576
 4083W        W 8134   3.425   1.815   9.964 -0.0440 -0.1098  0.0887
 4084W        W 8135   8.328   3.310   2.717  0.0902  0.1255  0.0911
 4085W        W 8136   9.315   6.065  11.849 -0.0216  0.0210  0.0901
 4086W        W 8137   6.439   6.723   0.356 -0.1306  0.4340 -0.1914
 4087W        W 8138   0.617   7.706   8.856 -0.1941 -0.0305 -0.1643
 4088W        W 8139   6.579   7.832  11.412  0.0090 -0.0037 -0.2471
 4089W        W 8140   0.749   2.320   0.141 -0.2378 -0.1758  0.1080
 4090W        W 8141   3.465   6.966  12.674 -0.2057 -0.0099  0.1359
 4091W        W 8142   3.356   0.402  11.319  0.3833 -0.0069  0.0137
 4092W        W 8143   6.510   3.763  10.537  0.0944  0.0620 -0.0562
 4093W        W 8144   2.914   0.603   9.427 -0.1282  0.2411 -0.0305
 4094W        W 8145   3.231   9.108   0.327 -0.0528 -0.1411 -0.0069
 4095W        W 8146   9.094   7.358  10.511  0.1254  0.1502 -0.1646
 4096W        W 8147   3.040   5.170  11.818 -0.2540  0.0030  0.0305
 4097W        W 8148   7.036   3.540   3.374  0.1815  0.0466  0.0184
 4098W        W 8149   9.527   0.224   2.796  0.0265 -0.2753 -0.0346
 4099W        W 8150   0.463   3.090  12.829 -0.0381  0.0144  0.1728
 4100W        W 8151   1.253   3.208   2.195 -0.0729  0.1181  0.1929
 4101W        W 8152   7.043   6.356  13.665  0.0823  0.1251 -0.2351
 4102W        W 8153   6.463   8.596  13.485  0.0051 -0.2832  0.0104
 4103W        W 8154   4.360   6.982   0.523  0.0520  0.0124  0.2329
 4104W        W 8155   9.877   9.794  10.784 -0.4345  0.1862 -0.0020
 4105W        W 8156   3.135   7.547   0.827  0.0606  0.2149  0.1863
 4106W        W 8157   4.620   9.015   1.814 -0.0945  0.1207 -0.0068
 4107W        W 8158   9.220   4.204   0.572  0.0800  0.0416  0.0046
 4108W        W 8159   4.906   5.647   3.422 -0.2184  0.1766  0.0239
 4109W        W 8160   9.209   9.718  11.733 -0.0784  0.0860  0.0441
 4110W        W 8161   1.085   7.568   0.139 -0.1576 -0.0625 -0.1142
 4111W        W 8162   5.697   0.514   1.062 -0.2361 -0.1960  0.0682
 4112W        W 8163   1.776   2.373   9.003  0.1771  0.1442  0.0255
 4113W        W 8164   8.092   2.760   2.839 -0.3290 -0.0622  0.0480
 4114W        W 8165   1.110   6.045   4.098 -0.0225 -0.1436  0.1920
 4115W        W 8166   1.810   9.233   1.911  0.1278  0.2163  0.0090
 4116W        W 8167   3.065   2.096  10.558  0.2224 -0.0805  0.1897
 4117W        W 8168   1.416   8.219   3.181 -0.0277 -0.0002  0.0550
 4118W        W 8169   0.378   0.665  13.877  0.0040 -0.0479  0.0317
 4119W        W 8170   3.672   9.801  12.711 -0.0119  0.0296  0.1377
 4120W        W 8171   0.185   5.003   1.953  0.0769  0.0005  0.2411
 4121W        W 8172   5.065   8.982   3.273 -0.0201  0.1338 -0.0428
 4122W        W 8173   6.575   2.002   4.355  0.1200 -0.1757 -0.2240
 4123W        W 8174   0.414   5.571  11.591  0.0510  0.1368 -0.1302
 4124W        W 8175  10.101   4.286   3.853 -0.3439 -0.0525 -0.1930
 4125W        W 8176   4.852   9.460  10.648  0.2216  0.2824 -0.0169
 4126W        W 8177   6.684   1.238  11.783  0.0087 -0.6007 -0.2282
 4127W        W 8178   9.959   7.024  13.289 -0.1153 -0.2580 -0.1971
 4128W        W 8179   5.106   1.276   5.067  0.3866 -0.0673  0.1758
 4129W        W 8180   3.183   1.864  12.123  0.1347  0.2901  0.4120
 4130W        W 8181   4.222   0.248   2.779  0.0678  0.1134  0.0217
 4131W        W 8182   0.435   2.069  12.232 -0.1720  0.0443 -0.1042
 4132W        W 8183   9.475   5.875   9.589  0.0012 -0.2191  0.1762
 4133W        W 8184   5.283   3.987   9.871  0.3062 -0.1864 -0.0271
 4134W        W 8185   8.849   6.440  11.972  0.0479  0.1765 -0.0163
 4135W        W 8186  10.154   1.620  11.453  0.2661  0.1079 -0.1386
 4136W        W 8187   4.492   8.447   2.149 -0.0548  0.2262  0.1128
 4137W        W 8188   4.812   9.053  11.565  0.0195  0.0423 -0.2030
 4138W        W 8189   7.502   1.264  12.759 -0.1773  0.2180  0.2301
 4139W        W 8190   8.018   3.216   0.775  0.1778 -0.1777 -0.1422
 4140W        W 8191   4.068   9.447   2.739  0.0822 -0.0272 -0.0214
 4141W        W 8192   3.402   9.998  11.111 -0.0317 -0.0001  0.1522
 4142W        W 8193   9.938   5.038   2.115 -0.0197 -0.1425 -0.2766
 4143W        W 8194   3.839   2.408  13.556 -0.0778 -0.1231 -0.3805
 4144W        W 8195   5.167   5.542  13.447 -0.2746  0.0414 -0.0043
 4145W        W 8196   8.006   5.000   3.441 -0.5122 -0.3963 -0.1924
 4146W        W 8197   3.843   5.758  10.262  0.0902 -0.0491 -0.1120
 4147W        W 8198   0.048   1.752   9.903  0.0651 -0.0045  0.2275
 4148W        W 8199   9.506  10.006  10.041 -0.1215 -0.1139  0.1067
 4149W        W 8200   9.280   7.788   8.422 -0.0631 -0.0400  0.1321
 4150W        W 8201   8.820   2.831   3.406  0.2301  0.2576 -0.1485
 4151W        W 8202   1.684  10.140  12.001  0.2656  0.3137  0.1280
 4152W        W 8203   6.133   8.505  12.658  0.1708 -0.1752  0.2424
 4153W        W 8204   1.703   6.349   0.346 -0.0373  0.0318 -0.1317
 4154W        W 8205   8.319   9.507  10.532 -0.4352  0.1959  0.0058
 4155W        W 8206   6.346   1.240  12.197 -0.0661  0.1670 -0.2628
 4156W        W 8207   2.064   2.491   9.783 -0.1150  0.1566  0.3697
 4157W        W 8208   3.339   8.729  10.467  0.0175  0.1091 -0.0770
 4158W        W 8209   1.227   8.635  10.347  0.0874 -0.0968  0.1208
 4159W        W 8210   0.450   4.600  11.666  0.2302 -0.1710 -0.0974
 4160W        W 8211   6.171   4.440   9.629 -0.1374  0.0719  0.0264
 4161W        W 8212   6.868   1.000   4.766 -0.1395  0.1927  0.3655
 4162W        W 8213  10.081   6.920   0.541 -0.1694 -0.1546 -0.0859
 4163W        W 8214   6.284   4.634  13.143 -0.0706 -0.1921  0.0867
 4164W        W 8215   4.693   3.088  11.591  0.0221  0.1854 -0.1182
 4165W        W 8216   3.496   1.134   0.365  0.0334 -0.1658  0.0220
 4166W        W 8217   7.066   4.140   2.083  0.0159  0.3316  0.1712
 4167W        W 8218   1.554   4.825  11.746 -0.1131  0.3491  0.0646
 4168W        W 8219   2.218   7.808  11.906  0.2880  0.2262  0.0811
 4169W        W 8220   4.555   1.258  13.841 -0.1538 -0.0331  0.1374
 4170W        W 8221   7.643   2.369   1.443  0.0968  0.0169  0.0818
 4171W        W 8222   7.656   5.955  13.416 -0.0022  0.1296  0.1334
 4172W        W 8223   9.052   7.420  13.229  0.1379  0.0811  0.1450
 4173W        W 8224   7.253   3.851   2.813  0.1331 -0.2550  0.0060
 4174W        W 8225   8.730   2.815   3.910  0.0466  0.0243  0.2271
 4175W        W 8226   5.539   3.099  10.795  0.2184  0.1563 -0.1344
 4176W        W 8227   5.538   2.704   5.208 -0.0321 -0.0126 -0.1528
 4177W        W 8228   6.385   3.833  10.019 -0.1217  0.2230 -0.0425
 4178W        W 8229   3.506   6.794   3.246  0.1264  0.3241  0.1641
 4179W        W 8230   8.664   1.975   0.336  0.0759 -0.0524 -0.2187
 4180W        W 8231   9.548   4.736  12.332 -0.4428  0.0532  0.0445
 4181W        W 8232   2.355   7.564   3.785  0.0498 -0.0329  0.0665
 4182W        W 8233   0.947   5.682   0.394  0.2946  0.4698  0.0193
 4183W        W 8234   4.217   8.911   2.880  0.3123 -0.3313  0.0819
 4184W        W 8235   1.406   2.527  13.299 -0.0016 -0.0122 -0.4180
 4185W        W 8236   4.295   2.846   1.395 -0.1819 -0.3336 -0.0768
 4186W        W 8237   3.675   8.725   0.323  0.0641  0.1422 -0.0350
 4187W        W 8238   1.277   5.823   9.539 -0.1643  0.2565  0.2355
 4188W        W 8239   0.519   0.256   8.325  0.0650 -0.0985  0.1242
 4189W        W 8240   9.649   8.081  13.679 -0.0968 -0.0667 -0.0586
 4190W        W 8241   8.614   4.813   0.780  0.1092  0.2827  0.2136
 4191W        W 8242   4.344   1.725   0.933 -0.0470  0.4270 -0.0947
 4192W        W 8243   6.006   9.408   3.474  0.0175 -0.3035 -0.0007
 4193W        W 8244   2.634   9.536  11.138  0.0991 -0.0670  0.1498
 4194W        W 8245   5.123   7.119   3.536 -0.0266  0.2829  0.0077
 4195W        W 8246   0.078   6.527  12.844 -0.1436 -0.0863  0.2792
 4196W        W 8247   7.274   1.242   9.723  0.0361  0.0535  0.0902
 4197W        W 8248   8.507   5.355   2.153 -0.0620 -0.0064 -0.1001
 4198W        W 8249   0.075   1.603   1.571 -0.1585  0.0757 -0.0433
 4199W        W 8250   4.192   0.622  13.656 -0.0122 -0.0116  0.1045
 4200W        W 8251   8.141   6.395   3.969  0.0613  0.1061 -0.0290
 4201W        W 8252   8.658   2.268  12.934  0.0182 -0.0530 -0.0655
 4202W        W 8253   2.169   3.452  12.528 -0.3608 -0.1796 -0.2225
 4203W        W 8254   8.010   6.976   2.208  0.0667 -0.0450 -0.0092
 4204W        W 8255   7.039   4.324  11.110  0.3247  0.3960 -0.0141
 4205W        W 8256   9.714   5.033   1.056  0.0412 -0.3759 -0.1554
 4206W        W 8257   2.863   2.847  13.721 -0.1753  0.3298  0.0222
 4207W        W 8258   9.613   7.111   9.501  0.0301  0.2408  0.1098
 4208W        W 8259   4.307   9.163   9.842  0.0683  0.1651 -0.2593
 4209W        W 8260   6.759   3.248  12.657  0.3204  0.2639  0.0821
 4210W        W 8261  10.108   6.903   9.075 -0.0549  0.0051  0.0560
 4211W        W 8262   3.496   6.947  13.191  0.6242  0.3899  0.2441
 4212W        W 8263   9.101   2.687  10.306  0.0089 -0.2157 -0.2135
 4213W        W 8264   1.344   7.272   1.507  0.1979 -0.0487  0.0898
 4214W        W 8265   5.537   4.617  12.563  0.0637  0.0018  0.3241
 4215W        W 8266   8.962   5.437  10.992  0.2026  0.3011 -0.2252
 4216W        W 8267   7.917   8.158   2.723 -0.3743 -0.0109 -0.1396
 4217W        W 8268   4.871   3.986  10.175 -0.1084 -0.2154  0.1096
 4218W        W 8269   7.536   8.542   9.422  0.2507 -0.1892 -0.1845
 4219W        W 8270   7.641   1.154  12.116  0.3751  0.0858  0.1008
 4220W        W 8271   4.226   6.365   2.295  0.0655 -0.2528 -0.2976
 4221W        W 8272   9.580   7.356  12.630 -0.0611  0.4260  0.3516
 4222W        W 8273   1.510   5.332  10.308 -0.2796  0.2408 -0.2057
 4223W        W 8274   0.940   8.259  10.546  0.0037  0.0009 -0.2112
 4224W        W 8275   5.870   1.129   0.047  0.1757  0.1404  0.1971
 4225W        W 8276   0.155   4.230  12.005 -0.0579  0.2748  0.1812
 4226W        W 8277   2.755   3.960   4.074 -0.1367 -0.2281 -0.0772
 4227W        W 8278   0.472  10.100   9.690  0.1132  0.1681 -0.3836
 4228W        W 8279   0.989   6.585  11.826  0.0825  0.3327  0.0164
 4229W        W 8280   1.313   7.939  13.927  0.2005 -0.1020 -0.0065
 4230W        W 8281   8.881   7.151  10.106  0.4497 -0.1122  0.0885
 4231W        W 8282   7.476   5.534  11.657 -0.1226 -0.0510  0.1527
 4232W        W 8283   9.582   2.741   1.493  0.0234  0.0784  0.0729
 4233W        W 8284   3.735   1.234  10.741 -0.1319 -0.1382  0.2642
 4234W        W 8285   5.019   2.702  12.845 -0.0135  0.0621 -0.2457
 4235W        W 8286   3.747   4.967   9.426  0.0640  0.3188  0.0562
 4236W        W 8287   0.636   3.363   3.955 -0.0706 -0.0649  0.1891
 4237W        W 8288   9.210   1.429  13.794  0.3554  0.0146  0.1261
 4238W        W 8289   0.853  10.038   1.337 -0.0317 -0.3286  0.0758
 4239W        W 8290   1.478   4.304   0.503 -0.3552 -0.1374  0.2703
 4240W        W 8291   3.845   6.153   9.956  0.3859  0.1935 -0.1755
 4241W        W 8292   3.759  10.080   9.619  0.0203  0.0756 -0.1344
 4242W        W 8293   4.547   0.698  11.006 -0.0112  0.0926 -0.1422
 4243W        W 8294   2.275   3.672   2.621 -0.1211 -0.0865  0.1794
 4244W        W 8295   7.072   5.195   0.470 -0.0304  0.0768 -0.1846
 4245W        W 8296   9.009   1.858  12.881  0.1213  0.1516  0.2312
 4246W        W 8297   5.458   0.633  11.514 -0.0051 -0.1193  0.1299
 4247W        W 8298   2.467  10.137  10.542 -0.1504  0.1798  0.3358
 4248W        W 8299   2.669   7.193   1.875 -0.1198  0.0969  0.0693
 4249W        W 8300   6.395   2.629   0.731 -0.0732 -0.1368 -0.1726
 4250W        W 8301   2.379   5.683   3.673  0.1120 -0.0095 -0.3003
 4251W        W 8302   1.541   2.901   1.348  0.1415  0.0671  0.1664
 4252W        W 8303   6.923   2.230  10.371 -0.0322  0.2029  0.0453
 4253W        W 8304   1.718   7.403   4.432 -0.1618  0.0421 -0.0833
 4254W        W 8305   3.114   6.711  11.547  0.1284 -0.0054 -0.3015
 4255W        W 8306   6.476   0.551  11.765  0.0675  0.0108  0.2501
 4256W        W 8307   0.074   0.248   4.760 -0.2780  0.1028  0.0660
 4257W        W 8308   0.241   9.073   2.836  0.1411 -0.0902 -0.4806
 4258W        W 8309   5.220   6.996   0.848  0.0150  0.2435 -0.2112
 4259W        W 8310   9.911   8.270  12.869 -0.0489 -0.3247 -0.1901
 4260W        W 8311   1.798   6.174   3.792 -0.1102  0.0453 -0.5382
 4261W        W 8312   3.168   8.795   2.553  0.1403 -0.1912 -0.1007
 4262W        W 8313   4.006   4.071   2.540 -0.2295 -0.1697  0.0747
 4263W        W 8314   9.433   3.444  13.572  0.0405 -0.1191  0.1352
 4264W        W 8315   3.066   3.289  13.892  0.2757 -0.0203  0.0502
 4265W        W 8316   1.607   5.790   4.727 -0.2413  0.0482  0.0116
 4266W        W 8317   6.252   4.116  12.830 -0.0312  0.0256  0.1545
 4267W        W 8318   2.462   7.376  11.441  0.2028 -0.0626  0.2119
 4268W        W 8319   7.479   5.885  12.069 -0.0345 -0.0514 -0.1695
 4269W        W 8320   0.610   2.868  13.902  0.0414  0.0897  0.0178
 4270W        W 8321   7.025   1.762   1.751  0.0329  0.0902  0.2824
 4271W        W 8322   0.928   4.121   9.527  0.4608  0.0295 -0.0000
 4272W        W 8323   2.095   7.536   8.944 -0.2156  0.2130  0.0783
 4273W        W 8324   2.129   0.903   1.609  0.3362  0.0953 -0.0644
 4274W        W 8325   8.013   2.006  10.752  0.2212 -0.2691  0.1842
 4275W        W 8326   2.765   5.175   1.117 -0.0102 -0.1778 -0.1475
 4276W        W 8327   6.600   5.724   1.484 -0.3970  0.0456  0.1488
 4277W        W 8328   2.359   5.622   0.275 -0.3057 -0.0108  0.0591
 4278W        W 8329   1.469   3.531  10.415 -0.0004 -0.1790  0.0333
 4279W        W 8330   1.866   5.193   2.585  0.0896 -0.1361  0.1599
 4280W        W 8331   5.475   9.569   0.227  0.2446 -0.1411 -0.1914
 4281W        W 8332   4.551   0.298  13.565 -0.1471  0.1859  0.0310
 4282W        W 8333   2.344   0.287   8.690  0.0968  0.1169 -0.1252
 4283W        W 8334   1.085   7.652  11.065  0.2159 -0.1721 -0.1869
 4284W        W 8335   7.165   0.158  10.228 -0.0381  0.0582  0.0331
 4285W        W 8336   9.713   9.245   9.156  0.2454  0.1537 -0.0586
 4286W        W 8337   6.050   5.161   4.130 -0.3201 -0.1287 -0.0271
 4287W        W 8338   2.903   0.985   1.012  0.2380  0.1262 -0.2749
 4288W        W 8339   4.736   0.027  13.200  0.0204  0.1471  0.4217
 4289W        W 8340   7.323   9.425  12.038  0.2583  0.0514  0.2016
 4290W        W 8341   7.969   8.676  10.338  0.1985 -0.0910  0.0371
 4291W        W 8342   7.910   8.245  10.087  0.0515  0.1901  0.1516
 4292W        W 8343   1.932   4.286  10.994 -0.2259 -0.2229 -0.0694
 4293W        W 8344   9.650   4.448   3.837 -0.0343 -0.2992 -0.1090
 4294W        W 8345   8.244   6.426  12.402  0.0072 -0.0610 -0.0364
 4295W        W 8346   8.347   0.002   1.045 -0.1971 -0.1038 -0.1478
 4296W        W 8347   0.187   7.105   3.584  0.0596 -0.1759  0.0871
 4297W        W 8348   2.895   6.583  13.860  0.1529  0.1133  0.2842
 4298W        W 8349   0.490   6.780  11.933  0.0556 -0.0628  0.1034
 4299W        W 8350   6.666   3.140   0.813  0.2020  0.2996  0.0935
 4300W        W 8351   3.325   3.211   9.914  0.3127  0.1005 -0.0987
 4301W        W 8352   7.368   3.167   3.844  0.0498 -0.1739 -0.0492
 4302W        W 8353   5.467   9.709  13.130  0.1317 -0.1099 -0.2048
 4303W        W 8354   6.653   9.571   1.136 -0.1446  0.1326 -0.0460
 4304W        W 8355   7.858   1.630  12.879  0.0114 -0.0023  0.0540
 4305W        W 8356   4.469   6.631  11.016 -0.2054  0.1108  0.1892
 4306W        W 8357   7.575   0.791   9.689  0.1569 -0.2805 -0.2681
 4307W        W 8358   1.649   8.685   3.143  0.2926  0.3567 -0.2991
 4308W        W 8359   6.641   9.176   0.278 -0.1686 -0.0917 -0.0142
 4309W        W 8360   1.439   7.632   2.757 -0.2391 -0.0933  0.3620
 4310W        W 8361   0.051   6.662  10.413  0.0953 -0.3089  0.0807
 4311W        W 8362   4.290   0.129   3.357 -0.0731 -0.3093 -0.0496
 4312W        W 8363   2.334   7.048  11.847 -0.1223  0.0675  0.0782
 4313W        W 8364   1.777   2.092   4.849 -0.0610 -0.4590 -0.0734
 4314W        W 8365  10.156   8.247   2.913 -0.0821  0.1012  0.1329
 4315W        W 8366   0.295   2.208  10.872 -0.1484 -0.3028  0.1580
 4316W        W 8367   9.500  10.027   4.101 -0.0041  0.0196  0.1055
 4317W        W 8368   3.944   2.943  12.895  0.0314  0.0851  0.2987
 4318W        W 8369   0.660   1.717   4.935  0.0089  0.0489 -0.2379
 4319W        W 8370   9.749   6.675  10.400  0.4295 -0.2220  0.0653
 4320W        W 8371   6.117   1.669   0.628 -0.0225  0.1230 -0.2688
 4321W        W 8372   9.033   5.794  13.492 -0.1776 -0.2436 -0.1174
 4322W        W 8373   9.155   5.410   9.606 -0.1233 -0.4431  0.0003
 4323W        W 8374   4.282   7.748   1.486  0.1849  0.0962  0.1506
 4324W        W 8375   0.510   5.240  13.882  0.0101  0.0858 -0.0865
 4325W        W 8376   1.227   6.262   2.201 -0.1554 -0.0306  0.1222
 4326W        W 8377   3.240   1.693   1.773  0.0256  0.1399 -0.0580
 4327W        W 8378   3.839   5.257   3.565 -0.0819 -0.2258 -0.0005
 4328W        W 8379   1.021   9.737  11.547 -0.2425 -0.1626 -0.0723
 4329W        W 8380   5.777   5.698  11.271  0.3027 -0.1129 -0.2705
 4330W        W 8381   2.432   9.797   1.666 -0.2314 -0.1090 -0.2294
 4331W        W 8382   6.544   9.627   4.392  0.0358 -0.2313 -0.4176
 4332W        W 8383   0.305   2.031   1.292 -0.2448 -0.0918 -0.0204
 4333W        W 8384   8.394   9.581   2.432 -0.0409 -0.2523 -0.1463
 4334W        W 8385   3.832   2.076   1.573 -0.1497  0.2171 -0.3293
 4335W        W 8386   8.058   1.558   0.573  0.0058 -0.0835  0.1587
 4336W        W 8387   3.333   9.370   9.956 -0.3217  0.1875 -0.2139
 4337W        W 8388   8.422   3.706   1.687  0.0192 -0.1371 -0.0110
 4338W        W 8389   9.120   5.195   3.129  0.2006  0.0277  0.1380
 4339W        W 8390   9.474   5.993   0.595  0.1087  0.0166 -0.2246
 4340W        W 8391  10.120   5.665  11.383 -0.1169  0.0693 -0.1733
 4341W        W 8392   6.142   9.987  10.877  0.3482  0.4717 -0.1043
 4342W        W 8393   6.525   1.714   0.316 -0.2440  0.0596 -0.0054
 4343W        W 8394   6.205   5.330  13.879  0.0842 -0.0314 -0.0441
 4344W        W 8395   0.314   1.606  12.174  0.1854 -0.4165 -0.1811
 4345W        W 8396   3.052   1.309   4.545 -0.1808  0.2460  0.3603
 4346W        W 8397   7.476   7.403   0.816  0.2593 -0.4183 -0.0682
 4347W        W 8398   3.529   3.111   0.473  0.1937  0.0470  0.0385
 4348W        W 8399   0.820   6.892  10.126  0.0852 -0.2326 -0.0450
 4349W        W 8400   1.328   4.019   5.219 -0.2235 -0.2831 -0.2118
 4350W        W 8401   5.855   0.654  11.771 -0.2310 -0.0813 -0.1176
 4351W        W 8402   6.216   8.251  11.831  0.0020  0.1861  0.2871
 4352W        W 8403   6.469   4.040   1.248  0.1437 -0.1038  0.1093
 4353W        W 8404   9.715   4.359   9.120 -0.3157 -0.2913 -0.2983
 4354W        W 8405   1.348   6.527  12.848 -0.4413 -0.4514  0.2133
 4355W        W 8406   2.606   7.268   2.452 -0.0808 -0.3546 -0.1468
 4356W        W 8407   9.831   9.839   4.486  0.3238 -0.1191 -0.1240
 4357W        W 8408   2.724   8.832   3.819  0.2413 -0.3746 -0.1400
 4358W        W 8409   6.326   9.641   9.937  0.1557 -0.0340 -0.0976
 4359W        W 8410   2.470   9.274   4.117 -0.0591 -0.3498 -0.0181
 4360W        W 8411   8.783   4.307  13.748 -0.1128 -0.1022 -0.1359
 4361W        W 8412   2.177   9.568  10.887 -0.1585 -0.0037 -0.0113
 4362W        W 8413   9.705   3.249  11.160  0.4739  0.1756  0.2106
 4363W        W 8414   4.343   1.753  11.265 -0.0929  0.1448 -0.4531
 4364W        W 8415   9.545   0.308  10.172  0.1987 -0.2624  0.4178
 4365W        W 8416   7.327   5.262   1.388  0.2184 -0.1547  0.0786
 4366W        W 8417   8.591   9.633  13.239 -0.4054  0.0688 -0.0699
 4367W        W 8418   2.159   2.271  10.674  0.0384 -0.0914 -0.1452
 4368W        W 8419   0.354   8.106  11.190 -0.4518 -0.1397  0.1814
 4369W        W 8420   8.943   2.282  11.830  0.0695  0.0089  0.1171
 4370W        W 8421   3.716   2.251   3.465 -0.1488  0.3087  0.1811
 4371W        W 8422   3.961   9.539   1.350  0.2047 -0.1261 -0.0885
 4372W        W 8423   6.858   5.470  10.899  0.0980 -0.2658  0.0072
 4373W        W 8424   0.715   1.774   4.435 -0.0183  0.1612  0.0509
 4374W        W 8425   9.102   6.200   2.401 -0.0473 -0.2466  0.3164
 4375W        W 8426   0.644   8.152  13.428  0.1923 -0.1603 -0.0245
 4376W        W 8427   8.514   1.347  13.112 -0.1145  0.1935  0.1814
 4377W        W 8428   8.068   1.061   0.696 -0.2448 -0.0600 -0.1433
 4378W        W 8429   2.400   2.591  13.862  0.1121  0.1947  0.0868
 4379W        W 8430   8.760   0.156  11.105 -0.0106 -0.1498  0.2065
 4380W        W 8431   5.745   1.343  10.975  0.1675  0.1532  0.1070
 4381W        W 8432   5.704   6.449  10.658  0.1760 -0.2765 -0.1080
 4382W        W 8433   8.687   2.155   1.238 -0.2973 -0.0350 -0.3188
 4383W        W 8434   0.088   5.872   3.321 -0.3934 -0.1396 -0.1305
 4384W        W 8435   1.079   9.007  12.181 -0.3245 -0.0537 -0.0868
 4385W        W 8436   4.589   5.770  11.845 -0.2014 -0.0023 -0.0547
 4386W        W 8437   2.705   6.983   3.647 -0.0185  0.2167  0.1474
 4387W        W 8438   9.037   3.084   9.438  0.2017 -0.0181  0.0446
 4388W        W 8439   0.075   2.901   1.571 -0.0407  0.2855  0.1152
 4389W        W 8440   6.632   2.811   9.626  0.2582 -0.3350  0.0171
 4390W        W 8441   8.722   4.352   2.131  0.0900  0.0742  0.1719
 4391W        W 8442   2.559   7.733   2.773  0.0770  0.2200 -0.0401
 4392W        W 8443   8.497   5.571  13.574  0.0589 -0.0998 -0.0982
 4393W        W 8444   4.845   2.202   4.121 -0.0894  0.1267 -0.0935
 4394W        W 8445   8.748   7.306  12.502  0.1046 -0.0817 -0.2522
 4395W        W 8446   9.452   7.797   4.261  0.1964 -0.1752 -0.0218
 4396W        W 8447   5.606   9.213  11.137  0.2634 -0.0976  0.0536
 4397W        W 8448   9.824   0.142   1.036 -0.0961 -0.4253  0.1314
 4398W        W 8449   5.247   8.248   2.649  0.2638  0.1872  0.1634
 4399W        W 8450   8.107   4.307  12.709  0.4115 -0.0462 -0.0593
 4400W        W 8451   2.622   3.136  10.462 -0.0391 -0.2470  0.0301
 4401W        W 8452   9.815   0.471   3.197  0.1638 -0.0403 -0.2420
 4402W        W 8453   1.818   4.717   0.487  0.4193  0.1331  0.0317
 4403W        W 8454   5.556   8.478   2.984 -0.0933 -0.1388 -0.0761
 4404W        W 8455   0.940   2.298   2.215 -0.1291  0.0547  0.0567
 4405W        W 8456   6.309   4.904   1.501  0.1563  0.1883  0.3225
 4406W        W 8457   3.492   8.041   0.795  0.0318  0.3516  0.5009
 4407W        W 8458   2.159   8.268  10.830 -0.2951 -0.3306 -0.1287
 4408W        W 8459   8.065   1.816   9.637  0.1259  0.2438 -0.1205
 4409W        W 8460   2.349   0.771  10.142 -0.1837  0.0053  0.0035
 4410W        W 8461   4.202   1.336  10.292 -0.1204 -0.1575 -0.1475
 4411W        W 8462   0.593   1.978   2.410  0.1292  0.0554 -0.1467
 4412W        W 8463   1.942   7.876  13.115 -0.0065 -0.2916 -0.3473
 4413W        W 8464   8.932   7.042   4.079  0.0459  0.0560 -0.2111
 4414W        W 8465   4.197   8.477  12.418  0.0413  0.0395  0.1061
 4415W        W 8466   6.147   2.645  10.601 -0.2678  0.1511  0.1650
 4416W        W 8467   7.320   3.044   1.769  0.1550  0.0936  0.2037
 4417W        W 8468   7.723   8.093  13.579 -0.0581 -0.2982 -0.2380
 4418W        W 8469   3.308   9.868  12.059  0.1150 -0.1307  0.0498
 4419W        W 8470   4.073   2.276   2.594  0.0880  0.2365 -0.0807
 4420W        W 8471   7.206   5.343   3.968 -0.0001  0.1387 -0.2377
 4421W        W 8472   0.456   6.712   3.520  0.0913  0.3695 -0.2103
 4422W        W 8473   0.123   2.290  10.112 -0.0533 -0.3573 -0.0700
 4423W        W 8474   1.779   9.680   4.106  0.2779 -0.0049  0.1154
 4424W        W 8475   3.311   3.075   3.068  0.0885 -0.1755  0.2810
 4425W        W 8476   4.569   3.748   9.531  0.0524  0.3119 -0.1251
 4426W        W 8477   4.408   9.261  12.087 -0.1966 -0.1274  0.2967
 4427W        W 8478   4.252   1.870   3.668  0.0527  0.1577  0.0500
 4428W        W 8479   0.188   5.183   0.348 -0.1795  0.1176 -0.1283
 4429W        W 8480   1.807   2.965  11.269  0.0687  0.3340 -0.0536
 4430W        W 8481   6.243   9.371  12.891 -0.2454  0.0320 -0.3046
 4431W        W 8482   5.644   9.246   2.540  0.0414 -0.1360  0.0563
 4432W        W 8483   8.197   5.133  11.631 -0.3881  0.0511  0.0084
 4433W        W 8484   5.381   9.596  13.668 -0.0179 -0.2805 -0.1141
 4434W        W 8485   1.951   7.658   0.350  0.0880  0.0397 -0.1224
 4435W        W 8486   5.159   4.969  12.754  0.0967 -0.4121 -0.0086
 4436W        W 8487   1.431   8.063  12.170  0.0790  0.0793  0.1415
 4437W        W 8488   7.541   6.499   2.170  0.0489 -0.3142  0.1540
 4438W        W 8489   9.486   1.200  10.583 -0.0120 -0.0127  0.2662
 4439W        W 8490   3.800   3.374  10.171  0.0361 -0.0058  0.2627
 4440W        W 8491   4.434   7.814  13.074 -0.1253 -0.0573  0.0726
 4441W        W 8492   4.930   2.129  12.787 -0.3747 -0.0663 -0.2071
 4442W        W 8493   8.718   4.552   9.916  0.0747 -0.0942  0.1974
 4443W        W 8494   2.959   9.671   2.466  0.2175 -0.0427 -0.1881
 4444W        W 8495   1.673   8.551   4.388  0.1374 -0.3236  0.1377
 4445W        W 8496   6.371   6.283   2.897 -0.1167 -0.1224 -0.0114
 4446W        W 8497   0.718   6.453  10.186  0.1479 -0.0035 -0.4302
 4447W        W 8498   5.800   6.058   3.766  0.0003 -0.0700 -0.0416
 4448W        W 8499  10.043   0.288   2.749  0.0611 -0.1305  0.0413
 4449W        W 8500   0.549   5.283  10.255  0.0266 -0.2341  0.0644
 4450W        W 8501   1.501   4.492   2.032 -0.2723  0.2063 -0.1404
 4451W        W 8502   9.923   2.743   1.121 -0.1651  0.2186 -0.0531
 4452W        W 8503   0.441   6.469   5.996 -0.0357  0.1642 -0.0410
 4453W        W 8504   4.417   5.208   2.027  0.1723 -0.0069 -0.0127
 4454W        W 8505   6.763   5.023   2.102  0.2894 -0.0641 -0.2320
 4455W        W 8506   3.285   9.891   9.928  0.3749 -0.1471 -0.3769
 4456W        W 8507   6.848   8.085   3.528 -0.0282  0.0158 -0.0271
 4457W        W 8508   8.476   5.482   4.128  0.0249 -0.3162  0.2033
 4458W        W 8509   3.549   6.722  11.358 -0.3005 -0.0296 -0.0469
 4459W        W 8510   1.046   9.899   3.902 -0.0815  0.0616 -0.2319
 4460W        W 8511   1.147   5.577   4.374  0.2811 -0.1620  0.1550
 4461W        W 8512   9.612   6.283   2.211  0.0655  0.1383  0.1922
 4462W        W 8513   7.265   7.793  13.280  0.1390  0.0825  0.0820
 4463W        W 8514   8.368   6.479  11.831  0.0830 -0.1567  0.1390
 4464W        W 8515   6.162   6.935  11.423 -0.1801  0.1972  0.0413
 4465W        W 8516   6.011   2.028   9.972 -0.3251 -0.0750 -0.3634
 4466W        W 8517   9.427   6.055  12.909 -0.3424 -0.3786 -0.2405
 4467W        W 8518   0.127   8.684   2.094  0.3041 -0.3510 -0.1229
 4468W        W 8519   7.352   9.103  11.580  0.0973 -0.0882  0.0638
 4469W        W 8520   6.775   4.971   1.629 -0.2239 -0.0704  0.0757
 4470W        W 8521   2.761   3.485   2.699  0.3426 -0.2976  0.1544
 4471W        W 8522   2.449   7.078   4.635  0.2085  0.0627 -0.0994
 4472W        W 8523   8.545   8.915  12.572  0.1353  0.0624 -0.0238
 4473W        W 8524   6.305   8.575   1.031 -0.2694  0.1226 -0.1423
 4474W        W 8525   7.163   1.258  10.673 -0.0047 -0.1976  0.2265
 4475W        W 8526   2.440   6.395   4.229  0.2386 -0.0939 -0.1077
 4476W        W 8527   4.655   2.364  13.790  0.2321  0.3103  0.1265
 4477W        W 8528   5.310   2.807   2.857  0.1298  0.2070 -0.0630
 4478W        W 8529   7.269   6.143   3.144  0.2805 -0.1110 -0.0084
 4479W        W 8530   3.377   5.462  11.107  0.1005 -0.0734 -0.5070
 4480W        W 8531   0.597   0.565  12.090 -0.3895 -0.3061  0.2015
 4481W        W 8532   8.646   6.414   2.660 -0.0300  0.3624  0.1138
 4482W        W 8533   0.168   1.872   8.536  0.0694 -0.1963  0.2832
 4483W        W 8534   8.375   3.521  10.851  0.2991  0.1266 -0.3217
 4484W        W 8535   8.118   1.417   4.182 -0.0454 -0.2935  0.1994
 4485W        W 8536   0.589   6.653  11.113 -0.1760  0.1514 -0.2694
 4486W        W 8537   8.519   0.045   1.541 -0.1501 -0.0326 -0.0658
 4487W        W 8538   1.321   1.802   4.524  0.4124 -0.3436  0.1040
 4488W        W 8539   2.107   8.065  13.559 -0.1109 -0.0101 -0.1584
 4489W        W 8540   1.347   1.070  11.465 -0.1935  0.2558 -0.0482
 4490W        W 8541   9.324   6.667  11.831  0.0624 -0.2519 -0.2209
 4491W        W 8542   5.044  10.119   1.807  0.4316  0.1948 -0.1254
 4492W        W 8543   5.758   6.618  11.779 -0.0354 -0.0708  0.1240
 4493W        W 8544   7.004   2.124  13.566 -0.1919 -0.1421  0.1963
 4494W        W 8545   0.628   2.503  12.292 -0.1797  0.2567  0.0670
 4495W        W 8546   0.328   4.496   3.985  0.1022  0.2689  0.1125
 4496W        W 8547   2.380   8.413   9.832  0.2787  0.0016  0.0556
 4497W        W 8548   8.827   6.270   1.138 -0.4600 -0.2466  0.0053
 4498W        W 8549   0.279   4.749   1.302 -0.2260  0.4214  0.1250
 4499W        W 8550   3.124   4.825  13.614 -0.0192  0.0734 -0.0047
 4500W        W 8551   2.999   7.803  13.519 -0.2141  0.4636  0.2279
 4501W        W 8552   3.631   7.547   3.707  0.1638  0.3448 -0.0594
 4502W        W 8553   5.067   4.671   2.286  0.3675  0.0654  0.0321
 4503W        W 8554   5.111   5.038  13.539  0.1735 -0.0203  0.0637
 4504W        W 8555   4.263   0.175  11.214  0.1330 -0.3845  0.0872
 4505W        W 8556   1.465   1.330   4.565  0.2662  0.2834 -0.1953
 4506W        W 8557   0.493   9.783   2.571 -0.0379 -0.0417 -0.0359
 4507W        W 8558   1.180   6.653   1.308  0.2242  0.2845 -0.1991
 4508W        W 8559   9.070   6.350  11.013 -0.3919 -0.1012  0.1379
 4509W        W 8560   5.677   2.371   3.452 -0.3334 -0.4206  0.0372
 4510W        W 8561   3.514   5.096  13.622  0.0027  0.2632  0.2661
 4511W        W 8562   7.638   4.316   4.118 -0.2413  0.1551 -0.4697
 4512W        W 8563   6.979   8.219   2.058  0.1719  0.0746  0.0335
 4513W        W 8564   7.757   2.799  11.719 -0.0438 -0.3205  0.0133
 4514W        W 8565   0.577   7.699  10.943 -0.0183  0.1562 -0.1715
 4515W        W 8566   9.552   4.993  13.751  0.1516  0.2050  0.1489
 4516W        W 8567   9.793   6.607   9.408 -0.0230 -0.0113 -0.0354
 4517W        W 8568   8.151   5.179  10.784 -0.1026  0.1297  0.2170
 4518W        W 8569   4.836   7.458  13.087  0.1137  0.0205 -0.2808
 4519W        W 8570   4.863   9.353  12.517  0.3566  0.4378 -0.3133
 4520W        W 8571   6.550   2.455   8.343  0.4886 -0.4797 -0.1060
 4521W        W 8572   9.110   7.993  13.769  0.1234  0.1357  0.0933
 4522W        W 8573   7.540   1.209   1.024 -0.1194  0.0458  0.5208
 4523W        W 8574   1.130   2.545  12.584  0.0202  0.0477  0.1122
 4524W        W 8575   2.686   9.812  13.575 -0.2289 -0.2839  0.0030
 4525W        W 8576   6.826   4.524   1.949 -0.1388 -0.2459  0.0960
 4526W        W 8577   2.843   5.025   1.585 -0.3318  0.0135  0.2664
 4527W        W 8578   2.017   6.888   0.997 -0.0683 -0.3220  0.2333
 4528W        W 8579   0.043   5.223   1.129 -0.1112  0.1588 -0.0342
 4529W        W 8580   6.134   0.270   3.888 -0.0610 -0.0809 -0.1584
 4530W        W 8581   7.651   9.567   0.140  0.2275  0.0123 -0.2569
 4531W        W 8582   8.776   2.378   4.236 -0.0419  0.0885 -0.0084
 4532W        W 8583   8.689   0.861  13.307 -0.2061 -0.0133  0.1411
 4533W        W 8584   8.896   0.474  13.602  0.1680  0.2486  0.0994
 4534W        W 8585   5.134   3.184  12.831 -0.2535 -0.3470  0.0378
 4535W        W 8586   6.043   0.374   0.628 -0.0047  0.0399 -0.2911
 4536W        W 8587   3.347   4.787   4.173 -0.2392 -0.2846 -0.1320
 4537W        W 8588   3.058   7.064   0.521 -0.3177 -0.0273 -0.3922
 4538W        W 8589   9.014   6.118   1.953 -0.2392 -0.1392 -0.1820
 4539W        W 8590   0.269   3.289  12.049  0.2304 -0.2322 -0.0242
 4540W        W 8591   6.479   7.031  10.942 -0.1535  0.0359 -0.1177
 4541W        W 8592  10.200   6.878   3.162  0.1126  0.0975 -0.3288
 4542W        W 8593   5.514   4.554   2.123 -0.1583  0.1312 -0.1068
 4543W        W 8594   8.051   2.452  10.377 -0.0812  0.0395  0.0479
 4544W        W 8595   3.760   2.555  10.437  0.2053  0.2975  0.0116
 4545W        W 8596   9.061   8.138  10.240 -0.0134  0.1294 -0.1736
 4546W        W 8597   7.022   4.011   0.202 -0.1403 -0.0072  0.0612
 4547W        W 8598   5.012   5.190   2.216  0.0211  0.1224  0.1437
 4548W        W 8599   9.328   5.346   5.087 -0.1442  0.0342 -0.0023
 4549W        W 8600   9.798   5.909  10.931  0.1371  0.2496  0.0101
 4550W        W 8601   2.445   2.261   5.017 -0.1799  0.2501  0.2061
 4551W        W 8602   5.331   2.421   3.870 -0.1844  0.1751  0.1695
 4552W        W 8603   8.502   2.982   4.886  0.1272 -0.2330  0.0771
 4553W        W 8604   1.787   1.266   1.714 -0.1585 -0.0872 -0.2780
 4554W        W 8605   5.954   7.991   3.368 -0.0830 -0.0660 -0.2437
 4555W        W 8606   5.067   5.414  11.235 -0.0003  0.2317  0.3022
 4556W        W 8607   3.358   0.090   8.590  0.2327 -0.1761  0.0183
 4557W        W 8608   3.006   2.023   1.539  0.0215 -0.1171 -0.3110
 4558W        W 8609   5.739   2.893  13.072 -0.2319 -0.0070 -0.1509
 4559W        W 8610   9.966   5.442   1.818  0.0840 -0.0372 -0.3378
 4560W        W 8611   1.873   0.638  12.255  0.0544 -0.0379  0.0629
 4561W        W 8612   8.637   4.765   2.535  0.0581 -0.0199 -0.1086
 4562W        W 8613   0.737   7.682  13.096  0.0622 -0.1071 -0.4821
 4563W        W 8614   5.757   8.299  11.658 -0.0325  0.3867  0.0439
 4564W        W 8615   5.298   9.504  12.633  0.0700 -0.2062 -0.0528
 4565W        W 8616   0.372  10.085   1.186 -0.3607  0.1586  0.1115
 4566W        W 8617   2.873   2.201   3.206  0.0365  0.0818 -0.0617
 4567W        W 8618   0.336   7.000   1.436  0.0614 -0.0407 -0.2225
 4568W        W 8619   4.633   3.586  10.212 -0.0565  0.1942  0.0276
 4569W        W 8620   2.623  10.039  12.327 -0.4190 -0.0538 -0.1204
 4570W        W 8621   9.121   6.430   3.645 -0.0807  0.0572 -0.0977
 4571W        W 8622   6.910   5.276  13.184  0.2038  0.3000 -0.1984
 4572W        W 8623   6.445   0.332  12.332  0.2317 -0.2161 -0.0155
 4573W        W 8624   3.075   1.498  13.624 -0.2080 -0.2120 -0.1035
 4574W        W 8625   2.253   3.929   2.178  0.3214  0.1737 -0.1594
 4575W        W 8626   3.657   6.501   3.828  0.0949 -0.1130  0.0472
 4576W        W 8627   0.194   8.729   1.189 -0.0072 -0.2419 -0.1310
 4577W        W 8628   3.912   2.749   2.366 -0.0234 -0.2402  0.0132
 4578W        W 8629   0.677   3.963   2.390  0.0582 -0.1311 -0.5759
 4579W        W 8630   8.869   1.420   0.236 -0.1250  0.2844  0.0406
 4580W        W 8631   7.351   4.073  12.200  0.3326 -0.0833  0.0017
 4581W        W 8632   4.211   0.767   1.054  0.0167 -0.0524  0.4482
 4582W        W 8633   6.847   1.553  10.960 -0.3161 -0.3207  0.2462
 4583W        W 8634   8.816   5.123   3.993 -0.0449 -0.1645  0.0833
 4584W        W 8635   6.280   7.063   2.236 -0.0262 -0.0155  0.0430
 4585W        W 8636   7.911   5.517   4.133  0.0237  0.2313 -0.0681
 4586W        W 8637   8.565   9.704   3.719 -0.2326 -0.2012 -0.1144
 4587W        W 8638   0.146   9.487   3.291 -0.0781  0.0442 -0.2927
 4588W        W 8639   1.915   2.404  12.572 -0.0274 -0.2182  0.2636
 4589W        W 8640   1.353   6.967   3.613 -0.0780  0.1530  0.0793
 4590W        W 8641   1.448   2.162  11.477 -0.1064  0.0452  0.3466
 4591W        W 8642   3.385   4.691   0.149  0.0785 -0.1257 -0.0472
 4592W        W 8643   7.604   1.282   2.863 -0.1698  0.1555 -0.0507
 4593W        W 8644   3.783   5.519  12.884 -0.2732  0.0445 -0.0519
 4594W        W 8645   5.682   1.453   1.637 -0.0542  0.0525  0.1953
 4595W        W 8646   9.542   2.272   1.237  0.1117 -0.1654 -0.1725
 4596W        W 8647   5.697   7.051  13.921 -0.5213  0.0650 -0.2029
 4597W        W 8648   1.308   3.518   2.868  0.0755  0.0821 -0.0168
 4598W        W 8649   3.366  10.196  12.949 -0.2028  0.2319 -0.2407
 4599W        W 8650   6.268   5.295  12.001  0.2941  0.0761 -0.1862
 4600W        W 8651   7.094   7.949  11.451 -0.2635 -0.0665 -0.0212
 4601W        W 8652   7.484   5.954   0.597  0.2829  0.1034  0.2978
 4602W        W 8653   5.461   0.393  11.957  0.3160  0.1708 -0.3148
 4603W        W 8654   2.111   0.465   3.745 -0.1746 -0.0536 -0.0518
 4604W        W 8655   5.381   0.717   2.000  0.1055  0.0030  0.0610
 4605W        W 8656   5.085   2.654   2.357 -0.1634 -0.1529  0.0460
 4606W        W 8657   3.061   3.399   2.078  0.0993  0.0177 -0.3690
 4607W        W 8658   1.608   4.363  11.439 -0.4912  0.0031 -0.4494
 4608W        W 8659   2.455   8.523  10.303  0.4657 -0.0165 -0.1197
 4609W        W 8660   1.650   5.298   3.038 -0.1953  0.0517 -0.1310
 4610W        W 8661   8.658   7.015   1.458  0.2555  0.0041  0.0660
 4611W        W 8662   7.910   6.069   0.828  0.0123 -0.1346 -0.0018
 4612W        W 8663   9.247   8.190   9.392  0.2354 -0.1734 -0.0018
 4613W        W 8664   8.809   3.868   2.886 -0.3239 -0.1052  0.1022
 4614W        W 8665   0.993   3.769  10.417 -0.1316  0.1329 -0.0033
 4615W        W 8666   5.794   5.562  10.328  0.2298 -0.1557 -0.3655
 4616W        W 8667   6.150   2.264   4.494  0.1130  0.1888  0.1949
 4617W        W 8668   2.693   3.558  12.625  0.2535 -0.1330 -0.0182
 4618W        W 8669   8.976   7.639  10.032 -0.4018 -0.1287  0.1858
 4619W        W 8670   9.924   3.248  13.571 -0.1966 -0.0494  0.0609
 4620W        W 8671   2.728   0.405   0.747 -0.0202  0.0149  0.0370
 4621W        W 8672   4.672   3.973  11.132  0.0587 -0.1091  0.2630
 4622W        W 8673   1.896   8.071  11.203  0.2680  0.1768  0.2012
 4623W        W 8674   6.448   9.883   3.510 -0.1315 -0.0007 -0.1748
 4624W        W 8675   9.211   0.026  12.910 -0.0532 -0.0125  0.2369
 4625W        W 8676   7.799   8.298   4.352  0.0572 -0.1464 -0.2451
 4626W        W 8677   2.656   8.877   2.852 -0.1366 -0.1243 -0.1302
 4627W        W 8678   8.685   5.018  12.009 -0.1533 -0.3545  0.1543
 4628W        W 8679  10.182  10.045   1.824 -0.0555  0.0743 -0.3497
 4629W        W 8680   3.103   5.968  11.223  0.3578  0.3010  0.2787
 4630W        W 8681   0.000   0.595  11.488 -0.2616 -0.0670 -0.0345
 4631W        W 8682  10.167   6.836   4.016 -0.4981 -0.1724  0.1205
 4632W        W 8683   3.009   5.393   2.286  0.0429  0.0285 -0.2186
 4633W        W 8684   7.666   7.283   4.203  0.3902  0.0322 -0.3377
 4634W        W 8685   3.822   2.223   0.566 -0.0466 -0.2455 -0.0672
 4635W        W 8686   0.550   7.232  11.197  0.0002 -0.0208 -0.0399
 4636W        W 8687   4.147   2.911   3.797  0.0144 -0.4178 -0.3751
 4637W        W 8688   1.920   6.154   2.866 -0.1038  0.0628  0.0985
 4638W        W 8689   0.571   4.164  13.580  0.1840  0.0966 -0.0087
 4639W        W 8690   8.477   2.644   1.498  0.2824 -0.1210 -0.0991
 4640W        W 8691   7.267   6.031   2.604  0.1135  0.0458  0.3102
 4641W        W 8692   2.901   7.277   1.272 -0.2200  0.0194 -0.2057
 4642W        W 8693   7.739   2.862   9.003  0.0708 -0.0457 -0.2028
 4643W        W 8694   1.604   4.893   2.333 -0.0614 -0.1505  0.3209
 4644W        W 8695   8.913   2.438  11.349 -0.4612 -0.3275 -0.1672
 4645W        W 8696   5.384   1.167   4.644  0.1883  0.3367 -0.1766
 4646W        W 8697   0.780   8.313   0.879 -0.0087  0.0399 -0.2139
 4647W        W 8698   2.432   2.371   2.098 -0.2427  0.1213 -0.0752
 4648W        W 8699   1.641   3.194   0.187  0.1295  0.0653 -0.1324
 4649W        W 8700   8.696   0.060  12.691  0.2243 -0.1963 -0.1398
 4650W        W 8701   0.567   0.247   3.300  0.1242 -0.3926 -0.1828
 4651W        W 8702   7.604   1.840   2.314 -0.2607  0.1862  0.1919
 4652W        W 8703   9.784   1.556  11.073  0.0578  0.0932  0.1187
 4653W        W 8704   9.846   9.944   1.413  0.0479 -0.1299  0.0674
 4654W        W 8705   2.748   0.415  10.184 -0.3104  0.0062 -0.0794
 4655W        W 8706   7.725   9.745  11.362 -0.0091 -0.1762 -0.3713
 4656W        W 8707   3.563   3.830   3.743 -0.1946 -0.0516 -0.0748
 4657W        W 8708   5.981   9.910   3.255 -0.2851  0.1770  0.3709
 4658W        W 8709   8.119   5.078   1.873  0.1000  0.2850 -0.3389
 4659W        W 8710   2.352   0.966   4.580  0.4770 -0.0580  0.1823
 4660W        W 8711   0.453   5.091  11.611 -0.0520  0.4324 -0.0690
 4661W        W 8712   3.265   7.613   1.660 -0.1621 -0.4177 -0.0881
 4662W        W 8713   1.689   0.566   9.749  0.0956  0.0824  0.2867
 4663W        W 8714   2.281   2.424  13.010  0.0568  0.0419  0.1654
 4664W        W 8715   3.289   2.763   0.166  0.2416 -0.0693  0.1083
 4665W        W 8716   0.939   8.370   0.057 -0.0768  0.2353 -0.0800
 4666W        W 8717   9.233   0.926   2.508  0.2097  0.5233 -0.0048
 4667W        W 8718   2.091   0.886  10.665 -0.0543  0.0856  0.2698
 4668W        W 8719   7.588   9.408  10.047 -0.1337  0.0652  0.0912
 4669W        W 8720   4.981   7.567   2.194 -0.1464 -0.0715  0.1230
 4670W        W 8721   6.117   6.691   2.579  0.1972  0.1356  0.1359
 4671W        W 8722   3.711   2.153   9.196 -0.1602 -0.1918  0.2731
 4672W        W 8723   2.981   3.211  12.361  0.1455 -0.0035  0.1293
 4673W        W 8724   2.522  10.034  11.010  0.1022  0.0771  0.1365
 4674W        W 8725   6.555   3.505   1.796 -0.0904  0.1378  0.4126
 4675W        W 8726   1.517   5.831   3.984  0.0865 -0.1854  0.3468
 4676W        W 8727   4.446   0.914  10.557  0.2670 -0.1921  0.1275
 4677W        W 8728   6.939   6.912   0.329 -0.1605 -0.2526 -0.0278
 4678W        W 8729   9.460   9.607   1.522 -0.1902 -0.0845  0.1375
 4679W        W 8730   2.671   9.399   1.373  0.1486  0.0124 -0.1426
 4680W        W 8731   4.123   9.705  13.569  0.0055 -0.0029 -0.1840
 4681W        W 8732   4.136   7.628   3.339  0.0486 -0.0877  0.1300
 4682W        W 8733   0.396   9.590  11.712 -0.1559 -0.0782 -0.1889
 4683W        W 8734   7.399   4.426   3.200  0.2263  0.0332  0.1262
 4684W        W 8735   7.068   8.248   2.619  0.1712 -0.0951  0.1466
 4685W        W 8736   8.007   0.695  10.267  0.0969  0.1201 -0.0287
 4686W        W 8737   7.639   7.846   9.934 -0.0681  0.1826 -0.0503
 4687W        W 8738   7.176   7.801   0.781 -0.1329  0.1679 -0.0787
 4688W        W 8739   5.874   4.069   1.248 -0.1832 -0.1148 -0.1979
 4689W        W 8740   0.126   2.780   9.980  0.0467  0.3552  0.1438
 4690W        W 8741   0.212   2.547   1.132 -0.0151  0.3186 -0.2772
 4691W        W 8742   6.082   0.991  10.904  0.1543 -0.0060 -0.0342
 4692W        W 8743   3.966   0.583   2.016 -0.0839 -0.2032  0.0576
 4693W        W 8744   6.765   9.709   0.153  0.2316 -0.3784  0.0058
 4694W        W 8745   4.344   0.618  13.189 -0.0898  0.1588 -0.2291
 4695W        W 8746   0.743   0.706  10.870 -0.0078  0.0563 -0.0668
 4696W        W 8747   6.726   4.947   0.177 -0.0814  0.1929  0.1726
 4697W        W 8748   2.869   1.021  13.332  0.2214  0.2405  0.1752
 4698W        W 8749   6.830   1.715  11.614 -0.0598 -0.0192  0.0388
 4699W        W 8750   9.105   2.708  12.524  0.1190  0.2763 -0.0550
 4700W        W 8751   7.116   4.084   4.278  0.4347  0.1062  0.1850
 4701W        W 8752   6.887   0.503   2.717 -0.1119  0.0054 -0.0810
 4702W        W 8753   6.160   3.160  11.356 -0.0090 -0.1540  0.0046
 4703W        W 8754   6.877   3.537   2.889 -0.2110  0.2954  0.0533
 4704W        W 8755   7.763   4.489  12.121  0.3296  0.0162 -0.0717
 4705W        W 8756   3.256   6.522  10.563 -0.0657 -0.0307  0.0158
 4706W        W 8757   1.818   8.936  12.919 -0.2622  0.1568 -0.0157
 4707W        W 8758   6.047   6.991   3.052 -0.0960  0.0737 -0.2236
 4708W        W 8759   5.109   0.455   0.984  0.1012 -0.1871 -0.1470
 4709W        W 8760   3.491   9.170  10.411 -0.0805 -0.0541 -0.0042
 4710W        W 8761   7.276   9.680  11.577 -0.3223  0.2903 -0.1726
 4711W        W 8762   5.557   9.180   1.510  0.2499 -0.1640  0.2122
 4712W        W 8763   4.752   9.695   2.927  0.2807 -0.1929  0.1010
 4713W        W 8764   2.369   3.433   1.303  0.0869  0.2684  0.1619
 4714W        W 8765   1.921   3.987   3.720 -0.1241 -0.0966 -0.0832
 4715W        W 8766   1.185   7.541  12.873 -0.6050 -0.0989 -0.2571
 4716W        W 8767   4.082   0.234   0.797 -0.2385 -0.1869  0.1537
 4717W        W 8768   5.305   9.446  10.363  0.1176 -0.0504 -0.0412
 4718W        W 8769   0.926   7.494   0.824 -0.2204  0.1480 -0.1127
 4719W        W 8770   4.634   8.436   3.573  0.1284  0.1291  0.3121
 4720W        W 8771   8.516   6.272   2.026 -0.1103  0.3062 -0.0380
 4721W        W 8772   8.845   7.561  10.992  0.1054  0.1880 -0.1380
 4722W        W 8773   3.699   0.222  13.813  0.0955 -0.3768 -0.1405
 4723W        W 8774   2.837   3.302   3.197 -0.2343  0.1973 -0.0185
 4724W        W 8775   8.117   0.817   4.963 -0.1353  0.1512  0.1049
 4725W        W 8776   9.094   1.339   2.223  0.1374 -0.0074  0.0567
 4726W        W 8777   9.803   1.821   0.369 -0.0346  0.3569 -0.1458
 4727W        W 8778   4.339   6.128  10.988  0.1178  0.0756  0.0640
 4728W        W 8779   6.080   7.904  11.451 -0.0130  0.1014 -0.1905
 4729W        W 8780   1.923  10.055   2.966 -0.1310 -0.0221  0.0382
 4730W        W 8781   3.359   2.736   2.561 -0.0218  0.0574 -0.1467
 4731W        W 8782   5.161   5.567   0.764 -0.0315  0.1950  0.2620
 4732W        W 8783   6.871  10.131  11.068 -0.2310 -0.3306 -0.1254
 4733W        W 8784   6.815   8.379   1.638 -0.2084  0.0388 -0.2392
 4734W        W 8785   3.047   5.925   1.487  0.0762  0.1302 -0.1120
 4735W        W 8786   4.744   3.699   1.914  0.3069  0.2501  0.0402
 4736W        W 8787   0.667   9.210  11.643 -0.1353 -0.0692 -0.0696
 4737W        W 8788   5.141   4.541   1.741  0.1388  0.1495  0.0966
 4738W        W 8789   5.994   4.483  13.539 -0.2449 -0.0788  0.1157
 4739W        W 8790   3.189   8.753  13.890 -0.1870  0.3365  0.2316
 4740W        W 8791   0.060   1.919  12.485  0.2770  0.1228 -0.2167
 4741W        W 8792   1.127   7.750   2.268 -0.0239  0.5249  0.0617
 4742W        W 8793   3.050   5.141  12.805  0.0438 -0.1987  0.0682
 4743W        W 8794   6.636   3.930   3.083 -0.1688  0.0473 -0.0976
 4744W        W 8795  10.161   9.312   9.750  0.4355 -0.1011  0.0377
 4745W        W 8796   7.242   3.061  11.932 -0.1969  0.2239 -0.4091
 4746W        W 8797   9.385   4.673  12.958 -0.1502 -0.0013  0.0558
 4747W        W 8798   1.217   1.089   9.575 -0.2311  0.0011 -0.0210
 4748W        W 8799   5.545   9.093  11.648  0.2471  0.0769  0.1078
 4749W        W 8800   5.069   0.861   9.816 -0.0866  0.2977  0.0090
 4750W        W 8801   6.069   8.810   4.145 -0.2367 -0.1140  0.1041
 4751W        W 8802   1.255   5.418   0.027  0.1437 -0.2025  0.1507
 4752W        W 8803   0.058   7.527  10.013  0.3698 -0.0107 -0.1567
 4753W        W 8804   0.453   5.509  12.922  0.0144  0.1123 -0.0752
 4754W        W 8805   0.339   2.947   4.743  0.1920 -0.1501 -0.2613
 4755W        W 8806   9.472   1.618   2.456 -0.2040  0.1436  0.0205
 4756W        W 8807   5.583   1.016   1.121 -0.3658  0.2606 -0.0799
 4757W        W 8808   3.010   4.427   3.947  0.1161 -0.0511  0.1591
 4758W        W 8809   5.448   0.908  11.991  0.1439  0.1666 -0.0235
 4759W        W 8810   7.977   5.358   0.104  0.0174 -0.0549 -0.1489
 4760W        W 8811   2.065   1.930  12.667 -0.0156 -0.1867 -0.1770
 4761W        W 8812   9.694  10.104   9.562 -0.0046 -0.1732  0.2437
 4762W        W 8813   0.316   7.699   4.594  0.1656 -0.2082 -0.0842
 4763W        W 8814   4.986   4.056  11.963 -0.2017  0.0419  0.1335
 4764W        W 8815   9.391   8.760  13.225  0.1844 -0.1148 -0.1077
 4765W        W 8816   2.917   6.294  10.254  0.3331  0.3661  0.1243
 4766W        W 8817   0.662   3.463  10.183  0.4297 -0.0571 -0.0287
 4767W        W 8818   1.061   1.281   2.366 -0.2451 -0.0187 -0.0475
 4768W        W 8819   9.365   9.403   9.479 -0.1163  0.1643  0.2699
 4769W        W 8820   9.074   3.285  13.891  0.3449  0.0760  0.1512
 4770W        W 8821   9.707   4.039   4.315  0.0248  0.1160 -0.0999
 4771W        W 8822   7.045   8.596   9.999 -0.2706  0.2426 -0.1315
 4772W        W 8823   9.940   7.505  11.039 -0.0664 -0.0109 -0.0830
 4773W        W 8824   5.416   7.243   2.514  0.1710  0.0614  0.0893
 4774W        W 8825   6.063   7.724  13.630  0.0588 -0.0006  0.0842
 4775W        W 8826   0.828   2.789   0.423  0.0488  0.0507  0.2488
 4776W        W 8827   4.779   3.953  12.406  0.3916 -0.0455 -0.1209
 4777W        W 8828   6.470   9.531   8.984  0.2925 -0.2329 -0.0394
 4778W        W 8829   6.391   3.077   4.460  0.0322  0.0452 -0.2256
 4779W        W 8830   6.159   7.354   1.012 -0.0991 -0.1570  0.1926
 4780W        W 8831   9.361   4.052   1.605 -0.3950  0.4090 -0.0350
 4781W        W 8832   1.914   0.322  11.780 -0.0891  0.2713 -0.1316
 4782W        W 8833   8.188   2.621   3.506  0.1207 -0.2022 -0.0087
 4783W        W 8834   2.482   2.766   9.790 -0.1508 -0.1728 -0.1677
 4784W        W 8835   1.471   6.796   9.359 -0.2446 -0.3872 -0.1330
 4785W        W 8836   6.702   2.289  13.084 -0.0155 -0.3781 -0.0240
 4786W        W 8837   9.759   9.661   0.604  0.1530  0.0441 -0.3625
 4787W        W 8838   6.700   5.458   0.132  0.1401 -0.4123  0.0291
 4788W        W 8839   8.231   5.389   3.134 -0.0064 -0.0140  0.1561
 4789W        W 8840   3.082   5.280  12.322 -0.3858  0.0179 -0.0017
 4790W        W 8841   3.251   1.215  10.492  0.3342  0.0295 -0.0436
 4791W        W 8842   9.786   0.308  13.353  0.1109 -0.1306  0.1289
 4792W        W 8843   4.660   9.684  12.201 -0.0446 -0.1614  0.3705
 4793W        W 8844   9.088   0.980   5.057  0.0400 -0.2351 -0.0721
 4794W        W 8845   5.174   8.448  10.636 -0.0756 -0.1614  0.1941
 4795W        W 8846   0.417   3.063   0.644  0.2703  0.2636  0.3682
 4796W        W 8847   8.680   0.607   4.309 -0.2140  0.0718  0.1015
 4797W        W 8848  10.094   8.882  11.500 -0.1321 -0.1870  0.1707
 4798W        W 8849   1.259   2.013   1.720  0.0532 -0.1642 -0.2004
 4799W        W 8850   7.230   1.925  11.432 -0.1282 -0.0667 -0.1032
 4800W        W 8851   8.596   0.525   4.834 -0.0263  0.0397  0.3197
 4801W        W 8852   3.739   7.391  11.894 -0.4440  0.1860 -0.3365
 4802W        W 8853   3.776   1.831  11.442  0.1542  0.1564  0.2566
 4803W        W 8854   0.577   0.392  11.204 -0.1521  0.0639 -0.0707
 4804W        W 8855   1.352   0.107   1.112 -0.0620 -0.0092  0.2256
 4805W        W 8856   5.164   9.847   9.358 -0.1288  0.3546  0.2474
 4806W        W 8857   0.634   4.836  11.162  0.1182 -0.1521  0.0180
 4807W        W 8858   1.453   7.911  13.095  0.0677  0.2029  0.2166
 4808W        W 8859   8.926   3.195   0.415 -0.0121 -0.2488 -0.0718
 4809W        W 8860   5.708   4.851  11.362  0.0377 -0.1717 -0.0564
 4810W        W 8861   1.869   3.853  12.256  0.2388 -0.3334 -0.2483
 4811W        W 8862   4.306   8.074   1.888  0.1982 -0.0453  0.0713
 4812W        W 8863   7.786   1.191   9.974  0.2592  0.0120 -0.0479
 4813W        W 8864   2.812   9.679   4.109  0.1657  0.1105  0.2694
 4814W        W 8865   5.654   9.819  11.086  0.2056 -0.0775 -0.2549
 4815W        W 8866   1.356   4.482   9.560 -0.3113  0.1205 -0.2729
 4816W        W 8867   3.436   1.451   3.276  0.2080  0.1000 -0.0276
 4817W        W 8868   0.114   2.519  11.530  0.0542  0.0018 -0.0743
 4818W        W 8869   6.283   1.009   1.909  0.2347  0.0204  0.2530
 4819W        W 8870   6.175   5.694   0.865 -0.2901 -0.3153 -0.1557
 4820W        W 8871   2.884   5.561   0.183  0.0564 -0.1218 -0.3110
 4821W        W 8872   3.998   0.713   9.139  0.0843  0.1076 -0.1463
 4822W        W 8873   7.064   9.700   3.506 -0.0476  0.1585  0.1509
 4823W        W 8874   8.315   4.839   0.315  0.0722 -0.0378 -0.0388
 4824W        W 8875   0.024   4.358   0.011  0.1845  0.0144 -0.3370
 4825W        W 8876   9.981   9.271  12.111 -0.0339  0.1306 -0.0780
 4826W        W 8877   2.288   2.762   4.855  0.0498  0.1552 -0.1151
 4827W        W 8878   3.210   5.135   2.786 -0.0841 -0.0401  0.0027
 4828W        W 8879   8.148   0.707  12.041 -0.0309 -0.0628  0.0390
 4829W        W 8880   8.252   3.036   3.973 -0.1497 -0.2387  0.0104
 4830W        W 8881   2.548   0.946   0.699  0.2299 -0.1145  0.0380
 4831W        W 8882   7.233   1.017   0.553 -0.1761 -0.4879 -0.0392
 4832W        W 8883   0.457   2.071  12.988  0.0645  0.1301 -0.1850
 4833W        W 8884   4.998   5.760   2.387 -0.1514 -0.1998 -0.0809
 4834W        W 8885   9.973   8.553  12.491 -0.0057  0.5696  0.3350
 4835W        W 8886   0.899   8.884   3.721  0.0410 -0.3837  0.2887
 4836W        W 8887   4.769   8.556  11.589  0.0017  0.0264 -0.1209
 4837W        W 8888   5.747   8.679  11.362 -0.3322 -0.0364 -0.0161
 4838W        W 8889   1.276   4.464   0.046 -0.1116  0.1328 -0.2358
 4839W        W 8890   6.132   8.294   0.532 -0.0080 -0.1888 -0.0669
 4840W        W 8891   3.034   5.894   2.246 -0.1976  0.2360 -0.4127
 4841W        W 8892   4.709   2.361   9.455 -0.1568  0.0205  0.1720
 4842W        W 8893   9.473   1.884  11.310 -0.2142 -0.0483 -0.1093
 4843W        W 8894   0.413   9.196  10.796  0.0918  0.0299 -0.0289
 4844W        W 8895   3.156   3.576   1.596  0.2358  0.2209  0.0324
 4845W        W 8896   4.556  10.180  10.095 -0.4218  0.1267 -0.2071
 4846W        W 8897   1.272   0.359   3.367  0.1653  0.2450  0.0163
 4847W        W 8898   2.208   0.234  12.218 -0.1407  0.1983  0.1544
 4848W        W 8899   0.588   1.737   3.424 -0.1219  0.1743 -0.1304
 4849W        W 8900   3.707   1.379   5.114 -0.2823 -0.2680  0.0733
 4850W        W 8901   1.383   8.101  11.004  0.0688 -0.1585 -0.0387
 4851W        W 8902   2.751   6.946  10.214 -0.3935  0.1069  0.1132
 4852W        W 8903   5.466   9.119  12.207  0.0867 -0.2801 -0.0962
 4853W        W 8904   0.974   0.236  10.818 -0.0237 -0.1730  0.2199
 4854W        W 8905   7.397  10.125   2.278 -0.2386 -0.0672  0.2747
 4855W        W 8906   8.660   7.430  11.510 -0.1033  0.2341 -0.0320
 4856W        W 8907   8.986   1.051   9.516 -0.3807  0.2864 -0.1060
 4857W        W 8908   8.440  10.101   4.030  0.1337 -0.1213 -0.1301
 4858W        W 8909   8.947   6.424  11.487 -0.5342 -0.0431 -0.1098
 4859W        W 8910   1.218   7.771   3.189 -0.1681 -0.0791 -0.0609
 4860W        W 8911   0.484   6.606   0.479  0.1849 -0.0817 -0.0964
 4861W        W 8912   8.827   0.070   2.836 -0.0619  0.0369  0.0662
 4862W        W 8913   8.193   3.728   9.655 -0.1889  0.0463 -0.0056
 4863W        W 8914   2.671   8.738  13.504  0.0228 -0.1782 -0.0482
 4864W        W 8915   0.858   1.092  10.540  0.0313  0.3771  0.2697
 4865W        W 8916   8.607   6.184   3.718  0.0360 -0.0847  0.0868
 4866W        W 8917   7.130   2.319  12.297 -0.2999  0.2071 -0.2440
 4867W        W 8918   8.687   3.052  13.659  0.1545 -0.2031 -0.0087
 4868W        W 8919   4.513   6.303  11.571  0.0465 -0.0567  0.0589
 4869W        W 8920   2.766   6.056   2.639 -0.0767 -0.2526 -0.2511
 4870W        W 8921   4.891   1.343   0.637 -0.3033  0.0461  0.1756
 4871W        W 8922   8.787   3.930   9.136 -0.1198  0.1773  0.2879
 4872W        W 8923   2.532   3.538   0.805  0.1508  0.1959 -0.0875
 4873W        W 8924   5.129   0.575   4.497 -0.0019 -0.0568 -0.1142
 4874W        W 8925   0.635   8.266  11.646  0.1426  0.0470 -0.1187
 4875W        W 8926   6.818   4.474  11.582 -0.0612  0.1263  0.0923
 4876W        W 8927   8.865   9.324  12.571 -0.1310  0.0018  0.2295
 4877W        W 8928   0.415   5.577  13.406 -0.0221  0.2870  0.2003
 4878W        W 8929   7.172   1.794   5.093 -0.3085 -0.0858 -0.0410
 4879W        W 8930   2.838   2.700  10.576 -0.2976 -0.0952  0.0176
 4880W        W 8931   0.632   7.352   0.021 -0.1028  0.0469 -0.2326
 4881W        W 8932   1.225   8.550   2.855  0.0161 -0.0446  0.1217
 4882W        W 8933   9.370   8.203  10.725  0.6535  0.3372 -0.0175
 4883W        W 8934   1.125   1.823  12.432 -0.1134 -0.2130 -0.0963
 4884W        W 8935   5.409   2.848   4.719  0.1795 -0.0079 -0.0198
 4885W        W 8936   6.922   3.114   2.056  0.1067  0.0308  0.2261
 4886W        W 8937   2.528   1.786   1.235  0.2460 -0.2073 -0.2370
 4887W        W 8938   8.459   6.074  11.468  0.2881 -0.0978 -0.0029
 4888W        W 8939   4.340   2.240  11.095 -0.1681 -0.1429 -0.3668
 4889W        W 8940   7.033   1.799  13.084 -0.2880  0.0720  0.1711
 4890W        W 8941   4.996   8.880   4.509 -0.0166  0.0658 -0.0016
 4891W        W 8942   3.053   8.539   0.394  0.0479 -0.0264 -0.0707
 4892W        W 8943   7.890   9.430   0.563 -0.0587  0.0287 -0.1867
 4893W        W 8944   8.875   9.827   2.507 -0.2362 -0.0172  0.0480
 4894W        W 8945   9.608   2.907   4.195 -0.3079  0.2364 -0.0007
 4895W        W 8946   4.534   0.036  11.780  0.2313  0.0028 -0.0818
 4896W        W 8947   9.347   9.832  13.764  0.1867  0.0066  0.0396
 4897W        W 8948   5.095   9.867   4.759  0.4188  0.0064  0.0905
 4898W        W 8949   3.089   4.130   2.835 -0.1352  0.2270  0.1517
 4899W        W 8950   6.556   2.849  13.033  0.0487 -0.1892  0.0997
 4900W        W 8951   1.047   4.584  12.456 -0.1757  0.0190  0.1605
 4901W        W 8952   4.137   6.140  10.402 -0.0211 -0.2098 -0.1570
 4902W        W 8953   0.745   7.893  13.922 -0.1624  0.1045  0.0279
 4903W        W 8954   8.475   1.540   4.537 -0.1461  0.1630  0.1755
 4904W        W 8955   4.148   5.191   2.457 -0.1804  0.0947 -0.0731
 4905W        W 8956   2.558   3.525   4.276 -0.3320  0.0200 -0.0336
 4906W        W 8957   7.358   0.924   4.551 -0.1113  0.1569  0.2491
 4907W        W 8958   9.722   0.325   1.472 -0.1299  0.1609  0.0696
 4908W        W 8959   4.581   5.272  11.094 -0.0756  0.0252 -0.0675
 4909W        W 8960   8.138   5.600   1.129 -0.1331 -0.0937  0.0048
 4910W        W 8961   7.369   5.064   3.422  0.1077  0.2320  0.3788
 4911W        W 8962   1.516   1.390   5.154 -0.2478  0.0045  0.0324
 4912W        W 8963   3.241   2.834   4.108  0.0687  0.3333 -0.0773
 4913W        W 8964   2.153   8.746  10.589 -0.2763 -0.0981 -0.0675
 4914W        W 8965   1.917   6.512   4.154 -0.1838  0.2050  0.0340
 4915W        W 8966   5.705   0.421   3.815 -0.0762 -0.1766  0.1988
 4916W        W 8967   8.536   7.961  11.815 -0.0880  0.1558 -0.1052
 4917W        W 8968   4.290   9.028  11.648  0.3791 -0.0685 -0.0848
 4918W        W 8969   2.577   9.353  13.509  0.2410  0.0233  0.3472
 4919W        W 8970   8.123   7.835  11.217 -0.1655 -0.0546 -0.1746
 4920W        W 8971   3.732   6.944   1.107  0.0992 -0.2302  0.0203
 4921W        W 8972  10.135   8.730  12.957  0.2328  0.2565 -0.0968
 4922W        W 8973   6.555   6.270   0.657 -0.2632 -0.0206  0.1693
 4923W        W 8974   7.909   4.442   3.245 -0.1414 -0.1201  0.1888
 4924W        W 8975   9.090   0.991  12.887  0.0620 -0.0403  0.0582
 4925W        W 8976  10.022   0.025  11.983  0.1086 -0.2663  0.1311
 4926W        W 8977   3.918   8.155  11.957  0.1904  0.0060 -0.2385
 4927W        W 8978   1.497   1.866  10.818 -0.0052  0.0368  0.2071
 4928W        W 8979   3.535   0.022  12.472  0.1939  0.3719 -0.1822
 4929W        W 8980   7.759   6.096   2.500  0.1484 -0.2425  0.1344
 4930W        W 8981   4.235   1.466   2.697 -0.0538  0.1270  0.5098
 4931W        W 8982   3.957   3.073   3.028  0.3161  0.0405  0.0329
 4932W        W 8983   9.700   9.101   0.826 -0.2360  0.1395 -0.1059
 4933W        W 8984   0.880   7.936   4.313  0.0892 -0.0947  0.2105
 4934W        W 8985   5.971   2.158   2.961 -0.4278 -0.2475 -0.0567
 4935W        W 8986   5.095   9.072   3.748 -0.2870 -0.1549  0.0982
 4936W        W 8987   8.864   1.907   3.651 -0.1091 -0.3573  0.0764
 4937W        W 8988   3.249   4.415   4.882  0.0235 -0.0495  0.1239
 4938W        W 8989   8.979   1.804  10.542 -0.1737 -0.4218 -0.0596
 4939W        W 8990   2.840   1.845   9.502 -0.3794 -0.0034  0.0749
 4940W        W 8991   2.982   2.520   1.662  0.5281  0.2038 -0.2356
 4941W        W 8992   8.935   1.936   5.074 -0.2263  0.1222 -0.1824
 4942W        W 8993   6.569   2.674   1.186  0.2288 -0.3379 -0.3405
 4943W        W 8994   9.437   6.787  11.345  0.1213  0.1181 -0.1319
 4944W        W 8995   8.477   4.978  10.003  0.0185 -0.1926 -0.2529
 4945W        W 8996   2.694   7.519   3.372  0.1305 -0.0686  0.1652
 4946W        W 8997   0.950   1.383   9.965 -0.0978  0.1668  0.1275
 4947W        W 8998   1.860   0.771   1.087  0.1496 -0.0536 -0.0794
 4948W        W 8999   8.137   8.119  12.809  0.2092  0.0348  0.2154
 4949W        W 9000   7.966   3.308   3.177  0.0671  0.0267  0.0988
 4950W        W 9001   1.456   9.391  12.108  0.0084  0.3445 -0.1176
 4951W        W 9002   9.059   8.525  12.473  0.1230  0.2675  0.0509
 4952W        W 9003   1.553   1.622   3.218 -0.0394 -0.2316 -0.0919
 4953W        W 9004   0.577   9.536   2.098  0.1031  0.0780 -0.4717
 4954W        W 9005   6.297   2.279  12.740 -0.0344  0.0885  0.1278
 4955W        W 9006   1.586   1.327  10.968 -0.1060 -0.1834  0.3682
 4956W        W 9007   4.390   2.664   8.573 -0.1057  0.2844 -0.1143
 4957W        W 9008   5.779   0.646  12.310 -0.2595 -0.0783  0.1368
 4958W        W 9009   0.460   2.831   4.259 -0.1527  0.0273  0.1911
 4959W        W 9010   9.912   7.890   3.287 -0.1206 -0.1318  0.2992
 4960W        W 9011   1.398   9.356   1.149 -0.0157 -0.1975 -0.0978
 4961W        W 9012   6.589   5.853   1.013  0.1059 -0.3011  0.0405
 4962W        W 9013   0.946   4.499  13.569 -0.0695 -0.1052 -0.1605
 4963W        W 9014   8.030   8.202  10.561  0.0953  0.0434  0.1516
 4964W        W 9015   4.531   5.515   2.446  0.3386  0.4675  0.3022
 4965W        W 9016   2.646   5.886  11.639 -0.3231  0.1542 -0.0986
 4966W        W 9017   4.131   5.512   1.582  0.0029  0.2231 -0.0097
 4967W        W 9018   2.162   1.141  13.581 -0.0458  0.3752 -0.0867
 4968W        W 9019   6.817   0.605  10.954  0.0778 -0.0041  0.0870
 4969W        W 9020   3.362   3.451  12.034  0.2709  0.2250  0.2918
 4970W        W 9021   7.514   4.713  12.562 -0.2517  0.1019  0.1161
 4971W        W 9022   5.237   3.361   1.444 -0.1198 -0.4289  0.1547
 4972W        W 9023   1.065   1.970  10.608  0.0158 -0.1758  0.2597
 4973W        W 9024   7.104   5.670  12.378  0.1704 -0.3926 -0.0517
 4974W        W 9025   0.838   9.321   0.828 -0.0690  0.4610  0.0463
 4975W        W 9026   6.985   0.093   4.858 -0.0942  0.0293 -0.2358
 4976W        W 9027   2.475   4.434   9.779 -0.1597  0.0535  0.1450
 4977W        W 9028   3.479   3.923  11.822 -0.1615 -0.2693 -0.1241
 4978W        W 9029   0.101   0.355   2.357 -0.0485 -0.0561 -0.1694
 4979W        W 9030   6.714   4.460   3.872  0.4439 -0.2872 -0.1873
 4980W        W 9031   0.436   9.146   9.636  0.0125 -0.0790 -0.0049
 4981W        W 9032   4.724   2.629  11.919  0.0940  0.0805 -0.0374
 4982W        W 9033   0.346   5.722   0.365  0.1575  0.0296  0.1250
 4983W        W 9034   3.850   3.357   9.639 -0.3519 -0.0521 -0.1403
 4984W        W 9035   5.459   6.896  12.149 -0.0838 -0.1015  0.0259
 4985W        W 9036   0.151   3.540   0.919 -0.1376  0.0085  0.1613
 4986W        W 9037   9.135   0.505  13.153  0.2696 -0.0023  0.3730
 4987W        W 9038   0.272   0.270   1.869  0.4632  0.0925  0.3214
 4988W        W 9039   9.446   9.345  12.109 -0.1469 -0.0461  0.0130
 4989W        W 9040   9.251   7.349   0.335 -0.0732 -0.0886 -0.4363
 4990W        W 9041   2.362   0.135  12.700 -0.3987  0.2124 -0.2300
 4991W        W 9042   1.300   4.061   2.911  0.0960  0.0050 -0.1136
 4992W        W 9043   3.304   9.182  13.098  0.0599  0.1632 -0.2873
 4993W        W 9044   4.098   9.147   1.660 -0.1495 -0.0862 -0.2170
 4994W        W 9045   4.790   6.977   2.987  0.2132  0.0699  0.1238
 4995W        W 9046   6.755   8.232  11.786  0.0055 -0.0059  0.1408
 4996W        W 9047   3.277   7.910  13.868 -0.4181 -0.0065  0.2175
 4997W        W 9048   2.576   3.354   4.730  0.1049 -0.2392  0.0818
 4998W        W 9049   3.795   1.756   9.611 -0.1758 -0.2501  0.1401
 4999W        W 9050   0.446   1.048  13.512 -0.0131  0.2262 -0.2171
 5000W        W 9051   9.774   4.868  11.358 -0.0381  0.0047 -0.1273
 5001W        W 9052   9.694   4.066  10.033  0.1872 -0.1340  0.1194
 5002W        W 9053   9.846   1.238  10.115 -0.0897  0.0178 -0.0129
 5003W        W 9054   2.428   9.722  10.184 -0.1646  0.0417  0.0058
 5004W        W 9055   4.375   0.257  12.843 -0.0285  0.0835 -0.1803
 5005W        W 9056   3.931   7.501   1.218  0.1277 -0.1721  0.0566
 5006W        W 9057   3.696   0.352  10.451  0.4488 -0.0711  0.2385
 5007W        W 9058   1.538   2.688  12.330  0.2354  0.1500  0.1199
 5008W        W 9059   8.052   2.531   1.661 -0.0738  0.0751  0.0205
 5009W        W 9060   3.205   8.012   9.594  0.0436 -0.1201 -0.0506
 5010W        W 9061   0.488   2.285  11.803  0.2518 -0.2049 -0.1386
 5011W        W 9062   9.949   3.104   9.836  0.0139  0.0842 -0.3077
 5012W        W 9063   2.245   4.060   4.163  0.0831 -0.1177  0.0520
 5013W        W 9064   3.557   2.724  13.154  0.1181  0.1297  0.2763
 5014W        W 9065   1.867   0.893  11.759 -0.0601 -0.0276 -0.0426
 5015W        W 9066   5.239   7.675   1.217 -0.0003 -0.0566  0.2795
 5016W        W 9067   2.581   3.453   9.952 -0.2774  0.1698 -0.0735
 5017W        W 9068   6.269   3.854   4.740  0.1607 -0.2448 -0.2867
 5018W        W 9069   6.037   3.559   0.472  0.0302  0.4109  0.0011
 5019W        W 9070   1.171   4.793  13.219 -0.1436 -0.1669  0.2273
 5020W        W 9071   9.307   2.821  11.389 -0.1148 -0.1537 -0.2640
 5021W        W 9072   2.354   5.615   1.004  0.1575  0.0319  0.1199
 5022W        W 9073   0.055   1.970  11.870  0.2054  0.2445 -0.0024
 5023W        W 9074   2.275   4.961  10.535  0.0887 -0.0404 -0.1727
 5024W        W 9075   0.630   7.208  13.372  0.2214  0.1319 -0.2755
 5025W        W 9076   6.998   8.876   3.642  0.1930 -0.0777  0.3417
 5026W        W 9077   6.077   0.728   9.679 -0.0153  0.0404 -0.0276
 5027W        W 9078   2.898   3.573   1.199 -0.1224  0.0100  0.2462
 5028W        W 9079   2.796   3.244   0.431  0.0052  0.1750  0.2388
 5029W        W 9080   2.977   9.083  12.439 -0.1891  0.0316 -0.3174
 5030W        W 9081   2.293   7.213   9.274 -0.1634 -0.0634 -0.1894
 5031W        W 9082   6.374   4.007   3.685 -0.0411  0.1045  0.1729
 5032W        W 9083   2.359   9.229   2.731  0.0594 -0.0448 -0.3397
 5033W        W 9084   9.775   5.705  13.827 -0.1502 -0.0177 -0.0920
 5034W        W 9085   6.443   5.813  10.713 -0.2892  0.4112 -0.4091
 5035W        W 9086   5.886   3.890  11.881  0.1364  0.1834 -0.1004
 5036W        W 9087   2.579   2.632   0.882  0.2098  0.2803 -0.3160
 5037W        W 9088   0.784   5.261   3.539  0.3221  0.0776 -0.2063
 5038W        W 9089   7.012   8.740   2.659  0.1737 -0.4276  0.1599
 5039W        W 9090   7.146   8.427   0.776  0.0178 -0.0909  0.3238
 5040W        W 9091   0.967   1.379   8.695  0.2026  0.1249  0.0916
 5041W        W 9092   8.004   3.429  11.173 -0.0238 -0.3382 -0.0965
 5042W        W 9093   4.714   1.047   3.172  0.1695  0.1865 -0.0088
 5043W        W 9094   9.504   6.434  13.287 -0.1500 -0.1233  0.0183
 5044W        W 9095   0.498   4.910   9.930  0.0144  0.1098  0.2320
 5045W        W 9096   1.661   1.379  12.867  0.1098 -0.2391 -0.1265
 5046W        W 9097   2.283   2.760   0.448 -0.1321  0.0394  0.0204
 5047W        W 9098   0.721   8.599   1.335  0.2119  0.1977 -0.2611
 5048W        W 9099   6.354   1.981   2.229 -0.2160  0.0471 -0.0484
 5049W        W 9100   6.469   2.201   4.907 -0.1112  0.2538 -0.2033
 5050W        W 9101   6.259   2.532  12.108  0.0073 -0.2699  0.1390
 5051W        W 9102  10.003   4.417   4.712  0.1739 -0.0097 -0.4840
 5052W        W 9103   5.186   8.335  11.252 -0.1646 -0.0854 -0.0063
 5053W        W 9104   4.381   7.303   2.686  0.2470  0.3235  0.2952
 5054W        W 9105  10.050   8.731  12.004  0.0030 -0.1243 -0.0882
 5055W        W 9106   1.152   3.619   9.501  0.2758 -0.0258 -0.1166
 5056W        W 9107   3.764   5.692   3.239 -0.3083 -0.0142  0.0857
 5057W        W 9108   5.489   3.387   1.857 -0.2096  0.3349  0.2501
 5058W        W 9109   4.988   1.614  12.060 -0.0899 -0.0594  0.0120
 5059W        W 9110   6.759   3.797  13.686 -0.0402  0.3408  0.0692
 5060W        W 9111   1.826   8.832   5.030 -0.0985 -0.0506 -0.3532
 5061W        W 9112   2.773   2.054   3.642 -0.0234 -0.1071  0.1962
 5062W        W 9113   4.826   2.671   1.899  0.0818 -0.0876  0.2775
 5063W        W 9114   3.362   5.541  12.683 -0.0548  0.0940  0.2495
 5064W        W 9115   7.320   8.491   1.753 -0.1686  0.3810 -0.1729
 5065W        W 9116   9.019   2.424   3.724 -0.2493  0.0109 -0.1476
 5066W        W 9117   3.102   4.461  10.409  0.0236 -0.1694  0.3715
 5067W        W 9118   9.125   2.192  10.087 -0.0333  0.0324  0.2558
 5068W        W 9119   2.062   4.955   0.113 -0.2482  0.0886 -0.0730
 5069W        W 9120   7.919   6.881   0.355 -0.0770 -0.1776  0.0635
 5070W        W 9121   3.939   1.383  12.589  0.0598 -0.1015 -0.0277
 5071W        W 9122   4.671   6.025   1.471 -0.0573 -0.0981  0.4153
 5072W        W 9123   3.817   1.136   2.808  0.5992 -0.0918  0.0329
 5073W        W 9124   5.487   4.662   2.636 -0.0668  0.1945 -0.3287
 5074W        W 9125   8.077   8.648   2.566 -0.1360  0.1029  0.0660
 5075W        W 9126   7.876   4.156  13.842 -0.0509 -0.0610  0.0642
 5076W        W 9127   9.337   6.442   0.864 -0.1837 -0.0611  0.1969
 5077W        W 9128   6.551   6.131  13.006  0.0046 -0.3134  0.2054
 5078W        W 9129   0.815   1.962   9.989 -0.0262  0.0345 -0.0466
 5079W        W 9130   0.487  10.077  11.345 -0.1763  0.0405 -0.0374
 5080W        W 9131   0.796   0.697   3.116 -0.0414  0.0043 -0.1984
 5081W        W 9132   2.923  10.011  10.308 -0.2560  0.1926  0.2029
 5082W        W 9133   0.227   2.383   1.657  0.1928 -0.3720 -0.2419
 5083W        W 9134   1.408   0.996   1.473 -0.3149 -0.2482  0.0394
 5084W        W 9135   2.674   6.330   3.369 -0.0100 -0.2162 -0.2679
 5085W        W 9136   5.658   7.344  10.096  0.2690 -0.0964  0.0557
 5086W        W 9137   3.239   3.207   1.213 -0.0371 -0.1761  0.6028
 5087W        W 9138   6.529   0.263   0.815 -0.1754  0.1723  0.0284
 5088W        W 9139   0.885   4.236   1.501  0.0604 -0.0480 -0.3094
 5089W        W 9140   1.790   2.800   2.552  0.0748  0.0988  0.2272
 5090W        W 9141   3.988   1.518   2.208  0.3532  0.0656 -0.2251
 5091W        W 9142   6.105   1.496   2.051  0.0914  0.0870 -0.0929
 5092W        W 9143   6.923   0.134   1.569 -0.0410  0.0273  0.2583
 5093W        W 9144   3.943   7.296   2.375 -0.2099 -0.1012  0.2810
 5094W        W 9145   8.195   4.571   2.134 -0.0497  0.1077  0.1322
 5095W        W 9146   8.183   5.210  12.191 -0.1287  0.0141  0.1300
 5096W        W 9147   3.058   0.940  12.845  0.1469 -0.2974  0.1664
 5097W        W 9148   2.502   9.457  12.477 -0.1779 -0.0119 -0.2921
 5098W        W 9149   0.060   8.743   0.248  0.0073 -0.4449 -0.0064
 5099W        W 9150   9.701   2.169  10.189  0.1302  0.1394  0.0182
 5100W        W 9151   8.968   8.929   3.116 -0.0460 -0.2765 -0.1586
 5101W        W 9152   8.812   4.985   3.526 -0.1953  0.2594 -0.1138
 5102W        W 9153   1.612   0.862  11.107 -0.5867  0.3102  0.2316
 5103W        W 9154   9.956   6.863  11.347 -0.3028  0.0057 -0.0170
 5104W        W 9155   6.492   8.176   9.566  0.2594 -0.0522 -0.1287
 5105W        W 9156   8.388   1.545   0.184 -0.0052 -0.0852 -0.1439
 5106W        W 9157   0.167   8.167   2.384  0.1137  0.2470 -0.1676
 5107W        W 9158   2.658   9.477   8.775 -0.1361 -0.1510  0.0249
 5108W        W 9159   5.686   6.297  13.304  0.0397  0.0421  0.2031
 5109W        W 9160   8.016   3.627   1.287  0.1405 -0.1291  0.0283
 5110W        W 9161   5.815   2.528   9.548 -0.2016  0.0376 -0.1800
 5111W        W 9162   4.140   0.063  13.706 -0.0546  0.2423  0.0165
 5112W        W 9163   4.904   8.876   2.684 -0.1575  0.1437  0.0551
 5113W        W 9164   6.107   8.947   1.668  0.0647  0.0890 -0.0116
 5114W        W 9165   4.874   5.380  12.598 -0.2139  0.0435 -0.1327
 5115W        W 9166   7.247   5.443  12.778 -0.1646  0.1335 -0.1335
 5116W        W 9167   6.981   4.994  12.686  0.1004  0.3080  0.2442
 5117W        W 9168   2.436   2.083   1.629 -0.1420  0.0736 -0.0851
 5118W        W 9169   1.038   0.426   2.161 -0.0588  0.0177  0.0110
 5119W        W 9170   7.360   3.904   1.789 -0.0406 -0.0897 -0.0282
 5120W        W 9171   0.282   7.197   9.356 -0.3052  0.1574  0.1491
 5121W        W 9172   7.588   3.228  13.866  0.3657  0.1569 -0.0000
 5122W        W 9173   1.980   0.110  13.557 -0.2506  0.5008  0.0590
 5123W        W 9174   1.458   4.132   3.424  0.2561  0.2524 -0.2567
 5124W        W 9175  10.197   1.804   5.638  0.2430 -0.0165 -0.0338
 5125W        W 9176   6.050   0.249  13.256 -0.2004  0.1833  0.0728
 5126W        W 9177   6.330   3.123   2.133  0.1939  0.1570  0.1819
 5127W        W 9178  10.140   8.477   3.411  0.0476  0.0317  0.2272
 5128W        W 9179   0.298   4.469   8.730  0.1360  0.1660 -0.2597
 5129W        W 9180   0.042   4.559   2.380 -0.0262 -0.0993  0.0488
 5130W        W 9181   7.183   3.949  11.747 -0.2106  0.1930 -0.0414
 5131W        W 9182   1.492  10.192  13.426  0.1688  0.0656  0.0136
 5132W        W 9183   1.591   8.292   4.814  0.1488  0.0732 -0.2567
 5133W        W 9184   7.860   3.426  12.811 -0.0721 -0.1089  0.0025
 5134W        W 9185   1.280   3.078   5.041 -0.3517  0.0936 -0.1397
 5135W        W 9186   0.330   7.145   2.348  0.1242  0.0324 -0.0349
 5136W        W 9187   9.002   5.886   1.456 -0.2306 -0.0243 -0.0676
 5137W        W 9188   8.890   9.497  10.523 -0.0936  0.0826  0.5391
 5138W        W 9189  10.068   7.747   1.891  0.0922  0.1488  0.5999
 5139W        W 9190   4.036   6.852  11.180  0.1564 -0.0777 -0.0440
 5140W        W 9191   8.314   6.465  10.639 -0.0490 -0.0836 -0.3024
 5141W        W 9192   8.664   4.804   4.766  0.2672 -0.0476 -0.3343
 5142W        W 9193   2.269   0.621  12.845  0.0430  0.1825 -0.1963
 5143W        W 9194   0.611   7.225  12.189 -0.1029 -0.1732  0.0260
 5144W        W 9195   7.909   8.247   5.249 -0.3203 -0.2557 -0.4179
 5145W        W 9196   0.819   8.419   4.050  0.1127 -0.1561  0.4392
 5146W        W 9197   2.321   3.604   3.309  0.1154 -0.0585  0.3080
 5147W        W 9198   0.409   0.299   9.310 -0.0956  0.1959  0.0328
 5148W        W 9199   1.146   8.117  13.465 -0.0654  0.0614 -0.2341
 5149W        W 9200   2.004   6.138   1.632  0.2037 -0.1590 -0.2193
 5150W        W 9201   9.969   0.698   2.241  0.2027 -0.0198 -0.0564
 5151W        W 9202   7.161   6.745  11.067  0.3201  0.1506 -0.0063
 5152W        W 9203   2.404  10.060   9.501  0.0537  0.1720 -0.4516
 5153W        W 9204   1.290   5.389  10.955 -0.3225  0.0104 -0.2210
 5154W        W 9205   3.424   0.540   2.486  0.0477  0.1154 -0.0137
 5155W        W 9206   5.404   0.697  10.623 -0.0447  0.0130  0.1547
 5156W        W 9207   6.754   9.519   9.709 -0.0667  0.1835  0.0703
 5157W        W 9208   5.188   3.551   4.524  0.1871  0.0307  0.2727
 5158W        W 9209   4.051   0.970   5.026 -0.3326 -0.3195  0.1758
 5159W        W 9210   7.441   3.473   5.730  0.0925  0.2328  0.1741
 5160W        W 9211   7.263   3.697   3.784  0.0244  0.1395 -0.0642
 5161W        W 9212   0.098   1.189  13.035 -0.0105 -0.0581  0.0503
 5162W        W 9213   9.731   7.325   4.806 -0.0475 -0.1564  0.1472
 5163W        W 9214   5.234   6.460  10.439  0.0150  0.1987 -0.0463
 5164W        W 9215   8.480   2.696  10.452 -0.1288 -0.0924 -0.0105
 5165W        W 9216   0.609   5.729   1.766 -0.1116 -0.2138 -0.2906
 5166W        W 9217   1.092   6.140   3.057  0.2388  0.1525  0.1808
 5167W        W 9218   5.919   5.727   1.311 -0.2691  0.2491 -0.1981
 5168W        W 9219   4.887   4.118   2.591 -0.3020  0.1308  0.0763
 5169W        W 9220   4.829   2.427   3.705 -0.3196  0.2362 -0.0444
 5170W        W 9221   5.387   5.736   3.503  0.1029  0.3712 -0.1789
 5171W        W 9222   7.686   8.957   2.667 -0.0478  0.1273  0.0550
 5172W        W 9223   5.168   1.430   1.489  0.4031  0.2234  0.2378
 5173W        W 9224   4.673   9.809   4.354  0.2270 -0.2526 -0.3895
 5174W        W 9225   8.059   0.400   9.151  0.0914 -0.2666  0.2263
 5175W        W 9226   4.655   5.954   0.282 -0.0051 -0.0837 -0.0731
 5176W        W 9227   7.263   8.545   9.024 -0.2476 -0.0720  0.1090
 5177W        W 9228   9.290  10.051   1.562 -0.1831  0.0117 -0.2343
 5178W        W 9229   0.295   9.995  12.728 -0.3523 -0.0636 -0.2481
 5179W        W 9230  10.090   6.646   3.599 -0.2043 -0.2832  0.2249
 5180W        W 9231   3.383   6.698   0.736  0.0676  0.1898  0.1705
 5181W        W 9232   4.604   1.118  10.083 -0.1022  0.2145 -0.0373
 5182W        W 9233   8.428   3.769   2.550  0.2501 -0.2373 -0.2239
 5183W        W 9234   9.068   5.572  12.035 -0.2160 -0.1469 -0.1039
 5184W        W 9235   4.646   8.485  10.574  0.1100  0.0100  0.0925
 5185W        W 9236   0.317   1.452   8.342  0.2784 -0.0382  0.3301
 5186W        W 9237   5.581   0.772   9.928  0.0738 -0.0030  0.6361
 5187W        W 9238   1.939   3.601   1.603  0.1042  0.1788 -0.3179
 5188W        W 9239   3.230   0.405   0.922  0.1456 -0.2769  0.0506
 5189W        W 9240   8.985   1.400  13.095 -0.2026  0.0284 -0.3905
 5190W        W 9241   7.905   0.383  13.079  0.4248  0.0395  0.0253
 5191W        W 9242   9.825   3.551   1.009  0.2095  0.0246  0.1477
 5192W        W 9243   6.224   6.184   1.088  0.1467  0.0825 -0.3398
 5193W        W 9244   7.494   6.889  12.013 -0.0274 -0.1972 -0.0730
 5194W        W 9245   2.631   5.858  10.416  0.1648  0.0749  0.1634
 5195W        W 9246   3.605   5.023  11.183  0.0354 -0.1059 -0.2284
 5196W        W 9247   9.409   1.448  12.222 -0.0353  0.1386  0.1114
 5197W        W 9248   2.494   6.484   1.770 -0.1281  0.0204 -0.1994
 5198W        W 9249   0.587   2.423   4.495 -0.0072  0.0078 -0.2074
 5199W        W 9250   3.178   1.511   3.688 -0.0892 -0.2082  0.1139
 5200W        W 9251   4.202   1.450  11.646 -0.0674 -0.2249 -0.1317
 5201W        W 9252   4.573   1.461  12.271  0.1411  0.0515  0.3644
 5202W        W 9253   8.385   4.416   5.056 -0.3204 -0.0034  0.4903
 5203W        W 9254   8.750   6.514   1.635 -0.0081  0.1028  0.2751
 5204W        W 9255   1.785   0.725  13.542  0.1266  0.2893 -0.2397
 5205W        W 9256   8.665   7.798   2.255  0.4233  0.2175  0.2311
 5206W        W 9257   0.132   9.887  13.471  0.4065 -0.0345  0.0775
 5207W        W 9258   1.180   7.052   0.039  0.0304 -0.0157 -0.1477
 5208W        W 9259   0.096   4.470   0.788  0.1875  0.1085 -0.0087
 5209W        W 9260   8.035   9.226  10.204 -0.2593  0.0805  0.3919
 5210W        W 9261   5.009   9.864   1.321  0.1411 -0.2662 -0.0659
 5211W        W 9262   6.448  10.003  12.279 -0.1256 -0.1660  0.2581
 5212W        W 9263   9.851   9.450  12.621 -0.1914  0.2157  0.1380
 5213W        W 9264   5.092   7.751   0.323 -0.0075 -0.2391  0.3194
 5214W        W 9265   9.753   7.559  13.658  0.1586 -0.1274 -0.3061
 5215W        W 9266   4.072   1.170   9.436 -0.0011 -0.1996 -0.1490
 5216W        W 9267   3.740   0.578  11.594 -0.0492  0.3785  0.1567
 5217W        W 9268   3.998   2.267   4.748  0.0231  0.0375  0.0511
 5218W        W 9269   2.577   1.502   2.850 -0.0283 -0.1910  0.1157
 5219W        W 9270  10.047   2.856  12.746  0.0466 -0.0165 -0.1365
 5220W        W 9271   2.342   5.636  10.765  0.3468 -0.0247 -0.1712
 5221W        W 9272   6.556   8.756   4.032 -0.0285 -0.1174 -0.2460
 5222W        W 9273   5.901   3.915   2.793 -0.1713 -0.0660 -0.2303
 5223W        W 9274   1.317   5.447   3.489 -0.0614 -0.4038 -0.3472
 5224W        W 9275   2.111   1.453   3.113  0.0535 -0.0279  0.3565
 5225W        W 9276   6.218   0.577   4.930 -0.3436 -0.4594 -0.0892
 5226W        W 9277   3.028   1.019   0.516 -0.1585  0.0216 -0.1066
 5227W        W 9278   1.076   2.707   9.927 -0.3721  0.1559  0.1442
 5228W        W 9279   9.250   2.495   5.872 -0.1362  0.7319 -0.2425
 5229W        W 9280   5.900   4.333  11.005  0.3186  0.0668  0.2811
 5230W        W 9281   3.386   3.072   4.496 -0.0525  0.1680 -0.1707
 5231W        W 9282   3.914   6.641  12.165  0.0597 -0.2143 -0.3092
 5232W        W 9283   5.523   1.834  10.870 -0.5211 -0.1685 -0.0369
 5233W        W 9284   1.408   0.949   0.945 -0.4115  0.1022  0.3104
 5234W        W 9285   1.600   7.765  13.551 -0.2982  0.1244 -0.1014
 5235W        W 9286   4.470   4.020   9.904  0.3140  0.1612  0.1586
 5236W        W 9287   6.869   8.753   4.444 -0.1495 -0.0724 -0.1089
 5237W        W 9288   8.922   0.043  11.724 -0.0716 -0.0135 -0.2226
 5238W        W 9289   7.928   7.952   0.230 -0.0395  0.3137  0.0226
 5239W        W 9290   6.378   7.714   9.699 -0.1144  0.1806 -0.0218
 5240W        W 9291   8.764   6.652  12.569 -0.0320  0.1918 -0.1791
 5241W        W 9292   2.430  10.170   3.041 -0.0017  0.1024  0.0120
 5242W        W 9293   6.460   1.545   3.333 -0.1226  0.0163  0.1910
 5243W        W 9294   2.472   5.430   9.757 -0.1066 -0.4447  0.1430
 5244W        W 9295   0.677   5.677   4.293 -0.1260  0.1060  0.0531
 5245W        W 9296   9.973  10.160   0.539  0.0031 -0.1749 -0.1705
 5246W        W 9297   6.329   2.432   9.754  0.0238 -0.0622 -0.0066
 5247W        W 9298   7.989   6.951   1.623  0.2379  0.0016  0.0430
 5248W        W 9299   4.614  10.003   1.049 -0.0551 -0.2966  0.1472
 5249W        W 9300   8.567   2.449   4.787  0.0165 -0.2075  0.0250
 5250W        W 9301   4.151   2.713   3.299  0.2439 -0.0316 -0.2870
 5251W        W 9302   7.878   0.747  11.102 -0.0042 -0.0377 -0.2580
 5252W        W 9303   3.275   6.139   2.683 -0.2501 -0.1223  0.0698
 5253W        W 9304   9.600   3.317   2.180 -0.3285 -0.0787  0.1598
 5254W        W 9305   9.011   7.681   3.503 -0.2129  0.0386 -0.0953
 5255W        W 9306   3.500   5.442   0.423  0.2863 -0.2547  0.0163
 5256W        W 9307  10.087   8.280   1.934 -0.0296  0.0850  0.0945
 5257W        W 9308   2.695   4.167  12.912  0.1275  0.2642  0.1241
 5258W        W 9309   2.765   5.360   3.717 -0.1835  0.1426 -0.3610
 5259W        W 9310   1.377   3.429  10.912 -0.1621 -0.2398  0.2761
 5260W        W 9311   2.233   8.915   0.409 -0.0544 -0.0616 -0.0487
 5261W        W 9312   0.549   4.307  11.210 -0.2426  0.2797  0.3946
 5262W        W 9313  10.167   0.379   0.257 -0.0366  0.1536  0.1113
 5263W        W 9314   9.916   6.031   0.845  0.1359 -0.1449 -0.2267
 5264W        W 9315   0.197   2.688  10.987 -0.2152  0.0612  0.2437
 5265W        W 9316   8.045   7.637  11.839 -0.4886  0.1913  0.1470
 5266W        W 9317   1.075   5.519   1.914  0.0260 -0.2063  0.0460
 5267W        W 9318   7.860   9.796   4.131  0.1909  0.3250  0.0501
 5268W        W 9319   4.635   6.283  13.415 -0.0973  0.0780  0.1597
 5269W        W 9320   7.693   0.362  13.891  0.0238 -0.1637 -0.0061
 5270W        W 9321   5.629   0.036   0.704  0.2265 -0.1799 -0.1410
 5271W        W 9322   3.269   5.995  10.395  0.3563  0.0241  0.1973
 5272W        W 9323   8.336   8.266  11.437 -0.0174 -0.0736 -0.3693
 5273W        W 9324   0.105   9.039   4.705 -0.0459  0.0740 -0.2018
 5274W        W 9325   5.062   4.302  10.510 -0.0879 -0.1287 -0.0392
 5275W        W 9326   8.602   1.006   5.052 -0.2079 -0.1969 -0.1398
 5276W        W 9327   6.011   3.143   3.349 -0.0417 -0.0667 -0.0406
 5277W        W 9328   2.608   6.877   1.474  0.2218  0.0765 -0.0796
 5278W        W 9329   1.541   6.974  12.127  0.0165 -0.3017  0.1549
 5279W        W 9330   5.969   2.730  13.710  0.1800  0.0248 -0.2986
 5280W        W 9331   9.760   2.461  12.546  0.1087  0.0149  0.0512
 5281W        W 9332   9.480   5.773  10.456  0.2177 -0.1324  0.1485
 5282W        W 9333   3.579   1.790   0.330 -0.0194  0.0390 -0.1218
 5283W        W 9334   5.442   5.640   2.468  0.2074  0.0720  0.4600
 5284W        W 9335   1.375  10.050   3.009  0.0116  0.1225 -0.2850
 5285W        W 9336   1.287   7.237   0.541 -0.1533  0.0028  0.2404
 5286W        W 9337   5.825   4.121   4.331 -0.1807 -0.1566  0.0269
 5287W        W 9338   6.967   9.186   3.224  0.0506  0.1256  0.2876
 5288W        W 9339   5.033   9.833  13.380 -0.1188  0.0574  0.3167
 5289W        W 9340   5.481   1.594   2.456 -0.3180  0.0387 -0.3157
 5290W        W 9341   8.619   2.845   4.441 -0.0499 -0.0895  0.3826
 5291W        W 9342   1.943   3.561   4.120 -0.1899 -0.0312  0.0811
 5292W        W 9343   4.955   2.951  13.656 -0.0913  0.2148  0.1323
 5293W        W 9344   6.188   5.009  10.492  0.1137 -0.0300 -0.0634
 5294W        W 9345   6.860   6.348   2.848 -0.2793 -0.0779 -0.3619
 5295W        W 9346   4.221   5.229  13.129 -0.0936  0.2780 -0.0987
 5296W        W 9347   1.668   3.007  11.735 -0.2991  0.3258  0.0332
 5297W        W 9348   7.585   7.012   1.940  0.4359 -0.1063 -0.0798
 5298W        W 9349   0.140   1.084   4.101 -0.1346  0.0863  0.4706
 5299W        W 9350   1.692   5.099   0.798 -0.0610 -0.0662 -0.0622
 5300W        W 9351   0.283   6.818   9.945 -0.1133 -0.1255  0.0217
 5301W        W 9352   4.773   7.786   2.662 -0.3744 -0.0323  0.0920
 5302W        W 9353   3.527   9.585   0.346  0.2061 -0.4016 -0.0363
 5303W        W 9354   3.006   4.115   1.233 -0.0090 -0.2406 -0.2788
 5304W        W 9355   8.257   7.819   1.916 -0.0140  0.1228  0.0422
 5305W        W 9356   5.940   7.211   2.637 -0.0667  0.1833 -0.0215
 5306W        W 9357   0.292   1.560  13.414  0.3056  0.1548 -0.0059
 5307W        W 9358   2.688   0.914   2.532  0.0729 -0.1521 -0.0745
 5308W        W 9359   3.910  10.006   1.596  0.0132 -0.0173 -0.0144
 5309W        W 9360   8.986   5.577   1.002  0.0962  0.1860 -0.1282
 5310W        W 9361   2.354   5.287   3.292  0.0164  0.1212 -0.1320
 5311W        W 9362   9.418   0.724   1.368 -0.0831 -0.3354 -0.1186
 5312W        W 9363   9.149   9.621   0.677 -0.1382  0.1489  0.6721
 5313W        W 9364   9.980   6.863   1.445  0.0734  0.0678 -0.0923
 5314W        W 9365   7.062   2.430   2.573 -0.2199 -0.2125  0.3400
 5315W        W 9366   2.611   1.979   4.621 -0.0249 -0.0712  0.0034
 5316W        W 9367   8.588   1.358   4.018 -0.2738  0.1635  0.0971
 5317W        W 9368   5.504   0.888   3.814  0.4570 -0.2301 -0.1707
 5318W        W 9369   3.080   5.521  10.314  0.1898  0.0942  0.0684
 5319W        W 9370   7.810   2.027  10.082  0.0604 -0.5097 -0.1273
 5320W        W 9371   6.245   5.415  12.536  0.1073  0.0748  0.1036
 5321W        W 9372   2.515   9.350   4.593  0.3808 -0.2267  0.0236
 5322W        W 9373   4.764   9.158  12.952  0.0061 -0.0054  0.1136
 5323W        W 9374   1.792   3.757   3.209  0.1170 -0.0585  0.0305
 5324W        W 9375   5.266   5.753  12.581 -0.3420  0.1595 -0.0458
 5325W        W 9376   3.910   8.091  10.801  0.1761 -0.0314  0.0556
 5326W        W 9377   8.659   0.434  13.007 -0.1740 -0.4908 -0.2156
 5327W        W 9378   4.218   5.303   9.527 -0.0104  0.2102 -0.2481
 5328W        W 9379   1.499   4.672  12.318  0.0092 -0.0585 -0.0814
 5329W        W 9380   5.660   2.658  10.515 -0.0960  0.1905 -0.0970
 5330W        W 9381   6.646   4.501   1.497 -0.1892 -0.1324 -0.0215
 5331W        W 9382   9.926   6.548   6.055  0.1455 -0.2974  0.3976
 5332W        W 9383   9.215   6.931   3.652 -0.2355  0.1035 -0.1473
 5333W        W 9384   9.382   6.993   9.988 -0.0802 -0.1573 -0.0796
 5334W        W 9385   6.338   1.155   9.565 -0.2303 -0.2044  0.0305
 5335W        W 9386   5.072   4.163   0.853  0.0048  0.0492 -0.0843
 5336W        W 9387   2.905   1.902   2.813 -0.3763 -0.1611  0.3063
 5337W        W 9388   8.050   4.771  12.498  0.2133  0.0118 -0.2441
 5338W        W 9389   8.924   4.849  11.481  0.0792  0.1663 -0.2631
 5339W        W 9390   4.323   1.123  13.407  0.1631 -0.0246 -0.1486
 5340W        W 9391   4.551   1.806  11.902 -0.1654  0.0308  0.1205
 5341W        W 9392   8.501   9.013   0.111  0.0387  0.0984 -0.0316
 5342W        W 9393   8.118   1.945  12.494 -0.0331  0.0883 -0.0111
 5343W        W 9394   1.421   4.704   0.822  0.1794 -0.0925  0.1496
 5344W        W 9395   9.843   4.830   9.364  0.4491  0.0685 -0.2661
 5345W        W 9396   0.307   5.939   2.419 -0.0372 -0.4454 -0.0198
 5346W        W 9397   1.622   7.711  12.704 -0.2070  0.3134  0.0909
 5347W        W 9398   0.120   1.742   3.663 -0.2426  0.0114 -0.2876
 5348W        W 9399   9.281   4.121   4.576 -0.2655  0.0878 -0.0294
 5349W        W 9400   7.227   7.496   0.346  0.2701  0.2947  0.0688
 5350W        W 9401   0.805   9.191   2.470 -0.1762 -0.1755  0.0095
 5351W        W 9402   9.094   4.677   2.331 -0.3658 -0.0368 -0.0404
 5352W        W 9403   0.596   5.874  10.172 -0.1374 -0.2218  0.0016
 5353W        W 9404   5.707   1.546  10.374  0.1870  0.0033 -0.2119
 5354W        W 9405   7.682  10.119   0.200 -0.2331  0.0662 -0.0652
 5355W        W 9406   9.881   2.074  11.529 -0.1277  0.0932  0.3249
 5356W        W 9407   9.691   9.925  12.246  0.0780  0.0496 -0.0710
 5357W        W 9408   0.846   8.590  13.303 -0.0572  0.3414 -0.1903
 5358W        W 9409   5.329   1.462   0.949 -0.2778 -0.2594  0.1381
 5359W        W 9410   1.614  10.062   9.306  0.0864  0.0537  0.0467
 5360W        W 9411   7.143   5.903   4.994 -0.0777 -0.0061  0.1262
 5361W        W 9412   3.375   7.833  12.632  0.0491  0.0047 -0.3126
 5362W        W 9413   6.941   5.947  10.793 -0.2299 -0.0446 -0.0099
 5363W        W 9414   1.319   3.019   1.757 -0.0672 -0.1027 -0.0877
 5364W        W 9415   6.799   3.744  12.206 -0.0601  0.1508  0.0280
 5365W        W 9416   7.708   3.191  13.371  0.1450 -0.0351  0.0658
 5366W        W 9417   2.341   5.534   2.769  0.0875  0.0560 -0.0850
 5367W        W 9418  10.031   6.003   5.006 -0.1969  0.0986  0.2223
 5368W        W 9419   8.567   1.161  10.853 -0.0434 -0.3093 -0.4513
 5369W        W 9420   3.425   8.349  11.804 -0.0964  0.1002 -0.0401
 5370W        W 9421   6.210   6.926  13.909 -0.0829 -0.0877  0.0036
 5371W        W 9422   2.288   3.108   3.951 -0.0424  0.1583  0.3812
 5372W        W 9423   3.801   3.788  10.839  0.0447 -0.1031  0.1298
 5373W        W 9424   5.827   9.539  13.417 -0.1432  0.1324  0.1257
 5374W        W 9425   2.437   3.025  12.571  0.0312 -0.2420  0.0042
 5375W        W 9426   4.109   6.554  10.676 -0.0599  0.0735  0.0857
 5376W        W 9427   9.856   9.278   0.116 -0.1606  0.2202 -0.0966
 5377W        W 9428   7.922   3.797   3.310  0.3723 -0.2364  0.0267
 5378W        W 9429   8.955   8.445  13.108  0.0165  0.1568  0.0023
 5379W        W 9430   9.880   9.606  10.278 -0.1023 -0.2564  0.2187
 5380W        W 9431   4.379   7.634  10.402  0.2397  0.2585  0.0012
 5381W        W 9432  10.199   6.716  11.801  0.4561 -0.1704 -0.1064
 5382W        W 9433   7.391   3.145   4.854  0.0760  0.2825 -0.1783
 5383W        W 9434   3.758   0.848  12.427  0.3558  0.0320 -0.2187
 5384W        W 9435   9.073   0.649   4.678  0.0425 -0.1541 -0.1756
 5385W        W 9436   8.998   9.418   3.745 -0.2052 -0.2731 -0.1222
 5386W        W 9437   8.704   5.581   0.596 -0.2284 -0.0357 -0.1764
 5387W        W 9438   1.803   2.060  13.575  0.0088 -0.3358 -0.0688
 5388W        W 9439   5.099   7.387  10.998  0.1342 -0.1472 -0.0426
 5389W        W 9440   6.318   2.442   0.191  0.1136 -0.1091 -0.2028
 5390W        W 9441   3.896   1.992  10.083 -0.1711  0.2919 -0.0067
 5391W        W 9442   1.733   0.335  13.204  0.0208 -0.0534  0.0714
 5392W        W 9443   8.438   7.145   4.028  0.3450  0.3125  0.1552
 5393W        W 9444   7.848   8.600   3.034 -0.2515  0.2811  0.3804
 5394W        W 9445   0.599   2.752   1.562  0.2951 -0.0714  0.4423
 5395W        W 9446   7.929   2.399   4.597 -0.5035 -0.0782 -0.2063
 5396W        W 9447   8.849   3.053  12.268  0.0711 -0.1686  0.0267
 5397W        W 9448   3.392   4.416  11.968  0.2295 -0.3484  0.3283
 5398W        W 9449   3.254   6.257   0.074  0.0693  0.0692 -0.1554
 5399W        W 9450   9.699   8.651  13.598 -0.1318 -0.1011  0.0034
 5400W        W 9451   0.259   8.544   0.749 -0.3743  0.1057  0.1761
 5401W        W 9452   9.584   7.768  11.370  0.2112 -0.0665 -0.3106
 5402W        W 9453   6.790   9.084   1.185  0.1427  0.0230 -0.0227
 5403W        W 9454   4.931   2.516  13.306  0.1288 -0.0875  0.1924
 5404W        W 9455   0.556   9.508   2.948  0.2318  0.2660  0.0913
 5405W        W 9456   9.592   8.465   2.107 -0.3314  0.1637 -0.1565
 5406W        W 9457   5.108   3.959   4.178  0.0513  0.2392 -0.2283
 5407W        W 9458   5.138   3.731   3.268 -0.3718  0.0514  0.5178
 5408W        W 9459   3.779   0.475   9.988 -0.1391 -0.0165  0.1429
 5409W        W 9460   7.142   4.352  13.736 -0.3365 -0.2160 -0.0582
 5410W        W 9461   5.010   4.515  12.632 -0.0031  0.2198  0.1367
 5411W        W 9462   7.973   8.495  11.037 -0.1307 -0.0520  0.3782
 5412W        W 9463   3.301   3.968  13.760  0.1882  0.1583  0.0059
 5413W        W 9464   9.814   7.834   9.606 -0.0083 -0.1087  0.0486
 5414W        W 9465   1.738   8.266   1.107  0.1660 -0.0935  0.0510
 5415W        W 9466   3.536   6.515  11.847 -0.3795 -0.1350 -0.0240
 5416W        W 9467   7.055   6.454   2.351 -0.0551 -0.3026 -0.2252
 5417W        W 9468   6.574   5.694  12.186 -0.0543  0.0656  0.0642
 5418W        W 9469   0.726   0.592   0.287 -0.2764  0.2106 -0.0790
 5419W        W 9470   7.713   9.171   4.034 -0.0468  0.0879  0.2358
 5420W        W 9471   9.607   8.236  11.184  0.0580  0.4216  0.1799
 5421W        W 9472   3.205   3.421   0.702  0.0923  0.3512 -0.3343
 5422W        W 9473   2.811  10.098   0.707 -0.3689  0.0096 -0.1889
 5423W        W 9474   8.771   0.022   4.928  0.1729  0.1838 -0.3092
 5424W        W 9475   9.569   5.630  11.961  0.0140 -0.1499 -0.1542
 5425W        W 9476   5.069   3.217   0.258 -0.0178 -0.1387 -0.1033
 5426W        W 9477   5.987   0.653  10.262 -0.4174 -0.1046 -0.0343
 5427W        W 9478   8.592   8.966  12.056 -0.3377 -0.1307  0.2288
 5428W        W 9479   9.633   5.775   5.226 -0.1957 -0.1388 -0.0997
 5429W        W 9480   7.677   9.041  13.430 -0.1157  0.1886 -0.1154
 5430W        W 9481   6.934   0.470   3.999  0.0560 -0.1014  0.1203
 5431W        W 9482   6.040   7.440   0.117  0.0738  0.2797 -0.2450
 5432W        W 9483   9.208   0.164   0.681  0.2582 -0.0333 -0.2189
 5433W        W 9484   4.791   9.156  11.034 -0.1288  0.0959 -0.1257
 5434W        W 9485   0.811   5.925  12.832 -0.1715  0.2687  0.0377
 5435W        W 9486   6.801   0.859   5.322  0.0566  0.0437 -0.0664
 5436W        W 9487   5.945   1.817   1.507  0.2757  0.2861  0.1119
 5437W        W 9488   2.754   8.169  12.108 -0.3043  0.1319  0.4486
 5438W        W 9489   7.035   4.883   3.828 -0.0640  0.0694  0.1987
 5439W        W 9490   7.785   4.643  11.624 -0.2529 -0.0089  0.0033
 5440W        W 9491   2.080   5.071   4.313  0.0207  0.0224  0.3451
 5441W        W 9492   7.002   6.493  12.739 -0.2605  0.0325  0.1689
 5442W        W 9493   6.788   3.017  13.445 -0.3459 -0.1188  0.0169
 5443W        W 9494   0.775   4.323   0.111  0.2226 -0.1868 -0.0881
 5444W        W 9495   7.555   2.499  11.363 -0.2281  0.0010 -0.3544
 5445W        W 9496   8.651   3.400  12.628  0.0351 -0.1490 -0.1289
 5446W        W 9497   0.112   0.613   9.073 -0.1087 -0.1945 -0.2434
 5447W        W 9498   6.191   1.636  10.466  0.0422  0.2207 -0.0128
 5448W        W 9499   6.210   8.172  10.825 -0.0450 -0.0615 -0.2158
 5449W        W 9500   4.250   7.871   0.242  0.0665 -0.1326 -0.0053
 5450W        W 9501   8.070   0.492   0.871 -0.3484 -0.2599  0.0763
 5451W        W 9502   6.833   4.537   4.359 -0.1906  0.4048 -0.3071
 5452W        W 9503   8.696   5.944   2.913  0.2241 -0.0656  0.1660
 5453W        W 9504   1.888   1.916   0.548 -0.2735  0.5114  0.1182
 5454W        W 9505   8.852  10.058   0.736  0.1587 -0.4431 -0.2405
 5455W        W 9506   2.372   3.642  13.562  0.0064  0.2427  0.1445
 5456W        W 9507   4.201   4.524  11.208 -0.0267  0.1411 -0.0387
 5457W        W 9508   2.160   7.414  13.336  0.0679 -0.4903  0.1450
 5458W        W 9509   8.129   8.581   0.961 -0.0095 -0.0644  0.0092
 5459W        W 9510   2.164   2.310   0.960  0.1211  0.0166  0.3369
 5460W        W 9511   2.408   6.628   0.717  0.0535  0.2533 -0.2163
 5461W        W 9512   6.259  10.029   0.734 -0.0366  0.0510  0.1741
 5462W        W 9513   8.342   4.665  11.409 -0.0069 -0.2742  0.2983
 5463W        W 9514   1.982   6.059   1.087 -0.0062 -0.0795 -0.0470
 5464W        W 9515   8.761   4.662   5.399  0.1401  0.0538 -0.6040
 5465W        W 9516   1.992   0.417  10.846  0.0775 -0.0974  0.1696
 5466W        W 9517   5.770   4.653  12.999  0.2981 -0.0672 -0.2513
 5467W        W 9518   9.178   3.144   4.359  0.0501 -0.0027  0.2287
 5468W        W 9519   3.358  10.009   1.637  0.0355 -0.1079 -0.2004
 5469W        W 9520   7.064   4.879  13.709  0.2670 -0.0311 -0.2748
 5470W        W 9521   7.481   5.094  13.525 -0.1219 -0.0853  0.0880
 5471W        W 9522   0.207   4.496  12.454  0.2975  0.2107 -0.1309
 5472W        W 9523   9.365   7.801  13.383 -0.0144  0.1385  0.1375
 5473W        W 9524   2.177   4.525  10.196 -0.0970  0.1078  0.2479
 5474W        W 9525   1.226   3.326   4.560  0.0108  0.0412  0.1900
 5475W        W 9526   1.302   5.297   1.063 -0.3380  0.0967  0.0390
 5476W        W 9527   7.714   7.450  12.211  0.0591 -0.0508  0.0280
 5477W        W 9528   9.487   2.705   3.721 -0.2276 -0.0878 -0.0730
 5478W        W 9529   0.948   9.280  10.734  0.0105 -0.0455  0.0708
 5479W        W 9530   9.937   9.361   1.507  0.0997 -0.0144  0.0522
 5480W        W 9531   1.450   6.404  13.334  0.1499  0.3316  0.3033
 5481W        W 9532   9.045   3.777  13.707 -0.1839 -0.1306  0.1101
 5482W        W 9533   5.497   2.321   1.997 -0.1856  0.1890 -0.0278
 5483W        W 9534   2.018   7.772   1.943  0.0493  0.0943 -0.0557
 5484W        W 9535   2.137   5.549   4.483 -0.0435  0.1817  0.0113
 5485W        W 9536   3.272   7.319  13.366  0.1546 -0.2470 -0.2089
 5486W        W 9537   5.547   6.298   0.455 -0.2312 -0.0581 -0.1615
 5487W        W 9538   4.593   6.028   2.297 -0.0266 -0.3370  0.0945
 5488W        W 9539   9.956   1.987  12.902  0.0508  0.3669  0.4543
 5489W        W 9540   8.552   5.241   4.568 -0.2014 -0.2643 -0.0117
 5490W        W 9541   6.626   5.341   0.823  0.0525 -0.0177 -0.0058
 5491W        W 9542   4.220   0.603   1.573 -0.1088 -0.0660 -0.1895
 5492W        W 9543   3.920   8.308   1.547 -0.2319  0.1853 -0.0704
 5493W        W 9544   7.043   3.073  13.917 -0.0023  0.1255  0.0678
 5494W        W 9545   4.724   2.302   1.510  0.1224 -0.4081  0.0135
 5495W        W 9546   1.093   5.031   9.568 -0.0060 -0.1116 -0.0323
 5496W        W 9547   7.696   7.391  13.481  0.1395  0.0694 -0.0038
 5497W        W 9548   2.556   0.358   3.903  0.0951 -0.0251  0.1307
 5498W        W 9549   9.915  10.176   2.308  0.1387  0.2714  0.0705
 5499W        W 9550   3.933   8.278  13.384  0.0301 -0.2810  0.1774
 5500W        W 9551   6.791   9.041   2.288 -0.0875 -0.0920  0.0987
 5501W        W 9552   5.101   3.376  11.531 -0.1134  0.1414 -0.0186
 5502W        W 9553   6.629   0.078   3.867  0.0782  0.1455  0.2943
 5503W        W 9554   1.494   6.091   0.755 -0.0900  0.0524  0.0685
 5504W        W 9555   6.811   4.369   0.981 -0.3518 -0.1463 -0.1062
 5505W        W 9556   6.764   9.709  11.830  0.2137  0.0128  0.1159
 5506W        W 9557   4.117   8.520   2.446 -0.0351  0.0306 -0.1043
 5507W        W 9558   3.818   5.880   1.892  0.3725 -0.3857 -0.1148
 5508W        W 9559  10.053   3.690   4.451 -0.2400 -0.1360  0.0899
 5509W        W 9560   2.570   5.063   0.241  0.3849  0.0848 -0.1502
 5510W        W 9561   1.999   8.645   0.802 -0.2744  0.4769 -0.3535
 5511W        W 9562   1.822   1.680   4.571 -0.1195 -0.1276 -0.1927
 5512W        W 9563   5.718   4.926   3.711  0.1242  0.0484  0.0511
 5513W        W 9564   7.848   4.467  10.233 -0.1270  0.2192 -0.0157
 5514W        W 9565   3.637   0.111   1.953 -0.3903 -0.1480  0.1463
 5515W        W 9566   5.872   0.392   1.523 -0.1649 -0.1031 -0.2245
 5516W        W 9567   3.797   3.210   4.829 -0.0203  0.0019  0.2147
 5517W        W 9568   5.957   1.755   2.577 -0.0497  0.0368 -0.2521
 5518W        W 9569   0.135   1.228  10.936  0.1707  0.2733  0.0782
 5519W        W 9570   5.805   8.733   1.308 -0.2994 -0.0073  0.0565
 5520W        W 9571   6.090   3.985  12.340 -0.4146  0.2987 -0.3056
 5521W        W 9572   3.104   3.798  12.888  0.2033 -0.0652 -0.0101
 5522W        W 9573   1.170   3.522  13.274  0.1459 -0.0910  0.0327
 5523W        W 9574   3.074  10.056   1.205  0.0924 -0.0238  0.2546
 5524W        W 9575   8.286   0.055  13.010 -0.0289 -0.2063 -0.0330
 5525W        W 9576   4.297   1.932   2.872 -0.0284  0.0022  0.0683
 5526W        W 9577   5.512   8.661  13.410 -0.4224 -0.0264  0.1556
 5527W        W 9578   0.014   6.303   2.202 -0.0555 -0.1195 -0.1164
 5528W        W 9579   9.809   0.550  11.985  0.3004  0.1051 -0.0580
 5529W        W 9580   5.567   3.233   4.413 -0.1620 -0.0415 -0.0199
 5530W        W 9581   8.517   1.095  12.258  0.0272  0.0396 -0.0289
 5531W        W 9582   9.944   2.461   2.533  0.2619 -0.2133  0.1195
 5532W        W 9583   8.789   7.301   3.663  0.0802  0.0368 -0.1016
 5533W        W 9584   3.081   7.466   2.799  0.4834  0.2921  0.0116
 5534W        W 9585   3.724   2.609  11.789  0.1831 -0.0101  0.0696
 5535W        W 9586   0.693   4.446   4.871 -0.3848  0.0572 -0.3374
 5536W        W 9587   6.899   8.502  13.023 -0.1498  0.0497 -0.1121
 5537W        W 9588   8.890   6.880   3.284  0.1278 -0.0204 -0.1818
 5538W        W 9589   7.563   1.818   0.392 -0.0335 -0.3476  0.1153
 5539W        W 9590   7.433   0.790   4.040  0.3859 -0.2109 -0.2080
 5540W        W 9591   5.651   3.675  10.842 -0.0038  0.0917  0.2595
 5541W        W 9592   0.622   1.163  10.973  0.2152 -0.2292 -0.3730
 5542W        W 9593   6.409   2.558   2.020 -0.0965 -0.0881  0.0739
 5543W        W 9594   3.574   8.192  12.969 -0.2003  0.0239  0.1778
 5544W        W 9595   2.761   2.715   9.216  0.0979 -0.0562  0.2608
 5545W        W 9596   8.232   0.176  13.905 -0.1622 -0.0674 -0.1308
 5546W        W 9597   8.387   4.639  10.888 -0.1929 -0.1979  0.0480
 5547W        W 9598   0.834   1.095   1.077  0.2691 -0.0742  0.1548
 5548W        W 9599   1.411   6.552   0.850  0.1601  0.3562 -0.1827
 5549W        W 9600   9.875   4.574  12.711  0.2516 -0.0465 -0.0909
 5550W        W 9601   6.963   7.108  11.620 -0.0121  0.1126 -0.2272
 5551W        W 9602   0.762   4.974  13.570 -0.1421 -0.0975  0.0828
 5552W        W 9603   9.027   2.674   4.626 -0.1088 -0.0815 -0.3500
 5553W        W 9604   9.323   6.328   5.017 -0.2145 -0.3730 -0.1020
 5554W        W 9605   0.159   7.352  13.759 -0.0608  0.2657 -0.1431
 5555W        W 9606   1.913   2.257   2.860 -0.1185  0.1417  0.0035
 5556W        W 9607   9.818   8.884   1.259 -0.0118 -0.0179  0.0224
 5557W        W 9608   1.249   1.687   3.987  0.2780 -0.1191  0.2373
 5558W        W 9609   8.587   0.292  10.102  0.0890 -0.2587  0.0233
 5559W        W 9610   5.743   2.343  12.829  0.0132  0.1079  0.2134
 5560W        W 9611   9.594   9.346   2.753  0.1725 -0.1953  0.2751
 5561W        W 9612   1.702   7.741  10.150  0.3395  0.0056  0.3922
 5562W        W 9613   2.944   5.692  10.785  0.1487  0.1760  0.0085
 5563W        W 9614   4.318   6.515  12.986  0.3108  0.0832  0.4471
 5564W        W 9615  10.189   2.686   2.120 -0.1327  0.3916 -0.0421
 5565W        W 9616   8.466   1.603  10.615 -0.3033  0.1389 -0.0492
 5566W        W 9617   5.824  10.120   1.540 -0.0685 -0.0270  0.0243
 5567W        W 9618   6.637   7.282   3.325 -0.4092 -0.3917  0.1994
 5568W        W 9619   0.139   7.590   3.131  0.3013 -0.1801 -0.3878
 5569W        W 9620   7.121   0.670   9.470  0.1675  0.0257  0.3708
 5570W        W 9621   6.033   7.058   0.480  0.0735  0.1766  0.2352
 5571W        W 9622   2.689   3.109   0.981  0.1610  0.1095 -0.1922
 5572W        W 9623   1.626   2.746   9.789  0.0586 -0.0680 -0.0143
 5573W        W 9624   5.285   7.722  13.336 -0.0506 -0.4022 -0.1282
 5574W        W 9625   7.491   1.716   9.247 -0.3174 -0.1833  0.1243
 5575W        W 9626   2.000   5.260   1.145 -0.0142 -0.1379  0.1027
 5576W        W 9627   1.593   9.892  10.215  0.3183  0.0281  0.0827
 5577W        W 9628   3.372   0.709   5.641  0.1878  0.1602  0.0028
 5578W        W 9629   3.131   2.893   0.710 -0.0836  0.0285 -0.5254
 5579W        W 9630   8.930   7.984  10.722  0.0916 -0.0104  0.2171
 5580W        W 9631   4.436   9.505  10.841 -0.2941 -0.0970  0.1053
 5581W        W 9632   2.166   9.733   1.194  0.0499 -0.0022  0.1143
 5582W        W 9633   6.792   8.592   1.110  0.2440 -0.1614 -0.0185
 5583W        W 9634   0.391   6.025  12.649  0.0378 -0.0663 -0.0238
 5584W        W 9635   4.391   4.954   2.875  0.3057  0.1764 -0.0776
 5585W        W 9636   0.942   8.130  12.079 -0.2610  0.0403 -0.1196
 5586W        W 9637   6.363   1.630  11.882  0.1039  0.2347  0.0803
 5587W        W 9638   1.159   6.649   2.649 -0.1202 -0.1947  0.0516
 5588W        W 9639   9.398   1.993   4.504 -0.0644 -0.1895 -0.0339
 5589W        W 9640   5.610   0.760   4.391  0.1169 -0.1686  0.2293
 5590W        W 9641   6.588   2.138   1.194  0.0728  0.1397 -0.4981
 5591W        W 9642   0.770   1.441  11.356 -0.0851  0.0610 -0.1704
 5592W        W 9643   7.401   8.623   0.408  0.2597 -0.0408  0.5960
 5593W        W 9644   7.027  10.015   9.757  0.0783  0.0848 -0.0798
 5594W        W 9645   4.515   5.074  10.600 -0.3176  0.0248  0.3275
 5595W        W 9646   5.208   7.224  13.372  0.2565 -0.0643 -0.0788
 5596W        W 9647   8.012   2.437  11.499 -0.2400  0.1586 -0.2554
 5597W        W 9648  10.199   4.260   9.990  0.1232  0.2341  0.1443
 5598W        W 9649   7.614   1.614   9.797 -0.0028  0.1739  0.0253
 5599W        W 9650   4.638   7.705   0.501  0.0212  0.2175 -0.3238
 5600W        W 9651   7.910   8.734   1.695 -0.2011 -0.0891  0.2834
 5601W        W 9652   3.679   5.516  13.414  0.1327 -0.1133  0.0302
 5602W        W 9653   4.995   9.880  11.797  0.0491 -0.0416 -0.1654
 5603W        W 9654   0.565   2.291  11.274 -0.1628  0.0028 -0.2227
 5604W        W 9655   8.489   6.692   4.252  0.3392  0.2697 -0.0383
 5605W        W 9656   7.311   0.294  12.213 -0.0082 -0.0655  0.1154
 5606W        W 9657   5.499   3.171  11.860  0.2280  0.1138  0.0084
 5607W        W 9658   6.689   9.311   2.769  0.3332 -0.1875  0.2155
 5608W        W 9659   0.563   8.512   5.284  0.1739  0.0962 -0.0771
 5609W        W 9660   8.152   1.279   4.775 -0.0493  0.0330 -0.0441
 5610W        W 9661   4.718   9.794   3.839 -0.0017 -0.0735  0.0186
 5611W        W 9662   5.991   9.298   9.745 -0.3202  0.2338 -0.0255
 5612W        W 9663   6.316   9.525  10.732 -0.0853  0.2051  0.0130
 5613W        W 9664   5.332   8.207   0.383 -0.1178 -0.1256 -0.1131
 5614W        W 9665   2.682   1.893   5.289  0.1701 -0.0909  0.0673
 5615W        W 9666   4.136   9.936   1.116  0.1432  0.1574  0.1949
 5616W        W 9667   8.584   0.952  12.808 -0.0193  0.0402 -0.0114
 5617W        W 9668   9.863   0.930   1.508 -0.0146 -0.4504  0.4301
 5618W        W 9669   9.869   6.552   4.320  0.2945 -0.1330  0.0607
 5619W        W 9670   7.238   8.420  11.275  0.1176 -0.1623 -0.0421
 5620W        W 9671  10.123   8.294   1.063  0.1833 -0.1405 -0.0108
 5621W        W 9672   5.275   9.210   4.213 -0.2249  0.4127  0.0251
 5622W        W 9673   5.284   3.608  11.129 -0.0673 -0.2643 -0.2122
 5623W        W 9674   7.916   4.391  11.122  0.1001  0.1945  0.0679
 5624W        W 9675   7.932   6.021  11.902 -0.2133 -0.1430  0.1862
 5625W        W 9676   2.841   2.820  11.611 -0.0599 -0.0972 -0.1091
 5626W        W 9677   0.466   8.765   3.945 -0.4298  0.1533 -0.1527
 5627W        W 9678   4.564   5.158   1.564 -0.2153  0.0603  0.0863
 5628W        W 9679   8.252   6.069  11.045  0.0114 -0.0222  0.0758
 5629W        W 9680  10.126   0.830  10.644 -0.1340 -0.3384 -0.1318
 5630W        W 9681   4.084   5.915   2.356  0.0147  0.0201  0.1581
 5631W        W 9682   4.943   5.928  13.675  0.1404 -0.4032 -0.0420
 5632W        W 9683   9.122   8.461   2.991  0.0840  0.1899  0.2150
 5633W        W 9684   6.306   6.624   1.223  0.2614 -0.0484  0.0751
 5634W        W 9685   2.340   3.923   0.594 -0.0791  0.2243 -0.2509
 5635W        W 9686   3.499   8.351  13.667 -0.0807 -0.1675  0.3083
 5636W        W 9687   1.310   3.060  12.560  0.4059 -0.3060  0.2005
 5637W        W 9688   7.691   4.671  13.761  0.0858  0.0507 -0.1230
 5638W        W 9689   3.857   1.613   3.025 -0.4237  0.1183  0.0628
 5639W        W 9690   2.786   4.246  12.036 -0.0510  0.4598 -0.0430
 5640W        W 9691   1.134   9.951  13.114  0.0584 -0.0493  0.2318
 5641W        W 9692   6.971   1.320  13.046  0.1094  0.0220  0.1930
 5642W        W 9693   0.427   1.716  11.684  0.0439 -0.0762 -0.3993
 5643W        W 9694   3.532   0.895  11.967 -0.1205 -0.3431 -0.0458
 5644W        W 9695   5.050   3.905  11.437 -0.2927  0.0031 -0.0586
 5645W        W 9696   3.109   5.359  13.507  0.2958  0.3085 -0.1652
 5646W        W 9697   9.827   9.344   4.112 -0.0944 -0.1180 -0.0358
 5647W        W 9698   3.501   0.955   3.178  0.4086  0.1776  0.0809
 5648W        W 9699   7.888   7.161  12.852 -0.0420  0.0326  0.1025
 5649W        W 9700   0.539   2.449   2.748  0.2509 -0.0626  0.0380
 5650W        W 9701   5.204   3.471  13.321 -0.2033 -0.2148  0.0451
 5651W        W 9702   1.740   4.340  11.988  0.3556 -0.0186 -0.0874
 5652W        W 9703   3.393   2.912  12.087  0.5416 -0.3476  0.0708
 5653W        W 9704   5.093   2.942   3.873 -0.1477 -0.2263  0.1013
 5654W        W 9705   3.981   9.045   1.011  0.0191 -0.0792  0.1618
 5655W        W 9706   4.598   3.825   1.389 -0.2670  0.1808  0.3453
 5656W        W 9707   4.908   8.690  10.961  0.0881 -0.1196 -0.0345
 5657W        W 9708   4.424   5.887  13.755 -0.1272  0.1145 -0.0391
 5658W        W 9709   0.770   5.379  11.943  0.3651  0.0733  0.0068
 5659W        W 9710   4.753   4.463  11.991  0.2332  0.0925  0.1122
 5660W        W 9711   1.280   6.132  11.540  0.2427  0.2988  0.0449
 5661W        W 9712   4.548   4.138  13.348  0.0374 -0.1770  0.0628
 5662W        W 9713   6.991   7.642   3.453 -0.0325  0.0061 -0.2225
 5663W        W 9714   3.173   1.161   1.746  0.0867  0.1196 -0.3566
 5664W        W 9715   7.451   8.916  11.017 -0.1101  0.0356  0.0674
 5665W        W 9716   8.221   9.669   3.164 -0.2510  0.0648  0.3467
 5666W        W 9717   6.461   8.162  12.330  0.0532 -0.1190 -0.1869
 5667W        W 9718   3.090   2.322   0.201  0.2079  0.0340  0.0520
 5668W        W 9719   2.688   3.787   1.634  0.2812 -0.0180  0.1897
 5669W        W 9720   8.345   6.594  13.653  0.2608 -0.1835  0.0156
 5670W        W 9721   7.319   7.435  11.946 -0.1510 -0.2288 -0.0139
 5671W        W 9722   2.072   0.446   2.003 -0.0514 -0.0400 -0.0919
 5672W        W 9723   2.625   5.183  12.020 -0.0451 -0.2370  0.3262
 5673W        W 9724   0.697   4.717   1.589  0.0744 -0.2283 -0.1005
 5674W        W 9725   1.983   0.111   9.574 -0.0941  0.0019  0.0641
 5675W        W 9726   0.755   3.944   1.072 -0.2886 -0.0500 -0.2220
 5676W        W 9727   9.463   7.129  10.935  0.4323  0.1426 -0.0068
 5677W        W 9728   1.300   8.555  12.083 -0.0210 -0.0809  0.0119
 5678W        W 9729   9.539   2.925   3.183  0.2550  0.2585 -0.1400
 5679W        W 9730   6.868   3.275   3.736  0.0750  0.3993  0.3019
 5680W        W 9731   5.921   2.849   4.422 -0.1412 -0.0132 -0.1514
 5681W        W 9732   8.337   4.077  11.065  0.1612 -0.3283 -0.1161
 5682W        W 9733   0.806   6.350  13.668  0.2643  0.0737 -0.1805
 5683W        W 9734   9.520   2.574   2.806 -0.0177 -0.0729  0.2085
 5684W        W 9735   5.422   1.896  12.055  0.0902 -0.0761  0.3280
 5685W        W 9736   0.816   2.259   8.782 -0.1269 -0.1899 -0.0313
 5686W        W 9737   1.532   2.251   4.408  0.2193  0.3612  0.3227
 5687W        W 9738   0.627   9.626  11.107  0.2556  0.3082  0.2181
 5688W        W 9739   9.776   0.792   3.677 -0.3284  0.0709  0.1675
 5689W        W 9740   1.657   8.562  10.791 -0.1234  0.0397 -0.0038
 5690W        W 9741   2.727   1.543  12.831  0.0782  0.1255  0.3100
 5691W        W 9742   5.225   9.081  10.775  0.0910  0.1421 -0.2338
 5692W        W 9743   3.783   3.165   3.499  0.2813 -0.1892  0.2156
 5693W        W 9744   6.234   1.066  13.542 -0.0032 -0.2194 -0.0951
 5694W        W 9745   6.044   5.542   0.405 -0.1095 -0.4732 -0.0749
 5695W        W 9746   8.729   8.738   4.521  0.2757  0.0837  0.1197
 5696W        W 9747   0.482   8.515  13.013 -0.2184 -0.2152 -0.2252
 5697W        W 9748   5.107  10.047   2.782  0.1250 -0.1781  0.3589
 5698W        W 9749   5.538   2.104   2.444  0.3647 -0.1571 -0.0664
 5699W        W 9750   5.029   4.172   3.109  0.1493  0.1878  0.0400
 5700W        W 9751   9.233   6.538   4.520  0.1841 -0.2009 -0.1058
 5701W        W 9752   5.675   0.180  11.573 -0.5635 -0.2496 -0.0161
 5702W        W 9753   8.131   2.574   8.982 -0.1312 -0.1473 -0.3386
 5703W        W 9754   0.198   1.865   4.728  0.1936 -0.4327  0.1786
 5704W        W 9755   1.639   9.851   1.116  0.1050  0.4832  0.2750
 5705W        W 9756   0.872   2.824   2.061 -0.2204  0.0453  0.3265
 5706W        W 9757   8.832   8.896   8.859 -0.4084 -0.0438 -0.0866
 5707W        W 9758   2.436   5.316   1.450 -0.0500 -0.0125 -0.0284
 5708W        W 9759   4.808   8.077  10.117  0.1748  0.1517 -0.0935
 5709W        W 9760   7.198   7.123   9.364  0.1486 -0.0054 -0.0632
 5710W        W 9761   6.300   7.407  10.518  0.0016 -0.0357 -0.0335
 5711W        W 9762   3.084   6.582   0.401 -0.3229  0.3180 -0.0794
 5712W        W 9763   0.300   0.359   1.047 -0.0774  0.0068  0.0822
 5713W        W 9764   8.944   4.203   4.198 -0.2879  0.2346  0.2316
 5714W        W 9765   6.395   8.269   1.945  0.0865 -0.0180  0.2172
 5715W        W 9766   6.581   9.718   0.651 -0.3355  0.1866  0.1185
 5716W        W 9767   7.037   9.950   0.752  0.0773 -0.2562 -0.0882
 5717W        W 9768   1.722   5.538  10.805 -0.1072 -0.2440  0.0842
 5718W        W 9769   6.199   9.065   1.207 -0.1542  0.1230  0.1533
 5719W        W 9770   2.811   1.885  11.339 -0.0670 -0.1055 -0.1008
 5720W        W 9771   7.076   7.790   1.531 -0.5625  0.0095  0.4279
 5721W        W 9772   5.273   2.271  13.589  0.0631 -0.2748  0.2396
 5722W        W 9773  10.182   9.171   1.076  0.3144  0.1431  0.1336
 5723W        W 9774   9.176   7.458  13.709  0.1444 -0.1649  0.0630
 5724W        W 9775   7.774   6.192   3.010 -0.3850  0.4081 -0.0293
 5725W        W 9776   5.687   8.984  10.607  0.0690 -0.0478 -0.0150
 5726W        W 9777   1.359   8.921   2.554 -0.1380  0.1134 -0.4828
 5727W        W 9778   0.750   7.929   0.471  0.1484  0.1611 -0.1475
 5728W        W 9779   1.552   1.283   3.641  0.3071  0.0671  0.3193
 5729W        W 9780   9.471   8.641   9.460 -0.0490 -0.1235  0.3595
 5730W        W 9781   3.749   6.032  13.149 -0.0063  0.2306  0.0113
 5731W        W 9782   9.328   9.679   1.981 -0.0770 -0.2514  0.0713
 5732W        W 9783   2.579   4.124   2.627  0.0962  0.0028 -0.0540
 5733W        W 9784   3.310   2.949   3.620  0.0764  0.0242 -0.0350
 5734W        W 9785   1.125   4.943   1.453 -0.0945 -0.1029 -0.0710
 5735W        W 9786   1.672   4.567   4.471 -0.3000  0.0555  0.1645
 5736W        W 9787   7.434   3.811  10.101  0.2166 -0.2588  0.0686
 5737W        W 9788   9.061   9.495   9.997 -0.0698  0.2625 -0.2636
 5738W        W 9789   1.535   0.531   2.134 -0.1938  0.0608  0.1788
 5739W        W 9790   7.044   0.914   1.268 -0.0549 -0.1597 -0.2040
 5740W        W 9791   0.454   9.913   1.660  0.1168  0.0623  0.3842
 5741W        W 9792   7.495   8.443   2.704 -0.1862 -0.0345  0.2274
 5742W        W 9793   1.703   6.935  11.598  0.2366  0.1389 -0.0600
 5743W        W 9794   7.167   4.585   9.855  0.0137  0.0233  0.0421
 5744W        W 9795   5.403   0.486   1.517  0.3968  0.2759  0.0065
 5745W        W 9796   5.343   1.657   4.623 -0.1548 -0.0736  0.2555
 5746W        W 9797   4.488  10.186  12.258  0.2787  0.2963  0.0846
 5747W        W 9798   9.935   1.474  12.169 -0.3779  0.0989  0.2715
 5748W        W 9799   8.944   6.418   4.121 -0.0180  0.0788  0.2476
 5749W        W 9800   4.359   9.054  10.628  0.0048 -0.0996 -0.3009
 5750W        W 9801   4.353   5.360  11.616  0.2939 -0.2644 -0.3258
 5751W        W 9802   1.646   1.745   1.861 -0.2263  0.0568 -0.0368
 5752W        W 9803   4.985   0.609  11.839  0.0838 -0.2093 -0.1169
 5753W        W 9804   5.787   2.806  11.715 -0.1859  0.0503  0.1536
 5754W        W 9805   9.654   3.111  10.224  0.0804  0.5947  0.2088
 5755W        W 9806   1.958   4.822  12.130  0.0666  0.4281 -0.0949
 5756W        W 9807   4.613   3.838  10.681  0.2048  0.2346 -0.1328
 5757W        W 9808   7.253   0.990  11.743  0.0023  0.1635 -0.2471
 5758W        W 9809   2.859   4.692   1.943  0.1073 -0.1105  0.2120
 5759W        W 9810   0.492   2.169   4.946 -0.0537 -0.1017  0.0867
 5760W        W 9811   2.769   4.698  12.869  0.0108  0.2116 -0.0225
 5761W        W 9812   1.030   6.948  11.084  0.1389 -0.2584  0.1967
 5762W        W 9813   6.707   9.146  10.803 -0.1624  0.1368  0.0965
 5763W        W 9814   7.017   9.247   4.464  0.0434 -0.0609  0.2529
 5764W        W 9815   6.822   5.248  12.207 -0.2573  0.1030 -0.0995
 5765W        W 9816   0.972   3.250   5.508  0.0751 -0.0373  0.2192
 5766W        W 9817   3.816   3.681  12.322 -0.2373 -0.0845  0.1966
 5767W        W 9818   7.129   4.030  10.567 -0.1106 -0.1141  0.0255
 5768W        W 9819   2.723   8.172  10.099 -0.1094 -0.1394 -0.1033
 5769W        W 9820   6.960   6.972  10.679  0.1165 -0.2769  0.2133
 5770W        W 9821   4.538   3.919   0.891 -0.2232  0.0133 -0.1694
 5771W        W 9822   9.311   6.436   8.797 -0.2925  0.3041 -0.2050
 5772W        W 9823   7.978   2.120   4.050  0.0140 -0.1558 -0.1103
 5773W        W 9824   9.916   6.313  13.686  0.3277  0.2098  0.0764
 5774W        W 9825   1.763   2.336   3.627  0.1773 -0.1251  0.0926
 5775W        W 9826   5.510   4.819  10.891  0.1511  0.1151 -0.0606
 5776W        W 9827   1.134   1.831   3.513 -0.0534  0.3843 -0.0319
 5777W        W 9828   5.323   6.636   2.202  0.0983  0.2598  0.0849
 5778W        W 9829   0.505   4.400   9.808  0.0322 -0.0355  0.1721
 5779W        W 9830   3.252   1.938   9.194 -0.2142  0.1633  0.1493
 5780W        W 9831   3.541   3.802  10.409 -0.2362  0.0809 -0.1354
 5781W        W 9832   3.884   0.029  12.893 -0.1353 -0.0542  0.1215
 5782W        W 9833   7.640   6.973   4.684 -0.1265 -0.2430  0.0005
 5783W        W 9834   9.332   3.584  10.948 -0.1056  0.0236 -0.2285
 5784W        W 9835   4.182   0.712  11.379 -0.0894 -0.2751  0.1352
 5785W        W 9836   8.675   2.977   2.544 -0.1671 -0.1822  0.1363
 5786W        W 9837   1.887   0.473   9.285 -0.2986  0.1258  0.1519
 5787W        W 9838   9.769   2.003   2.290  0.1010  0.1307 -0.0642
 5788W        W 9839   3.736   9.160   0.492  0.2141 -0.0959 -0.2379
 5789W        W 9840   5.638   7.781  12.799 -0.0191 -0.0517  0.0109
 5790W        W 9841   0.384   7.997   2.851 -0.0559  0.0827  0.0217
 5791W        W 9842   7.843   2.529   0.923  0.0213 -0.0108  0.0586
 5792W        W 9843   7.102   3.159   0.462  0.0665  0.0443 -0.1441
 5793W        W 9844   9.721   3.954   4.849 -0.0068  0.0166  0.0562
 5794W        W 9845   0.013   2.600   0.654  0.3509  0.2655  0.1653
 5795W        W 9846   8.690   5.042  10.553  0.0466  0.0481 -0.1757
 5796W        W 9847   0.796   3.255   1.814  0.4011  0.0603 -0.0285
 5797W        W 9848  10.133   9.932   0.990 -0.1152  0.3934 -0.0784
 5798W        W 9849   9.793   8.799   3.409  0.1187  0.3362  0.0187
 5799W        W 9850   8.909   1.745   0.724 -0.2298  0.0248  0.2894
 5800W        W 9851   3.231   6.143   3.649 -0.1445 -0.4465 -0.0858
 5801W        W 9852   2.200   3.395  10.672 -0.0665 -0.1112  0.1294
 5802W        W 9853   6.422   8.282  13.055  0.1234 -0.2042 -0.0468
 5803W        W 9854   0.669   3.423  11.548  0.1967 -0.1790 -0.1646
 5804W        W 9855   0.567   1.447   1.430 -0.1019  0.0046 -0.1777
 5805W        W 9856   5.657   4.320   9.799 -0.1742  0.0287 -0.1334
 5806W        W 9857  10.047   6.532   4.872 -0.0270 -0.1693 -0.2171
 5807W        W 9858   0.408   4.019  12.419  0.0062  0.2992  0.3802
 5808W        W 9859   0.638   4.511   2.532 -0.0585 -0.3268 -0.0164
 5809W        W 9860   9.104   3.874  11.920  0.2347 -0.1534 -0.1009
 5810W        W 9861  10.024   0.122   9.925 -0.2028  0.2284  0.2292
 5811W        W 9862   8.560   3.949   0.723  0.1170 -0.0059 -0.2363
 5812W        W 9863   1.218   0.742   0.166  0.1977 -0.1791  0.2356
 5813W        W 9864   8.704   8.343   1.462  0.1891  0.1715 -0.3983
 5814W        W 9865   0.021   1.417   4.420  0.1733 -0.1643 -0.2622
 5815W        W 9866  10.028   9.106  10.220 -0.1424 -0.0826  0.0354
 5816W        W 9867   3.238   2.060  11.037 -0.1217 -0.2967 -0.2910
 5817W        W 9868   4.509   0.597   3.332 -0.4053  0.0359 -0.2267
 5818W        W 9869   2.256   7.446   1.671 -0.0056 -0.2075 -0.0938
 5819W        W 9870   5.541   7.417  11.919  0.3349 -0.0039  0.0648
 5820W        W 9871   1.618   8.082   1.955  0.1756 -0.0536 -0.0744
 5821W        W 9872   8.343   4.080  13.641  0.0247  0.2422  0.1409
 5822W        W 9873   8.430   6.825   0.483 -0.2445 -0.1597 -0.1348
 5823W        W 9874   8.412   9.616  13.751  0.0908  0.0185  0.0767
 5824W        W 9875   3.658   8.742   2.322 -0.0488 -0.0200 -0.2200
 5825W        W 9876   5.632   9.752  12.389 -0.0402  0.1051  0.0203
 5826W        W 9877   3.024   5.999   3.114  0.1417 -0.2487 -0.0993
 5827W        W 9878   5.430   7.890  11.485  0.0490  0.2515  0.0490
 5828W        W 9879   6.922   4.708   0.633 -0.1042  0.0747  0.0306
 5829W        W 9880   3.843   8.729   1.356 -0.0626  0.1140  0.0537
 5830W        W 9881   2.327   5.162   2.395  0.3805  0.2592 -0.4764
 5831W        W 9882   8.591   8.425   0.721 -0.0538  0.0061 -0.2770
 5832W        W 9883   8.909   6.208  12.722 -0.2864 -0.0036  0.0817
 5833W        W 9884  10.191   3.556  11.247  0.1301  0.0414 -0.2575
 5834W        W 9885   6.178   8.838   3.611 -0.0442  0.0617 -0.0119
 5835W        W 9886   9.304   0.013  11.455 -0.1418  0.0626 -0.0770
 5836W        W 9887   0.013   6.836   5.257  0.1979  0.3430  0.3444
 5837W        W 9888   8.729   1.199   8.702 -0.3352 -0.0500 -0.0109
 5838W        W 9889   6.297   6.116   3.862 -0.0142  0.0447 -0.4462
 5839W        W 9890   9.115   9.657  10.908  0.1572  0.2296  0.0878
 5840W        W 9891   0.965   6.991   9.096 -0.0133 -0.0763 -0.0020
 5841W        W 9892   7.560   8.051  10.389  0.0390 -0.2644 -0.3371
 5842W        W 9893   8.697   4.369   4.568 -0.3823 -0.0474  0.1109
 5843W        W 9894   5.909   3.097  10.396  0.1431  0.3337 -0.2489
 5844W        W 9895   2.340   0.020   3.546 -0.0133  0.1025 -0.0978
 5845W        W 9896   0.639   5.121   1.265  0.1021 -0.2459 -0.0671
 5846W        W 9897   0.319   6.368   4.773  0.1947  0.1303  0.2664
 5847W        W 9898   5.153   1.086   3.457  0.1067 -0.0657  0.3436
 5848W        W 9899   0.187   1.618   9.404 -0.2130  0.1110  0.0915
 5849W        W 9900   0.691   8.663  12.211 -0.1824 -0.3223  0.2196
 5850W        W 9901   1.529   8.513   1.565 -0.0035 -0.0002  0.4058
 5851W        W 9902   7.648   9.598  12.945 -0.0629  0.1641  0.4785
 5852W        W 9903   9.194   8.843   4.579 -0.1933 -0.0578  0.2991
 5853W        W 9904   3.696   5.790  11.267  0.5038 -0.3338  0.0737
 5854W        W 9905   1.610   2.766   3.497 -0.0743  0.1245  0.1868
 5855W        W 9906   8.795   3.559  11.712 -0.1591  0.1558 -0.0303
 5856W        W 9907   0.368   7.443   1.097  0.1672 -0.1483 -0.0603
 5857W        W 9908   3.745   4.177  11.164  0.1283  0.2377 -0.1559
 5858W        W 9909   7.165   0.157   1.059  0.1516 -0.1112  0.0335
 5859W        W 9910   5.727   4.069  12.751 -0.0649 -0.1358 -0.0027
 5860W        W 9911   6.963   9.077  10.152  0.2396 -0.0806  0.0032
 5861W        W 9912   4.772   0.118   3.556 -0.1079 -0.1188  0.0387
 5862W        W 9913   3.192   2.553   2.993 -0.2755 -0.0160 -0.2264
 5863W        W 9914   0.619   1.299   5.228 -0.1889 -0.1871  0.0843
 5864W        W 9915   1.782   7.332   2.910 -0.0158 -0.2640 -0.1192
 5865W        W 9916   3.193   3.245   2.569  0.0066 -0.1125  0.1242
 5866W        W 9917   2.984   6.939  10.680 -0.1759  0.3296 -0.0580
 5867W        W 9918   5.440   5.785   1.103  0.2773 -0.0831  0.0146
 5868W        W 9919   3.313   2.198   2.721  0.0451 -0.0260 -0.1307
 5869W        W 9920   9.129   1.406   2.751 -0.0062  0.0404 -0.1194
 5870W        W 9921   9.522   5.901   4.284  0.1137 -0.0990  0.1579
 5871W        W 9922   0.648   9.128   3.308 -0.0162 -0.1493  0.2458
 5872W        W 9923   9.855   5.280  13.496 -0.2508  0.1918 -0.0456
 5873W        W 9924   8.798   8.519   9.797 -0.0670 -0.0257  0.1237
 5874W        W 9925   6.908   1.130  10.166 -0.0332 -0.1606  0.1047
 5875W        W 9926   2.880   6.829   0.954 -0.1102 -0.3332  0.0334
 5876W        W 9927   1.941   1.570   9.907  0.1301  0.4506  0.1167
 5877W        W 9928   7.179   0.644   0.861  0.0317  0.0251 -0.1195
 5878W        W 9929   6.711   7.576   3.944 -0.1608  0.1886  0.1852
 5879W        W 9930   0.431   3.909   0.139  0.0331  0.1293 -0.0021
 5880W        W 9931   4.070   9.768  10.058 -0.0135 -0.0799 -0.0602
 5881W        W 9932   7.049   6.239   0.973  0.1447  0.0762  0.1161
 5882W        W 9933   5.645   1.424   2.974  0.0292 -0.0689  0.2904
 5883W        W 9934   6.289   1.351   4.707 -0.3900  0.0965 -0.0278
 5884W        W 9935   2.193   1.823   2.790 -0.1154  0.0012 -0.1140
 5885W        W 9936   4.567   4.111   3.826  0.0498 -0.0636  0.0586
 5886W        W 9937   0.847   6.566   3.929  0.3566  0.0173 -0.0583
 5887W        W 9938   2.346   2.642   4.094  0.4913  0.1317 -0.1025
 5888W        W 9939   0.230   4.688  12.870  0.2764  0.2402  0.3727
 5889W        W 9940   2.307   6.889   4.172  0.4112  0.3078 -0.0674
 5890W        W 9941   4.153   3.166  12.456 -0.1762  0.0744 -0.0793
 5891W        W 9942   3.448   6.651   2.732 -0.3867 -0.0295 -0.0307
 5892W        W 9943   6.050   2.123   1.861 -0.0379  0.4258 -0.1790
 5893W        W 9944   0.148   7.085  12.970  0.0175  0.0624 -0.0743
 5894W        W 9945   2.742   4.374   4.869 -0.1929  0.1954 -0.1728
 5895W        W 9946   3.488   7.240   9.926  0.1213  0.0866  0.0005
 5896W        W 9947   6.085   3.961   9.639  0.0523  0.2475 -0.3158
 5897W        W 9948   3.127   9.533  10.453  0.0116  0.1463  0.1481
 5898W        W 9949   3.585   2.878  10.805  0.2144  0.0593  0.2824
 5899W        W 9950   7.444   8.315   9.864  0.1845 -0.1210 -0.0399
 5900W        W 9951   0.066   4.502   9.520  0.1180 -0.0237  0.0868
 5901W        W 9952   0.432   9.242   3.711  0.0935  0.1282  0.1971
 5902W        W 9953   5.301   8.098   0.895  0.1767 -0.0662  0.0924
 5903W        W 9954   0.566   9.686  10.552  0.2734 -0.2141 -0.1290
 5904W        W 9955   2.197   4.185  11.956 -0.0703  0.1295 -0.1144
 5905W        W 9956   1.561   3.468   4.864  0.2498  0.2515 -0.1302
 5906W        W 9957   5.332   4.667   3.587  0.0972 -0.0396 -0.4783
 5907W        W 9958   8.487   3.318  12.020  0.0748  0.0639  0.0307
 5908W        W 9959   4.116   7.666  12.100  0.1565 -0.4015  0.1099
 5909W        W 9960   0.108   0.809   2.651 -0.4516 -0.1245  0.0941
 5910W        W 9961   1.128   3.884   4.759 -0.3507  0.0715 -0.2653
 5911W        W 9962   0.153   0.825   9.562 -0.1463 -0.0237  0.0650
 5912W        W 9963   2.747   6.379  11.263 -0.0169  0.0592 -0.0164
 5913W        W 9964   8.436   9.202   3.723 -0.2101 -0.6639 -0.0240
 5914W        W 9965   5.315   2.245   4.593 -0.2141  0.4356 -0.0057
 5915W        W 9966   6.755   0.456   1.243 -0.0022  0.1125 -0.2430
 5916W        W 9967   9.468   6.780   4.107  0.2016 -0.2042  0.1533
 5917W        W 9968   8.823   1.759  13.814  0.0153  0.0251  0.1453
 5918W        W 9969   9.829   5.423   1.379 -0.1266  0.2111 -0.0488
 5919W        W 9970   1.248  10.192   2.021 -0.3436  0.3642 -0.0928
 5920W        W 9971   8.154   8.672  12.775 -0.2276 -0.2280 -0.0164
 5921W        W 9972   3.546   7.167   0.313  0.0091  0.4003  0.2454
 5922W        W 9973   0.663   3.699   0.578 -0.1039 -0.0298  0.2316
 5923W        W 9974   6.103   9.548  11.183 -0.0086 -0.2855  0.1062
 5924W        W 9975   0.476   2.557  12.864  0.0042 -0.0672  0.0888
 5925W        W 9976   4.201   9.129  13.614  0.0319  0.2789 -0.2352
 5926W        W 9977   1.942   1.278   5.335 -0.0677  0.2411  0.0924
 5927W        W 9978  10.202   7.394   4.009 -0.3620  0.1044 -0.2134
 5928W        W 9979   1.087   7.221  11.939 -0.2946 -0.0616 -0.1034
 5929W        W 9980   3.852   4.704  11.941 -0.0726  0.0400 -0.0316
 5930W        W 9981   6.484  10.077   9.595 -0.4010 -0.0888  0.0786
 5931W        W 9982   2.377   0.358   9.248 -0.0645  0.0212 -0.0807
 5932W        W 9983   8.585   7.088  11.127  0.0072 -0.0420 -0.0664
 5933W        W 9984   2.891   7.903   3.077 -0.0957 -0.0872  0.0110
 5934W        W 9985   8.121   2.534  10.876  0.1778  0.1759 -0.1401
 5935W        W 9986   5.612   8.990   3.902 -0.1093  0.1674 -0.2390
 5936W        W 9987   6.689   2.326   3.874 -0.0968  0.0310  0.5253
 5937W        W 9988   6.621   1.890  13.391 -0.3140 -0.0757 -0.0519
 5938W        W 9989   3.672   3.248  12.519  0.0948 -0.0008  0.2501
 5939W        W 9990   0.980   7.320  12.485 -0.1801  0.0058  0.0333
 5940W        W 9991   2.805   6.022   0.069  0.2276 -0.3765  0.3773
 5941W        W 9992   4.728   3.281   9.755 -0.1854  0.0610  0.3244
 5942W        W 9993   8.896   7.686   5.345  0.1413  0.0884  0.0096
 5943W        W 9994   8.560   8.164   3.690 -0.0125  0.2648  0.0418
 5944W        W 9995   8.201   0.555   4.475  0.1236  0.0204 -0.1830
 5945W        W 9996   7.616   9.016  13.915  0.4929  0.1732  0.0482
 5946W        W 9997   8.996   6.821  11.078  0.0191  0.1281  0.0386
 5947W        W 9998   0.196   4.032   9.647 -0.0334  0.0233  0.3200
 5948W        W 9999   1.541   4.930   4.780 -0.1562 -0.1720 -0.0901
 5949W        W10000   1.401   9.972  10.657  0.1247 -0.1720  0.2689
 5950W        W10001   8.598   0.436   9.591 -0.2770 -0.0734  0.0198
 5951W        W10002   6.197   4.021   0.757 -0.2183  0.0494 -0.3267
 5952W        W10003   8.766   3.410   3.456  0.1434 -0.1010 -0.0674
 5953W        W10004   2.561   4.818   0.732  0.2294  0.1215  0.0222
 5954W        W10005   3.091   3.056   1.746  0.0258 -0.0202 -0.1691
 5955W        W10006   3.353   9.404  12.608 -0.0640 -0.2219 -0.1390
 5956W        W10007   4.100   7.134   1.496  0.1025 -0.3198 -0.1808
 5957W        W10008   5.904   6.588   0.204  0.0300  0.1138  0.1056
 5958W        W10009   4.206   9.754  12.097 -0.2214  0.0677 -0.0926
 5959W        W10010   3.563   9.753   4.126 -0.0997 -0.4679 -0.1366
 5960W        W10011   3.474   0.214   4.123  0.0526 -0.0842  0.1811
 5961W        W10012   8.290   9.879   4.473 -0.0629 -0.0602 -0.2082
 5962W        W10013   6.077   5.703  13.490  0.3548  0.0855 -0.3492
 5963W        W10014   1.388   8.916   1.988 -0.1894  0.1762  0.1392
 5964W        W10015   2.092   1.186   9.363  0.2922  0.0387  0.0129
 5965W        W10016   1.190   8.126   1.571  0.0176 -0.2195  0.1216
 5966W        W10017   9.055   9.030   2.628 -0.0682  0.0996 -0.4969
 5967W        W10018   7.048   7.108   1.608 -0.1654  0.2359  0.1521
 5968W        W10019   1.199   1.322  12.216 -0.2238  0.1263 -0.2860
 5969W        W10020   8.645   5.511  12.340  0.0282  0.2660  0.0177
 5970W        W10021   9.067   0.265  10.307 -0.1465 -0.0527 -0.2204
 5971W        W10022   9.069   0.392   2.444 -0.0463  0.0936  0.0780
 5972W        W10023   0.668   6.137   0.290  0.1705  0.1833  0.2424
 5973W        W10024   1.208   9.146  12.622  0.1664 -0.2145  0.1316
 5974W        W10025   9.768   5.082  12.707 -0.2643 -0.1520 -0.3091
 5975W        W10026   4.035   3.723  11.791 -0.1785 -0.2997 -0.0084
 5976W        W10027   0.386   1.193   1.833  0.2763 -0.0487  0.3329
 5977W        W10028   1.113   2.401   2.886 -0.3089 -0.3586  0.0509
 5978W        W10029   9.169   2.267   0.353 -0.1587 -0.2560 -0.0655
 5979W        W10030   9.626   2.692   4.648  0.1993  0.0537  0.2552
 5980W        W10031   8.811   8.601  10.249 -0.1457  0.1329  0.0398
 5981W        W10032   4.798   7.301  11.428  0.0478 -0.2434  0.0256
 5982W        W10033   6.643   2.113  12.203  0.0099 -0.2331  0.1551
 5983W        W10034   5.191   7.636  12.846  0.1498  0.1171 -0.1079
 5984W        W10035   0.235   3.798   2.247 -0.1657  0.0404 -0.0104
 5985W        W10036   2.056   8.696   1.366 -0.0053 -0.2713 -0.1785
 5986W        W10037   6.424   8.254   3.217  0.0389 -0.0879 -0.2476
 5987W        W10038   8.746   4.480  13.103  0.2847  0.0711 -0.2879
 5988W        W10039   7.026   0.681   9.981 -0.0834 -0.2733 -0.0070
 5989W        W10040   5.870   6.468   2.975 -0.1925 -0.1088  0.2623
 5990W        W10041   4.320   4.890   3.355  0.1133 -0.0892 -0.0778
 5991W        W10042   3.511   7.222   2.903  0.0823  0.0962 -0.0729
 5992W        W10043   5.422   9.631   4.495 -0.0695 -0.1456 -0.2607
 5993W        W10044   4.151   0.118   1.890  0.1101  0.0195  0.1250
 5994W        W10045   9.751   0.049  10.968 -0.0161  0.0387  0.0602
 5995W        W10046   9.239   8.120  12.167  0.1596  0.0774 -0.0768
 5996W        W10047   5.580   3.327   0.470  0.0056 -0.1593  0.0994
 5997W        W10048   4.167   5.357  12.545  0.1559 -0.4225 -0.3606
 5998W        W10049   2.493   9.825  12.791  0.3812 -0.0745 -0.1039
 5999W        W10050   6.655   8.468   2.342  0.1269 -0.2767  0.0984
 6000W        W10051   2.138   7.033   3.740  0.2016  0.3172 -0.1010
 6001W        W10052   3.257   0.063   3.715 -0.1507  0.3578 -0.0725
 6002W        W10053   9.331   1.674  10.248 -0.2139 -0.1633 -0.0992
 6003W        W10054   2.738   7.605   1.593 -0.1808  0.2028  0.1108
 6004W        W10055   7.803   9.492   9.643 -0.4845 -0.0841 -0.0549
 6005W        W10056   0.674   4.007   4.769  0.0766 -0.0096 -0.0600
 6006W        W10057   3.844   6.704   0.606  0.0109 -0.2033  0.0767
 6007W        W10058   5.408   6.031   2.130 -0.0329 -0.1272 -0.1976
 6008W        W10059   5.215   2.428   8.769  0.1021  0.0584  0.0416
 6009W        W10060   4.371   8.254   0.702 -0.3488 -0.3099 -0.1595
 6010W        W10061   9.749   7.836  12.368  0.2834  0.1472 -0.3167
 6011W        W10062   4.241   8.097   3.435 -0.1111  0.4543  0.0968
 6012W        W10063   7.445   8.977   5.130 -0.1016 -0.5011  0.3490
 6013W        W10064   9.654   0.922  10.948  0.1379 -0.0845 -0.1421
 6014W        W10065   8.878   4.034   1.703 -0.2147  0.0782  0.0012
 6015W        W10066   5.220   3.748  13.744 -0.0357 -0.0147  0.1533
 6016W        W10067   0.834   1.607  10.456 -0.0009 -0.1375  0.1192
 6017W        W10068   2.695   2.319  10.964  0.2808  0.0355 -0.2214
 6018W        W10069   7.503  10.033   9.907 -0.2276  0.3751  0.1444
 6019W        W10070   2.359   6.736  10.999 -0.0193 -0.3013 -0.1670
 6020W        W10071   8.930   7.041   1.940 -0.0044  0.2697 -0.2824
 6021W        W10072   1.569   6.998   2.598 -0.2346 -0.3283 -0.0499
 6022W        W10073   3.984   1.355   0.246 -0.2187 -0.0176 -0.0469
 6023W        W10074   2.630   8.884  11.462  0.0979 -0.1308 -0.3638
 6024W        W10075   8.152   4.231  10.626  0.0755  0.2723  0.0912
 6025W        W10076   2.324   4.856  12.568 -0.0691  0.7035  0.0316
 6026W        W10077   8.290   2.169  11.162  0.1992 -0.0647 -0.2096
 6027W        W10078   2.140   3.207   4.927 -0.0740 -0.0796  0.0587
 6028W        W10079   4.178   5.685   2.844  0.0905  0.1338  0.1385
 6029W        W10080   0.903   8.120  11.059 -0.0109  0.2034  0.1998
 6030W        W10081   7.565   3.376   0.445 -0.3147 -0.0250 -0.2818
 6031W        W10082   1.242   4.454  11.936 -0.2169  0.2145 -0.1518
 6032W        W10083   3.302   9.961   3.327 -0.4181 -0.1860 -0.3246
 6033W        W10084   1.481   3.176   3.182 -0.3992 -0.0330 -0.4549
 6034W        W10085   4.049   8.610   3.372 -0.0156 -0.0184  0.1731
 6035W        W10086   6.899   5.283   3.524  0.2030 -0.1827 -0.2416
 6036W        W10087   7.353   4.305   2.571 -0.0045 -0.0121  0.2326
 6037W        W10088   8.180   4.166   3.626 -0.0130 -0.0086  0.0177
 6038W        W10089   3.056   4.972  11.188 -0.0180  0.1705  0.1109
 6039W        W10090   0.273   4.522   4.540  0.1846 -0.2058  0.0589
 6040W        W10091   3.426   7.876   2.145 -0.0783  0.0209  0.2913
 6041W        W10092   3.854   1.969  13.833 -0.0346  0.0688  0.0042
 6042W        W10093   5.067   0.698  12.342 -0.2066  0.3276 -0.1252
 6043W        W10094   8.796   8.281   4.190  0.1982 -0.1263 -0.3556
 6044W        W10095   9.959   4.355   2.800 -0.0513  0.0887 -0.2361
 6045W        W10096   6.322   2.450   1.545  0.4395 -0.1299  0.0656
 6046W        W10097   9.847   6.448  12.639  0.0091  0.3328  0.1302
 6047W        W10098   7.599   0.609  11.927  0.1499 -0.2508 -0.0784
 6048W        W10099   0.017   4.127  13.410 -0.1259  0.1339  0.0865
 6049W        W10100   8.627   8.279   4.696  0.1681 -0.0659 -0.2032
 6050W        W10101   4.404   1.835  13.803  0.0100  0.0141  0.1114
 6051W        W10102   5.174   1.855  11.586 -0.0263 -0.2469 -0.2495
 6052W        W10103   4.850   1.975  10.295  0.1884 -0.0715 -0.0971
 6053W        W10104   5.158   9.631   9.830 -0.0347  0.0410  0.0518
 6054W        W10105   2.693   2.692  12.848  0.0283  0.1009  0.1217
 6055W        W10106   7.449   4.242   0.225  0.0877 -0.2048  0.0582
 6056W        W10107   6.389   4.320  11.726  0.0747 -0.0653 -0.1902
 6057W        W10108   5.669   7.407  12.445 -0.0001  0.2812 -0.2260
 6058W        W10109   8.198   2.914   2.381  0.1255 -0.4106 -0.2532
 6059W        W10110   5.789  10.170  10.276  0.1094 -0.0643 -0.0863
 6060W        W10111   3.311   7.547   3.278 -0.0637  0.1109  0.1673
 6061W        W10112   8.090   5.737   2.464  0.0768 -0.1102  0.1927
 6062W        W10113   8.713   0.337   0.637 -0.0562  0.2770  0.1736
 6063W        W10114   4.401   3.255   2.764  0.0306  0.0872  0.2960
 6064W        W10115   0.481   5.278   4.542 -0.0940 -0.0174  0.2798
 6065W        W10116   6.611   1.266  13.891  0.0720  0.3062  0.0140
 6066W        W10117   8.852   1.386  12.598  0.3321 -0.1842  0.2335
 6067W        W10118   5.301   5.046   1.826 -0.2482  0.2242 -0.2703
 6068W        W10119   9.442   3.457   0.296 -0.1985  0.0514  0.2325
 6069W        W10120   9.557   9.901   8.600 -0.3384  0.3964 -0.2547
 6070W        W10121   7.945   1.620   1.104  0.2206 -0.1076 -0.1845
 6071W        W10122   9.944   9.185   3.101 -0.1346 -0.0156 -0.0680
 6072W        W10123   8.465   4.563   1.216 -0.0821  0.0571  0.0349
 6073W        W10124   7.975   6.413  13.311 -0.3252 -0.0229  0.2660
 6074W        W10125   7.859   1.026   3.885 -0.1561  0.3568  0.3532
 6075W        W10126   7.658   6.506   0.519 -0.1947  0.1309 -0.1671
 6076W        W10127   8.016   6.381  11.319 -0.3608  0.0974 -0.0058
 6077W        W10128   1.866   9.739   3.319 -0.0992  0.2302 -0.1202
 6078W        W10129   8.314   5.021   3.983  0.1331  0.0880 -0.3816
 6079W        W10130   2.930   7.226  11.579 -0.2946 -0.0669 -0.0477
 6080W        W10131   8.428   1.046   0.205 -0.0861  0.3292  0.1542
 6081W        W10132   4.068   6.088   3.175 -0.1452 -0.0800 -0.1822
 6082W        W10133   8.261   4.809   5.386  0.1884  0.0454 -0.1879
 6083W        W10134   9.054   7.862   3.048 -0.1589  0.0363 -0.0705
 6084W        W10135   0.817   0.123  12.208  0.2081 -0.3141  0.1666
 6085W        W10136   9.864   6.683   9.885  0.0010 -0.2651 -0.2192
 6086W        W10137   4.084   3.652   0.135  0.2263 -0.1856  0.0649
 6087W        W10138   5.356   6.464   2.858  0.0290 -0.0098 -0.3576
 6088W        W10139   6.775   7.465  10.619 -0.1346 -0.2859 -0.1758
 6089W        W10140   8.659   2.394  10.032 -0.1864 -0.2134 -0.4257
 6090W        W10141   0.872   2.922   4.625  0.3820  0.2447  0.1949
 6091W        W10142   0.897   3.258  10.670  0.3162 -0.2061 -0.1311
 6092W        W10143   2.537   3.438  12.140 -0.1018 -0.1896  0.1821
 6093W        W10144   7.257   8.886   4.109 -0.1402  0.1129 -0.0041
 6094W        W10145   4.218   2.223   3.280 -0.3312  0.1832  0.3591
 6095W        W10146   1.203   4.108   4.312 -0.0786  0.2376  0.0335
 6096W        W10147   0.344   2.617  10.394 -0.1039 -0.0737  0.0901
 6097W        W10148   6.488   0.894   4.432 -0.0759  0.0185  0.4799
 6098W        W10149   7.326   1.304   1.530 -0.0400 -0.0580 -0.0938
 6099W        W10150   7.592   6.407  13.002  0.1475 -0.3843 -0.2097
 6100W        W10151   8.514   4.673  12.359 -0.2858  0.0183 -0.2248
 6101W        W10152   6.159   3.525   1.390  0.0828 -0.1140  0.0101
 6102W        W10153   1.332   5.486  13.296  0.1873 -0.0869  0.0491
 6103W        W10154   0.699   8.513  11.194 -0.1236  0.1507 -0.1611
 6104W        W10155   0.370   0.957  10.552 -0.0987  0.2317 -0.1505
 6105W        W10156   9.200   7.027  12.661  0.2816  0.0875  0.0720
 6106W        W10157   8.241   2.316   3.003 -0.0974  0.0045 -0.0157
 6107W        W10158   9.065   5.037   1.848  0.2506  0.1967 -0.1957
 6108W        W10159   6.363   0.671  11.162  0.5579  0.0957  0.3536
 6109W        W10160   3.801   1.400   5.746  0.2872  0.3540  0.4083
 6110W        W10161   4.896   9.728   2.255 -0.2854  0.4684 -0.1855
 6111W        W10162   7.656   0.226   9.455  0.1070  0.2439 -0.1973
 6112W        W10163   5.013   3.081  11.956 -0.1405 -0.3517  0.1308
 6113W        W10164   1.422   1.715  13.775 -0.2020 -0.1462 -0.2709
 6114W        W10165   1.695   2.167   0.990  0.2620 -0.0425  0.0608
 6115W        W10166   2.274   7.168   3.282 -0.3737 -0.0726 -0.0110
 6116W        W10167  10.197   8.069  10.052  0.0192 -0.3214  0.0766
 6117W        W10168   8.748   8.927   2.211 -0.0399 -0.3858 -0.1862
 6118W        W10169   4.846   5.313  13.128 -0.0029 -0.1116  0.2107
 6119W        W10170   7.734   5.191  12.617 -0.1669  0.1105  0.0477
 6120W        W10171  10.108   2.896  10.449  0.3496  0.0510  0.1032
 6121W        W10172   0.437   9.756   3.866 -0.2270 -0.4194  0.1285
 6122W        W10173   6.470   2.422  13.595 -0.2260 -0.1687 -0.1637
 6123W        W10174   8.174   5.458   3.655 -0.1102  0.1204 -0.0141
 6124W        W10175   8.699   8.161   3.228 -0.0358  0.0438 -0.1436
 6125W        W10176   5.843   7.476  11.468  0.1527  0.0142 -0.0856
 6126W        W10177   8.285   7.366   1.380 -0.0574  0.1746  0.2534
 6127W        W10178   1.710   3.177  10.715 -0.1685  0.1324 -0.4017
 6128W        W10179   6.826   2.060  12.639 -0.3409 -0.1663 -0.0320
 6129W        W10180   8.609   3.477  13.103 -0.1722  0.0729  0.2492
 6130W        W10181   1.100   0.196   1.555 -0.3715 -0.0061  0.2002
 6131W        W10182   5.943   6.285  12.365 -0.1375 -0.0013 -0.0916
 6132W        W10183   9.912   4.870   2.603 -0.2397  0.1472 -0.0681
 6133W        W10184   7.828   5.591   9.090  0.1195 -0.0123  0.2184
 6134W        W10185   7.428   1.750   2.782 -0.0758 -0.0796  0.0427
 6135W        W10186   5.766   7.523   4.127 -0.1639  0.0604 -0.4763
 6136W        W10187   5.617   8.267  12.646 -0.0578  0.2135 -0.0796
 6137W        W10188   2.343   4.666   4.359  0.2406  0.1796  0.0239
 6138W        W10189   7.446   0.072   0.605  0.0757  0.5601 -0.2869
 6139W        W10190   1.105   2.139  11.142  0.0906  0.1949  0.0099
 6140W        W10191   4.812   8.589  10.148 -0.1573  0.4148 -0.1884
 6141W        W10192   2.367   9.720   3.290  0.0787  0.0453 -0.0235
 6142W        W10193   8.423   7.850  13.844 -0.0481  0.1746  0.1379
 6143W        W10194   0.940   8.033   3.591 -0.2046  0.0899 -0.0859
 6144W        W10195   9.156   4.889   5.192 -0.1595 -0.2820  0.4469
 6145W        W10196   7.645   2.068   9.558 -0.1945 -0.2332 -0.2151
 6146W        W10197   3.260   6.333   4.554  0.1428 -0.0431 -0.2437
 6147W        W10198   9.026   3.716   4.289  0.0756 -0.2356 -0.1664
 6148W        W10199   8.644   9.252  11.638 -0.2316  0.0593 -0.2443
 6149W        W10200   7.164   1.169  13.481  0.1467 -0.2151  0.1619
 6150W        W10201   1.875   0.075   1.152 -0.2226 -0.3514 -0.2706
 6151W        W10202   1.013   6.473  10.796  0.0609  0.0921 -0.1359
 6152W        W10203   2.781   0.532  12.955 -0.2848 -0.2616  0.0829
 6153W        W10204  10.032   6.125   4.019  0.0030 -0.0680 -0.0233
 6154W        W10205   7.680   7.355  11.636  0.0692 -0.0696  0.0734
 6155W        W10206   6.140   7.697  12.281  0.0026  0.0617  0.2577
 6156W        W10207   2.607   0.180   0.307  0.0690  0.1141  0.4104
 6157W        W10208   4.757   2.463  12.452  0.0050  0.3028  0.2222
 6158W        W10209   4.069   2.869   4.594  0.2440  0.0059  0.0390
 6159W        W10210   2.581   8.628   0.630 -0.0198 -0.2078  0.0398
 6160W        W10211   7.720   7.851  13.140  0.0110 -0.2456 -0.0178
 6161W        W10212   4.831   7.264   0.336 -0.1159 -0.1309  0.4167
 6162W        W10213   1.468   0.140  11.017  0.1080  0.0782 -0.3226
 6163W        W10214   8.027   6.742   3.476  0.0408  0.2781 -0.0925
 6164W        W10215   0.991   2.686   2.535  0.0724 -0.1454 -0.2316
 6165W        W10216   7.204   6.266   1.567  0.1681 -0.3555 -0.1007
 6166W        W10217   0.148   5.878  13.057 -0.1785  0.2176 -0.0870
 6167W        W10218   4.710   0.651   1.292 -0.0521 -0.2314  0.0965
 6168W        W10219   6.891   4.469   2.486 -0.2498  0.0241 -0.0005
 6169W        W10220   6.390   6.181  12.141 -0.2749  0.1074 -0.1071
 6170W        W10221   9.998   1.262   5.396  0.0749 -0.1129  0.1038
 6171W        W10222   3.741   9.171  11.460  0.1709 -0.1395 -0.2463
 6172W        W10223   9.284   5.874   4.875 -0.0589 -0.1608 -0.0081
 6173W        W10224   9.356   0.435   3.652 -0.0051  0.0785 -0.2392
 6174W        W10225   2.260   0.025   4.095  0.1608  0.1697  0.4698
 6175W        W10226   6.346   6.488  11.712  0.0072  0.3487  0.0776
 6176W        W10227   1.919  10.016   3.768  0.0886  0.4503  0.1355
 6177W        W10228   3.824   0.914   1.360 -0.0602 -0.2869  0.3798
 6178W        W10229   6.828   1.852   9.240  0.1060  0.1716 -0.0933
 6179W        W10230   6.324   5.804   0.066 -0.0386  0.1918  0.0464
 6180W        W10231   6.203   9.796   4.818 -0.0669 -0.2099 -0.2374
 6181W        W10232   1.500   1.130   0.394  0.2454  0.0864  0.3022
 6182W        W10233   4.364   9.719   2.428 -0.0720 -0.0387  0.3234
 6183W        W10234   8.086   2.579   0.174  0.1249 -0.2878  0.1657
 6184W        W10235   9.300   2.006  13.836 -0.3124  0.1842 -0.0552
 6185W        W10236   5.912   8.980   5.024  0.0019  0.0034 -0.1786
 6186W        W10237   5.687   9.447   3.954  0.0692 -0.2644 -0.1100
 6187W        W10238   3.206   1.038   9.578  0.0365  0.0669  0.0418
 6188W        W10239   1.392   9.499   0.651 -0.0572  0.0302  0.2121
 6189W        W10240   9.348   0.930   3.516 -0.1658  0.2905  0.0993
 6190W        W10241   6.341   2.120   0.655 -0.2367 -0.0031 -0.1377
 6191W        W10242   9.581   0.215  12.427  0.0430 -0.1317  0.1021
 6192W        W10243   5.273   6.633  13.133  0.0468 -0.0311  0.2729
 6193W        W10244   8.720   0.783  10.447 -0.0914  0.3572  0.1182
 6194W        W10245   5.574   0.296   2.944  0.2708  0.2009 -0.1459
 6195W        W10246   7.280   4.781   4.234  0.1855 -0.2410  0.1488
 6196W        W10247   4.641   3.665   0.158 -0.2709  0.0093 -0.1236
 6197W        W10248   3.418   2.471   0.542  0.1871 -0.1264 -0.0337
 6198W        W10249  10.154   4.062  11.469  0.1885 -0.0787 -0.2319
 6199W        W10250   3.302   4.230  10.873  0.0623  0.2916  0.0213
 6200W        W10251   4.309   8.742   3.834  0.2356  0.1798  0.0585
 6201W        W10252   2.667   4.830  13.699  0.2649 -0.1115 -0.2134
 6202W        W10253   9.578   9.466  11.507 -0.1695  0.1107 -0.2727
 6203W        W10254   6.324   9.624   9.449 -0.3382  0.0759  0.0036
 6204W        W10255   2.814  10.109   2.573  0.2045  0.1030  0.0026
 6205W        W10256   7.174   8.199   1.223 -0.0361 -0.0620 -0.4471
 6206W        W10257   3.373   0.272  10.811 -0.1526  0.2154  0.2520
 6207W        W10258   5.574   5.545   2.941 -0.4000 -0.0004  0.0471
 6208W        W10259   6.612   7.892   2.282  0.0117 -0.1162  0.0545
 6209W        W10260   0.341   5.872   5.113  0.0397 -0.0025 -0.0704
 6210W        W10261   0.454   3.319  13.699  0.2592 -0.2118 -0.0125
 6211W        W10262   0.064   6.325   3.059 -0.2825  0.1007 -0.0150
 6212W        W10263   3.003   9.095  10.261  0.1704 -0.0612 -0.1199
 6213W        W10264   1.450   9.216   4.121 -0.1796  0.0565  0.1328
 6214W        W10265   3.678   5.689  12.353 -0.2654 -0.2180  0.0352
 6215W        W10266   3.327   5.640   2.914 -0.1397 -0.2949  0.1713
 6216W        W10267   7.205   0.318  11.301  0.1302  0.0400  0.0505
 6217W        W10268   1.563   0.321   0.315 -0.0690 -0.0509 -0.0827
 6218W        W10269   4.141   1.091  12.169 -0.1914  0.1008 -0.0779
 6219W        W10270   7.926   0.169   5.324  0.0903 -0.2152 -0.2615
 6220W        W10271   3.889   6.428   1.921  0.3079  0.1495  0.0866
 6221W        W10272   1.703   1.579  12.309 -0.3001  0.2337 -0.1954
 6222W        W10273   0.659   5.217   1.830 -0.0638 -0.2779 -0.1509
 6223W        W10274   4.820   6.489   2.120 -0.1074  0.0116 -0.1241
 6224W        W10275   1.659  10.046   0.645  0.1800  0.1939  0.0031
 6225W        W10276   9.969   2.845   3.792 -0.4781 -0.1107  0.3192
 6226W        W10277   1.067   4.969   1.962  0.0326  0.0069 -0.1791
 6227W        W10278   1.632   6.821  10.387  0.0071 -0.3229 -0.0081
 6228W        W10279   2.554   9.062  10.422 -0.0703 -0.1394  0.2674
 6229W        W10280   5.830   5.188   1.291  0.0129 -0.1037  0.2788
 6230W        W10281  10.003  10.165  12.536 -0.1721 -0.2372  0.1657
 6231W        W10282   1.865   3.345   2.782 -0.2390  0.1646 -0.1604
 6232W        W10283   9.998   5.346  12.310 -0.1363  0.0088  0.0307
 6233W        W10284   1.112   7.493   4.384 -0.1053  0.1069  0.2077
 6234W        W10285   0.736   7.023  11.599 -0.3108  0.3759  0.3537
 6235W        W10286   5.767   9.430   4.882  0.0888  0.0031  0.2541
 6236W        W10287   5.276   9.178   0.569  0.0269  0.0030  0.2402
 6237W        W10288   1.701   2.469   8.495 -0.1032  0.4436 -0.1907
 6238W        W10289   9.858   7.997   2.322  0.2832 -0.1545 -0.1219
 6239W        W10290   9.664   7.243  11.343 -0.1802 -0.0956  0.1879
 6240W        W10291   2.448   3.383   8.674 -0.0665 -0.3513 -0.0003
 6241W        W10292   2.809   8.995   1.724 -0.0107  0.2215 -0.1959
 6242W        W10293   2.648   3.269   1.718  0.0560 -0.1157  0.0620
 6243W        W10294   9.603   8.150   0.325 -0.0640 -0.1923  0.3085
 6244W        W10295   0.485   8.085  12.818  0.1276 -0.1679 -0.1692
 6245W        W10296   3.010   3.258   4.107 -0.0431 -0.2616  0.0609
 6246W        W10297   6.418   4.949  12.383  0.1658 -0.0602  0.2309
 6247W        W10298   1.938   5.896  10.507  0.2767 -0.1284 -0.0349
 6248W        W10299   1.838   1.935   2.352  0.0733  0.0875 -0.0318
 6249W        W10300   7.860   9.338   1.813  0.0570 -0.0975  0.1223
 6250W        W10301   3.086   0.703  12.307  0.4030 -0.1119 -0.3464
 6251W        W10302   8.066   4.021   0.950  0.0195 -0.1342 -0.2654
 6252W        W10303   3.177   2.317   0.987  0.0357 -0.0647 -0.1481
 6253W        W10304   8.733   5.973  10.906  0.2009  0.3617  0.2007
 6254W        W10305   4.969   0.342   2.080  0.0617  0.1035  0.2951
 6255W        W10306   8.214   1.576   6.068  0.1041  0.0984 -0.0422
 6256W        W10307   8.244   6.226   4.423  0.1561  0.1053  0.0179
 6257W        W10308   7.959   8.236   1.933 -0.0381 -0.0398 -0.0644
 6258W        W10309   6.055   1.481  13.024 -0.0060 -0.0429 -0.0982
 6259W        W10310   6.243   0.979  11.612  0.0653  0.0488 -0.0134
 6260W        W10311   9.400   2.577   2.327 -0.1853 -0.0785  0.0080
 6261W        W10312   7.627   3.507   0.947  0.0670 -0.2855 -0.0122
 6262W        W10313   5.607   3.296   3.743 -0.2718  0.2480 -0.0532
 6263W        W10314   7.613   7.502  10.419  0.4005  0.3516 -0.0441
 6264W        W10315   3.550   5.263   2.337  0.1899 -0.0967  0.0823
 6265W        W10316   0.350   1.629  11.143 -0.1720 -0.2405 -0.1689
 6266W        W10317   1.804   6.639   3.643  0.0928  0.3190 -0.0828
 6267W        W10318   2.535   0.696   2.049 -0.1178 -0.2839  0.0104
 6268W        W10319   4.639   9.779   9.389 -0.2823 -0.0294 -0.0322
 6269W        W10320   8.262   8.084   2.392 -0.2266  0.1222 -0.0007
 6270W        W10321   1.431   5.820  10.344 -0.0045  0.0654 -0.0427
 6271W        W10322  10.136   5.655   1.050 -0.1599  0.2684 -0.4944
 6272W        W10323   9.511   7.712   0.145  0.0706 -0.2942  0.1875
 6273W        W10324   2.793   9.881   9.781  0.1275 -0.1135 -0.1590
 6274W        W10325   3.669   9.599   1.815 -0.1735 -0.2416  0.3964
 6275W        W10326   3.730   7.805   1.715  0.2076  0.1022  0.0460
 6276W        W10327   5.395   1.909  12.934 -0.0336  0.2670 -0.0600
 6277W        W10328   0.461   3.249   1.476  0.2403  0.2724  0.0715
 6278W        W10329   6.910   7.712   2.614  0.0225  0.1764  0.0889
 6279W        W10330   8.294   9.090   2.429  0.1899 -0.0700 -0.1273
 6280W        W10331   3.501   7.488  12.971  0.0921  0.3097  0.4237
 6281W        W10332   3.733   4.642  10.932  0.1502  0.0046  0.0990
 6282W        W10333   3.511   9.753   1.209 -0.0791  0.0766 -0.3147
 6283W        W10334   1.967   2.656   1.306 -0.1630  0.2348 -0.0953
 6284W        W10335   0.934   6.332  11.281  0.3491  0.1221 -0.0415
 6285W        W10336   8.200   4.548   9.808  0.1121 -0.2159  0.0828
 6286W        W10337   7.554   5.639   2.534 -0.0021  0.0015  0.0539
 6287W        W10338   5.117   6.510   0.719  0.1487 -0.1857  0.2994
 6288W        W10339   8.915   4.368   5.017 -0.2554 -0.2753  0.3038
 6289W        W10340   0.321   8.486  12.478 -0.0478 -0.0849 -0.3706
 6290W        W10341   8.949   7.922   1.260 -0.0419  0.2016 -0.0342
 6291W        W10342  10.052   4.957   1.605 -0.1803  0.0412 -0.0809
 6292W        W10343   6.904   7.775   9.555 -0.0002 -0.1090  0.1186
 6293W        W10344   6.779   6.354  10.427 -0.1464 -0.4366 -0.3164
 6294W        W10345   1.506   4.453   2.613 -0.1079 -0.0511 -0.0789
 6295W        W10346   9.992   8.650   3.849  0.1002  0.0857  0.1915
 6296W        W10347   2.430   2.475  12.492  0.2527 -0.1709  0.1365
 6297W        W10348   0.850   4.993   2.803 -0.0369 -0.1957 -0.0221
 6298W        W10349   7.752   1.943  11.166  0.3013  0.0481 -0.0085
 6299W        W10350   3.672   6.344   2.415 -0.0804  0.1772  0.0315
 6300W        W10351   9.944   5.931   2.464 -0.0587  0.3344 -0.5032
 6301W        W10352   8.437   3.164   1.411  0.0406 -0.1865  0.2461
 6302W        W10353   0.118   2.422   3.018  0.1637  0.2069 -0.2694
 6303W        W10354   1.646   1.913   9.711  0.1021 -0.1941  0.1929
 6304W        W10355   0.505   6.217  13.093  0.2206  0.1644  0.0789
 6305W        W10356   9.299   3.596   4.839  0.0068  0.0281  0.1219
 6306W        W10357   5.308   6.825  11.654 -0.0932 -0.0354 -0.2422
 6307W        W10358   2.292   0.310   1.005  0.0790 -0.4232 -0.2676
 6308W        W10359   1.881   4.523   1.659  0.1814 -0.0390 -0.0500
 6309W        W10360   5.553   5.852  13.085  0.0247  0.0019  0.2199
 6310W        W10361   3.239   8.762   1.495 -0.0377 -0.2702  0.0646
 6311W        W10362   6.612   6.722   2.115 -0.0359  0.2545 -0.1297
 6312W        W10363  10.101   8.542  10.170  0.0351 -0.0555  0.1653
 6313W        W10364   1.126   9.112  10.266 -0.0168 -0.0683 -0.3504
 6314W        W10365   4.536   0.451   0.154  0.3477 -0.4160  0.1837
 6315W        W10366   0.062   6.091  11.686  0.2859 -0.2157  0.1782
 6316W        W10367   1.243   2.717   9.470  0.0676 -0.1300 -0.1687
 6317W        W10368   7.664   4.134   3.627 -0.0563  0.0827  0.1164
 6318W        W10369   7.865   9.166   2.238 -0.2418  0.2460 -0.3175
 6319W        W10370   8.551   2.723   2.993 -0.0370 -0.3474  0.2789
 6320W        W10371   2.653   0.497  12.465  0.0569 -0.3003  0.1419
 6321W        W10372   6.178   3.879  10.923 -0.1018  0.0161  0.1615
 6322W        W10373   6.074   2.182  10.454  0.1610  0.2888 -0.0728
 6323W        W10374   3.983   3.552   2.698  0.3676 -0.2514 -0.0699
 6324W        W10375   9.713   3.612   9.435  0.0452  0.1994  0.0602
 6325W        W10376   0.034   7.068   1.032 -0.3470  0.1156 -0.1999
 6326W        W10377   1.800   7.890   3.005  0.3036 -0.0695  0.1111
 6327W        W10378   0.370   6.644   2.259  0.2587  0.0358  0.1097
 6328W        W10379   0.453   5.609   1.201  0.2765  0.0406  0.1224
 6329W        W10380   3.214   3.599  13.388  0.1695 -0.0422 -0.0385
 6330W        W10381   1.745   4.118   4.291 -0.0446  0.2821  0.1320
 6331W        W10382   4.268   1.381  10.774 -0.1710 -0.2070 -0.1734
 6332W        W10383   5.581   2.241  10.248 -0.0735  0.0280 -0.2063
 6333W        W10384   1.218   2.971   0.024  0.3942  0.1803  0.1003
 6334W        W10385   7.227   1.360   4.200  0.0093 -0.2657  0.0642
 6335W        W10386   8.325   4.479  13.891  0.0246  0.1480 -0.0728
 6336W        W10387   8.889   7.876  12.398 -0.0524 -0.0178 -0.1397
 6337W        W10388   8.250   9.610   9.402 -0.1967  0.1148 -0.0086
 6338W        W10389   3.404   4.460   0.979 -0.1936 -0.2703  0.0177
 6339W        W10390   7.918   2.921  10.193  0.3268 -0.2389 -0.2594
 6340W        W10391   1.070   1.913   2.641 -0.0223  0.4388 -0.0817
 6341W        W10392   5.947   1.910  12.792 -0.2084  0.1222  0.3054
 6342W        W10393   1.370   9.129   0.253 -0.1574 -0.1135  0.0308
 6343W        W10394   4.450   6.631   2.699  0.2582 -0.3362  0.1104
 6344W        W10395   6.163   9.264   4.646  0.0333 -0.2503 -0.2121
 6345W        W10396   8.179   6.770  11.087 -0.0984 -0.2563  0.4183
 6346W        W10397   1.060   9.676   3.309 -0.0582  0.5939 -0.0128
 6347W        W10398   3.794   0.329   1.543  0.1547  0.0241 -0.3127
 6348W        W10399   9.583   5.969  13.468 -0.0354 -0.2212  0.2230
 6349W        W10400   0.357   1.090  12.150 -0.0194  0.1527  0.0599
 6350W        W10401   6.250   9.879   1.286  0.0820 -0.0601 -0.0064
 6351W        W10402   1.240   6.363  13.896 -0.1737 -0.0711 -0.1691
 6352W        W10403   1.762   0.440  11.285 -0.0328  0.1139  0.1315
 6353W        W10404   6.311   2.941   2.985  0.0251  0.0568  0.0085
 6354W        W10405   0.606   9.171   4.614 -0.0522  0.0430 -0.0942
 6355W        W10406   2.225   7.840   1.288  0.5328  0.1067  0.1182
 6356W        W10407   5.580   4.373   3.022 -0.1615 -0.0228  0.0399
 6357W        W10408   0.655   6.274   3.359  0.1658  0.2544 -0.2414
 6358W        W10409   5.274   1.517  11.121  0.1323  0.0120 -0.2842
 6359W        W10410   0.989   5.007  11.623  0.3708 -0.4780 -0.0083
 6360W        W10411   9.230   9.844   9.640 -0.1620  0.1494 -0.2511
 6361W        W10412   3.837   1.337  13.344  0.1847 -0.0720 -0.2876
 6362W        W10413   5.599   1.533  12.658  0.0856 -0.3345 -0.0646
 6363W        W10414   9.341   9.321   1.044  0.0836 -0.0245  0.2151
 6364W        W10415   7.984   7.320   3.307 -0.1558 -0.1229 -0.1134
 6365W        W10416  10.101   4.825   3.746  0.2829  0.6568  0.2231
 6366W        W10417   2.778   7.956   4.140  0.2439  0.0410 -0.1474
 6367W        W10418   2.753   1.108  12.453  0.2038 -0.0920  0.1000
 6368W        W10419   8.766   6.668  13.928  0.0273  0.0993 -0.1783
 6369W        W10420   4.208   6.571   0.916  0.3004 -0.0321  0.0498
 6370W        W10421   3.894   3.097   5.386  0.1343  0.0874 -0.0521
 6371W        W10422   4.773   7.710   1.322 -0.1921 -0.1595 -0.2142
 6372W        W10423   7.697   0.422   3.132  0.0680 -0.1488 -0.2102
 6373W        W10424   9.892   3.013  12.278 -0.0176 -0.1874 -0.2227
 6374W        W10425   2.384   0.426  10.527 -0.1637  0.0073 -0.0204
 6375W        W10426   9.289   9.176   3.389  0.2116 -0.0996  0.0140
 6376W        W10427   8.231   8.547   4.398 -0.2958  0.2842  0.3238
 6377W        W10428   0.605   2.890  10.766  0.1774 -0.0512 -0.3481
 6378W        W10429   4.404   3.694  13.648  0.1255 -0.0821 -0.2616
 6379W        W10430   0.971   5.586  10.211 -0.0994  0.1621  0.3045
 6380W        W10431   0.223   8.389  13.641  0.2216  0.1526  0.0877
 6381W        W10432   7.184   8.669   2.215 -0.2857  0.1348  0.0833
 6382W        W10433   3.020   6.375  12.223 -0.2365  0.0044 -0.1218
 6383W        W10434   4.276   1.033   2.385  0.2346  0.0301  0.0931
 6384W        W10435   2.631   6.905  11.425 -0.0246 -0.0365 -0.1607
 6385W        W10436   4.234   0.029   2.344  0.0457  0.0755 -0.2111
 6386W        W10437   7.592   5.481   0.516  0.1554  0.0334  0.0187
 6387W        W10438   1.468   5.593   0.675 -0.0199 -0.1238  0.3197
 6388W        W10439   3.600   0.307   2.879 -0.2920 -0.2195 -0.0381
 6389W        W10440   4.191   2.417  10.043 -0.0532 -0.0237  0.0953
 6390W        W10441   0.585   9.670   3.423 -0.3888  0.0424 -0.0742
 6391W        W10442   3.208   8.309   2.100 -0.1561  0.1108 -0.1953
 6392W        W10443   2.204   6.058   0.637 -0.1058  0.3416 -0.2032
 6393W        W10444   7.938   4.126   9.444  0.2702  0.1749  0.3540
 6394W        W10445   7.219   8.437   3.388 -0.0652  0.0259 -0.3814
 6395W        W10446   6.835   1.369   5.166 -0.2050 -0.2562 -0.1593
 6396W        W10447   7.862   3.828  12.258 -0.2023 -0.3092  0.2331
 6397W        W10448   8.767   9.517   2.019 -0.0786 -0.0903  0.0491
 6398W        W10449   9.861   2.288   0.883  0.1426 -0.3394  0.1156
 6399W        W10450   1.356   0.406   4.317  0.1507  0.0240 -0.3064
 6400W        W10451   7.115   9.948  10.488 -0.0713 -0.1925  0.0936
 6401W        W10452   2.583   6.770   2.627 -0.0346  0.0456  0.1537
 6402W        W10453   8.179   4.834   2.840  0.0885 -0.0234  0.0538
 6403W        W10454   5.925   2.703   1.965 -0.1417 -0.2134  0.2204
 6404W        W10455   3.870   1.082  13.759  0.0873 -0.0911 -0.1057
 6405W        W10456   0.045   9.885  10.452 -0.2577  0.2430 -0.1204
 6406W        W10457   5.469   8.634   0.704  0.0376 -0.0822 -0.1010
 6407W        W10458   6.545   2.516   8.834 -0.1487  0.0136  0.1240
 6408W        W10459   3.421   9.124   9.493  0.4025 -0.2553 -0.5354
 6409W        W10460   6.562   4.988   3.801  0.0616  0.1974  0.1876
 6410W        W10461   7.829   7.867   2.266  0.0786 -0.1681  0.0384
 6411W        W10462   8.899   0.524  11.425  0.0237  0.1650 -0.1604
 6412W        W10463   2.008   6.590  11.728 -0.2778 -0.1041 -0.2150
 6413W        W10464   9.017   5.643   2.775 -0.1278 -0.0121 -0.0834
 6414W        W10465   1.296   0.804   2.989 -0.1387  0.0079  0.0109
 6415W        W10466   6.795   9.957   2.063  0.0734 -0.2029 -0.0455
 6416W        W10467   4.523   3.215  10.709 -0.1045  0.0758  0.0258
 6417W        W10468   0.488   1.848  13.783 -0.3832  0.0284  0.3268
 6418W        W10469   3.044   2.931   2.214 -0.0820  0.2586 -0.3595
 6419W        W10470   5.879   1.118  11.999 -0.0742 -0.0701 -0.1067
 6420W        W10471   7.954   4.914  11.182  0.0072  0.0048  0.1133
 6421W        W10472   7.772   3.641  13.602 -0.0199  0.1155 -0.1152
 6422W        W10473   6.821   3.895   3.902  0.0840 -0.1410 -0.1518
 6423W        W10474   0.543  10.103  13.702  0.1027 -0.0040  0.1251
 6424W        W10475   2.898   2.129  12.380  0.2217  0.3253 -0.1756
 6425W        W10476   6.524   2.313   2.586  0.3763 -0.0249 -0.1215
 6426W        W10477   4.702   8.715  13.349 -0.2008  0.3765 -0.2036
 6427W        W10478   2.810   9.814   9.206 -0.0502  0.3904 -0.2381
 6428W        W10479  10.188   9.762  12.239  0.1975  0.0233 -0.1582
 6429W        W10480   2.054   4.767   0.958  0.0584 -0.0778  0.1325
 6430W        W10481   3.102   8.726   9.151  0.0988 -0.1928  0.0637
 6431W        W10482   6.323   0.099   1.456  0.2415  0.0589 -0.0276
 6432W        W10483   9.077   8.975  12.280 -0.1744  0.2960  0.0030
 6433W        W10484   8.135   4.944  13.703  0.1191 -0.2198  0.4747
 6434W        W10485   1.659   8.747  13.401  0.1196  0.0526  0.2054
 6435W        W10486   1.691   9.112   2.869  0.1379  0.1790  0.4238
 6436W        W10487   3.202   5.162   0.099 -0.2069  0.2418  0.0340
 6437W        W10488   7.310   4.739   1.756 -0.3436 -0.0930  0.1293
 6438W        W10489   6.102   1.384  11.390 -0.1612  0.1102 -0.1427
 6439W        W10490   1.760   8.106   0.526  0.1982 -0.2035  0.1058
 6440W        W10491   4.997   3.628   0.627 -0.0761 -0.1045 -0.0427
 6441W        W10492   6.119   8.874  10.052  0.0911  0.0603 -0.0235
 6442W        W10493   5.316   5.657  11.694  0.2312 -0.1530  0.0506
 6443W        W10494   8.237   4.246  12.106 -0.0452  0.1539 -0.3927
 6444W        W10495   8.040   9.273  13.857 -0.0701 -0.2271  0.0425
 6445W        W10496   6.961   5.888   1.746  0.0749  0.2024  0.0991
 6446W        W10497   8.738   9.734   3.000  0.1831 -0.3646 -0.4485
 6447W        W10498   8.552   6.498  11.174 -0.0448 -0.0365 -0.0575
 6448W        W10499   5.230   0.503   3.919  0.0752 -0.2485  0.1278
 6449W        W10500   0.071   3.307   4.519  0.1847  0.0917  0.1567
 6450W        W10501   6.463   5.046  10.044 -0.1242 -0.0764 -0.1626
 6451W        W10502   8.894   8.213  11.560 -0.0934 -0.3281  0.1048
 6452W        W10503   3.952   7.996   9.850  0.0375 -0.0924 -0.0686
 6453W        W10504   0.328   1.311  13.892  0.1100 -0.2305 -0.1912
 6454W        W10505   0.274   8.968  10.130 -0.1836  0.1742 -0.0625
 6455W        W10506   5.661   6.928  13.234  0.0099 -0.1341 -0.1071
 6456W        W10507   9.161   5.060   0.154  0.2006  0.1252  0.0239
 6457W        W10508   5.354   8.035   2.206  0.2798  0.4420  0.0911
 6458W        W10509   7.633   8.594  13.600 -0.1568  0.2405  0.0479
 6459W        W10510   6.707   6.699  12.291  0.0904 -0.1116  0.1464
 6460W        W10511   9.002   1.469  11.225 -0.2002 -0.2756 -0.0078
 6461W        W10512   8.225   2.140   0.452 -0.1098 -0.1290  0.0756
 6462W        W10513  10.097   2.004   3.182  0.1070  0.2268 -0.0599
 6463W        W10514   1.979   2.616  13.438  0.3976  0.2755 -0.0187
 6464W        W10515   4.786   4.878   1.896 -0.0604  0.3274  0.0349
 6465W        W10516   9.558   2.698  10.600 -0.1851 -0.3126 -0.0474
 6466W        W10517   3.575   0.033   1.179  0.0485 -0.2570  0.2037
 6467W        W10518   7.053   3.412  11.660 -0.0071 -0.2618 -0.0009
 6468W        W10519   9.775   6.454  12.128  0.0685 -0.3251  0.0365
 6469W        W10520   1.200   9.221  11.674  0.0709 -0.2625  0.3362
 6470W        W10521   5.400   9.086   2.148  0.2208  0.2469  0.1267
 6471W        W10522   9.354   8.461   9.919  0.3658 -0.1641 -0.3518
 6472W        W10523   0.189   5.218   2.412 -0.0334  0.0149  0.2205
 6473W        W10524   4.216   5.802  12.258  0.0393 -0.0192  0.2388
 6474W        W10525   5.315   8.935   1.156 -0.5472 -0.0421  0.2911
 6475W        W10526   5.682   2.940   0.832  0.0830  0.3168  0.0599
 6476W        W10527   0.028   5.202   2.936  0.1142 -0.2247  0.1273
 6477W        W10528   4.608  10.027   1.652  0.1886  0.0535 -0.2500
 6478W        W10529   0.401   8.192   1.230  0.0937  0.4637 -0.1682
 6479W        W10530   0.275   3.642  13.253 -0.1240  0.2583  0.3039
 6480W        W10531   2.862   4.920   2.403  0.3800  0.0820  0.6048
 6481W        W10532   2.585   9.713  11.875  0.0618  0.0844  0.2209
 6482W        W10533   6.838   9.195  11.760  0.0996  0.0254  0.0848
 6483W        W10534   0.210   6.288   3.582 -0.1569  0.1494 -0.2617
 6484W        W10535   0.090   9.788   4.248 -0.1911 -0.0258  0.1437
 6485W        W10536   5.385   6.306   9.656  0.1602  0.1541  0.3816
 6486W        W10537   4.612   0.203  10.537  0.1816 -0.2120 -0.1296
 6487W        W10538   1.728   6.668  12.518  0.4415  0.1728 -0.0547
 6488W        W10539   9.600   3.689   2.657 -0.0446 -0.0825  0.0479
 6489W        W10540   2.745   3.594   3.572  0.5101 -0.1457 -0.1448
 6490W        W10541   3.112   4.577   1.462 -0.0315 -0.0479 -0.0933
 6491W        W10542   6.283   4.790  11.310 -0.0454  0.1010 -0.1279
 6492W        W10543   0.569   5.323  12.391  0.2169 -0.0714 -0.1496
 6493W        W10544  10.186   6.422   1.449 -0.0107  0.0823  0.0442
 6494W        W10545   6.659   6.694   3.787  0.0321 -0.2710  0.2847
 6495W        W10546   3.482   0.959   0.873  0.2311 -0.1377 -0.0709
 6496W        W10547   2.472   1.262  10.509 -0.0900  0.1388  0.1101
 6497W        W10548   5.460   5.330   0.409  0.2445  0.4348  0.0380
 6498W        W10549   2.420   5.428  11.453 -0.0702  0.0229 -0.1103
 6499W        W10550   9.018   1.023   1.300  0.2360  0.2167 -0.2436
 6500W        W10551   4.207   8.963  12.575  0.2966  0.0783  0.1650
 6501W        W10552   8.859   7.949   0.767  0.2204 -0.5971 -0.0525
 6502W        W10553   9.197   4.223   2.081 -0.0007  0.0701 -0.1921
 6503W        W10554   9.319   0.683   3.041  0.1238  0.1605 -0.0094
 6504W        W10555   9.993   7.526   4.467 -0.3528 -0.1416 -0.2616
 6505W        W10556   7.728   5.342   3.220 -0.0545 -0.3367  0.0833
 6506W        W10557   3.884   9.540   3.565  0.3066  0.3489 -0.3284
 6507W        W10558   4.651   1.436  10.456 -0.0456  0.0476 -0.0263
 6508W        W10559   2.393   1.876  11.691 -0.1552 -0.0332 -0.0903
 6509W        W10560   1.463   3.916   0.100 -0.0285  0.2182  0.1383
 6510W        W10561   6.760   2.846   1.629  0.1949  0.2992 -0.1095
 6511W        W10562   2.483   9.059  10.941  0.0741 -0.2026 -0.1410
 6512W        W10563   5.910   1.246   2.482 -0.0883 -0.0141  0.2189
 6513W        W10564   8.794   9.236   0.517  0.0100  0.2268 -0.0369
 6514W        W10565   9.595   9.578   3.215  0.0282  0.0020 -0.1814
 6515W        W10566   9.772   1.335   0.155  0.0859  0.0357 -0.1736
 6516W        W10567   8.582   6.107   9.304  0.0041  0.1222 -0.0732
 6517W        W10568   1.186   8.453  12.983 -0.2073  0.2762  0.0164
 6518W        W10569   7.409   1.226   3.593 -0.1488  0.0134 -0.2403
 6519W        W10570   5.608   5.790   0.537 -0.2199  0.2419  0.0403
 6520W        W10571   0.946  10.169   3.236  0.0568 -0.3188  0.3215
 6521W        W10572   3.864   1.289   3.500 -0.2755  0.2112 -0.0408
 6522W        W10573   9.802   1.887   9.339 -0.1125  0.2424  0.0071
 6523W        W10574   0.773   7.231   1.263 -0.2221 -0.1789  0.0873
 6524W        W10575   2.159   2.050  11.176 -0.0012 -0.0460  0.2085
 6525W        W10576   4.554   8.651  12.850  0.1008  0.1058 -0.1009
 6526W        W10577   1.697   6.136  13.806 -0.3317  0.1512 -0.2715
 6527W        W10578   5.964   0.628   0.230  0.0447  0.0302  0.0086
 6528W        W10579   1.873   7.309   1.254 -0.0310 -0.3252  0.3685
 6529W        W10580   2.125   4.825   3.693  0.1382  0.2807 -0.1860
 6530W        W10581   5.924   4.081  10.587  0.0507  0.0006  0.0598
 6531W        W10582   4.956   1.133  11.942 -0.0550 -0.2715 -0.3672
 6532W        W10583   8.369   0.536   1.731 -0.3167 -0.1666 -0.0924
 6533W        W10584   3.872   7.597   2.892  0.0968 -0.2213 -0.3355
 6534W        W10585   1.947   7.860   4.483  0.1022  0.0581  0.0496
 6535W        W10586   6.371   3.159   9.224  0.2436 -0.2776 -0.1206
 6536W        W10587   0.644   0.971  12.705 -0.1087  0.0263 -0.0190
 6537W        W10588   3.866   1.641   1.264 -0.1136  0.1751 -0.3112
 6538W        W10589   5.921   1.326   3.821 -0.2435  0.0668  0.1200
 6539W        W10590   9.487   5.924   1.852 -0.0386 -0.2101  0.0392
 6540W        W10591   5.855   9.828   5.215 -0.0970 -0.1037 -0.0226
 6541W        W10592   9.448  10.156   3.560 -0.1248 -0.1159 -0.1299
 6542W        W10593   1.625   0.246   4.697 -0.1137  0.0052  0.1226
 6543W        W10594   0.248   3.031  11.587 -0.1607 -0.1166  0.2071
 6544W        W10595   4.980   1.734   2.177  0.4869 -0.2215  0.2165
 6545W        W10596   8.817   1.372   1.054 -0.1482 -0.3930 -0.2446
 6546W        W10597   8.408   9.227   1.916 -0.2397 -0.1807 -0.0065
 6547W        W10598  10.193   1.222   2.890  0.1007 -0.4214  0.0434
 6548W        W10599   9.812   6.480   3.123 -0.1249 -0.1154  0.0661
 6549W        W10600   3.466   0.284  13.411  0.1134  0.1552  0.2118
 6550W        W10601   3.489   5.017   0.614  0.0386 -0.1049  0.2728
 6551W        W10602   1.000   0.283   2.821  0.0197  0.3330  0.1237
 6552W        W10603   7.942   9.402   4.425  0.2200  0.2677  0.0346
 6553W        W10604   2.964   9.458   9.545  0.2473 -0.2010 -0.2243
 6554W        W10605   4.488   9.468  13.875  0.2012  0.3510  0.1934
 6555W        W10606   9.939   5.911   1.978 -0.1897  0.1546  0.0230
 6556W        W10607   8.398   5.353   2.672 -0.1666  0.0539  0.4612
 6557W        W10608   8.358   0.651   0.503 -0.0401 -0.2006  0.0211
 6558W        W10609   0.601   1.285   3.350  0.0131 -0.3897  0.2856
 6559W        W10610   5.813   4.768   1.772  0.3847 -0.0850 -0.4179
 6560W        W10611   9.491   1.265  11.306  0.2537  0.2873  0.1437
 6561W        W10612   4.463   1.135  11.194 -0.0132 -0.2396 -0.1581
 6562W        W10613   1.843   1.990   8.273  0.0581  0.0793  0.2423
 6563W        W10614   5.386   0.975  11.052 -0.2934  0.2348  0.0578
 6564W        W10615   9.311   6.307   9.690 -0.0493 -0.1140 -0.0811
 6565W        W10616   6.691   1.765   4.793 -0.1721 -0.1892 -0.0116
 6566W        W10617   8.453   2.038  10.369 -0.2362 -0.2717  0.2877
 6567W        W10618   0.253   4.167   2.686  0.1921  0.1539 -0.1155
 6568W        W10619   0.002   7.490   0.655 -0.3556  0.5049  0.4153
 6569W        W10620   2.596   0.238   2.170 -0.2018  0.0785 -0.3615
 6570W        W10621   9.631   1.674  13.744  0.1498 -0.2870  0.2513
 6571W        W10622   7.686   3.251  12.189 -0.0519 -0.0479  0.0178
 6572W        W10623   2.351   2.354   3.238 -0.3940  0.2511  0.1113
 6573W        W10624   3.931   9.898   2.091  0.0446  0.0699  0.0126
 6574W        W10625   2.881   0.727   3.283 -0.2611  0.2884  0.1295
 6575W        W10626   2.600   8.925  12.714  0.2326  0.0454  0.2091
 6576W        W10627   1.410   1.616   0.351  0.0227 -0.1186  0.2225
 6577W        W10628   3.829   6.619  13.245  0.1186 -0.2434 -0.1030
 6578W        W10629   7.085   0.189  12.966 -0.2645  0.1960 -0.2664
 6579W        W10630   3.226   2.891  11.280 -0.0215 -0.2795 -0.0845
 6580W        W10631   8.951   2.723   0.092 -0.2822 -0.2135 -0.1854
 6581W        W10632   5.733   9.353   1.920 -0.2760 -0.1911  0.0132
 6582W        W10633   0.275   4.790   0.003  0.0124  0.2350 -0.1021
 6583W        W10634   6.912   8.808  11.303 -0.1164  0.1097 -0.0297
 6584W        W10635   7.935   5.634  10.851  0.0306 -0.3373  0.0170
 6585W        W10636   0.067   2.344  12.734 -0.0801 -0.1706  0.0208
 6586W        W10637   2.742   1.800   2.340 -0.1219  0.0930  0.0078
 6587W        W10638   8.976   6.003   3.413  0.3038 -0.2756  0.0961
 6588W        W10639   5.228   1.906   1.733 -0.1996 -0.0836  0.0031
 6589W        W10640   3.922   6.582  13.749 -0.1459  0.0220 -0.1600
 6590W        W10641   2.359   9.787   3.833  0.0717  0.0349 -0.2446
 6591W        W10642   9.897   1.022  12.849 -0.1901 -0.1874  0.3835
 6592W        W10643   0.871   0.168   0.964 -0.0139 -0.0062  0.1732
 6593W        W10644   2.672   4.784  10.239  0.1652  0.0400  0.1315
 6594W        W10645   1.357   7.678  10.638 -0.2823 -0.0203 -0.2004
 6595W        W10646   3.902   8.428   0.939 -0.0033 -0.0620 -0.2067
 6596W        W10647   0.850   5.902  13.398 -0.0134 -0.2019  0.2724
 6597W        W10648   2.155   1.146   0.918 -0.0686 -0.2970 -0.1643
 6598W        W10649   4.063   1.506   4.789  0.1068  0.0065 -0.1697
 6599W        W10650   5.668   7.887  12.326 -0.0729  0.2388 -0.0028
 6600W        W10651   4.708   5.332   0.896  0.0700 -0.3203  0.0477
 6601W        W10652   3.075   6.617   3.444 -0.0262  0.0816  0.1392
 6602W        W10653   0.573   1.249   2.396 -0.1958  0.2056  0.0209
 6603W        W10654   3.641   2.617   4.465  0.2035 -0.1587  0.4691
 6604W        W10655   5.886   0.611   2.026  0.1902 -0.0770  0.0044
 6605W        W10656   5.358   4.607  13.553 -0.2430 -0.0220 -0.2694
 6606W        W10657   0.644   3.859   3.907  0.2550 -0.0918  0.0849
 6607W        W10658   1.843   5.664   2.757 -0.1165 -0.1133 -0.1729
 6608W        W10659   9.641   2.075   1.709 -0.3221  0.2078 -0.2007
 6609W        W10660   4.171   4.475   3.013  0.2460 -0.0433 -0.1611
 6610W        W10661   2.468   3.606   0.247 -0.1309 -0.0207  0.1237
 6611W        W10662   8.601   4.297  12.682  0.0125  0.2415  0.3540
 6612W        W10663   9.837   5.958   2.967 -0.2474 -0.0486 -0.1289
 6613W        W10664   8.072   0.473   2.262 -0.1999 -0.1598 -0.0338
 6614W        W10665   2.112   4.411  12.361  0.0019  0.0672 -0.1219
 6615W        W10666   7.832   6.735   3.004 -0.1346 -0.0679  0.0406
 6616W        W10667   1.669   0.835   4.324  0.0539 -0.0091 -0.1750
 6617W        W10668   8.460   0.138   5.362  0.1166  0.3566  0.3619
 6618W        W10669   9.146   0.061  12.444  0.3259  0.3012  0.0365
 6619W        W10670   4.856   5.040   4.073 -0.0342 -0.1627 -0.3764
 6620W        W10671   6.631  10.076  10.112 -0.2279  0.0091  0.2899
 6621W        W10672   3.614   5.764   1.403  0.2816  0.1610 -0.0221
 6622W        W10673   3.358   3.657   1.084  0.2763  0.1774 -0.2257
 6623W        W10674   4.386   8.167  11.591  0.0009 -0.1072  0.1557
 6624W        W10675   1.233   8.159  11.584  0.0580 -0.1303  0.0873
 6625W        W10676   9.980   2.602   5.253 -0.0371 -0.2755  0.2195
 6626W        W10677   1.848   0.262   4.201 -0.1067  0.0739 -0.2826
 6627W        W10678   8.440   7.602   0.926 -0.0054 -0.1743 -0.0228
 6628W        W10679   1.096   9.754  12.485 -0.0539  0.3614 -0.1721
 6629W        W10680   4.885   7.041  11.879 -0.1189  0.0955  0.1220
 6630W        W10681   4.656   7.286  13.652  0.2927  0.2638  0.0957
 6631W        W10682   2.448   7.094  12.491  0.0385  0.1481 -0.1298
 6632W        W10683   3.198   5.352   1.413 -0.2244 -0.0336 -0.1229
 6633W        W10684   4.192   1.540  13.041 -0.1530  0.0910 -0.2989
 6634W        W10685   2.624   2.345   1.294  0.0717 -0.2706 -0.1972
 6635W        W10686   5.704   2.410   4.217  0.0719  0.0432  0.0325
 6636W        W10687   9.877   5.009  10.814 -0.2176  0.2649 -0.1297
 6637W        W10688   1.907   9.574   0.820  0.2345 -0.0789  0.2887
 6638W        W10689   7.896   9.862   2.780 -0.0254  0.0411  0.2342
 6639W        W10690   0.448   8.801  11.527  0.3240  0.4319  0.1680
 6640W        W10691   0.212   2.115   0.801 -0.2812 -0.1079  0.0435
 6641W        W10692   3.011   9.003   9.743  0.1159  0.3253 -0.2514
 6642W        W10693   7.510   4.809  10.563 -0.1451 -0.3041  0.0832
 6643W        W10694   7.418   1.588  12.340  0.3661 -0.0128 -0.0999
 6644W        W10695   0.432   3.849  11.224 -0.1383  0.0950 -0.1500
 6645W        W10696   1.925   5.809   0.251  0.0412 -0.1882  0.0431
 6646W        W10697   1.012   4.798   4.975 -0.0163 -0.1069  0.1629
 6647W        W10698   9.769   4.311  13.124 -0.1211  0.1633  0.0983
 6648W        W10699   4.786   5.088   3.089 -0.0349 -0.2687 -0.1085
 6649W        W10700   1.903   7.460   3.948  0.3058 -0.1974  0.0346
 6650W        W10701   3.521   9.552  10.752 -0.0366 -0.4531  0.0911
 6651W        W10702  10.131   3.057  11.254 -0.0856 -0.3251  0.0427
 6652W        W10703   6.945   4.708  12.100  0.0344 -0.0769 -0.0917
 6653W        W10704   4.254   4.501  11.708 -0.1150  0.2020  0.1918
 6654W        W10705   2.516   9.789   2.246  0.2159 -0.1722 -0.0380
 6655W        W10706   0.509   5.896  13.773 -0.0111 -0.0240 -0.1017
 6656W        W10707   5.199   5.774   0.221  0.2596 -0.1616  0.3762
 6657W        W10708   7.984   6.037  12.925 -0.3009  0.0332 -0.0424
 6658W        W10709   9.492   6.795   1.494 -0.1758 -0.1104 -0.2386
 6659W        W10710   8.690   9.577   9.617 -0.2131  0.0729  0.0683
 6660W        W10711   2.538   1.029  12.960  0.1360 -0.2365 -0.0290
 6661W        W10712   2.893   5.471  11.348 -0.1720  0.3848  0.1863
 6662W        W10713   5.088   9.156  10.047 -0.1174 -0.1065  0.0104
 6663W        W10714   1.154   1.497   1.200 -0.0967 -0.0963 -0.7106
 6664W        W10715   6.838   7.624  13.461 -0.0692  0.0160 -0.1683
 6665W        W10716   9.456   5.935   1.127  0.2523  0.1421 -0.3376
 6666W        W10717   9.292   8.527   0.104  0.0663 -0.1843 -0.2291
 6667W        W10718   2.271   9.940  13.818  0.1582 -0.0148 -0.0736
 6668W        W10719   7.894   0.222   3.635 -0.0517  0.2021 -0.1562
 6669W        W10720   8.817   2.372   1.731 -0.1132 -0.0816  0.0391
 6670W        W10721   8.609   7.904  11.273 -0.0721  0.1607 -0.0178
 6671W        W10722   8.681   2.165   2.769 -0.0532 -0.3584  0.0878
 6672W        W10723   0.583   9.488   5.142  0.0418 -0.0097  0.1510
 6673W        W10724   9.125  10.053   8.877 -0.0104 -0.1175 -0.0584
 6674W        W10725   8.655   6.007   4.147 -0.2140 -0.0028 -0.0167
 6675W        W10726   8.891   0.669   3.827 -0.0143 -0.1284  0.2335
 6676W        W10727   7.225   4.751   2.805  0.1731  0.1439  0.0403
 6677W        W10728   9.567   1.295   5.046  0.3615  0.3867  0.2005
 6678W        W10729   5.943   2.565  10.119 -0.2109 -0.1494 -0.0916
 6679W        W10730   7.193   5.692   3.609  0.0594  0.1895 -0.3804
 6680W        W10731   6.520   7.804   9.155  0.3479  0.1758  0.0356
 6681W        W10732   8.714   7.421   0.000 -0.1083  0.2622 -0.0598
 6682W        W10733   4.761   4.929  12.352  0.0925  0.3504 -0.1628
 6683W        W10734   3.086   3.092  10.795  0.0073  0.1314 -0.1099
 6684W        W10735   0.240   3.554   3.524 -0.3789  0.1305  0.0130
 6685W        W10736   4.237   6.162   3.678  0.1377  0.0935 -0.2025
 6686W        W10737   0.114   4.993   4.239  0.0518  0.0725  0.2681
 6687W        W10738   9.275   3.111  10.943 -0.1455  0.1809 -0.1058
 6688W        W10739   9.369   1.876  11.856 -0.2045 -0.2729 -0.1094
 6689W        W10740   6.132   4.918   0.806  0.0207 -0.1812  0.0611
 6690W        W10741   3.421   9.478   3.093  0.0690 -0.0546 -0.0978
 6691W        W10742  10.033   8.420  13.338  0.0067  0.0159 -0.1081
 6692W        W10743   8.473   6.879   9.761  0.0562 -0.1659  0.2089
 6693W        W10744   3.647   9.176   1.464 -0.1817 -0.0906  0.3171
 6694W        W10745  10.195   1.240   2.380 -0.1480  0.1254  0.1308
 6695W        W10746   5.787   8.175  10.097 -0.0445  0.4174  0.4371
 6696W        W10747   5.073   9.255   0.005  0.2819  0.0733 -0.1710
 6697W        W10748   9.531   0.827  12.522  0.2187 -0.0399 -0.0903
 6698W        W10749   8.404   6.758   2.472 -0.1185 -0.2956 -0.2428
 6699W        W10750   1.732   4.398   9.966  0.3155 -0.0568  0.5248
 6700W        W10751  10.061   9.493  11.685 -0.0508 -0.3967 -0.0475
 6701W        W10752   0.825   7.431  10.137  0.2058  0.2771  0.0373
 6702W        W10753   3.710   4.041   1.008 -0.0897 -0.3109 -0.0061
 6703W        W10754   8.441   6.069  12.079  0.0068 -0.0105 -0.2068
 6704W        W10755   2.237   1.004   0.224 -0.2232  0.2907 -0.3205
 6705W        W10756   5.668   1.507   4.171  0.0057 -0.0897  0.1002
 6706W        W10757   6.888   2.898  10.493 -0.1476  0.1228 -0.4536
 6707W        W10758   2.508   2.268   9.910 -0.1226  0.2833  0.1948
 6708W        W10759   2.917   9.890  13.068  0.2328 -0.0167  0.0924
 6709W        W10760   1.845   1.297  11.460  0.0918  0.2380 -0.1001
 6710W        W10761   0.096   6.684   1.859  0.1126 -0.1417  0.1900
 6711W        W10762   3.288   4.762  10.792 -0.3035  0.0016  0.0179
 6712W        W10763   8.718   6.360   4.594  0.1283  0.0951 -0.1268
 6713W        W10764   3.420   6.192   4.140 -0.2008  0.3344 -0.3323
 6714W        W10765   7.372   5.565  13.268  0.2274 -0.1398  0.0778
 6715W        W10766   0.031   9.750   2.288  0.3496 -0.3950  0.1398
 6716W        W10767   9.127   8.745   4.087 -0.0026  0.1089 -0.0580
 6717W        W10768   6.669   9.503  10.324  0.1582  0.1350  0.2083
 6718W        W10769   8.991   5.947  11.332  0.3134  0.2713 -0.2001
 6719W        W10770   5.243   8.925  11.288  0.0532  0.1475 -0.0356
 6720W        W10771   0.671   2.426   9.871 -0.3249  0.1297 -0.2763
 6721W        W10772   9.440   0.931   4.536  0.1923 -0.2347 -0.1375
 6722W        W10773   4.639   2.481   3.265 -0.1133  0.1517  0.1404
 6723W        W10774   1.057   9.418  13.862 -0.0526  0.0862 -0.2500
 6724W        W10775   9.292   6.546  12.346 -0.0847  0.0993  0.0455
 6725W        W10776   5.494   4.715   0.459  0.0506  0.3568 -0.1309
 6726W        W10777   9.777   7.966   4.635  0.1588  0.0092 -0.0800
 6727W        W10778   3.194   1.871  12.765  0.2513  0.4060 -0.1151
 6728W        W10779   3.106   0.167  12.248  0.0331 -0.1305 -0.3646
 6729W        W10780   4.703   0.280   2.993 -0.1413  0.2948  0.0602
 6730W        W10781   7.115   4.418  12.460 -0.1354  0.0579  0.1226
 6731W        W10782   2.229   8.123   0.656  0.1376  0.1127 -0.2651
 6732W        W10783   3.643   7.849  11.593 -0.1055  0.0407 -0.0848
 6733W        W10784   9.468   9.021  13.863  0.4160  0.0701  0.2523
 6734W        W10785   7.015   4.738   1.243 -0.2701  0.0208 -0.0095
 6735W        W10786   9.240   2.083   2.372  0.0894  0.2930  0.1973
 6736W        W10787   6.963   2.800  12.810 -0.1080 -0.1585 -0.3623
 6737W        W10788   3.455   8.867  11.893  0.1553  0.1223  0.1810
 6738W        W10789   2.865   6.405   1.244  0.0062 -0.0306 -0.2158
 6739W        W10790   6.701   1.366   2.906  0.1420  0.0391 -0.1569
 6740W        W10791   0.953   9.589   4.713 -0.1332  0.0940 -0.2013
 6741W        W10792   0.474   4.179  13.097  0.3812  0.1316 -0.1711
 6742W        W10793   0.588   6.684  12.866 -0.1229  0.2424  0.0246
 6743W        W10794   2.031   7.106  10.920 -0.1001 -0.1464 -0.1765
 6744W        W10795   0.121   9.498   1.875  0.0653 -0.0975 -0.0456
 6745W        W10796   9.022   5.031  10.199 -0.2671  0.0365 -0.1344
 6746W        W10797   4.715   6.792   0.856 -0.1636  0.1000  0.1875
 6747W        W10798   0.778   1.463  13.657  0.0367 -0.0090 -0.1712
 6748W        W10799   5.065   2.840  12.369 -0.2509  0.0028 -0.3164
 6749W        W10800   1.671   8.810  10.352  0.0790 -0.0919 -0.2365
 6750W        W10801   7.002   8.116   0.391  0.0040 -0.1729 -0.0545
 6751W        W10802   5.914   2.419   0.672  0.0051 -0.1498 -0.0373
 6752W        W10803   7.347   7.575  10.860 -0.1116 -0.0660 -0.2133
 6753W        W10804   8.880   2.290  13.862  0.0159  0.2327  0.0986
 6754W        W10805   2.044   6.554   2.015  0.0022  0.2185  0.2019
 6755W        W10806   9.153   2.005   1.654  0.5586 -0.0980  0.1380
 6756W        W10807   4.919   0.735   0.001  0.1525  0.1609  0.1335
 6757W        W10808   1.176   9.621  10.390 -0.2582 -0.0506  0.0828
 6758W        W10809   5.613   4.298   1.644 -0.1100  0.0516  0.0682
 6759W        W10810   9.143   2.686  12.045 -0.1665  0.1329  0.1744
 6760W        W10811   8.574   9.302   1.468  0.0441  0.1770  0.2900
 6761W        W10812   5.955   8.988  12.947 -0.0155 -0.1426  0.1068
 6762W        W10813   8.250   8.013   9.282  0.0813  0.3536 -0.0387
 6763W        W10814   2.445   8.039   2.398  0.1272 -0.3746 -0.2253
 6764W        W10815   5.957   0.619  13.631  0.2957  0.2727 -0.2377
 6765W        W10816   7.575   1.242  11.298 -0.0855  0.0310  0.2287
 6766W        W10817   2.997   9.315  10.908 -0.0111 -0.2167  0.0980
 6767W        W10818   9.231   8.171   4.502 -0.4199 -0.0494  0.1534
 6768W        W10819   6.524   9.592   3.909 -0.1395  0.4239  0.1306
 6769W        W10820   4.256   0.473   9.678  0.0411  0.4207 -0.1779
 6770W        W10821   2.827   1.390   9.737  0.0595  0.2359  0.2365
 6771W        W10822   0.642   2.909  10.053  0.1384  0.1862  0.1844
 6772W        W10823   4.909   0.188   1.326  0.1022 -0.0622 -0.0448
 6773W        W10824   3.799   8.165  12.499  0.0711  0.3268 -0.1786
 6774W        W10825   2.877   2.652  12.369  0.0237 -0.1544  0.1565
 6775W        W10826   3.967   4.920  12.807  0.0864 -0.2278  0.0990
 6776W        W10827   0.856   1.883   5.379  0.2928  0.0250  0.4480
 6777W        W10828   9.114   2.034   4.077  0.1072 -0.1511  0.1304
 6778W        W10829   6.903   3.442  10.680  0.1172 -0.2059 -0.1602
 6779W        W10830   7.823   1.625   3.844 -0.0240 -0.0466 -0.2975
 6780W        W10831   5.787   9.354  12.582  0.3635  0.2883 -0.4487
 6781W        W10832   6.111   9.699  12.463  0.1148  0.1365 -0.0162
 6782W        W10833   7.371   5.299  12.216 -0.3439  0.1097 -0.0072
 6783W        W10834   6.742   1.879   0.804 -0.1017 -0.1522  0.3610
 6784W        W10835   7.742   5.462   9.797  0.1078 -0.3207 -0.2654
 6785W        W10836   0.283   8.429   9.823  0.2618  0.0795  0.1288
 6786W        W10837   3.700   5.159  12.396 -0.2124 -0.4632  0.1211
 6787W        W10838   2.740   2.260  13.107  0.0381  0.0775  0.0381
 6788W        W10839   9.122   6.130   2.938  0.2123  0.2382  0.0337
 6789W        W10840   7.540   6.469  13.525 -0.1306 -0.0101  0.0556
 6790W        W10841   1.055   3.563  12.280 -0.0650  0.1316 -0.1146
 6791W        W10842   7.658   4.217  12.537 -0.1567  0.1131 -0.0377
 6792W        W10843   0.453  10.198   4.119  0.0833  0.0665 -0.0333
 6793W        W10844   1.643   3.276   0.744 -0.0338  0.0396  0.2272
 6794W        W10845   9.555   0.423   2.295  0.1016 -0.0721 -0.1148
 6795W        W10846   8.394  10.060  13.470  0.3941 -0.0674 -0.0201
 6796W        W10847   5.285  10.094   0.391  0.1508 -0.1740  0.1371
 6797W        W10848   4.302   3.190   3.403 -0.2138  0.1448 -0.1014
 6798W        W10849   6.608   5.771   3.712  0.0714 -0.3193 -0.1537
 6799W        W10850   7.423   7.892   2.635 -0.0444  0.1251 -0.2699
 6800W        W10851   3.440   8.525   0.715 -0.0766  0.0971  0.1409
 6801W        W10852   5.556   9.771   3.564 -0.3245 -0.1861 -0.2005
 6802W        W10853   9.203   6.170   9.251 -0.2004  0.2506 -0.0063
 6803W        W10854   4.157   2.322   1.344 -0.2190  0.1918  0.1194
 6804W        W10855   0.707   1.906  10.968  0.3099  0.1098 -0.0072
 6805W        W10856   4.991   4.811  10.591 -0.3314 -0.1803 -0.3027
 6806W        W10857   3.209   4.748  13.116  0.0116  0.1661  0.1444
 6807W        W10858  10.024   9.803  11.248  0.1693 -0.0304 -0.0511
 6808W        W10859   1.374   4.794  10.442 -0.1506  0.1601 -0.2316
 6809W        W10860   4.453   6.304   1.827  0.0361  0.5015  0.1495
 6810W        W10861   5.523   1.482   0.055  0.1348 -0.2049  0.0664
 6811W        W10862  10.100   9.853   4.944  0.0915  0.1591  0.1729
 6812W        W10863   3.672   1.886   2.001 -0.1866  0.1404 -0.0444
 6813W        W10864   7.124   3.526   8.913  0.0569  0.2391  0.0172
 6814W        W10865   8.323   9.516   4.135  0.2625  0.3559  0.2422
 6815W        W10866   9.992   3.644   2.058 -0.3129  0.0023 -0.0536
 6816W        W10867   7.823   8.840   4.507 -0.3091  0.1777  0.1992
 6817W        W10868   4.450   1.996   4.577  0.1475  0.1234  0.0477
 6818W        W10869   1.825   0.232  12.683 -0.1910 -0.0938  0.0464
 6819W        W10870   1.349   8.997  10.733 -0.0609 -0.1270  0.0792
 6820W        W10871   8.508   1.660   1.369 -0.0688 -0.1280 -0.0342
 6821W        W10872   7.961   1.618  13.897  0.0912 -0.0171 -0.1824
 6822W        W10873   1.407   6.203   9.935  0.2632  0.0479 -0.2877
 6823W        W10874   3.807   5.101  10.625 -0.3092  0.2117  0.0790
 6824W        W10875   3.080   4.168  11.569 -0.1272 -0.0021 -0.1690
 6825W        W10876   6.303   1.146  10.412  0.0505 -0.0080 -0.2279
 6826W        W10877   2.568   6.007  12.152  0.0709 -0.0357 -0.2647
 6827W        W10878   9.340   5.494   1.364 -0.2567 -0.2249  0.0309
 6828W        W10879   6.566   3.722  12.894 -0.1312 -0.2495 -0.0848
 6829W        W10880   9.182   4.374  13.383  0.0577  0.1397 -0.3542
 6830W        W10881   3.478   8.486  10.911 -0.1230  0.2895 -0.2321
 6831W        W10882   8.551   0.876   0.915  0.2531 -0.0025  0.1186
 6832W        W10883   3.314   8.303  10.032  0.1112 -0.2512  0.1962
 6833W        W10884   6.179   5.693   2.803  0.1173 -0.0019 -0.0572
 6834W        W10885   1.168   3.136   3.660  0.1955 -0.0076  0.0064
 6835W        W10886   2.488   4.020   3.548 -0.1699 -0.2379  0.0859
 6836W        W10887   7.043   2.315   4.464 -0.1806 -0.1817 -0.1359
 6837W        W10888   1.339   9.500   9.948 -0.5597 -0.1068 -0.1662
 6838W        W10889   0.364   0.863   3.484 -0.1991  0.1319 -0.0730
 6839W        W10890   2.257   4.050   0.054 -0.0864 -0.1285 -0.0286
 6840W        W10891   0.659   7.936   2.449  0.0242 -0.1582  0.1966
 6841W        W10892   8.118   0.046   1.839  0.0382  0.0753  0.1056
 6842W        W10893   8.505   8.662  11.102  0.0011  0.0648  0.2055
 6843W        W10894   6.440   4.280   2.782 -0.0575  0.0900  0.1432
 6844W        W10895   4.727   8.158   0.302  0.0843  0.3221 -0.1742
 6845W        W10896   6.986   4.098   9.796  0.0287  0.0644  0.0709
 6846W        W10897   0.805   7.259  10.697  0.0250 -0.0145 -0.0691
 6847W        W10898   1.137   4.957   3.786 -0.0973  0.1756 -0.0093
 6848W        W10899   8.629   4.889   2.032  0.0892 -0.2592  0.2229
 6849W        W10900   1.323   7.919   0.942  0.1108 -0.1672 -0.0789
 6850W        W10901   4.969   6.176  12.611  0.0771  0.0669  0.0250
 6851W        W10902   1.004   8.660  11.672 -0.1596  0.0291 -0.2672
 6852W        W10903   2.611   4.186  10.255  0.2620 -0.0549 -0.1527
 6853W        W10904   9.398   0.910  11.961  0.2306 -0.2148 -0.1200
 6854W        W10905   7.847   2.607   3.920 -0.2215  0.0771  0.2440
 6855W        W10906   3.709   1.830   4.862 -0.1050  0.0860 -0.2137
 6856W        W10907   9.768   8.797   0.234  0.0469  0.3179  0.1758
 6857W        W10908   7.886   8.737   5.029 -0.0033 -0.2499  0.0361
 6858W        W10909   4.771   3.498  11.018 -0.1990 -0.2460 -0.2222
 6859W        W10910   4.585   5.841  10.304  0.0898 -0.1009  0.0308
 6860W        W10911   8.982  10.038  10.041  0.3202  0.0494 -0.1265
 6861W        W10912   9.204   4.382   5.489 -0.0274  0.2743  0.1547
 6862W        W10913   4.707   5.342  10.198 -0.0104  0.0243  0.2198
 6863W        W10914   0.227   5.459   4.194  0.0682 -0.0869  0.2512
 6864W        W10915   9.887   8.986  13.284 -0.2181  0.2168  0.2115
 6865W        W10916   3.515   5.600  10.641  0.2724  0.1145 -0.2887
 6866W        W10917   6.565   8.151   1.279  0.0069  0.1510  0.1131
 6867W        W10918   4.263   7.913  11.168 -0.2270 -0.2508  0.0027
 6868W        W10919   2.297   7.930   4.128  0.1821  0.2642 -0.0020
 6869W        W10920   2.259   4.425  12.866 -0.1183 -0.1106  0.0934
 6870W        W10921   3.889   7.991  13.839  0.0403 -0.0196  0.0535
 6871W        W10922   2.021   9.146   9.548  0.2068  0.2499 -0.0173
 6872W        W10923   7.849   5.522  12.095  0.2830 -0.3452  0.0013
 6873W        W10924   8.809   1.920   9.359  0.1332  0.1098 -0.0481
 6874W        W10925   7.604   9.574   3.159 -0.0985  0.5280  0.1325
 6875W        W10926   1.464   3.967   0.884  0.1964  0.3305  0.0514
 6876W        W10927   4.665   1.765   3.916 -0.1849  0.2006  0.0920
 6877W        W10928   7.725   4.489  12.985 -0.0194  0.1931 -0.0591
 6878W        W10929   3.247   0.870  11.509  0.0462  0.2815 -0.0956
 6879W        W10930   8.543   9.858   5.391  0.1739  0.0226 -0.1581
 6880W        W10931   7.371   6.113   0.120 -0.0637  0.1473  0.2257
 6881W        W10932   5.905   8.458  13.124 -0.3174  0.0527 -0.0499
 6882W        W10933   5.676   1.125   2.034 -0.2849 -0.2676 -0.1141
 6883W        W10934   5.448   2.296  11.734 -0.0476 -0.0904  0.3137
 6884W        W10935   8.311   9.092   3.088 -0.1151  0.0285 -0.2932
 6885W        W10936   9.558   0.555   0.873 -0.1308  0.1933  0.0168
 6886W        W10937   1.234   2.178  13.673 -0.1718 -0.1681 -0.1025
 6887W        W10938   9.763   3.944   3.070 -0.0988 -0.2235  0.3847
 6888W        W10939   4.428   3.175  11.177  0.0571 -0.0350  0.2473
 6889W        W10940   8.491   0.991   9.533  0.1488  0.1807  0.1295
 6890W        W10941   5.637   9.679  10.048  0.2015  0.2169 -0.3309
 6891W        W10942   0.075   0.857  10.142  0.0669  0.0222 -0.0176
 6892W        W10943   6.750   3.248  12.106 -0.0830  0.0638 -0.2213
 6893W        W10944   7.627   2.661   2.654 -0.0739 -0.0745  0.2257
 6894W        W10945   5.510   4.133   0.358  0.0896  0.1899  0.0599
 6895W        W10946   2.540   0.954   9.287 -0.0670 -0.1233  0.1244
 6896W        W10947   1.713   3.795   2.707 -0.2114  0.0514  0.1229
 6897W        W10948   7.331   2.854  10.120  0.0134  0.0032  0.2278
 6898W        W10949  10.157   2.387  10.546 -0.2059 -0.0780 -0.1126
 6899W        W10950   7.416   9.588   2.033 -0.0179  0.0299 -0.0138
 6900W        W10951   5.732   7.495   2.963  0.4415  0.2281 -0.1607
 6901W        W10952   3.379   1.991   3.714  0.1904 -0.2163 -0.3646
 6902W        W10953   9.591   6.723   4.824 -0.1690  0.0061  0.1393
 6903W        W10954   8.944   1.280  10.588 -0.0999 -0.0036  0.0593
 6904W        W10955   7.824   4.571   2.657  0.0967 -0.0888  0.2101
 6905W        W10956   4.032   4.943  13.595  0.3246 -0.0712  0.3467
 6906W        W10957   0.078   4.010   4.839  0.0998  0.0767 -0.1094
 6907W        W10958   9.166   2.522   3.233  0.0760  0.1058 -0.0878
 6908W        W10959   6.867   7.824   4.447  0.1362  0.0049  0.0347
 6909W        W10960   0.453   2.609   2.309  0.1287 -0.0916 -0.0605
 6910W        W10961   4.207   4.044  11.405 -0.0043 -0.1178 -0.2205
 6911W        W10962   1.064   8.411   9.898 -0.3269 -0.0869 -0.0366
 6912W        W10963   5.356   3.911  13.054  0.1175 -0.2689 -0.0368
 6913W        W10964   5.768   1.966   4.506  0.2154 -0.0966 -0.1715
 6914W        W10965   7.808   5.022   3.995  0.0488 -0.1304  0.0411
 6915W        W10966   3.628   7.763   0.348 -0.2885 -0.1430 -0.0340
 6916W        W10967   5.467   1.408  12.198 -0.1223  0.0715  0.1070
 6917W        W10968   5.968   3.232   4.116 -0.1178  0.0964  0.0105
 6918W        W10969   3.586   0.385   0.558 -0.1026 -0.2710  0.1098
 6919W        W10970   0.411   4.128  10.646  0.0416 -0.0175 -0.0401
 6920W        W10971   4.149   3.646  10.497 -0.1209 -0.1482  0.0721
 6921W        W10972   2.675   9.125   0.455  0.1858 -0.0929 -0.3490
 6922W        W10973   9.276   6.547   1.934 -0.0359 -0.0206 -0.1007
 6923W        W10974   7.567   3.422   3.423  0.2496  0.2035 -0.1353
 6924W        W10975   1.191   7.759  10.161 -0.3965 -0.0058  0.1452
 6925W        W10976   3.157   8.833   2.028  0.0043  0.0838 -0.0401
 6926W        W10977   1.715   3.158   2.031 -0.0345 -0.1157 -0.0658
 6927W        W10978   3.186   3.564   2.976 -0.0161 -0.0733 -0.0156
 6928W        W10979   4.778   7.276  10.524  0.5429 -0.0164 -0.0152
 6929W        W10980   7.579   6.478   3.391 -0.2723  0.1888  0.0130
 6930W        W10981   6.645   3.502   2.254 -0.2130  0.0018 -0.0322
 6931W        W10982   2.048   4.173   2.595 -0.1357  0.0358 -0.0309
 6932W        W10983   3.326   2.000   3.200  0.0043  0.1464 -0.2725
 6933W        W10984   1.546   5.148  12.908 -0.2159 -0.0121 -0.3585
 6934W        W10985   6.357   8.627  12.185 -0.3361 -0.3446  0.1804
 6935W        W10986   8.581   1.924   4.097 -0.2712 -0.1180 -0.0205
 6936W        W10987   8.845   5.951  11.773  0.0298 -0.2049 -0.2251
 6937W        W10988   0.452   8.493  10.292 -0.3193  0.2242 -0.1482
 6938W        W10989   6.781   7.119   3.955 -0.2149 -0.1165  0.0073
 6939W        W10990   1.772   7.948   4.021 -0.0655 -0.1412  0.1061
 6940W        W10991   5.169   0.163  10.638  0.2407  0.0635  0.1101
 6941W        W10992   9.499   2.474  11.087 -0.0117  0.0387  0.2568
 6942W        W10993   4.019   6.446  11.509  0.1673 -0.1132  0.1522
 6943W        W10994   3.719   4.352   3.367  0.1511 -0.1748  0.1629
 6944W        W10995   6.370   5.850   2.250  0.0487  0.1653 -0.1465
 6945W        W10996   8.516   7.452   4.426 -0.0456  0.0983 -0.1344
 6946W        W10997   8.374   2.451   2.514  0.1831 -0.0818 -0.1366
 6947W        W10998   4.308   2.116   4.122  0.0918  0.4447  0.2407
 6948W        W10999   0.120   7.660   2.330  0.2290 -0.5878 -0.1392
 6949W        W11000   4.034   4.052   3.781  0.1341  0.0620 -0.0655
 6950W        W11001   5.563   4.290  10.334 -0.1453  0.3953 -0.0398
 6951W        W11002   6.587   6.223   1.934 -0.2750 -0.0912 -0.1226
 6952W        W11003   1.532   1.907   2.826 -0.0077  0.0868  0.0033
 6953W        W11004   0.263   2.671   3.599  0.0787  0.1251  0.1795
 6954W        W11005   2.255   2.042   3.709  0.4845  0.3048  0.2378
 6955W        W11006   6.389   3.029   3.635 -0.0825 -0.0582 -0.0639
 6956W        W11007   1.223   2.535   1.882  0.1241  0.2086  0.0720
 6957W        W11008   8.640   9.818  10.800 -0.3523  0.1935 -0.1168
 6958W        W11009   1.664   8.347   2.792  0.3866  0.0748  0.1775
 6959W        W11010   9.749   2.246   4.821 -0.0460  0.0096 -0.0026
 6960W        W11011   6.806   7.673   0.530  0.0406  0.2176  0.1325
 6961W        W11012   5.629   5.849  12.083  0.0826 -0.1989 -0.0680
 6962W        W11013   0.953   4.164   3.268  0.0758 -0.0420 -0.0683
 6963W        W11014   2.123   8.607  13.557 -0.0904  0.0453  0.0112
 6964W        W11015   7.321  10.162   5.222  0.3335  0.0330 -0.0189
 6965W        W11016   5.292   1.046   2.397 -0.1127 -0.4355  0.0027
 6966W        W11017   4.121   5.556  11.148 -0.1098  0.1294  0.4149
 6967W        W11018   0.971   3.626   2.100 -0.1625  0.0009  0.1472
 6968W        W11019   4.469   1.560   4.389 -0.1910  0.2315  0.0574
 6969W        W11020   0.757   1.618   2.893  0.0232 -0.0219 -0.2726
 6970W        W11021   2.404   8.356   4.390  0.2711 -0.1123 -0.0269
 6971W        W11022   9.399   9.279  12.621 -0.0302  0.1974 -0.2835
 6972W        W11023   8.472   6.872  12.148  0.4314  0.1189  0.2042
 6973W        W11024   7.584   2.355   5.232  0.1303 -0.0227 -0.0428
 6974W        W11025   4.820   1.238   2.121 -0.3518  0.3016  0.2290
 6975W        W11026   6.148   1.218   9.022 -0.3661  0.3475 -0.1376
 6976W        W11027   5.210   0.312   0.120 -0.2589 -0.1054 -0.1451
 6977W        W11028   5.328   0.065  13.249 -0.0653 -0.2137  0.2802
 6978W        W11029  10.164   6.240   9.239 -0.1992 -0.4890 -0.1120
 6979W        W11030   1.249   0.860   3.472  0.0015 -0.2486 -0.0207
 6980W        W11031   2.882   0.211  10.631  0.0036  0.0235 -0.2302
 6981W        W11032   2.601   4.864   4.980  0.1101 -0.2192 -0.1358
 6982W        W11033   8.889   1.798   3.090 -0.0422  0.2978  0.1644
 6983W        W11034   8.899   1.033  11.888 -0.0142 -0.0408  0.0996
 6984W        W11035   2.274   5.984   2.550 -0.0715  0.1207  0.3472
 6985W        W11036   8.062   0.763   3.498 -0.3936 -0.4110 -0.0532
 6986W        W11037   3.447   6.572  12.350 -0.2619  0.0086  0.1371
 6987W        W11038   7.267   9.715  13.224 -0.2073  0.1073  0.2207
 6988W        W11039   7.674   4.453   9.780  0.0520 -0.1344  0.0708
 6989W        W11040   9.173   2.161   2.890  0.2745 -0.4064  0.3135
 6990W        W11041   8.854   7.893  13.113 -0.0456 -0.0954  0.0641
 6991W        W11042   8.382   5.863   3.428 -0.0182 -0.1433 -0.1404
 6992W        W11043   8.839   2.302  10.479 -0.1672 -0.3095 -0.2147
 6993W        W11044   1.794   9.308   0.245 -0.4135 -0.0290 -0.3334
 6994W        W11045   5.632   2.031  12.439 -0.0604  0.1140 -0.1838
 6995W        W11046   5.660   6.386   2.467  0.0187  0.0813  0.0341
 6996W        W11047   3.062   4.174   4.451  0.2405  0.3829 -0.1202
 6997W        W11048   8.697   5.219   9.305  0.0310  0.2807  0.0416
 6998W        W11049   1.311   1.662  11.322 -0.0371  0.0040  0.1129
 6999W        W11050   1.080   4.351   1.049 -0.1482 -0.0391 -0.1020
 7000W        W11051   5.784   7.098   1.789  0.0470 -0.0652 -0.0935
 7001W        W11052   9.315   5.219  11.778  0.1946 -0.2326  0.1678
 7002W        W11053   3.148  10.018   4.207 -0.2779 -0.3934  0.0746
 7003W        W11054   6.803   8.091  12.673  0.0261 -0.0910  0.0116
 7004W        W11055   7.663   5.367  10.444  0.1202 -0.2528 -0.1243
 7005W        W11056   5.181   4.121   2.174 -0.1462  0.1105  0.2024
 7006W        W11057   7.723   9.932   1.827  0.1922 -0.1220 -0.0696
 7007W        W11058   6.862   3.863  11.005  0.3562 -0.3147  0.1282
 7008W        W11059   4.879   4.914   0.032 -0.1516 -0.1410 -0.1414
 7009W        W11060   7.478   8.716  10.172 -0.6183 -0.2162  0.1762
 7010W        W11061   7.047   5.060   9.711 -0.1213  0.1558  0.1742
 7011W        W11062   5.035   0.252  13.587  0.1521  0.4447  0.1376
 7012W        W11063   2.619   8.237  12.653 -0.0520  0.1479 -0.4081
 7013W        W11064   3.474   5.161  13.103 -0.0381 -0.1547  0.0776
 7014W        W11065   9.473   9.965   0.978 -0.3320  0.0485  0.2274
 7015W        W11066   9.749   1.515  11.721 -0.0600  0.1391  0.2457
 7016W        W11067   4.802   9.908  10.830 -0.0121 -0.3163 -0.1029
 7017W        W11068   7.962  10.177   3.155  0.0425 -0.0359  0.0877
 7018W        W11069   6.339   0.407   2.741 -0.0598 -0.0932 -0.3109
 7019W        W11070   0.634   7.840   0.951  0.0900  0.1207  0.1853
 7020W        W11071   6.112   5.747  12.084  0.0543  0.3204 -0.1813
 7021W        W11072   2.489   3.699  10.364  0.0034 -0.1286 -0.0564
 7022W        W11073   2.533   3.903   4.567 -0.0647  0.2767  0.3044
 7023W        W11074   9.683   4.799   3.464  0.3915  0.0019  0.0735
 7024W        W11075   4.258   2.148  12.253 -0.0602  0.2753 -0.1185
 7025W        W11076   3.774   7.278  11.431 -0.0086 -0.3045  0.1448
 7026W        W11077   3.976   6.971   2.927 -0.0829  0.4201 -0.4472
 7027W        W11078   3.030   1.490   1.322  0.2007 -0.0377  0.1304
 7028W        W11079   6.653   0.409  10.248  0.3194 -0.1854 -0.3497
 7029W        W11080   4.185   0.897   9.919  0.3359  0.1573 -0.0872
 7030W        W11081   6.139   3.761   4.217  0.0575 -0.2440 -0.4457
 7031W        W11082   1.023   6.821  13.042 -0.3004 -0.2906  0.2303
 7032W        W11083   6.037   8.307   4.146  0.0919 -0.0834 -0.1422
 7033W        W11084   7.969   6.660  12.779  0.2656 -0.3196  0.0375
 7034W        W11085   0.156   2.226  13.809  0.2837 -0.0094  0.2541
 7035W        W11086   9.608   0.158   5.433  0.1781 -0.0553  0.1825
 7036W        W11087   9.868   8.750   1.766  0.0929 -0.0213  0.2234
 7037W        W11088   9.573   0.522   9.118  0.1662 -0.2125  0.0242
 7038W        W11089   5.166   9.552   3.804  0.1239  0.2901  0.0405
 7039W        W11090   9.060   2.469   1.292  0.0174  0.1714 -0.0587
 7040W        W11091   4.391   5.761   0.689 -0.2899 -0.0781 -0.1872
 7041W        W11092   2.604   2.506   3.714 -0.1418  0.1451  0.0890
 7042W        W11093   8.738   5.113   0.419 -0.0293 -0.2556  0.0904
 7043W        W11094   0.727   0.520  12.582  0.6935 -0.0805 -0.1296
 7044W        W11095   4.752   0.774   4.280 -0.2241 -0.0148 -0.0013
 7045W        W11096   8.037   6.269   3.476 -0.0532  0.1213 -0.1346
 7046W        W11097   1.177   2.032   1.078 -0.0488 -0.0774  0.2791
 7047W        W11098   0.059   5.987  10.889  0.0436 -0.0494  0.1476
 7048W        W11099   9.223   8.261   1.515 -0.1938  0.4987 -0.2686
 7049W        W11100   3.503   6.212   3.165 -0.1497 -0.0145  0.1044
 7050W        W11101   2.670   7.708   1.092 -0.0930  0.2470  0.1132
 7051W        W11102   2.322   8.846  12.219 -0.0319 -0.0076 -0.1095
 7052W        W11103  10.047   5.518   8.684  0.0610  0.0155 -0.0291
 7053W        W11104   5.957   0.082   1.093 -0.1568  0.2769  0.1503
 7054W        W11105   6.315   0.117   3.348 -0.0008 -0.4843  0.3252
 7055W        W11106   1.933   3.642  13.868  0.1479 -0.3947 -0.1248
 7056W        W11107   6.069   8.381   1.481 -0.0739  0.1118 -0.0367
 7057W        W11108   7.699   8.396  12.069  0.0525 -0.2556 -0.0779
 7058W        W11109   6.392   8.458  10.444 -0.0104 -0.1647  0.1428
 7059W        W11110   3.942   1.976  12.846 -0.1568  0.0634  0.0529
 7060W        W11111   1.075   6.896   1.726  0.1021 -0.1737  0.4418
 7061W        W11112   0.989   9.761  10.838 -0.1587  0.1220  0.1659
 7062W        W11113   3.301   8.164  11.273  0.0986  0.1447  0.1006
 7063W        W11114   8.979   8.953  13.496  0.2075 -0.0299 -0.0157
 7064W        W11115   7.399   7.902  12.274  0.2081 -0.0129 -0.0736
 7065W        W11116   1.036   8.607   1.797 -0.2051 -0.2610 -0.0136
 7066W        W11117   7.520   7.661   3.171 -0.0834  0.0152  0.1851
 7067W        W11118   5.190   1.677   0.442  0.1440  0.0260  0.4382
 7068W        W11119   8.188   3.315  12.406  0.1700 -0.0296  0.0767
 7069W        W11120   8.329   1.773   3.694 -0.2296  0.3957 -0.0328
 7070W        W11121  10.038   3.290  11.709 -0.2258  0.1430 -0.0151
 7071W        W11122   7.744   6.939   0.849 -0.2720  0.2183 -0.2959
 7072W        W11123   5.915   7.064  12.821 -0.0210  0.0566 -0.0941
 7073W        W11124   1.103   3.479   0.159 -0.0890 -0.1506 -0.0835
 7074W        W11125   4.328   4.557   2.550 -0.1183  0.1143 -0.0130
 7075W        W11126   1.294   1.437  10.451  0.0505 -0.1907  0.0094
 7076W        W11127   7.890   5.804   3.399  0.2505  0.0048  0.0222
 7077W        W11128   3.810   2.989  11.209 -0.2169 -0.2785  0.5151
 7078W        W11129   4.109   6.017   1.527 -0.0244 -0.1058  0.1894
 7079W        W11130   5.517   5.887  13.625  0.1547  0.1032 -0.2406
 7080W        W11131   8.536   0.283  10.651 -0.4377 -0.0265 -0.0304
 7081W        W11132   5.028   0.122  12.131  0.3044  0.1645 -0.1779
 7082W        W11133   5.127   9.321  13.304 -0.2265 -0.1973 -0.1198
 7083W        W11134   1.781   8.959  12.169  0.0301 -0.2645  0.2409
 7084W        W11135   4.980   3.186   4.307 -0.0505  0.2372 -0.0679
 7085W        W11136   6.826   2.383   0.841 -0.0532  0.1428 -0.0605
 7086W        W11137   9.498   7.010  12.252  0.0711 -0.0703  0.1648
 7087W        W11138   0.275   7.601  12.972  0.0072  0.0684 -0.0029
 7088W        W11139   2.711  10.159   4.412 -0.0284  0.1009  0.0650
 7089W        W11140   0.602   8.450   2.111 -0.0365  0.0200  0.1565
 7090W        W11141   9.124   0.491  12.659 -0.2809 -0.1241  0.4131
 7091W        W11142   0.181   2.499   9.602 -0.0328  0.1133 -0.2864
 7092W        W11143   2.244   9.348  11.412  0.0641 -0.3404 -0.2764
 7093W        W11144  10.002   1.186  11.304  0.2341  0.1413 -0.0926
 7094W        W11145   2.598   6.463   0.311  0.0392 -0.0464  0.1530
 7095W        W11146   1.622   4.880   1.296  0.1107 -0.2659  0.1328
 7096W        W11147   8.281   3.720  12.785 -0.0129 -0.2365 -0.1100
 7097W        W11148   2.271   9.415   0.379 -0.1958  0.0105 -0.0217
 7098W        W11149   2.275   5.060  10.037 -0.0716 -0.3435  0.1565
 7099W        W11150   3.095   0.668   9.871  0.1485 -0.1849  0.2433
 7100W        W11151   6.524   4.886  11.790  0.0786  0.3149  0.2022
 7101W        W11152   3.906   1.198   4.225 -0.1370 -0.0057 -0.1045
 7102W        W11153   1.645   5.741  12.323 -0.0269 -0.2442  0.3238
 7103W        W11154  10.094   6.748   0.021 -0.0861  0.0761  0.0029
 7104W        W11155   9.114   6.615   2.717  0.0125  0.0798  0.0374
 7105W        W11156   6.424   8.816  12.957  0.1961 -0.1375  0.0199
 7106W        W11157   9.622   4.650  13.391 -0.2519 -0.0614 -0.1001
 7107W        W11158   1.680   5.194  13.839 -0.1405  0.3957 -0.1128
 7108W        W11159   8.648   7.168   2.336 -0.0259 -0.3073 -0.2365
 7109W        W11160   8.209   1.127  13.612 -0.0374 -0.0830 -0.0324
 7110W        W11161   6.011   3.572  10.445 -0.3257  0.2618 -0.2020
 7111W        W11162   2.996   8.481   0.994 -0.2000  0.0694  0.0297
 7112W        W11163   3.830   6.974   2.017 -0.0197  0.2752 -0.2782
 7113W        W11164   8.283   4.689  12.997  0.0298 -0.2794  0.1177
 7114W        W11165   6.195   6.695   1.820  0.0205 -0.1854 -0.0835
 7115W        W11166   4.281   8.649  13.637 -0.1359 -0.0569  0.2289
 7116W        W11167   9.813   0.003  10.468 -0.2512 -0.0838  0.0947
 7117W        W11168   3.228   0.416  12.705  0.1863 -0.2271 -0.0349
 7118W        W11169   1.492   0.565  11.651  0.1349  0.1370  0.3348
 7119W        W11170   7.738   2.938  12.823  0.1124 -0.0735 -0.0964
 7120W        W11171   7.861   0.668   1.839 -0.0246  0.1434  0.3490
 7121W        W11172   3.941   4.546   1.737  0.1256  0.0373 -0.1834
 7122W        W11173   3.424   5.246   3.248 -0.1382 -0.4499 -0.1846
 7123W        W11174   0.188   9.485  12.697  0.0355 -0.3667  0.0502
 7124W        W11175   8.493   0.152   4.473  0.3179 -0.0763 -0.5608
 7125W        W11176   4.553   1.566   0.322  0.0922  0.1375  0.2668
 7126W        W11177   8.418   0.629   5.320 -0.1550 -0.3114 -0.2222
 7127W        W11178   4.167   5.130   1.104  0.0850 -0.0267 -0.2998
 7128W        W11179   6.478   4.300  11.200 -0.0398 -0.1925 -0.3308
 7129W        W11180   4.251   3.184  10.300  0.1798  0.1841  0.2445
 7130W        W11181   2.012   5.004   1.568  0.2008 -0.0845 -0.1983
 7131W        W11182   9.426   0.561  13.592  0.0122  0.0781  0.0739
 7132W        W11183   0.092   5.514  13.868  0.0654 -0.1199 -0.4347
 7133W        W11184   2.063   3.302   9.229  0.0167  0.0096 -0.0892
 7134W        W11185   7.387   6.632   1.021 -0.1489 -0.3066 -0.0813
 7135W        W11186   7.469   3.286  10.020 -0.0380 -0.4679 -0.2563
 7136W        W11187   5.001   0.976  10.396  0.0400  0.1185 -0.0624
 7137W        W11188   2.423   4.614   2.420  0.1067  0.1077  0.1130
 7138W        W11189   9.889   0.223   3.675 -0.1423 -0.1157  0.0839
 7139W        W11190   4.319   1.212   0.580  0.0297 -0.2012 -0.0567
 7140W        W11191   9.754   5.615  13.173 -0.0554  0.1332  0.2932
 7141W        W11192   2.424   6.841   2.183 -0.1664 -0.2626  0.0063
 7142W        W11193   0.503   4.189   0.550 -0.1848 -0.2244 -0.0749
 7143W        W11194   0.393   2.182   3.974  0.0331  0.3213 -0.0925
 7144W        W11195   9.785   6.528  11.623 -0.2198 -0.0757  0.1324
 7145W        W11196   3.561   4.842   3.642 -0.0686  0.3370  0.1202
 7146W        W11197   1.969   0.040   0.148  0.2251 -0.0050  0.1272
 7147W        W11198   6.179   1.612   9.306  0.0569 -0.1350  0.1009
 7148W        W11199   3.674   4.374   2.791 -0.0016 -0.0234 -0.1883
 7149W        W11200   9.591   9.278   1.894  0.1897 -0.1746 -0.4566
 7150W        W11201   9.807   9.598   9.561 -0.1272  0.2525 -0.1822
 7151W        W11202   0.263   0.478   4.362  0.1381  0.2193 -0.2616
 7152W        W11203   0.720   3.996   9.954  0.0934  0.0375 -0.1563
 7153W        W11204   8.552  10.071   2.197 -0.1863 -0.1620  0.0734
 7154W        W11205   9.457   4.072   1.048 -0.0123 -0.4599  0.0349
 7155W        W11206   8.382   2.053  13.823  0.2464  0.0532 -0.0295
 7156W        W11207   6.558   7.344  11.407  0.1807 -0.2385  0.1992
 7157W        W11208   9.877   7.579   8.262  0.0698  0.1900 -0.0469
 7158W        W11209   3.251   1.487   0.670  0.0542 -0.2716  0.2436
 7159W        W11210   4.588   9.292   2.615  0.2396  0.0644  0.0225
 7160W        W11211   0.347   7.418   1.910 -0.0797  0.3087 -0.1314
 7161W        W11212   6.141   7.116  12.287 -0.0061  0.2972  0.0388
 7162W        W11213   4.019   0.173  12.310 -0.0787  0.2687  0.3294
 7163W        W11214   5.887   5.046   0.376  0.1615  0.0354 -0.0185
 7164W        W11215   5.181   4.655   3.084 -0.1672 -0.3663  0.0058
 7165W        W11216   3.256   0.278   1.505  0.3519 -0.1074 -0.1121
 7166W        W11217   0.538   3.372   2.187  0.4804 -0.0847  0.0830
 7167W        W11218   9.498   3.100   2.715  0.3365 -0.1352 -0.1140
 7168W        W11219   9.023   6.966  12.114  0.0515  0.1038  0.4532
 7169W        W11220   1.662   9.525   1.517  0.2020 -0.2260 -0.1373
 7170W        W11221   1.572   9.404  13.721 -0.3083 -0.0920  0.3511
 7171W        W11222   7.057   1.975   4.034  0.1420  0.2994 -0.0353
 7172W        W11223   0.871   9.163   0.343 -0.1771  0.3349 -0.2174
 7173W        W11224  10.135   2.803  11.908 -0.0303  0.1573 -0.2623
 7174W        W11225   9.243   4.427   9.939 -0.1344  0.4821  0.1269
 7175W        W11226   8.267   8.695   2.096  0.0985  0.1287  0.4349
 7176W        W11227   2.772   7.931   3.646  0.2056  0.0493  0.2305
 7177W        W11228   1.352   4.818  11.315 -0.0239 -0.1498 -0.1787
 7178W        W11229   5.854   7.448   1.426  0.1259 -0.0040 -0.0460
 7179W        W11230   0.166   2.806  13.663  0.1486 -0.0302 -0.0800
 7180W        W11231   5.748   0.124   3.373  0.3224  0.4180 -0.1469
 7181W        W11232   2.491   5.026   4.029 -0.0430 -0.0525 -0.2404
 7182W        W11233   7.465   6.600   9.935 -0.1811 -0.2108 -0.0929
 7183W        W11234   9.015   8.213   2.587 -0.0730 -0.0306 -0.0527
 7184W        W11235   6.992   9.420   1.511 -0.0677 -0.1446  0.1076
 7185W        W11236   2.625   5.919  12.684 -0.1101  0.0091 -0.0994
 7186W        W11237   1.234   2.559   0.982  0.2641 -0.1317 -0.0412
 7187W        W11238   1.053   3.693  11.340  0.3434  0.2212  0.2096
 7188W        W11239   3.785   8.060   2.574  0.1077 -0.0114  0.1088
 7189W        W11240   9.492   9.594   3.773  0.1234  0.1773  0.0302
 7190W        W11241   3.531   7.592   2.529  0.0297  0.0150 -0.1870
 7191W        W11242   7.268   5.660   2.146 -0.0289  0.1566  0.1022
 7192W        W11243   2.971   2.166   4.938  0.4150  0.2388  0.0288
 7193W        W11244   5.245   2.301  12.406  0.0210  0.2867  0.2098
 7194W        W11245   7.591   4.129  13.416 -0.0646  0.4441  0.0050
 7195W        W11246   4.941   8.734   2.201 -0.0187  0.1395  0.0029
 7196W        W11247   5.703   8.220  11.110  0.2258 -0.1065  0.1610
 7197W        W11248   4.671   0.796  13.497 -0.0499  0.0643  0.0299
 7198W        W11249   1.790   6.384  10.226  0.0492  0.2011  0.1143
 7199W        W11250   4.169   9.698   4.197  0.1166  0.2391  0.0648
 7200W        W11251   8.986   4.529   1.756  0.1898 -0.0736 -0.1389
 7201W        W11252   7.381   9.946   9.362 -0.1254 -0.1467  0.1339
 7202W        W11253   6.579   1.144  11.244 -0.3750 -0.1455  0.0557
 7203W        W11254   9.675   2.106   2.775  0.1598  0.2902  0.1149
 7204W        W11255   9.019   5.569   4.210 -0.0190  0.1348 -0.1183
 7205W        W11256   1.489   9.398   3.232  0.2753 -0.0804  0.2874
 7206W        W11257   0.869   5.464  13.661 -0.3407 -0.1819 -0.1898
 7207W        W11258   2.904   9.887   1.924  0.0832 -0.1503 -0.0761
 7208W        W11259   9.456   4.672  11.787 -0.1636  0.0614 -0.0148
 7209W        W11260   8.688   8.400  12.107 -0.2217 -0.0556  0.3422
 7210W        W11261   9.656   3.823  12.964  0.0741  0.4211 -0.1471
 7211W        W11262   6.729   8.338  11.292  0.0349 -0.2200 -0.0516
 7212W        W11263   5.083   5.522   9.943 -0.0816 -0.1606  0.3309
 7213W        W11264   9.654   8.164  10.245 -0.1076  0.0680  0.0351
 7214W        W11265   1.400  10.136   0.072 -0.2450  0.0134 -0.4704
 7215W        W11266   0.383   0.623   8.671 -0.0745 -0.3665 -0.0975
 7216W        W11267   3.725   4.497  12.480 -0.3384 -0.1378 -0.0194
 7217W        W11268   7.321   9.250   2.875  0.2351 -0.2722  0.0298
 7218W        W11269   6.133   7.443   3.228  0.0838 -0.0048 -0.1545
 7219W        W11270   8.234   1.907  13.022 -0.0182  0.0224  0.0412
 7220W        W11271   6.880   0.518  13.223 -0.0357  0.0444  0.0626
 7221W        W11272   3.007   6.475   2.402  0.1350 -0.3766 -0.3552
 7222W        W11273   2.834   4.605   0.246  0.4763  0.2418  0.3035
 7223W        W11274   2.986   0.124  11.075  0.1316 -0.2016 -0.2679
 7224W        W11275   0.258   4.032   3.689  0.1130  0.2460 -0.2376
 7225W        W11276   9.162   5.409   0.491 -0.4480  0.0059 -0.2586
 7226W        W11277   6.754   3.974   1.680 -0.0713  0.2736  0.1497
 7227W        W11278   0.173   8.284   3.801  0.0104 -0.0481 -0.1049
 7228W        W11279   6.587   0.089  13.396 -0.1479  0.1660 -0.3249
 7229W        W11280  10.086   2.084   5.215  0.0263 -0.1804  0.1535
 7230W        W11281   9.415   4.948   9.698  0.1769  0.0176 -0.1805
 7231W        W11282   1.212   0.059   0.566 -0.2033  0.2218  0.2296
 7232W        W11283   0.180   3.027   1.057  0.2512  0.0769  0.1098
 7233W        W11284   7.669   1.934   5.413 -0.0205  0.2463  0.3224
 7234W        W11285   0.035   2.384  12.177 -0.2771  0.0218 -0.0986
 7235W        W11286   4.353   2.632   0.409  0.2526 -0.1199 -0.0001
 7236W        W11287   3.791   7.992   1.197  0.1765 -0.0807 -0.2428
 7237W        W11288   1.531   9.312   2.312 -0.1374 -0.3642 -0.1703
 7238W        W11289   3.402   2.642   1.406  0.1719  0.0342 -0.2151
 7239W        W11290  10.112   1.189   0.565 -0.4653 -0.0515 -0.0783
 7240W        W11291   1.288   0.239  12.938  0.1270  0.2340 -0.2768
 7241W        W11292   8.697   8.706  11.663 -0.3430 -0.0145 -0.1444
 7242W        W11293   8.322   0.103   0.491 -0.0172  0.0310 -0.3603
 7243W        W11294   9.283   0.342   1.740 -0.2884 -0.2560 -0.1586
 7244W        W11295   8.204   4.133   2.971  0.4159 -0.0457 -0.3169
 7245W        W11296   0.987   0.944   0.559  0.1190  0.2697  0.2487
 7246W        W11297   8.112   8.869  13.243  0.1067 -0.2433  0.3322
 7247W        W11298   2.109   1.995   9.574  0.4284  0.3467  0.0424
 7248W        W11299   7.052   1.361   2.564  0.3569  0.2120 -0.0730
 7249W        W11300   8.749   3.532  10.490  0.1365  0.3585 -0.0128
 7250W        W11301   7.900   2.518   2.213  0.0049 -0.1304 -0.0644
 7251W        W11302   8.542   0.634  11.102 -0.1248 -0.1479  0.1133
 7252W        W11303   4.021   9.699  13.074  0.1019  0.0510 -0.0842
 7253W        W11304   5.291   3.831   2.745 -0.1966  0.0891 -0.0556
 7254W        W11305   6.654   2.469  10.730 -0.0156  0.0579  0.3771
 7255W        W11306   3.943   7.821   2.197  0.2091  0.1764  0.1947
 7256W        W11307   0.789   1.917   1.449  0.0241 -0.1475  0.3258
 7257W        W11308   6.932   6.595  11.833 -0.2166 -0.0320 -0.3157
 7258W        W11309   5.526   8.266   3.428  0.0089  0.1054  0.1766
 7259W        W11310   3.857   2.671   1.526 -0.2816  0.0657  0.2335
 7260W        W11311   2.678   3.638  13.091 -0.0032 -0.0991 -0.4253
 7261W        W11312   6.360   4.228   4.214 -0.0309  0.2882  0.1155
 7262W        W11313   9.581   1.801   4.105 -0.0406  0.0131 -0.0982
 7263W        W11314   1.392   8.660  12.606 -0.0888 -0.0674  0.0145
 7264W        W11315   8.612   5.986  13.114  0.1708  0.2247  0.0825
 7265W        W11316   7.618   5.076  11.591  0.0734  0.1053  0.4362
 7266W        W11317   0.768   2.343   5.493  0.1237 -0.0192  0.1114
 7267W        W11318   7.248   7.475  11.466  0.0186 -0.1471 -0.2496
 7268W        W11319   2.126   1.043   3.404 -0.0680  0.0372  0.1402
 7269W        W11320   3.376   7.050   3.666  0.0710  0.0358 -0.0022
 7270W        W11321   7.186   9.329  10.552 -0.0000  0.1941  0.0089
 7271W        W11322   4.720   7.089  10.967  0.2589  0.1805  0.0709
 7272W        W11323   3.907   0.796  10.468  0.0257  0.1929  0.0112
 7273W        W11324   5.667   3.755  13.454  0.2514  0.0735 -0.1810
 7274W        W11325   3.475   8.262   0.267  0.0647 -0.2001  0.1559
 7275W        W11326   3.032   3.356  11.174  0.0264 -0.0127 -0.2136
 7276W        W11327   0.728   1.374  12.334 -0.3107 -0.0979  0.2325
 7277W        W11328   7.538   1.457   5.247 -0.1048  0.1331  0.0302
 7278W        W11329   9.020   3.715   0.409 -0.1157  0.0988  0.0498
 7279W        W11330   0.048   6.644  13.391 -0.0133 -0.0440  0.1799
 7280W        W11331   0.567   6.913   1.858 -0.2840 -0.0554 -0.2476
 7281W        W11332   4.513   3.997  11.864 -0.0343  0.1237  0.1672
 7282W        W11333   8.905   8.505   1.878  0.3922  0.3510 -0.2157
 7283W        W11334   8.597   8.327  12.602  0.0488 -0.2592 -0.0671
 7284W        W11335   7.021   0.097   4.311 -0.1322 -0.1948 -0.1363
 7285W        W11336   3.139   7.860  10.934 -0.3350 -0.0797 -0.0523
 7286W        W11337   0.023   9.717   0.498 -0.2590 -0.1322  0.2229
 7287W        W11338   3.149   0.892   2.181  0.2010  0.0741 -0.0009
 7288W        W11339   9.482  10.012   0.344  0.2832 -0.1407  0.0766
 7289W        W11340   5.717   1.085   3.371 -0.0723  0.0612  0.2931
 7290W        W11341   0.275   0.389   9.851  0.0941  0.2373  0.1348
 7291W        W11342   8.588   9.424  10.067  0.3871  0.0395 -0.0271
 7292W        W11343   8.434   4.414   1.732 -0.0214 -0.0339 -0.0410
 7293W        W11344  10.111   0.051   5.256 -0.0423 -0.3774 -0.3881
 7294W        W11345   0.829   7.800  11.459  0.3288 -0.1671  0.1967
 7295W        W11346   5.149   8.920   1.724 -0.1061 -0.1929 -0.0060
 7296W        W11347   8.714   6.386   3.161  0.1663  0.1009 -0.0678
 7297W        W11348   5.373   2.834   9.483  0.0840  0.0591  0.2678
 7298W        W11349   7.596   7.887   1.805 -0.1125  0.1384 -0.1141
 7299W        W11350   2.097   2.106  10.118  0.1109 -0.1452 -0.1946
 7300W        W11351   4.548   9.672   9.890 -0.3520 -0.2864  0.2153
 7301W        W11352   7.119   1.574   0.537 -0.2467  0.2760  0.2697
 7302W        W11353   8.752   5.690   3.773 -0.0884  0.3025  0.2090
 7303W        W11354   9.844   4.551   0.961  0.0273 -0.1311  0.2019
 7304W        W11355   5.775   3.238   1.282  0.0604 -0.2957 -0.4073
 7305W        W11356   6.813   9.653  10.906  0.1545  0.0957 -0.2520
 7306W        W11357   3.412   3.616   0.290 -0.1356  0.1005 -0.0427
 7307W        W11358   8.064   2.251  13.429 -0.1777 -0.0211  0.1546
 7308W        W11359   3.911   1.671  10.585 -0.0540 -0.2370 -0.1929
 7309W        W11360   3.780   4.219  10.608 -0.1811 -0.1203  0.0465
 7310W        W11361   2.784   4.618   1.113 -0.3124  0.1839  0.2876
 7311W        W11362   7.120   2.627   0.450 -0.1372 -0.2238  0.0626
 7312W        W11363   2.319   8.584   2.566  0.1121 -0.1936 -0.0314
 7313W        W11364   8.311   5.556  13.059 -0.0557 -0.0920  0.4589
 7314W        W11365   9.773   1.012   3.196 -0.1996  0.0164 -0.2813
 7315W        W11366   0.092   6.693   4.445 -0.1836  0.3762 -0.0402
 7316W        W11367   9.585   6.612   3.645 -0.1474  0.0109  0.0864
 7317W        W11368   9.472   3.771   0.636  0.0259 -0.1857  0.1829
 7318W        W11369   4.376   8.108  12.132 -0.0651  0.0654 -0.0675
 7319W        W11370   0.713   5.198   4.060  0.0779 -0.1706  0.1224
 7320W        W11371   9.165   0.341   8.890  0.0050 -0.0039  0.2327
 7321W        W11372   9.880   9.243   3.597 -0.1258 -0.1204 -0.3758
 7322W        W11373   6.750   4.412   0.152 -0.0734  0.2023  0.1929
 7323W        W11374   5.809   2.635   2.908 -0.4435  0.1845 -0.0624
 7324W        W11375   4.194   3.600  10.993 -0.1941  0.3758 -0.0275
 7325W        W11376   2.916   0.516   2.416  0.0040 -0.0667  0.3186
 7326W        W11377   2.704   8.124   0.816 -0.0964 -0.0586  0.1819
 7327W        W11378   7.981   2.140   5.022 -0.1512 -0.0364 -0.1985
 7328W        W11379   7.031   3.750  12.672  0.2636  0.1739  0.0128
 7329W        W11380   7.574   7.069   3.510  0.1070  0.1131 -0.0983
 7330W        W11381   7.286   3.174  12.583 -0.2190  0.2041 -0.1104
 7331W        W11382   6.851   4.226  12.004 -0.1525 -0.1484 -0.1060
 7332W        W11383   6.750   1.587   1.240 -0.2087  0.0364 -0.1789
 7333W        W11384   4.687   3.666  13.230 -0.1359  0.1051  0.1345
 7334W        W11385   3.804   9.199  12.813 -0.0409  0.0084  0.2193
 7335W        W11386   1.508   5.776   3.151 -0.3444  0.1857  0.3571
 7336W        W11387   8.385   3.551   3.751 -0.2294 -0.0023 -0.3536
 7337W        W11388   4.045   3.312  13.666 -0.1272 -0.1036 -0.0402
 7338W        W11389   6.373   4.744   4.222  0.4693  0.2831  0.3145
 7339W        W11390   5.558   0.656   9.429 -0.0178  0.1601 -0.0552
 7340W        W11391   1.879   3.441  11.123 -0.3812 -0.2735 -0.1341
 7341W        W11392   9.828   0.956   0.940  0.2126  0.1115  0.3287
 7342W        W11393   3.990   2.021   0.963 -0.0586 -0.0780  0.0601
 7343W        W11394   3.775   2.076   2.957 -0.2480  0.2008 -0.4703
 7344W        W11395   6.457   9.377   1.552 -0.1370  0.0402  0.0593
 7345W        W11396   0.686   5.919   0.736 -0.0139  0.1798 -0.1071
 7346W        W11397   7.164   2.513  10.680  0.1444  0.2440 -0.0599
 7347W        W11398   8.135   2.213   9.371 -0.0871  0.3098 -0.2502
 7348W        W11399   8.381   5.422   9.675  0.1248 -0.2099 -0.0138
 7349W        W11400   9.621   0.538  12.949  0.3036 -0.0127  0.2007
 7350W        W11401   0.617   6.756   4.451  0.0332 -0.0235 -0.2048
 7351W        W11402   9.015   2.915   2.918  0.1247  0.0793  0.0235
 7352W        W11403   4.464   8.880   2.421 -0.1618 -0.0751  0.1077
 7353W        W11404   7.145   6.677   1.902  0.0158  0.4046 -0.0527
 7354W        W11405   7.341   8.833   3.061  0.1529  0.1769 -0.1492
 7355W        W11406   3.749   7.415  13.398  0.0905 -0.2040  0.1948
 7356W        W11407   9.737   5.702   9.957  0.1225  0.2183 -0.2297
 7357W        W11408   9.595   7.228  10.382  0.0679 -0.1763 -0.1140
 7358W        W11409   9.132   7.583  12.733  0.0541  0.3683 -0.0423
 7359W        W11410   7.300   6.747   3.102 -0.2876  0.0711 -0.0466
 7360W        W11411   7.666   4.988   0.358 -0.0039 -0.3588 -0.2115
 7361W        W11412   5.133   8.947  12.613  0.0732  0.3150 -0.0550
 7362W        W11413   7.391   3.557  10.558 -0.2225  0.2032  0.2755
 7363W        W11414   2.350   2.824  10.699 -0.1368 -0.0208  0.0858
 7364W        W11415   7.394  10.082  11.286  0.0796  0.1565  0.3668
 7365W        W11416   1.401   1.162   4.102 -0.1388 -0.1689 -0.1662
 7366W        W11417   8.763   1.204  13.713 -0.0268 -0.1197 -0.1061
 7367W        W11418   1.777   7.617  10.894 -0.0449 -0.3029 -0.3343
 7368W        W11419  10.127   8.132  12.173  0.1777 -0.0348 -0.0698
 7369W        W11420   5.990   4.334   1.997 -0.0266  0.2231 -0.0168
 7370W        W11421   3.106   8.306  13.447 -0.1256  0.0428  0.3173
 7371W        W11422   9.569   3.601  10.395 -0.1824 -0.2172 -0.1523
 7372W        W11423   7.000   0.882   0.116 -0.2785  0.0914 -0.0834
 7373W        W11424   7.949  10.040   1.406 -0.2719  0.0888  0.0837
 7374W        W11425   3.374   6.132   1.944  0.1653  0.2055  0.0633
 7375W        W11426   8.086   9.421  13.295  0.3022 -0.0455  0.0105
 7376W        W11427   8.757   5.709   1.915  0.3473  0.0187  0.2746
 7377W        W11428   5.169   2.622   0.091  0.0812  0.0881 -0.2503
 7378W        W11429   4.825   8.095  10.945  0.1189  0.1194 -0.5064
 7379W        W11430   0.497  10.162  13.195 -0.1254 -0.1087  0.2876
 7380W        W11431   0.458   5.335   5.957 -0.0340 -0.3425 -0.2435
 7381W        W11432   0.215   9.559   9.361  0.2253 -0.2883 -0.2894
 7382W        W11433   5.648   1.904   3.188  0.2430  0.5486 -0.1572
 7383W        W11434   2.173   0.639   4.193  0.0597  0.3215  0.0918
 7384W        W11435   3.805   6.673  10.311  0.1044  0.2691 -0.0908
 7385W        W11436   0.328   0.270  11.722 -0.1529 -0.1073 -0.4418
 7386W        W11437   5.437   4.965  13.176 -0.5686  0.1096  0.3619
 7387W        W11438   7.854   6.581   1.235 -0.1505  0.1066  0.1199
 7388W        W11439   0.848   7.074   0.440 -0.1677  0.0986  0.0866
 7389W        W11440   7.201   4.431   3.744  0.1914  0.2373  0.2421
 7390W        W11441   9.969   9.299  10.735  0.2625 -0.0831  0.4183
 7391W        W11442   6.024   8.782  11.842 -0.2022 -0.1406 -0.3316
 7392W        W11443   4.661   7.238   3.550 -0.1328 -0.0679 -0.0273
 7393W        W11444   2.859   7.700  11.331 -0.0845  0.1964  0.1688
 7394W        W11445   7.597   4.664   3.641 -0.3469  0.2122 -0.1273
 7395W        W11446   5.849   4.244   9.283  0.0237  0.3660  0.2959
 7396W        W11447   0.895   7.285   3.027  0.0664  0.2205  0.0560
 7397W        W11448   6.989   3.225  10.156 -0.2142 -0.1517 -0.0425
 7398W        W11449   8.336   5.439   1.559  0.2076  0.0690 -0.0283
 7399W        W11450   3.009   4.613   2.769  0.2076  0.0206  0.1551
 7400W        W11451   4.555   0.052   0.565  0.0377 -0.0987  0.0094
 7401W        W11452   4.814   5.314   0.347  0.0685 -0.2756 -0.2237
 7402W        W11453   6.163   9.876  10.334 -0.3811  0.0337  0.1785
 7403W        W11454   1.281   4.247  10.469  0.1130 -0.1779 -0.0979
 7404W        W11455   9.527   8.245   1.020  0.3094 -0.0375  0.1633
 7405W        W11456   6.719   7.135  13.149 -0.1937 -0.0786  0.1609
 7406W        W11457   6.273   5.097   2.127  0.0713 -0.0933 -0.0033
 7407W        W11458   3.599   4.872   1.465 -0.0115 -0.1734 -0.2928
 7408W        W11459   5.939   5.040  12.713  0.1989  0.0995  0.3998
 7409W        W11460   2.728   5.494   1.817  0.0497 -0.1064  0.2950
 7410W        W11461   2.310   2.772  11.611 -0.5298  0.2097  0.3758
 7411W        W11462   1.478   2.335   1.406  0.3618  0.0412  0.1400
 7412W        W11463   2.848   5.172   9.912 -0.2172  0.0842 -0.0085
 7413W        W11464   8.918   0.661  10.013  0.2437  0.0155 -0.2205
 7414W        W11465   8.558   3.550  13.665 -0.3845  0.0868  0.0917
 7415W        W11466   2.688   7.610  11.793  0.0783 -0.2659 -0.0349
 7416W        W11467   6.377   7.553  13.243 -0.3386  0.1416  0.2742
 7417W        W11468   6.157   5.688   1.853  0.1500 -0.3472  0.2169
 7418W        W11469   6.092   4.575   3.059 -0.1133 -0.1877 -0.2001
 7419W        W11470   8.549   4.968   1.514 -0.1047 -0.1231 -0.3324
 7420W        W11471   7.273   0.511   4.901  0.0490 -0.3586  0.0584
 7421W        W11472   4.415   4.079   2.811  0.0731  0.0438  0.2093
 7422W        W11473   7.640   2.107  12.151 -0.0172  0.0307 -0.1543
 7423W        W11474   2.847   0.076  12.715 -0.0220  0.2186 -0.2572
 7424W        W11475   6.654   6.242   9.675 -0.0866  0.3585  0.3111
 7425W        W11476   4.307   2.592   1.819 -0.0847 -0.2036 -0.1833
 7426W        W11477   2.697   0.727   4.235 -0.0944 -0.0061 -0.0794
 7427W        W11478   1.419   4.976   3.336  0.0085  0.1268  0.0893
 7428W        W11479   0.525   9.395   1.637 -0.0841 -0.3118  0.0817
 7429W        W11480   9.914   8.169   3.748 -0.2111  0.2405  0.0524
 7430W        W11481   2.061   9.681   2.000  0.0414  0.0604  0.1364
 7431W        W11482   0.142   7.508   8.457 -0.3179 -0.5671 -0.3600
 7432W        W11483   9.609   6.617  10.927 -0.1079  0.2009 -0.1550
 7433W        W11484   1.184   0.665   1.731  0.1717 -0.1750 -0.2278
 7434W        W11485   6.864   8.973   9.679  0.1592 -0.0366 -0.0705
 7435W        W11486   0.055   4.544  11.334 -0.1452  0.3437  0.0067
 7436W        W11487   7.340   2.072   9.978  0.2452 -0.3917  0.2015
 7437W        W11488   5.035   4.427  11.050  0.0463  0.1582 -0.1209
 7438W        W11489   4.333   6.149   2.744  0.2965 -0.0419 -0.2493
 7439W        W11490   5.035   6.511  11.874  0.1155 -0.1067  0.2608
 7440W        W11491   4.754   5.437  13.740 -0.0064 -0.2783 -0.0109
 7441W        W11492   6.827   7.991  13.147  0.1162 -0.4819 -0.0127
 7442W        W11493   5.621   3.994  11.217  0.2520 -0.1827  0.1565
 7443W        W11494   5.812   3.922  10.090  0.0468  0.3505 -0.2879
 7444W        W11495   4.179   4.592  10.696 -0.0025 -0.1661 -0.1074
 7445W        W11496   2.107   7.617  10.483 -0.3117 -0.0377  0.0884
 7446W        W11497   8.947   5.439  11.497 -0.3246 -0.2195  0.2237
 7447W        W11498   1.077   2.969  11.660  0.3150 -0.0021 -0.0237
 7448W        W11499   4.098   5.006   1.638  0.2148 -0.2254 -0.1558
 7449W        W11500   6.919   9.747  12.325 -0.1091  0.0867 -0.1136
 7450W        W11501   0.904  10.024   4.901  0.1164 -0.2344 -0.0793
 7451W        W11502   4.456   2.261  12.776 -0.1430 -0.0021 -0.0996
 7452W        W11503   6.574   4.857   1.025 -0.0981  0.3379  0.2549
 7453W        W11504   5.920   9.768  12.946  0.0696  0.1907  0.6759
 7454W        W11505   3.441   5.386  12.038 -0.2161 -0.1312  0.3400
 7455W        W11506   2.798   9.075  13.139 -0.1159  0.0259 -0.1133
 7456W        W11507  10.047   7.536  11.704  0.1322 -0.1546  0.0697
 7457W        W11508   7.288   3.845  13.645  0.1077  0.0520  0.0310
 7458W        W11509   6.017   2.882   0.384  0.0448  0.5680 -0.0584
 7459W        W11510   9.186   0.246   0.029  0.1077  0.1170 -0.3410
 7460W        W11511   2.996   4.302   2.389  0.2136 -0.0683  0.0292
 7461W        W11512   6.586   8.148   2.736  0.1741  0.1705  0.2131
 7462W        W11513   4.383   1.874   1.451 -0.0168  0.2522  0.3778
 7463W        W11514   4.737   0.961   0.368 -0.1453  0.0466 -0.2249
 7464W        W11515   9.128   7.190   1.454  0.1036  0.1009  0.2768
 7465W        W11516  10.167   8.826   9.714  0.0168 -0.1521 -0.3169
 7466W        W11517   1.436   2.405   2.546  0.2378  0.3801 -0.0972
 7467W        W11518   7.925   5.509  11.603  0.0138 -0.0214 -0.0218
 7468W        W11519   7.045   9.219  11.095 -0.0566  0.1077  0.1833
 7469W        W11520   4.795   0.222  10.969  0.1478  0.5066 -0.1468
 7470W        W11521   2.547   3.138   5.213 -0.1420 -0.2275 -0.3245
 7471W        W11522   3.730   0.565   0.991  0.0856 -0.0522  0.1039
 7472W        W11523   5.795   8.608  10.305  0.0246 -0.6498 -0.3183
 7473W        W11524   2.779   1.212   2.077  0.2449  0.1587 -0.1710
 7474W        W11525   3.830   3.406   0.848  0.2734 -0.0246 -0.1269
 7475W        W11526   8.863   4.569  10.417  0.0413 -0.0349 -0.1261
 7476W        W11527   3.495   2.773   1.920 -0.2763  0.5752 -0.2246
 7477W        W11528   8.824   6.133   9.862  0.1425  0.3765 -0.1574
 7478W        W11529   5.811   4.131   4.883  0.3733 -0.0727  0.1965
 7479W        W11530   4.905   1.919   1.196 -0.2308 -0.3920  0.0365
 7480W        W11531   2.182   7.605   2.474  0.2243  0.1077  0.3001
 7481W        W11532   2.294   1.655  10.352 -0.1685  0.2863 -0.1522
 7482W        W11533   2.891   6.006   4.280  0.7100 -0.0716  0.3013
 7483W        W11534   9.538   4.917  10.206  0.2563  0.1185 -0.1783
 7484W        W11535   4.365   7.762   0.920  0.1300  0.0695 -0.1836
 7485W        W11536   2.222   0.697   9.596  0.1279  0.1314  0.4018
 7486W        W11537   8.804   8.703   0.371 -0.1292  0.3652  0.6248
 7487W        W11538   2.442   4.661  12.049 -0.0245 -0.4090 -0.3494
 7488W        W11539   1.017   4.637   0.505 -0.2359  0.1560 -0.1536
 7489W        W11540   7.269  10.158  12.570  0.1068  0.4380 -0.3541
 7490W        W11541   0.463   8.073  12.200 -0.0179 -0.1659 -0.1877
 7491W        W11542   8.556   2.328  13.448  0.0025  0.1056  0.1657
 7492W        W11543   9.560   1.823  12.561 -0.1458 -0.0701  0.2544
 7493W        W11544   5.304   3.344   2.940 -0.5307  0.0547  0.1226
 7494W        W11545   2.282   0.489  13.330 -0.1869 -0.0430  0.2193
 7495W        W11546   7.694   7.612   9.472  0.0022 -0.1256  0.0698
 7496W        W11547   9.055   1.540   1.602 -0.0707  0.2572  0.0705
 7497W        W11548   0.220   2.820  12.461 -0.0392 -0.0470  0.2037
 7498W        W11549   2.946   1.029  13.866 -0.0594 -0.1892 -0.3498
 7499W        W11550   0.122   5.626  12.563  0.2777  0.1095  0.1953
 7500W        W11551   3.042   8.993   0.776 -0.0731 -0.3122  0.1265
 7501W        W11552   7.807   6.225   9.813  0.1087 -0.1445 -0.2119
 7502W        W11553   5.052   1.051   1.187 -0.0943 -0.0763  0.1986
 7503W        W11554   7.520   7.764   4.398 -0.0405  0.0966 -0.0603
 7504W        W11555   4.792   0.507  10.126 -0.0738  0.0067 -0.2043
 7505W        W11556   1.535   6.959   1.091 -0.0205 -0.0353 -0.2342
 7506W        W11557   8.000   6.079   9.184  0.2819 -0.1245 -0.1709
 7507W        W11558   9.170   0.640   0.464 -0.0651 -0.3915 -0.0679
 7508W        W11559   5.916   0.963   4.859  0.0699  0.1637  0.0849
 7509W        W11560   7.150   6.992   9.871  0.0565  0.3565  0.0850
 7510W        W11561   7.032   6.172  12.135 -0.0750 -0.1767  0.4751
 7511W        W11562   2.256  10.176  11.793  0.1475  0.0077 -0.2870
 7512W        W11563   3.745   5.299   1.248  0.1192  0.1781  0.2338
 7513W        W11564   3.659   3.488   3.112 -0.0183 -0.2777 -0.0981
 7514W        W11565   6.930   7.002  12.681 -0.3212  0.0938 -0.1540
 7515W        W11566   7.947   9.388   3.512 -0.0433 -0.3028 -0.6104
 7516W        W11567   7.443   3.023   5.924 -0.0274  0.0044  0.1232
 7517W        W11568   3.388   6.347  13.185 -0.0821  0.0682 -0.1520
 7518W        W11569   2.150   8.846   3.048  0.2314  0.1635 -0.0664
 7519W        W11570   6.508   1.375   9.975 -0.0550  0.1641  0.1228
 7520W        W11571  10.118   3.382   1.387  0.0721 -0.1043  0.1070
 7521W        W11572   7.432   1.657  13.281 -0.2134  0.0624 -0.4390
 7522W        W11573   6.021   8.557   1.977 -0.1044  0.3745 -0.2832
 7523W        W11574   5.490   3.378  10.424  0.0395 -0.1911 -0.0500
 7524W        W11575   4.285   4.740   2.075 -0.1124  0.0500 -0.2569
 7525W        W11576   6.819  10.167   3.383  0.4268 -0.1747 -0.1852
 7526W        W11577   4.846   3.314   3.731 -0.0547  0.1650 -0.2936
 7527W        W11578   1.178   9.116   4.530  0.2215 -0.1843  0.0269
 7528W        W11579   1.968   3.684   4.650 -0.0246  0.1390 -0.1176
 7529W        W11580   5.296   5.400  10.396 -0.2227 -0.0054 -0.2712
 7530W        W11581   4.555   7.190   1.831  0.2187 -0.0164  0.0735
 7531W        W11582   0.198   3.119  13.261 -0.0915 -0.1437  0.2131
 7532W        W11583   4.263  10.055  10.827 -0.1536 -0.1005  0.0075
 7533W        W11584   9.971   5.661   4.278 -0.1809 -0.3464 -0.1703
 7534W        W11585   3.812   0.054  10.841  0.4841 -0.0299 -0.1008
 7535W        W11586   5.722   2.806   1.493  0.2665 -0.0798 -0.1881
 7536W        W11587   5.413   4.808  10.341 -0.3011  0.2410  0.0792
 7537W        W11588   1.432   1.952  11.970 -0.0464 -0.3130 -0.0647
 7538W        W11589   8.111   7.083   4.416 -0.0551  0.2657  0.3391
 7539W        W11590   1.734   1.647  10.348 -0.1503  0.0337 -0.0351
 7540W        W11591   8.851   1.926  11.453  0.0025  0.5515  0.2327
 7541W        W11592   1.557   6.219   3.355 -0.0824  0.5496 -0.2049
 7542W        W11593   9.199   6.570  12.935 -0.3528 -0.2306  0.0469
 7543W        W11594   9.856   6.931   2.728 -0.0253 -0.1935 -0.4554
 7544W        W11595   1.148   7.803  12.459 -0.2085 -0.1394 -0.0612
 7545W        W11596   2.533   7.315   9.738 -0.1301 -0.3894  0.1143
 7546W        W11597   3.180   0.459  11.801 -0.1625  0.1220 -0.1036
 7547W        W11598   9.874   3.833   0.051  0.0981  0.0371 -0.0431
 7548W        W11599   2.433   7.043  13.548 -0.1783 -0.1937 -0.0246
 7549W        W11600   5.882   6.039   0.055  0.0361  0.0080 -0.0059
 7550W        W11601   8.117   9.032  10.686 -0.2673 -0.2152 -0.0909
 7551W        W11602   8.842   3.439   2.468  0.1210 -0.0882 -0.1009
 7552W        W11603   6.736   8.755  13.862  0.0598 -0.2142  0.0675
 7553W        W11604   0.193   1.318  12.572  0.0089 -0.3564 -0.0083
 7554W        W11605   1.567   7.449   9.753 -0.0869  0.1830 -0.0840
 7555W        W11606   4.913   5.380  11.686  0.1638  0.0276 -0.3071
 7556W        W11607   6.999   2.269   4.965  0.0671 -0.1491  0.0609
 7557W        W11608   7.768   9.487  10.699 -0.3144 -0.4411 -0.1807
 7558W        W11609   1.014   3.108   4.170 -0.0089 -0.2612  0.2168
 7559W        W11610   2.926   3.643  11.553  0.0672 -0.0947 -0.3189
 7560W        W11611   6.691   0.084   2.926  0.1430 -0.3022  0.1417
 7561W        W11612   5.124   7.920  13.749 -0.0786  0.1392  0.1950
 7562W        W11613   2.046   0.485   4.657  0.1013  0.0007  0.2117
 7563W        W11614   9.297   6.790  10.506  0.0300 -0.1478  0.1384
 7564W        W11615   0.703   0.141   0.537  0.2727  0.0364  0.2027
 7565W        W11616   0.142   0.879   0.888 -0.1701 -0.1874  0.0701
 7566W        W11617   8.028   7.527   0.006  0.0085 -0.0008 -0.0616
 7567W        W11618   2.756   7.561  10.742 -0.0064 -0.1930  0.1849
 7568W        W11619   4.221   1.017   3.115 -0.1633 -0.1812  0.0699
 7569W        W11620   3.791   8.850  13.605  0.4218 -0.0623  0.3221
 7570W        W11621   5.245   1.375   1.973  0.0297  0.0624  0.1195
 7571W        W11622   1.693   7.771   1.523 -0.0759 -0.0370 -0.3467
 7572W        W11623   5.085   4.889  11.226 -0.4323 -0.0212 -0.5102
 7573W        W11624   1.090   0.286   4.799  0.0855 -0.2421 -0.0350
 7574W        W11625   6.236   2.756   4.066  0.1199 -0.2298  0.0364
 7575W        W11626   4.709   1.188   1.630  0.0766 -0.0614 -0.0189
 7576W        W11627   9.388  10.199  12.006  0.1465 -0.2116  0.1111
 7577W        W11628   4.584   2.754   0.948  0.0570 -0.1809  0.2544
 7578W        W11629   9.054   6.214  13.228  0.2164 -0.0607 -0.2572
 7579W        W11630   3.884   0.706   2.669 -0.4586 -0.0575  0.2016
 7580W        W11631   4.645   4.668  10.245  0.2117 -0.1542  0.1836
 7581W        W11632   4.471   2.817   2.272 -0.1861  0.0474 -0.2108
 7582W        W11633   5.765   5.970   1.754  0.1517  0.1153  0.0187
 7583W        W11634   7.713   8.657   1.188  0.2359  0.1918  0.2108
 7584W        W11635   8.917   2.547   2.599  0.0438  0.2306  0.0545
 7585W        W11636   6.667   4.274  13.045  0.1573  0.0305  0.2919
 7586W        W11637   5.881   4.369   0.687 -0.1325 -0.1478 -0.1165
 7587W        W11638   8.660   5.867   2.440  0.2445  0.4132  0.4788
 7588W        W11639   9.224   9.459   2.433  0.0788 -0.0282 -0.1857
 7589W        W11640   2.575   1.359  13.840  0.1615 -0.0429 -0.0305
 7590W        W11641   9.270   4.957   4.337  0.0791  0.3288 -0.3480
 7591W        W11642   6.362   8.568   5.389  0.1054  0.1077 -0.1541
 7592W        W11643   1.457   4.485  12.910 -0.1475  0.0696  0.0309
 7593W        W11644   9.307   2.425   1.799  0.1952 -0.2915  0.0913
 7594W        W11645   8.950   9.940  11.249  0.0988  0.1329 -0.1131
 7595W        W11646   0.416   4.231   1.468 -0.0681 -0.0227 -0.0408
 7596W        W11647   0.913   3.132   9.708  0.2301  0.1379  0.0498
 7597W        W11648   0.589   5.939   2.900  0.0654  0.1785  0.0469
 7598W        W11649   4.304  10.109   4.558  0.2076 -0.1084  0.0144
 7599W        W11650   8.435   1.001   4.545 -0.0223 -0.3724  0.1011
 7600W        W11651   6.792   2.766  11.839  0.0127 -0.0855  0.0022
 7601W        W11652  10.139   3.203   2.158  0.0182  0.2456  0.1043
 7602W        W11653   7.380   3.844   0.585  0.1771  0.0238  0.0939
 7603W        W11654   0.938   4.093  12.319 -0.1178  0.1935 -0.0839
 7604W        W11655   7.486   0.700  11.418 -0.0448  0.4561 -0.1245
 7605W        W11656   8.617   9.337   2.775  0.1963 -0.0123  0.2428
 7606W        W11657   3.080   3.964  10.253  0.1436  0.2328 -0.0915
 7607W        W11658   3.831   2.424   9.704 -0.1301 -0.0539 -0.0445
 7608W        W11659   5.039   4.156  13.364  0.2558  0.0235  0.1468
 7609W        W11660   5.894   0.923   1.539  0.1439  0.1962 -0.2140
 7610W        W11661   4.074   2.924   9.544 -0.1324  0.0803  0.1786
 7611W        W11662   1.769   1.286   0.008  0.2657 -0.2774  0.1333
 7612W        W11663   0.268   5.446   0.769 -0.0586  0.1047 -0.0231
 7613W        W11664   2.926   9.562  12.267 -0.0968 -0.0426 -0.1000
 7614W        W11665   4.115   9.638   9.552  0.1590  0.1073  0.1993
 7615W        W11666   5.935   6.021  10.918 -0.2044 -0.2213  0.1017
 7616W        W11667   4.258   3.938  12.810 -0.2149  0.1375 -0.4219
 7617W        W11668   1.439   4.872   9.957 -0.1183  0.1248  0.0753
 7618W        W11669   6.941   1.600  13.574  0.1042  0.1205 -0.1588
 7619W        W11670   8.349   8.027   4.322  0.0406  0.0345  0.2478
 7620W        W11671   3.914   3.838   9.986 -0.3271 -0.1141  0.0100
 7621W        W11672   0.292   1.215  11.434 -0.2046 -0.1358 -0.0716
 7622W        W11673   7.105   6.783  13.190 -0.1061 -0.0349 -0.0619
 7623W        W11674   7.929   1.524  11.673  0.1282 -0.0522  0.0908
 7624W        W11675   6.178   1.839   4.800 -0.0484 -0.0150  0.3985
 7625W        W11676   5.750   4.152  13.837  0.0343  0.1250  0.0048
 7626W        W11677   4.626   9.987  12.730  0.2338  0.1823  0.0383
 7627W        W11678   7.255   4.695   2.229  0.0916 -0.1039  0.0216
 7628W        W11679   8.904   9.515  13.608 -0.1479 -0.0735  0.2803
 7629W        W11680   7.585   3.963  10.922  0.1385  0.3275  0.0343
 7630W        W11681   5.466   5.028   2.307 -0.0240 -0.1651  0.3241
 7631W        W11682   0.493   7.486   2.723  0.2820  0.2227 -0.0461
 7632W        W11683   8.402   6.954  11.602 -0.4854  0.1454 -0.1829
 7633W        W11684   7.669   0.905   1.434  0.2907 -0.1295 -0.0023
 7634W        W11685   4.359   8.122  13.701 -0.1254 -0.2484 -0.0537
 7635W        W11686   9.302   2.265  10.555 -0.1641  0.2274 -0.0724
 7636W        W11687   0.608   4.486   1.027  0.1641 -0.1180  0.3643
 7637W        W11688   7.161   7.269  13.394  0.1608 -0.1146 -0.2910
 7638W        W11689   4.894   0.306   2.545 -0.1171 -0.0348  0.0749
 7639W        W11690   9.268   6.333  10.233 -0.0171  0.0187 -0.0078
 7640W        W11691   6.520   5.527  13.580 -0.0282  0.0795 -0.1623
 7641W        W11692   1.390   1.865  13.258  0.1337 -0.4518  0.2667
 7642W        W11693   2.631   8.181   1.308 -0.0802  0.0030  0.1970
 7643W        W11694   5.349   7.249   0.342  0.0383 -0.0562  0.0360
 7644W        W11695   3.136   3.752   2.488 -0.3726 -0.1587 -0.1039
 7645W        W11696   6.755   1.136   0.479  0.1325  0.0241 -0.2349
 7646W        W11697   6.422   3.347   3.983 -0.1838 -0.3441 -0.2627
 7647W        W11698  10.110   1.977   3.999 -0.2707  0.5043  0.0072
 7648W        W11699   7.218   6.816   3.875  0.0824  0.3862 -0.0457
 7649W        W11700   2.421   4.408  10.750  0.1346 -0.2279 -0.2505
 7650W        W11701   9.558   9.068  10.543 -0.1056 -0.0459 -0.2278
 7651W        W11702   8.700   2.772   1.057  0.0806 -0.0039 -0.1539
 7652W        W11703   7.055   9.684   4.598  0.0095 -0.1261  0.1693
 7653W        W11704   1.435   7.271   9.290  0.2098 -0.1379 -0.1516
 7654W        W11705   2.253   1.913   2.130 -0.0846 -0.1563  0.2895
 7655W        W11706   3.763   0.972   2.246  0.1304  0.1350 -0.1447
 7656W        W11707   3.469   7.048  11.734 -0.2275  0.4496  0.0443
 7657W        W11708   5.148   9.379   2.626 -0.1587 -0.2260 -0.2515
 7658W        W11709   6.829   2.323   9.370 -0.2395  0.1584 -0.0576
 7659W        W11710   1.775   6.151   2.403  0.1966 -0.2693 -0.1252
 7660W        W11711   9.048   2.116  10.994  0.0848  0.1889 -0.1439
 7661W        W11712   8.620   8.837   2.745  0.1809 -0.2583  0.2847
 7662W        W11713   1.623   8.524   9.892  0.2174  0.0058 -0.3530
 7663W        W11714   6.525   0.079   5.039 -0.1027  0.3168  0.1078
 7664W        W11715   1.499   7.239  11.218  0.0202  0.0470  0.0476
 7665W        W11716   9.324   5.175  10.655 -0.2880 -0.2030 -0.1052
 7666W        W11717   0.516   7.763   1.488 -0.4053  0.2217  0.2385
 7667W        W11718   6.043   6.031  12.957  0.1264 -0.0387 -0.4712
 7668W        W11719   1.386   9.561   2.747  0.0576 -0.0164  0.0208
 7669W        W11720   4.939   0.094   9.242  0.0101  0.0231  0.0854
 7670W        W11721   1.695   3.945  10.188  0.3112  0.2860  0.0024
 7671W        W11722   7.517   0.783   2.805 -0.1971 -0.1073  0.4251
 7672W        W11723   2.927   2.395   9.612 -0.1562  0.0555 -0.0739
 7673W        W11724   3.368   2.858  12.648 -0.0010 -0.1812 -0.0435
 7674W        W11725   3.356   5.231   9.201  0.0012  0.0606  0.2603
 7675W        W11726   5.202   3.170   9.800 -0.2117 -0.0894 -0.1674
 7676W        W11727   3.587   1.639  12.965  0.1213  0.1905 -0.1967
 7677W        W11728   1.225   0.059  12.451 -0.3421  0.1814 -0.0302
 7678W        W11729   5.758  10.056  13.413 -0.0719 -0.3053 -0.0004
 7679W        W11730   8.866   3.382  11.045  0.1913 -0.1416  0.1103
 7680W        W11731   7.277   1.441   4.754  0.0721 -0.0895  0.0869
 7681W        W11732   8.315   4.169  13.158 -0.2988  0.1660  0.1547
 7682W        W11733   5.296   7.677   3.930 -0.2194  0.0523  0.0483
 7683W        W11734   1.767   6.256  12.170  0.1352 -0.1995  0.2318
 7684W        W11735   8.356   1.600  13.475  0.0368  0.0710  0.1495
 7685W        W11736   1.214   1.240   3.186  0.2065 -0.1696  0.0578
 7686W        W11737   4.690   8.863   0.001 -0.0674 -0.0838 -0.2902
 7687W        W11738   0.518   1.133   8.678 -0.0788 -0.3953  0.1021
 7688W        W11739   0.949   7.713   2.741 -0.0584 -0.1382  0.2530
 7689W        W11740   9.325   4.491   9.476 -0.0972 -0.2313  0.2678
 7690W        W11741   9.955   4.573  11.737 -0.0219  0.1581 -0.1829
 7691W        W11742   3.294   7.376  12.432  0.0846 -0.3233  0.0307
 7692W        W11743   4.516   5.556  12.852 -0.3822  0.1906 -0.0034
 7693W        W11744   4.923   1.008   9.035  0.4235 -0.1484 -0.1257
 7694W        W11745   1.308   4.468   1.569 -0.0678 -0.1826 -0.1271
 7695W        W11746   6.411   0.554  13.452  0.0583  0.1435  0.0365
 7696W        W11747  10.183   5.726   3.771 -0.3882  0.1005  0.0112
 7697W        W11748   9.176   3.561   2.026 -0.0851 -0.3030 -0.1334
 7698W        W11749   9.265   5.825  10.928 -0.0635  0.2667 -0.1272
 7699W        W11750   1.122   0.803   4.544  0.0479 -0.0583 -0.0470
 7700W        W11751   5.284   8.139  12.036  0.0240 -0.3777 -0.3698
 7701W        W11752   1.461   3.739   4.377  0.3622  0.1269  0.0523
 7702W        W11753   1.989   8.044   9.715  0.3660  0.1232 -0.1930
 7703W        W11754   3.869   7.453  13.923  0.1500  0.1206  0.0583
 7704W        W11755   8.365   8.335   2.894  0.1462 -0.0020 -0.2916
 7705W        W11756   3.978   2.300  11.502  0.0161  0.1947 -0.1071
 7706W        W11757   6.477   7.839  11.947 -0.0723  0.0186  0.0239
 7707W        W11758   1.194   5.437  12.703 -0.0408 -0.0919  0.2411
 7708W        W11759   5.588   9.814   2.618  0.3112  0.5113  0.2964
 7709W        W11760   3.327   2.916  10.361 -0.1489 -0.1907 -0.1399
 7710W        W11761   2.663   3.496  10.809 -0.2011  0.0525 -0.1640
 7711W        W11762   3.337   6.053  11.988 -0.0300 -0.1473 -0.0901
 7712W        W11763   9.574   6.970   0.395 -0.1599  0.0890  0.3098
 7713W        W11764  10.122   4.693  13.568  0.1525 -0.1255 -0.0541
 7714W        W11765   7.810   9.868  11.894 -0.0765 -0.1521  0.1969
 7715W        W11766   5.522   6.034  10.530  0.0070  0.1283  0.0472
 7716W        W11767   0.045   7.931   4.222  0.2557 -0.2015  0.1462
 7717W        W11768   2.953   3.717  12.027  0.0311 -0.0174  0.2989
 7718W        W11769   3.804   0.139   3.302  0.2253 -0.2497  0.0117
 7719W        W11770   7.127   6.513   0.523 -0.1920  0.3946  0.0988
 7720W        W11771   9.010   5.989  10.486 -0.0031 -0.2200 -0.0590
 7721W        W11772   5.246   4.497  13.038  0.1227 -0.0169  0.1466
 7722W        W11773   8.841   1.566  11.912  0.1885  0.0901 -0.0159
 7723W        W11774   6.305   4.256  13.867  0.1652  0.1700  0.0332
 7724W        W11775   6.033   3.293  10.872 -0.2588  0.0989  0.0139
 7725W        W11776   0.050   0.719  13.498 -0.1193 -0.1797 -0.0873
 7726W        W11777   2.376   9.257  11.928 -0.0191 -0.1405 -0.2026
 7727W        W11778   3.655   1.317  12.202  0.1748  0.2485  0.2850
 7728W        W11779   5.614   8.750   1.773 -0.1798 -0.1257  0.5024
 7729W        W11780   5.397   3.205  12.335 -0.3290  0.4829 -0.3057
 7730W        W11781   5.204   1.773  12.500 -0.3395  0.0053  0.3533
 7731W        W11782   6.971   3.035   4.497 -0.0793 -0.0042 -0.0375
 7732W        W11783   7.858  10.078   9.077 -0.1622 -0.0571  0.0614
 7733W        W11784   5.046   0.079  10.176 -0.2629  0.2265  0.1664
 7734W        W11785   4.282   2.200   8.538 -0.1075  0.1459  0.1908
 7735W        W11786   7.989   3.653   0.542 -0.1412 -0.3063  0.3025
 7736W        W11787   3.461   3.959   3.237 -0.0509  0.2335  0.2540
 7737W        W11788   3.204   3.715   4.073  0.0873 -0.2565  0.2253
 7738W        W11789   8.713   9.110   4.184 -0.3003  0.2456  0.1915
 7739W        W11790   1.298   2.174   3.813  0.1904  0.0867  0.1525
 7740W        W11791   8.960   1.030   3.227  0.2629  0.0983  0.0034
 7741W        W11792   9.470   0.431  10.643  0.1833 -0.3120 -0.0107
 7742W        W11793   9.802   5.153   4.461  0.2589 -0.0583  0.0664
 7743W        W11794   9.329   6.278   1.503 -0.0595  0.0874  0.1418
 7744W        W11795   6.450   5.159  10.993  0.1268  0.0111 -0.5834
 7745W        W11796   2.581   5.803   9.423  0.1338  0.2162 -0.1369
 7746W        W11797   4.266   1.398   1.481  0.1538  0.3428  0.3295
 7747W        W11798   6.024   4.687  10.059  0.1241  0.0349 -0.0318
 7748W        W11799   3.155   1.422  13.119 -0.3713  0.1136 -0.1906
 7749W        W11800   4.259   1.900   2.336  0.0779  0.3684  0.1388
 7750W        W11801   6.668   2.922   4.047  0.0696 -0.2990 -0.2034
 7751W        W11802   9.226   1.361  11.727 -0.0392  0.0036  0.0995
 7752W        W11803   6.237   9.974   0.248 -0.2488  0.2341 -0.0167
 7753W        W11804   5.093   2.688   3.344  0.1503 -0.0145  0.0498
 7754W        W11805   2.221   8.313   1.109  0.3955 -0.2430 -0.0434
 7755W        W11806   6.008   4.389   2.544 -0.0089 -0.3063  0.2247
 7756W        W11807  10.164   2.024  13.411  0.1748 -0.3797 -0.0364
 7757W        W11808   5.774   5.297   1.894  0.2239 -0.3258  0.0008
 7758W        W11809   8.848   5.460   9.990  0.1040 -0.1143  0.0384
 7759W        W11810   7.114   9.750   5.446 -0.1251 -0.0560 -0.1744
 7760W        W11811   3.571   0.434  12.259 -0.0789  0.2244  0.1594
 7761W        W11812   1.404   5.886   0.217  0.2545 -0.1745  0.1755
 7762W        W11813   2.016   3.973  11.518 -0.1884  0.0985  0.0619
 7763W        W11814   8.458   2.239  11.676  0.2657 -0.1245 -0.0293
 7764W        W11815   6.175   1.088   1.085  0.0749 -0.3888 -0.1204
 7765W        W11816   0.694   5.851   9.295 -0.3320  0.2380  0.0856
 7766W        W11817   2.740   4.770  10.783 -0.0868 -0.2665  0.0078
 7767W        W11818   1.609   7.093  13.677 -0.0871  0.0787  0.1277
 7768W        W11819   5.696   8.487   3.874 -0.0664  0.1912  0.1186
 7769W        W11820   5.942   6.660  13.547  0.1566  0.3305 -0.1102
 7770W        W11821   5.497   8.696   4.903 -0.0651 -0.0913 -0.3844
 7771W        W11822   0.876   1.122   2.799 -0.0412 -0.0363  0.0908
 7772W        W11823   5.121   5.051   0.659  0.0901  0.0008  0.1188
 7773W        W11824   3.780   8.284   2.126  0.0630 -0.4563  0.1236
 7774W        W11825   8.139   0.816   1.284  0.0426 -0.4380  0.2824
 7775W        W11826   0.373   5.387   5.079 -0.2258 -0.2069 -0.1069
 7776W        W11827   4.259   9.656   1.820 -0.4365 -0.0268  0.0862
 7777W        W11828   1.647   1.377   9.458  0.1076  0.0868  0.1276
 7778W        W11829   6.899   2.895  10.998 -0.0652  0.2027  0.1148
 7779W        W11830   5.457   4.591   9.107  0.0996  0.2896  0.1309
 7780W        W11831   3.127   6.856  12.086  0.0580 -0.3334 -0.0498
 7781W        W11832   3.999   5.494   2.091  0.0647  0.1301 -0.0543
 7782W        W11833   9.374   7.842   0.693  0.0820 -0.2364 -0.1791
 7783W        W11834   8.638   2.186   3.329  0.0327  0.1191  0.1403
 7784W        W11835   0.348   0.756  13.103 -0.1175  0.1252  0.1160
 7785W        W11836   5.325   2.933   1.220 -0.0823 -0.0055 -0.0356
 7786W        W11837   2.116   4.980  13.554 -0.1384  0.2000 -0.1556
 7787W        W11838   5.428   5.142  11.632 -0.0110  0.1742  0.2170
 7788W        W11839   3.796   9.871   3.196 -0.2974 -0.1205  0.0542
 7789W        W11840   6.509   6.333   2.441 -0.0878 -0.0147 -0.1299
 7790W        W11841   3.038   4.024   3.649 -0.4652  0.1079 -0.0210
 7791W        W11842   0.330   7.749   0.150 -0.2154 -0.3367  0.0942
 7792W        W11843   9.791   7.088   3.839 -0.0181 -0.0419 -0.1953
 7793W        W11844   6.477   9.433  12.258 -0.1232 -0.1871 -0.1136
 7794W        W11845   4.891   8.016  12.940 -0.3746 -0.0091 -0.2198
 7795W        W11846   1.475   6.350  10.587 -0.1513  0.0012 -0.0920
 7796W        W11847   3.359   6.629   2.134  0.0641 -0.4734  0.3829
 7797W        W11848   1.952   1.303   4.826  0.1330 -0.0720 -0.0990
 7798W        W11849   1.538   3.510  12.348  0.1237  0.2018  0.0441
 7799W        W11850   8.180   5.860   2.918  0.0166  0.1066 -0.2508
 7800W        W11851   9.406   1.651   1.981 -0.3936  0.0580  0.2260
 7801W        W11852  10.077   9.379  13.101  0.1381  0.2392  0.0928
 7802W        W11853   6.033   3.275   0.005  0.2159  0.1110 -0.0748
 7803W        W11854   0.265   9.228  11.324  0.0840 -0.4976  0.1829
 7804W        W11855   6.436   0.674   3.980  0.0417 -0.1642 -0.1085
 7805W        W11856   1.109   8.729   0.370  0.3159 -0.1029 -0.0250
 7806W        W11857   6.315   9.653  11.638  0.1063 -0.2052  0.0319
 7807W        W11858   3.660   1.568   9.163 -0.1982 -0.1910  0.1043
 7808W        W11859   1.850   6.500  13.027  0.1138 -0.1761 -0.2221
 7809W        W11860   4.171   1.248   1.052  0.1036  0.1210  0.0439
 7810W        W11861   5.405   4.890   0.008  0.0676  0.0677  0.2782
 7811W        W11862   4.425   0.727   2.803 -0.2379 -0.0478 -0.1041
 7812W        W11863   2.344   5.604  12.009 -0.0337 -0.1288  0.0512
 7813W        W11864   1.849   9.294   3.776  0.4496  0.1177 -0.0322
 7814W        W11865   1.204   2.984  13.294 -0.0251 -0.0809 -0.0884
 7815W        W11866   7.250   1.094   5.100 -0.1702  0.2270  0.0878
 7816W        W11867   1.040   6.106   5.536 -0.0324 -0.2909  0.2710
 7817W        W11868   7.885   5.966   1.396  0.1664 -0.1720 -0.0244
 7818W        W11869   8.331   6.491   9.140 -0.2186 -0.0755  0.3150
 7819W        W11870   1.183   9.960  12.002  0.0913 -0.2977  0.1756
 7820W        W11871   8.833   0.993   0.521 -0.0946  0.0522  0.0806
 7821W        W11872   8.660   7.141  10.544 -0.0139 -0.3248 -0.0063
 7822W        W11873   6.683   5.260   3.020  0.1272 -0.1517 -0.0514
 7823W        W11874   0.283   8.138   3.313 -0.1286  0.0845 -0.0894
 7824W        W11875   1.248   1.481   1.702 -0.0684 -0.0664  0.0239
 7825W        W11876   8.898   8.907   3.619 -0.0424  0.0903 -0.0242
 7826W        W11877   5.748   1.926   0.833 -0.2348 -0.1081  0.0207
 7827W        W11878   4.938   6.046   1.916  0.1293 -0.2200 -0.1091
 7828W        W11879   6.915   4.131   3.431 -0.1177 -0.2128 -0.0665
 7829W        W11880   6.345   4.948   3.320 -0.1902  0.1096 -0.1759
 7830W        W11881   7.162   7.133   2.163 -0.0062 -0.3263 -0.1829
 7831W        W11882   3.417   0.645   9.274 -0.1524  0.0683 -0.0865
 7832W        W11883   8.363   3.061   1.967  0.0674 -0.4421  0.2738
 7833W        W11884   7.860   2.006   0.791  0.2042  0.0093  0.2469
 7834W        W11885   3.241   0.382   3.282  0.0022 -0.1182  0.2970
 7835W        W11886  10.191   0.820   3.148 -0.0747  0.0967 -0.0989
 7836W        W11887   6.879   5.115   4.836  0.2076 -0.0478 -0.2146
 7837W        W11888   4.348   2.150   0.618 -0.1020  0.0213 -0.1492
 7838W        W11889   1.366   8.142  10.350  0.1974  0.2116  0.0318
 7839W        W11890   1.969   1.949   3.289 -0.1530 -0.2218  0.0483
 7840W        W11891   0.554   6.697  13.370 -0.0615  0.3614 -0.1930
 7841W        W11892  10.134   2.176   0.367 -0.0421 -0.0753  0.1472
 7842W        W11893   2.887   5.318   9.429  0.0773  0.0366 -0.2788
 7843W        W11894   2.551   3.260  11.615  0.1445 -0.0806 -0.0731
 7844W        W11895   2.676   0.287  11.972  0.0085  0.0540 -0.0394
 7845W        W11896   7.377   1.361  10.221  0.3656  0.0864  0.0555
 7846W        W11897   2.077   4.296   4.702 -0.0936 -0.0321  0.1012
 7847W        W11898   0.973  10.132   4.408 -0.2816 -0.1857 -0.1595
 7848W        W11899   6.114   5.815  11.567  0.1332 -0.4140 -0.0639
 7849W        W11900   2.604   9.518   0.063  0.0417 -0.0161 -0.2322
 7850W        W11901   5.674   4.202  13.269 -0.0393 -0.0694 -0.0083
 7851W        W11902   3.846   5.337  11.530 -0.0112 -0.0450  0.1469
 7852W        W11903   9.024   2.624  13.540 -0.0967  0.0697  0.3269
 7853W        W11904   0.376   2.487   9.146  0.0304 -0.1076  0.0116
 7854W        W11905   8.969   2.695   2.068  0.1703  0.0107  0.2261
 7855W        W11906   4.182   4.610   1.294 -0.1101 -0.2988  0.4000
 7856W        W11907   0.786   5.339  11.170 -0.0007  0.0178  0.1827
 7857W        W11908   5.953   0.004  12.414 -0.2444 -0.1436  0.1664
 7858W        W11909   0.625   1.850   0.949 -0.1610  0.1516  0.2707
 7859W        W11910   4.856   1.406   3.639 -0.0467  0.0305 -0.2690
 7860W        W11911   0.953   2.100   4.696 -0.3923 -0.0213 -0.1128
 7861W        W11912   8.381   0.755  11.564 -0.0735 -0.1002 -0.2426
 7862W        W11913   8.170   9.184  11.819 -0.3782  0.0134  0.3359
 7863W        W11914   7.031   9.365   3.961 -0.3034  0.1302 -0.3877
 7864W        W11915   3.900   5.371  13.902  0.0694  0.1119 -0.0906
 7865W        W11916   4.597   8.302   9.624 -0.1618  0.0727  0.1750
 7866W        W11917   8.458   0.804  10.009 -0.1094 -0.0437 -0.3230
 7867W        W11918   5.128   0.897   0.691  0.0442  0.0094 -0.2415
 7868W        W11919   3.851   9.984   0.441  0.1153  0.1085  0.3400
 7869W        W11920   6.512   8.746   1.499  0.0083  0.3431  0.0344
 7870W        W11921   8.801   4.361  11.242  0.2387 -0.1081  0.0413
 7871W        W11922   5.012   3.188   1.941 -0.0807  0.0580  0.0302
 7872W        W11923   4.002   5.966  12.681  0.0172  0.1106 -0.0673
 7873W        W11924   2.658   1.467  13.316  0.0566 -0.0094 -0.0210
 7874W        W11925   1.744   7.289   1.775 -0.3639  0.2972  0.4204
 7875W        W11926   6.970   5.996   0.481 -0.3098 -0.0781 -0.0894
 7876W        W11927   9.037   1.567   4.184  0.1376 -0.0581 -0.2004
 7877W        W11928   5.740   6.900   2.253 -0.0835  0.1599 -0.1585
 7878W        W11929   7.841   0.514  12.385  0.0758 -0.1537 -0.0184
 7879W        W11930   4.411   8.529   4.829  0.0783  0.2578  0.1198
 7880W        W11931   8.559   7.379  13.033 -0.1357  0.3989  0.0409
 7881W        W11932   1.917   6.733   3.126  0.2263 -0.1153 -0.0842
 7882W        W11933   6.907   5.781  13.003 -0.0094 -0.1521 -0.2773
 7883W        W11934   2.597   0.375   9.699  0.0695  0.3338  0.3315
 7884W        W11935   3.289   6.023   1.091  0.2788 -0.1397 -0.2257
 7885W        W11936   1.839   5.299   9.897  0.1060  0.0418  0.0477
 7886W        W11937   4.195   7.088   0.945  0.2259 -0.1383 -0.0716
 7887W        W11938   6.196   0.834   2.359 -0.1341 -0.1859  0.0578
 7888W        W11939   0.044   7.911  12.614 -0.2129 -0.2717  0.0481
 7889W        W11940   5.234   2.172   3.407 -0.1148 -0.3434  0.3360
 7890W        W11941   8.015   8.648   9.393 -0.1751 -0.2130 -0.2369
 7891W        W11942   7.462   1.682   0.852 -0.4100 -0.1514 -0.0606
 7892W        W11943   0.296   0.480   0.539 -0.1024 -0.1076 -0.0707
 7893W        W11944   7.380   4.580  13.380  0.0634 -0.3535  0.0434
 7894W        W11945  10.027   7.794   2.733 -0.3310  0.2429  0.0114
 7895W        W11946   2.343   6.561   1.222  0.0466 -0.0381 -0.2004
 7896W        W11947   5.175   1.283   2.915  0.2686  0.2040  0.0171
 7897W        W11948   5.099   8.343  13.349 -0.2813 -0.3369  0.3008
 7898W        W11949   5.534   3.856   3.734 -0.1094  0.1296  0.0245
 7899W        W11950   3.168   9.624  13.850 -0.2614 -0.2638 -0.1275
 7900W        W11951   1.628   3.130  10.121  0.0050 -0.0824  0.0701
 7901W        W11952   6.200   9.472   0.342  0.1245 -0.2527 -0.4096
 7902W        W11953   0.168   1.693  12.925  0.2835 -0.0112 -0.1719
 7903W        W11954   2.103   6.827  12.245 -0.1545 -0.1790  0.4156
 7904W        W11955   4.810   6.883  13.330  0.0686 -0.1148  0.0994
 7905W        W11956   3.531   9.158   2.666  0.0853  0.1071  0.1763
 7906W        W11957   5.819   4.613   4.074  0.2914 -0.0956 -0.0112
 7907W        W11958   3.293   7.521  11.443 -0.0432 -0.5796 -0.0885
 7908W        W11959   1.655   6.964   0.326 -0.0758  0.1356  0.3118
 7909W        W11960   9.992   1.882   1.262 -0.1950 -0.1026 -0.1706
 7910W        W11961   6.644   3.821   4.378  0.0166  0.3622 -0.3402
 7911W        W11962   8.337   1.787   3.170  0.0508 -0.3664 -0.3137
 7912W        W11963   7.454   8.015   0.503 -0.0794  0.1553 -0.2582
 7913W        W11964   0.180   4.507   3.483  0.1851 -0.2680  0.5197
 7914W        W11965   4.060   5.208  12.010  0.0486  0.0906  0.0711
 7915W        W11966   3.583   2.711   3.292  0.2570  0.1342 -0.0979
 7916W        W11967   1.576   2.091   0.086  0.1063 -0.0809  0.0154
 7917W        W11968   0.256   1.603   2.201 -0.0589 -0.1708 -0.0328
 7918W        W11969   5.703   5.305   3.420  0.1806 -0.2262  0.1929
 7919W        W11970   5.459   1.950   1.239  0.4498  0.1615 -0.1880
 7920W        W11971   3.464   4.455   1.907  0.1743  0.1298 -0.1322
 7921W        W11972   5.575   7.461  11.028 -0.1917  0.1517  0.3335
 7922W        W11973   5.482   3.672  11.640 -0.2968 -0.3487 -0.1889
 7923W        W11974   5.580   3.227  11.353  0.1587 -0.4472 -0.0891
 7924W        W11975   6.228   7.879   1.471 -0.2195  0.3580  0.0048
 7925W        W11976   0.290   4.829   2.731 -0.0924 -0.1179  0.0503
 7926W        W11977   6.091   7.351  11.046 -0.1906  0.1950  0.0880
 7927W        W11978  10.065   7.995  11.255  0.1464 -0.1012  0.1916
 7928W        W11979   5.484   9.778   1.612 -0.6237  0.0036 -0.2873
 7929W        W11980   9.621   5.367   8.896 -0.1931 -0.0315  0.0093
 7930W        W11981   2.855   4.222   9.152  0.3282 -0.1016 -0.0702
 7931W        W11982   8.667   4.650   4.128 -0.0204 -0.1152 -0.2148
 7932W        W11983   0.111   6.308  12.304 -0.1361  0.1124 -0.0705
 7933W        W11984   7.894   2.982  10.661 -0.1573  0.3142  0.0854
 7934W        W11985   3.648   3.310  13.347  0.0745  0.0970  0.1306
 7935W        W11986   1.108   4.530   4.539  0.0188 -0.0464  0.0768
 7936W        W11987   3.389   3.048   5.055  0.1380 -0.1873 -0.3182
 7937W        W11988   7.499   2.321   4.184 -0.0129 -0.6198 -0.3619
 7938W        W11989   5.917   5.349   2.437 -0.1284  0.0614  0.0682
 7939W        W11990   0.977   0.058  13.474  0.0838 -0.1195 -0.0554
 7940W        W11991   1.562   3.223   3.953 -0.0561 -0.1708  0.3167
 7941W        W11992   5.345   4.821   4.067  0.0951 -0.1247  0.0529
 7942W        W11993   0.696   9.755   9.342  0.0775  0.0028 -0.2661
 7943W        W11994   5.273   6.361   1.692  0.3124 -0.2277 -0.2657
 7944W        W11995   4.330   8.431   0.202 -0.4238 -0.0301  0.1707
 7945W        W11996   3.489   9.393  12.114  0.0448 -0.0606  0.0218
 7946W        W11997   3.268   0.232  10.199 -0.2125 -0.3203 -0.2364
 7947W        W11998   7.512   7.022  10.657  0.3791 -0.1843 -0.1983
 7948W        W11999   0.314   5.830  12.115  0.0825 -0.1676 -0.0371
 7949W        W12000   3.575   1.100   9.264  0.0378  0.0669  0.0653
 7950W        W12001   0.059   3.313  12.534  0.0749 -0.1025  0.1830
 7951W        W12002   9.272   7.706   1.623  0.2040 -0.0328 -0.1886
 7952W        W12003   8.717   8.236   9.379  0.0370 -0.2302 -0.0627
 7953W        W12004   2.129   5.898   4.117 -0.0568  0.0164 -0.3631
 7954W        W12005   1.666   9.128  11.245  0.2044 -0.2079  0.3236
 7955W        W12006   5.166   5.464  12.143 -0.0136  0.2704 -0.1497
 7956W        W12007   6.750   0.957   2.615  0.0741  0.1876  0.3677
 7957W        W12008   2.253   6.137  11.807  0.1779 -0.1346 -0.1258
 7958W        W12009   9.609   4.596   4.438  0.0152  0.3562 -0.0023
 7959W        W12010   0.002   7.935  13.726 -0.1321  0.0634  0.0319
 7960W        W12011   4.743   3.085  13.163 -0.1407 -0.1548 -0.0168
 7961W        W12012   5.331   2.166  11.156  0.0061 -0.3175  0.1868
 7962W        W12013   7.200   3.740   1.385 -0.0153 -0.1579  0.0803
 7963W        W12014   4.962   7.756  11.357 -0.0042 -0.2698  0.2656
 7964W        W12015   1.799   5.324   0.367  0.1790  0.0422  0.1274
 7965W        W12016   1.540   5.323  11.398  0.0548  0.0458 -0.0739
 7966W        W12017   1.076   2.588   4.375 -0.1167  0.1330 -0.1246
 7967W        W12018   0.353   3.213  10.425 -0.0032 -0.5669  0.1493
 7968W        W12019   2.572   8.553  10.950  0.0845 -0.1724 -0.2420
 7969W        W12020   3.961   5.803  13.689  0.1297 -0.0612  0.4232
 7970W        W12021   1.130   1.061  10.985 -0.2284  0.0928  0.0543
 7971W        W12022   6.828   0.168  10.619  0.0003 -0.1977  0.1511
 7972W        W12023  10.106   7.673   1.096  0.3156 -0.0971 -0.1274
 7973W        W12024   2.509   2.321  11.458 -0.3372 -0.2390  0.1521
 7974W        W12025   8.823   2.913  11.142 -0.1729  0.0265  0.5227
 7975W        W12026   0.900  10.110  10.394  0.0739 -0.0752  0.0468
 7976W        W12027   9.367   5.511  13.675 -0.0523 -0.1266  0.4177
 7977W        W12028   4.940   9.636  12.944 -0.0816 -0.1541  0.0894
 7978W        W12029   2.339   3.146  11.121 -0.0489 -0.1549  0.1010
 7979W        W12030   5.781   0.550   5.264  0.1919 -0.0116 -0.0395
 7980W        W12031   7.473   0.198   3.951 -0.0961 -0.0572 -0.0118
 7981W        W12032  10.018   0.582   4.495  0.0136  0.2385 -0.2676
 7982W        W12033   3.994   3.200   0.299  0.2214  0.3793  0.1317
 7983W        W12034   1.215   0.528   9.981  0.0945  0.1508 -0.0325
 7984W        W12035   9.723   6.902   1.026 -0.2170  0.0039 -0.3091
 7985W        W12036   0.226   6.039   1.063  0.2132 -0.3478  0.1076
 7986W        W12037   9.851   8.397   9.781  0.1236  0.3095  0.0486
 7987W        W12038   6.249   6.274  10.636  0.1488 -0.2704  0.3260
 7988W        W12039   8.351   8.021   0.496  0.3291 -0.0251 -0.0402
 7989W        W12040   1.811   6.938   2.178 -0.0068  0.4740  0.1184
 7990W        W12041   9.961   6.259  13.184 -0.4249  0.1599  0.1749
 7991W        W12042   0.960   9.639   2.359  0.0496  0.0882  0.0830
 7992W        W12043   1.193   5.976   3.556  0.0350  0.0486  0.2111
 7993W        W12044   1.247   8.118   2.592 -0.2241  0.1587  0.0161
 7994W        W12045   6.226   8.991  13.839  0.2393  0.0686 -0.0070
 7995W        W12046   5.235   7.752  10.004  0.4360 -0.1461  0.1725
 7996W        W12047   4.063   1.596  12.163  0.0365  0.0834  0.2721
 7997W        W12048   3.008   8.192   9.157  0.2477 -0.3493  0.1494
 7998W        W12049   9.209   3.522   9.357  0.2244 -0.1595  0.0062
 7999W        W12050   9.302   9.233   4.119  0.0821  0.0359 -0.2011
 8000W        W12051   7.088   3.383  13.021  0.1786  0.0461  0.1148
 8001W        W12052   5.367   8.548   2.159 -0.4175 -0.1939  0.1144
 8002W        W12053   8.951   6.620   0.565  0.0803 -0.2196 -0.2725
 8003W        W12054   5.600   0.250  13.629  0.0998  0.1665 -0.1405
 8004W        W12055   1.371   2.639  11.302  0.2182  0.0682 -0.1231
 8005W        W12056   0.490   8.249   4.360  0.0992 -0.2607 -0.0600
 8006W        W12057   6.543   5.329  11.527 -0.1364 -0.1202 -0.1031
 8007W        W12058   8.684   1.652  10.175  0.2447 -0.1988 -0.0053
 8008W        W12059   2.382   3.902  12.282  0.0012 -0.3109  0.0677
 8009W        W12060   5.260   5.870   1.601 -0.0423  0.1685 -0.0376
 8010W        W12061   3.489   1.743  13.448  0.0104  0.1257  0.0838
 8011W        W12062   1.992   1.656   9.197 -0.0168  0.0884 -0.0167
 8012W        W12063   3.365   3.031   9.078  0.1969 -0.0931  0.2238
 8013W        W12064   1.216   5.529  12.210  0.2262  0.0271 -0.0561
 8014W        W12065   0.150   3.000   0.228 -0.0169 -0.0990  0.0575
 8015W        W12066   7.378   5.274   0.027 -0.0433 -0.0779 -0.0126
 8016W        W12067   6.125   6.141  13.476 -0.0325 -0.3221 -0.2912
 8017W        W12068   3.341   6.617  13.626 -0.0809 -0.0053 -0.1656
 8018W        W12069   0.003   3.237  10.796  0.0970 -0.2099  0.1502
 8019W        W12070   4.558   4.677   3.796  0.2608  0.1657 -0.3567
 8020W        W12071   3.604   1.670  11.884 -0.2763 -0.3326  0.0338
 8021W        W12072   3.408   2.352   4.131  0.0654 -0.0470  0.0278
 8022W        W12073   8.710   3.311   4.120  0.0223  0.1274  0.2491
 8023W        W12074   1.421   6.441   3.978 -0.2368 -0.1779 -0.0017
 8024W        W12075   1.958   9.187   1.180 -0.0714 -0.1963  0.4455
 8025W        W12076   0.635   7.752   3.179 -0.1373 -0.0954 -0.0801
 8026W        W12077   1.806   4.242   3.033 -0.1204  0.1917 -0.1652
 8027W        W12078   9.162   7.259   3.210 -0.3472  0.0562 -0.0385
 8028W        W12079   7.128   9.260   0.139 -0.1045 -0.0676  0.2076
 8029W        W12080   7.588   2.953   3.090  0.1552  0.1605  0.1627
 8030W        W12081   5.018   1.970  10.810 -0.1322 -0.0282 -0.2884
 8031W        W12082   7.391   1.586  10.997  0.1892  0.3217 -0.2649
 8032W        W12083   9.686   4.303   0.420  0.1328  0.0020  0.2469
 8033W        W12084   7.971   0.152  13.500  0.2184  0.1725 -0.2896
 8034W        W12085   0.420   4.652   0.447 -0.0989  0.2051 -0.1897
 8035W        W12086   6.484   0.942   1.430  0.1363 -0.0071 -0.2789
 8036W        W12087   8.137   3.252   9.884 -0.2736  0.0147 -0.1739
 8037W        W12088  10.059   1.067   1.919 -0.1428 -0.2150 -0.1146
 8038W        W12089   6.296   1.718   3.836  0.0737  0.1249  0.2447
 8039W        W12090   2.191   6.224   0.150 -0.3532  0.2027 -0.2339
 8040W        W12091   6.407   3.800   0.198 -0.1992  0.0837 -0.0746
 8041W        W12092   4.969   7.938   9.590  0.0144  0.3148 -0.0870
 8042W        W12093   3.689   5.816   0.848 -0.0117  0.0645  0.0555
 8043W        W12094   2.241   6.208  12.819 -0.0358  0.0801 -0.2856
 8044W        W12095   6.491   7.304  13.640 -0.2276  0.0592  0.0817
 8045W        W12096   2.355   3.916   1.099 -0.4323 -0.0394 -0.3146
 8046W        W12097   1.871   7.160  12.531  0.5321 -0.4238 -0.0826
 8047W        W12098   5.140   1.458   9.728  0.1031  0.2750  0.0665
 8048W        W12099   1.039   2.938   3.100 -0.0456 -0.2113  0.3088
 8049W        W12100   5.278   8.567  12.345  0.0341  0.1741 -0.2157
 8050W        W12101   5.500   7.612   1.831 -0.1066 -0.0107 -0.1239
 8051W        W12102   5.277   1.123   0.241 -0.0506  0.2514 -0.0961
 8052W        W12103   9.241   0.188   3.195 -0.1073  0.1639 -0.0473
 8053W        W12104   8.674   8.187   0.137 -0.1156 -0.0799  0.1375
 8054W        W12105   9.236   7.793   2.415  0.1020  0.0618  0.1257
 8055W        W12106   0.419   1.006   0.475 -0.3502  0.4463  0.3357
 8056W        W12107   6.657   8.532   3.530 -0.0410 -0.0516 -0.1803
 8057W        W12108   8.625   2.905  13.175  0.1800  0.0478  0.1638
 8058W        W12109   6.746   9.544  11.378 -0.1839 -0.0767  0.1564
 8059W        W12110   5.063   4.462  10.043 -0.2151  0.2486  0.1253
 8060W        W12111   1.742   8.478  12.287  0.2177  0.0218  0.0806
 8061W        W12112   7.587   3.248  11.473 -0.0793  0.0292  0.2266
 8062W        W12113   3.018   4.460   0.687  0.1605  0.0102  0.2801
 8063W        W12114   3.287   5.442   0.867  0.0088 -0.0848  0.0426
 8064W        W12115   3.450   4.068   1.552 -0.0231 -0.1945  0.5084
 8065W        W12116   4.479   3.032  13.595  0.1627 -0.1768 -0.1075
 8066W        W12117   9.772   4.657   0.083  0.1657  0.0557 -0.0464
 8067W        W12118   0.972   9.886  13.844  0.3080  0.2271  0.2260
 8068W        W12119   0.921   0.208   0.025 -0.0222  0.2539  0.2915
 8069W        W12120   1.587   0.699   3.842 -0.3349  0.2765  0.2507
 8070W        W12121   4.644   0.974   0.872  0.1125 -0.1795  0.2022
 8071W        W12122   1.359   6.734   2.176  0.1368  0.1917 -0.0113
 8072W        W12123   4.145   3.321   2.261  0.0966 -0.0289  0.0434
 8073W        W12124   6.800   2.012   3.430 -0.1036 -0.0694  0.4323
 8074W        W12125   3.558   3.866   2.774 -0.1128 -0.2532 -0.0660
 8075W        W12126   1.115   4.216   2.346 -0.0396  0.2265 -0.0386
 8076W        W12127   9.345   4.606   1.029  0.1628  0.0093  0.1700
 8077W        W12128   8.112   0.066  10.179  0.4035  0.1266  0.0135
 8078W        W12129   4.159   7.162  13.663 -0.2220  0.4812 -0.1540
 8079W        W12130   2.491   5.584   4.858 -0.1943 -0.4162  0.1330
 8080W        W12131   1.735   5.684  13.679 -0.1830 -0.0634  0.5152
 8081W        W12132   8.168   1.805   9.006  0.4441  0.3537 -0.2143
 8082W        W12133   5.288   0.398   5.412  0.0186 -0.2249  0.1938
 8083W        W12134   5.516   9.173  13.601  0.1248 -0.1391 -0.1005
 8084W        W12135   2.043   1.827  10.718 -0.0686  0.2895 -0.0691
 8085W        W12136   2.630   0.093  11.469 -0.1036 -0.2944  0.0646
 8086W        W12137   9.463   2.561  13.327  0.1606 -0.1701  0.1861
 8087W        W12138   2.377   9.382  12.998 -0.1189  0.0145 -0.2757
 8088W        W12139   0.443   6.284   1.817  0.0246 -0.2016 -0.0745
 8089W        W12140   1.117   5.997   4.603  0.0698  0.1263  0.0433
 8090W        W12141   7.130   4.265   1.492 -0.0892 -0.2199 -0.1554
 8091W        W12142   9.825   8.890  10.976  0.0439 -0.1063 -0.2978
 8092W        W12143   1.986   9.269   4.280  0.2212  0.1968  0.2378
 8093W        W12144   2.257   1.360   1.365  0.0915  0.1315  0.0380
 8094W        W12145   2.882   6.207  10.784 -0.0480 -0.4284  0.0777
 8095W        W12146   2.956   3.449   9.642 -0.0855  0.1157 -0.4154
 8096W        W12147   9.199   0.198   9.787 -0.0398 -0.3723  0.3648
 8097W        W12148   7.699   2.065  13.048  0.0741 -0.2421 -0.1918
 8098W        W12149   8.415   9.798   1.304 -0.3539  0.1730 -0.1292
 8099W        W12150   1.400   7.725   0.468  0.2264 -0.0546  0.1255
 8100W        W12151   2.403   0.907   3.001  0.2553  0.1667 -0.1485
 8101W        W12152   5.477   6.346  12.224  0.2742  0.1874 -0.0714
 8102W        W12153   3.941   1.986  11.043 -0.5533  0.1225 -0.1019
 8103W        W12154   7.183   6.723  10.324 -0.2636  0.0659 -0.1249
 8104W        W12155   6.990   3.397  11.149 -0.3896 -0.0051  0.0711
 8105W        W12156   6.669   8.258   0.002  0.3419  0.1474 -0.2407
 8106W        W12157   0.347   4.590  10.822  0.1908  0.0460  0.3644
 8107W        W12158   9.266  10.126   2.403  0.1024 -0.1007 -0.1689
 8108W        W12159   8.836   9.618   4.176  0.2394 -0.0119  0.0251
 8109W        W12160   5.699   0.170   0.235 -0.1176  0.1977  0.3225
 8110W        W12161   1.218   1.650   9.484 -0.0721  0.0843 -0.1191
 8111W        W12162   4.115   7.183  12.232 -0.3213 -0.0525  0.4988
 8112W        W12163   4.474   4.415   4.802  0.0520 -0.1525  0.3209
 8113W        W12164   4.239   2.622  12.447 -0.0809  0.1877 -0.2606
 8114W        W12165   7.131   9.819   1.246 -0.1916  0.2068 -0.0900
 8115W        W12166   5.752   1.511  11.715  0.0164  0.0816  0.1390
 8116W        W12167   1.218   8.770   4.192  0.0062  0.1046  0.0304
 8117W        W12168   6.176   0.908  13.029  0.1318  0.0202 -0.0856
 8118W        W12169   8.404   6.774  10.268  0.1472 -0.0728  0.2555
 8119W        W12170   2.053   1.744   1.042  0.0317  0.1930 -0.0889
 8120W        W12171   9.207   1.430   3.272 -0.0664  0.0833  0.0545
 8121W        W12172   0.709   9.713   4.303  0.1578  0.0929  0.0736
 8122W        W12173   1.961   4.446   2.150  0.0300  0.1223  0.1194
 8123W        W12174   7.487   4.463  10.886 -0.2619 -0.1150  0.0264
 8124W        W12175   4.122   0.318  11.688  0.1610  0.0316  0.0900
 8125W        W12176   1.590   0.862   9.349 -0.0190 -0.0292  0.2904
 8126W        W12177   8.862   8.312  11.065 -0.1654 -0.5287 -0.1207
 8127W        W12178   5.191   6.133  13.310  0.0333  0.1959  0.1076
 8128W        W12179   9.340   5.453   4.606  0.4208  0.1536 -0.2390
 8129W        W12180   2.951   2.437  10.189 -0.0522  0.1003 -0.0098
 8130W        W12181   6.655   0.968  13.048 -0.0083  0.3827  0.2911
 8131W        W12182   7.630   4.895   3.033 -0.0681  0.1536 -0.1340
 8132W        W12183   1.304   3.157  12.081  0.1394  0.1167  0.0815
 8133W        W12184   9.674   9.918  11.719 -0.1580 -0.0373  0.3352
 8134W        W12185   8.502   5.956  12.656 -0.2557  0.2104  0.3230
 8135W        W12186   4.136   4.060   1.504 -0.1099 -0.2685 -0.0115
 8136W        W12187   3.841   5.305   0.774  0.0632  0.1760  0.2517
 8137W        W12188   0.955   0.878  11.826 -0.1456  0.0774  0.2048
 8138W        W12189   3.092   0.223   1.981 -0.4687 -0.0054 -0.0858
 8139W        W12190   0.679   4.291   3.621  0.1781  0.1893 -0.0933
 8140W        W12191   1.782   7.139   3.380 -0.1188  0.0926 -0.0149
 8141W        W12192   5.217   9.384   1.777 -0.1021 -0.1045 -0.3399
 8142W        W12193   3.740   8.635   2.808  0.1853 -0.5860  0.1845
 8143W        W12194   7.449   0.554  10.953  0.0796 -0.1049 -0.0658
 8144W        W12195   9.647   8.799  10.067  0.0403 -0.1346  0.0324
 8145W        W12196   4.802   9.311   4.102  0.0274  0.0056 -0.0551
 8146W        W12197   7.388   7.218  12.488  0.4386  0.1906  0.0806
 8147W        W12198   0.342   0.408   2.848 -0.4620  0.1311 -0.0964
 8148W        W12199   0.637   2.993   2.635 -0.0342  0.1078 -0.2370
 8149W        W12200   6.582   4.725  10.449  0.1214 -0.0482  0.0715
 8150W        W12201   3.841   3.671   9.173  0.0643  0.0058 -0.2469
 8151W        W12202   6.777   4.896  11.332  0.0308  0.1970 -0.2038
 8152W        W12203   6.389   0.624  10.654 -0.3241  0.0695  0.1760
 8153W        W12204   7.422   4.975  10.098 -0.1210  0.0118 -0.3540
 8154W        W12205   0.792   2.273   3.660  0.0154 -0.3370  0.4416
 8155W        W12206   3.685   5.403   1.708 -0.1737  0.2445 -0.0530
 8156W        W12207   7.481   6.264   5.147 -0.3811  0.1565 -0.2106
 8157W        W12208   6.308   9.757  13.272  0.2039  0.0208  0.0535
 8158W        W12209   6.676   8.540  12.630  0.1314  0.0450 -0.1920
 8159W        W12210   0.974   3.204   1.370  0.1322 -0.2032 -0.0607
 8160W        W12211   4.187   1.505   9.789 -0.0769 -0.0133 -0.0695
 8161W        W12212   7.962   1.169   0.212  0.0327  0.0412  0.0564
 8162W        W12213   2.023   4.844   4.787 -0.0883  0.0880  0.2376
 8163W        W12214   5.553   1.955  13.821  0.0300 -0.1777  0.1226
 8164W        W12215   4.940   0.491  13.168  0.0081  0.0648  0.1631
 8165W        W12216   4.959   4.016   0.304  0.2651  0.1908 -0.0281
 8166W        W12217   7.466   0.367   5.521 -0.0026  0.1199 -0.4192
 8167W        W12218   4.415   2.464   4.556 -0.0671 -0.0639  0.0938
 8168W        W12219   7.455   4.673   0.936  0.1676 -0.1867 -0.0716
 8169W        W12220   7.129   8.881  12.676  0.3778 -0.2151 -0.0039
 8170W        W12221   5.921   2.999  12.116  0.0321  0.0920 -0.1161
 8171W        W12222   3.937   4.247  11.979 -0.1205  0.3461  0.1075
 8172W        W12223   0.294   2.552   0.255 -0.1755  0.0850  0.1232
 8173W        W12224   7.605   1.830   4.849  0.1311 -0.2054  0.2752
 8174W        W12225   6.536   7.104   1.829 -0.0190 -0.0545  0.0577
 8175W        W12226   2.748   0.703   0.290 -0.0779 -0.1142 -0.1317
 8176W        W12227  10.004  10.020   5.720  0.4483  0.0267  0.0366
 8177W        W12228   1.020   7.981  12.913 -0.2617 -0.6333 -0.1721
 8178W        W12229   1.217   8.903  11.258  0.0668 -0.0750  0.0137
 8179W        W12230   5.660   4.891   3.215 -0.1091 -0.0716 -0.1015
 8180W        W12231   1.797   9.299   9.127 -0.3115  0.1861 -0.0281
 8181W        W12232   0.726   8.226   1.667  0.0947  0.1536 -0.0561
 8182W        W12233   1.172   3.525   3.947 -0.3525  0.0142  0.2423
 8183W        W12234   3.245   7.769   4.374  0.1184  0.1592 -0.0207
 8184W        W12235   2.055   1.472  11.831  0.1284 -0.2424  0.0116
 8185W        W12236   3.083   4.190  13.308  0.0178  0.3610 -0.0981
 8186W        W12237   2.885   4.440  11.157  0.2523  0.0428  0.1229
 8187W        W12238   2.355   1.411   1.910  0.1638 -0.1074 -0.3591
 8188W        W12239   8.482   5.095  11.181 -0.1717  0.1306  0.1594
 8189W        W12240   4.913   1.195   5.610  0.0641 -0.0894 -0.3598
 8190W        W12241   7.846   3.977  12.978 -0.5188 -0.0691  0.1558
 8191W        W12242   7.353   9.647  10.998 -0.2611 -0.1366  0.1736
 8192W        W12243   0.636   3.309   0.223  0.0658  0.0281 -0.2508
 8193W        W12244   0.066   9.029   3.947  0.4026 -0.0677 -0.2961
 8194W        W12245   2.464   9.858   0.386 -0.2259 -0.0464 -0.4280
 8195W        W12246   1.023   4.811  10.870 -0.2434  0.0858 -0.1305
 8196W        W12247   6.473   8.859   3.173  0.0324 -0.1677  0.0049
 8197W        W12248   0.818   8.199   3.073 -0.1626  0.1210 -0.1663
 8198W        W12249   7.101   8.657  11.766 -0.2374 -0.0689  0.1664
 8199W        W12250   8.850   5.624   0.078 -0.2983 -0.0347 -0.1042
 8200W        W12251   4.582   5.315  12.165 -0.2146 -0.1514  0.0378
 8201W        W12252   3.365   0.529   4.613 -0.0632  0.1504  0.2027
 8202W        W12253   3.943   0.935   0.650 -0.0489 -0.0317 -0.0028
 8203W        W12254   4.340   5.557   9.984  0.3855 -0.3482 -0.0843
 8204W        W12255   3.518   4.348   4.428  0.1834  0.0033 -0.1965
 8205W        W12256   2.472   1.921  12.221 -0.2290  0.2812  0.0233
 8206W        W12257   4.710   7.866  13.442 -0.0801  0.4042 -0.0370
 8207W        W12258   9.970  10.001   3.941  0.3761  0.1118 -0.1972
 8208W        W12259   2.600   2.838   1.934  0.3071  0.3198  0.0491
 8209W        W12260   5.245   9.575  10.913 -0.0655  0.0496 -0.2485
 8210W        W12261   5.614   6.234   1.354 -0.1100 -0.0023 -0.1204
 8211W        W12262   0.999   5.653   2.743 -0.1218  0.0450  0.3895
 8212W        W12263   5.045   8.127   1.359  0.0122 -0.0138 -0.1455
 8213W        W12264   9.878   7.921   0.782 -0.0149 -0.2136  0.2741
 8214W        W12265   1.105   3.155  10.165  0.1650  0.2476  0.0196
 8215W        W12266   0.666   6.129  10.826  0.0372 -0.0192 -0.2495
 8216W        W12267   8.195   7.694   3.088  0.3153  0.2550 -0.0993
 8217W        W12268   9.475   5.616   3.021  0.0686  0.1316  0.0930
 8218W        W12269   1.363   0.602  10.708  0.0178 -0.0842 -0.0718
 8219W        W12270   2.104   8.605   9.407  0.1708 -0.0512  0.0854
 8220W        W12271   8.943   5.331  13.557  0.1046 -0.1385  0.1277
 8221W        W12272   6.114   0.086   4.744  0.0166  0.1290 -0.1225
 8222W        W12273   8.288   2.771   0.609 -0.1182 -0.3008 -0.1374
 8223W        W12274   5.796   7.789   2.504 -0.1294  0.0649  0.1687
 8224W        W12275   5.712   0.013  12.908  0.0114  0.2931 -0.0466
 8225W        W12276   0.094   1.129   1.385 -0.0323  0.4143  0.0701
 8226W        W12277   9.245   5.112   3.761 -0.0238  0.0685 -0.3143
 8227W        W12278   5.654   2.996   0.068  0.2179  0.2666  0.2467
 8228W        W12279   4.136   6.172  13.419  0.0748 -0.0814  0.0175
 8229W        W12280   9.731   1.287   4.542 -0.3873 -0.0218  0.0397
 8230W        W12281   6.593   6.413  13.411 -0.0813 -0.0946 -0.3149
 8231W        W12282   5.254   7.528   0.749  0.0941 -0.2617 -0.0320
 8232W        W12283   7.566  10.056  13.624 -0.2737 -0.1384  0.0582
 8233W        W12284   3.325   3.987   0.669  0.1641  0.0401 -0.2537
 8234W        W12285   6.770   2.181   2.109 -0.1574 -0.2448  0.1653
 8235W        W12286   2.824   9.718   3.511  0.2208 -0.0992 -0.1710
 8236W        W12287   3.135   7.846  11.762  0.2951 -0.5377  0.0792
 8237W        W12288   3.668   2.358   1.092 -0.1028  0.0785  0.0272
 8238W        W12289   7.696   9.600  13.507  0.0504 -0.1541  0.1256
 8239W        W12290   8.152   1.282   3.535 -0.1666  0.0751 -0.1682
 8240W        W12291   2.013   8.359   4.079  0.2001 -0.1613  0.0494
 8241W        W12292   9.513   9.856  12.679  0.0092 -0.3375 -0.0504
 8242W        W12293   0.431   7.310   9.775 -0.0454 -0.1041 -0.0654
 8243W        W12294   6.580   2.533   4.366  0.1326 -0.6374 -0.0030
 8244W        W12295   8.245   1.327   9.801  0.1426  0.1764  0.3284
 8245W        W12296   7.075   6.245  13.182 -0.1281  0.1392  0.2791
 8246W        W12297   8.220   1.104  11.281  0.0754  0.1096  0.2426
 8247W        W12298   9.600   5.418  11.124 -0.0087  0.2442  0.0316
 8248W        W12299   7.794   2.934   1.518 -0.3048  0.2916 -0.3736
 8249W        W12300   3.722   3.931   4.215  0.2009  0.2178 -0.0485
 8250W        W12301   7.588   8.313   4.761  0.2468  0.1297  0.0003
 8251W        W12302   9.479   7.689   9.291 -0.1637 -0.1756  0.1589
 8252W        W12303   0.683   3.803  12.832 -0.2065  0.1920 -0.1125
 8253W        W12304   8.203   6.465   0.220 -0.1617 -0.2949  0.2209
 8254W        W12305   8.288   6.212   1.109  0.2385 -0.4584  0.0850
 8255W        W12306   1.656   5.616  12.815  0.1853 -0.0446  0.1111
 8256W        W12307   8.769   3.017  10.168 -0.0947 -0.0099 -0.1175
 8257W        W12308   0.871   6.749  12.306 -0.0867  0.0326 -0.0087
 8258W        W12309   6.694   1.517  10.489  0.1633  0.3049  0.0901
 8259W        W12310   2.418   3.031   9.037  0.0775  0.0671 -0.2030
 8260W        W12311   2.698   9.349  11.587  0.0684 -0.2117  0.4814
 8261W        W12312   5.776   5.448  11.852  0.1410  0.2108 -0.1975
 8262W        W12313   3.439   9.680  13.111 -0.2877 -0.1816  0.1571
 8263W        W12314   8.197   7.429   2.290  0.2517  0.0608 -0.0107
 8264W        W12315   9.615   8.989  11.810  0.1206  0.1434  0.3067
 8265W        W12316   9.233   0.059  13.425 -0.1008 -0.1851  0.3700
 8266W        W12317   9.829   3.939   1.408  0.2776 -0.2528  0.2163
 8267W        W12318   4.403   2.825   9.883 -0.3971  0.3651 -0.0581
 8268W        W12319   6.461   1.886  10.146 -0.0414 -0.1122 -0.0147
 8269W        W12320   0.688   0.584   1.749 -0.0068 -0.1352  0.1046
 8270W        W12321   1.827   3.788   9.283 -0.4355 -0.1368  0.2871
 8271W        W12322   5.855   2.815  11.044  0.3288  0.0468  0.2373
 8272W        W12323   4.336   2.438   3.736 -0.2621 -0.0706 -0.1290
 8273W        W12324   2.568   5.641   2.284  0.1278  0.2192  0.1877
 8274W        W12325   9.893   2.785  10.938 -0.0198 -0.2867 -0.1986
 8275W        W12326   4.731   5.892   2.764  0.0138 -0.0179 -0.2484
 8276W        W12327   4.896   2.413   0.618 -0.4483  0.1200 -0.0294
 8277W        W12328   6.014   7.977  13.230  0.0926 -0.0485  0.4397
 8278W        W12329   2.454   1.763   9.876 -0.0946  0.1009  0.1574
 8279W        W12330   8.782   4.872  12.715  0.0323 -0.1452  0.0774
 8280W        W12331   3.482   0.665  13.746  0.1673 -0.1319  0.5184
 8281W        W12332   8.205   4.245   4.436  0.0300  0.0722 -0.0005
 8282W        W12333   0.059   3.730  12.200 -0.3808 -0.0834  0.2706
 8283W        W12334   4.879   0.602  10.643 -0.1773 -0.1309  0.1502
 8284W        W12335   6.248   4.613   3.759 -0.1751  0.0277 -0.3042
 8285W        W12336   3.874   5.757  11.863 -0.2977 -0.1335  0.2761
 8286W        W12337   1.003   0.640   1.237 -0.1491  0.3880 -0.1448
 8287W        W12338   4.041   6.565   1.436  0.0902  0.1997  0.1527
 8288W        W12339   0.590  10.191   2.781  0.0163 -0.1337  0.0401
 8289W        W12340   5.281   8.208  10.214 -0.1622  0.0014  0.0198
 8290W        W12341  10.020   6.376  10.726 -0.0223 -0.0268  0.2377
 8291W        W12342   9.945   4.391  12.241  0.1228  0.3280 -0.2125
 8292W        W12343   3.293   0.082   2.423 -0.0244  0.2240 -0.1219
 8293W        W12344   5.801   3.507  12.239  0.1667  0.0921  0.2261
 8294W        W12345   8.876   6.659   2.248 -0.0400 -0.0917 -0.0740
 8295W        W12346   7.848   0.029   0.912  0.2590  0.0795  0.0577
 8296W        W12347   7.572   3.161   4.316  0.2287  0.1315  0.1068
 8297W        W12348   8.539   2.804  12.617 -0.0738  0.0663 -0.1741
 8298W        W12349   3.972   3.523  12.809 -0.3259 -0.2099  0.1681
 8299W        W12350   4.109   5.278   3.131  0.2709  0.0399  0.3188
 8300W        W12351   8.325   5.455  10.292 -0.2675  0.1036 -0.3060
 8301W        W12352   6.646   3.459   4.666 -0.2967  0.1627 -0.1717
 8302W        W12353   4.760   1.453  11.609  0.1418 -0.0313  0.2962
 8303W        W12354   6.198   7.113   1.467  0.4166  0.0253  0.4513
 8304W        W12355   9.732   6.109   0.159  0.4104 -0.1564 -0.2624
 8305W        W12356   8.636   3.144   0.782 -0.1919 -0.0291 -0.3906
 8306W        W12357   6.225   1.224   0.459 -0.1651  0.1387  0.0647
 8307W        W12358   0.681   6.292  12.191  0.0145  0.0989  0.1758
 8308W        W12359   1.282   6.946  12.582 -0.1698 -0.2944 -0.3109
 8309W        W12360   1.738   2.783   0.840  0.1479  0.0407  0.3920
 8310W        W12361   4.165   4.915  10.291  0.2893  0.1060  0.3424
 8311W        W12362   7.568   1.024  13.200  0.6010 -0.0150  0.2535
 8312W        W12363   2.572   7.613  10.206  0.0806  0.1786 -0.3462
 8313W        W12364   9.151   7.280  11.311 -0.1054  0.0042 -0.0260
 8314W        W12365   7.225   5.330   2.985  0.0529 -0.0654 -0.1003
 8315W        W12366   2.570   8.661   1.317 -0.1568  0.1650 -0.0504
 8316W        W12367   8.142   2.852   1.145 -0.0155  0.0697  0.1261
 8317W        W12368   4.376   9.531  12.579  0.1774  0.1308 -0.3165
 8318W        W12369   6.525   9.109   4.393 -0.1682 -0.0980  0.3041
 8319W        W12370   5.891   3.592   5.095 -0.1286 -0.2505  0.0680
 8320W        W12371   2.416   4.806   1.339  0.2301  0.2202 -0.0813
 8321W        W12372   2.655   8.219   0.330 -0.0932  0.2098  0.1680
 8322W        W12373   4.264   1.518   3.305  0.1362  0.1165  0.4834
 8323W        W12374   9.720   7.496   0.568  0.2758 -0.2595  0.3932
 8324W        W12375   4.991   1.959  13.286  0.3481 -0.2099  0.2161
 8325W        W12376   6.871   3.699  10.173  0.0662  0.1904 -0.0938
 8326W        W12377   9.853   2.702  11.484  0.0849  0.2791 -0.2168
 8327W        W12378   3.280   2.527   9.263  0.0479 -0.0485  0.1704
 8328W        W12379   7.310   7.648   2.127 -0.2932 -0.2194  0.1565
 8329W        W12380   0.656   4.250   4.341 -0.0355 -0.2646  0.1008
 8330W        W12381   8.488   9.999   0.134  0.0941  0.2005 -0.2381
 8331W        W12382   9.039   4.699  12.162  0.2286  0.1727  0.0216
 8332W        W12383   1.328   5.981  13.074 -0.1754  0.0291 -0.1765
 8333W        W12384   5.728   3.488   3.065 -0.1764  0.0614  0.3749
 8334W        W12385   3.367   1.024   2.581  0.1427  0.2831 -0.2211
 8335W        W12386   8.626   6.243  10.322 -0.0870  0.2361  0.0444
 8336W        W12387   1.912   2.203   1.906 -0.0010 -0.1622  0.0206
 8337W        W12388   4.324   6.530   0.338 -0.0839 -0.3077  0.1585
 8338W        W12389   4.538   3.113  12.150 -0.0839 -0.0081  0.0612
 8339W        W12390   9.527   1.790  13.022  0.1454 -0.5012 -0.0367
 8340W        W12391   0.864   9.780   9.953 -0.0729 -0.1344 -0.0009
 8341W        W12392   2.345   4.796  11.170 -0.2962  0.0086 -0.3362
 8342W        W12393   5.292   3.157   2.353  0.2907  0.0954 -0.3162
 8343W        W12394  10.162   9.822   9.871 -0.2642  0.1246  0.3183
 8344W        W12395   3.741   8.570  12.241 -0.1361 -0.0168 -0.0960
 8345W        W12396   7.711   0.255  11.191  0.0376  0.0564  0.0267
 8346W        W12397   2.982   3.245  11.797 -0.3172  0.1161 -0.0043
 8347W        W12398   4.900   2.764   9.771 -0.0789  0.2124  0.3000
 8348W        W12399   0.274   9.568   0.880  0.1249  0.4189 -0.1054
 8349W        W12400   7.756   9.387  11.758  0.1461  0.1782  0.1926
 8350W        W12401   6.597   9.823   2.846 -0.0248 -0.2513 -0.2167
 8351W        W12402   2.997   1.593  10.870 -0.0879  0.0564 -0.0995
 8352W        W12403   6.076   6.569   0.796 -0.1704 -0.1460  0.1473
 8353W        W12404   0.673   2.733   9.509 -0.1666 -0.3149  0.1638
 8354W        W12405   9.777   7.004  11.831 -0.1411 -0.2248  0.1258
 8355W        W12406   0.951   3.157  11.205  0.0509 -0.3482  0.1153
 8356W        W12407   1.135   5.537  11.558  0.1799  0.6326 -0.0122
 8357W        W12408   0.437   0.367  10.731 -0.0461  0.3809 -0.0555
 8358W        W12409   9.117   3.129  13.335  0.0631  0.0782  0.0698
 8359W        W12410   6.557   7.078   1.182 -0.0656 -0.2977  0.2775
 8360W        W12411   9.845   5.161   9.852  0.0352 -0.2539  0.0574
 8361W        W12412   7.455   4.033   9.644  0.2316  0.2628  0.1724
 8362W        W12413   0.737   1.021  13.928 -0.1027 -0.2935  0.3077
 8363W        W12414   1.020   7.690   1.329  0.2913  0.0698  0.0694
 8364W        W12415   2.822   7.295  13.716  0.0151 -0.1625  0.2224
 8365W        W12416   3.008   6.112   9.612  0.2891 -0.0644 -0.0189
 8366W        W12417   1.459   1.445   9.927  0.1444 -0.0151 -0.3658
 8367W        W12418   5.296   5.246   1.115 -0.1329 -0.2538 -0.0354
 8368W        W12419   2.109  10.107   9.075 -0.0058  0.3514 -0.5239
 8369W        W12420   6.148   9.508   0.872 -0.1123 -0.0995  0.0726
 8370W        W12421   7.930  10.201   4.615 -0.1530  0.3669 -0.1384
 8371W        W12422   8.825   3.066  10.630  0.0507 -0.0733 -0.0680
 8372W        W12423   8.974   6.055   0.686 -0.0518  0.2915 -0.1059
 8373W        W12424   4.473   2.197  11.605 -0.0399 -0.0621 -0.0752
 8374W        W12425   8.793   3.881  10.954  0.0963  0.1881  0.1486
 8375W        W12426   9.548   3.247   0.727 -0.0808  0.0150 -0.3242
 8376W        W12427   6.454   1.845  12.950  0.3723  0.1415  0.3960
 8377W        W12428   7.130   3.418   2.469 -0.1471 -0.3370 -0.0047
 8378W        W12429   6.839   6.358  11.436  0.0595  0.1346  0.2321
 8379W        W12430   3.720   9.113   1.973  0.3046  0.1164 -0.1979
 8380W        W12431   5.208   0.160   4.876 -0.2293 -0.3136 -0.0501
 8381W        W12432   7.905   9.491  12.230  0.0704  0.1664 -0.2826
 8382W        W12433   4.662   2.378  10.514 -0.3660  0.0414  0.2827
 8383W        W12434   8.089   1.868   4.543  0.1179 -0.2311  0.1354
 8384W        W12435   6.850   0.685  12.126 -0.0248 -0.1613 -0.1550
 8385W        W12436   5.179   1.452  12.975  0.3072 -0.3912  0.1058
 8386W        W12437   6.136   3.114   1.689  0.2165  0.1117  0.0184
 8387W        W12438   4.409   3.225   0.121 -0.0562 -0.1185  0.2125
 8388W        W12439   2.995   5.536  13.054 -0.2281  0.0900 -0.5860
 8389W        W12440  10.011   2.386   1.464  0.2504  0.2329 -0.1868
 8390W        W12441   5.022   1.817  13.778 -0.0635  0.4352  0.0120
 8391W        W12442   8.104   5.044   1.203  0.0564  0.0521  0.1017
 8392W        W12443   3.927   9.756  10.582 -0.1122 -0.2536  0.1417
 8393W        W12444   9.547   3.716   3.589  0.2746 -0.2808  0.1050
 8394W        W12445  10.120   5.228   3.452  0.2703 -0.0472 -0.3253
 8395W        W12446   0.451   5.490   3.223 -0.1150  0.0422  0.0099
 8396W        W12447   3.192   7.101   1.791 -0.0428  0.0105 -0.1383
 8397W        W12448   5.529   5.375   9.934 -0.1197 -0.2485 -0.1924
 8398W        W12449   7.651   0.345   9.974  0.0843 -0.0204 -0.1938
 8399W        W12450   5.731   8.577   4.435  0.3099  0.0770 -0.0413
 8400W        W12451   5.812   4.603   0.092 -0.0041 -0.2531  0.1113
 8401W        W12452   7.437   3.392   2.929  0.0263  0.3460 -0.2058
 8402W        W12453   2.865   9.493  12.812  0.2254 -0.0699  0.0667
 8403W        W12454   5.763   0.108   2.521  0.3645  0.1346 -0.0428
 8404W        W12455   1.999   5.627   0.664 -0.0241 -0.0396 -0.0799
 8405W        W12456   7.690   7.638  11.236  0.0891 -0.1554 -0.0439
 8406W        W12457   4.391   9.247   0.764  0.1376 -0.1086  0.1385
 8407W        W12458   9.507   1.198   1.264 -0.0858  0.0219  0.1091
 8408W        W12459   2.929   8.851  10.747  0.3607 -0.3389 -0.0227
 8409W        W12460   2.195   8.579  12.693 -0.0517  0.0062 -0.0624
 8410W        W12461   9.533   4.925   0.597 -0.1874  0.1598  0.0127
 8411W        W12462   1.538   4.933   1.800 -0.1238  0.0173  0.1170
 8412W        W12463   9.046   4.341  11.682 -0.0623 -0.0311  0.1790
 8413W        W12464   6.708   3.051   3.216  0.1622  0.0971 -0.2912
 8414W        W12465   8.339   1.204  11.792  0.1777  0.0094 -0.0335
 8415W        W12466   8.963   4.914  13.212 -0.0856  0.2787 -0.0620
 8416W        W12467   0.130   8.849  11.070 -0.1512  0.1852 -0.0014
 8417W        W12468   0.397   3.422   4.919 -0.2422  0.1818  0.2097
 8418W        W12469   3.535   6.791  10.821 -0.0762 -0.0784  0.3464
 8419W        W12470   6.709   7.285   2.389  0.2110 -0.1648  0.1566
 8420W        W12471   4.698   1.628   9.894 -0.0686 -0.0448 -0.0278
 8421W        W12472   1.280   5.538   5.464 -0.5870  0.3389 -0.1551
 8422W        W12473   0.934   2.595  11.061 -0.3307  0.1249 -0.2533
 8423W        W12474   0.526   6.245   5.581 -0.4043  0.2225  0.1781
 8424W        W12475   3.323   8.344   2.602  0.1688 -0.2272 -0.0705
 8425W        W12476   3.621   7.007  13.717  0.0283  0.0241 -0.2475
 8426W        W12477   3.533   9.640   9.577 -0.0647 -0.1181  0.1969
 8427W        W12478   6.373   6.087   4.360  0.0297 -0.2389  0.2357
 8428W        W12479   7.347   2.290  11.710 -0.2538 -0.0287 -0.0746
 8429W        W12480   6.987   3.518   4.181 -0.3002  0.0855  0.0599
 8430W        W12481   8.227   2.063   2.210 -0.0596  0.0220  0.2265
 8431W        W12482   7.490   7.771   1.202 -0.1287 -0.0514 -0.2049
 8432W        W12483   3.015   7.467   2.228  0.1090 -0.1320  0.1569
 8433W        W12484   5.907   4.893  12.276 -0.0495 -0.1424  0.3297
 8434W        W12485   3.427   4.416  13.540 -0.0689 -0.2988 -0.1090
 8435W        W12486   0.480   6.537   0.980  0.0857  0.0709 -0.1962
 8436W        W12487   9.274   5.147  12.756 -0.0251 -0.0382 -0.0643
 8437W        W12488   3.589   9.755  11.663 -0.0047 -0.2726 -0.0295
 8438W        W12489   1.122   9.699   5.223 -0.0969 -0.2451 -0.0294
 8439W        W12490   4.826   6.134  11.074  0.1610  0.0636 -0.4283
 8440W        W12491   0.031   8.019   1.498 -0.3573  0.4384  0.3881
 8441W        W12492   4.302   8.619   1.587 -0.0263 -0.1520 -0.0095
 8442W        W12493   0.689   3.250  13.216 -0.4314 -0.0789  0.0335
 8443W        W12494  10.190   6.026   8.794 -0.1065 -0.2544 -0.1584
 8444W        W12495   8.520   0.716  13.793  0.1987  0.0167  0.0729
 8445W        W12496   9.849   8.370   1.474  0.0490 -0.2170 -0.0998
 8446W        W12497   1.754   3.626  12.845 -0.1794 -0.1628  0.0800
 8447W        W12498   4.998   4.959  11.903  0.0720  0.4143  0.0384
 8448ION    NA+12499   8.922   4.275   9.500 -0.0257 -0.1424  0.0276
 8449ION    NA+12500   1.051   0.216   3.850  0.1151  0.1325  0.2448
 8450ION    NA+12501   8.863   3.563   5.170 -0.3087 -0.4124 -0.0550
 8451ION    NA+12502   5.757   7.972   0.568 -0.3080 -0.0817 -0.0902
 8452ION    NA+12503   5.549   5.622  10.797 -0.0401  0.0790  0.0169
 8453ION    NA+12504   5.392   3.858  10.441 -0.0357 -0.0296 -0.0781
 8454ION    NA+12505   5.263   1.120   9.363 -0.0262  0.2581 -0.3461
 8455ION    NA+12506   5.366   1.919   4.181 -0.0090  0.0354 -0.1704
 8456ION    NA+12507   4.664   5.740  13.316  0.1144  0.1442 -0.1259
 8457ION    NA+12508   4.888   4.177   9.647 -0.0494  0.3126 -0.1554
 8458ION    NA+12509   0.741   2.963  12.474 -0.0404  0.1025  0.1241
 8459ION    NA+12510   4.964   6.065  11.623  0.0123 -0.1423 -0.0499
 8460ION    NA+12511   7.375   6.756   4.366  0.1439  0.0440 -0.2052
 8461ION    NA+12512   4.325   8.365  11.010 -0.2400  0.2173 -0.2160
 8462ION    NA+12513   0.777   1.432   1.991 -0.0157 -0.2602 -0.1344
 8463ION    NA+12514   6.453   4.420  12.263 -0.0450 -0.1516 -0.0392
 8464ION    NA+12515   7.096   2.463  11.223  0.1147  0.1806 -0.5055
 8465ION    NA+12516   4.218   6.526  10.099  0.0142 -0.1353 -0.0980
 8466ION    NA+12517   0.982   4.540   4.018 -0.1798 -0.1457 -0.3504
 8467ION    NA+12518   8.496   1.219  10.310 -0.0545 -0.2954  0.0895
 8468ION    NA+12519   7.367   5.806  11.229  0.1124 -0.1262 -0.1436
 8469ION    NA+12520   1.820   2.664  10.772 -0.2597  0.0988 -0.0957
 8470ION    NA+12521   6.564   8.665   4.961 -0.1619 -0.0993  0.1377
 8471ION    NA+12522   6.088   2.129  13.786 -0.2389  0.2845  0.1828
 8472ION    NA+12523   7.020   6.350   9.983 -0.3554 -0.0757  0.1669
 8473ION    NA+12524   8.302   9.543   0.302 -0.1767  0.0244  0.0261
 8474ION    NA+12525   4.528   4.711   4.385  0.0796  0.2401 -0.0915
 8475ION    NA+12526   9.952   7.382   3.468 -0.1925  0.0205  0.0744
 8476ION    NA+12527   1.168   8.838   3.307  0.2187  0.0346 -0.0244
 8477ION    NA+12528   1.740   3.823  10.848 -0.2715  0.3330  0.0481
 8478ION    NA+12529   1.418   7.473   3.557 -0.0987 -0.2162  0.2726
 8479ION    NA+12530   2.765   8.628  12.305 -0.0830 -0.0700  0.1373
 8480ION    NA+12531   4.887   0.559   8.826 -0.1049  0.0235 -0.0488
 8481ION    NA+12532   4.032   4.347  12.885  0.2556  0.3751  0.1214
 8482ION    NA+12533   0.201   1.005   5.206 -0.0488 -0.1720 -0.1878
 8483ION    NA+12534   0.921   6.986   2.191 -0.1190 -0.1965 -0.2730
 8484ION    NA+12535   0.547   7.690  12.499  0.5301  0.4401  0.1223
 8485ION    NA+12536   5.068   8.439   9.742  0.0986  0.0084 -0.1499
 8486ION    NA+12537   2.501   8.175   9.384  0.3345 -0.2117 -0.1099
 8487ION    NA+12538   1.865  10.076  11.461  0.0408 -0.3411 -0.0730
 8488ION    NA+12539   6.085   7.055  10.237  0.1594  0.1373 -0.0025
 8489ION    NA+12540   8.313   2.835  11.762 -0.0094  0.2442  0.1648
 8490ION    NA+12541  10.170   1.728  13.912  0.2587 -0.0470  0.0146
 8491ION    NA+12542   2.060   1.439   0.426  0.2720 -0.2178 -0.1128
 8492ION    NA+12543   1.861   4.763  12.711  0.1496 -0.2595  0.0128
 8493ION    NA+12544   0.803   2.296   1.761  0.0113  0.3786  0.2762
 8494ION    NA+12545   8.156   9.617  11.077  0.1893  0.1694 -0.1807
 8495ION    NA+12546   0.436   9.569   9.847 -0.1733 -0.1107 -0.1033
 8496ION    NA+12547   3.801   9.645  11.200 -0.0257  0.0109  0.0343
 8497ION    NA+12548   7.273   5.820   4.122 -0.0290 -0.1807 -0.1371
 8498ION    NA+12549   2.390   1.279   5.029  0.0626  0.1328 -0.1185
 8499ION    NA+12550   9.807   5.196   5.154  0.2968 -0.1433  0.1919
 8500ION    NA+12551   8.039   9.499   8.971 -0.2737  0.1487 -0.2772
 8501ION    NA+12552   6.463   0.385  12.951 -0.4435 -0.0581  0.0131
 8502ION    NA+12553   1.335   0.230  10.392 -0.0164  0.0034 -0.0201
 8503ION    NA+12554   0.389   5.667   5.567  0.1741  0.1715  0.1150
 8504ION    NA+12555   3.222   4.916   9.600  0.1204 -0.2132 -0.1073
 8505ION    NA+12556   8.130   7.841   9.810  0.4173 -0.0034  0.1130
 8506ION    NA+12557   7.069  10.183  13.457  0.1598 -0.2700  0.3515
 8507ION    NA+12558   8.446   2.689  11.297  0.1772  0.3509 -0.2989
 8508ION    NA+12559   0.053   8.872  10.593  0.1421 -0.2545 -0.0332
 8509ION    NA+12560   8.777   3.278   1.834 -0.1275  0.0227 -0.0408
 8510ION    NA+12561   5.190   4.062  12.589  0.3414  0.1018 -0.2200
 8511ION    NA+12562   9.601   7.604   2.038 -0.0816  0.2475 -0.0887
 8512ION    NA+12563   4.881   5.973   9.803  0.0757  0.0870  0.2583
 8513ION    NA+12564   9.728   7.901   1.359  0.1604  0.0748  0.1994
 8514ION    NA+12565   9.168   2.582   9.212  0.0355 -0.1281 -0.1008
 8515ION    NA+12566   4.786   0.876   3.793 -0.2644  0.0535  0.1953
 8516ION    NA+12567   9.274   5.650   9.126  0.0803  0.0602 -0.2724
 8517ION    NA+12568   8.409   8.528  10.604  0.1448 -0.5055  0.0202
 8518ION    NA+12569   8.746   1.850   1.976  0.1203 -0.0177 -0.0789
 8519ION    NA+12570   0.437   4.094  11.664 -0.2399 -0.1606  0.2132
 8520ION    NA+12571   5.419   0.403  12.851  0.1589  0.0124 -0.1886
 8521ION    NA+12572   4.500   8.859   4.435 -0.0542 -0.1715  0.0094
 8522ION    NA+12573   2.310   3.980   9.983  0.0623 -0.0377  0.3396
 8523ION    NA+12574   2.901   2.349   5.382  0.2493  0.0620 -0.0254
 8524ION    NA+12575   4.917   3.238   1.030 -0.1462 -0.1006  0.0121
 8525ION    NA+12576   8.380   3.009  10.850  0.0961  0.0856 -0.1495
 8526ION    NA+12577   7.349   7.985   9.418 -0.2510 -0.2021  0.0567
 8527ION    NA+12578  10.046   5.237   0.660  0.0284  0.1313 -0.0436
 8528ION    NA+12579   5.407   2.945  10.176 -0.1700 -0.2704 -0.3784
 8529ION    NA+12580   5.519   8.665  10.946  0.3513 -0.0031  0.0601
 8530ION    NA+12581   4.459   3.610  11.411 -0.2826 -0.0232 -0.2316
 8531ION    NA+12582   0.796   0.234   5.257 -0.0734  0.0220 -0.0381
 8532ION    NA+12583   1.006   3.653   5.763  0.1760 -0.1340  0.2348
 8533ION    NA+12584   3.116   9.094  11.444  0.0612 -0.2190  0.0194
 8534ION    NA+12585   8.772   7.564   4.879 -0.0039  0.3132  0.1405
 8535ION    NA+12586   7.581   3.770   0.129 -0.0670  0.0019 -0.6245
 8536ION    NA+12587   2.302   6.270  11.312  0.0917 -0.0282 -0.1268
 8537ION    CL-12588   5.574   7.802   0.129 -0.1572  0.2623 -0.1307
 8538ION    CL-12589   4.543   4.534   9.747 -0.1282  0.0428 -0.2856
 8539ION    CL-12590   8.043   3.392   1.734 -0.2268  0.0515 -0.0157
 8540ION    CL-12591   1.100   4.046   3.776 -0.2007  0.1440 -0.0203
 8541ION    CL-12592   8.905   1.776   2.468  0.0223  0.2981 -0.1270
 8542ION    CL-12593   8.168   5.717   4.604  0.0605 -0.2291  0.0006
 8543ION    CL-12594   1.806   6.962   4.124 -0.0868 -0.2286  0.0434
 8544ION    CL-12595   1.244   9.624   4.246 -0.3564 -0.0514 -0.1278
 8545ION    CL-12596   2.151   4.093  10.423  0.0655  0.1306 -0.1718
 8546ION    CL-12597   3.907   9.474   2.283  0.2372 -0.2079  0.0753
 8547ION    CL-12598   1.943   2.506   4.575 -0.3321  0.1665  0.0959
 8548ION    CL-12599   4.342   6.065   9.937 -0.2157 -0.0064 -0.2269
 8549ION    CL-12600   5.390   3.396   0.957  0.2066  0.0688 -0.3306
 8550ION    CL-12601   7.409   2.732   4.591 -0.1546  0.3592  0.2553
 8551ION    CL-12602   6.715   4.121  12.534  0.1314 -0.0837 -0.0937
 8552ION    CL-12603   8.361   8.754  10.030 -0.0452 -0.0527 -0.1771
 8553ION    CL-12604   4.685   5.682  11.351 -0.0421  0.3646 -0.6153
 8554ION    CL-12605   1.858   9.516   9.912 -0.3235 -0.0140  0.2180
 8555ION    CL-12606   9.165   3.290  11.451  0.2643 -0.0932  0.2004
 8556ION    CL-12607   9.384   5.405  10.122  0.4441 -0.1341  0.0427
 8557ION    CL-12608   6.177   1.657  13.569 -0.0601  0.1221  0.2656
 8558ION    CL-12609   3.025   9.479  13.366 -0.0755 -0.1448  0.3321
 8559ION    CL-12610   5.278   6.266  10.892 -0.3577  0.1596 -0.1626
 8560ION    CL-12611   1.261   4.159   9.968  0.1284 -0.1974  0.0252
 8561ION    CL-12612   3.054   1.827   0.982 -0.1557 -0.1650 -0.1130
 8562ION    CL-12613   8.475   8.246   1.928 -0.3946 -0.2066 -0.0794
 8563ION    CL-12614   3.513   3.368  11.018 -0.2152 -0.2314 -0.1943
 8564ION    CL-12615   1.357   5.433   9.861  0.0881 -0.1489  0.4462
 8565ION    CL-12616   8.120   0.558   5.680  0.1466  0.1367 -0.3472
 8566ION    CL-12617   1.808   6.126  10.906  0.1569 -0.0274  0.1528
 8567ION    CL-12618   9.663   5.413   0.295 -0.1209  0.0685  0.1685
 8568ION    CL-12619   1.474  10.114   4.133 -0.4739  0.4691  0.3074
 8569ION    CL-12620   4.297   4.686  13.218  0.1947  0.2129  0.1341
 8570ION    CL-12621   5.043   7.565  11.822  0.2261  0.3429 -0.1382
 8571ION    CL-12622   0.157   0.866   4.693 -0.1123  0.0192  0.0531
 8572ION    CL-12623   0.574   3.745  12.030  0.0443  0.2353  0.2169
 8573ION    CL-12624   5.712   0.658  13.197 -0.1780  0.0546  0.1244
 8574ION    CL-12625   4.429   8.016  10.684  0.2128 -0.0661  0.1530
 8575ION    CL-12626   8.291   6.354   9.708  0.3792 -0.0529 -0.4410
 8576ION    CL-12627   5.133   5.967  12.083  0.0878  0.0108  0.3302
 8577ION    CL-12628   3.392   8.990  10.970 -0.1396  0.0640 -0.1614
 8578ION    CL-12629   7.504   1.846   1.435  0.2626 -0.2586 -0.0002
 8579ION    CL-12630   3.574   4.657  10.381  0.1607 -0.0890 -0.0615
 8580ION    CL-12631   9.833   8.627  10.591 -0.0907  0.4025  0.2759
 8581ION    CL-12632   2.800   9.452  10.007  0.0427  0.2144 -0.2283
 8582ION    CL-12633   8.002   2.915  11.206 -0.1097 -0.2153  0.1764
 8583ION    CL-12634   2.274   2.567  11.098  0.3181 -0.1905  0.0166
 8584ION    CL-12635   9.642   8.015   1.827  0.0915  0.4294 -0.0617
 8585ION    CL-12636   1.500   8.940   3.615 -0.1424  0.3387 -0.1275
 8586ION    CL-12637   9.671   6.219   4.716  0.0700 -0.0926  0.0430
 8587ION    CL-12638   0.650  10.179   3.648  0.1390  0.3628 -0.0430
 8588ION    CL-12639   5.467   0.964  12.585  0.0685 -0.0044  0.1272
 8589ION    CL-12640  10.056   1.217  13.558  0.0617  0.1715  0.0900
 8590ION    CL-12641   2.602   8.892   3.345 -0.3217  0.0006 -0.0481
 8591ION    CL-12642   4.691   4.383   2.189  0.1645 -0.0347 -0.1135
 8592ION    CL-12643   1.931   1.038   3.844  0.3349  0.0862  0.1362
 8593ION    CL-12644   9.730   7.702   3.852  0.1804  0.0160  0.3957
 8594ION    CL-12645   5.341   0.987   1.580 -0.1679 -0.2219 -0.0086
 8595ION    CL-12646   0.632   1.864   1.907 -0.1502  0.2512  0.1958
 8596ION    CL-12647   9.921   3.981  11.938  0.0434  0.0889  0.2317
 8597ION    CL-12648   0.915   2.802  12.924  0.1089 -0.4106 -0.0757
 8598ION    CL-12649   2.456   2.372   9.440  0.0259  0.1811 -0.3174
 8599ION    CL-12650   1.501   9.718  11.648 -0.1156  0.3270 -0.2684
 8600ION    CL-12651   7.863   5.877  11.291  0.1474 -0.0038 -0.1044
 8601ION    CL-12652   8.609   2.507  10.872 -0.2445  0.0736 -0.3545
 8602ION    CL-12653   5.110   3.518  10.113  0.1463  0.0880  0.0813
 8603ION    CL-12654   7.667   5.398  11.187  0.2014  0.3023  0.1064
 8604ION    CL-12655   4.427   1.162   3.585 -0.1603  0.3315 -0.3772
 8605ION    CL-12656   8.199   9.600  11.578 -0.2676 -0.1372  0.0825
 8606ION    CL-12657   1.864   4.156  12.787 -0.0503 -0.1460 -0.4857
 8607ION    CL-12658   0.681   6.995   2.624  0.0510 -0.0212  0.1544
 8608ION    CL-12659   1.624   5.445   4.369  0.0023 -0.2304  0.0494
 8609ION    CL-12660   6.780   6.406   0.218 -0.1283  0.3058 -0.4104
 8610ION    CL-12661   8.146   1.626  10.134 -0.4025 -0.0056 -0.1151
 8611ION    CL-12662   9.711   4.542   9.846  0.0718 -0.2233  0.0594
 8612ION    CL-12663   8.707   1.469   9.649 -0.1411  0.0434 -0.1795
 8613ION    CL-12664   9.424   0.886   9.916  0.3591  0.3710 -0.2415
 8614ION    CL-12665   3.240   8.627  12.288 -0.2060 -0.0003 -0.1009
 8615ION    CL-12666   1.463   4.398  10.927 -0.1656  0.1552  0.1687
 8616ION    CL-12667   4.964   5.797  12.952 -0.1791 -0.0224 -0.2171
 8617ION    CL-12668   5.687   8.197  10.607 -0.0161 -0.0729 -0.2696
 8618ION    CL-12669   6.656   7.969  10.517  0.0581  0.2221  0.0327
 8619ION    CL-12670   0.358   5.625  11.018  0.2398 -0.1730  0.0637
 8620ION    CL-12671   8.456   8.190  10.240 -0.2337  0.0735 -0.0750
 8621ION    CL-12672   0.197   9.402  10.363  0.2626 -0.0370 -0.1031
 8622ION    CL-12673   1.730  10.069   2.054 -0.0845  0.1563 -0.1121
 8623ION    CL-12674   0.795   8.815   2.893 -0.0191  0.0800 -0.1098
 8624ION    CL-12675   9.127   4.636   4.642 -0.2646  0.2588  0.0181
 8625ION    CL-12676   3.101   9.559  11.765 -0.0027  0.0251  0.1827
  10.20801  10.20801  13.92853
