Protein in INSANE! Membrane UpperLeaflet>POPC=1.0 LowerLeaflet>POPC=1.0
12914
    1AU     AUC    1   5.745   5.828   6.009
    1AU     AUC    2   6.012   5.845   5.828
    1AU     AUC    3   6.018   5.827   6.176
    1AU     AUC    4   5.459   5.815   5.841
    1AU     AUC    5   5.493   5.858   6.200
    1AU     AUC    6   5.564   6.096   6.011
    1AU     AUC    7   5.933   6.106   5.996
    1AU     AUC    8   5.563   5.562   6.016
    1AU     AUC    9   5.910   5.545   6.009
    1AU     AUC   10   5.755   5.662   6.290
    1AU     AUC   11   5.743   5.999   6.277
    1AU     AUC   12   5.733   5.661   5.734
    1AU     AUC   13   5.752   5.977   5.732
    1AU     AUC   14   6.322   5.850   5.647
    1AU     AUC   15   6.355   5.805   6.006
    1AU     AUC   16   6.310   5.811   6.348
    1AU     AUC   17   5.152   5.799   5.669
    1AU     AUC   18   5.134   5.847   6.032
    1AU     AUC   19   5.191   5.874   6.394
    1AU     AUC   20   5.389   6.404   5.996
    1AU     AUC   21   5.744   6.431   5.967
    1AU     AUC   22   6.122   6.392   5.981
    1AU     AUC   23   5.357   5.271   6.026
    1AU     AUC   24   5.719   5.229   6.004
    1AU     AUC   25   6.076   5.245   5.996
    1AU     AUC   26   5.744   5.491   6.585
    1AU     AUC   27   5.785   5.860   6.626
    1AU     AUC   28   5.770   6.191   6.562
    1AU     AUC   29   5.760   5.479   5.457
    1AU     AUC   30   5.740   5.817   5.393
    1AU     AUC   31   5.724   6.144   5.428
    1AU     AUC   32   6.039   5.645   6.504
    1AU     AUC   33   6.071   6.013   6.489
    1AU     AUC   34   6.064   5.692   5.490
    1AU     AUC   35   6.052   6.010   5.526
    1AU     AUC   36   5.449   5.687   6.529
    1AU     AUC   37   5.470   6.043   6.506
    1AU     AUC   38   5.437   5.623   5.548
    1AU     AUC   39   5.410   5.949   5.501
    1AU     AUC   40   6.277   6.116   5.844
    1AU     AUC   41   6.251   6.120   6.170
    1AU     AUC   42   5.254   6.112   5.829
    1AU     AUC   43   5.259   6.162   6.197
    1AU     AUC   44   6.211   5.535   5.824
    1AU     AUC   45   6.194   5.483   6.190
    1AU     AUC   46   5.227   5.502   5.859
    1AU     AUC   47   5.289   5.564   6.215
    1AU     AUC   48   5.561   6.356   6.283
    1AU     AUC   49   5.929   6.309   6.250
    1AU     AUC   50   5.544   5.360   6.311
    1AU     AUC   51   5.888   5.320   6.292
    1AU     AUC   52   5.561   6.255   5.695
    1AU     AUC   53   5.943   6.305   5.699
    1AU     AUC   54   5.552   5.343   5.722
    1AU     AUC   55   5.944   5.373   5.710
    1AU    AUSL   56   6.329   5.783   6.697
    1AU    AUSL   57   6.045   5.335   6.684
    1AU     AUL   58   6.368   5.371   6.836
    1AU       S   59   6.372   4.938   6.674
    1AU     LIG   60   6.221   4.723   6.972
    1AU     LIG   61   6.390   4.382   7.181
    1AU     LIG   62   6.639   4.129   7.445
    1AU     LIG   63   6.854   3.966   7.814
    1AU     LIG   64   6.905   3.653   8.151
    1AU       S   65   6.590   5.762   6.761
    1AU     LIG   66   6.563   5.671   7.226
    1AU     LIG   67   6.633   5.480   7.672
    1AU     LIG   68   6.872   5.397   8.090
    1AU     LIG   69   7.231   5.491   8.412
    1AU     LIG   70   7.511   5.610   8.784
    1AU    AUSL   71   5.945   5.691   6.901
    1AU    AUSL   72   5.641   6.017   6.926
    1AU     AUL   73   5.855   5.994   7.248
    1AU       S   74   6.086   5.642   7.068
    1AU     LIG   75   5.941   5.458   7.430
    1AU     LIG   76   6.173   5.255   7.801
    1AU     LIG   77   6.426   5.079   8.175
    1AU     LIG   78   6.442   4.869   8.614
    1AU     LIG   79   6.467   4.884   9.087
    1AU       S   80   5.484   5.737   7.176
    1AU     LIG   81   5.483   5.610   7.638
    1AU     LIG   82   5.186   5.635   7.998
    1AU     LIG   83   5.017   5.707   8.429
    1AU     LIG   84   5.093   5.984   8.823
    1AU     LIG   85   5.052   6.066   9.285
    1AU    AUSL   86   6.047   6.118   6.843
    1AU    AUSL   87   6.405   6.189   6.567
    1AU     AUL   88   6.331   6.068   6.976
    1AU       S   89   5.918   6.407   6.970
    1AU     LIG   90   6.163   6.386   7.355
    1AU     LIG   91   6.366   6.479   7.788
    1AU     LIG   92   6.346   6.519   8.286
    1AU     LIG   93   6.383   6.667   8.746
    1AU     LIG   94   6.672   6.723   9.111
    1AU       S   95   6.457   6.452   6.744
    1AU     LIG   96   6.844   6.238   6.819
    1AU     LIG   97   7.163   6.397   7.146
    1AU     LIG   98   7.441   6.608   7.478
    1AU     LIG   99   7.740   6.735   7.832
    1AU     LIG  100   8.186   6.832   7.998
    1AU    AUSL  101   6.269   5.986   5.240
    1AU    AUSL  102   6.038   6.288   5.473
    1AU     AUL  103   6.136   6.370   5.121
    1AU       S  104   6.222   6.033   4.820
    1AU     LIG  105   6.607   5.898   4.620
    1AU     LIG  106   6.714   5.624   4.269
    1AU     LIG  107   6.840   5.503   3.833
    1AU     LIG  108   7.213   5.415   3.538
    1AU     LIG  109   7.636   5.465   3.308
    1AU       S  110   6.505   6.530   5.361
    1AU     LIG  111   6.646   6.679   4.933
    1AU     LIG  112   6.896   6.782   4.517
    1AU     LIG  113   7.179   6.927   4.163
    1AU     LIG  114   7.468   7.059   3.803
    1AU     LIG  115   7.767   7.332   3.541
    1AU    AUSL  116   6.046   5.636   5.101
    1AU    AUSL  117   6.406   5.608   5.409
    1AU     AUL  118   6.454   5.730   5.104
    1AU       S  119   6.578   5.281   5.180
    1AU     LIG  120   6.700   4.857   4.943
    1AU     LIG  121   6.926   4.454   4.848
    1AU     LIG  122   7.205   4.198   4.577
    1AU     LIG  123   7.524   4.281   4.226
    1AU     LIG  124   7.986   4.377   4.113
    1AU       S  125   6.127   5.869   4.786
    1AU     LIG  126   6.267   5.499   4.594
    1AU     LIG  127   6.345   5.278   4.171
    1AU     LIG  128   6.399   5.254   3.693
    1AU     LIG  129   6.523   5.108   3.245
    1AU     LIG  130   6.746   4.957   2.837
    1AU    AUSL  131   5.837   6.013   5.198
    1AU    AUSL  132   5.631   5.611   5.235
    1AU     AUL  133   5.784   5.616   4.954
    1AU       S  134   5.352   5.637   4.795
    1AU     LIG  135   5.436   5.463   4.406
    1AU     LIG  136   5.182   5.208   4.108
    1AU     LIG  137   4.951   5.154   3.704
    1AU     LIG  138   4.954   4.962   3.266
    1AU     LIG  139   4.924   4.969   2.791
    1AU       S  140   5.883   6.068   4.856
    1AU     LIG  141   5.922   5.900   4.357
    1AU     LIG  142   6.268   5.768   4.029
    1AU     LIG  143   6.442   5.754   3.576
    1AU     LIG  144   6.497   5.835   3.112
    1AU     LIG  145   6.475   6.111   2.732
    1AU    AUSL  146   5.239   5.934   6.787
    1AU    AUSL  147   5.517   6.282   6.618
    1AU     AUL  148   5.391   6.235   6.972
    1AU       S  149   5.304   5.857   7.244
    1AU     LIG  150   4.990   5.618   7.459
    1AU     LIG  151   4.728   5.475   7.828
    1AU     LIG  152   4.557   5.461   8.264
    1AU     LIG  153   4.174   5.389   8.535
    1AU     LIG  154   3.863   5.567   8.849
    1AU       S  155   5.069   6.519   6.745
    1AU     LIG  156   5.125   6.678   7.160
    1AU     LIG  157   4.965   6.931   7.529
    1AU     LIG  158   4.834   7.298   7.801
    1AU     LIG  159   4.666   7.421   8.236
    1AU     LIG  160   4.545   7.615   8.664
    1AU    AUSL  161   5.561   5.645   6.705
    1AU    AUSL  162   5.093   5.565   6.613
    1AU     AUL  163   5.119   5.633   6.883
    1AU       S  164   4.921   5.203   6.753
    1AU     LIG  165   4.506   5.031   6.674
    1AU     LIG  166   4.172   4.780   6.883
    1AU     LIG  167   3.965   4.567   7.246
    1AU     LIG  168   3.771   4.338   7.608
    1AU     LIG  169   3.399   4.304   7.911
    1AU       S  170   5.537   5.565   7.089
    1AU     LIG  171   5.320   5.255   7.302
    1AU     LIG  172   5.156   5.188   7.739
    1AU     LIG  173   4.986   5.177   8.187
    1AU     LIG  174   4.868   4.978   8.604
    1AU     LIG  175   4.918   4.937   9.075
    1AU    AUSL  176   5.201   5.665   5.280
    1AU    AUSL  177   5.421   5.313   5.459
    1AU     AUL  178   5.448   5.315   5.134
    1AU       S  179   5.182   5.578   4.856
    1AU     LIG  180   4.924   5.538   4.488
    1AU     LIG  181   4.718   5.434   4.093
    1AU     LIG  182   4.565   5.560   3.684
    1AU     LIG  183   4.216   5.611   3.368
    1AU     LIG  184   3.902   5.645   3.002
    1AU       S  185   5.040   5.164   5.295
    1AU     LIG  186   4.767   4.826   5.118
    1AU     LIG  187   4.488   4.517   4.919
    1AU     LIG  188   4.316   4.232   4.591
    1AU     LIG  189   4.220   4.076   4.150
    1AU     LIG  190   4.272   3.864   3.730
    1AU    AUSL  191   5.425   5.991   5.100
    1AU    AUSL  192   5.074   6.069   5.411
    1AU     AUL  193   4.993   5.889   5.132
    1AU       S  194   5.090   6.334   5.174
    1AU     LIG  195   4.716   6.462   5.039
    1AU     LIG  196   4.593   6.702   4.666
    1AU     LIG  197   4.343   6.814   4.276
    1AU     LIG  198   3.963   6.902   3.985
    1AU     LIG  199   3.677   7.160   3.706
    1AU       S  200   5.401   5.918   4.876
    1AU     LIG  201   5.223   5.970   4.449
    1AU     LIG  202   5.154   5.725   4.055
    1AU     LIG  203   5.064   5.667   3.609
    1AU     LIG  204   5.088   5.843   3.165
    1AU     LIG  205   4.909   5.987   2.747
    1AU    AUSL  206   6.561   6.293   6.002
    1AU    AUSL  207   6.429   6.122   5.610
    1AU     AUL  208   6.830   6.333   5.740
    1AU       S  209   6.517   6.338   5.413
    1AU     LIG  210   6.716   6.181   5.049
    1AU     LIG  211   7.057   6.365   4.773
    1AU     LIG  212   7.392   6.635   4.546
    1AU     LIG  213   7.687   6.859   4.246
    1AU     LIG  214   7.967   7.128   3.978
    1AU       S  215   7.014   6.189   6.156
    1AU     LIG  216   7.440   6.373   6.141
    1AU     LIG  217   7.895   6.446   6.034
    1AU     LIG  218   8.315   6.622   6.039
    1AU     LIG  219   8.595   6.938   6.198
    1AU     LIG  220   8.729   7.318   6.433
    1AU    AUSL  221   6.713   5.902   5.846
    1AU    AUSL  222   6.677   5.568   6.164
    1AU     AUL  223   6.973   5.620   5.902
    1AU       S  224   6.940   6.021   6.119
    1AU     LIG  225   7.362   5.945   5.881
    1AU     LIG  226   7.835   5.993   5.806
    1AU     LIG  227   8.286   6.167   5.751
    1AU     LIG  228   8.722   6.282   5.536
    1AU     LIG  229   9.101   6.362   5.279
    1AU       S  230   6.898   5.200   6.118
    1AU     LIG  231   7.255   5.015   6.325
    1AU     LIG  232   7.704   4.851   6.294
    1AU     LIG  233   8.174   4.713   6.286
    1AU     LIG  234   8.662   4.809   6.329
    1AU     LIG  235   9.136   4.741   6.464
    1AU    AUSL  236   6.472   5.937   6.233
    1AU    AUSL  237   6.317   6.520   6.275
    1AU     AUL  238   6.617   6.348   6.321
    1AU       S  239   6.522   6.720   6.598
    1AU     LIG  240   6.890   6.754   6.878
    1AU     LIG  241   7.200   6.965   7.171
    1AU     LIG  242   7.379   7.388   7.339
    1AU     LIG  243   7.547   7.856   7.369
    1AU     LIG  244   7.909   8.126   7.541
    1AU       S  245   6.845   5.948   6.373
    1AU     LIG  246   7.330   5.956   6.458
    1AU     LIG  247   7.792   6.025   6.322
    1AU     LIG  248   8.265   6.169   6.298
    1AU     LIG  249   8.616   6.471   6.493
    1AU     LIG  250   9.034   6.607   6.686
    1AU    AUSL  251   5.052   6.377   6.038
    1AU    AUSL  252   5.139   6.153   6.432
    1AU     AUL  253   4.815   6.471   6.283
    1AU       S  254   4.993   6.302   6.673
    1AU     LIG  255   4.903   6.198   7.115
    1AU     LIG  256   4.713   6.474   7.461
    1AU     LIG  257   4.409   6.680   7.784
    1AU     LIG  258   4.053   6.774   8.106
    1AU     LIG  259   3.693   6.985   8.343
    1AU       S  260   5.046   6.759   5.963
    1AU     LIG  261   4.605   6.698   5.853
    1AU     LIG  262   4.190   6.952   5.881
    1AU     LIG  263   3.818   7.271   5.935
    1AU     LIG  264   3.396   7.521   5.934
    1AU     LIG  265   2.992   7.788   5.939
    1AU    AUSL  266   5.027   5.999   5.824
    1AU    AUSL  267   5.163   6.447   5.633
    1AU     AUL  268   4.864   6.305   5.659
    1AU       S  269   4.665   5.850   5.486
    1AU     LIG  270   4.329   6.180   5.526
    1AU     LIG  271   3.874   6.281   5.349
    1AU     LIG  272   3.385   6.246   5.424
    1AU     LIG  273   2.980   6.505   5.376
    1AU     LIG  274   2.614   6.695   5.141
    1AU       S  275   4.968   6.717   5.415
    1AU     LIG  276   4.967   6.948   4.995
    1AU     LIG  277   4.946   7.391   4.768
    1AU     LIG  278   4.819   7.872   4.676
    1AU     LIG  279   4.488   8.232   4.566
    1AU     LIG  280   4.088   8.527   4.514
    1AU    AUSL  281   4.798   6.022   6.219
    1AU    AUSL  282   4.772   5.670   5.899
    1AU     AUL  283   4.635   6.011   5.936
    1AU       S  284   4.503   5.581   6.107
    1AU     LIG  285   4.276   5.512   5.724
    1AU     LIG  286   3.893   5.272   5.647
    1AU     LIG  287   3.432   5.179   5.611
    1AU     LIG  288   2.955   5.140   5.720
    1AU     LIG  289   2.513   5.055   5.560
    1AU       S  290   4.687   5.975   6.446
    1AU     LIG  291   4.209   6.059   6.427
    1AU     LIG  292   3.772   6.178   6.660
    1AU     LIG  293   3.389   6.464   6.777
    1AU     LIG  294   2.899   6.431   6.747
    1AU     LIG  295   2.430   6.550   6.642
    1AU    AUSL  296   6.415   5.244   6.028
    1AU    AUSL  297   6.299   5.514   6.373
    1AU     AUL  298   6.609   5.413   6.412
    1AU       S  299   6.581   5.085   6.023
    1AU     LIG  300   6.843   4.706   6.180
    1AU     LIG  301   7.305   4.562   6.079
    1AU     LIG  302   7.752   4.379   6.088
    1AU     LIG  303   8.162   4.184   6.196
    1AU     LIG  304   8.433   3.823   6.362
    1AU       S  305   6.530   4.977   6.514
    1AU     LIG  306   6.753   4.628   6.739
    1AU     LIG  307   6.916   4.395   7.103
    1AU     LIG  308   7.159   4.149   7.426
    1AU     LIG  309   7.478   4.156   7.778
    1AU     LIG  310   7.885   4.147   8.030
    1AU    AUSL  311   6.395   5.626   5.829
    1AU    AUSL  312   6.353   5.212   5.605
    1AU     AUL  313   6.620   5.438   5.653
    1AU       S  314   6.850   5.138   5.901
    1AU     LIG  315   7.292   5.011   5.810
    1AU     LIG  316   7.721   4.787   5.781
    1AU     LIG  317   8.165   4.565   5.797
    1AU     LIG  318   8.645   4.632   5.732
    1AU     LIG  319   9.005   4.731   5.433
    1AU       S  320   6.547   5.075   5.358
    1AU     LIG  321   6.409   4.622   5.376
    1AU     LIG  322   6.643   4.235   5.223
    1AU     LIG  323   6.856   3.922   4.924
    1AU     LIG  324   7.210   3.611   4.817
    1AU     LIG  325   7.540   3.255   4.708
    1AU    AUSL  326   4.959   5.307   6.071
    1AU    AUSL  327   5.106   5.534   5.671
    1AU     AUL  328   4.757   5.389   5.761
    1AU       S  329   4.928   5.296   5.347
    1AU     LIG  330   4.480   5.150   5.391
    1AU     LIG  331   4.178   4.881   5.134
    1AU     LIG  332   3.988   4.605   4.769
    1AU     LIG  333   3.821   4.275   4.448
    1AU     LIG  334   3.583   4.060   4.083
    1AU       S  335   4.530   5.288   6.167
    1AU     LIG  336   4.316   5.009   5.870
    1AU     LIG  337   3.890   4.785   5.819
    1AU     LIG  338   3.416   4.788   5.975
    1AU     LIG  339   3.060   4.600   6.257
    1AU     LIG  340   2.631   4.375   6.368
    1AU    AUSL  341   5.077   5.711   6.215
    1AU    AUSL  342   5.299   5.323   6.325
    1AU     AUL  343   4.886   5.491   6.390
    1AU       S  344   5.002   5.064   6.515
    1AU     LIG  345   4.781   4.733   6.357
    1AU     LIG  346   4.484   4.467   6.607
    1AU     LIG  347   4.155   4.244   6.890
    1AU     LIG  348   3.853   4.015   7.189
    1AU     LIG  349   3.563   3.623   7.259
    1AU       S  350   4.463   5.598   6.249
    1AU     LIG  351   4.011   5.713   6.104
    1AU     LIG  352   3.604   5.581   5.947
    1AU     LIG  353   3.319   5.288   6.093
    1AU     LIG  354   2.943   5.100   6.230
    1AU     LIG  355   2.643   4.883   6.468
    1AU    AUSL  356   5.728   6.639   6.494
    1AU    AUSL  357   5.308   6.542   6.343
    1AU     AUL  358   5.527   6.625   6.731
    1AU       S  359   5.181   6.730   6.439
    1AU     LIG  360   5.194   7.034   6.780
    1AU     LIG  361   4.972   7.278   7.139
    1AU     LIG  362   4.750   7.635   7.375
    1AU     LIG  363   4.441   8.013   7.421
    1AU     LIG  364   4.075   8.329   7.510
    1AU       S  365   5.738   6.984   6.477
    1AU     LIG  366   5.918   7.051   6.853
    1AU     LIG  367   6.008   7.496   7.011
    1AU     LIG  368   5.934   7.843   7.345
    1AU     LIG  369   6.005   8.103   7.764
    1AU     LIG  370   5.964   8.493   8.051
    1AU    AUSL  371   5.544   6.785   6.092
    1AU    AUSL  372   5.903   6.738   5.723
    1AU     AUL  373   5.630   6.990   5.829
    1AU       S  374   5.621   7.062   6.294
    1AU     LIG  375   5.746   7.474   6.553
    1AU     LIG  376   5.630   7.871   6.804
    1AU     LIG  377   5.441   8.321   6.850
    1AU     LIG  378   5.383   8.815   6.894
    1AU     LIG  379   5.371   9.290   6.794
    1AU       S  380   5.797   7.036   5.393
    1AU     LIG  381   6.149   7.287   5.413
    1AU     LIG  382   6.239   7.744   5.318
    1AU     LIG  383   6.544   8.128   5.268
    1AU     LIG  384   6.721   8.579   5.204
    1AU     LIG  385   6.610   9.022   5.078
    1AU    AUSL  386   5.929   6.568   6.113
    1AU    AUSL  387   5.991   6.307   6.479
    1AU     AUL  388   6.066   6.656   6.505
    1AU       S  389   6.348   6.566   6.861
    1AU     LIG  390   6.641   6.479   7.228
    1AU     LIG  391   6.928   6.691   7.522
    1AU     LIG  392   7.218   7.028   7.700
    1AU     LIG  393   7.269   7.378   8.022
    1AU     LIG  394   7.263   7.582   8.457
    1AU       S  395   5.982   6.957   6.165
    1AU     LIG  396   6.213   7.229   6.477
    1AU     LIG  397   6.380   7.672   6.633
    1AU     LIG  398   6.712   8.064   6.660
    1AU     LIG  399   6.857   8.526   6.750
    1AU     LIG  400   6.871   8.953   6.934
    1AU    AUSL  401   5.711   5.184   6.453
    1AU    AUSL  402   6.129   5.119   6.316
    1AU     AUL  403   5.915   5.044   6.702
    1AU       S  404   5.786   4.634   6.525
    1AU     LIG  405   5.603   4.383   6.828
    1AU     LIG  406   5.448   3.958   6.827
    1AU     LIG  407   5.522   3.522   6.961
    1AU     LIG  408   5.526   3.280   7.378
    1AU     LIG  409   5.539   3.227   7.867
    1AU       S  410   6.271   4.940   6.388
    1AU     LIG  411   6.295   4.468   6.521
    1AU     LIG  412   6.577   4.141   6.775
    1AU     LIG  413   6.909   3.881   7.032
    1AU     LIG  414   7.049   3.428   7.161
    1AU     LIG  415   7.383   3.093   7.331
    1AU    AUSL  416   5.389   4.937   6.193
    1AU    AUSL  417   5.411   5.255   6.748
    1AU     AUL  418   5.451   4.973   6.538
    1AU       S  419   5.542   4.551   6.351
    1AU     LIG  420   5.166   4.397   6.531
    1AU     LIG  421   5.032   3.944   6.524
    1AU     LIG  422   5.103   3.477   6.608
    1AU     LIG  423   4.925   3.021   6.634
    1AU     LIG  424   4.900   2.673   6.944
    1AU       S  425   5.132   5.127   6.849
    1AU     LIG  426   4.879   4.710   6.876
    1AU     LIG  427   4.532   4.498   7.131
    1AU     LIG  428   4.282   4.209   7.425
    1AU     LIG  429   4.139   4.053   7.856
    1AU     LIG  430   4.212   3.850   8.291
    1AU    AUSL  431   5.819   4.895   6.138
    1AU    AUSL  432   5.578   5.122   5.846
    1AU     AUL  433   5.481   4.771   5.938
    1AU       S  434   5.878   4.665   5.728
    1AU     LIG  435   5.580   4.290   5.746
    1AU     LIG  436   5.344   3.887   5.553
    1AU     LIG  437   5.128   3.451   5.445
    1AU     LIG  438   4.906   3.003   5.391
    1AU     LIG  439   4.777   2.620   5.112
    1AU       S  440   5.845   4.705   6.265
    1AU     LIG  441   5.916   4.241   6.212
    1AU     LIG  442   5.877   3.861   6.516
    1AU     LIG  443   6.052   3.453   6.728
    1AU     LIG  444   6.170   2.980   6.788
    1AU     LIG  445   6.114   2.479   6.749
    1AU    AUSL  446   5.718   6.544   5.368
    1AU    AUSL  447   6.256   6.502   5.787
    1AU     AUL  448   6.076   6.678   5.466
    1AU       S  449   5.703   6.734   5.169
    1AU     LIG  450   6.073   6.969   4.995
    1AU     LIG  451   6.057   7.444   4.917
    1AU     LIG  452   6.058   7.760   4.548
    1AU     LIG  453   6.094   8.049   4.176
    1AU     LIG  454   5.948   8.473   4.078
    1AU       S  455   6.497   6.650   5.656
    1AU     LIG  456   6.945   6.719   5.382
    1AU     LIG  457   7.147   6.862   4.959
    1AU     LIG  458   7.309   7.190   4.628
    1AU     LIG  459   7.511   7.661   4.625
    1AU     LIG  460   7.690   8.132   4.684
    1AU    AUSL  461   5.554   6.490   5.794
    1AU    AUSL  462   5.485   6.208   5.458
    1AU     AUL  463   5.409   6.650   5.551
    1AU       S  464   5.598   7.011   5.350
    1AU     LIG  465   5.687   7.515   5.304
    1AU     LIG  466   5.654   7.992   5.233
    1AU     LIG  467   5.372   8.389   5.244
    1AU     LIG  468   5.311   8.888   5.290
    1AU     LIG  469   5.333   9.377   5.181
    1AU       S  470   5.274   6.448   5.154
    1AU     LIG  471   5.125   6.544   4.713
    1AU     LIG  472   5.008   6.923   4.448
    1AU     LIG  473   5.018   7.145   4.022
    1AU     LIG  474   4.928   7.377   3.609
    1AU     LIG  475   4.604   7.691   3.468
    1AU    AUSL  476   5.765   5.057   5.452
    1AU    AUSL  477   5.167   5.098   5.754
    1AU     AUL  478   5.435   4.945   5.501
    1AU       S  479   4.978   5.041   5.544
    1AU     LIG  480   4.680   4.729   5.621
    1AU     LIG  481   4.328   4.489   5.424
    1AU     LIG  482   4.097   4.219   5.091
    1AU     LIG  483   3.784   3.938   4.855
    1AU     LIG  484   3.422   3.598   4.838
    1AU       S  485   5.835   4.691   5.576
    1AU     LIG  486   5.904   4.351   5.289
    1AU     LIG  487   5.637   4.002   5.131
    1AU     LIG  488   5.483   3.572   5.069
    1AU     LIG  489   5.496   3.234   4.735
    1AU     LIG  490   5.637   2.997   4.344
    1AU    AUSL  491   6.011   5.108   5.826
    1AU    AUSL  492   5.997   5.413   5.454
    1AU     AUL  493   6.087   5.046   5.424
    1AU       S  494   6.137   4.769   5.807
    1AU     LIG  495   6.149   4.258   5.730
    1AU     LIG  496   5.861   3.905   5.576
    1AU     LIG  497   5.948   3.514   5.307
    1AU     LIG  498   6.216   3.149   5.133
    1AU     LIG  499   6.529   2.779   5.194
    1AU       S  500   6.324   5.250   5.090
    1AU     LIG  501   6.188   4.829   4.969
    1AU     LIG  502   6.403   4.428   4.809
    1AU     LIG  503   6.678   4.162   4.496
    1AU     LIG  504   6.983   4.151   4.117
    1AU     LIG  505   7.123   3.958   3.711
    2POPC   NC3  506   2.154   7.900   8.104
    2POPC   PO4  507   2.405   8.441   8.243
    2POPC   GL1  508   2.356   8.313   7.732
    2POPC   GL2  509   2.291   7.927   7.633
    2POPC   C1A  510   2.267   8.246   7.262
    2POPC   D2A  511   2.171   8.436   6.868
    2POPC   C3A  512   2.231   8.273   6.439
    2POPC   C4A  513   2.372   8.420   6.015
    2POPC   C1B  514   1.872   7.905   7.406
    2POPC   C2B  515   1.696   7.780   6.997
    2POPC   C3B  516   1.755   7.846   6.561
    2POPC   C4B  517   1.726   8.175   6.256
    3POPC   NC3  518   1.926   2.673   8.290
    3POPC   PO4  519   1.615   3.183   7.964
    3POPC   GL1  520   1.814   2.972   7.635
    3POPC   GL2  521   2.089   2.967   7.841
    3POPC   C1A  522   1.748   2.735   7.221
    3POPC   D2A  523   1.797   2.553   6.780
    3POPC   C3A  524   1.625   2.872   6.480
    3POPC   C4A  525   1.749   2.994   6.075
    3POPC   C1B  526   2.254   2.803   7.403
    3POPC   C2B  527   2.408   2.821   6.996
    3POPC   C3B  528   2.337   2.658   6.630
    3POPC   C4B  529   2.111   2.793   6.357
    4POPC   NC3  530   8.104   9.763   7.983
    4POPC   PO4  531   8.218   9.119   8.163
    4POPC   GL1  532   8.398   9.347   7.788
    4POPC   GL2  533   8.115   9.523   7.551
    4POPC   C1A  534   8.516   9.291   7.356
    4POPC   D2A  535   8.252   9.503   7.033
    4POPC   C3A  536   8.377   9.615   6.625
    4POPC   C4A  537   8.382   9.398   6.210
    4POPC   C1B  538   7.835   9.790   7.297
    4POPC   C2B  539   7.650   9.963   6.894
    4POPC   C3B  540   7.650   9.836   6.467
    4POPC   C4B  541   8.003   9.710   6.282
    5POPC   NC3  542   1.942   0.543   7.955
    5POPC   PO4  543   1.537   0.016   8.057
    5POPC   GL1  544   1.649   0.132   7.627
    5POPC   GL2  545   1.977   0.301   7.520
    5POPC   C1A  546   1.721   0.066   7.179
    5POPC   D2A  547   1.861   0.343   6.863
    5POPC   C3A  548   1.872   0.164   6.474
    5POPC   C4A  549   1.711   0.188   6.069
    5POPC   C1B  550   1.926   0.686   7.264
    5POPC   C2B  551   1.821   0.850   6.829
    5POPC   C3B  552   2.002   0.683   6.412
    5POPC   C4B  553   1.938   0.601   5.931
    6POPC   NC3  554   7.314   9.305   8.101
    6POPC   PO4  555   7.607   9.900   8.038
    6POPC   GL1  556   7.543   9.601   7.707
    6POPC   GL2  557   7.205   9.733   7.666
    6POPC   C1A  558   7.624   9.320   7.338
    6POPC   D2A  559   7.747   9.455   6.886
    6POPC   C3A  560   7.622   9.320   6.444
    6POPC   C4A  561   7.757   9.382   5.979
    6POPC   C1B  562   7.328   9.705   7.235
    6POPC   C2B  563   7.179   9.691   6.863
    6POPC   C3B  564   7.171   9.532   6.480
    6POPC   C4B  565   7.281   9.666   6.091
    7POPC   NC3  566  10.889   0.406   7.993
    7POPC   PO4  567   0.071   0.717   8.075
    7POPC   GL1  568   0.124   0.534   7.695
    7POPC   GL2  569  11.286   0.459   7.618
    7POPC   C1A  570   0.139   0.664   7.288
    7POPC   D2A  571  11.294   0.661   7.019
    7POPC   C3A  572  11.434   0.520   6.633
    7POPC   C4A  573  11.255   0.538   6.243
    7POPC   C1B  574  10.926   0.382   7.333
    7POPC   C2B  575  10.829   0.480   6.907
    7POPC   C3B  576  10.907   0.293   6.528
    7POPC   C4B  577  10.661   0.109   6.192
    8POPC   NC3  578  10.578   7.279   8.085
    8POPC   PO4  579  10.595   7.946   8.107
    8POPC   GL1  580  10.660   7.654   7.727
    8POPC   GL2  581  10.348   7.451   7.676
    8POPC   C1A  582  10.673   7.511   7.262
    8POPC   D2A  583  10.663   7.683   6.827
    8POPC   C3A  584  10.461   7.459   6.472
    8POPC   C4A  585  10.617   7.455   6.058
    8POPC   C1B  586  10.192   7.270   7.312
    8POPC   C2B  587  10.301   7.211   6.891
    8POPC   C3B  588  10.110   7.047   6.555
    8POPC   C4B  589   9.964   7.365   6.275
    9POPC   NC3  590   1.930   8.893   8.054
    9POPC   PO4  591   1.900   8.271   7.969
    9POPC   GL1  592   1.938   8.576   7.619
    9POPC   GL2  593   2.258   8.818   7.636
    9POPC   C1A  594   1.779   8.394   7.216
    9POPC   D2A  595   1.700   8.298   6.788
    9POPC   C3A  596   1.833   8.615   6.478
    9POPC   C4A  597   1.839   8.675   6.025
    9POPC   C1B  598   2.122   8.837   7.194
    9POPC   C2B  599   2.190   8.919   6.733
    9POPC   C3B  600   2.143   8.984   6.279
    9POPC   C4B  601   1.928   9.287   6.004
   10POPC   NC3  602   9.383   1.738   8.074
   10POPC   PO4  603   8.743   1.957   8.000
   10POPC   GL1  604   8.845   1.951   7.572
   10POPC   GL2  605   8.974   2.305   7.611
   10POPC   C1A  606   8.918   1.734   7.145
   10POPC   D2A  607   9.173   1.981   6.794
   10POPC   C3A  608   9.361   1.848   6.437
   10POPC   C4A  609   9.052   1.958   6.135
   10POPC   C1B  610   8.975   2.246   7.187
   10POPC   C2B  611   8.706   2.109   6.868
   10POPC   C3B  612   8.650   1.960   6.467
   10POPC   C4B  613   8.593   2.182   6.057
   11POPC   NC3  614  11.266   5.956   8.073
   11POPC   PO4  615  10.670   6.329   8.047
   11POPC   GL1  616  10.909   6.135   7.686
   11POPC   GL2  617  11.008   5.761   7.663
   11POPC   C1A  618  11.038   6.020   7.239
   11POPC   D2A  619  11.269   5.766   6.910
   11POPC   C3A  620  11.147   5.826   6.482
   11POPC   C4A  621  11.051   6.248   6.325
   11POPC   C1B  622  11.300   5.527   7.380
   11POPC   C2B  623  11.422   5.266   7.006
   11POPC   C3B  624  11.454   5.405   6.573
   11POPC   C4B  625  11.243   5.421   6.152
   12POPC   NC3  626   0.393   0.268   8.051
   12POPC   PO4  627   0.851   0.781   7.952
   12POPC   GL1  628   0.636   0.576   7.667
   12POPC   GL2  629   0.770   0.278   7.593
   12POPC   C1A  630   0.669   0.693   7.254
   12POPC   D2A  631   0.474   0.571   6.868
   12POPC   C3A  632   0.626   0.761   6.502
   12POPC   C4A  633   0.771   0.680   6.074
   12POPC   C1B  634   0.443   0.229   7.284
   12POPC   C2B  635   0.246   0.104   6.881
   12POPC   C3B  636   0.382   0.233   6.465
   12POPC   C4B  637   0.263   0.579   6.208
   13POPC   NC3  638   2.958   2.876   8.126
   13POPC   PO4  639   2.373   2.762   8.231
   13POPC   GL1  640   2.578   2.853   7.788
   13POPC   GL2  641   2.795   2.614   7.690
   13POPC   C1A  642   2.740   2.974   7.339
   13POPC   D2A  643   2.775   3.200   6.943
   13POPC   C3A  644   2.729   2.993   6.593
   13POPC   C4A  645   2.878   2.670   6.369
   13POPC   C1B  646   2.636   2.436   7.306
   13POPC   C2B  647   2.748   2.444   6.863
   13POPC   C3B  648   2.598   2.255   6.481
   13POPC   C4B  649   2.464   2.464   6.135
   14POPC   NC3  650  11.289   8.775   8.017
   14POPC   PO4  651  10.645   8.889   7.864
   14POPC   GL1  652  10.893   8.633   7.597
   14POPC   GL2  653  11.228   8.742   7.525
   14POPC   C1A  654  10.901   8.681   7.149
   14POPC   D2A  655  11.223   8.704   6.841
   14POPC   C3A  656  11.015   8.856   6.503
   14POPC   C4A  657  10.895   8.724   6.117
   14POPC   C1B  658  11.405   9.039   7.229
   14POPC   C2B  659  11.261   9.242   6.834
   14POPC   C3B  660  11.466   9.135   6.494
   14POPC   C4B  661  11.357   8.892   6.123
   15POPC   NC3  662   8.586  11.359   8.000
   15POPC   PO4  663   9.057  10.966   8.285
   15POPC   GL1  664   8.907  11.033   7.779
   15POPC   GL2  665   9.018  11.252   7.526
   15POPC   C1A  666   8.747  10.861   7.334
   15POPC   D2A  667   8.874  11.075   6.919
   15POPC   C3A  668   8.951  10.906   6.477
   15POPC   C4A  669   8.988  10.968   6.016
   15POPC   C1B  670   8.592  11.349   7.328
   15POPC   C2B  671   8.495  11.412   6.902
   15POPC   C3B  672   8.741  11.413   6.511
   15POPC   C4B  673   9.157  11.393   6.368
   16POPC   NC3  674   6.976  11.267   7.863
   16POPC   PO4  675   6.834  10.662   8.095
   16POPC   GL1  676   6.656  10.866   7.680
   16POPC   GL2  677   6.700  11.186   7.466
   16POPC   C1A  678   6.811  10.759   7.252
   16POPC   D2A  679   6.754  11.029   6.891
   16POPC   C3A  680   6.737  10.838   6.460
   16POPC   C4A  681   6.510  11.031   6.078
   16POPC   C1B  682   6.419  11.400   7.208
   16POPC   C2B  683   6.287  11.277   6.797
   16POPC   C3B  684   6.610  11.342   6.508
   16POPC   C4B  685   6.500   0.055   6.191
   17POPC   NC3  686   0.527   8.105   8.114
   17POPC   PO4  687   0.024   7.696   7.832
   17POPC   GL1  688   0.219   8.015   7.622
   17POPC   GL2  689   0.548   8.141   7.617
   17POPC   C1A  690   0.214   8.083   7.198
   17POPC   D2A  691   0.458   8.076   6.858
   17POPC   C3A  692   0.206   8.044   6.504
   17POPC   C4A  693   0.180   8.206   6.108
   17POPC   C1B  694   0.709   8.418   7.329
   17POPC   C2B  695   0.740   8.513   6.895
   17POPC   C3B  696   0.885   8.217   6.604
   17POPC   C4B  697   0.682   7.982   6.296
   18POPC   NC3  698   4.170  11.038   8.069
   18POPC   PO4  699   4.687   0.013   8.003
   18POPC   GL1  700   4.388  11.412   7.678
   18POPC   GL2  701   4.382  11.071   7.607
   18POPC   C1A  702   4.373  11.379   7.197
   18POPC   D2A  703   4.260   0.044   6.789
   18POPC   C3A  704   4.216  11.302   6.407
   18POPC   C4A  705   4.216  11.389   5.953
   18POPC   C1B  706   4.308  10.867   7.228
   18POPC   C2B  707   4.328  11.009   6.815
   18POPC   C3B  708   4.599  10.902   6.474
   18POPC   C4B  709   4.432  10.923   6.085
   19POPC   NC3  710   5.820  11.127   7.953
   19POPC   PO4  711   6.524  11.209   8.033
   19POPC   GL1  712   6.237  11.182   7.650
   19POPC   GL2  713   6.053  11.486   7.622
   19POPC   C1A  714   6.176  10.965   7.197
   19POPC   D2A  715   5.915  10.705   6.925
   19POPC   C3A  716   5.784  10.855   6.507
   19POPC   C4A  717   6.004  11.098   6.185
   19POPC   C1B  718   5.802  11.310   7.293
   19POPC   C2B  719   5.721  11.191   6.890
   19POPC   C3B  720   5.679  11.359   6.495
   19POPC   C4B  721   5.473   0.119   6.245
   20POPC   NC3  722   6.428   0.995   8.123
   20POPC   PO4  723   6.239   1.607   7.974
   20POPC   GL1  724   6.474   1.323   7.676
   20POPC   GL2  725   6.571   0.970   7.652
   20POPC   C1A  726   6.577   1.393   7.243
   20POPC   D2A  727   6.530   1.629   6.863
   20POPC   C3A  728   6.411   1.412   6.499
   20POPC   C4A  729   6.317   1.389   6.060
   20POPC   C1B  730   6.832   0.952   7.322
   20POPC   C2B  731   6.682   1.002   6.917
   20POPC   C3B  732   6.857   0.980   6.544
   20POPC   C4B  733   6.765   1.172   6.195
   21POPC   NC3  734   0.404   6.312   8.104
   21POPC   PO4  735   0.591   7.003   7.984
   21POPC   GL1  736   0.273   6.844   7.697
   21POPC   GL2  737   0.371   6.486   7.626
   21POPC   C1A  738   0.092   6.742   7.275
   21POPC   D2A  739   0.230   6.511   6.913
   21POPC   C3A  740   0.059   6.724   6.572
   21POPC   C4A  741   0.213   6.865   6.164
   21POPC   C1B  742   0.597   6.597   7.263
   21POPC   C2B  743   0.742   6.426   6.850
   21POPC   C3B  744   0.555   6.544   6.439
   21POPC   C4B  745   0.516   6.443   5.986
   22POPC   NC3  746   2.393   6.206   8.176
   22POPC   PO4  747   2.226   6.792   8.093
   22POPC   GL1  748   1.893   6.831   7.804
   22POPC   GL2  749   1.904   6.503   7.696
   22POPC   C1A  750   1.878   6.938   7.376
   22POPC   D2A  751   1.919   6.754   6.960
   22POPC   C3A  752   2.092   6.957   6.597
   22POPC   C4A  753   2.239   6.770   6.195
   22POPC   C1B  754   2.061   6.309   7.295
   22POPC   C2B  755   1.893   6.247   6.867
   22POPC   C3B  756   1.910   6.458   6.463
   22POPC   C4B  757   1.774   6.341   6.050
   23POPC   NC3  758  11.104   7.730   8.027
   23POPC   PO4  759  10.942   8.449   8.122
   23POPC   GL1  760  10.924   8.142   7.748
   23POPC   GL2  761  11.257   8.233   7.684
   23POPC   C1A  762  11.071   7.865   7.356
   23POPC   D2A  763  11.158   7.615   6.966
   23POPC   C3A  764  11.079   7.818   6.536
   23POPC   C4A  765  11.061   7.966   6.108
   23POPC   C1B  766  11.261   8.325   7.237
   23POPC   C2B  767  11.313   8.187   6.815
   23POPC   C3B  768  11.257   8.366   6.390
   23POPC   C4B  769  11.249   8.391   5.931
   24POPC   NC3  770   0.100   4.251   8.295
   24POPC   PO4  771   0.739   4.404   8.285
   24POPC   GL1  772   0.410   4.272   7.876
   24POPC   GL2  773   0.302   4.543   7.661
   24POPC   C1A  774   0.335   4.113   7.393
   24POPC   D2A  775   0.486   4.180   6.943
   24POPC   C3A  776   0.313   4.017   6.553
   24POPC   C4A  777   0.374   4.077   6.083
   24POPC   C1B  778   0.581   4.554   7.291
   24POPC   C2B  779   0.610   4.658   6.831
   24POPC   C3B  780   0.416   4.522   6.435
   24POPC   C4B  781   0.082   4.506   6.126
   25POPC   NC3  782   1.147   1.139   8.070
   25POPC   PO4  783   1.522   1.635   8.050
   25POPC   GL1  784   1.234   1.517   7.701
   25POPC   GL2  785   1.212   1.158   7.584
   25POPC   C1A  786   1.253   1.545   7.241
   25POPC   D2A  787   1.026   1.457   6.843
   25POPC   C3A  788   1.264   1.578   6.509
   25POPC   C4A  789   1.354   1.434   6.125
   25POPC   C1B  790   1.135   1.011   7.184
   25POPC   C2B  791   1.184   0.960   6.778
   25POPC   C3B  792   1.060   1.083   6.405
   25POPC   C4B  793   1.181   0.977   5.999
   26POPC   NC3  794   1.225   9.601   8.086
   26POPC   PO4  795   1.695   9.241   7.840
   26POPC   GL1  796   1.475   9.614   7.604
   26POPC   GL2  797   1.191   9.842   7.663
   26POPC   C1A  798   1.407   9.750   7.184
   26POPC   D2A  799   1.228   9.421   6.955
   26POPC   C3A  800   1.332   9.398   6.548
   26POPC   C4A  801   1.232   9.509   6.180
   26POPC   C1B  802   0.937   9.689   7.369
   26POPC   C2B  803   0.926   9.842   6.969
   26POPC   C3B  804   1.125   9.852   6.597
   26POPC   C4B  805   0.860   9.824   6.255
   27POPC   NC3  806   5.290   2.553   8.210
   27POPC   PO4  807   5.467   1.947   8.078
   27POPC   GL1  808   5.402   1.735   7.671
   27POPC   GL2  809   5.775   1.737   7.556
   27POPC   C1A  810   5.326   1.900   7.230
   27POPC   D2A  811   5.625   2.073   6.915
   27POPC   C3A  812   5.490   2.106   6.479
   27POPC   C4A  813   5.715   2.164   6.089
   27POPC   C1B  814   5.658   1.530   7.185
   27POPC   C2B  815   5.531   1.599   6.744
   27POPC   C3B  816   5.856   1.750   6.452
   27POPC   C4B  817   6.125   1.840   6.109
   28POPC   NC3  818   7.672   0.262   7.960
   28POPC   PO4  819   7.169  11.412   8.269
   28POPC   GL1  820   7.106   0.248   7.830
   28POPC   GL2  821   7.272   0.591   7.822
   28POPC   C1A  822   7.160   0.154   7.314
   28POPC   D2A  823   6.934   0.017   6.931
   28POPC   C3A  824   7.122   0.002   6.514
   28POPC   C4A  825   7.000   0.164   6.093
   28POPC   C1B  826   7.271   0.647   7.368
   28POPC   C2B  827   7.395   0.498   6.950
   28POPC   C3B  828   7.461   0.384   6.515
   28POPC   C4B  829   7.282   0.594   6.146
   29POPC   NC3  830   7.984   8.729   8.114
   29POPC   PO4  831   8.577   8.583   8.116
   29POPC   GL1  832   8.344   8.808   7.731
   29POPC   GL2  833   8.004   9.031   7.706
   29POPC   C1A  834   8.023   8.620   7.398
   29POPC   D2A  835   7.875   8.765   6.961
   29POPC   C3A  836   8.130   8.642   6.605
   29POPC   C4A  837   7.985   8.540   6.203
   29POPC   C1B  838   8.064   9.099   7.286
   29POPC   C2B  839   8.355   8.972   6.990
   29POPC   C3B  840   8.371   9.085   6.599
   29POPC   C4B  841   8.019   9.055   6.301
   30POPC   NC3  842   6.351   9.568   8.165
   30POPC   PO4  843   6.876   9.176   8.085
   30POPC   GL1  844   6.743   9.512   7.739
   30POPC   GL2  845   6.466   9.789   7.712
   30POPC   C1A  846   6.807   9.642   7.277
   30POPC   D2A  847   6.713   9.501   6.842
   30POPC   C3A  848   6.721   9.767   6.459
   30POPC   C4A  849   6.794   9.439   6.135
   30POPC   C1B  850   6.283   9.638   7.362
   30POPC   C2B  851   6.291   9.753   6.972
   30POPC   C3B  852   6.211   9.654   6.552
   30POPC   C4B  853   6.149   9.848   6.181
   31POPC   NC3  854   2.358   5.364   8.213
   31POPC   PO4  855   3.065   5.310   8.164
   31POPC   GL1  856   2.726   5.479   7.831
   31POPC   GL2  857   2.599   5.833   7.835
   31POPC   C1A  858   2.681   5.528   7.337
   31POPC   D2A  859   2.852   5.424   6.891
   31POPC   C3A  860   2.676   5.484   6.463
   31POPC   C4A  861   2.909   5.583   6.063
   31POPC   C1B  862   2.648   6.027   7.400
   31POPC   C2B  863   2.773   5.934   6.949
   31POPC   C3B  864   2.727   5.999   6.478
   31POPC   C4B  865   2.318   6.152   6.293
   32POPC   NC3  866   8.095   2.052   8.218
   32POPC   PO4  867   7.893   1.554   7.829
   32POPC   GL1  868   8.106   1.802   7.556
   32POPC   GL2  869   8.321   2.029   7.749
   32POPC   C1A  870   8.424   1.639   7.277
   32POPC   D2A  871   8.494   1.589   6.830
   32POPC   C3A  872   8.062   1.624   6.642
   32POPC   C4A  873   7.808   1.591   6.251
   32POPC   C1B  874   8.430   2.151   7.340
   32POPC   C2B  875   8.233   2.002   6.967
   32POPC   C3B  876   8.148   2.141   6.573
   32POPC   C4B  877   8.218   1.878   6.214
   33POPC   NC3  878   4.652  10.796   7.941
   33POPC   PO4  879   4.253  10.378   8.306
   33POPC   GL1  880   4.605  10.309   7.848
   33POPC   GL2  881   4.356  10.219   7.553
   33POPC   C1A  882   4.748  10.459   7.383
   33POPC   D2A  883   4.693  10.671   6.961
   33POPC   C3A  884   4.698  10.402   6.582
   33POPC   C4A  885   4.733  10.504   6.144
   33POPC   C1B  886   4.025  10.153   7.251
   33POPC   C2B  887   3.925   9.965   6.848
   33POPC   C3B  888   3.921  10.135   6.415
   33POPC   C4B  889   4.255  10.419   6.302
   34POPC   NC3  890   7.351   8.128   8.011
   34POPC   PO4  891   6.781   8.278   7.947
   34POPC   GL1  892   7.124   8.464   7.653
   34POPC   GL2  893   7.457   8.358   7.567
   34POPC   C1A  894   7.116   8.436   7.196
   34POPC   D2A  895   7.250   8.186   6.818
   34POPC   C3A  896   7.121   8.293   6.387
   34POPC   C4A  897   6.780   8.126   6.130
   34POPC   C1B  898   7.631   8.349   7.154
   34POPC   C2B  899   7.729   8.331   6.713
   34POPC   C3B  900   7.617   8.194   6.312
   34POPC   C4B  901   7.686   8.282   5.873
   35POPC   NC3  902   0.989   6.796   7.885
   35POPC   PO4  903   0.939   6.145   8.120
   35POPC   GL1  904   1.044   6.334   7.693
   35POPC   GL2  905   1.382   6.484   7.719
   35POPC   C1A  906   1.089   6.541   7.259
   35POPC   D2A  907   0.988   6.861   6.920
   35POPC   C3A  908   1.075   6.651   6.494
   35POPC   C4A  909   1.022   6.512   6.057
   35POPC   C1B  910   1.583   6.485   7.291
   35POPC   C2B  911   1.448   6.596   6.873
   35POPC   C3B  912   1.575   6.845   6.555
   35POPC   C4B  913   1.480   6.755   6.146
   36POPC   NC3  914   3.269   5.726   8.134
   36POPC   PO4  915   3.050   6.291   8.301
   36POPC   GL1  916   3.054   6.156   7.778
   36POPC   GL2  917   3.075   5.814   7.636
   36POPC   C1A  918   3.141   6.173   7.248
   36POPC   D2A  919   3.248   5.987   6.777
   36POPC   C3A  920   3.187   6.247   6.350
   36POPC   C4A  921   3.329   6.436   5.928
   36POPC   C1B  922   3.183   5.667   7.210
   36POPC   C2B  923   3.550   5.588   6.929
   36POPC   C3B  924   3.656   5.685   6.506
   36POPC   C4B  925   3.289   5.757   6.319
   37POPC   NC3  926   8.318   0.607   7.999
   37POPC   PO4  927   8.119   0.010   8.021
   37POPC   GL1  928   8.325   0.202   7.646
   37POPC   GL2  929   8.049   0.446   7.577
   37POPC   C1A  930   8.413   0.352   7.195
   37POPC   D2A  931   8.090   0.314   6.840
   37POPC   C3A  932   8.197   0.391   6.400
   37POPC   C4A  933   8.314   0.102   6.026
   37POPC   C1B  934   7.825   0.655   7.216
   37POPC   C2B  935   7.806   0.737   6.751
   37POPC   C3B  936   7.795   0.686   6.279
   37POPC   C4B  937   7.690   0.680   5.834
   38POPC   NC3  938   1.554   2.615   7.911
   38POPC   PO4  939   1.016   2.951   8.106
   38POPC   GL1  940   1.022   2.737   7.725
   38POPC   GL2  941   1.284   2.963   7.637
   38POPC   C1A  942   1.185   2.554   7.315
   38POPC   D2A  943   1.300   2.676   6.897
   38POPC   C3A  944   1.355   2.460   6.496
   38POPC   C4A  945   1.390   2.599   6.072
   38POPC   C1B  946   1.019   3.104   7.324
   38POPC   C2B  947   0.879   2.989   6.938
   38POPC   C3B  948   1.096   3.028   6.572
   38POPC   C4B  949   0.978   2.876   6.198
   39POPC   NC3  950   0.595   2.735   8.116
   39POPC   PO4  951   0.729   2.124   7.962
   39POPC   GL1  952   0.554   2.460   7.690
   39POPC   GL2  953   0.271   2.700   7.685
   39POPC   C1A  954   0.672   2.685   7.332
   39POPC   D2A  955   0.797   2.440   6.990
   39POPC   C3A  956   0.884   2.570   6.597
   39POPC   C4A  957   0.897   2.378   6.162
   39POPC   C1B  958   0.149   2.752   7.233
   39POPC   C2B  959   0.395   2.742   6.851
   39POPC   C3B  960   0.463   2.789   6.408
   39POPC   C4B  961   0.144   2.779   6.099
   40POPC   NC3  962   5.003   1.806   8.084
   40POPC   PO4  963   4.769   2.475   8.143
   40POPC   GL1  964   4.930   2.237   7.771
   40POPC   GL2  965   4.712   1.988   7.696
   40POPC   C1A  966   4.899   2.214   7.275
   40POPC   D2A  967   5.129   2.223   6.849
   40POPC   C3A  968   5.014   2.312   6.396
   40POPC   C4A  969   5.270   2.438   6.027
   40POPC   C1B  970   4.880   1.683   7.383
   40POPC   C2B  971   4.845   1.817   6.934
   40POPC   C3B  972   5.045   1.821   6.534
   40POPC   C4B  973   4.853   1.702   6.148
   41POPC   NC3  974   8.851  10.611   8.050
   41POPC   PO4  975   8.346  10.111   8.195
   41POPC   GL1  976   8.469  10.404   7.802
   41POPC   GL2  977   8.795  10.334   7.630
   41POPC   C1A  978   8.399  10.454   7.316
   41POPC   D2A  979   8.520  10.236   6.891
   41POPC   C3A  980   8.589  10.499   6.487
   41POPC   C4A  981   8.562  10.658   6.017
   41POPC   C1B  982   8.899  10.191   7.230
   41POPC   C2B  983   9.023  10.295   6.791
   41POPC   C3B  984   8.932  10.154   6.366
   41POPC   C4B  985   9.021  10.497   6.169
   42POPC   NC3  986   7.518   2.217   8.035
   42POPC   PO4  987   7.819   1.698   8.332
   42POPC   GL1  988   7.444   1.727   7.855
   42POPC   GL2  989   7.603   1.971   7.612
   42POPC   C1A  990   7.507   1.607   7.315
   42POPC   D2A  991   7.748   1.872   6.978
   42POPC   C3A  992   7.663   1.989   6.505
   42POPC   C4A  993   7.373   1.855   6.162
   42POPC   C1B  994   7.345   2.084   7.238
   42POPC   C2B  995   7.263   1.930   6.818
   42POPC   C3B  996   7.186   2.212   6.473
   42POPC   C4B  997   6.967   2.148   6.082
   43POPC   NC3  998   7.597   1.222   7.963
   43POPC   PO4  999   6.895   1.231   8.059
   43POPC   GL1 1000   6.995   1.365   7.656
   43POPC   GL2 1001   7.226   1.101   7.638
   43POPC   C1A 1002   7.080   1.380   7.213
   43POPC   D2A 1003   6.984   1.421   6.796
   43POPC   C3A 1004   7.254   1.430   6.442
   43POPC   C4A 1005   7.149   1.444   5.988
   43POPC   C1B 1006   7.493   1.087   7.286
   43POPC   C2B 1007   7.252   0.986   6.927
   43POPC   C3B 1008   7.368   0.913   6.529
   43POPC   C4B 1009   7.469   1.074   6.125
   44POPC   NC3 1010   1.923   9.662   7.832
   44POPC   PO4 1011   2.337   9.168   8.031
   44POPC   GL1 1012   2.330   9.428   7.650
   44POPC   GL2 1013   2.063   9.273   7.476
   44POPC   C1A 1014   2.342   9.635   7.221
   44POPC   D2A 1015   2.344   9.388   6.846
   44POPC   C3A 1016   2.105   9.457   6.482
   44POPC   C4A 1017   2.134   9.740   6.151
   44POPC   C1B 1018   1.874   9.308   7.058
   44POPC   C2B 1019   1.719   9.643   6.778
   44POPC   C3B 1020   1.650   9.750   6.353
   44POPC   C4B 1021   1.704   9.935   5.965
   45POPC   NC3 1022  11.057   3.464   8.002
   45POPC   PO4 1023   0.106   3.231   7.734
   45POPC   GL1 1024  11.195   3.460   7.520
   45POPC   GL2 1025  11.026   3.825   7.660
   45POPC   C1A 1026  10.889   3.665   7.201
   45POPC   D2A 1027  10.743   3.479   6.831
   45POPC   C3A 1028  11.036   3.214   6.621
   45POPC   C4A 1029  10.972   3.189   6.180
   45POPC   C1B 1030  11.327   3.934   7.364
   45POPC   C2B 1031  11.362   3.745   6.977
   45POPC   C3B 1032  11.148   3.750   6.598
   45POPC   C4B 1033  11.350   3.503   6.291
   46POPC   NC3 1034   8.830   8.205   8.015
   46POPC   PO4 1035   8.469   7.745   7.781
   46POPC   GL1 1036   8.844   7.898   7.571
   46POPC   GL2 1037   8.821   8.252   7.506
   46POPC   C1A 1038   9.010   7.844   7.145
   46POPC   D2A 1039   9.010   7.988   6.694
   46POPC   C3A 1040   8.930   7.772   6.302
   46POPC   C4A 1041   8.645   7.750   5.910
   46POPC   C1B 1042   8.827   8.345   7.055
   46POPC   C2B 1043   9.156   8.473   6.771
   46POPC   C3B 1044   9.143   8.342   6.337
   46POPC   C4B 1045   8.907   8.168   5.988
   47POPC   NC3 1046   1.504   8.298   8.204
   47POPC   PO4 1047   0.967   7.926   8.071
   47POPC   GL1 1048   1.057   8.097   7.679
   47POPC   GL2 1049   0.993   7.778   7.553
   47POPC   C1A 1050   1.259   8.237   7.276
   47POPC   D2A 1051   1.256   8.531   6.930
   47POPC   C3A 1052   1.329   8.443   6.471
   47POPC   C4A 1053   1.049   8.333   6.112
   47POPC   C1B 1054   1.200   7.718   7.161
   47POPC   C2B 1055   1.290   8.002   6.803
   47POPC   C3B 1056   1.266   7.943   6.357
   47POPC   C4B 1057   1.527   7.721   6.097
   48POPC   NC3 1058   0.617  10.414   8.087
   48POPC   PO4 1059   0.063  10.070   8.235
   48POPC   GL1 1060   0.283  10.137   7.775
   48POPC   GL2 1061   0.379  10.495   7.654
   48POPC   C1A 1062   0.610  10.118   7.394
   48POPC   D2A 1063   0.462  10.050   6.955
   48POPC   C3A 1064   0.729  10.192   6.631
   48POPC   C4A 1065   0.734  10.359   6.237
   48POPC   C1B 1066   0.204  10.403   7.260
   48POPC   C2B 1067   0.334  10.543   6.867
   48POPC   C3B 1068   0.291  10.455   6.454
   48POPC   C4B 1069   0.216  10.780   6.184
   49POPC   NC3 1070   1.213   3.377   8.086
   49POPC   PO4 1071   0.750   3.894   7.906
   49POPC   GL1 1072   1.155   3.803   7.652
   49POPC   GL2 1073   1.389   3.517   7.642
   49POPC   C1A 1074   1.273   3.715   7.196
   49POPC   D2A 1075   1.092   3.478   6.847
   49POPC   C3A 1076   1.143   3.723   6.439
   49POPC   C4A 1077   1.097   3.624   5.998
   49POPC   C1B 1078   1.531   3.262   7.308
   49POPC   C2B 1079   1.480   3.141   6.919
   49POPC   C3B 1080   1.493   3.359   6.548
   49POPC   C4B 1081   1.336   3.242   6.177
   50POPC   NC3 1082   1.902   7.075   8.250
   50POPC   PO4 1083   1.286   7.068   8.092
   50POPC   GL1 1084   1.409   7.014   7.671
   50POPC   GL2 1085   1.277   7.358   7.660
   50POPC   C1A 1086   1.395   6.971   7.225
   50POPC   D2A 1087   1.334   7.277   6.913
   50POPC   C3A 1088   1.168   7.154   6.524
   50POPC   C4A 1089   1.388   7.252   6.175
   50POPC   C1B 1090   0.989   7.258   7.359
   50POPC   C2B 1091   0.818   7.367   6.972
   50POPC   C3B 1092   1.000   7.615   6.654
   50POPC   C4B 1093   0.972   7.533   6.226
   51POPC   NC3 1094   3.453   9.501   8.241
   51POPC   PO4 1095   3.440  10.135   8.183
   51POPC   GL1 1096   3.502   9.947   7.778
   51POPC   GL2 1097   3.658   9.629   7.752
   51POPC   C1A 1098   3.549   9.951   7.335
   51POPC   D2A 1099   3.264   9.817   7.027
   51POPC   C3A 1100   3.476   9.785   6.662
   51POPC   C4A 1101   3.446   9.981   6.300
   51POPC   C1B 1102   3.486   9.439   7.355
   51POPC   C2B 1103   3.338   9.324   6.909
   51POPC   C3B 1104   3.523   9.316   6.463
   51POPC   C4B 1105   3.818   9.293   6.094
   52POPC   NC3 1106   8.950   3.308   8.224
   52POPC   PO4 1107   9.131   3.879   8.091
   52POPC   GL1 1108   9.227   3.600   7.716
   52POPC   GL2 1109   8.996   3.310   7.716
   52POPC   C1A 1110   9.091   3.602   7.266
   52POPC   D2A 1111   8.807   3.549   6.905
   52POPC   C3A 1112   8.955   3.647   6.489
   52POPC   C4A 1113   8.854   3.818   6.084
   52POPC   C1B 1114   8.851   3.148   7.319
   52POPC   C2B 1115   9.033   3.099   6.926
   52POPC   C3B 1116   8.785   3.131   6.577
   52POPC   C4B 1117   8.649   3.348   6.192
   53POPC   NC3 1118   1.734   5.314   7.989
   53POPC   PO4 1119   2.191   5.795   8.174
   53POPC   GL1 1120   2.143   5.589   7.754
   53POPC   GL2 1121   1.788   5.687   7.644
   53POPC   C1A 1122   2.152   5.705   7.286
   53POPC   D2A 1123   1.916   5.720   6.885
   53POPC   C3A 1124   2.159   5.690   6.494
   53POPC   C4A 1125   2.006   5.478   6.112
   53POPC   C1B 1126   1.657   5.959   7.292
   53POPC   C2B 1127   1.398   6.100   6.946
   53POPC   C3B 1128   1.461   6.192   6.511
   53POPC   C4B 1129   1.731   5.891   6.291
   54POPC   NC3 1130  11.061   9.813   8.140
   54POPC   PO4 1131  -0.001   9.277   8.093
   54POPC   GL1 1132  11.470   9.432   7.656
   54POPC   GL2 1133  11.201   9.651   7.693
   54POPC   C1A 1134  11.287   9.567   7.217
   54POPC   D2A 1135  11.285   9.851   6.842
   54POPC   C3A 1136  11.435   9.650   6.483
   54POPC   C4A 1137  11.463   9.627   6.054
   54POPC   C1B 1138  10.878   9.835   7.406
   54POPC   C2B 1139  10.823   9.648   6.971
   54POPC   C3B 1140  10.914   9.606   6.536
   54POPC   C4B 1141  11.078   9.325   6.251
   55POPC   NC3 1142  10.780   5.083   8.062
   55POPC   PO4 1143  10.171   5.454   8.111
   55POPC   GL1 1144  10.242   5.274   7.697
   55POPC   GL2 1145  10.446   4.970   7.669
   55POPC   C1A 1146  10.372   5.385   7.276
   55POPC   D2A 1147  10.466   5.254   6.843
   55POPC   C3A 1148  10.171   5.265   6.529
   55POPC   C4A 1149  10.184   4.919   6.255
   55POPC   C1B 1150  10.663   4.812   7.301
   55POPC   C2B 1151  10.622   4.758   6.858
   55POPC   C3B 1152  10.667   4.877   6.420
   55POPC   C4B 1153  10.553   4.688   5.998
   56POPC   NC3 1154   5.946   0.459   8.082
   56POPC   PO4 1155   5.288   0.318   8.252
   56POPC   GL1 1156   5.485   0.493   7.777
   56POPC   GL2 1157   5.712   0.745   7.728
   56POPC   C1A 1158   5.786   0.393   7.365
   56POPC   D2A 1159   5.729   0.216   6.918
   56POPC   C3A 1160   6.049   0.218   6.572
   56POPC   C4A 1161   5.977   0.122   6.132
   56POPC   C1B 1162   6.104   0.800   7.478
   56POPC   C2B 1163   6.148   0.872   7.020
   56POPC   C3B 1164   5.863   0.727   6.690
   56POPC   C4B 1165   5.784   0.565   6.289
   57POPC   NC3 1166   9.511  10.985   8.192
   57POPC   PO4 1167   9.212  10.641   7.742
   57POPC   GL1 1168   9.476  10.989   7.632
   57POPC   GL2 1169   9.498  11.361   7.685
   57POPC   C1A 1170   9.465  11.155   7.204
   57POPC   D2A 1171   9.698  11.026   6.834
   57POPC   C3A 1172   9.494  10.985   6.423
   57POPC   C4A 1173   9.771  11.042   6.071
   57POPC   C1B 1174   9.798   0.013   7.360
   57POPC   C2B 1175   9.643   0.056   6.894
   57POPC   C3B 1176   9.677  11.462   6.433
   57POPC   C4B 1177   9.796   0.028   5.985
   58POPC   NC3 1178  10.541   8.341   8.339
   58POPC   PO4 1179   9.969   8.481   7.917
   58POPC   GL1 1180  10.071   8.300   7.579
   58POPC   GL2 1181  10.259   7.999   7.676
   58POPC   C1A 1182  10.183   8.238   7.172
   58POPC   D2A 1183  10.345   8.080   6.806
   58POPC   C3A 1184  10.258   8.311   6.468
   58POPC   C4A 1185  10.252   8.200   6.049
   58POPC   C1B 1186  10.593   8.019   7.357
   58POPC   C2B 1187  10.817   8.193   6.999
   58POPC   C3B 1188  10.778   8.258   6.554
   58POPC   C4B 1189  10.591   7.924   6.302
   59POPC   NC3 1190   4.630   1.224   8.014
   59POPC   PO4 1191   4.118   0.766   8.061
   59POPC   GL1 1192   4.002   1.035   7.726
   59POPC   GL2 1193   4.346   1.026   7.630
   59POPC   C1A 1194   3.898   0.926   7.303
   59POPC   D2A 1195   4.142   0.941   6.931
   59POPC   C3A 1196   3.989   0.942   6.550
   59POPC   C4A 1197   4.281   1.168   6.403
   59POPC   C1B 1198   4.283   1.286   7.279
   59POPC   C2B 1199   4.528   1.419   6.942
   59POPC   C3B 1200   4.577   1.540   6.543
   59POPC   C4B 1201   4.169   1.674   6.365
   60POPC   NC3 1202   1.355   4.920   8.148
   60POPC   PO4 1203   2.054   5.030   8.145
   60POPC   GL1 1204   1.972   4.903   7.732
   60POPC   GL2 1205   1.904   5.191   7.530
   60POPC   C1A 1206   2.022   4.745   7.310
   60POPC   D2A 1207   1.915   5.047   6.978
   60POPC   C3A 1208   1.877   4.823   6.588
   60POPC   C4A 1209   1.828   5.009   6.195
   60POPC   C1B 1210   2.277   5.210   7.324
   60POPC   C2B 1211   2.332   5.363   6.888
   60POPC   C3B 1212   2.241   5.188   6.465
   60POPC   C4B 1213   2.459   5.198   6.054
   61POPC   NC3 1214   9.797   5.160   8.205
   61POPC   PO4 1215   9.746   4.495   8.016
   61POPC   GL1 1216   9.934   4.839   7.737
   61POPC   GL2 1217   9.736   5.157   7.703
   61POPC   C1A 1218  10.049   4.984   7.293
   61POPC   D2A 1219  10.106   4.855   6.842
   61POPC   C3A 1220   9.768   4.953   6.514
   61POPC   C4A 1221   9.648   4.802   6.114
   61POPC   C1B 1222   9.542   5.081   7.308
   61POPC   C2B 1223   9.528   5.213   6.869
   61POPC   C3B 1224   9.335   5.218   6.455
   61POPC   C4B 1225   9.401   5.234   6.023
   62POPC   NC3 1226  11.304  11.099   7.965
   62POPC   PO4 1227  10.760  11.483   8.117
   62POPC   GL1 1228  11.073   0.002   7.756
   62POPC   GL2 1229  10.818  11.411   7.549
   62POPC   C1A 1230  11.299   0.026   7.346
   62POPC   D2A 1231  11.060   0.019   6.958
   62POPC   C3A 1232  11.312  11.491   6.592
   62POPC   C4A 1233  11.195   0.031   6.170
   62POPC   C1B 1234  11.005  11.107   7.287
   62POPC   C2B 1235  11.123  11.012   6.864
   62POPC   C3B 1236  11.239  10.992   6.437
   62POPC   C4B 1237  10.984  10.747   6.125
   63POPC   NC3 1238  10.206   3.400   8.217
   63POPC   PO4 1239  10.681   3.294   7.754
   63POPC   GL1 1240  10.293   3.276   7.568
   63POPC   GL2 1241  10.202   3.592   7.734
   63POPC   C1A 1242  10.328   3.286   7.108
   63POPC   D2A 1243  10.242   3.365   6.673
   63POPC   C3A 1244  10.578   3.503   6.344
   63POPC   C4A 1245  10.579   3.328   5.897
   63POPC   C1B 1246  10.152   3.764   7.333
   63POPC   C2B 1247  10.337   3.781   6.929
   63POPC   C3B 1248  10.194   3.874   6.527
   63POPC   C4B 1249  10.213   3.734   6.095
   64POPC   NC3 1250   6.742   0.057   8.264
   64POPC   PO4 1251   6.400   0.536   8.132
   64POPC   GL1 1252   6.336   0.405   7.715
   64POPC   GL2 1253   6.570   0.121   7.709
   64POPC   C1A 1254   6.308   0.393   7.246
   64POPC   D2A 1255   6.490   0.281   6.841
   64POPC   C3A 1256   6.420   0.618   6.554
   64POPC   C4A 1257   6.279   0.522   6.149
   64POPC   C1B 1258   6.779   0.457   7.459
   64POPC   C2B 1259   6.897   0.542   7.010
   64POPC   C3B 1260   6.928   0.472   6.551
   64POPC   C4B 1261   6.775   0.648   6.143
   65POPC   NC3 1262   4.754  10.335   8.476
   65POPC   PO4 1263   4.948  10.985   8.239
   65POPC   GL1 1264   5.148  10.657   7.858
   65POPC   GL2 1265   5.477  10.764   7.728
   65POPC   C1A 1266   5.246  10.425   7.416
   65POPC   D2A 1267   5.112  10.412   6.932
   65POPC   C3A 1268   5.125  10.117   6.569
   65POPC   C4A 1269   5.058  10.115   6.123
   65POPC   C1B 1270   5.486  10.866   7.245
   65POPC   C2B 1271   5.294  10.893   6.805
   65POPC   C3B 1272   5.146  10.668   6.414
   65POPC   C4B 1273   5.225  10.578   5.941
   66POPC   NC3 1274   0.024   5.423   8.058
   66POPC   PO4 1275   0.012   4.682   8.096
   66POPC   GL1 1276  11.194   4.818   7.820
   66POPC   GL2 1277  11.176   5.187   7.756
   66POPC   C1A 1278  11.164   4.865   7.376
   66POPC   D2A 1279  11.113   4.648   7.005
   66POPC   C3A 1280  11.146   4.882   6.653
   66POPC   C4A 1281  11.153   4.746   6.264
   66POPC   C1B 1282  10.854   5.282   7.437
   66POPC   C2B 1283  10.928   5.163   7.017
   66POPC   C3B 1284  10.930   5.352   6.604
   66POPC   C4B 1285  10.607   5.392   6.306
   67POPC   NC3 1286   7.911  10.272   8.079
   67POPC   PO4 1287   8.441   9.924   7.709
   67POPC   GL1 1288   8.063  10.149   7.604
   67POPC   GL2 1289   8.004  10.539   7.662
   67POPC   C1A 1290   7.887  10.291   7.215
   67POPC   D2A 1291   8.052  10.443   6.830
   67POPC   C3A 1292   8.179  10.150   6.518
   67POPC   C4A 1293   7.915  10.223   6.215
   67POPC   C1B 1294   7.800  10.760   7.355
   67POPC   C2B 1295   7.685  10.804   6.911
   67POPC   C3B 1296   7.963  10.899   6.606
   67POPC   C4B 1297   8.151  10.673   6.305
   68POPC   NC3 1298   4.545   2.843   8.455
   68POPC   PO4 1299   3.998   2.577   8.090
   68POPC   GL1 1300   4.201   2.648   7.689
   68POPC   GL2 1301   4.008   2.943   7.639
   68POPC   C1A 1302   4.503   2.591   7.308
   68POPC   D2A 1303   4.538   2.321   6.924
   68POPC   C3A 1304   4.589   2.559   6.537
   68POPC   C4A 1305   4.478   2.446   6.117
   68POPC   C1B 1306   3.994   2.741   7.225
   68POPC   C2B 1307   4.184   2.767   6.796
   68POPC   C3B 1308   4.162   2.798   6.329
   68POPC   C4B 1309   4.424   2.955   5.982
   69POPC   NC3 1310   1.393   6.195   8.192
   69POPC   PO4 1311   1.248   5.523   8.011
   69POPC   GL1 1312   1.227   5.861   7.714
   69POPC   GL2 1313   1.300   5.617   7.479
   69POPC   C1A 1314   1.025   6.011   7.281
   69POPC   D2A 1315   0.940   5.887   6.808
   69POPC   C3A 1316   0.940   6.136   6.417
   69POPC   C4A 1317   0.827   6.052   5.964
   69POPC   C1B 1318   1.596   5.445   7.202
   69POPC   C2B 1319   1.395   5.585   6.826
   69POPC   C3B 1320   1.262   5.706   6.419
   69POPC   C4B 1321   1.508   5.414   6.218
   70POPC   NC3 1322   3.534   0.085   8.153
   70POPC   PO4 1323   3.364  10.820   8.168
   70POPC   GL1 1324   3.668  10.946   7.836
   70POPC   GL2 1325   3.542  11.294   7.731
   70POPC   C1A 1326   3.858  11.034   7.417
   70POPC   D2A 1327   3.880  11.275   7.022
   70POPC   C3A 1328   3.765  11.114   6.608
   70POPC   C4A 1329   3.768  11.231   6.161
   70POPC   C1B 1330   3.339  11.196   7.329
   70POPC   C2B 1331   3.169  11.334   6.915
   70POPC   C3B 1332   3.315  11.353   6.461
   70POPC   C4B 1333   3.357  10.920   6.288
   71POPC   NC3 1334  11.120   4.455   8.244
   71POPC   PO4 1335  11.415   3.900   8.027
   71POPC   GL1 1336  11.369   4.277   7.788
   71POPC   GL2 1337  11.026   4.331   7.762
   71POPC   C1A 1338  11.434   4.439   7.359
   71POPC   D2A 1339  11.492   4.245   6.978
   71POPC   C3A 1340  11.388   4.333   6.567
   71POPC   C4A 1341  11.395   4.022   6.231
   71POPC   C1B 1342  10.956   4.307   7.357
   71POPC   C2B 1343  10.994   4.143   6.944
   71POPC   C3B 1344  10.897   4.423   6.582
   71POPC   C4B 1345  10.966   4.281   6.184
   72POPC   NC3 1346   9.355   4.272   8.078
   72POPC   PO4 1347   9.994   3.880   8.132
   72POPC   GL1 1348   9.826   3.948   7.715
   72POPC   GL2 1349   9.985   4.207   7.539
   72POPC   C1A 1350   9.587   3.806   7.337
   72POPC   D2A 1351   9.331   3.901   6.934
   72POPC   C3A 1352   9.431   3.885   6.490
   72POPC   C4A 1353   9.788   4.048   6.292
   72POPC   C1B 1354   9.749   4.557   7.341
   72POPC   C2B 1355   9.629   4.688   6.934
   72POPC   C3B 1356   9.616   4.468   6.536
   72POPC   C4B 1357   9.370   4.371   6.183
   73POPC   NC3 1358   2.677   8.120   8.046
   73POPC   PO4 1359   2.189   7.464   8.256
   73POPC   GL1 1360   2.114   7.449   7.833
   73POPC   GL2 1361   1.792   7.341   7.781
   73POPC   C1A 1362   2.140   7.474   7.381
   73POPC   D2A 1363   2.196   7.742   7.024
   73POPC   C3A 1364   2.190   7.532   6.623
   73POPC   C4A 1365   2.025   7.610   6.187
   73POPC   C1B 1366   1.649   7.401   7.340
   73POPC   C2B 1367   1.851   7.284   6.961
   73POPC   C3B 1368   1.724   7.334   6.543
   73POPC   C4B 1369   1.862   7.119   6.171
   74POPC   NC3 1370  10.585   1.288   8.349
   74POPC   PO4 1371  10.104   0.819   8.253
   74POPC   GL1 1372  10.240   1.022   7.843
   74POPC   GL2 1373  10.241   1.401   7.803
   74POPC   C1A 1374  10.358   1.054   7.402
   74POPC   D2A 1375  10.026   0.995   7.102
   74POPC   C3A 1376  10.074   1.046   6.654
   74POPC   C4A 1377  10.477   1.054   6.384
   74POPC   C1B 1378  10.153   1.501   7.330
   74POPC   C2B 1379  10.324   1.399   6.925
   74POPC   C3B 1380  10.259   1.510   6.489
   74POPC   C4B 1381  10.388   1.461   6.030
   75POPC   NC3 1382   0.555   4.738   8.032
   75POPC   PO4 1383   0.507   5.410   8.005
   75POPC   GL1 1384   0.526   5.105   7.670
   75POPC   GL2 1385   0.173   5.038   7.703
   75POPC   C1A 1386   0.652   5.057   7.233
   75POPC   D2A 1387   0.397   5.133   6.851
   75POPC   C3A 1388   0.591   5.059   6.476
   75POPC   C4A 1389   0.869   4.766   6.361
   75POPC   C1B 1390   0.172   4.886   7.269
   75POPC   C2B 1391   0.100   4.727   6.838
   75POPC   C3B 1392   0.106   4.942   6.420
   75POPC   C4B 1393   0.265   5.335   6.172
   76POPC   NC3 1394   0.987   7.448   8.098
   76POPC   PO4 1395   0.416   7.709   8.324
   76POPC   GL1 1396   0.564   7.665   7.834
   76POPC   GL2 1397   0.437   7.369   7.650
   76POPC   C1A 1398   0.554   7.712   7.332
   76POPC   D2A 1399   0.316   7.520   7.017
   76POPC   C3A 1400   0.504   7.622   6.638
   76POPC   C4A 1401   0.459   7.513   6.246
   76POPC   C1B 1402   0.509   7.107   7.320
   76POPC   C2B 1403   0.434   6.979   6.939
   76POPC   C3B 1404   0.375   7.131   6.572
   76POPC   C4B 1405   0.687   7.055   6.289
   77POPC   NC3 1406   2.041   4.364   8.044
   77POPC   PO4 1407   1.508   3.821   8.079
   77POPC   GL1 1408   1.569   4.141   7.736
   77POPC   GL2 1409   1.913   4.168   7.585
   77POPC   C1A 1410   1.523   4.321   7.292
   77POPC   D2A 1411   1.750   4.096   6.939
   77POPC   C3A 1412   1.618   4.151   6.494
   77POPC   C4A 1413   1.693   4.510   6.212
   77POPC   C1B 1414   2.196   4.029   7.222
   77POPC   C2B 1415   2.303   4.126   6.789
   77POPC   C3B 1416   2.116   4.350   6.441
   77POPC   C4B 1417   2.232   4.714   6.193
   78POPC   NC3 1418   7.061  10.258   8.023
   78POPC   PO4 1419   7.543  10.695   8.076
   78POPC   GL1 1420   7.485  10.479   7.657
   78POPC   GL2 1421   7.551  10.139   7.598
   78POPC   C1A 1422   7.315  10.636   7.232
   78POPC   D2A 1423   7.091  10.655   6.828
   78POPC   C3A 1424   7.402  10.519   6.534
   78POPC   C4A 1425   7.631  10.779   6.263
   78POPC   C1B 1426   7.179  10.163   7.347
   78POPC   C2B 1427   7.201  10.189   6.921
   78POPC   C3B 1428   7.199  10.047   6.500
   78POPC   C4B 1429   7.039  10.157   6.135
   79POPC   NC3 1430   2.008   1.106   8.078
   79POPC   PO4 1431   2.270   1.583   7.814
   79POPC   GL1 1432   2.047   1.314   7.573
   79POPC   GL2 1433   1.715   1.310   7.698
   79POPC   C1A 1434   2.137   1.146   7.155
   79POPC   D2A 1435   2.311   0.958   6.764
   79POPC   C3A 1436   2.111   1.181   6.401
   79POPC   C4A 1437   2.239   1.475   6.093
   79POPC   C1B 1438   1.632   1.124   7.295
   79POPC   C2B 1439   1.537   1.291   6.900
   79POPC   C3B 1440   1.577   1.151   6.492
   79POPC   C4B 1441   1.681   0.997   6.120
   80POPC   NC3 1442  10.397   9.116   8.180
   80POPC   PO4 1443  10.625   9.728   8.277
   80POPC   GL1 1444  10.542   9.700   7.802
   80POPC   GL2 1445  10.181   9.774   7.706
   80POPC   C1A 1446  10.465   9.550   7.335
   80POPC   D2A 1447  10.311   9.657   6.898
   80POPC   C3A 1448  10.370   9.577   6.449
   80POPC   C4A 1449  10.609   9.875   6.206
   80POPC   C1B 1450  10.149   9.982   7.286
   80POPC   C2B 1451   9.970  10.040   6.841
   80POPC   C3B 1452  10.154  10.100   6.392
   80POPC   C4B 1453  10.172   9.903   5.943
   81POPC   NC3 1454   1.874   3.560   7.986
   81POPC   PO4 1455   2.411   3.960   8.028
   81POPC   GL1 1456   2.215   3.750   7.649
   81POPC   GL2 1457   2.166   3.399   7.611
   81POPC   C1A 1458   1.826   3.700   7.349
   81POPC   D2A 1459   1.779   3.558   6.922
   81POPC   C3A 1460   1.988   3.782   6.596
   81POPC   C4A 1461   2.316   3.898   6.314
   81POPC   C1B 1462   2.036   3.219   7.227
   81POPC   C2B 1463   1.976   3.041   6.831
   81POPC   C3B 1464   1.988   3.273   6.470
   81POPC   C4B 1465   1.795   3.567   6.189
   82POPC   NC3 1466  10.306   2.115   8.004
   82POPC   PO4 1467   9.831   1.650   8.042
   82POPC   GL1 1468   9.675   1.731   7.638
   82POPC   GL2 1469   9.296   1.627   7.584
   82POPC   C1A 1470   9.902   1.954   7.304
   82POPC   D2A 1471  10.108   1.878   6.910
   82POPC   C3A 1472   9.865   1.841   6.498
   82POPC   C4A 1473   9.932   1.686   6.114
   82POPC   C1B 1474   9.407   1.869   7.222
   82POPC   C2B 1475   9.652   2.079   6.877
   82POPC   C3B 1476   9.596   2.330   6.475
   82POPC   C4B 1477   9.398   2.370   6.044
   83POPC   NC3 1478   0.830   5.685   8.199
   83POPC   PO4 1479   0.211   5.865   8.020
   83POPC   GL1 1480   0.357   5.755   7.655
   83POPC   GL2 1481   0.649   5.988   7.702
   83POPC   C1A 1482   0.316   5.455   7.316
   83POPC   D2A 1483   0.632   5.542   7.021
   83POPC   C3A 1484   0.484   5.570   6.593
   83POPC   C4A 1485   0.751   5.660   6.271
   83POPC   C1B 1486   0.505   6.085   7.271
   83POPC   C2B 1487   0.430   6.029   6.825
   83POPC   C3B 1488   0.431   6.043   6.364
   83POPC   C4B 1489   0.082   5.820   6.212
   84POPC   NC3 1490  10.345  10.112   8.104
   84POPC   PO4 1491  10.009  10.761   8.085
   84POPC   GL1 1492  10.171  10.446   7.719
   84POPC   GL2 1493  10.480  10.192   7.632
   84POPC   C1A 1494  10.301  10.510   7.278
   84POPC   D2A 1495  10.237  10.801   6.942
   84POPC   C3A 1496  10.258  10.637   6.548
   84POPC   C4A 1497  10.188  10.759   6.111
   84POPC   C1B 1498  10.811  10.392   7.406
   84POPC   C2B 1499  10.780  10.678   7.060
   84POPC   C3B 1500  10.810  10.652   6.611
   84POPC   C4B 1501  10.598  10.432   6.245
   85POPC   NC3 1502   4.432   0.429   7.881
   85POPC   PO4 1503   4.054  11.478   8.175
   85POPC   GL1 1504   3.934   0.171   7.716
   85POPC   GL2 1505   3.998   0.530   7.626
   85POPC   C1A 1506   4.012   0.239   7.216
   85POPC   D2A 1507   3.922   0.494   6.818
   85POPC   C3A 1508   4.045   0.315   6.395
   85POPC   C4A 1509   4.143   0.387   5.959
   85POPC   C1B 1510   4.326   0.643   7.297
   85POPC   C2B 1511   4.422   0.503   6.915
   85POPC   C3B 1512   4.406   0.662   6.520
   85POPC   C4B 1513   4.603   0.550   6.187
   86POPC   NC3 1514   1.947   1.810   8.064
   86POPC   PO4 1515   1.992   2.485   7.866
   86POPC   GL1 1516   2.102   2.240   7.578
   86POPC   GL2 1517   1.962   1.891   7.550
   86POPC   C1A 1518   2.125   2.334   7.149
   86POPC   D2A 1519   2.010   2.047   6.838
   86POPC   C3A 1520   2.073   2.218   6.427
   86POPC   C4A 1521   1.862   2.435   6.121
   86POPC   C1B 1522   1.838   1.617   7.204
   86POPC   C2B 1523   1.971   1.513   6.773
   86POPC   C3B 1524   1.808   1.608   6.356
   86POPC   C4B 1525   1.924   1.890   6.018
   87POPC   NC3 1526   9.563   3.723   8.097
   87POPC   PO4 1527   9.810   3.163   8.227
   87POPC   GL1 1528   9.758   3.339   7.776
   87POPC   GL2 1529   9.477   3.144   7.789
   87POPC   C1A 1530   9.846   3.371   7.278
   87POPC   D2A 1531   9.837   3.718   6.886
   87POPC   C3A 1532   9.802   3.538   6.455
   87POPC   C4A 1533   9.796   3.123   6.525
   87POPC   C1B 1534   9.372   3.198   7.360
   87POPC   C2B 1535   9.455   3.377   6.934
   87POPC   C3B 1536   9.314   3.285   6.524
   87POPC   C4B 1537   9.322   3.471   6.148
   88POPC   NC3 1538   8.754   9.024   8.162
   88POPC   PO4 1539   9.218   8.475   8.057
   88POPC   GL1 1540   8.910   8.703   7.749
   88POPC   GL2 1541   8.874   9.080   7.670
   88POPC   C1A 1542   8.700   8.763   7.331
   88POPC   D2A 1543   8.842   8.840   6.903
   88POPC   C3A 1544   8.696   8.662   6.517
   88POPC   C4A 1545   8.442   8.813   6.167
   88POPC   C1B 1546   8.997   9.222   7.227
   88POPC   C2B 1547   8.788   9.318   6.796
   88POPC   C3B 1548   8.825   9.156   6.335
   88POPC   C4B 1549   9.154   9.130   5.969
   89POPC   NC3 1550   2.654   1.378   8.013
   89POPC   PO4 1551   2.314   0.761   8.121
   89POPC   GL1 1552   2.435   0.983   7.674
   89POPC   GL2 1553   2.596   1.321   7.528
   89POPC   C1A 1554   2.637   0.937   7.225
   89POPC   D2A 1555   2.868   0.883   6.837
   89POPC   C3A 1556   2.703   0.940   6.432
   89POPC   C4A 1557   2.415   0.861   6.159
   89POPC   C1B 1558   3.033   1.378   7.377
   89POPC   C2B 1559   3.137   1.323   6.939
   89POPC   C3B 1560   3.075   1.268   6.504
   89POPC   C4B 1561   2.716   1.439   6.256
   90POPC   NC3 1562   9.614   8.238   8.094
   90POPC   PO4 1563   9.427   7.681   8.061
   90POPC   GL1 1564   9.314   8.070   7.711
   90POPC   GL2 1565   9.540   8.383   7.639
   90POPC   C1A 1566   9.270   8.261   7.268
   90POPC   D2A 1567   9.435   8.084   6.945
   90POPC   C3A 1568   9.545   8.182   6.591
   90POPC   C4A 1569   9.455   7.947   6.223
   90POPC   C1B 1570   9.735   8.036   7.337
   90POPC   C2B 1571   9.885   7.858   6.888
   90POPC   C3B 1572   9.942   7.923   6.406
   90POPC   C4B 1573   9.797   8.348   6.195
   91POPC   NC3 1574   6.696   1.647   8.007
   91POPC   PO4 1575   7.054   2.208   7.939
   91POPC   GL1 1576   6.984   1.884   7.609
   91POPC   GL2 1577   6.597   1.814   7.554
   91POPC   C1A 1578   6.892   1.848   7.161
   91POPC   D2A 1579   6.773   2.080   6.810
   91POPC   C3A 1580   6.869   1.815   6.490
   91POPC   C4A 1581   6.723   1.683   6.156
   91POPC   C1B 1582   6.227   1.777   7.282
   91POPC   C2B 1583   6.123   1.938   6.880
   91POPC   C3B 1584   6.352   2.010   6.518
   91POPC   C4B 1585   6.181   2.334   6.247
   92POPC   NC3 1586   6.285   3.393   8.275
   92POPC   PO4 1587   6.615   2.987   8.135
   92POPC   GL1 1588   6.476   3.239   7.746
   92POPC   GL2 1589   6.495   3.592   7.835
   92POPC   C1A 1590   6.441   3.192   7.244
   92POPC   D2A 1591   6.661   3.201   6.820
   92POPC   C3A 1592   6.429   3.245   6.412
   92POPC   C4A 1593   6.478   3.192   5.953
   92POPC   C1B 1594   6.640   3.628   7.414
   92POPC   C2B 1595   6.466   3.653   6.989
   92POPC   C3B 1596   6.655   3.672   6.581
   92POPC   C4B 1597   6.515   3.705   6.152
   93POPC   NC3 1598   8.115   1.346   8.179
   93POPC   PO4 1599   7.785   0.764   7.975
   93POPC   GL1 1600   7.944   1.056   7.623
   93POPC   GL2 1601   8.268   1.240   7.642
   93POPC   C1A 1602   7.952   1.310   7.209
   93POPC   D2A 1603   7.643   1.357   6.842
   93POPC   C3A 1604   7.832   1.158   6.474
   93POPC   C4A 1605   7.956   1.102   6.001
   93POPC   C1B 1606   8.292   0.857   7.314
   93POPC   C2B 1607   8.320   0.773   6.841
   93POPC   C3B 1608   8.265   0.902   6.398
   93POPC   C4B 1609   8.292   1.354   6.283
   94POPC   NC3 1610   6.371  10.739   8.095
   94POPC   PO4 1611   6.621  10.054   8.102
   94POPC   GL1 1612   6.529  10.346   7.782
   94POPC   GL2 1613   6.830  10.404   7.608
   94POPC   C1A 1614   6.378  10.551   7.395
   94POPC   D2A 1615   6.495  10.566   6.914
   94POPC   C3A 1616   6.266  10.687   6.531
   94POPC   C4A 1617   6.232  10.625   6.058
   94POPC   C1B 1618   6.627  10.113   7.324
   94POPC   C2B 1619   6.720  10.036   6.911
   94POPC   C3B 1620   6.773  10.307   6.572
   94POPC   C4B 1621   6.484  10.227   6.291
   95POPC   NC3 1622   6.882   2.629   8.033
   95POPC   PO4 1623   7.564   2.675   8.196
   95POPC   GL1 1624   7.347   2.723   7.766
   95POPC   GL2 1625   7.375   2.432   7.602
   95POPC   C1A 1626   7.039   2.709   7.360
   95POPC   D2A 1627   7.074   2.479   6.926
   95POPC   C3A 1628   7.065   2.714   6.504
   95POPC   C4A 1629   6.909   3.087   6.239
   95POPC   C1B 1630   7.502   2.580   7.200
   95POPC   C2B 1631   7.564   2.357   6.835
   95POPC   C3B 1632   7.596   2.527   6.444
   95POPC   C4B 1633   7.438   2.856   6.160
   96POPC   NC3 1634  11.107   2.107   8.108
   96POPC   PO4 1635  11.422   1.483   8.042
   96POPC   GL1 1636  11.287   1.797   7.741
   96POPC   GL2 1637  11.373   1.565   7.506
   96POPC   C1A 1638  11.079   1.971   7.353
   96POPC   D2A 1639  11.071   1.788   6.941
   96POPC   C3A 1640  11.148   2.040   6.563
   96POPC   C4A 1641  11.170   1.860   6.155
   96POPC   C1B 1642   0.050   1.819   7.190
   96POPC   C2B 1643   0.042   1.787   6.767
   96POPC   C3B 1644   0.141   1.925   6.400
   96POPC   C4B 1645   0.265   1.542   6.276
   97POPC   NC3 1646   5.230   0.758   8.142
   97POPC   PO4 1647   5.084   1.358   8.036
   97POPC   GL1 1648   4.994   1.121   7.685
   97POPC   GL2 1649   5.248   0.923   7.580
   97POPC   C1A 1650   4.763   1.099   7.283
   97POPC   D2A 1651   4.665   0.950   6.854
   97POPC   C3A 1652   4.923   0.843   6.509
   97POPC   C4A 1653   4.741   1.055   6.163
   97POPC   C1B 1654   5.234   1.293   7.287
   97POPC   C2B 1655   5.050   1.349   6.885
   97POPC   C3B 1656   5.052   1.330   6.451
   97POPC   C4B 1657   5.307   1.416   6.107
   98POPC   NC3 1658   0.306   3.657   7.857
   98POPC   PO4 1659   0.307   3.060   8.233
   98POPC   GL1 1660   0.597   3.094   7.750
   98POPC   GL2 1661   0.832   3.385   7.708
   98POPC   C1A 1662   0.486   3.149   7.239
   98POPC   D2A 1663   0.056   3.193   6.985
   98POPC   C3A 1664   0.052   3.083   6.536
   98POPC   C4A 1665   0.323   3.270   6.198
   98POPC   C1B 1666   0.766   3.580   7.263
   98POPC   C2B 1667   0.569   3.580   6.812
   98POPC   C3B 1668   0.636   3.663   6.336
   98POPC   C4B 1669   0.611   3.654   5.847
   99POPC   NC3 1670  10.268   6.586   7.958
   99POPC   PO4 1671  10.776   7.026   7.760
   99POPC   GL1 1672  10.438   6.899   7.593
   99POPC   GL2 1673  10.600   6.559   7.581
   99POPC   C1A 1674  10.456   6.830   7.169
   99POPC   D2A 1675  10.467   6.688   6.734
   99POPC   C3A 1676  10.586   6.957   6.418
   99POPC   C4A 1677  10.336   7.043   6.098
   99POPC   C1B 1678  10.484   6.318   7.236
   99POPC   C2B 1679  10.288   6.217   6.858
   99POPC   C3B 1680  10.390   6.271   6.425
   99POPC   C4B 1681  10.231   6.163   6.025
  100POPC   NC3 1682  10.521   5.838   8.080
  100POPC   PO4 1683   9.933   6.192   7.968
  100POPC   GL1 1684  10.301   6.120   7.692
  100POPC   GL2 1685  10.192   5.784   7.681
  100POPC   C1A 1686  10.591   5.841   7.400
  100POPC   D2A 1687  10.761   5.644   7.032
  100POPC   C3A 1688  10.686   5.897   6.677
  100POPC   C4A 1689  10.690   5.895   6.233
  100POPC   C1B 1690  10.116   5.910   7.254
  100POPC   C2B 1691  10.249   5.709   6.877
  100POPC   C3B 1692  10.232   5.768   6.433
  100POPC   C4B 1693  10.293   5.660   5.982
  101POPC   NC3 1694  11.438   2.864   8.033
  101POPC   PO4 1695  10.810   3.131   8.232
  101POPC   GL1 1696  10.994   2.921   7.756
  101POPC   GL2 1697  11.288   2.878   7.560
  101POPC   C1A 1698  10.940   3.015   7.249
  101POPC   D2A 1699  11.181   2.791   6.955
  101POPC   C3A 1700  10.970   2.668   6.618
  101POPC   C4A 1701  11.195   2.770   6.316
  101POPC   C1B 1702  11.218   2.477   7.363
  101POPC   C2B 1703  11.395   2.285   6.983
  101POPC   C3B 1704   0.027   2.440   6.577
  101POPC   C4B 1705  11.382   2.319   6.171
  102POPC   NC3 1706   3.638   2.941   8.043
  102POPC   PO4 1707   3.137   2.460   8.035
  102POPC   GL1 1708   3.317   2.702   7.705
  102POPC   GL2 1709   3.664   2.557   7.655
  102POPC   C1A 1710   3.267   2.892   7.290
  102POPC   D2A 1711   3.126   2.789   6.857
  102POPC   C3A 1712   3.308   2.939   6.457
  102POPC   C4A 1713   3.305   2.875   5.984
  102POPC   C1B 1714   3.568   2.444   7.209
  102POPC   C2B 1715   3.635   2.604   6.767
  102POPC   C3B 1716   3.686   2.600   6.311
  102POPC   C4B 1717   3.608   2.466   5.892
  103POPC   NC3 1718   9.530   7.242   8.119
  103POPC   PO4 1719  10.188   7.033   8.092
  103POPC   GL1 1720   9.924   7.074   7.740
  103POPC   GL2 1721   9.814   7.423   7.703
  103POPC   C1A 1722   9.757   6.984   7.313
  103POPC   D2A 1723   9.763   7.202   6.883
  103POPC   C3A 1724   9.613   7.031   6.435
  103POPC   C4A 1725   9.788   6.953   5.992
  103POPC   C1B 1726   9.499   7.591   7.401
  103POPC   C2B 1727   9.426   7.583   6.968
  103POPC   C3B 1728   9.566   7.576   6.557
  103POPC   C4B 1729   9.297   7.412   6.254
  104POPC   NC3 1730   5.443  10.343   8.351
  104POPC   PO4 1731   5.911   9.753   8.181
  104POPC   GL1 1732   5.734   9.995   7.836
  104POPC   GL2 1733   5.879   9.714   7.660
  104POPC   C1A 1734   5.546   9.979   7.390
  104POPC   D2A 1735   5.804   9.892   6.991
  104POPC   C3A 1736   5.681   9.918   6.554
  104POPC   C4A 1737   5.521   9.799   6.116
  104POPC   C1B 1738   5.724   9.491   7.286
  104POPC   C2B 1739   5.858   9.415   6.853
  104POPC   C3B 1740   5.741   9.426   6.417
  104POPC   C4B 1741   6.047   9.325   6.116
  105POPC   NC3 1742   1.999  11.383   8.145
  105POPC   PO4 1743   1.746  10.797   8.052
  105POPC   GL1 1744   1.776  11.118   7.716
  105POPC   GL2 1745   2.095  11.308   7.662
  105POPC   C1A 1746   1.877  11.080   7.281
  105POPC   D2A 1747   1.708  11.108   6.901
  105POPC   C3A 1748   1.973  11.077   6.548
  105POPC   C4A 1749   1.951  10.900   6.153
  105POPC   C1B 1750   2.297  11.443   7.295
  105POPC   C2B 1751   2.131  11.403   6.891
  105POPC   C3B 1752   2.350  11.440   6.487
  105POPC   C4B 1753   2.114  11.377   6.129
  106POPC   NC3 1754   4.233  10.042   7.999
  106POPC   PO4 1755   4.727   9.534   8.054
  106POPC   GL1 1756   4.514   9.736   7.715
  106POPC   GL2 1757   4.186   9.581   7.691
  106POPC   C1A 1758   4.473   9.794   7.271
  106POPC   D2A 1759   4.316   9.616   6.874
  106POPC   C3A 1760   4.368   9.915   6.534
  106POPC   C4A 1761   4.625   9.904   6.194
  106POPC   C1B 1762   3.959   9.643   7.293
  106POPC   C2B 1763   3.826   9.457   6.885
  106POPC   C3B 1764   3.940   9.615   6.467
  106POPC   C4B 1765   4.230   9.603   6.117
  107POPC   NC3 1766   2.672   9.532   8.046
  107POPC   PO4 1767   2.289  10.013   7.862
  107POPC   GL1 1768   2.668   9.825   7.625
  107POPC   GL2 1769   3.032   9.676   7.685
  107POPC   C1A 1770   2.810   9.887   7.234
  107POPC   D2A 1771   2.749   9.965   6.821
  107POPC   C3A 1772   2.420   9.848   6.642
  107POPC   C4A 1773   2.582   9.639   6.331
  107POPC   C1B 1774   2.980   9.405   7.303
  107POPC   C2B 1775   2.850   9.469   6.879
  107POPC   C3B 1776   3.050   9.555   6.495
  107POPC   C4B 1777   2.926   9.316   6.094
  108POPC   NC3 1778   6.869   8.719   8.012
  108POPC   PO4 1779   7.565   8.533   8.052
  108POPC   GL1 1780   7.525   8.841   7.725
  108POPC   GL2 1781   7.202   8.990   7.706
  108POPC   C1A 1782   7.467   8.831   7.273
  108POPC   D2A 1783   7.364   8.697   6.844
  108POPC   C3A 1784   7.621   8.787   6.501
  108POPC   C4A 1785   7.428   8.645   6.153
  108POPC   C1B 1786   7.123   9.227   7.323
  108POPC   C2B 1787   7.304   9.202   6.892
  108POPC   C3B 1788   7.171   9.023   6.470
  108POPC   C4B 1789   7.316   9.144   6.046
  109POPC   NC3 1790  10.509   2.885   7.914
  109POPC   PO4 1791  10.740   2.217   7.864
  109POPC   GL1 1792  10.480   2.463   7.599
  109POPC   GL2 1793  10.115   2.398   7.481
  109POPC   C1A 1794  10.717   2.551   7.246
  109POPC   D2A 1795  10.881   2.272   6.945
  109POPC   C3A 1796  10.681   2.253   6.531
  109POPC   C4A 1797  10.448   2.559   6.366
  109POPC   C1B 1798  10.251   2.777   7.234
  109POPC   C2B 1799  10.573   2.877   6.889
  109POPC   C3B 1800  10.576   3.022   6.478
  109POPC   C4B 1801  10.211   3.158   6.219
  110POPC   NC3 1802   9.638   8.791   8.062
  110POPC   PO4 1803   9.305   9.296   7.839
  110POPC   GL1 1804   9.372   8.898   7.628
  110POPC   GL2 1805   9.717   8.851   7.554
  110POPC   C1A 1806   9.286   8.772   7.204
  110POPC   D2A 1807   9.314   9.023   6.827
  110POPC   C3A 1808   9.208   8.856   6.445
  110POPC   C4A 1809   9.427   8.714   6.101
  110POPC   C1B 1810   9.768   8.548   7.229
  110POPC   C2B 1811   9.901   8.476   6.826
  110POPC   C3B 1812   9.704   8.705   6.533
  110POPC   C4B 1813   9.917   8.835   6.170
  111POPC   NC3 1814   3.106  10.430   8.117
  111POPC   PO4 1815   2.561  10.759   8.074
  111POPC   GL1 1816   2.829  10.677   7.741
  111POPC   GL2 1817   2.744  10.326   7.755
  111POPC   C1A 1818   3.012  10.720   7.350
  111POPC   D2A 1819   2.759  10.773   6.976
  111POPC   C3A 1820   2.972  10.733   6.601
  111POPC   C4A 1821   2.797  10.628   6.223
  111POPC   C1B 1822   2.615  10.375   7.333
  111POPC   C2B 1823   2.384  10.408   6.966
  111POPC   C3B 1824   2.550  10.380   6.595
  111POPC   C4B 1825   2.569  10.133   6.237
  112POPC   NC3 1826   7.812  11.128   7.982
  112POPC   PO4 1827   8.435  10.894   7.954
  112POPC   GL1 1828   8.208  11.155   7.631
  112POPC   GL2 1829   7.898  11.416   7.588
  112POPC   C1A 1830   8.229  10.989   7.217
  112POPC   D2A 1831   8.439  10.768   6.913
  112POPC   C3A 1832   8.461  10.993   6.582
  112POPC   C4A 1833   8.488  11.120   6.183
  112POPC   C1B 1834   8.075  11.484   7.240
  112POPC   C2B 1835   8.020  11.306   6.873
  112POPC   C3B 1836   8.153  11.386   6.477
  112POPC   C4B 1837   7.981  11.149   6.139
  113POPC   NC3 1838   2.417   2.349   8.000
  113POPC   PO4 1839   2.492   1.733   8.273
  113POPC   GL1 1840   2.610   1.920   7.799
  113POPC   GL2 1841   2.857   2.113   7.784
  113POPC   C1A 1842   2.428   1.951   7.334
  113POPC   D2A 1843   2.519   1.996   6.912
  113POPC   C3A 1844   2.356   1.785   6.521
  113POPC   C4A 1845   2.425   1.942   6.103
  113POPC   C1B 1846   2.923   1.933   7.365
  113POPC   C2B 1847   3.056   1.998   6.932
  113POPC   C3B 1848   3.101   2.211   6.547
  113POPC   C4B 1849   2.923   1.971   6.207
  114POPC   NC3 1850   4.392   9.214   8.050
  114POPC   PO4 1851   3.777   9.223   8.063
  114POPC   GL1 1852   3.860   9.169   7.625
  114POPC   GL2 1853   4.098   8.928   7.686
  114POPC   C1A 1854   4.108   9.171   7.219
  114POPC   D2A 1855   4.100   8.984   6.794
  114POPC   C3A 1856   4.224   9.171   6.382
  114POPC   C4A 1857   4.283   9.126   5.910
  114POPC   C1B 1858   4.351   8.737   7.356
  114POPC   C2B 1859   4.571   8.748   6.964
  114POPC   C3B 1860   4.578   8.835   6.516
  114POPC   C4B 1861   4.319   8.682   6.159
  115POPC   NC3 1862  10.998   1.390   7.856
  115POPC   PO4 1863  10.545   1.729   8.206
  115POPC   GL1 1864  10.628   1.737   7.725
  115POPC   GL2 1865  10.341   1.886   7.572
  115POPC   C1A 1866  10.668   1.632   7.252
  115POPC   D2A 1867  10.588   1.839   6.818
  115POPC   C3A 1868  10.744   1.727   6.428
  115POPC   C4A 1869  10.683   1.865   5.983
  115POPC   C1B 1870  10.466   2.104   7.235
  115POPC   C2B 1871  10.345   2.369   6.920
  115POPC   C3B 1872  10.108   2.269   6.575
  115POPC   C4B 1873  10.309   1.983   6.294
  116POPC   NC3 1874  10.942   6.745   8.075
  116POPC   PO4 1875  11.463   6.346   8.205
  116POPC   GL1 1876  11.393   6.357   7.759
  116POPC   GL2 1877  11.282   6.697   7.696
  116POPC   C1A 1878  11.495   6.241   7.320
  116POPC   D2A 1879  11.265   6.319   6.907
  116POPC   C3A 1880  11.493   6.191   6.582
  116POPC   C4A 1881   0.057   6.368   6.203
  116POPC   C1B 1882  11.063   6.531   7.364
  116POPC   C2B 1883  10.908   6.678   6.993
  116POPC   C3B 1884  11.017   6.734   6.576
  116POPC   C4B 1885  11.205   6.736   6.192
  117POPC   NC3 1886   2.147  10.451   7.950
  117POPC   PO4 1887   1.565   9.950   8.014
  117POPC   GL1 1888   1.546  10.204   7.625
  117POPC   GL2 1889   1.697  10.530   7.627
  117POPC   C1A 1890   1.680  10.183   7.189
  117POPC   D2A 1891   2.021  10.047   6.908
  117POPC   C3A 1892   2.021  10.109   6.456
  117POPC   C4A 1893   1.810  10.381   6.160
  117POPC   C1B 1894   1.995  10.575   7.298
  117POPC   C2B 1895   1.844  10.584   6.889
  117POPC   C3B 1896   2.062  10.586   6.559
  117POPC   C4B 1897   2.287  10.537   6.188
  118POPC   NC3 1898   2.812   0.521   8.047
  118POPC   PO4 1899   2.250   0.201   7.953
  118POPC   GL1 1900   2.439   0.460   7.693
  118POPC   GL2 1901   2.716   0.249   7.619
  118POPC   C1A 1902   2.407   0.491   7.267
  118POPC   D2A 1903   2.427   0.296   6.894
  118POPC   C3A 1904   2.481   0.492   6.535
  118POPC   C4A 1905   2.322   0.360   6.159
  118POPC   C1B 1906   2.825   0.164   7.198
  118POPC   C2B 1907   2.925   0.266   6.771
  118POPC   C3B 1908   2.854   0.185   6.351
  118POPC   C4B 1909   3.094   0.158   5.985
  119POPC   NC3 1910   2.934  11.031   8.108
  119POPC   PO4 1911   3.074   0.117   8.034
  119POPC   GL1 1912   2.973  11.309   7.686
  119POPC   GL2 1913   2.604  11.208   7.736
  119POPC   C1A 1914   2.813  11.176   7.282
  119POPC   D2A 1915   2.621  11.285   6.906
  119POPC   C3A 1916   2.828  11.221   6.544
  119POPC   C4A 1917   2.942  11.167   6.141
  119POPC   C1B 1918   2.385  10.923   7.412
  119POPC   C2B 1919   2.254  10.907   6.969
  119POPC   C3B 1920   2.456  10.891   6.570
  119POPC   C4B 1921   2.467  11.017   6.160
  120POPC   NC3 1922   1.527  10.399   8.113
  120POPC   PO4 1923   0.946  10.728   8.117
  120POPC   GL1 1924   1.203  10.630   7.778
  120POPC   GL2 1925   1.024  10.332   7.724
  120POPC   C1A 1926   1.116  10.706   7.342
  120POPC   D2A 1927   0.857  10.565   6.974
  120POPC   C3A 1928   1.098  10.609   6.565
  120POPC   C4A 1929   1.545  10.694   6.443
  120POPC   C1B 1930   1.120  10.191   7.310
  120POPC   C2B 1931   1.255  10.249   6.918
  120POPC   C3B 1932   1.551  10.193   6.635
  120POPC   C4B 1933   1.345  10.181   6.261
  121POPC   NC3 1934   9.821   1.187   8.108
  121POPC   PO4 1935   9.148   1.350   8.007
  121POPC   GL1 1936   9.463   1.142   7.719
  121POPC   GL2 1937   9.801   1.225   7.608
  121POPC   C1A 1938   9.560   0.866   7.343
  121POPC   D2A 1939   9.557   1.018   6.910
  121POPC   C3A 1940   9.290   1.066   6.573
  121POPC   C4A 1941   9.522   0.947   6.209
  121POPC   C1B 1942   9.666   1.409   7.248
  121POPC   C2B 1943   9.802   1.476   6.857
  121POPC   C3B 1944   9.702   1.362   6.456
  121POPC   C4B 1945   9.998   1.180   6.168
  122POPC   NC3 1946   9.900   0.362   8.131
  122POPC   PO4 1947   9.476   0.870   8.164
  122POPC   GL1 1948   9.765   0.742   7.818
  122POPC   GL2 1949   9.593   0.438   7.727
  122POPC   C1A 1950   9.998   0.571   7.445
  122POPC   D2A 1951  10.043   0.329   7.045
  122POPC   C3A 1952   9.818   0.522   6.692
  122POPC   C4A 1953   9.967   0.682   6.303
  122POPC   C1B 1954   9.429   0.351   7.325
  122POPC   C2B 1955   9.325   0.541   6.943
  122POPC   C3B 1956   9.297   0.356   6.556
  122POPC   C4B 1957   9.552   0.418   6.211
  123POPC   NC3 1958   5.050  11.423   8.349
  123POPC   PO4 1959   5.588   0.026   7.884
  123POPC   GL1 1960   5.363  11.254   7.591
  123POPC   GL2 1961   5.034  11.132   7.747
  123POPC   C1A 1962   5.279  11.341   7.147
  123POPC   D2A 1963   5.236   0.026   6.741
  123POPC   C3A 1964   5.164  11.239   6.419
  123POPC   C4A 1965   5.434  11.031   6.147
  123POPC   C1B 1966   4.825  11.220   7.378
  123POPC   C2B 1967   4.818  11.170   6.944
  123POPC   C3B 1968   4.708  11.375   6.608
  123POPC   C4B 1969   4.672  11.361   6.194
  124POPC   NC3 1970   0.392   9.109   8.266
  124POPC   PO4 1971   0.569   8.567   8.038
  124POPC   GL1 1972   0.538   8.829   7.674
  124POPC   GL2 1973   0.185   8.936   7.689
  124POPC   C1A 1974   0.522   8.881   7.213
  124POPC   D2A 1975   0.343   9.055   6.851
  124POPC   C3A 1976   0.631   8.893   6.556
  124POPC   C4A 1977   0.615   8.523   6.317
  124POPC   C1B 1978   0.188   8.559   7.398
  124POPC   C2B 1979   0.208   8.534   6.923
  124POPC   C3B 1980   0.164   8.670   6.473
  124POPC   C4B 1981   0.334   9.034   6.167
  125POPC   NC3 1982   4.171   0.400   8.347
  125POPC   PO4 1983   3.522   0.537   8.283
  125POPC   GL1 1984   3.493   0.490   7.782
  125POPC   GL2 1985   3.264   0.243   7.585
  125POPC   C1A 1986   3.593   0.506   7.299
  125POPC   D2A 1987   3.541   0.184   6.945
  125POPC   C3A 1988   3.534   0.337   6.491
  125POPC   C4A 1989   3.624   0.223   6.053
  125POPC   C1B 1990   3.091   0.575   7.294
  125POPC   C2B 1991   3.290   0.625   6.862
  125POPC   C3B 1992   3.116   0.628   6.413
  125POPC   C4B 1993   3.303   0.635   5.984
  126POPC   NC3 1994   0.931   8.864   8.043
  126POPC   PO4 1995   1.462   8.681   8.474
  126POPC   GL1 1996   1.443   8.768   7.915
  126POPC   GL2 1997   1.242   9.073   7.718
  126POPC   C1A 1998   1.532   8.801   7.394
  126POPC   D2A 1999   1.685   8.812   6.932
  126POPC   C3A 2000   1.729   9.105   6.590
  126POPC   C4A 2001   1.519   9.058   6.193
  126POPC   C1B 2002   1.017   8.845   7.377
  126POPC   C2B 2003   0.964   8.971   6.961
  126POPC   C3B 2004   1.185   8.930   6.613
  126POPC   C4B 2005   1.065   8.813   6.253
  127POPC   NC3 2006   9.652  10.523   7.899
  127POPC   PO4 2007   9.160  10.234   8.154
  127POPC   GL1 2008   9.355  10.161   7.662
  127POPC   GL2 2009   9.745  10.213   7.518
  127POPC   C1A 2010   9.402  10.200   7.170
  127POPC   D2A 2011   9.448   9.985   6.790
  127POPC   C3A 2012   9.427  10.254   6.428
  127POPC   C4A 2013   9.370  10.191   5.981
  127POPC   C1B 2014   9.788  10.547   7.216
  127POPC   C2B 2015   9.756  10.514   6.775
  127POPC   C3B 2016   9.795  10.576   6.352
  127POPC   C4B 2017   9.873  10.337   5.993
  128POPC   NC3 2018   3.427   8.975   7.901
  128POPC   PO4 2019   2.957   8.484   7.869
  128POPC   GL1 2020   3.257   8.674   7.520
  128POPC   GL2 2021   3.646   8.680   7.546
  128POPC   C1A 2022   3.138   8.806   7.092
  128POPC   D2A 2023   3.187   8.502   6.745
  128POPC   C3A 2024   3.226   8.703   6.393
  128POPC   C4A 2025   3.080   9.060   6.519
  128POPC   C1B 2026   3.627   8.969   7.196
  128POPC   C2B 2027   3.562   8.897   6.760
  128POPC   C3B 2028   3.781   8.863   6.380
  128POPC   C4B 2029   3.848   8.786   5.957
  129POPC   NC3 2030  10.534   0.690   8.331
  129POPC   PO4 2031  10.311   0.210   7.993
  129POPC   GL1 2032  10.500   0.301   7.632
  129POPC   GL2 2033  10.563   0.643   7.662
  129POPC   C1A 2034  10.490   0.095   7.208
  129POPC   D2A 2035  10.484   0.126   6.762
  129POPC   C3A 2036  10.144   0.157   6.486
  129POPC   C4A 2037  10.211   0.295   6.050
  129POPC   C1B 2038  10.452   0.600   7.218
  129POPC   C2B 2039  10.341   0.650   6.805
  129POPC   C3B 2040  10.457   0.547   6.430
  129POPC   C4B 2041  10.763   0.635   6.184
  130POPC   NC3 2042   2.495   7.161   8.076
  130POPC   PO4 2043   2.639   7.686   7.920
  130POPC   GL1 2044   2.575   7.365   7.596
  130POPC   GL2 2045   2.333   7.051   7.596
  130POPC   C1A 2046   2.615   7.467   7.152
  130POPC   D2A 2047   2.661   7.776   6.811
  130POPC   C3A 2048   2.667   7.557   6.425
  130POPC   C4A 2049   2.393   7.262   6.222
  130POPC   C1B 2050   2.307   7.064   7.109
  130POPC   C2B 2051   2.555   7.130   6.718
  130POPC   C3B 2052   2.716   6.890   6.344
  130POPC   C4B 2053   2.619   6.943   5.871
  131POPC   NC3 2054   1.111   1.873   8.066
  131POPC   PO4 2055   1.679   2.272   8.235
  131POPC   GL1 2056   1.578   2.112   7.811
  131POPC   GL2 2057   1.240   2.242   7.726
  131POPC   C1A 2058   1.607   2.205   7.343
  131POPC   D2A 2059   1.379   2.173   6.949
  131POPC   C3A 2060   1.574   2.007   6.580
  131POPC   C4A 2061   1.484   2.092   6.166
  131POPC   C1B 2062   1.059   2.022   7.363
  131POPC   C2B 2063   0.911   1.948   6.939
  131POPC   C3B 2064   1.051   2.051   6.519
  131POPC   C4B 2065   1.055   1.856   6.092
  132POPC   NC3 2066   5.181   9.658   8.084
  132POPC   PO4 2067   5.041  10.242   8.118
  132POPC   GL1 2068   4.992  10.019   7.693
  132POPC   GL2 2069   5.003   9.652   7.598
  132POPC   C1A 2070   5.010  10.005   7.237
  132POPC   D2A 2071   5.291   9.821   6.952
  132POPC   C3A 2072   5.004   9.625   6.675
  132POPC   C4A 2073   5.083   9.626   6.281
  132POPC   C1B 2074   4.988   9.450   7.171
  132POPC   C2B 2075   4.887   9.135   6.829
  132POPC   C3B 2076   5.037   9.112   6.399
  132POPC   C4B 2077   5.164   9.239   5.946
  133POPC   NC3 2078   5.767   1.597   8.047
  133POPC   PO4 2079   5.946   0.924   8.139
  133POPC   GL1 2080   5.978   1.195   7.782
  133POPC   GL2 2081   5.639   1.254   7.665
  133POPC   C1A 2082   6.081   1.291   7.343
  133POPC   D2A 2083   6.057   1.433   6.898
  133POPC   C3A 2084   5.905   1.238   6.534
  133POPC   C4A 2085   6.112   0.974   6.266
  133POPC   C1B 2086   5.667   0.997   7.283
  133POPC   C2B 2087   5.543   1.108   6.890
  133POPC   C3B 2088   5.444   1.010   6.488
  133POPC   C4B 2089   5.625   1.012   6.088
  134POPC   NC3 2090   9.462   9.605   8.142
  134POPC   PO4 2091   9.882  10.099   7.989
  134POPC   GL1 2092   9.662   9.755   7.701
  134POPC   GL2 2093   9.759   9.409   7.662
  134POPC   C1A 2094   9.697   9.744   7.254
  134POPC   D2A 2095   9.836   9.505   6.930
  134POPC   C3A 2096   9.740   9.642   6.536
  134POPC   C4A 2097   9.735   9.898   6.191
  134POPC   C1B 2098   9.571   9.216   7.262
  134POPC   C2B 2099   9.810   8.985   6.953
  134POPC   C3B 2100   9.931   9.165   6.560
  134POPC   C4B 2101   9.568   9.196   6.299
  135POPC   NC3 2102   8.759   1.520   7.830
  135POPC   PO4 2103   8.488   1.017   8.126
  135POPC   GL1 2104   8.657   0.915   7.703
  135POPC   GL2 2105   8.956   1.068   7.658
  135POPC   C1A 2106   8.672   1.175   7.275
  135POPC   D2A 2107   8.882   1.175   6.914
  135POPC   C3A 2108   8.645   1.153   6.612
  135POPC   C4A 2109   8.728   1.086   6.226
  135POPC   C1B 2110   9.198   1.228   7.292
  135POPC   C2B 2111   9.285   1.480   6.902
  135POPC   C3B 2112   8.968   1.562   6.597
  135POPC   C4B 2113   9.116   1.434   6.245
  136POPC   NC3 2114   9.010   0.901   8.138
  136POPC   PO4 2115   8.692   0.343   7.972
  136POPC   GL1 2116   9.046   0.538   7.775
  136POPC   GL2 2117   9.141   0.207   7.746
  136POPC   C1A 2118   9.071   0.712   7.358
  136POPC   D2A 2119   8.775   0.696   7.058
  136POPC   C3A 2120   8.925   0.725   6.642
  136POPC   C4A 2121   9.087   0.708   6.239
  136POPC   C1B 2122   8.919   0.232   7.358
  136POPC   C2B 2123   8.914   0.209   6.938
  136POPC   C3B 2124   8.600   0.359   6.687
  136POPC   C4B 2125   8.689   0.381   6.244
  137POPC   NC3 2126   3.601   1.065   8.085
  137POPC   PO4 2127   2.893   0.973   7.929
  137POPC   GL1 2128   3.273   0.963   7.660
  137POPC   GL2 2129   3.506   1.266   7.616
  137POPC   C1A 2130   3.383   0.985   7.226
  137POPC   D2A 2131   3.624   1.091   6.894
  137POPC   C3A 2132   3.488   0.951   6.517
  137POPC   C4A 2133   3.467   1.166   6.171
  137POPC   C1B 2134   3.782   1.416   7.285
  137POPC   C2B 2135   4.009   1.435   6.859
  137POPC   C3B 2136   3.774   1.402   6.492
  137POPC   C4B 2137   3.694   1.673   6.157
  138POPC   NC3 2138   3.753  10.474   8.249
  138POPC   PO4 2139   4.233  10.637   7.839
  138POPC   GL1 2140   3.836  10.419   7.683
  138POPC   GL2 2141   3.464  10.463   7.763
  138POPC   C1A 2142   3.589  10.467   7.277
  138POPC   D2A 2143   3.511  10.251   6.885
  138POPC   C3A 2144   3.559  10.499   6.529
  138POPC   C4A 2145   3.855  10.732   6.256
  138POPC   C1B 2146   3.149  10.238   7.447
  138POPC   C2B 2147   3.027  10.333   6.992
  138POPC   C3B 2148   3.060  10.239   6.508
  138POPC   C4B 2149   3.279  10.426   6.123
  139POPC   NC3 2150  11.226  10.269   8.516
  139POPC   PO4 2151  10.831  10.193   8.035
  139POPC   GL1 2152  11.204  10.155   7.746
  139POPC   GL2 2153  11.366  10.461   7.707
  139POPC   C1A 2154  11.259  10.134   7.276
  139POPC   D2A 2155  10.896  10.169   6.951
  139POPC   C3A 2156  10.950  10.122   6.493
  139POPC   C4A 2157  10.978  10.203   6.011
  139POPC   C1B 2158  11.255  10.657   7.304
  139POPC   C2B 2159  11.279  10.524   6.881
  139POPC   C3B 2160  11.292  10.487   6.445
  139POPC   C4B 2161  11.408  10.114   6.249
  140POPC   NC3 2162   3.372   2.069   8.093
  140POPC   PO4 2163   3.450   1.510   8.066
  140POPC   GL1 2164   3.297   1.766   7.680
  140POPC   GL2 2165   3.319   2.167   7.595
  140POPC   C1A 2166   3.383   1.750   7.244
  140POPC   D2A 2167   3.522   1.618   6.865
  140POPC   C3A 2168   3.300   1.719   6.494
  140POPC   C4A 2169   3.175   1.556   6.071
  140POPC   C1B 2170   3.724   2.026   7.501
  140POPC   C2B 2171   3.887   1.874   7.102
  140POPC   C3B 2172   3.801   1.950   6.612
  140POPC   C4B 2173   3.510   2.121   6.258
  141POPC   NC3 2174   2.846   3.795   8.015
  141POPC   PO4 2175   3.241   3.230   8.066
  141POPC   GL1 2176   3.011   3.174   7.704
  141POPC   GL2 2177   2.686   3.368   7.686
  141POPC   C1A 2178   3.073   3.381   7.313
  141POPC   D2A 2179   3.286   3.288   6.913
  141POPC   C3A 2180   3.050   3.397   6.533
  141POPC   C4A 2181   2.959   3.199   6.151
  141POPC   C1B 2182   2.506   3.494   7.264
  141POPC   C2B 2183   2.322   3.430   6.835
  141POPC   C3B 2184   2.517   3.435   6.414
  141POPC   C4B 2185   2.810   3.788   6.249
  142POPC   NC3 2186   8.776  10.014   8.021
  142POPC   PO4 2187   9.070   9.431   8.311
  142POPC   GL1 2188   9.099   9.726   7.816
  142POPC   GL2 2189   8.825   9.599   7.621
  142POPC   C1A 2190   9.203   9.763   7.345
  142POPC   D2A 2191   9.314   9.522   6.966
  142POPC   C3A 2192   9.222   9.451   6.558
  142POPC   C4A 2193   9.280   9.779   6.339
  142POPC   C1B 2194   8.737   9.702   7.155
  142POPC   C2B 2195   8.914   9.806   6.763
  142POPC   C3B 2196   8.793   9.669   6.351
  142POPC   C4B 2197   8.491   9.893   6.110
  143POPC   NC3 2198   7.190  10.940   8.263
  143POPC   PO4 2199   7.442  11.378   7.820
  143POPC   GL1 2200   7.471  11.034   7.607
  143POPC   GL2 2201   7.159  10.857   7.655
  143POPC   C1A 2202   7.639  11.210   7.211
  143POPC   D2A 2203   7.579   0.037   6.919
  143POPC   C3A 2204   7.638  11.345   6.525
  143POPC   C4A 2205   7.473  11.298   6.140
  143POPC   C1B 2206   7.143  11.131   7.242
  143POPC   C2B 2207   7.283  11.128   6.852
  143POPC   C3B 2208   7.226  11.007   6.476
  143POPC   C4B 2209   6.986  11.163   6.145
  144POPC   NC3 2210   8.640   2.405   8.011
  144POPC   PO4 2211   9.099   2.881   8.140
  144POPC   GL1 2212   9.109   2.798   7.718
  144POPC   GL2 2213   8.770   2.811   7.700
  144POPC   C1A 2214   9.141   2.734   7.275
  144POPC   D2A 2215   8.870   2.634   6.872
  144POPC   C3A 2216   9.019   2.665   6.450
  144POPC   C4A 2217   9.030   3.026   6.165
  144POPC   C1B 2218   8.635   2.620   7.323
  144POPC   C2B 2219   8.391   2.484   6.945
  144POPC   C3B 2220   8.539   2.467   6.516
  144POPC   C4B 2221   8.572   2.777   6.207
  145POPC   NC3 2222  11.325   1.042   8.332
  145POPC   PO4 2223  10.732   1.013   8.001
  145POPC   GL1 2224  11.027   0.890   7.704
  145POPC   GL2 2225  11.376   1.038   7.732
  145POPC   C1A 2226  10.870   0.884   7.288
  145POPC   D2A 2227  10.703   1.004   6.902
  145POPC   C3A 2228  10.993   0.855   6.596
  145POPC   C4A 2229  11.095   1.015   6.214
  145POPC   C1B 2230  11.323   1.103   7.287
  145POPC   C2B 2231  11.212   1.262   6.866
  145POPC   C3B 2232  11.268   1.455   6.448
  145POPC   C4B 2233  11.399   1.392   5.992
  146POPC   NC3 2234   5.125   0.110   7.875
  146POPC   PO4 2235   4.779   0.704   8.018
  146POPC   GL1 2236   4.750   0.695   7.590
  146POPC   GL2 2237   4.992   0.486   7.607
  146POPC   C1A 2238   4.858   0.601   7.160
  146POPC   D2A 2239   4.832   0.196   7.019
  146POPC   C3A 2240   4.833   0.355   6.624
  146POPC   C4A 2241   4.990   0.231   6.261
  146POPC   C1B 2242   5.286   0.356   7.297
  146POPC   C2B 2243   5.413   0.617   6.989
  146POPC   C3B 2244   5.362   0.502   6.590
  146POPC   C4B 2245   5.293   0.623   6.199
  147POPC   NC3 2246   5.218   7.682   8.527
  147POPC   PO4 2247   5.289   7.775   8.073
  147POPC   GL1 2248   5.176   7.821   7.610
  147POPC   GL2 2249   4.946   8.105   7.512
  147POPC   C1A 2250   5.223   7.886   7.144
  147POPC   D2A 2251   5.010   8.044   6.776
  147POPC   C3A 2252   5.234   8.116   6.390
  147POPC   C4A 2253   5.048   8.043   5.972
  147POPC   C1B 2254   5.015   8.407   7.151
  147POPC   C2B 2255   4.982   8.563   6.718
  147POPC   C3B 2256   4.900   8.492   6.299
  147POPC   C4B 2257   5.126   8.565   5.915
  148POPC   NC3 2258   0.781  11.151   8.171
  148POPC   PO4 2259   0.165  11.352   8.068
  148POPC   GL1 2260   0.225  11.471   7.663
  148POPC   GL2 2261   0.546  11.317   7.702
  148POPC   C1A 2262   0.243  11.253   7.260
  148POPC   D2A 2263   0.118  11.021   6.889
  148POPC   C3A 2264   0.234  11.214   6.517
  148POPC   C4A 2265   0.184  11.422   6.104
  148POPC   C1B 2266   0.608  10.927   7.407
  148POPC   C2B 2267   0.621  11.012   6.950
  148POPC   C3B 2268   0.630  10.845   6.525
  148POPC   C4B 2269   0.584  11.128   6.178
  149POPC   NC3 2270   0.846   5.513   7.705
  149POPC   PO4 2271   0.967   4.913   7.923
  149POPC   GL1 2272   1.105   5.099   7.593
  149POPC   GL2 2273   1.404   5.149   7.663
  149POPC   C1A 2274   1.162   5.181   7.174
  149POPC   D2A 2275   0.985   4.997   6.849
  149POPC   C3A 2276   0.960   5.350   6.645
  149POPC   C4A 2277   1.029   5.250   6.250
  149POPC   C1B 2278   1.543   4.881   7.366
  149POPC   C2B 2279   1.470   4.799   6.959
  149POPC   C3B 2280   1.422   5.065   6.599
  149POPC   C4B 2281   1.355   4.889   6.208
  150POPC   NC3 2282   1.088   4.170   8.079
  150POPC   PO4 2283   1.649   4.607   7.998
  150POPC   GL1 2284   1.296   4.601   7.699
  150POPC   GL2 2285   1.091   4.315   7.604
  150POPC   C1A 2286   1.076   4.689   7.284
  150POPC   D2A 2287   1.059   4.441   6.936
  150POPC   C3A 2288   1.274   4.533   6.571
  150POPC   C4A 2289   1.179   4.424   6.158
  150POPC   C1B 2290   0.881   4.091   7.283
  150POPC   C2B 2291   0.924   3.956   6.860
  150POPC   C3B 2292   0.824   4.191   6.493
  150POPC   C4B 2293   0.872   4.040   6.087
  151POPC   NC3 2294   0.413   0.989   7.904
  151POPC   PO4 2295   0.808   1.508   8.093
  151POPC   GL1 2296   0.720   1.364   7.712
  151POPC   GL2 2297   0.361   1.447   7.647
  151POPC   C1A 2298   0.784   1.349   7.292
  151POPC   D2A 2299   0.691   1.073   6.919
  151POPC   C3A 2300   0.593   1.262   6.548
  151POPC   C4A 2301   0.787   1.429   6.156
  151POPC   C1B 2302   0.320   1.163   7.270
  151POPC   C2B 2303   0.167   0.993   6.868
  151POPC   C3B 2304   0.082   1.022   6.431
  151POPC   C4B 2305   0.395   1.081   6.113
  152POPC   NC3 2306   0.405   1.809   8.058
  152POPC   PO4 2307  11.476   2.390   8.094
  152POPC   GL1 2308   0.055   2.240   7.656
  152POPC   GL2 2309   0.261   1.971   7.623
  152POPC   C1A 2310   0.329   2.293   7.260
  152POPC   D2A 2311   0.410   2.096   6.896
  152POPC   C3A 2312   0.513   2.259   6.536
  152POPC   C4A 2313   0.381   2.347   6.156
  152POPC   C1B 2314   0.559   1.815   7.328
  152POPC   C2B 2315   0.511   1.595   6.932
  152POPC   C3B 2316   0.640   1.764   6.528
  152POPC   C4B 2317   0.565   1.897   6.083
  153POPC   NC3 2318   9.449   6.266   8.024
  153POPC   PO4 2319   9.257   6.879   8.158
  153POPC   GL1 2320   9.453   6.731   7.747
  153POPC   GL2 2321   9.773   6.585   7.707
  153POPC   C1A 2322   9.466   6.545   7.292
  153POPC   D2A 2323   9.527   6.745   6.861
  153POPC   C3A 2324   9.480   6.537   6.439
  153POPC   C4A 2325   9.144   6.313   6.271
  153POPC   C1B 2326   9.987   6.450   7.351
  153POPC   C2B 2327  10.016   6.666   6.994
  153POPC   C3B 2328   9.950   6.529   6.625
  153POPC   C4B 2329  10.063   6.628   6.258
  154POPC   NC3 2330   2.622   8.780   8.028
  154POPC   PO4 2331   3.082   9.291   8.048
  154POPC   GL1 2332   2.765   9.174   7.699
  154POPC   GL2 2333   2.797   8.871   7.563
  154POPC   C1A 2334   2.535   9.154   7.261
  154POPC   D2A 2335   2.690   8.975   6.861
  154POPC   C3A 2336   2.581   9.165   6.456
  154POPC   C4A 2337   2.425   9.317   5.983
  154POPC   C1B 2338   2.601   8.631   7.250
  154POPC   C2B 2339   2.675   8.456   6.837
  154POPC   C3B 2340   2.709   8.645   6.433
  154POPC   C4B 2341   2.614   8.861   6.061
  155POPC   NC3 2342   0.225   7.363   8.091
  155POPC   PO4 2343  11.038   7.251   8.205
  155POPC   GL1 2344  11.296   7.216   7.801
  155POPC   GL2 2345  11.096   7.408   7.589
  155POPC   C1A 2346   0.013   7.238   7.353
  155POPC   D2A 2347  11.445   7.163   6.876
  155POPC   C3A 2348   0.011   7.539   6.593
  155POPC   C4A 2349   0.000   7.715   6.162
  155POPC   C1B 2350  11.035   7.146   7.196
  155POPC   C2B 2351  10.819   7.182   6.818
  155POPC   C3B 2352  10.974   7.313   6.421
  155POPC   C4B 2353  11.364   7.220   6.241
  156POPC   NC3 2354  10.161   4.299   8.005
  156POPC   PO4 2355  10.726   4.624   8.063
  156POPC   GL1 2356  10.519   4.443   7.657
  156POPC   GL2 2357  10.494   4.055   7.698
  156POPC   C1A 2358  10.258   4.517   7.255
  156POPC   D2A 2359  10.000   4.281   6.953
  156POPC   C3A 2360  10.134   4.416   6.546
  156POPC   C4A 2361  10.034   4.457   6.136
  156POPC   C1B 2362  10.526   4.092   7.268
  156POPC   C2B 2363  10.510   4.243   6.863
  156POPC   C3B 2364  10.678   3.981   6.527
  156POPC   C4B 2365  10.469   4.194   6.203
  157POPC   NC3 2366  10.339  11.242   8.082
  157POPC   PO4 2367   9.723  11.401   8.143
  157POPC   GL1 2368   9.950  11.167   7.770
  157POPC   GL2 2369  10.231  11.357   7.601
  157POPC   C1A 2370   9.958  11.029   7.322
  157POPC   D2A 2371  10.115  11.304   6.963
  157POPC   C3A 2372  10.104  11.133   6.522
  157POPC   C4A 2373  10.226  11.285   6.115
  157POPC   C1B 2374  10.473  11.076   7.327
  157POPC   C2B 2375  10.639  11.167   6.929
  157POPC   C3B 2376  10.810  11.264   6.542
  157POPC   C4B 2377  10.593  11.000   6.292
  158POPC   NC3 2378   1.367  11.075   8.036
  158POPC   PO4 2379   0.843   0.081   8.054
  158POPC   GL1 2380   1.138  11.426   7.732
  158POPC   GL2 2381   1.004  11.098   7.679
  158POPC   C1A 2382   1.358  11.227   7.345
  158POPC   D2A 2383   1.133  11.063   6.971
  158POPC   C3A 2384   1.322  11.115   6.596
  158POPC   C4A 2385   1.592  11.241   6.276
  158POPC   C1B 2386   0.851  11.363   7.305
  158POPC   C2B 2387   0.775   0.034   6.910
  158POPC   C3B 2388   0.859  11.305   6.553
  158POPC   C4B 2389   1.070  11.062   6.175
  159POPC   NC3 2390   0.228   9.673   8.049
  159POPC   PO4 2391   0.788   9.332   8.131
  159POPC   GL1 2392   0.490   9.338   7.784
  159POPC   GL2 2393   0.522   9.683   7.652
  159POPC   C1A 2394   0.350   9.320   7.345
  159POPC   D2A 2395   0.682   9.397   7.042
  159POPC   C3A 2396   0.831   9.369   6.623
  159POPC   C4A 2397   0.807   9.239   6.214
  159POPC   C1B 2398   0.206   9.811   7.343
  159POPC   C2B 2399   0.214   9.584   6.924
  159POPC   C3B 2400   0.449   9.694   6.561
  159POPC   C4B 2401   0.384   9.992   6.236
  160POPC   NC3 2402   9.805   5.738   8.005
  160POPC   PO4 2403   9.132   5.947   7.956
  160POPC   GL1 2404   9.490   5.921   7.637
  160POPC   GL2 2405   9.722   5.640   7.536
  160POPC   C1A 2406   9.631   6.042   7.228
  160POPC   D2A 2407   9.486   6.232   6.859
  160POPC   C3A 2408   9.523   6.017   6.479
  160POPC   C4A 2409   9.310   5.717   6.223
  160POPC   C1B 2410   9.868   5.469   7.189
  160POPC   C2B 2411   9.747   5.681   6.841
  160POPC   C3B 2412   9.735   5.531   6.450
  160POPC   C4B 2413   9.828   5.794   6.130
  161POPC   NC3 2414   6.171  10.122   8.121
  161POPC   PO4 2415   5.900  10.699   8.132
  161POPC   GL1 2416   6.025  10.470   7.792
  161POPC   GL2 2417   5.972  10.756   7.604
  161POPC   C1A 2418   6.120  10.119   7.478
  161POPC   D2A 2419   6.134  10.255   7.076
  161POPC   C3A 2420   6.174  10.156   6.685
  161POPC   C4A 2421   5.975  10.310   6.360
  161POPC   C1B 2422   5.758  10.457   7.377
  161POPC   C2B 2423   5.590  10.334   7.028
  161POPC   C3B 2424   5.550  10.428   6.641
  161POPC   C4B 2425   5.486  10.292   6.262
  162POPC   NC3 2426   4.347   2.278   8.020
  162POPC   PO4 2427   4.538   1.674   8.066
  162POPC   GL1 2428   4.402   1.591   7.658
  162POPC   GL2 2429   4.192   1.894   7.677
  162POPC   C1A 2430   4.415   1.818   7.234
  162POPC   D2A 2431   4.301   1.889   6.809
  162POPC   C3A 2432   4.564   2.040   6.465
  162POPC   C4A 2433   4.426   1.938   6.049
  162POPC   C1B 2434   4.156   2.238   7.361
  162POPC   C2B 2435   4.025   2.317   6.945
  162POPC   C3B 2436   4.134   2.323   6.526
  162POPC   C4B 2437   4.006   2.199   6.141
  163POPC   NC3 2438   8.898   5.570   8.046
  163POPC   PO4 2439   9.468   5.445   8.087
  163POPC   GL1 2440   9.274   5.441   7.666
  163POPC   GL2 2441   9.023   5.684   7.545
  163POPC   C1A 2442   9.355   5.567   7.193
  163POPC   D2A 2443   9.247   5.659   6.738
  163POPC   C3A 2444   8.907   5.494   6.428
  163POPC   C4A 2445   8.934   5.447   5.955
  163POPC   C1B 2446   9.116   6.022   7.217
  163POPC   C2B 2447   8.993   6.099   6.766
  163POPC   C3B 2448   8.785   5.993   6.381
  163POPC   C4B 2449   8.695   6.293   6.034
  164POPC   NC3 2450   7.818   2.968   7.928
  164POPC   PO4 2451   8.183   2.479   8.075
  164POPC   GL1 2452   7.933   2.352   7.690
  164POPC   GL2 2453   7.840   2.642   7.561
  164POPC   C1A 2454   7.947   2.341   7.190
  164POPC   D2A 2455   7.943   2.694   6.834
  164POPC   C3A 2456   8.084   2.640   6.390
  164POPC   C4A 2457   8.017   2.317   6.090
  164POPC   C1B 2458   8.169   2.816   7.288
  164POPC   C2B 2459   8.411   2.985   6.902
  164POPC   C3B 2460   8.276   3.113   6.456
  164POPC   C4B 2461   8.257   3.103   5.960
  165POPC   NC3 2462   1.163   0.404   7.970
  165POPC   PO4 2463   1.596   0.898   8.003
  165POPC   GL1 2464   1.513   0.677   7.587
  165POPC   GL2 2465   1.144   0.636   7.522
  165POPC   C1A 2466   1.441   0.614   7.107
  165POPC   D2A 2467   1.015   0.503   6.906
  165POPC   C3A 2468   1.091   0.567   6.470
  165POPC   C4A 2469   1.516   0.582   6.388
  165POPC   C1B 2470   1.214   0.222   7.312
  165POPC   C2B 2471   1.312   0.054   6.883
  165POPC   C3B 2472   1.272   0.103   6.430
  165POPC   C4B 2473   0.873   0.170   6.203
  166POPC   NC3 2474   9.555   2.779   8.157
  166POPC   PO4 2475  10.134   2.598   7.960
  166POPC   GL1 2476   9.899   2.850   7.668
  166POPC   GL2 2477   9.604   2.635   7.668
  166POPC   C1A 2478   9.717   2.845   7.231
  166POPC   D2A 2479   9.856   2.551   6.955
  166POPC   C3A 2480  10.110   2.771   6.689
  166POPC   C4A 2481   9.970   2.698   6.284
  166POPC   C1B 2482   9.505   2.362   7.315
  166POPC   C2B 2483   9.346   2.466   6.910
  166POPC   C3B 2484   9.436   2.815   6.714
  166POPC   C4B 2485   9.473   2.816   6.273
  167POPC   NC3 2486  10.459   8.471   7.839
  167POPC   PO4 2487  10.045   8.856   8.291
  167POPC   GL1 2488  10.148   8.923   7.782
  167POPC   GL2 2489  10.252   9.253   7.714
  167POPC   C1A 2490  10.235   8.754   7.309
  167POPC   D2A 2491  10.436   8.603   6.906
  167POPC   C3A 2492  10.299   8.809   6.535
  167POPC   C4A 2493  10.392   8.675   6.127
  167POPC   C1B 2494  10.076   9.234   7.313
  167POPC   C2B 2495  10.298   9.143   6.941
  167POPC   C3B 2496  10.642   9.184   6.660
  167POPC   C4B 2497  10.607   9.140   6.207
  168POPC   NC3 2498   1.618   1.187   3.925
  168POPC   PO4 2499   0.973   0.964   3.949
  168POPC   GL1 2500   1.248   1.103   4.246
  168POPC   GL2 2501   1.061   1.360   4.389
  168POPC   C1A 2502   1.472   1.113   4.630
  168POPC   D2A 2503   1.337   1.181   5.068
  168POPC   C3A 2504   1.617   1.390   5.371
  168POPC   C4A 2505   1.652   0.978   5.608
  168POPC   C1B 2506   0.930   0.981   4.642
  168POPC   C2B 2507   0.850   0.910   5.085
  168POPC   C3B 2508   1.123   0.915   5.465
  168POPC   C4B 2509   1.190   1.352   5.641
  169POPC   NC3 2510  10.863   3.428   3.839
  169POPC   PO4 2511  10.190   3.459   3.840
  169POPC   GL1 2512  10.216   3.694   4.229
  169POPC   GL2 2513  10.593   3.702   4.238
  169POPC   C1A 2514  10.094   3.523   4.641
  169POPC   D2A 2515  10.225   3.233   5.002
  169POPC   C3A 2516   9.972   3.218   5.371
  169POPC   C4A 2517  10.089   3.346   5.760
  169POPC   C1B 2518  10.575   3.568   4.696
  169POPC   C2B 2519  10.385   3.717   5.113
  169POPC   C3B 2520  10.398   3.712   5.582
  169POPC   C4B 2521  10.693   3.825   5.935
  170POPC   NC3 2522   9.737   5.697   3.738
  170POPC   PO4 2523   9.317   5.349   3.942
  170POPC   GL1 2524   9.640   5.461   4.208
  170POPC   GL2 2525   9.638   5.814   4.256
  170POPC   C1A 2526   9.698   5.464   4.639
  170POPC   D2A 2527   9.432   5.456   4.983
  170POPC   C3A 2528   9.623   5.624   5.345
  170POPC   C4A 2529   9.525   5.643   5.760
  170POPC   C1B 2530   9.805   5.971   4.703
  170POPC   C2B 2531   9.860   6.035   5.162
  170POPC   C3B 2532   9.560   6.189   5.499
  170POPC   C4B 2533   9.486   6.119   5.947
  171POPC   NC3 2534   3.550  10.303   3.933
  171POPC   PO4 2535   3.902  10.835   4.059
  171POPC   GL1 2536   3.774  10.636   4.391
  171POPC   GL2 2537   3.460  10.545   4.352
  171POPC   C1A 2538   3.900  10.685   4.801
  171POPC   D2A 2539   3.916  10.832   5.185
  171POPC   C3A 2540   3.861  10.513   5.525
  171POPC   C4A 2541   3.772  10.327   5.947
  171POPC   C1B 2542   3.485  10.363   4.756
  171POPC   C2B 2543   3.477  10.548   5.164
  171POPC   C3B 2544   3.353  10.397   5.575
  171POPC   C4B 2545   3.360  10.035   5.799
  172POPC   NC3 2546  10.499   2.116   4.053
  172POPC   PO4 2547   9.863   1.954   4.085
  172POPC   GL1 2548  10.084   2.194   4.383
  172POPC   GL2 2549  10.276   1.902   4.464
  172POPC   C1A 2550  10.319   2.281   4.786
  172POPC   D2A 2551  10.393   2.032   5.157
  172POPC   C3A 2552  10.316   2.324   5.497
  172POPC   C4A 2553  10.446   2.319   5.928
  172POPC   C1B 2554  10.559   1.629   4.704
  172POPC   C2B 2555  10.548   1.476   5.117
  172POPC   C3B 2556  10.521   1.617   5.540
  172POPC   C4B 2557  10.219   1.893   5.750
  173POPC   NC3 2558  10.221  11.159   3.956
  173POPC   PO4 2559  10.729  10.651   3.833
  173POPC   GL1 2560  10.543  10.947   4.273
  173POPC   GL2 2561  10.412  11.296   4.403
  173POPC   C1A 2562  10.333  10.932   4.731
  173POPC   D2A 2563  10.115  10.713   5.081
  173POPC   C3A 2564  10.412  10.755   5.401
  173POPC   C4A 2565  10.528  10.924   5.780
  173POPC   C1B 2566  10.202  11.477   4.748
  173POPC   C2B 2567  10.050  11.360   5.153
  173POPC   C3B 2568  10.147   0.138   5.506
  173POPC   C4B 2569  10.488  11.463   5.720
  174POPC   NC3 2570   6.417  11.339   3.858
  174POPC   PO4 2571   7.068  11.439   4.031
  174POPC   GL1 2572   6.736  11.274   4.254
  174POPC   GL2 2573   6.783  10.927   4.340
  174POPC   C1A 2574   6.490  11.327   4.602
  174POPC   D2A 2575   6.618  11.310   5.049
  174POPC   C3A 2576   6.364  11.496   5.372
  174POPC   C4A 2577   6.221  11.375   5.778
  174POPC   C1B 2578   6.588  10.858   4.761
  174POPC   C2B 2579   6.295  10.872   5.125
  174POPC   C3B 2580   6.478  10.945   5.535
  174POPC   C4B 2581   6.885  10.893   5.727
  175POPC   NC3 2582   3.057   9.948   4.033
  175POPC   PO4 2583   3.659   9.867   4.000
  175POPC   GL1 2584   3.509   9.945   4.382
  175POPC   GL2 2585   3.537   9.576   4.393
  175POPC   C1A 2586   3.660   9.885   4.809
  175POPC   D2A 2587   3.494  10.009   5.226
  175POPC   C3A 2588   3.812   9.980   5.556
  175POPC   C4A 2589   3.792   9.810   5.989
  175POPC   C1B 2590   3.396   9.455   4.775
  175POPC   C2B 2591   3.319   9.507   5.199
  175POPC   C3B 2592   3.493   9.590   5.588
  175POPC   C4B 2593   3.371   9.541   6.016
  176POPC   NC3 2594  10.523   7.931   3.885
  176POPC   PO4 2595  10.729   8.554   3.960
  176POPC   GL1 2596  10.490   8.384   4.318
  176POPC   GL2 2597  10.447   8.039   4.385
  176POPC   C1A 2598  10.442   8.310   4.791
  176POPC   D2A 2599  10.669   8.078   5.119
  176POPC   C3A 2600  10.495   8.361   5.392
  176POPC   C4A 2601  10.217   8.516   5.666
  176POPC   C1B 2602  10.362   7.791   4.783
  176POPC   C2B 2603  10.202   7.879   5.179
  176POPC   C3B 2604  10.239   7.972   5.600
  176POPC   C4B 2605  10.190   7.716   5.983
  177POPC   NC3 2606   9.567   2.249   4.279
  177POPC   PO4 2607   9.588   2.907   3.959
  177POPC   GL1 2608   9.492   2.753   4.296
  177POPC   GL2 2609   9.866   2.666   4.318
  177POPC   C1A 2610   9.441   2.805   4.718
  177POPC   D2A 2611   9.344   3.030   5.064
  177POPC   C3A 2612   9.501   2.915   5.418
  177POPC   C4A 2613   9.302   2.921   5.782
  177POPC   C1B 2614   9.885   2.547   4.740
  177POPC   C2B 2615   9.878   2.801   5.070
  177POPC   C3B 2616   9.974   2.706   5.471
  177POPC   C4B 2617   9.751   2.684   5.837
  178POPC   NC3 2618  10.828   0.423   3.757
  178POPC   PO4 2619  11.291   0.197   4.166
  178POPC   GL1 2620  11.289   0.573   4.420
  178POPC   GL2 2621   0.134   0.637   4.360
  178POPC   C1A 2622  11.032   0.547   4.834
  178POPC   D2A 2623  10.938   0.167   5.114
  178POPC   C3A 2624  11.058   0.250   5.561
  178POPC   C4A 2625  11.060   0.670   5.746
  178POPC   C1B 2626   0.110   0.361   4.745
  178POPC   C2B 2627  11.426   0.442   5.125
  178POPC   C3B 2628   0.037   0.468   5.504
  178POPC   C4B 2629  11.487   0.323   5.863
  179POPC   NC3 2630   6.673   9.560   3.854
  179POPC   PO4 2631   6.167   9.932   3.784
  179POPC   GL1 2632   6.393   9.898   4.197
  179POPC   GL2 2633   6.626   9.648   4.357
  179POPC   C1A 2634   6.365  10.001   4.651
  179POPC   D2A 2635   6.420   9.789   5.039
  179POPC   C3A 2636   6.263   9.832   5.456
  179POPC   C4A 2637   6.381   9.526   5.784
  179POPC   C1B 2638   6.849   9.840   4.729
  179POPC   C2B 2639   6.867  10.027   5.135
  179POPC   C3B 2640   6.759   9.812   5.514
  179POPC   C4B 2641   6.680   9.893   5.940
  180POPC   NC3 2642   9.344   8.943   3.856
  180POPC   PO4 2643  10.006   8.971   3.791
  180POPC   GL1 2644   9.714   9.170   4.148
  180POPC   GL2 2645   9.514   8.886   4.325
  180POPC   C1A 2646   9.591   9.308   4.594
  180POPC   D2A 2647   9.778   9.200   5.002
  180POPC   C3A 2648   9.606   9.216   5.412
  180POPC   C4A 2649   9.683   9.099   5.816
  180POPC   C1B 2650   9.499   8.825   4.765
  180POPC   C2B 2651   9.311   8.858   5.160
  180POPC   C3B 2652   9.347   8.780   5.594
  180POPC   C4B 2653   9.735   8.590   5.722
  181POPC   NC3 2654  11.223   8.422   4.074
  181POPC   PO4 2655  10.949   7.897   3.741
  181POPC   GL1 2656  10.938   7.974   4.191
  181POPC   GL2 2657  11.269   7.905   4.207
  181POPC   C1A 2658  10.926   8.132   4.647
  181POPC   D2A 2659  11.188   8.172   5.062
  181POPC   C3A 2660  10.985   8.313   5.483
  181POPC   C4A 2661  10.712   8.340   5.864
  181POPC   C1B 2662  11.345   7.797   4.637
  181POPC   C2B 2663  11.159   7.635   5.015
  181POPC   C3B 2664  11.068   7.810   5.427
  181POPC   C4B 2665  11.422   7.948   5.701
  182POPC   NC3 2666   5.745  10.992   3.954
  182POPC   PO4 2667   6.417  10.925   3.625
  182POPC   GL1 2668   6.286  10.967   4.153
  182POPC   GL2 2669   6.070  11.296   4.235
  182POPC   C1A 2670   6.122  10.972   4.611
  182POPC   D2A 2671   6.090  11.320   4.940
  182POPC   C3A 2672   5.941  11.210   5.363
  182POPC   C4A 2673   5.997  10.925   5.698
  182POPC   C1B 2674   5.723  11.281   4.577
  182POPC   C2B 2675   5.562  11.295   5.024
  182POPC   C3B 2676   5.467  11.427   5.452
  182POPC   C4B 2677   5.679  11.337   5.835
  183POPC   NC3 2678   1.146   8.078   3.736
  183POPC   PO4 2679   1.732   8.365   3.932
  183POPC   GL1 2680   1.403   8.291   4.229
  183POPC   GL2 2681   1.094   8.161   4.267
  183POPC   C1A 2682   1.451   8.096   4.638
  183POPC   D2A 2683   1.286   8.182   5.069
  183POPC   C3A 2684   1.368   7.921   5.445
  183POPC   C4A 2685   1.430   8.136   5.825
  183POPC   C1B 2686   0.957   8.022   4.703
  183POPC   C2B 2687   0.784   8.178   5.119
  183POPC   C3B 2688   0.936   8.162   5.530
  183POPC   C4B 2689   0.962   7.900   5.882
  184POPC   NC3 2690  11.016  10.980   4.032
  184POPC   PO4 2691  10.599   0.030   4.000
  184POPC   GL1 2692  10.910  11.364   4.349
  184POPC   GL2 2693  11.260  11.237   4.392
  184POPC   C1A 2694  10.817  11.174   4.740
  184POPC   D2A 2695  10.575  11.246   5.129
  184POPC   C3A 2696  10.885  11.271   5.464
  184POPC   C4A 2697  10.896  11.227   5.926
  184POPC   C1B 2698  11.295  11.422   4.814
  184POPC   C2B 2699  11.387  11.455   5.256
  184POPC   C3B 2700  11.370  11.355   5.676
  184POPC   C4B 2701  11.365  11.038   5.947
  185POPC   NC3 2702   1.932  11.036   4.041
  185POPC   PO4 2703   2.431  10.586   3.972
  185POPC   GL1 2704   2.249  10.670   4.372
  185POPC   GL2 2705   2.144  11.003   4.499
  185POPC   C1A 2706   2.496  10.760   4.756
  185POPC   D2A 2707   2.314  11.076   5.005
  185POPC   C3A 2708   2.084  10.990   5.336
  185POPC   C4A 2709   2.205  11.060   5.733
  185POPC   C1B 2710   1.831  11.116   4.779
  185POPC   C2B 2711   1.627  11.189   5.128
  185POPC   C3B 2712   1.596  11.028   5.482
  185POPC   C4B 2713   1.752  11.278   5.781
  186POPC   NC3 2714   3.621   2.881   3.829
  186POPC   PO4 2715   2.961   3.129   3.990
  186POPC   GL1 2716   3.332   2.981   4.261
  186POPC   GL2 2717   3.364   2.600   4.241
  186POPC   C1A 2718   3.394   2.823   4.723
  186POPC   D2A 2719   3.255   2.834   5.187
  186POPC   C3A 2720   3.591   2.836   5.540
  186POPC   C4A 2721   3.798   2.986   5.965
  186POPC   C1B 2722   3.121   2.399   4.624
  186POPC   C2B 2723   3.233   2.307   5.074
  186POPC   C3B 2724   3.216   2.448   5.554
  186POPC   C4B 2725   3.138   2.401   6.043
  187POPC   NC3 2726   9.713   1.525   4.209
  187POPC   PO4 2727   9.289   2.135   3.945
  187POPC   GL1 2728   9.149   1.981   4.382
  187POPC   GL2 2729   9.478   1.831   4.542
  187POPC   C1A 2730   9.065   1.820   4.831
  187POPC   D2A 2731   9.462   1.841   5.098
  187POPC   C3A 2732   9.559   1.743   5.533
  187POPC   C4A 2733   9.516   1.895   5.942
  187POPC   C1B 2734   9.869   1.975   4.805
  187POPC   C2B 2735   9.915   2.242   5.179
  187POPC   C3B 2736   9.811   2.209   5.630
  187POPC   C4B 2737   9.918   2.223   6.074
  188POPC   NC3 2738   2.706   7.299   3.903
  188POPC   PO4 2739   3.074   6.900   3.893
  188POPC   GL1 2740   2.889   7.133   4.356
  188POPC   GL2 2741   2.618   7.413   4.395
  188POPC   C1A 2742   2.850   7.230   4.854
  188POPC   D2A 2743   2.984   7.033   5.265
  188POPC   C3A 2744   3.016   7.270   5.658
  188POPC   C4A 2745   2.951   7.286   6.107
  188POPC   C1B 2746   2.422   7.087   4.626
  188POPC   C2B 2747   2.288   7.092   5.071
  188POPC   C3B 2748   2.529   7.205   5.438
  188POPC   C4B 2749   2.587   7.498   5.804
  189POPC   NC3 2750   8.484  11.350   4.120
  189POPC   PO4 2751   8.357  10.724   3.769
  189POPC   GL1 2752   8.346  10.827   4.213
  189POPC   GL2 2753   8.095  11.015   4.237
  189POPC   C1A 2754   8.347  10.979   4.664
  189POPC   D2A 2755   8.146  11.262   4.950
  189POPC   C3A 2756   8.081  11.125   5.362
  189POPC   C4A 2757   8.286  11.002   5.735
  189POPC   C1B 2758   7.846  11.225   4.535
  189POPC   C2B 2759   7.636  11.308   4.900
  189POPC   C3B 2760   7.576  11.294   5.325
  189POPC   C4B 2761   7.749  11.288   5.717
  190POPC   NC3 2762   5.753   0.241   3.614
  190POPC   PO4 2763   5.257   0.491   3.943
  190POPC   GL1 2764   4.997   0.490   4.328
  190POPC   GL2 2765   4.890   0.155   4.467
  190POPC   C1A 2766   5.128   0.509   4.767
  190POPC   D2A 2767   5.251   0.225   5.061
  190POPC   C3A 2768   5.291   0.424   5.427
  190POPC   C4A 2769   5.081   0.442   5.793
  190POPC   C1B 2770   4.652   0.304   4.743
  190POPC   C2B 2771   4.678   0.517   5.059
  190POPC   C3B 2772   4.728   0.519   5.432
  190POPC   C4B 2773   4.704   0.779   5.750
  191POPC   NC3 2774   4.776   1.771   3.913
  191POPC   PO4 2775   4.792   2.442   3.945
  191POPC   GL1 2776   4.905   2.196   4.316
  191POPC   GL2 2777   5.094   1.881   4.301
  191POPC   C1A 2778   4.723   2.194   4.752
  191POPC   D2A 2779   4.516   2.166   5.164
  191POPC   C3A 2780   4.822   2.255   5.486
  191POPC   C4A 2781   4.849   2.165   5.916
  191POPC   C1B 2782   4.880   1.717   4.685
  191POPC   C2B 2783   4.899   1.831   5.147
  191POPC   C3B 2784   5.082   1.814   5.606
  191POPC   C4B 2785   5.278   1.923   6.033
  192POPC   NC3 2786   4.127   0.218   3.854
  192POPC   PO4 2787   4.652  11.472   4.011
  192POPC   GL1 2788   4.387   0.242   4.325
  192POPC   GL2 2789   4.186   0.547   4.314
  192POPC   C1A 2790   4.152   0.176   4.740
  192POPC   D2A 2791   4.393   0.045   5.113
  192POPC   C3A 2792   4.342   0.180   5.518
  192POPC   C4A 2793   4.637   0.205   5.832
  192POPC   C1B 2794   4.284   0.670   4.753
  192POPC   C2B 2795   4.171   0.537   5.165
  192POPC   C3B 2796   4.233   0.703   5.566
  192POPC   C4B 2797   4.268   0.885   5.985
  193POPC   NC3 2798   1.393   2.160   3.965
  193POPC   PO4 2799   1.697   1.654   3.930
  193POPC   GL1 2800   1.517   1.608   4.333
  193POPC   GL2 2801   1.263   1.881   4.368
  193POPC   C1A 2802   1.345   1.586   4.761
  193POPC   D2A 2803   1.059   1.625   5.113
  193POPC   C3A 2804   1.256   1.877   5.400
  193POPC   C4A 2805   1.445   1.779   5.767
  193POPC   C1B 2806   0.908   1.884   4.675
  193POPC   C2B 2807   0.779   2.084   5.067
  193POPC   C3B 2808   0.963   2.340   5.351
  193POPC   C4B 2809   1.171   2.231   5.756
  194POPC   NC3 2810   5.873   0.524   4.115
  194POPC   PO4 2811   5.628  11.448   3.946
  194POPC   GL1 2812   5.497   0.200   4.353
  194POPC   GL2 2813   5.493   0.579   4.430
  194POPC   C1A 2814   5.681   0.256   4.792
  194POPC   D2A 2815   5.975   0.281   5.154
  194POPC   C3A 2816   5.895   0.228   5.574
  194POPC   C4A 2817   5.588   0.379   5.839
  194POPC   C1B 2818   5.868   0.734   4.697
  194POPC   C2B 2819   6.149   0.735   5.000
  194POPC   C3B 2820   6.085   0.898   5.413
  194POPC   C4B 2821   5.959   0.726   5.817
  195POPC   NC3 2822   4.072   9.719   3.849
  195POPC   PO4 2823   4.632   9.375   4.130
  195POPC   GL1 2824   4.178   9.468   4.281
  195POPC   GL2 2825   4.024   9.787   4.361
  195POPC   C1A 2826   3.930   9.426   4.692
  195POPC   D2A 2827   3.984   9.616   5.111
  195POPC   C3A 2828   4.261   9.355   5.378
  195POPC   C4A 2829   4.006   9.481   5.670
  195POPC   C1B 2830   4.300   9.813   4.746
  195POPC   C2B 2831   4.483   9.757   5.179
  195POPC   C3B 2832   4.511   9.758   5.637
  195POPC   C4B 2833   4.693  10.167   5.770
  196POPC   NC3 2834   2.977   1.795   3.999
  196POPC   PO4 2835   2.459   1.490   3.692
  196POPC   GL1 2836   2.411   1.740   4.198
  196POPC   GL2 2837   2.470   2.080   4.179
  196POPC   C1A 2838   2.287   1.776   4.644
  196POPC   D2A 2839   2.587   1.622   4.958
  196POPC   C3A 2840   2.549   1.763   5.393
  196POPC   C4A 2841   2.750   1.685   5.796
  196POPC   C1B 2842   2.732   2.011   4.564
  196POPC   C2B 2843   2.628   2.128   4.979
  196POPC   C3B 2844   2.837   2.168   5.360
  196POPC   C4B 2845   2.737   2.212   5.779
  197POPC   NC3 2846   7.562  11.430   3.915
  197POPC   PO4 2847   7.227   0.546   3.740
  197POPC   GL1 2848   7.388   0.511   4.220
  197POPC   GL2 2849   7.641   0.266   4.262
  197POPC   C1A 2850   7.209   0.619   4.660
  197POPC   D2A 2851   7.378   0.861   5.016
  197POPC   C3A 2852   7.250   0.741   5.420
  197POPC   C4A 2853   7.025   0.496   5.701
  197POPC   C1B 2854   7.389   0.138   4.601
  197POPC   C2B 2855   7.471   0.289   5.008
  197POPC   C3B 2856   7.371   0.238   5.419
  197POPC   C4B 2857   7.449   0.230   5.842
  198POPC   NC3 2858   1.115   7.538   3.684
  198POPC   PO4 2859   1.520   7.009   3.944
  198POPC   GL1 2860   1.345   7.280   4.274
  198POPC   GL2 2861   1.131   7.122   4.498
  198POPC   C1A 2862   1.454   7.558   4.620
  198POPC   D2A 2863   1.279   7.656   5.017
  198POPC   C3A 2864   1.397   7.321   5.321
  198POPC   C4A 2865   1.482   7.048   5.705
  198POPC   C1B 2866   0.898   7.508   4.639
  198POPC   C2B 2867   0.717   7.668   5.032
  198POPC   C3B 2868   0.913   7.665   5.427
  198POPC   C4B 2869   1.212   7.487   5.754
  199POPC   NC3 2870   0.827   3.692   3.960
  199POPC   PO4 2871   0.528   3.059   3.905
  199POPC   GL1 2872   0.544   3.324   4.274
  199POPC   GL2 2873   0.615   3.664   4.430
  199POPC   C1A 2874   0.433   3.274   4.699
  199POPC   D2A 2875   0.630   3.548   4.989
  199POPC   C3A 2876   0.641   3.369   5.392
  199POPC   C4A 2877   0.384   3.190   5.700
  199POPC   C1B 2878   0.212   3.739   4.660
  199POPC   C2B 2879   0.110   3.536   5.060
  199POPC   C3B 2880   0.231   3.639   5.484
  199POPC   C4B 2881   0.093   3.677   5.886
  200POPC   NC3 2882  10.462   5.787   3.993
  200POPC   PO4 2883   9.999   5.279   3.886
  200POPC   GL1 2884  10.162   5.503   4.296
  200POPC   GL2 2885  10.550   5.543   4.424
  200POPC   C1A 2886  10.195   5.377   4.737
  200POPC   D2A 2887  10.189   5.620   5.101
  200POPC   C3A 2888  10.108   5.517   5.519
  200POPC   C4A 2889   9.954   5.923   5.666
  200POPC   C1B 2890  10.500   5.897   4.691
  200POPC   C2B 2891  10.429   6.055   5.116
  200POPC   C3B 2892  10.455   5.901   5.531
  200POPC   C4B 2893  10.698   6.148   5.804
  201POPC   NC3 2894   8.940   5.613   3.809
  201POPC   PO4 2895   8.466   5.843   4.122
  201POPC   GL1 2896   8.791   5.560   4.322
  201POPC   GL2 2897   9.148   5.597   4.337
  201POPC   C1A 2898   8.918   5.615   4.792
  201POPC   D2A 2899   8.804   5.933   5.129
  201POPC   C3A 2900   8.651   5.774   5.558
  201POPC   C4A 2901   8.524   5.782   6.004
  201POPC   C1B 2902   9.291   5.922   4.616
  201POPC   C2B 2903   9.354   5.973   5.056
  201POPC   C3B 2904   9.168   5.865   5.470
  201POPC   C4B 2905   9.016   5.950   5.879
  202POPC   NC3 2906   6.045   1.493   3.938
  202POPC   PO4 2907   5.694   0.940   4.053
  202POPC   GL1 2908   5.514   1.090   4.414
  202POPC   GL2 2909   5.543   1.425   4.340
  202POPC   C1A 2910   5.440   0.954   4.842
  202POPC   D2A 2911   5.646   0.710   5.179
  202POPC   C3A 2912   5.579   0.950   5.555
  202POPC   C4A 2913   5.382   1.379   5.589
  202POPC   C1B 2914   5.966   1.266   4.552
  202POPC   C2B 2915   5.934   1.192   4.977
  202POPC   C3B 2916   5.849   1.375   5.357
  202POPC   C4B 2917   5.938   1.247   5.776
  203POPC   NC3 2918   7.040   1.408   3.999
  203POPC   PO4 2919   6.958   2.112   3.918
  203POPC   GL1 2920   7.315   1.940   4.205
  203POPC   GL2 2921   7.582   2.171   4.321
  203POPC   C1A 2922   7.483   1.795   4.630
  203POPC   D2A 2923   7.307   1.695   5.036
  203POPC   C3A 2924   7.330   1.732   5.477
  203POPC   C4A 2925   6.986   1.819   5.702
  203POPC   C1B 2926   7.624   2.279   4.780
  203POPC   C2B 2927   7.502   2.154   5.210
  203POPC   C3B 2928   7.285   2.239   5.609
  203POPC   C4B 2929   7.454   2.351   6.002
  204POPC   NC3 2930   8.029   1.445   3.779
  204POPC   PO4 2931   7.957   0.775   3.862
  204POPC   GL1 2932   8.286   0.937   4.141
  204POPC   GL2 2933   8.037   1.185   4.222
  204POPC   C1A 2934   8.462   1.125   4.545
  204POPC   D2A 2935   8.443   0.981   4.994
  204POPC   C3A 2936   8.486   1.228   5.365
  204POPC   C4A 2937   8.449   1.160   5.809
  204POPC   C1B 2938   7.979   1.180   4.653
  204POPC   C2B 2939   8.073   1.367   5.061
  204POPC   C3B 2940   8.017   1.317   5.512
  204POPC   C4B 2941   8.132   1.564   5.837
  205POPC   NC3 2942   8.706   9.219   3.907
  205POPC   PO4 2943   8.989   8.634   3.876
  205POPC   GL1 2944   8.993   8.906   4.260
  205POPC   GL2 2945   8.697   8.952   4.457
  205POPC   C1A 2946   9.106   9.142   4.663
  205POPC   D2A 2947   8.852   9.029   5.033
  205POPC   C3A 2948   8.964   9.112   5.461
  205POPC   C4A 2949   8.660   8.950   5.727
  205POPC   C1B 2950   8.997   8.647   4.713
  205POPC   C2B 2951   8.941   8.492   5.142
  205POPC   C3B 2952   8.909   8.512   5.605
  205POPC   C4B 2953   8.923   8.676   6.041
  206POPC   NC3 2954   4.891  11.166   3.753
  206POPC   PO4 2955   4.197  11.272   3.745
  206POPC   GL1 2956   4.212  11.280   4.233
  206POPC   GL2 2957   4.169  10.976   4.448
  206POPC   C1A 2958   4.482  11.309   4.628
  206POPC   D2A 2959   4.341  11.055   4.968
  206POPC   C3A 2960   4.619  11.097   5.305
  206POPC   C4A 2961   4.634  11.202   5.707
  206POPC   C1B 2962   3.877  11.201   4.714
  206POPC   C2B 2963   3.897  11.380   5.129
  206POPC   C3B 2964   4.127  11.215   5.470
  206POPC   C4B 2965   4.019  10.944   5.800
  207POPC   NC3 2966   0.528  10.849   3.898
  207POPC   PO4 2967   0.714   0.001   4.002
  207POPC   GL1 2968   0.593  11.195   4.268
  207POPC   GL2 2969   0.243  11.147   4.193
  207POPC   C1A 2970   0.706  11.057   4.689
  207POPC   D2A 2971   0.899  11.305   5.007
  207POPC   C3A 2972   0.714  11.194   5.403
  207POPC   C4A 2973   0.796  11.352   5.789
  207POPC   C1B 2974   0.220  11.193   4.626
  207POPC   C2B 2975   0.290  10.972   5.000
  207POPC   C3B 2976   0.211  11.082   5.385
  207POPC   C4B 2977   0.330  11.079   5.754
  208POPC   NC3 2978   8.723  10.474   3.900
  208POPC   PO4 2979   9.338  10.538   3.735
  208POPC   GL1 2980   9.098  10.561   4.246
  208POPC   GL2 2981   8.891  10.278   4.366
  208POPC   C1A 2982   8.747  10.659   4.636
  208POPC   D2A 2983   8.489  10.716   5.076
  208POPC   C3A 2984   8.718  10.805   5.505
  208POPC   C4A 2985   9.100  10.575   5.635
  208POPC   C1B 2986   9.140  10.347   4.754
  208POPC   C2B 2987   8.943  10.498   5.126
  208POPC   C3B 2988   8.629  10.321   5.418
  208POPC   C4B 2989   8.753  10.240   5.840
  209POPC   NC3 2990   5.098   0.058   4.035
  209POPC   PO4 2991   5.321  11.007   3.740
  209POPC   GL1 2992   5.259  11.108   4.210
  209POPC   GL2 2993   4.883  11.147   4.327
  209POPC   C1A 2994   5.213  11.323   4.658
  209POPC   D2A 2995   4.873  11.393   4.977
  209POPC   C3A 2996   4.940   0.022   5.436
  209POPC   C4A 2997   5.132  11.431   5.872
  209POPC   C1B 2998   4.824  10.918   4.750
  209POPC   C2B 2999   5.028  10.822   5.175
  209POPC   C3B 3000   5.171  10.990   5.604
  209POPC   C4B 3001   4.944  10.975   6.042
  210POPC   NC3 3002   0.584  10.194   3.765
  210POPC   PO4 3003  11.441   9.907   3.938
  210POPC   GL1 3004   0.288  10.142   4.224
  210POPC   GL2 3005   0.355  10.466   4.171
  210POPC   C1A 3006   0.282  10.106   4.690
  210POPC   D2A 3007   0.083  10.069   5.121
  210POPC   C3A 3008   0.365  10.196   5.465
  210POPC   C4A 3009   0.341  10.376   5.891
  210POPC   C1B 3010   0.328  10.634   4.596
  210POPC   C2B 3011   0.463  10.490   5.030
  210POPC   C3B 3012   0.544  10.684   5.443
  210POPC   C4B 3013   0.687  10.745   5.868
  211POPC   NC3 3014   2.137   1.790   3.807
  211POPC   PO4 3015   2.238   2.445   3.891
  211POPC   GL1 3016   1.982   2.299   4.222
  211POPC   GL2 3017   1.936   1.953   4.269
  211POPC   C1A 3018   2.137   2.282   4.642
  211POPC   D2A 3019   1.988   2.237   5.055
  211POPC   C3A 3020   2.294   2.229   5.363
  211POPC   C4A 3021   2.198   2.244   5.766
  211POPC   C1B 3022   1.717   1.969   4.661
  211POPC   C2B 3023   1.657   1.831   5.077
  211POPC   C3B 3024   1.840   1.914   5.462
  211POPC   C4B 3025   1.683   2.213   5.704
  212POPC   NC3 3026  11.006   8.813   3.710
  212POPC   PO4 3027   0.062   8.601   3.807
  212POPC   GL1 3028  11.431   8.839   4.214
  212POPC   GL2 3029  11.125   8.975   4.173
  212POPC   C1A 3030  11.263   8.780   4.660
  212POPC   D2A 3031  11.306   8.737   5.114
  212POPC   C3A 3032  11.467   8.435   5.428
  212POPC   C4A 3033  11.226   8.784   5.643
  212POPC   C1B 3034  10.970   9.184   4.528
  212POPC   C2B 3035  10.916   9.107   4.959
  212POPC   C3B 3036  11.081   9.188   5.358
  212POPC   C4B 3037  10.953   9.195   5.787
  213POPC   NC3 3038   7.119  10.949   3.910
  213POPC   PO4 3039   7.812  11.026   3.837
  213POPC   GL1 3040   7.583  10.880   4.191
  213POPC   GL2 3041   7.381  11.154   4.303
  213POPC   C1A 3042   7.528  10.846   4.655
  213POPC   D2A 3043   7.442  10.872   5.082
  213POPC   C3A 3044   7.634  10.792   5.439
  213POPC   C4A 3045   7.440  10.884   5.817
  213POPC   C1B 3046   7.105  11.194   4.642
  213POPC   C2B 3047   7.134  11.369   5.007
  213POPC   C3B 3048   7.076  11.152   5.345
  213POPC   C4B 3049   7.213  11.318   5.707
  214POPC   NC3 3050   4.030   1.418   4.086
  214POPC   PO4 3051   3.375   1.546   3.850
  214POPC   GL1 3052   3.289   1.424   4.270
  214POPC   GL2 3053   3.524   1.155   4.216
  214POPC   C1A 3054   3.537   1.410   4.685
  214POPC   D2A 3055   3.925   1.517   4.947
  214POPC   C3A 3056   3.733   1.534   5.340
  214POPC   C4A 3057   3.528   1.526   5.707
  214POPC   C1B 3058   3.273   0.955   4.538
  214POPC   C2B 3059   3.363   0.871   4.958
  214POPC   C3B 3060   3.330   0.848   5.386
  214POPC   C4B 3061   3.510   1.016   5.709
  215POPC   NC3 3062   9.713   6.641   4.016
  215POPC   PO4 3063  10.066   6.064   3.883
  215POPC   GL1 3064   9.873   6.260   4.291
  215POPC   GL2 3065   9.477   6.343   4.359
  215POPC   C1A 3066   9.816   6.515   4.686
  215POPC   D2A 3067   9.610   6.490   5.090
  215POPC   C3A 3068   9.851   6.694   5.460
  215POPC   C4A 3069   9.843   6.450   5.836
  215POPC   C1B 3070   9.367   6.758   4.653
  215POPC   C2B 3071   9.390   6.935   5.106
  215POPC   C3B 3072   9.358   6.724   5.520
  215POPC   C4B 3073   9.383   6.619   5.943
  216POPC   NC3 3074   4.486   8.946   4.083
  216POPC   PO4 3075   3.965   9.227   3.837
  216POPC   GL1 3076   3.930   9.013   4.279
  216POPC   GL2 3077   4.219   9.021   4.504
  216POPC   C1A 3078   3.787   8.935   4.746
  216POPC   D2A 3079   3.850   9.126   5.163
  216POPC   C3A 3080   4.065   8.895   5.508
  216POPC   C4A 3081   4.161   8.480   5.691
  216POPC   C1B 3082   4.534   9.008   4.817
  216POPC   C2B 3083   4.510   8.895   5.251
  216POPC   C3B 3084   4.582   8.780   5.660
  216POPC   C4B 3085   4.759   8.904   6.028
  217POPC   NC3 3086   1.162   4.348   3.881
  217POPC   PO4 3087   1.725   4.746   4.095
  217POPC   GL1 3088   1.350   4.439   4.331
  217POPC   GL2 3089   1.140   4.047   4.280
  217POPC   C1A 3090   1.116   4.318   4.703
  217POPC   D2A 3091   1.276   4.473   5.050
  217POPC   C3A 3092   1.288   4.353   5.454
  217POPC   C4A 3093   1.454   4.602   5.779
  217POPC   C1B 3094   1.040   3.808   4.682
  217POPC   C2B 3095   0.991   3.915   5.132
  217POPC   C3B 3096   0.988   3.963   5.593
  217POPC   C4B 3097   1.359   4.050   5.884
  218POPC   NC3 3098   1.706   3.715   3.808
  218POPC   PO4 3099   2.164   3.856   4.218
  218POPC   GL1 3100   1.930   3.602   4.402
  218POPC   GL2 3101   2.146   3.323   4.334
  218POPC   C1A 3102   1.918   3.728   4.803
  218POPC   D2A 3103   1.866   3.921   5.158
  218POPC   C3A 3104   1.959   3.682   5.495
  218POPC   C4A 3105   2.187   3.737   5.856
  218POPC   C1B 3106   1.946   3.214   4.748
  218POPC   C2B 3107   2.073   3.229   5.185
  218POPC   C3B 3108   1.953   3.187   5.623
  218POPC   C4B 3109   2.156   3.265   5.996
  219POPC   NC3 3110  10.594   1.142   3.838
  219POPC   PO4 3111   9.962   1.259   3.908
  219POPC   GL1 3112  10.237   1.114   4.268
  219POPC   GL2 3113  10.630   1.129   4.340
  219POPC   C1A 3114  10.302   1.161   4.727
  219POPC   D2A 3115  10.085   1.250   5.112
  219POPC   C3A 3116  10.034   1.645   5.297
  219POPC   C4A 3117   9.982   1.436   5.680
  219POPC   C1B 3118  10.810   1.029   4.743
  219POPC   C2B 3119  10.602   0.964   5.122
  219POPC   C3B 3120  10.426   1.105   5.512
  219POPC   C4B 3121  10.655   1.026   5.892
  220POPC   NC3 3122   8.684   3.576   3.895
  220POPC   PO4 3123   9.237   3.290   3.695
  220POPC   GL1 3124   9.180   3.288   4.185
  220POPC   GL2 3125   8.873   3.404   4.326
  220POPC   C1A 3126   9.250   3.496   4.652
  220POPC   D2A 3127   9.229   3.806   5.036
  220POPC   C3A 3128   9.118   3.567   5.406
  220POPC   C4A 3129   8.977   3.407   5.792
  220POPC   C1B 3130   8.569   3.372   4.668
  220POPC   C2B 3131   8.444   3.254   5.111
  220POPC   C3B 3132   8.531   3.383   5.528
  220POPC   C4B 3133   8.393   3.643   5.874
  221POPC   NC3 3134   0.852   0.525   3.867
  221POPC   PO4 3135   1.417   0.160   3.759
  221POPC   GL1 3136   1.154   0.268   4.175
  221POPC   GL2 3137   1.143   0.608   4.314
  221POPC   C1A 3138   1.022   0.251   4.633
  221POPC   D2A 3139   0.946   0.416   5.023
  221POPC   C3A 3140   0.829   0.184   5.361
  221POPC   C4A 3141   0.993   0.340   5.734
  221POPC   C1B 3142   1.355   0.625   4.745
  221POPC   C2B 3143   1.577   0.597   5.158
  221POPC   C3B 3144   1.600   0.339   5.547
  221POPC   C4B 3145   1.423   0.557   5.889
  222POPC   NC3 3146   1.549   8.772   4.118
  222POPC   PO4 3147   0.914   8.870   3.910
  222POPC   GL1 3148   1.059   8.685   4.272
  222POPC   GL2 3149   1.134   9.015   4.391
  222POPC   C1A 3150   1.229   8.549   4.676
  222POPC   D2A 3151   1.034   8.641   5.081
  222POPC   C3A 3152   1.262   8.535   5.456
  222POPC   C4A 3153   1.360   8.652   5.870
  222POPC   C1B 3154   1.303   9.031   4.808
  222POPC   C2B 3155   1.339   9.027   5.235
  222POPC   C3B 3156   1.008   8.979   5.496
  222POPC   C4B 3157   1.144   9.124   5.854
  223POPC   NC3 3158  10.001   0.631   3.867
  223POPC   PO4 3159   9.608   0.078   3.875
  223POPC   GL1 3160   9.716   0.342   4.228
  223POPC   GL2 3161   9.407   0.254   4.331
  223POPC   C1A 3162   9.708   0.420   4.698
  223POPC   D2A 3163   9.906   0.324   5.048
  223POPC   C3A 3164   9.701   0.403   5.390
  223POPC   C4A 3165   9.830   0.481   5.783
  223POPC   C1B 3166   9.239   0.555   4.582
  223POPC   C2B 3167   9.281   0.451   5.017
  223POPC   C3B 3168   9.280   0.682   5.406
  223POPC   C4B 3169   9.373   0.689   5.794
  224POPC   NC3 3170   8.093   2.931   4.011
  224POPC   PO4 3171   7.896   2.330   3.649
  224POPC   GL1 3172   8.164   2.438   4.054
  224POPC   GL2 3173   7.974   2.482   4.327
  224POPC   C1A 3174   8.454   2.549   4.459
  224POPC   D2A 3175   8.507   2.819   4.849
  224POPC   C3A 3176   8.524   2.728   5.328
  224POPC   C4A 3177   8.382   2.565   5.767
  224POPC   C1B 3178   7.971   2.727   4.696
  224POPC   C2B 3179   8.011   2.960   5.069
  224POPC   C3B 3180   8.063   2.880   5.507
  224POPC   C4B 3181   7.872   2.749   5.896
  225POPC   NC3 3182   7.495   0.887   3.902
  225POPC   PO4 3183   7.607   1.587   3.916
  225POPC   GL1 3184   7.544   1.362   4.333
  225POPC   GL2 3185   7.446   1.006   4.409
  225POPC   C1A 3186   7.521   1.307   4.802
  225POPC   D2A 3187   7.579   1.321   5.238
  225POPC   C3A 3188   7.553   1.116   5.611
  225POPC   C4A 3189   7.617   1.467   5.817
  225POPC   C1B 3190   7.049   1.142   4.692
  225POPC   C2B 3191   6.911   1.365   5.077
  225POPC   C3B 3192   7.093   1.257   5.465
  225POPC   C4B 3193   7.064   0.976   5.837
  226POPC   NC3 3194  10.304   4.879   3.840
  226POPC   PO4 3195  10.798   5.390   3.980
  226POPC   GL1 3196  10.545   5.072   4.252
  226POPC   GL2 3197  10.132   5.001   4.299
  226POPC   C1A 3198  10.632   5.089   4.706
  226POPC   D2A 3199  10.505   5.224   5.121
  226POPC   C3A 3200  10.666   5.140   5.524
  226POPC   C4A 3201  10.400   5.174   5.875
  226POPC   C1B 3202  10.306   4.711   4.573
  226POPC   C2B 3203  10.314   4.764   5.022
  226POPC   C3B 3204  10.200   4.952   5.429
  226POPC   C4B 3205  10.026   4.790   5.769
  227POPC   NC3 3206   2.149   4.268   4.023
  227POPC   PO4 3207   1.550   4.145   3.761
  227POPC   GL1 3208   1.640   4.011   4.248
  227POPC   GL2 3209   1.822   4.240   4.388
  227POPC   C1A 3210   1.566   4.105   4.780
  227POPC   D2A 3211   1.752   4.396   5.176
  227POPC   C3A 3212   1.764   4.170   5.597
  227POPC   C4A 3213   1.864   4.068   6.043
  227POPC   C1B 3214   2.078   4.231   4.751
  227POPC   C2B 3215   2.257   4.229   5.138
  227POPC   C3B 3216   2.269   4.102   5.525
  227POPC   C4B 3217   2.342   4.256   5.951
  228POPC   NC3 3218  11.046   4.253   3.918
  228POPC   PO4 3219  11.476   4.740   3.913
  228POPC   GL1 3220  11.500   4.525   4.292
  228POPC   GL2 3221  11.138   4.545   4.352
  228POPC   C1A 3222   0.183   4.395   4.703
  228POPC   D2A 3223   0.167   4.433   5.151
  228POPC   C3A 3224  11.303   4.352   5.399
  228POPC   C4A 3225  11.170   4.553   5.792
  228POPC   C1B 3226  11.258   4.132   4.561
  228POPC   C2B 3227  11.388   3.989   4.982
  228POPC   C3B 3228  11.272   3.827   5.395
  228POPC   C4B 3229  11.163   4.028   5.777
  229POPC   NC3 3230   3.473   5.732   4.007
  229POPC   PO4 3231   3.901   5.522   4.274
  229POPC   GL1 3232   3.630   5.794   4.543
  229POPC   GL2 3233   3.373   6.018   4.429
  229POPC   C1A 3234   3.508   5.934   4.987
  229POPC   D2A 3235   3.593   5.764   5.425
  229POPC   C3A 3236   3.750   6.027   5.760
  229POPC   C4A 3237   3.655   6.093   6.176
  229POPC   C1B 3238   3.147   5.687   4.689
  229POPC   C2B 3239   3.124   5.612   5.153
  229POPC   C3B 3240   3.148   5.607   5.607
  229POPC   C4B 3241   3.246   5.945   5.854
  230POPC   NC3 3242   9.098   2.884   3.845
  230POPC   PO4 3243   8.509   3.138   3.991
  230POPC   GL1 3244   8.801   2.885   4.263
  230POPC   GL2 3245   8.899   2.508   4.153
  230POPC   C1A 3246   8.980   3.030   4.653
  230POPC   D2A 3247   8.938   3.300   5.007
  230POPC   C3A 3248   8.937   3.081   5.389
  230POPC   C4A 3249   8.719   2.963   5.755
  230POPC   C1B 3250   8.981   2.515   4.606
  230POPC   C2B 3251   8.970   2.676   5.042
  230POPC   C3B 3252   9.050   2.595   5.484
  230POPC   C4B 3253   8.935   2.536   5.926
  231POPC   NC3 3254   9.987   3.139   4.100
  231POPC   PO4 3255  10.230   2.473   3.964
  231POPC   GL1 3256  10.403   2.601   4.329
  231POPC   GL2 3257  10.760   2.574   4.280
  231POPC   C1A 3258  10.302   2.831   4.698
  231POPC   D2A 3259  10.387   2.731   5.132
  231POPC   C3A 3260  10.414   2.998   5.502
  231POPC   C4A 3261  10.274   2.800   5.877
  231POPC   C1B 3262  10.739   2.566   4.745
  231POPC   C2B 3263  10.775   2.407   5.159
  231POPC   C3B 3264  10.728   2.595   5.596
  231POPC   C4B 3265  10.760   2.749   6.031
  232POPC   NC3 3266   1.721   7.446   3.998
  232POPC   PO4 3267   2.347   7.580   3.979
  232POPC   GL1 3268   2.109   7.495   4.325
  232POPC   GL2 3269   2.022   7.152   4.274
  232POPC   C1A 3270   2.012   7.357   4.731
  232POPC   D2A 3271   1.819   7.466   5.067
  232POPC   C3A 3272   2.148   7.530   5.354
  232POPC   C4A 3273   2.185   7.780   5.743
  232POPC   C1B 3274   1.656   7.038   4.587
  232POPC   C2B 3275   1.668   6.941   5.033
  232POPC   C3B 3276   1.884   7.093   5.407
  232POPC   C4B 3277   2.142   7.230   5.771
  233POPC   NC3 3278   0.456   8.796   3.965
  233POPC   PO4 3279   0.111   8.332   4.307
  233POPC   GL1 3280   0.314   8.717   4.514
  233POPC   GL2 3281   0.614   8.899   4.424
  233POPC   C1A 3282   0.233   9.087   4.772
  233POPC   D2A 3283   0.054   9.190   5.172
  233POPC   C3A 3284   0.210   8.874   5.440
  233POPC   C4A 3285   0.213   8.653   5.842
  233POPC   C1B 3286   0.773   9.060   4.812
  233POPC   C2B 3287   0.584   9.169   5.219
  233POPC   C3B 3288   0.554   9.166   5.678
  233POPC   C4B 3289   0.712   8.821   5.906
  234POPC   NC3 3290   3.522   9.080   3.858
  234POPC   PO4 3291   3.311   8.503   4.057
  234POPC   GL1 3292   3.429   8.710   4.422
  234POPC   GL2 3293   3.437   9.069   4.397
  234POPC   C1A 3294   3.481   8.543   4.858
  234POPC   D2A 3295   3.723   8.621   5.237
  234POPC   C3A 3296   3.474   8.618   5.617
  234POPC   C4A 3297   3.443   8.430   6.028
  234POPC   C1B 3298   3.241   8.987   4.820
  234POPC   C2B 3299   3.364   8.989   5.249
  234POPC   C3B 3300   3.608   9.105   5.637
  234POPC   C4B 3301   3.398   9.032   6.049
  235POPC   NC3 3302   2.634   2.719   3.829
  235POPC   PO4 3303   3.147   2.207   3.812
  235POPC   GL1 3304   2.863   2.412   4.182
  235POPC   GL2 3305   2.879   2.777   4.333
  235POPC   C1A 3306   2.605   2.497   4.611
  235POPC   D2A 3307   2.817   2.595   5.029
  235POPC   C3A 3308   2.637   2.621   5.440
  235POPC   C4A 3309   2.835   2.737   5.824
  235POPC   C1B 3310   2.904   3.009   4.765
  235POPC   C2B 3311   2.603   3.079   5.171
  235POPC   C3B 3312   2.482   3.058   5.639
  235POPC   C4B 3313   2.522   2.975   6.130
  236POPC   NC3 3314   1.829   0.347   3.864
  236POPC   PO4 3315   1.624  11.331   4.189
  236POPC   GL1 3316   1.593   0.238   4.411
  236POPC   GL2 3317   1.673   0.593   4.319
  236POPC   C1A 3318   1.744   0.257   4.813
  236POPC   D2A 3319   2.101   0.049   4.965
  236POPC   C3A 3320   2.013  11.493   5.372
  236POPC   C4A 3321   2.167   0.160   5.719
  236POPC   C1B 3322   2.086   0.502   4.524
  236POPC   C2B 3323   2.145   0.579   4.975
  236POPC   C3B 3324   2.053   0.547   5.400
  236POPC   C4B 3325   2.385   0.636   5.691
  237POPC   NC3 3326   1.885   2.741   3.945
  237POPC   PO4 3327   2.340   3.080   3.783
  237POPC   GL1 3328   2.382   2.889   4.233
  237POPC   GL2 3329   2.071   2.776   4.410
  237POPC   C1A 3330   2.407   2.977   4.700
  237POPC   D2A 3331   2.315   2.649   5.013
  237POPC   C3A 3332   2.123   2.741   5.393
  237POPC   C4A 3333   2.161   2.749   5.848
  237POPC   C1B 3334   1.847   2.691   4.795
  237POPC   C2B 3335   1.508   2.450   4.977
  237POPC   C3B 3336   1.421   2.536   5.390
  237POPC   C4B 3337   1.699   2.698   5.677
  238POPC   NC3 3338   0.260   0.145   4.087
  238POPC   PO4 3339   0.423   0.768   3.856
  238POPC   GL1 3340   0.631   0.716   4.282
  238POPC   GL2 3341   0.648   0.378   4.321
  238POPC   C1A 3342   0.572   0.605   4.746
  238POPC   D2A 3343   0.443   0.466   5.143
  238POPC   C3A 3344   0.646   0.641   5.472
  238POPC   C4A 3345   0.395   0.746   5.740
  238POPC   C1B 3346   0.554   0.081   4.684
  238POPC   C2B 3347   0.383  11.467   5.078
  238POPC   C3B 3348   0.343   0.058   5.524
  238POPC   C4B 3349   0.500   0.268   5.872
  239POPC   NC3 3350   1.921   9.517   3.865
  239POPC   PO4 3351   2.528   9.596   4.073
  239POPC   GL1 3352   2.154   9.695   4.317
  239POPC   GL2 3353   1.780   9.674   4.310
  239POPC   C1A 3354   2.048   9.651   4.749
  239POPC   D2A 3355   2.256   9.540   5.097
  239POPC   C3A 3356   2.268   9.909   5.354
  239POPC   C4A 3357   2.050   9.680   5.671
  239POPC   C1B 3358   1.650   9.361   4.633
  239POPC   C2B 3359   1.483   9.467   5.017
  239POPC   C3B 3360   1.653   9.518   5.393
  239POPC   C4B 3361   1.519   9.509   5.785
  240POPC   NC3 3362   0.433   1.946   4.181
  240POPC   PO4 3363  11.493   2.354   3.843
  240POPC   GL1 3364   0.209   2.377   4.336
  240POPC   GL2 3365   0.554   2.272   4.539
  240POPC   C1A 3366   0.177   2.398   4.824
  240POPC   D2A 3367   0.342   2.346   5.243
  240POPC   C3A 3368   0.271   1.960   5.469
  240POPC   C4A 3369   0.089   1.879   5.881
  240POPC   C1B 3370   0.360   1.912   4.842
  240POPC   C2B 3371   0.528   1.626   5.189
  240POPC   C3B 3372   0.763   1.828   5.561
  240POPC   C4B 3373   0.637   2.254   5.720
  241POPC   NC3 3374   9.136   7.442   3.942
  241POPC   PO4 3375   8.653   7.805   4.049
  241POPC   GL1 3376   8.856   7.537   4.365
  241POPC   GL2 3377   9.025   7.195   4.406
  241POPC   C1A 3378   8.960   7.602   4.768
  241POPC   D2A 3379   8.812   7.535   5.181
  241POPC   C3A 3380   9.065   7.391   5.513
  241POPC   C4A 3381   8.892   7.307   5.948
  241POPC   C1B 3382   8.961   7.098   4.883
  241POPC   C2B 3383   8.920   6.921   5.341
  241POPC   C3B 3384   8.919   6.797   5.813
  241POPC   C4B 3385   9.103   6.906   6.259
  242POPC   NC3 3386   2.863  10.842   3.890
  242POPC   PO4 3387   2.366  11.384   3.912
  242POPC   GL1 3388   2.553  11.111   4.215
  242POPC   GL2 3389   2.897  11.167   4.267
  242POPC   C1A 3390   2.608  11.271   4.650
  242POPC   D2A 3391   2.777  11.403   5.048
  242POPC   C3A 3392   2.521  11.313   5.404
  242POPC   C4A 3393   2.715  11.092   5.689
  242POPC   C1B 3394   2.956  10.871   4.563
  242POPC   C2B 3395   2.963  10.901   5.007
  242POPC   C3B 3396   3.127  10.865   5.422
  242POPC   C4B 3397   3.058  10.764   5.825
  243POPC   NC3 3398   6.464   2.056   3.926
  243POPC   PO4 3399   6.488   1.353   3.842
  243POPC   GL1 3400   6.474   1.602   4.210
  243POPC   GL2 3401   6.784   1.794   4.295
  243POPC   C1A 3402   6.332   1.678   4.625
  243POPC   D2A 3403   6.265   1.592   5.058
  243POPC   C3A 3404   6.584   1.748   5.346
  243POPC   C4A 3405   6.489   1.866   5.763
  243POPC   C1B 3406   6.990   1.939   4.700
  243POPC   C2B 3407   6.985   2.055   5.177
  243POPC   C3B 3408   6.758   2.242   5.522
  243POPC   C4B 3409   6.554   2.374   5.902
  244POPC   NC3 3410   9.514   1.390   3.771
  244POPC   PO4 3411   9.555   0.752   3.904
  244POPC   GL1 3412   9.704   0.983   4.268
  244POPC   GL2 3413   9.395   1.113   4.422
  244POPC   C1A 3414   9.786   1.063   4.722
  244POPC   D2A 3415   9.631   0.815   5.026
  244POPC   C3A 3416   9.780   0.913   5.384
  244POPC   C4A 3417   9.787   0.975   5.776
  244POPC   C1B 3418   9.399   1.395   4.798
  244POPC   C2B 3419   9.577   1.343   5.175
  244POPC   C3B 3420   9.432   1.246   5.549
  244POPC   C4B 3421   9.540   1.388   5.961
  245POPC   NC3 3422   8.074   8.699   3.864
  245POPC   PO4 3423   8.211   9.251   3.757
  245POPC   GL1 3424   8.207   9.001   4.228
  245POPC   GL2 3425   7.919   9.121   4.358
  245POPC   C1A 3426   8.264   9.056   4.711
  245POPC   D2A 3427   7.978   9.006   5.035
  245POPC   C3A 3428   8.251   8.979   5.396
  245POPC   C4A 3429   8.201   9.131   5.827
  245POPC   C1B 3430   7.894   8.696   4.606
  245POPC   C2B 3431   7.763   8.528   5.027
  245POPC   C3B 3432   7.915   8.439   5.439
  245POPC   C4B 3433   8.203   8.615   5.744
  246POPC   NC3 3434   7.567   8.094   4.038
  246POPC   PO4 3435   7.121   7.667   3.898
  246POPC   GL1 3436   7.175   7.919   4.338
  246POPC   GL2 3437   7.233   8.305   4.352
  246POPC   C1A 3438   7.207   8.054   4.811
  246POPC   D2A 3439   7.516   8.097   5.185
  246POPC   C3A 3440   7.380   7.954   5.609
  246POPC   C4A 3441   7.267   7.893   6.070
  246POPC   C1B 3442   7.363   8.551   4.701
  246POPC   C2B 3443   7.223   8.505   5.107
  246POPC   C3B 3444   7.399   8.503   5.510
  246POPC   C4B 3445   7.160   8.346   5.856
  247POPC   NC3 3446   4.322   2.343   3.946
  247POPC   PO4 3447   4.140   1.717   3.723
  247POPC   GL1 3448   4.141   1.912   4.149
  247POPC   GL2 3449   4.451   1.944   4.362
  247POPC   C1A 3450   3.970   1.904   4.572
  247POPC   D2A 3451   4.040   2.165   4.944
  247POPC   C3A 3452   4.058   1.930   5.329
  247POPC   C4A 3453   4.095   1.647   5.703
  247POPC   C1B 3454   4.394   1.787   4.826
  247POPC   C2B 3455   4.430   1.584   5.235
  247POPC   C3B 3456   4.568   1.801   5.581
  247POPC   C4B 3457   4.342   2.208   5.652
  248POPC   NC3 3458  10.868   0.363   4.251
  248POPC   PO4 3459  10.456   0.688   3.781
  248POPC   GL1 3460  10.461   0.651   4.223
  248POPC   GL2 3461  10.268   0.348   4.290
  248POPC   C1A 3462  10.520   0.590   4.717
  248POPC   D2A 3463  10.436   0.332   5.074
  248POPC   C3A 3464  10.681   0.529   5.371
  248POPC   C4A 3465  10.597   0.451   5.762
  248POPC   C1B 3466  10.076   0.702   4.539
  248POPC   C2B 3467  10.137   0.763   5.008
  248POPC   C3B 3468  10.195   0.643   5.449
  248POPC   C4B 3469  10.233   0.783   5.894
  249POPC   NC3 3470   9.226   0.434   3.903
  249POPC   PO4 3471   8.638   0.084   3.757
  249POPC   GL1 3472   8.994  11.493   4.136
  249POPC   GL2 3473   8.878   0.257   4.316
  249POPC   C1A 3474   9.142  11.487   4.661
  249POPC   D2A 3475   9.001   0.015   5.134
  249POPC   C3A 3476   9.235   0.187   5.508
  249POPC   C4A 3477   9.139   0.287   5.961
  249POPC   C1B 3478   8.793   0.363   4.764
  249POPC   C2B 3479   8.820   0.542   5.191
  249POPC   C3B 3480   8.776   0.405   5.601
  249POPC   C4B 3481   8.736   0.725   5.868
  250POPC   NC3 3482   7.859   1.980   3.950
  250POPC   PO4 3483   8.453   1.635   3.831
  250POPC   GL1 3484   8.215   1.683   4.236
  250POPC   GL2 3485   8.198   2.018   4.341
  250POPC   C1A 3486   7.996   1.715   4.678
  250POPC   D2A 3487   8.109   1.896   5.108
  250POPC   C3A 3488   7.841   1.800   5.442
  250POPC   C4A 3489   7.753   1.955   5.848
  250POPC   C1B 3490   8.149   2.236   4.733
  250POPC   C2B 3491   8.091   2.453   5.128
  250POPC   C3B 3492   7.968   2.333   5.541
  250POPC   C4B 3493   8.249   2.039   5.708
  251POPC   NC3 3494   2.994   8.482   3.745
  251POPC   PO4 3495   2.337   8.534   3.953
  251POPC   GL1 3496   2.384   8.346   4.406
  251POPC   GL2 3497   2.340   7.955   4.433
  251POPC   C1A 3498   2.498   8.302   4.890
  251POPC   D2A 3499   2.863   8.211   5.220
  251POPC   C3A 3500   3.082   8.244   5.659
  251POPC   C4A 3501   2.891   8.290   6.090
  251POPC   C1B 3502   2.350   7.763   4.870
  251POPC   C2B 3503   2.402   7.966   5.289
  251POPC   C3B 3504   2.600   8.063   5.696
  251POPC   C4B 3505   2.496   7.927   6.128
  252POPC   NC3 3506   6.538   3.619   4.045
  252POPC   PO4 3507   6.928   3.452   4.238
  252POPC   GL1 3508   6.635   3.608   4.556
  252POPC   GL2 3509   6.341   3.401   4.492
  252POPC   C1A 3510   6.419   3.618   4.978
  252POPC   D2A 3511   6.281   3.903   5.312
  252POPC   C3A 3512   6.573   3.894   5.659
  252POPC   C4A 3513   6.850   3.525   5.805
  252POPC   C1B 3514   6.617   3.155   4.790
  252POPC   C2B 3515   6.737   3.252   5.216
  252POPC   C3B 3516   6.446   3.431   5.492
  252POPC   C4B 3517   6.167   3.586   5.802
  253POPC   NC3 3518   8.173   9.680   3.958
  253POPC   PO4 3519   7.662  10.058   4.042
  253POPC   GL1 3520   7.938   9.873   4.359
  253POPC   GL2 3521   8.315   9.869   4.426
  253POPC   C1A 3522   7.952  10.041   4.770
  253POPC   D2A 3523   7.912   9.791   5.124
  253POPC   C3A 3524   7.688   9.820   5.484
  253POPC   C4A 3525   7.694   9.889   5.912
  253POPC   C1B 3526   8.188   9.587   4.749
  253POPC   C2B 3527   8.256   9.416   5.106
  253POPC   C3B 3528   7.992   9.412   5.465
  253POPC   C4B 3529   8.150   9.667   5.796
  254POPC   NC3 3530   9.475   9.843   3.768
  254POPC   PO4 3531   9.150   9.328   4.032
  254POPC   GL1 3532   9.319   9.656   4.279
  254POPC   GL2 3533   9.696   9.724   4.305
  254POPC   C1A 3534   9.220   9.670   4.714
  254POPC   D2A 3535   9.259   9.390   5.081
  254POPC   C3A 3536   9.237   9.556   5.518
  254POPC   C4A 3537   9.466   9.543   5.924
  254POPC   C1B 3538   9.913   9.678   4.751
  254POPC   C2B 3539   9.872   9.677   5.230
  254POPC   C3B 3540   9.987   9.496   5.646
  254POPC   C4B 3541   9.980   9.447   6.111
  255POPC   NC3 3542   5.223   0.960   4.008
  255POPC   PO4 3543   5.127   1.569   3.660
  255POPC   GL1 3544   5.019   1.395   4.153
  255POPC   GL2 3545   4.779   1.094   4.245
  255POPC   C1A 3546   5.085   1.267   4.609
  255POPC   D2A 3547   5.207   1.404   5.020
  255POPC   C3A 3548   4.893   1.365   5.342
  255POPC   C4A 3549   4.896   1.374   5.778
  255POPC   C1B 3550   4.760   0.850   4.630
  255POPC   C2B 3551   4.957   0.940   5.028
  255POPC   C3B 3552   5.088   0.903   5.440
  255POPC   C4B 3553   5.168   0.969   5.873
  256POPC   NC3 3554   0.211   8.022   3.980
  256POPC   PO4 3555   0.884   7.779   3.995
  256POPC   GL1 3556   0.603   8.010   4.312
  256POPC   GL2 3557   0.621   8.376   4.247
  256POPC   C1A 3558   0.449   8.046   4.757
  256POPC   D2A 3559   0.188   7.899   5.102
  256POPC   C3A 3560   0.400   8.047   5.471
  256POPC   C4A 3561   0.440   7.834   5.861
  256POPC   C1B 3562   0.729   8.478   4.673
  256POPC   C2B 3563   0.517   8.652   5.038
  256POPC   C3B 3564   0.632   8.575   5.468
  256POPC   C4B 3565   0.604   8.319   5.860
  257POPC   NC3 3566  10.185   7.327   4.237
  257POPC   PO4 3567   9.601   7.509   3.926
  257POPC   GL1 3568   9.711   7.527   4.360
  257POPC   GL2 3569   9.378   7.570   4.386
  257POPC   C1A 3570   9.919   7.447   4.809
  257POPC   D2A 3571  10.077   7.383   5.234
  257POPC   C3A 3572   9.841   7.650   5.500
  257POPC   C4A 3573   9.656   7.544   5.912
  257POPC   C1B 3574   9.407   7.341   4.749
  257POPC   C2B 3575   9.505   7.434   5.169
  257POPC   C3B 3576   9.614   7.184   5.520
  257POPC   C4B 3577   9.341   7.118   5.848
  258POPC   NC3 3578   8.246  11.166   3.697
  258POPC   PO4 3579   8.794  10.994   4.055
  258POPC   GL1 3580   8.797  11.135   4.444
  258POPC   GL2 3581   9.108  11.025   4.465
  258POPC   C1A 3582   8.634  11.380   4.793
  258POPC   D2A 3583   8.590  11.200   5.209
  258POPC   C3A 3584   8.569  11.418   5.590
  258POPC   C4A 3585   8.801  11.440   5.971
  258POPC   C1B 3586   8.976  11.017   4.900
  258POPC   C2B 3587   9.149  10.964   5.252
  258POPC   C3B 3588   9.066  11.210   5.577
  258POPC   C4B 3589   9.344  11.323   5.909
  259POPC   NC3 3590   1.701   6.604   3.783
  259POPC   PO4 3591   2.190   6.243   3.766
  259POPC   GL1 3592   1.908   6.337   4.160
  259POPC   GL2 3593   1.885   6.671   4.256
  259POPC   C1A 3594   1.811   6.291   4.641
  259POPC   D2A 3595   1.716   6.174   5.098
  259POPC   C3A 3596   1.921   6.304   5.521
  259POPC   C4A 3597   2.276   6.392   5.847
  259POPC   C1B 3598   2.053   6.745   4.689
  259POPC   C2B 3599   2.101   6.600   5.113
  259POPC   C3B 3600   2.244   6.760   5.510
  259POPC   C4B 3601   1.902   6.763   5.809
  260POPC   NC3 3602  11.183   5.641   3.937
  260POPC   PO4 3603  10.757   6.205   3.987
  260POPC   GL1 3604  10.911   5.911   4.284
  260POPC   GL2 3605  11.284   5.932   4.344
  260POPC   C1A 3606  10.979   5.728   4.699
  260POPC   D2A 3607  10.752   5.654   5.081
  260POPC   C3A 3608  10.927   5.747   5.477
  260POPC   C4A 3609  10.774   5.565   5.850
  260POPC   C1B 3610  11.457   5.952   4.776
  260POPC   C2B 3611  11.381   5.928   5.223
  260POPC   C3B 3612  11.418   5.712   5.619
  260POPC   C4B 3613  11.151   5.893   5.951
  261POPC   NC3 3614   5.080   9.274   4.032
  261POPC   PO4 3615   5.239  10.015   3.838
  261POPC   GL1 3616   5.148   9.760   4.191
  261POPC   GL2 3617   5.282   9.497   4.433
  261POPC   C1A 3618   5.013   9.898   4.597
  261POPC   D2A 3619   4.985   9.764   5.007
  261POPC   C3A 3620   4.942   9.941   5.394
  261POPC   C4A 3621   5.006   9.726   5.789
  261POPC   C1B 3622   4.973   9.330   4.744
  261POPC   C2B 3623   4.782   9.327   5.182
  261POPC   C3B 3624   4.721   9.282   5.639
  261POPC   C4B 3625   4.684   9.399   6.084
  262POPC   NC3 3626  10.876   6.661   3.956
  262POPC   PO4 3627  11.346   7.014   3.989
  262POPC   GL1 3628  11.223   6.789   4.326
  262POPC   GL2 3629  11.219   6.437   4.257
  262POPC   C1A 3630  11.328   6.730   4.725
  262POPC   D2A 3631  11.155   6.576   5.069
  262POPC   C3A 3632  11.207   6.773   5.445
  262POPC   C4A 3633  11.319   7.013   5.785
  262POPC   C1B 3634  11.038   6.278   4.637
  262POPC   C2B 3635  10.935   6.123   5.035
  262POPC   C3B 3636  11.054   6.244   5.453
  262POPC   C4B 3637  11.173   6.391   5.834
  263POPC   NC3 3638  11.114   7.446   3.887
  263POPC   PO4 3639  10.539   6.987   3.792
  263POPC   GL1 3640  10.860   7.128   4.188
  263POPC   GL2 3641  11.051   7.443   4.372
  263POPC   C1A 3642  10.938   7.063   4.691
  263POPC   D2A 3643  10.829   6.988   5.145
  263POPC   C3A 3644  10.890   7.184   5.540
  263POPC   C4A 3645  10.854   7.033   5.977
  263POPC   C1B 3646  11.397   7.265   4.638
  263POPC   C2B 3647  11.335   7.135   5.080
  263POPC   C3B 3648  11.354   7.397   5.461
  263POPC   C4B 3649  11.119   7.505   5.869
  264POPC   NC3 3650   5.321  10.590   3.922
  264POPC   PO4 3651   5.958  10.599   4.060
  264POPC   GL1 3652   5.803  10.477   4.412
  264POPC   GL2 3653   6.014  10.190   4.357
  264POPC   C1A 3654   5.728  10.691   4.822
  264POPC   D2A 3655   5.547  10.804   5.244
  264POPC   C3A 3656   5.654  10.566   5.615
  264POPC   C4A 3657   5.738  10.653   6.040
  264POPC   C1B 3658   5.865  10.137   4.778
  264POPC   C2B 3659   5.716  10.295   5.148
  264POPC   C3B 3660   5.826  10.099   5.501
  264POPC   C4B 3661   5.815  10.162   5.914
  265POPC   NC3 3662   0.134   3.446   3.988
  265POPC   PO4 3663  11.118   3.806   3.898
  265POPC   GL1 3664  11.207   3.513   4.230
  265POPC   GL2 3665  10.945   3.346   4.352
  265POPC   C1A 3666  11.414   3.325   4.606
  265POPC   D2A 3667  11.230   3.192   5.010
  265POPC   C3A 3668  11.377   3.263   5.449
  265POPC   C4A 3669  11.411   3.162   5.896
  265POPC   C1B 3670  11.065   3.668   4.688
  265POPC   C2B 3671  10.913   3.648   5.078
  265POPC   C3B 3672  10.856   3.517   5.474
  265POPC   C4B 3673  11.093   3.537   5.835
  266POPC   NC3 3674   1.200  11.310   3.971
  266POPC   PO4 3675   1.321  10.708   4.052
  266POPC   GL1 3676   1.141  10.930   4.401
  266POPC   GL2 3677   1.077  11.289   4.446
  266POPC   C1A 3678   1.229  10.909   4.851
  266POPC   D2A 3679   1.010  10.823   5.237
  266POPC   C3A 3680   1.126  10.937   5.664
  266POPC   C4A 3681   1.495  10.866   5.947
  266POPC   C1B 3682   1.359  11.408   4.759
  266POPC   C2B 3683   1.340   0.119   5.131
  266POPC   C3B 3684   1.246  11.417   5.499
  266POPC   C4B 3685   1.281  11.454   5.929
  267POPC   NC3 3686   1.490   4.985   3.796
  267POPC   PO4 3687   0.926   5.359   3.765
  267POPC   GL1 3688   1.080   5.338   4.204
  267POPC   GL2 3689   1.295   5.043   4.256
  267POPC   C1A 3690   1.293   5.381   4.634
  267POPC   D2A 3691   1.144   5.360   5.063
  267POPC   C3A 3692   1.351   5.415   5.449
  267POPC   C4A 3693   1.485   5.147   5.788
  267POPC   C1B 3694   1.192   4.834   4.640
  267POPC   C2B 3695   0.987   4.877   5.027
  267POPC   C3B 3696   1.179   4.883   5.430
  267POPC   C4B 3697   0.998   4.892   5.855
  268POPC   NC3 3698   1.138   6.744   4.074
  268POPC   PO4 3699   1.480   6.189   3.847
  268POPC   GL1 3700   1.404   6.254   4.302
  268POPC   GL2 3701   1.427   6.585   4.457
  268POPC   C1A 3702   1.167   6.208   4.726
  268POPC   D2A 3703   1.238   6.363   5.160
  268POPC   C3A 3704   1.001   6.317   5.543
  268POPC   C4A 3705   1.408   6.503   5.716
  268POPC   C1B 3706   1.145   6.717   4.789
  268POPC   C2B 3707   1.138   6.889   5.184
  268POPC   C3B 3708   1.024   6.819   5.585
  268POPC   C4B 3709   1.033   7.007   5.948
  269POPC   NC3 3710   0.571   5.271   4.070
  269POPC   PO4 3711   0.757   4.558   3.925
  269POPC   GL1 3712   0.477   4.776   4.241
  269POPC   GL2 3713   0.791   4.903   4.346
  269POPC   C1A 3714   0.400   4.959   4.697
  269POPC   D2A 3715   0.503   4.803   5.154
  269POPC   C3A 3716   0.428   4.999   5.561
  269POPC   C4A 3717   0.442   4.887   6.018
  269POPC   C1B 3718   0.819   5.227   4.671
  269POPC   C2B 3719   0.646   5.278   5.084
  269POPC   C3B 3720   0.852   5.271   5.481
  269POPC   C4B 3721   0.699   5.308   5.884
  270POPC   NC3 3722   6.505   0.883   3.763
  270POPC   PO4 3723   7.047   0.938   4.087
  270POPC   GL1 3724   6.642   0.808   4.285
  270POPC   GL2 3725   6.339   1.050   4.237
  270POPC   C1A 3726   6.633   0.691   4.731
  270POPC   D2A 3727   6.870   0.850   5.088
  270POPC   C3A 3728   6.692   0.877   5.497
  270POPC   C4A 3729   6.434   0.929   5.854
  270POPC   C1B 3730   6.494   1.186   4.661
  270POPC   C2B 3731   6.442   1.127   5.110
  270POPC   C3B 3732   6.364   1.318   5.501
  270POPC   C4B 3733   6.701   1.386   5.738
  271POPC   NC3 3734  10.271   7.385   3.672
  271POPC   PO4 3735  10.560   7.597   4.195
  271POPC   GL1 3736  10.568   7.360   4.546
  271POPC   GL2 3737  10.477   7.002   4.485
  271POPC   C1A 3738  10.478   7.294   4.926
  271POPC   D2A 3739  10.677   7.524   5.192
  271POPC   C3A 3740  10.507   7.554   5.556
  271POPC   C4A 3741  10.694   7.857   5.782
  271POPC   C1B 3742  10.214   6.869   4.805
  271POPC   C2B 3743  10.322   6.892   5.233
  271POPC   C3B 3744  10.401   7.062   5.585
  271POPC   C4B 3745  10.081   7.289   5.750
  272POPC   NC3 3746   9.528   7.970   3.996
  272POPC   PO4 3747  10.098   7.831   3.677
  272POPC   GL1 3748  10.033   7.864   4.137
  272POPC   GL2 3749   9.975   8.237   4.211
  272POPC   C1A 3750   9.892   7.928   4.604
  272POPC   D2A 3751   9.700   7.895   5.022
  272POPC   C3A 3752   9.815   8.162   5.390
  272POPC   C4A 3753   9.795   8.030   5.828
  272POPC   C1B 3754   9.612   8.370   4.528
  272POPC   C2B 3755   9.414   8.358   4.966
  272POPC   C3B 3756   9.334   8.299   5.405
  272POPC   C4B 3757   9.357   8.281   5.843
  273POPC   NC3 3758   0.961   9.355   3.916
  273POPC   PO4 3759   1.606   9.214   4.014
  273POPC   GL1 3760   1.300   9.493   4.266
  273POPC   GL2 3761   1.266   9.861   4.263
  273POPC   C1A 3762   1.086   9.481   4.656
  273POPC   D2A 3763   0.918   9.528   5.060
  273POPC   C3A 3764   1.128   9.489   5.437
  273POPC   C4A 3765   0.878   9.547   5.798
  273POPC   C1B 3766   1.454   9.844   4.666
  273POPC   C2B 3767   1.249   9.917   5.040
  273POPC   C3B 3768   1.336   9.978   5.448
  273POPC   C4B 3769   1.200   9.926   5.855
  274POPC   NC3 3770   0.560   6.096   3.782
  274POPC   PO4 3771   0.685   6.786   3.959
  274POPC   GL1 3772   0.400   6.477   4.129
  274POPC   GL2 3773   0.613   6.225   4.281
  274POPC   C1A 3774   0.173   6.381   4.533
  274POPC   D2A 3775   0.253   6.554   4.962
  274POPC   C3A 3776   0.065   6.405   5.351
  274POPC   C4A 3777   0.117   6.619   5.732
  274POPC   C1B 3778   0.693   6.491   4.637
  274POPC   C2B 3779   0.745   6.431   5.082
  274POPC   C3B 3780   0.561   6.610   5.450
  274POPC   C4B 3781   0.544   6.917   5.787
  275POPC   NC3 3782   4.775  10.172   3.757
  275POPC   PO4 3783   4.897  10.768   3.998
  275POPC   GL1 3784   4.941  10.379   4.208
  275POPC   GL2 3785   5.274  10.255   4.290
  275POPC   C1A 3786   4.881  10.385   4.634
  275POPC   D2A 3787   4.668  10.176   4.956
  275POPC   C3A 3788   4.721  10.403   5.324
  275POPC   C4A 3789   4.782  10.679   5.662
  275POPC   C1B 3790   5.389  10.286   4.695
  275POPC   C2B 3791   5.170  10.314   5.057
  275POPC   C3B 3792   5.206  10.405   5.454
  275POPC   C4B 3793   5.352  10.130   5.726
  276POPC   NC3 3794   4.611   2.874   3.965
  276POPC   PO4 3795   4.013   3.066   3.994
  276POPC   GL1 3796   4.222   2.722   4.290
  276POPC   GL2 3797   4.112   2.374   4.405
  276POPC   C1A 3798   4.404   2.604   4.732
  276POPC   D2A 3799   4.238   2.597   5.164
  276POPC   C3A 3800   4.500   2.679   5.538
  276POPC   C4A 3801   4.848   2.678   5.830
  276POPC   C1B 3802   3.884   2.625   4.702
  276POPC   C2B 3803   3.694   2.523   5.104
  276POPC   C3B 3804   3.893   2.404   5.480
  276POPC   C4B 3805   4.086   2.601   5.833
  277POPC   NC3 3806   8.703   4.644   3.867
  277POPC   PO4 3807   8.752   4.027   3.863
  277POPC   GL1 3808   8.962   3.920   4.261
  277POPC   GL2 3809   9.102   4.215   4.441
  277POPC   C1A 3810   8.851   3.843   4.709
  277POPC   D2A 3811   8.698   3.722   5.143
  277POPC   C3A 3812   8.761   3.867   5.584
  277POPC   C4A 3813   8.531   4.146   5.847
  277POPC   C1B 3814   9.011   4.356   4.870
  277POPC   C2B 3815   8.947   4.230   5.298
  277POPC   C3B 3816   9.056   4.310   5.737
  277POPC   C4B 3817   8.865   4.371   6.155
  278POPC   NC3 3818   1.089   2.969   4.060
  278POPC   PO4 3819   1.262   3.612   3.863
  278POPC   GL1 3820   1.344   3.574   4.274
  278POPC   GL2 3821   1.051   3.402   4.342
  278POPC   C1A 3822   1.464   3.524   4.698
  278POPC   D2A 3823   1.611   3.494   5.125
  278POPC   C3A 3824   1.447   3.799   5.403
  278POPC   C4A 3825   1.545   3.589   5.769
  278POPC   C1B 3826   0.970   3.225   4.737
  278POPC   C2B 3827   1.114   3.406   5.104
  278POPC   C3B 3828   1.106   3.453   5.525
  278POPC   C4B 3829   0.886   3.195   5.823
  279POPC   NC3 3830   3.132   1.136   3.747
  279POPC   PO4 3831   2.757   1.405   4.151
  279POPC   GL1 3832   2.796   1.106   4.434
  279POPC   GL2 3833   2.490   0.895   4.374
  279POPC   C1A 3834   2.905   1.187   4.889
  279POPC   D2A 3835   3.234   1.325   5.197
  279POPC   C3A 3836   3.074   1.272   5.636
  279POPC   C4A 3837   3.001   1.045   6.029
  279POPC   C1B 3838   2.346   1.255   4.613
  279POPC   C2B 3839   2.355   1.179   4.998
  279POPC   C3B 3840   2.625   1.258   5.359
  279POPC   C4B 3841   2.581   1.196   5.796
  280POPC   NC3 3842   3.769  11.263   3.956
  280POPC   PO4 3843   3.073  11.336   3.812
  280POPC   GL1 3844   3.325  11.407   4.207
  280POPC   GL2 3845   3.437  11.064   4.307
  280POPC   C1A 3846   3.198  11.358   4.686
  280POPC   D2A 3847   3.287   0.041   5.124
  280POPC   C3A 3848   3.118  11.369   5.511
  280POPC   C4A 3849   3.353  11.248   5.881
  280POPC   C1B 3850   3.437  10.889   4.723
  280POPC   C2B 3851   3.471  11.074   5.093
  280POPC   C3B 3852   3.606  11.052   5.500
  280POPC   C4B 3853   3.554  10.779   5.844
  281POPC   NC3 3854   5.114   8.196   3.878
  281POPC   PO4 3855   4.796   8.653   3.936
  281POPC   GL1 3856   4.901   8.414   4.311
  281POPC   GL2 3857   5.242   8.266   4.364
  281POPC   C1A 3858   4.946   8.383   4.774
  281POPC   D2A 3859   4.953   8.109   5.130
  281POPC   C3A 3860   4.919   8.301   5.534
  281POPC   C4A 3861   4.627   8.337   5.900
  281POPC   C1B 3862   5.320   8.004   4.750
  281POPC   C2B 3863   5.248   7.701   5.082
  281POPC   C3B 3864   5.241   7.865   5.509
  281POPC   C4B 3865   5.463   8.209   5.723
  282POPC   NC3 3866   6.927   0.417   4.055
  282POPC   PO4 3867   6.247   0.382   3.856
  282POPC   GL1 3868   6.455   0.253   4.294
  282POPC   GL2 3869   6.123   0.239   4.496
  282POPC   C1A 3870   6.840   0.195   4.648
  282POPC   D2A 3871   6.980   0.357   5.053
  282POPC   C3A 3872   6.864   0.118   5.406
  282POPC   C4A 3873   6.720  11.364   5.744
  282POPC   C1B 3874   6.384   0.255   4.859
  282POPC   C2B 3875   6.514   0.471   5.202
  282POPC   C3B 3876   6.338   0.492   5.553
  282POPC   C4B 3877   6.566   0.333   5.791
  283POPC   NC3 3878   7.948  10.577   3.908
  283POPC   PO4 3879   8.478  10.057   3.904
  283POPC   GL1 3880   8.396  10.332   4.263
  283POPC   GL2 3881   8.078  10.346   4.325
  283POPC   C1A 3882   8.396  10.301   4.739
  283POPC   D2A 3883   8.393   9.957   5.078
  283POPC   C3A 3884   8.167  10.068   5.464
  283POPC   C4A 3885   8.244  10.274   5.844
  283POPC   C1B 3886   7.982  10.636   4.599
  283POPC   C2B 3887   7.964  10.754   5.020
  283POPC   C3B 3888   8.114  10.599   5.442
  283POPC   C4B 3889   7.918  10.672   5.859
  284POPC   NC3 3890   2.509   5.920   3.820
  284POPC   PO4 3891   3.204   5.931   3.685
  284POPC   GL1 3892   2.970   5.886   4.136
  284POPC   GL2 3893   2.638   5.786   4.304
  284POPC   C1A 3894   2.894   6.113   4.590
  284POPC   D2A 3895   2.719   6.152   5.049
  284POPC   C3A 3896   2.870   6.018   5.483
  284POPC   C4A 3897   2.753   6.089   5.935
  284POPC   C1B 3898   2.593   5.719   4.767
  284POPC   C2B 3899   2.624   5.659   5.221
  284POPC   C3B 3900   2.632   5.559   5.654
  284POPC   C4B 3901   2.439   5.709   6.050
  285POPC   NC3 3902   1.858   5.913   3.844
  285POPC   PO4 3903   2.342   5.525   3.987
  285POPC   GL1 3904   2.037   5.581   4.280
  285POPC   GL2 3905   1.970   5.883   4.357
  285POPC   C1A 3906   1.793   5.414   4.600
  285POPC   D2A 3907   1.653   5.448   5.025
  285POPC   C3A 3908   1.772   5.738   5.360
  285POPC   C4A 3909   1.645   5.657   5.798
  285POPC   C1B 3910   2.055   5.829   4.785
  285POPC   C2B 3911   2.223   6.017   5.152
  285POPC   C3B 3912   2.338   5.967   5.565
  285POPC   C4B 3913   2.038   5.944   5.884
  286POPC   NC3 3914   7.266   9.965   4.270
  286POPC   PO4 3915   7.305  10.528   3.890
  286POPC   GL1 3916   7.165  10.570   4.366
  286POPC   GL2 3917   7.163  10.268   4.637
  286POPC   C1A 3918   7.064  10.701   4.823
  286POPC   D2A 3919   7.221  10.408   5.195
  286POPC   C3A 3920   7.165  10.488   5.654
  286POPC   C4A 3921   7.107  10.661   6.129
  286POPC   C1B 3922   7.561  10.369   4.795
  286POPC   C2B 3923   7.759  10.296   5.186
  286POPC   C3B 3924   7.667  10.308   5.611
  286POPC   C4B 3925   7.487  10.353   6.016
  287POPC   NC3 3926   2.061   5.138   4.037
  287POPC   PO4 3927   2.380   4.661   3.971
  287POPC   GL1 3928   2.143   4.636   4.398
  287POPC   GL2 3929   2.060   4.963   4.513
  287POPC   C1A 3930   1.725   4.631   4.718
  287POPC   D2A 3931   1.522   4.932   5.027
  287POPC   C3A 3932   1.720   4.857   5.431
  287POPC   C4A 3933   1.981   4.596   5.757
  287POPC   C1B 3934   2.263   5.314   4.746
  287POPC   C2B 3935   2.163   5.493   5.154
  287POPC   C3B 3936   2.137   5.484   5.605
  287POPC   C4B 3937   2.036   5.104   5.760
  288POPC   NC3 3938   0.317   4.427   3.881
  288POPC   PO4 3939   0.396   3.837   4.006
  288POPC   GL1 3940   0.418   4.134   4.333
  288POPC   GL2 3941   0.708   4.311   4.347
  288POPC   C1A 3942   0.594   4.058   4.770
  288POPC   D2A 3943   0.392   3.971   5.140
  288POPC   C3A 3944   0.474   4.133   5.548
  288POPC   C4A 3945   0.268   4.519   5.662
  288POPC   C1B 3946   0.684   4.554   4.721
  288POPC   C2B 3947   0.773   4.382   5.133
  288POPC   C3B 3948   0.792   4.547   5.533
  288POPC   C4B 3949   0.693   4.474   5.962
  289POPC   NC3 3950   2.002   8.586   3.640
  289POPC   PO4 3951   2.210   9.171   3.754
  289POPC   GL1 3952   2.042   9.158   4.242
  289POPC   GL2 3953   2.030   8.772   4.324
  289POPC   C1A 3954   2.146   9.149   4.703
  289POPC   D2A 3955   1.883   9.142   5.095
  289POPC   C3A 3956   2.099   9.200   5.488
  289POPC   C4A 3957   2.222   8.870   5.748
  289POPC   C1B 3958   1.759   8.813   4.710
  289POPC   C2B 3959   1.603   8.603   5.067
  289POPC   C3B 3960   1.758   8.659   5.490
  289POPC   C4B 3961   1.639   9.033   5.671
  290POPC   NC3 3962   0.647   1.131   3.690
  290POPC   PO4 3963   0.171   1.516   3.973
  290POPC   GL1 3964   0.314   1.456   4.353
  290POPC   GL2 3965   0.571   1.216   4.226
  290POPC   C1A 3966   0.115   1.452   4.778
  290POPC   D2A 3967  11.445   1.666   5.140
  290POPC   C3A 3968   0.056   1.484   5.516
  290POPC   C4A 3969   0.418   1.496   5.786
  290POPC   C1B 3970   0.370   1.035   4.613
  290POPC   C2B 3971   0.283   0.960   5.052
  290POPC   C3B 3972   0.473   1.142   5.413
  290POPC   C4B 3973   0.755   1.105   5.758
  291POPC   NC3 3974   8.371   0.506   3.797
  291POPC   PO4 3975   8.049  11.488   3.985
  291POPC   GL1 3976   8.133   0.423   4.239
  291POPC   GL2 3977   7.885   0.688   4.394
  291POPC   C1A 3978   8.345   0.611   4.619
  291POPC   D2A 3979   8.340   0.450   5.063
  291POPC   C3A 3980   8.364   0.711   5.477
  291POPC   C4A 3981   8.225   0.648   5.938
  291POPC   C1B 3982   7.913   0.295   4.725
  291POPC   C2B 3983   7.928   0.154   5.211
  291POPC   C3B 3984   7.952   0.255   5.684
  291POPC   C4B 3985   7.825   0.171   6.153
  292POPC   NC3 3986   8.916   1.907   3.741
  292POPC   PO4 3987   9.249   1.516   4.151
  292POPC   GL1 3988   8.760   1.663   4.303
  292POPC   GL2 3989   8.668   2.005   4.166
  292POPC   C1A 3990   8.504   1.637   4.725
  292POPC   D2A 3991   8.621   1.831   5.155
  292POPC   C3A 3992   8.611   1.673   5.599
  292POPC   C4A 3993   8.661   1.618   6.058
  292POPC   C1B 3994   8.663   2.105   4.613
  292POPC   C2B 3995   8.581   2.319   5.016
  292POPC   C3B 3996   8.683   2.235   5.480
  292POPC   C4B 3997   9.107   2.094   5.645
  293POPC   NC3 3998   9.717  10.374   3.922
  293POPC   PO4 3999   9.202  10.108   4.033
  293POPC   GL1 4000   9.446  10.180   4.374
  293POPC   GL2 4001   9.731  10.388   4.410
  293POPC   C1A 4002   9.575  10.059   4.777
  293POPC   D2A 4003   9.408   9.889   5.133
  293POPC   C3A 4004   9.282  10.074   5.494
  293POPC   C4A 4005   9.678   9.929   5.677
  293POPC   C1B 4006   9.694  10.552   4.806
  293POPC   C2B 4007   9.453  10.470   5.167
  293POPC   C3B 4008   9.620  10.441   5.553
  293POPC   C4B 4009   9.961  10.688   5.643
  294POPC   NC3 4010   2.571   1.068   3.886
  294POPC   PO4 4011   1.937   0.795   3.909
  294POPC   GL1 4012   1.970   1.046   4.285
  294POPC   GL2 4013   1.999   1.416   4.273
  294POPC   C1A 4014   1.949   0.958   4.702
  294POPC   D2A 4015   1.853   1.037   5.103
  294POPC   C3A 4016   2.152   1.039   5.430
  294POPC   C4A 4017   2.104   1.058   5.840
  294POPC   C1B 4018   1.876   1.470   4.735
  294POPC   C2B 4019   2.100   1.589   5.139
  294POPC   C3B 4020   2.137   1.522   5.591
  294POPC   C4B 4021   1.782   1.428   5.861
  295POPC   NC3 4022   3.545   1.972   3.732
  295POPC   PO4 4023   3.883   2.490   3.949
  295POPC   GL1 4024   3.681   2.187   4.217
  295POPC   GL2 4025   3.345   2.070   4.247
  295POPC   C1A 4026   3.588   2.217   4.673
  295POPC   D2A 4027   3.584   1.904   4.988
  295POPC   C3A 4028   3.543   2.042   5.388
  295POPC   C4A 4029   3.745   1.998   5.765
  295POPC   C1B 4030   3.229   1.842   4.613
  295POPC   C2B 4031   3.060   1.812   5.021
  295POPC   C3B 4032   3.120   1.754   5.449
  295POPC   C4B 4033   3.236   1.978   5.800
  296POPC   NC3 4034   1.167   5.764   3.879
  296POPC   PO4 4035   1.719   5.405   3.859
  296POPC   GL1 4036   1.512   5.683   4.249
  296POPC   GL2 4037   1.153   5.815   4.377
  296POPC   C1A 4038   1.536   5.848   4.710
  296POPC   D2A 4039   1.295   5.845   5.126
  296POPC   C3A 4040   1.403   6.019   5.545
  296POPC   C4A 4041   1.332   6.069   6.010
  296POPC   C1B 4042   0.934   5.733   4.760
  296POPC   C2B 4043   0.770   5.766   5.157
  296POPC   C3B 4044   0.926   5.776   5.553
  296POPC   C4B 4045   1.138   5.601   5.900
  297POPC   NC3 4046   0.244   9.657   4.176
  297POPC   PO4 4047   0.856   9.836   3.904
  297POPC   GL1 4048   0.764   9.730   4.308
  297POPC   GL2 4049   0.673   9.394   4.350
  297POPC   C1A 4050   0.853   9.947   4.687
  297POPC   D2A 4051   0.627   9.987   5.053
  297POPC   C3A 4052   0.823   9.920   5.425
  297POPC   C4A 4053   0.706  10.039   5.829
  297POPC   C1B 4054   0.505   9.539   4.768
  297POPC   C2B 4055   0.320   9.616   5.195
  297POPC   C3B 4056   0.375   9.683   5.637
  297POPC   C4B 4057   0.444   9.530   6.052
  298POPC   NC3 4058   0.122   2.804   3.887
  298POPC   PO4 4059   0.655   2.316   4.015
  298POPC   GL1 4060   0.645   2.701   4.258
  298POPC   GL2 4061   0.316   2.872   4.340
  298POPC   C1A 4062   0.648   2.771   4.700
  298POPC   D2A 4063   0.624   2.984   5.076
  298POPC   C3A 4064   0.620   2.734   5.445
  298POPC   C4A 4065   0.589   2.742   5.890
  298POPC   C1B 4066   0.080   2.868   4.705
  298POPC   C2B 4067   0.128   2.891   5.153
  298POPC   C3B 4068   0.136   2.778   5.566
  298POPC   C4B 4069   0.122   2.376   5.723
  299POPC   NC3 4070   7.347   2.350   3.862
  299POPC   PO4 4071   7.667   2.793   4.099
  299POPC   GL1 4072   7.447   2.655   4.444
  299POPC   GL2 4073   7.153   2.445   4.330
  299POPC   C1A 4074   7.487   2.767   4.889
  299POPC   D2A 4075   7.644   2.639   5.285
  299POPC   C3A 4076   7.417   2.742   5.645
  299POPC   C4A 4077   7.168   3.107   5.787
  299POPC   C1B 4078   7.111   2.430   4.786
  299POPC   C2B 4079   7.126   2.554   5.216
  299POPC   C3B 4080   6.907   2.726   5.559
  299POPC   C4B 4081   7.005   2.642   5.981
  300POPC   NC3 4082   1.351  10.281   3.902
  300POPC   PO4 4083   0.770  10.590   3.594
  300POPC   GL1 4084   0.855  10.543   4.121
  300POPC   GL2 4085   0.900  10.230   4.245
  300POPC   C1A 4086   0.833  10.557   4.646
  300POPC   D2A 4087   0.985  10.345   5.079
  300POPC   C3A 4088   0.988  10.412   5.577
  300POPC   C4A 4089   1.117  10.568   6.032
  300POPC   C1B 4090   1.250  10.294   4.578
  300POPC   C2B 4091   1.499  10.377   4.954
  300POPC   C3B 4092   1.472  10.525   5.378
  300POPC   C4B 4093   1.478  10.357   5.779
  301POPC   NC3 4094   8.866   1.367   3.910
  301POPC   PO4 4095   8.793   0.654   3.930
  301POPC   GL1 4096   8.765   0.757   4.350
  301POPC   GL2 4097   8.906   1.064   4.306
  301POPC   C1A 4098   8.884   0.856   4.779
  301POPC   D2A 4099   9.165   1.020   5.063
  301POPC   C3A 4100   8.954   1.069   5.470
  301POPC   C4A 4101   9.095   1.091   5.888
  301POPC   C1B 4102   8.916   1.336   4.655
  301POPC   C2B 4103   8.837   1.390   5.043
  301POPC   C3B 4104   9.080   1.576   5.338
  301POPC   C4B 4105   9.105   1.595   5.769
  302POPC   NC3 4106   0.071   1.036   4.025
  302POPC   PO4 4107  10.934   0.839   3.988
  302POPC   GL1 4108  11.160   1.066   4.344
  302POPC   GL2 4109  11.288   1.424   4.361
  302POPC   C1A 4110  11.335   0.989   4.760
  302POPC   D2A 4111  11.172   0.890   5.186
  302POPC   C3A 4112  11.480   0.969   5.492
  302POPC   C4A 4113  11.468   0.891   5.923
  302POPC   C1B 4114  11.079   1.482   4.794
  302POPC   C2B 4115  11.033   1.372   5.247
  302POPC   C3B 4116  11.060   1.200   5.662
  302POPC   C4B 4117  10.899   1.428   6.052
  303POPC   NC3 4118   2.118   8.055   3.971
  303POPC   PO4 4119   1.510   7.790   3.794
  303POPC   GL1 4120   1.725   7.892   4.240
  303POPC   GL2 4121   1.883   8.237   4.381
  303POPC   C1A 4122   1.891   7.832   4.659
  303POPC   D2A 4123   1.736   7.971   5.031
  303POPC   C3A 4124   1.865   7.940   5.399
  303POPC   C4A 4125   1.729   7.558   5.660
  303POPC   C1B 4126   1.972   8.351   4.777
  303POPC   C2B 4127   2.129   8.607   5.114
  303POPC   C3B 4128   2.225   8.407   5.506
  303POPC   C4B 4129   1.946   8.229   5.806
  304POPC   NC3 4130   0.577   5.515   3.506
  304POPC   PO4 4131   0.740   5.776   4.059
  304POPC   GL1 4132   0.605   5.655   4.391
  304POPC   GL2 4133   0.286   5.822   4.334
  304POPC   C1A 4134   0.360   5.485   4.712
  304POPC   D2A 4135   0.198   5.561   5.097
  304POPC   C3A 4136   0.413   5.545   5.480
  304POPC   C4A 4137   0.442   5.733   5.874
  304POPC   C1B 4138   0.484   6.007   4.723
  304POPC   C2B 4139   0.370   6.069   5.111
  304POPC   C3B 4140   0.489   6.100   5.519
  304POPC   C4B 4141   0.138   6.122   5.787
  305POPC   NC3 4142  10.372   6.422   3.853
  305POPC   PO4 4143  10.055   6.899   4.143
  305POPC   GL1 4144  10.283   6.556   4.337
  305POPC   GL2 4145  10.647   6.520   4.379
  305POPC   C1A 4146  10.283   6.344   4.713
  305POPC   D2A 4147  10.120   6.455   5.098
  305POPC   C3A 4148  10.239   6.354   5.505
  305POPC   C4A 4149  10.301   6.629   5.818
  305POPC   C1B 4150  10.691   6.626   4.811
  305POPC   C2B 4151  10.657   6.508   5.241
  305POPC   C3B 4152  10.763   6.650   5.649
  305POPC   C4B 4153  10.707   6.560   6.119
  306POPC   NC3 4154   9.246  10.935   3.949
  306POPC   PO4 4155   9.974  10.747   4.015
  306POPC   GL1 4156   9.610  10.886   4.330
  306POPC   GL2 4157   9.524  11.247   4.265
  306POPC   C1A 4158   9.474  10.994   4.803
  306POPC   D2A 4159   9.689  10.969   5.216
  306POPC   C3A 4160   9.502  10.930   5.624
  306POPC   C4A 4161   9.449  10.683   5.990
  306POPC   C1B 4162   9.681  11.424   4.657
  306POPC   C2B 4163   9.517  11.477   5.086
  306POPC   C3B 4164   9.669  11.402   5.504
  306POPC   C4B 4165  10.044  11.171   5.651
  307POPC   NC3 4166   7.393   9.062   3.859
  307POPC   PO4 4167   7.666   8.525   3.967
  307POPC   GL1 4168   7.508   8.823   4.298
  307POPC   GL2 4169   7.180   8.940   4.352
  307POPC   C1A 4170   7.554   9.054   4.721
  307POPC   D2A 4171   7.474   8.923   5.152
  307POPC   C3A 4172   7.746   8.924   5.480
  307POPC   C4A 4173   7.766   8.876   5.886
  307POPC   C1B 4174   7.059   8.964   4.812
  307POPC   C2B 4175   7.070   9.198   5.227
  307POPC   C3B 4176   7.140   8.933   5.601
  307POPC   C4B 4177   6.950   8.788   6.017
  308POPC   NC3 4178   9.639   4.985   3.957
  308POPC   PO4 4179   9.120   4.569   4.057
  308POPC   GL1 4180   9.392   4.657   4.412
  308POPC   GL2 4181   9.568   4.987   4.448
  308POPC   C1A 4182   9.438   4.712   4.863
  308POPC   D2A 4183   9.443   4.953   5.239
  308POPC   C3A 4184   9.478   4.708   5.632
  308POPC   C4A 4185   9.141   4.782   5.952
  308POPC   C1B 4186   9.875   4.979   4.767
  308POPC   C2B 4187   9.877   5.209   5.146
  308POPC   C3B 4188   9.737   5.179   5.604
  308POPC   C4B 4189   9.913   5.287   6.021
  309POPC   NC3 4190  11.178   9.419   3.886
  309POPC   PO4 4191   0.229   9.207   4.079
  309POPC   GL1 4192  11.442   9.327   4.407
  309POPC   GL2 4193  11.232   9.635   4.347
  309POPC   C1A 4194  11.473   9.565   4.794
  309POPC   D2A 4195  11.240   9.661   5.140
  309POPC   C3A 4196  11.380   9.567   5.538
  309POPC   C4A 4197   0.026   9.213   5.765
  309POPC   C1B 4198  10.932   9.653   4.698
  309POPC   C2B 4199  10.727   9.573   5.080
  309POPC   C3B 4200  10.857   9.615   5.489
  309POPC   C4B 4201  10.997   9.702   5.904
  310POPC   NC3 4202   9.694   3.321   3.682
  310POPC   PO4 4203   9.732   3.894   4.007
  310POPC   GL1 4204   9.659   3.632   4.360
  310POPC   GL2 4205   9.628   3.251   4.416
  310POPC   C1A 4206   9.678   3.757   4.785
  310POPC   D2A 4207   9.841   3.996   5.121
  310POPC   C3A 4208   9.886   3.788   5.523
  310POPC   C4A 4209   9.749   3.695   5.942
  310POPC   C1B 4210   9.726   3.248   4.843
  310POPC   C2B 4211   9.579   3.477   5.210
  310POPC   C3B 4212   9.521   3.372   5.647
  310POPC   C4B 4213   9.711   3.172   6.023
  311POPC   NC3 4214   3.145   0.277   3.676
  311POPC   PO4 4215   3.685   0.222   3.961
  311POPC   GL1 4216   3.448   0.410   4.324
  311POPC   GL2 4217   3.681   0.684   4.402
  311POPC   C1A 4218   3.283   0.410   4.767
  311POPC   D2A 4219   3.025   0.475   5.169
  311POPC   C3A 4220   3.253   0.363   5.545
  311POPC   C4A 4221   3.626   0.065   5.560
  311POPC   C1B 4222   3.778   0.539   4.811
  311POPC   C2B 4223   3.643   0.465   5.223
  311POPC   C3B 4224   3.739   0.568   5.669
  311POPC   C4B 4225   3.786   0.739   6.117
  312POPC   NC3 4226   4.367  10.879   3.957
  312POPC   PO4 4227   4.288  10.167   3.733
  312POPC   GL1 4228   4.030  10.245   4.118
  312POPC   GL2 4229   4.252  10.479   4.247
  312POPC   C1A 4230   3.997  10.225   4.610
  312POPC   D2A 4231   3.934  10.234   5.085
  312POPC   C3A 4232   4.264  10.175   5.434
  312POPC   C4A 4233   4.214  10.061   5.914
  312POPC   C1B 4234   4.408  10.581   4.647
  312POPC   C2B 4235   4.328  10.554   5.056
  312POPC   C3B 4236   4.326  10.717   5.449
  312POPC   C4B 4237   4.309  10.529   5.813
  313POPC   NC3 4238   0.005   1.895   3.750
  313POPC   PO4 4239  10.854   2.009   3.797
  313POPC   GL1 4240  10.999   2.114   4.239
  313POPC   GL2 4241  11.348   2.020   4.232
  313POPC   C1A 4242  10.859   2.068   4.711
  313POPC   D2A 4243  10.894   1.863   5.136
  313POPC   C3A 4244  10.761   2.072   5.529
  313POPC   C4A 4245  10.973   2.255   5.884
  313POPC   C1B 4246  11.366   1.932   4.676
  313POPC   C2B 4247  11.318   2.153   5.077
  313POPC   C3B 4248  11.272   2.047   5.494
  313POPC   C4B 4249  11.094   1.704   5.670
  314POPC   NC3 4250  11.110   5.027   3.940
  314POPC   PO4 4251   0.122   5.471   3.924
  314POPC   GL1 4252  11.479   5.120   4.284
  314POPC   GL2 4253  11.094   5.145   4.421
  314POPC   C1A 4254  11.416   4.856   4.688
  314POPC   D2A 4255   0.068   5.046   5.091
  314POPC   C3A 4256  11.436   4.872   5.476
  314POPC   C4A 4257  11.453   4.982   5.922
  314POPC   C1B 4258  11.331   5.367   4.752
  314POPC   C2B 4259  11.216   5.424   5.201
  314POPC   C3B 4260  11.148   5.282   5.640
  314POPC   C4B 4261  10.902   5.079   5.987
  315POPC   NC3 4262  11.129  10.415   3.961
  315POPC   PO4 4263   0.090  10.861   3.746
  315POPC   GL1 4264  11.433  10.753   4.237
  315POPC   GL2 4265  11.392  10.416   4.407
  315POPC   C1A 4266  11.360  10.850   4.723
  315POPC   D2A 4267  11.274  10.939   5.177
  315POPC   C3A 4268  11.501  10.637   5.501
  315POPC   C4A 4269  11.365  10.512   5.911
  315POPC   C1B 4270  11.234  10.073   4.687
  315POPC   C2B 4271  10.934  10.057   5.055
  315POPC   C3B 4272  11.105  10.052   5.491
  315POPC   C4B 4273  11.471  10.032   5.746
  316POPC   NC3 4274   6.322  10.346   3.932
  316POPC   PO4 4275   6.878   9.950   4.021
  316POPC   GL1 4276   6.728  10.253   4.352
  316POPC   GL2 4277   6.453  10.519   4.378
  316POPC   C1A 4278   6.694  10.353   4.798
  316POPC   D2A 4279   6.710  10.568   5.187
  316POPC   C3A 4280   6.697  10.318   5.530
  316POPC   C4A 4281   6.695  10.474   5.921
  316POPC   C1B 4282   6.214  10.495   4.745
  316POPC   C2B 4283   6.247  10.295   5.126
  316POPC   C3B 4284   6.198  10.467   5.524
  316POPC   C4B 4285   6.292  10.179   5.822
  317POPC   NC3 4286   5.713   9.842   3.850
  317POPC   PO4 4287   5.538   9.242   4.044
  317POPC   GL1 4288   5.768   9.577   4.285
  317POPC   GL2 4289   5.614   9.888   4.374
  317POPC   C1A 4290   5.985   9.657   4.674
  317POPC   D2A 4291   5.897   9.753   5.116
  317POPC   C3A 4292   5.864   9.383   5.377
  317POPC   C4A 4293   5.657   9.211   5.768
  317POPC   C1B 4294   5.477   9.790   4.806
  317POPC   C2B 4295   5.418   9.895   5.238
  317POPC   C3B 4296   5.498   9.673   5.595
  317POPC   C4B 4297   5.891   9.677   5.786
  318POPC   NC3 4298   2.614   3.425   3.935
  318POPC   PO4 4299   2.538   4.031   3.859
  318POPC   GL1 4300   2.623   3.719   4.339
  318POPC   GL2 4301   2.699   3.320   4.406
  318POPC   C1A 4302   2.388   3.519   4.740
  318POPC   D2A 4303   2.309   3.697   5.124
  318POPC   C3A 4304   2.467   3.523   5.472
  318POPC   C4A 4305   2.610   3.473   5.905
  318POPC   C1B 4306   2.893   3.531   4.767
  318POPC   C2B 4307   3.036   3.347   5.155
  318POPC   C3B 4308   2.966   3.258   5.595
  318POPC   C4B 4309   3.108   3.604   5.874
  319POPC   NC3 4310  11.018   2.441   3.818
  319POPC   PO4 4311  11.233   3.100   3.875
  319POPC   GL1 4312  11.305   2.961   4.257
  319POPC   GL2 4313  11.274   2.618   4.222
  319POPC   C1A 4314  11.059   2.928   4.597
  319POPC   D2A 4315  10.736   3.084   4.868
  319POPC   C3A 4316  10.863   2.944   5.258
  319POPC   C4A 4317  10.949   3.062   5.670
  319POPC   C1B 4318  11.222   2.434   4.596
  319POPC   C2B 4319  11.204   2.640   4.991
  319POPC   C3B 4320  11.206   2.551   5.414
  319POPC   C4B 4321  11.222   2.680   5.827
  320POPC   NC3 4322   9.355   4.171   4.001
  320POPC   PO4 4323   9.942   4.571   3.886
  320POPC   GL1 4324   9.877   4.542   4.331
  320POPC   GL2 4325   9.723   4.222   4.392
  320POPC   C1A 4326   9.920   4.468   4.798
  320POPC   D2A 4327   9.849   4.652   5.194
  320POPC   C3A 4328   9.843   4.361   5.486
  320POPC   C4A 4329   9.696   4.238   5.830
  320POPC   C1B 4330   9.486   4.216   4.767
  320POPC   C2B 4331   9.433   4.308   5.197
  320POPC   C3B 4332   9.399   3.985   5.505
  320POPC   C4B 4333   9.312   3.926   5.944
  321POPC   NC3 4334   7.269  10.067   3.775
  321POPC   PO4 4335   7.105   9.409   3.878
  321POPC   GL1 4336   7.127   9.464   4.322
  321POPC   GL2 4337   7.475   9.378   4.318
  321POPC   C1A 4338   7.215   9.452   4.797
  321POPC   D2A 4339   7.587   9.402   5.125
  321POPC   C3A 4340   7.464   9.345   5.555
  321POPC   C4A 4341   7.046   9.433   5.699
  321POPC   C1B 4342   7.673   9.603   4.668
  321POPC   C2B 4343   7.441   9.888   4.956
  321POPC   C3B 4344   7.227   9.731   5.307
  321POPC   C4B 4345   7.217   9.977   5.687
  322POPC   NC3 4346  10.353  10.412   3.955
  322POPC   PO4 4347  10.922  10.636   4.314
  322POPC   GL1 4348  10.564  10.475   4.494
  322POPC   GL2 4349  10.223  10.554   4.425
  322POPC   C1A 4350  10.518  10.441   4.921
  322POPC   D2A 4351  10.521  10.256   5.302
  322POPC   C3A 4352  10.809  10.459   5.590
  322POPC   C4A 4353  11.034  10.820   5.626
  322POPC   C1B 4354  10.093  10.238   4.724
  322POPC   C2B 4355   9.918  10.200   5.141
  322POPC   C3B 4356  10.079  10.193   5.533
  322POPC   C4B 4357  10.354  10.401   5.804
  323POPC   NC3 4358   2.379  10.144   4.109
  323POPC   PO4 4359   1.790  10.166   3.769
  323POPC   GL1 4360   1.814  10.466   4.116
  323POPC   GL2 4361   1.678  10.192   4.303
  323POPC   C1A 4362   1.762  10.625   4.571
  323POPC   D2A 4363   2.043  10.623   4.944
  323POPC   C3A 4364   2.105  10.489   5.384
  323POPC   C4A 4365   1.905  10.636   5.724
  323POPC   C1B 4366   1.893  10.135   4.694
  323POPC   C2B 4367   1.777   9.941   5.099
  323POPC   C3B 4368   1.820  10.103   5.508
  323POPC   C4B 4369   2.163  10.183   5.827
  324POPC   NC3 4370   2.635   9.359   3.680
  324POPC   PO4 4371   2.697  10.044   3.790
  324POPC   GL1 4372   2.728   9.923   4.385
  324POPC   GL2 4373   3.008   9.644   4.433
  324POPC   C1A 4374   2.656   9.722   4.809
  324POPC   D2A 4375   2.788   9.421   5.156
  324POPC   C3A 4376   2.541   9.524   5.524
  324POPC   C4A 4377   2.530   9.824   5.838
  324POPC   C1B 4378   3.141   9.917   4.780
  324POPC   C2B 4379   2.982   9.904   5.210
  324POPC   C3B 4380   2.993   9.732   5.638
  324POPC   C4B 4381   2.982   9.850   6.098
  325POPC   NC3 4382  10.286   8.609   3.864
  325POPC   PO4 4383  10.753   9.188   3.845
  325POPC   GL1 4384  10.611   8.971   4.241
  325POPC   GL2 4385  10.268   8.855   4.299
  325POPC   C1A 4386  10.700   8.750   4.624
  325POPC   D2A 4387  10.845   8.552   4.990
  325POPC   C3A 4388  10.799   8.776   5.342
  325POPC   C4A 4389  10.621   8.822   5.701
  325POPC   C1B 4390  10.238   8.983   4.715
  325POPC   C2B 4391  10.327   8.834   5.130
  325POPC   C3B 4392  10.073   8.973   5.471
  325POPC   C4B 4393  10.217   9.080   5.860
  326POPC   NC3 4394  10.116   4.109   3.892
  326POPC   PO4 4395  10.656   4.526   3.871
  326POPC   GL1 4396  10.588   4.209   4.179
  326POPC   GL2 4397  10.276   4.218   4.351
  326POPC   C1A 4398  10.711   4.058   4.604
  326POPC   D2A 4399  10.909   4.160   4.998
  326POPC   C3A 4400  10.752   4.037   5.396
  326POPC   C4A 4401  10.720   4.289   5.745
  326POPC   C1B 4402  10.189   4.025   4.723
  326POPC   C2B 4403  10.313   4.245   5.091
  326POPC   C3B 4404  10.333   4.451   5.473
  326POPC   C4B 4405  10.207   4.142   5.777
  327POPC   NC3 4406   2.474   8.981   4.097
  327POPC   PO4 4407   3.053   9.110   3.754
  327POPC   GL1 4408   2.957   9.012   4.252
  327POPC   GL2 4409   2.858   8.662   4.308
  327POPC   C1A 4410   2.731   9.053   4.727
  327POPC   D2A 4411   2.454   9.023   5.150
  327POPC   C3A 4412   2.698   9.063   5.566
  327POPC   C4A 4413   3.113   9.224   5.634
  327POPC   C1B 4414   2.946   8.571   4.763
  327POPC   C2B 4415   2.879   8.725   5.196
  327POPC   C3B 4416   2.710   8.574   5.612
  327POPC   C4B 4417   3.045   8.727   5.880
  328POPC   NC3 4418   0.697   2.664   3.725
  328POPC   PO4 4419   1.405   2.626   3.947
  328POPC   GL1 4420   1.129   2.453   4.278
  328POPC   GL2 4421   1.470   2.361   4.441
  328POPC   C1A 4422   1.031   2.403   4.723
  328POPC   D2A 4423   1.072   2.751   5.001
  328POPC   C3A 4424   1.067   2.954   5.362
  328POPC   C4A 4425   1.061   2.720   5.718
  328POPC   C1B 4426   1.383   2.782   4.594
  328POPC   C2B 4427   1.467   3.054   4.902
  328POPC   C3B 4428   1.587   3.019   5.299
  328POPC   C4B 4429   1.412   3.099   5.705
  329POPC   NC3 4430   5.375   2.233   4.002
  329POPC   PO4 4431   6.002   1.955   3.951
  329POPC   GL1 4432   5.920   1.774   4.341
  329POPC   GL2 4433   5.607   1.940   4.371
  329POPC   C1A 4434   5.817   1.683   4.784
  329POPC   D2A 4435   5.898   1.946   5.117
  329POPC   C3A 4436   6.058   1.815   5.504
  329POPC   C4A 4437   6.090   2.192   5.745
  329POPC   C1B 4438   5.353   1.903   4.760
  329POPC   C2B 4439   5.413   1.834   5.207
  329POPC   C3B 4440   5.578   1.965   5.601
  329POPC   C4B 4441   5.703   1.673   5.903
  330POPC   NC3 4442  10.276   9.270   4.013
  330POPC   PO4 4443  10.093   9.883   3.763
  330POPC   GL1 4444  10.263   9.736   4.224
  330POPC   GL2 4445  10.646   9.639   4.227
  330POPC   C1A 4446  10.398   9.478   4.650
  330POPC   D2A 4447  10.255   9.356   5.087
  330POPC   C3A 4448  10.507   9.257   5.452
  330POPC   C4A 4449  10.506   9.499   5.859
  330POPC   C1B 4450  10.537   9.966   4.596
  330POPC   C2B 4451  10.322   9.881   5.000
  330POPC   C3B 4452  10.363   9.771   5.424
  330POPC   C4B 4453  10.619   9.989   5.716
  331POPC   NC3 4454   2.418  10.331   3.590
  331POPC   PO4 4455   3.088  10.411   3.923
  331POPC   GL1 4456   3.001  10.353   4.350
  331POPC   GL2 4457   2.702  10.450   4.373
  331POPC   C1A 4458   2.959  10.405   4.805
  331POPC   D2A 4459   2.975  10.417   5.232
  331POPC   C3A 4460   2.694  10.206   5.512
  331POPC   C4A 4461   2.878  10.270   5.861
  331POPC   C1B 4462   2.470  10.235   4.716
  331POPC   C2B 4463   2.485  10.363   5.084
  331POPC   C3B 4464   2.565  10.732   5.331
  331POPC   C4B 4465   2.517  10.636   5.761
  332POPC   NC3 4466   8.786   8.212   3.900
  332POPC   PO4 4467   9.228   7.819   3.691
  332POPC   GL1 4468   9.100   7.962   4.212
  332POPC   GL2 4469   9.087   8.326   4.313
  332POPC   C1A 4470   9.301   7.971   4.658
  332POPC   D2A 4471   9.197   7.885   5.115
  332POPC   C3A 4472   8.996   7.930   5.524
  332POPC   C4A 4473   9.183   7.742   5.861
  332POPC   C1B 4474   8.834   8.148   4.697
  332POPC   C2B 4475   8.679   8.049   5.145
  332POPC   C3B 4476   8.524   8.173   5.603
  332POPC   C4B 4477   8.435   8.302   6.068
  333POPC   NC3 4478   2.762   4.415   3.951
  333POPC   PO4 4479   3.231   4.599   4.303
  333POPC   GL1 4480   2.721   4.585   4.414
  333POPC   GL2 4481   2.518   4.244   4.375
  333POPC   C1A 4482   2.505   4.532   4.799
  333POPC   D2A 4483   2.738   4.361   5.170
  333POPC   C3A 4484   2.596   4.500   5.574
  333POPC   C4A 4485   2.676   4.734   5.951
  333POPC   C1B 4486   2.578   4.004   4.785
  333POPC   C2B 4487   2.778   3.844   5.196
  333POPC   C3B 4488   2.730   3.924   5.658
  333POPC   C4B 4489   2.871   4.230   5.945
  334POPC   NC3 4490   8.923   9.767   3.920
  334POPC   PO4 4491   8.440   9.420   4.213
  334POPC   GL1 4492   8.793   9.453   4.384
  334POPC   GL2 4493   8.825   9.772   4.397
  334POPC   C1A 4494   8.706   9.455   4.801
  334POPC   D2A 4495   8.770   9.511   5.186
  334POPC   C3A 4496   8.527   9.412   5.531
  334POPC   C4A 4497   8.750   9.423   5.887
  334POPC   C1B 4498   8.783   9.964   4.749
  334POPC   C2B 4499   8.913   9.990   5.140
  334POPC   C3B 4500   8.803   9.846   5.549
  334POPC   C4B 4501   9.030   9.830   5.917
  335POPC   NC3 4502   0.300   7.041   3.981
  335POPC   PO4 4503   0.045   7.610   3.852
  335POPC   GL1 4504   0.158   7.556   4.264
  335POPC   GL2 4505   0.502   7.492   4.253
  335POPC   C1A 4506   0.310   7.568   4.703
  335POPC   D2A 4507   0.314   7.333   5.064
  335POPC   C3A 4508   0.353   7.526   5.458
  335POPC   C4A 4509   0.201   7.339   5.854
  335POPC   C1B 4510   0.562   7.122   4.573
  335POPC   C2B 4511   0.656   6.943   4.990
  335POPC   C3B 4512   0.733   7.182   5.382
  335POPC   C4B 4513   0.714   7.393   5.811
  336POPC   NC3 4514   4.417   1.472   3.463
  336POPC   PO4 4515   4.483   1.487   4.101
  336POPC   GL1 4516   4.417   1.415   4.486
  336POPC   GL2 4517   4.281   1.087   4.456
  336POPC   C1A 4518   4.604   1.283   4.862
  336POPC   D2A 4519   4.463   0.996   5.194
  336POPC   C3A 4520   4.463   1.202   5.600
  336POPC   C4A 4521   4.438   1.427   5.997
  336POPC   C1B 4522   3.913   1.034   4.748
  336POPC   C2B 4523   3.831   0.966   5.204
  336POPC   C3B 4524   3.972   1.148   5.593
  336POPC   C4B 4525   3.940   1.260   6.022
  337POPC   NC3 4526   2.761   0.095   4.018
  337POPC   PO4 4527   2.922   0.702   3.763
  337POPC   GL1 4528   2.942   0.602   4.267
  337POPC   GL2 4529   2.920   0.253   4.462
  337POPC   C1A 4530   2.850   0.701   4.737
  337POPC   D2A 4531   2.622   0.784   5.160
  337POPC   C3A 4532   2.859   0.773   5.582
  337POPC   C4A 4533   2.791   0.569   6.007
  337POPC   C1B 4534   2.552   0.288   4.778
  337POPC   C2B 4535   2.488   0.299   5.240
  337POPC   C3B 4536   2.724   0.239   5.611
  337POPC   C4B 4537   2.592  11.490   5.963
  338W        W 4538   4.573   7.131   1.913
  339W        W 4539   5.147   6.010   0.003
  340W        W 4540   7.842   4.664  10.363
  341W        W 4541  10.010   0.240  10.593
  342W        W 4542   0.191   4.708   3.444
  343W        W 4543   7.485   3.859  10.486
  344W        W 4544  10.860   8.804  11.748
  345W        W 4545   8.570   3.204   8.912
  346W        W 4546   1.422   0.904   0.903
  347W        W 4547   1.258   6.506  10.832
  348W        W 4548   4.358   9.025   2.233
  349W        W 4549   7.654   6.541   2.726
  350W        W 4550  11.360   0.995   2.134
  351W        W 4551  10.015   2.845   3.676
  352W        W 4552   0.497  11.450   3.253
  353W        W 4553   2.247  10.432  10.442
  354W        W 4554  10.720   5.808  11.466
  355W        W 4555   3.822   7.634   0.901
  356W        W 4556  11.491   8.167  11.810
  357W        W 4557  11.100   7.987   2.198
  358W        W 4558   5.987   3.657   7.932
  359W        W 4559   5.981   4.100   3.955
  360W        W 4560   2.541   3.024   0.095
  361W        W 4561   9.171   5.285   2.911
  362W        W 4562   2.431  10.309   0.450
  363W        W 4563   2.498  10.850   3.546
  364W        W 4564   4.643   0.371   0.467
  365W        W 4565   6.227   0.358   2.767
  366W        W 4566   2.356   5.765   0.953
  367W        W 4567   9.351  11.116  10.322
  368W        W 4568   7.262   6.148  10.494
  369W        W 4569   5.810   6.828  11.533
  370W        W 4570  11.284  10.567  11.307
  371W        W 4571   2.158  10.916   3.185
  372W        W 4572   7.963   8.411   1.842
  373W        W 4573   7.009   4.741   1.427
  374W        W 4574   0.880   1.399  10.452
  375W        W 4575   5.657   0.499   0.014
  376W        W 4576  10.440   2.788   3.175
  377W        W 4577   2.629   8.836   3.649
  378W        W 4578   3.280   8.576   0.834
  379W        W 4579   5.242   2.430  10.770
  380W        W 4580   2.713   2.571   9.887
  381W        W 4581   2.639   4.718   3.349
  382W        W 4582   3.880   8.989   2.993
  383W        W 4583   6.087   0.480   9.295
  384W        W 4584   6.749   6.477   1.983
  385W        W 4585   5.841   4.137   8.165
  386W        W 4586   0.610   2.475  11.823
  387W        W 4587   1.770   5.366  10.379
  388W        W 4588   0.581   2.804   0.690
  389W        W 4589   3.239   1.513   0.033
  390W        W 4590   6.598   1.002   0.879
  391W        W 4591   6.069   7.408  10.283
  392W        W 4592   4.409   8.914   0.759
  393W        W 4593   2.652   4.129   9.780
  394W        W 4594   3.704   4.740  11.654
  395W        W 4595  10.775   6.743  11.091
  396W        W 4596   0.996  10.474   2.668
  397W        W 4597   9.584   0.304   1.956
  398W        W 4598   8.902   2.464  10.959
  399W        W 4599   9.219   8.934   3.014
  400W        W 4600   9.172  10.809   9.961
  401W        W 4601   8.984  11.302   1.675
  402W        W 4602   9.044   9.538   9.899
  403W        W 4603   5.226   9.239   1.293
  404W        W 4604   9.422  10.402  11.419
  405W        W 4605   7.678   5.237   0.734
  406W        W 4606   1.491   2.803   1.477
  407W        W 4607   3.858   4.648   2.745
  408W        W 4608   5.685  10.331  11.316
  409W        W 4609  10.475   3.259   9.040
  410W        W 4610   9.858  10.661  11.499
  411W        W 4611   4.250   1.766  10.585
  412W        W 4612   3.199   8.200   9.578
  413W        W 4613  10.506   4.635   1.463
  414W        W 4614   1.118   8.397   8.848
  415W        W 4615  11.360   4.365   0.564
  416W        W 4616  10.440   7.409   1.668
  417W        W 4617   6.577   7.588  11.450
  418W        W 4618   5.524   6.167   0.311
  419W        W 4619   4.203   2.820   0.449
  420W        W 4620   4.713   6.224   0.154
  421W        W 4621   8.046   9.989  10.879
  422W        W 4622   9.457  11.298   1.894
  423W        W 4623   4.314   0.164   9.742
  424W        W 4624   7.105   4.285   0.082
  425W        W 4625   9.141   7.276   3.455
  426W        W 4626   9.466   4.226  11.524
  427W        W 4627   5.424   3.571   9.118
  428W        W 4628  10.607   8.863   0.387
  429W        W 4629   5.610  11.226   2.191
  430W        W 4630   5.693   4.506   2.971
  431W        W 4631   5.104  11.480  10.598
  432W        W 4632   5.760   3.268  10.307
  433W        W 4633  10.939   8.064  11.103
  434W        W 4634   1.834   3.214   3.126
  435W        W 4635  11.227   0.381  10.816
  436W        W 4636   6.015  10.067  11.694
  437W        W 4637   3.662   5.174   8.125
  438W        W 4638   4.730   8.841   8.139
  439W        W 4639   2.253  10.251   9.901
  440W        W 4640   1.756   9.812   0.017
  441W        W 4641   6.974   2.669   1.624
  442W        W 4642  10.034   2.377  10.840
  443W        W 4643   0.349   0.404   9.018
  444W        W 4644   6.467   0.185  11.024
  445W        W 4645   6.490   3.834   9.846
  446W        W 4646   0.994   6.273   3.942
  447W        W 4647   9.287   9.401   8.931
  448W        W 4648   5.236   7.361   1.723
  449W        W 4649  10.230   7.652   0.838
  450W        W 4650   9.131   5.044  11.936
  451W        W 4651   4.981  10.552  10.636
  452W        W 4652   1.335   3.416  10.637
  453W        W 4653   2.691   4.031  11.959
  454W        W 4654   4.466   0.358   8.825
  455W        W 4655   4.743   3.144   2.768
  456W        W 4656   4.037   4.285  11.427
  457W        W 4657   2.630  10.308   0.933
  458W        W 4658  10.796   1.772  10.934
  459W        W 4659   6.987   9.737   3.498
  460W        W 4660  10.894   0.923   0.253
  461W        W 4661   9.863   1.252   9.801
  462W        W 4662   8.444   9.148   8.959
  463W        W 4663   2.462   5.358   1.654
  464W        W 4664   7.729   3.856   4.051
  465W        W 4665   1.080   6.607   8.370
  466W        W 4666   7.396   7.518  10.742
  467W        W 4667   2.151   6.514   3.274
  468W        W 4668   8.783   9.463   1.806
  469W        W 4669   9.508   0.593   9.801
  470W        W 4670   8.133   4.634  10.777
  471W        W 4671   2.113   2.306   0.230
  472W        W 4672  11.168   4.972  11.133
  473W        W 4673   8.380   5.581   0.335
  474W        W 4674   1.348   3.383  11.640
  475W        W 4675   2.356   3.733  10.016
  476W        W 4676   6.225   1.038   9.904
  477W        W 4677   6.575   6.912   2.211
  478W        W 4678  11.033  11.301   2.198
  479W        W 4679   3.507   6.168   1.758
  480W        W 4680   4.669   2.215  11.294
  481W        W 4681   9.579   0.272  11.390
  482W        W 4682   9.430   9.112  10.285
  483W        W 4683  10.438   8.678  11.447
  484W        W 4684   6.002   6.920   0.839
  485W        W 4685   2.492   8.194   9.096
  486W        W 4686   2.875  10.504   3.409
  487W        W 4687   5.758   3.667  11.373
  488W        W 4688   9.634   7.204   9.494
  489W        W 4689  10.566   7.025  11.905
  490W        W 4690   3.326   6.953  11.468
  491W        W 4691  11.299  11.116   0.050
  492W        W 4692   2.740   4.541   0.062
  493W        W 4693   6.569   4.075   9.380
  494W        W 4694   4.018   8.332   3.483
  495W        W 4695   1.250   9.930  10.754
  496W        W 4696   7.631  11.062   1.692
  497W        W 4697  10.008   3.748  11.620
  498W        W 4698  11.125   5.464  10.877
  499W        W 4699   7.213   3.995   2.467
  500W        W 4700   1.858   6.123  11.336
  501W        W 4701   9.756   9.030   0.896
  502W        W 4702   8.458   1.626  10.852
  503W        W 4703   9.607  11.221   2.775
  504W        W 4704   1.370   1.752   0.681
  505W        W 4705   4.306   9.138   1.214
  506W        W 4706   0.342   4.733  11.690
  507W        W 4707   0.580   4.225   0.717
  508W        W 4708  10.505  10.223   0.677
  509W        W 4709   0.799   0.345  11.810
  510W        W 4710   8.464   5.456   3.778
  511W        W 4711   0.854  10.782   9.864
  512W        W 4712   4.750   0.911   2.208
  513W        W 4713   3.599   8.554  11.734
  514W        W 4714   3.423   8.075   3.125
  515W        W 4715   4.265   3.327   2.825
  516W        W 4716   1.175   7.822   1.073
  517W        W 4717   8.765   1.518   3.010
  518W        W 4718   5.261   8.700   8.614
  519W        W 4719   8.087   1.198   9.312
  520W        W 4720   0.930  11.294   0.942
  521W        W 4721   6.647   5.579   2.497
  522W        W 4722   4.361   1.348   9.485
  523W        W 4723   2.162   6.584   1.302
  524W        W 4724   0.912   7.972   9.072
  525W        W 4725   3.519   0.446   2.323
  526W        W 4726   1.996   3.731   8.452
  527W        W 4727   7.161   1.399  11.447
  528W        W 4728   3.680   6.562   3.109
  529W        W 4729   0.826   6.601  10.018
  530W        W 4730   1.597   5.320   0.829
  531W        W 4731   1.610   2.707  11.669
  532W        W 4732   6.405   8.874  10.249
  533W        W 4733   3.047  10.997   3.424
  534W        W 4734  10.614   0.308   1.732
  535W        W 4735  10.011   8.604   9.680
  536W        W 4736   5.259   3.563  11.338
  537W        W 4737  10.574   3.096  11.569
  538W        W 4738   1.749   0.497   2.638
  539W        W 4739   5.519   3.510   4.277
  540W        W 4740   2.464   8.551  10.763
  541W        W 4741   1.771   7.933   3.003
  542W        W 4742   7.982   3.459   2.116
  543W        W 4743   9.661   9.630   0.088
  544W        W 4744   7.958  11.309   2.916
  545W        W 4745   9.998   7.433   0.453
  546W        W 4746   5.551   8.567  10.679
  547W        W 4747   2.125   0.965   9.388
  548W        W 4748   7.229   1.238   2.271
  549W        W 4749   7.149  10.392  10.867
  550W        W 4750   0.717   6.471   2.771
  551W        W 4751   2.305   1.733   2.437
  552W        W 4752   5.698   4.221   0.112
  553W        W 4753   2.045   5.234  11.739
  554W        W 4754   0.505   5.127   2.803
  555W        W 4755   4.146   8.531  10.513
  556W        W 4756   3.364   9.396   1.907
  557W        W 4757   5.258   8.247   2.968
  558W        W 4758  10.040   3.519   0.063
  559W        W 4759   0.694   3.616   2.821
  560W        W 4760   9.600   1.411  10.609
  561W        W 4761   4.334   6.558   1.726
  562W        W 4762  11.145   9.516   9.529
  563W        W 4763   9.269   9.436   3.100
  564W        W 4764   4.038  10.978   3.177
  565W        W 4765   7.022  11.046   1.538
  566W        W 4766   2.179   9.774  10.801
  567W        W 4767   4.137   2.652   2.335
  568W        W 4768   6.198   4.121   8.639
  569W        W 4769   3.213  11.492   2.189
  570W        W 4770   6.101   7.171   3.970
  571W        W 4771  10.480   6.502   2.850
  572W        W 4772   3.447   9.023   3.316
  573W        W 4773   6.723  11.066   0.546
  574W        W 4774   6.127   3.026   8.622
  575W        W 4775   5.570   5.563  10.004
  576W        W 4776   1.349   4.211   2.906
  577W        W 4777   7.625   0.502  11.566
  578W        W 4778   6.915   6.534   0.705
  579W        W 4779   2.320   4.814  10.954
  580W        W 4780   0.507   1.307   9.876
  581W        W 4781   5.940   0.592   9.850
  582W        W 4782   7.598   2.473   1.214
  583W        W 4783   3.805   2.318  11.770
  584W        W 4784   8.245   1.310   1.748
  585W        W 4785   0.787   9.090   3.002
  586W        W 4786   9.964  11.402   9.853
  587W        W 4787   4.882   1.834   3.317
  588W        W 4788   3.643   1.632   9.038
  589W        W 4789   7.377   7.136  11.489
  590W        W 4790   3.169   4.231   2.777
  591W        W 4791   5.619   7.550  10.465
  592W        W 4792  10.467   4.715   1.953
  593W        W 4793   5.147   5.594   0.311
  594W        W 4794   9.445   7.696   9.406
  595W        W 4795   4.957   1.413  11.551
  596W        W 4796   4.925   3.109   8.659
  597W        W 4797   0.321   9.054   9.261
  598W        W 4798   3.761   5.171   2.660
  599W        W 4799  10.338   4.753   2.425
  600W        W 4800   4.346   1.706  11.508
  601W        W 4801   2.233   3.604   1.754
  602W        W 4802  10.906   8.466  11.393
  603W        W 4803   3.731  11.329  10.873
  604W        W 4804   5.727   0.115   1.856
  605W        W 4805   1.653   1.882   1.761
  606W        W 4806   6.209   3.402   0.018
  607W        W 4807   5.056   8.106  11.276
  608W        W 4808   2.858   7.396   0.673
  609W        W 4809   3.530   2.871  11.265
  610W        W 4810   4.247   9.584   8.944
  611W        W 4811   5.630   6.582   1.149
  612W        W 4812  10.715   9.454  11.113
  613W        W 4813   3.716   7.502   3.084
  614W        W 4814   1.309   8.655  11.920
  615W        W 4815   0.202   3.018   9.303
  616W        W 4816   2.713   3.601   1.531
  617W        W 4817   3.187   2.961   2.316
  618W        W 4818   1.915   8.536   9.908
  619W        W 4819   4.655   2.907  11.833
  620W        W 4820   1.943   9.434   2.540
  621W        W 4821   4.074  10.282  11.839
  622W        W 4822   3.642   6.263  11.897
  623W        W 4823   1.253   9.058   0.717
  624W        W 4824   5.166   1.029   9.963
  625W        W 4825   9.056   8.062   2.931
  626W        W 4826   2.784   8.342   1.497
  627W        W 4827   0.870   3.046  11.029
  628W        W 4828   9.169   0.971   8.642
  629W        W 4829   4.302   8.052  11.986
  630W        W 4830   6.102   8.696   3.645
  631W        W 4831   7.779   2.063  11.881
  632W        W 4832   1.294   9.822   3.030
  633W        W 4833   3.271   0.382   1.861
  634W        W 4834   4.202   5.885   8.243
  635W        W 4835   3.150   6.174   0.726
  636W        W 4836   7.583   6.882   9.945
  637W        W 4837  11.214   5.664   2.763
  638W        W 4838   1.424   9.514  10.492
  639W        W 4839   7.424  11.173  11.869
  640W        W 4840   2.029   2.294  10.471
  641W        W 4841   9.300   9.907  11.362
  642W        W 4842   2.349  11.042   9.117
  643W        W 4843   8.352   6.130   3.135
  644W        W 4844   3.273   3.540   4.052
  645W        W 4845   6.518   1.830   0.451
  646W        W 4846   5.304   7.636   0.811
  647W        W 4847  10.851   6.398   3.522
  648W        W 4848   9.415   0.843   9.084
  649W        W 4849   3.610   4.979  10.782
  650W        W 4850   6.033   9.922  11.195
  651W        W 4851   1.696   4.122   9.407
  652W        W 4852   1.643   7.097   1.002
  653W        W 4853   8.140   3.392   2.614
  654W        W 4854   7.356   0.933  11.404
  655W        W 4855   7.049   1.849   1.635
  656W        W 4856   5.226   2.656  11.785
  657W        W 4857   7.927   8.999   0.833
  658W        W 4858  10.057   4.322   9.358
  659W        W 4859   9.876   3.923   3.054
  660W        W 4860   7.438   5.984   9.866
  661W        W 4861   8.529   1.399  11.464
  662W        W 4862   1.448   8.180   1.313
  663W        W 4863   8.009  10.788   0.567
  664W        W 4864   5.223   0.646   0.945
  665W        W 4865   8.230   6.095   0.378
  666W        W 4866   9.095   8.064  10.743
  667W        W 4867   5.468   6.523   9.166
  668W        W 4868   6.150   9.906   8.609
  669W        W 4869   9.930   5.617   9.030
  670W        W 4870  11.213   3.791   2.679
  671W        W 4871   7.535   4.702   1.650
  672W        W 4872   8.532   8.980  11.972
  673W        W 4873   2.687   6.157   1.990
  674W        W 4874   1.250   6.559  10.315
  675W        W 4875   4.748   9.416   1.195
  676W        W 4876   5.195   9.403  10.000
  677W        W 4877   5.199   8.562   2.058
  678W        W 4878  11.409   2.949   8.887
  679W        W 4879   0.798   9.082   0.498
  680W        W 4880   6.000   2.085   2.773
  681W        W 4881   4.080   2.887  11.092
  682W        W 4882   7.054   0.087   9.239
  683W        W 4883   1.749   7.951   0.386
  684W        W 4884  10.909   6.365   9.303
  685W        W 4885   1.287   6.492   9.785
  686W        W 4886   9.009  10.856   2.024
  687W        W 4887   8.050   7.158   0.677
  688W        W 4888   1.208  10.893   9.502
  689W        W 4889   1.408   6.958  10.993
  690W        W 4890   8.598   9.809   9.809
  691W        W 4891   8.847   4.066  11.753
  692W        W 4892   6.258   2.230   3.210
  693W        W 4893   6.030   9.482   0.807
  694W        W 4894   1.126   0.291  10.867
  695W        W 4895   4.738   5.657   0.639
  696W        W 4896   4.207   7.542  10.505
  697W        W 4897   8.948   8.672   8.489
  698W        W 4898   2.959   5.285   1.591
  699W        W 4899   6.344   3.310   1.337
  700W        W 4900   6.523   8.375  11.010
  701W        W 4901   4.053   7.232   2.787
  702W        W 4902  10.763   4.194  10.044
  703W        W 4903   2.682   1.220  10.825
  704W        W 4904   9.189   5.906  10.780
  705W        W 4905   6.991   0.616  11.217
  706W        W 4906   7.138   6.217   2.246
  707W        W 4907   3.087   3.124   9.529
  708W        W 4908   4.951   5.218  11.481
  709W        W 4909   4.117   0.264   1.529
  710W        W 4910   0.876   1.281   1.509
  711W        W 4911   4.644   2.815   3.459
  712W        W 4912  10.347   6.456   9.005
  713W        W 4913   2.621   6.142   2.861
  714W        W 4914   9.973   8.878  11.576
  715W        W 4915   8.254   0.309  10.494
  716W        W 4916   8.822   0.255   1.822
  717W        W 4917   6.587   8.173   1.975
  718W        W 4918   4.143   6.064   0.831
  719W        W 4919   6.292   1.446  11.635
  720W        W 4920   8.009   6.464   0.007
  721W        W 4921   2.655   3.285   0.543
  722W        W 4922   1.247   0.772   9.945
  723W        W 4923   4.697   5.679  11.509
  724W        W 4924   2.996   3.744   2.826
  725W        W 4925  11.063   1.623   2.826
  726W        W 4926   6.913   7.510  11.857
  727W        W 4927   3.734  10.886   8.985
  728W        W 4928   4.927  10.684   3.511
  729W        W 4929   4.398   0.716  11.666
  730W        W 4930  10.452   6.896  10.719
  731W        W 4931   6.638   1.567   0.867
  732W        W 4932   0.215   3.509   9.906
  733W        W 4933   5.001  10.363  11.971
  734W        W 4934   0.834   7.165   0.496
  735W        W 4935   6.101   2.696   1.212
  736W        W 4936   8.887   1.461   1.736
  737W        W 4937   1.150  10.016   3.509
  738W        W 4938  10.931   1.300  10.665
  739W        W 4939   1.643  11.439  10.111
  740W        W 4940   1.137   7.306   1.046
  741W        W 4941   2.110   6.209   0.919
  742W        W 4942   4.509   3.203   2.253
  743W        W 4943  10.063  10.846  10.875
  744W        W 4944  10.360   8.834  10.936
  745W        W 4945   8.101  10.162  10.416
  746W        W 4946  10.003   7.200   1.884
  747W        W 4947   5.482   8.445   9.035
  748W        W 4948   3.806  10.440   1.431
  749W        W 4949   4.804   0.997  11.795
  750W        W 4950   1.325  10.676   1.877
  751W        W 4951   1.785   2.420   2.823
  752W        W 4952   6.686   5.212   1.393
  753W        W 4953  10.030   8.441   9.199
  754W        W 4954   3.360   4.679   2.610
  755W        W 4955   4.587   3.708   1.994
  756W        W 4956   4.295   2.436  10.978
  757W        W 4957   8.578   1.941   9.366
  758W        W 4958  11.304   4.247   9.391
  759W        W 4959   9.452   5.536  10.019
  760W        W 4960   8.381   8.078  10.010
  761W        W 4961   6.950   4.187   0.576
  762W        W 4962   1.258   5.335   1.265
  763W        W 4963   3.466   3.236  10.388
  764W        W 4964   4.715   0.358   9.367
  765W        W 4965   9.760   6.728   8.196
  766W        W 4966   8.184   0.439   9.969
  767W        W 4967   6.325   6.120  11.470
  768W        W 4968   5.174   4.831  11.740
  769W        W 4969   2.257   3.835   8.935
  770W        W 4970  11.499  11.224   0.987
  771W        W 4971   9.923   6.135   8.884
  772W        W 4972   1.141   9.538   9.011
  773W        W 4973   6.286   5.288   1.766
  774W        W 4974   7.924   9.800  11.803
  775W        W 4975   4.555   2.296  10.020
  776W        W 4976   0.411   0.314   1.928
  777W        W 4977   7.520   1.039   3.021
  778W        W 4978   7.473   1.474  10.488
  779W        W 4979   0.063   7.300   0.348
  780W        W 4980  10.706   2.938   9.416
  781W        W 4981   8.476   2.384  11.238
  782W        W 4982   5.750   3.682   2.299
  783W        W 4983   7.231   8.449  11.943
  784W        W 4984   7.804   4.225   1.589
  785W        W 4985   0.150   6.143   9.861
  786W        W 4986   4.766   4.123   9.597
  787W        W 4987   7.668   9.554   9.768
  788W        W 4988   5.575   0.286  11.546
  789W        W 4989   5.516   9.847   8.489
  790W        W 4990  11.244   2.222  10.609
  791W        W 4991   7.800   7.927   0.600
  792W        W 4992  11.056   7.008  11.945
  793W        W 4993   7.964   4.291   2.825
  794W        W 4994   6.747   8.072   0.243
  795W        W 4995  11.268   0.364   9.923
  796W        W 4996   7.569  10.593   2.643
  797W        W 4997   4.539   0.843  10.341
  798W        W 4998   7.454   5.218  11.762
  799W        W 4999   7.217   0.877   9.799
  800W        W 5000   6.645  11.338   9.077
  801W        W 5001   7.938   6.160   8.728
  802W        W 5002   4.612   3.082   0.304
  803W        W 5003   3.049   9.046  11.477
  804W        W 5004   7.543   1.703  11.075
  805W        W 5005   8.839   7.988   2.006
  806W        W 5006  11.307  10.794   0.749
  807W        W 5007   0.791   7.515  11.768
  808W        W 5008   4.731   7.490  11.318
  809W        W 5009   1.020   7.963   9.588
  810W        W 5010   9.842   6.544  11.777
  811W        W 5011   0.092  11.458  11.761
  812W        W 5012  10.541   0.328   9.266
  813W        W 5013   5.356   6.610   2.088
  814W        W 5014   2.902  10.121   1.819
  815W        W 5015   5.326   6.749  11.618
  816W        W 5016  10.230   5.673   9.438
  817W        W 5017  11.072   4.482  10.370
  818W        W 5018   6.452   3.772   8.948
  819W        W 5019   4.200   6.527   2.221
  820W        W 5020   4.039   6.703  10.018
  821W        W 5021   8.867   9.925  11.128
  822W        W 5022   8.953   1.095  11.443
  823W        W 5023   9.710   8.148   1.751
  824W        W 5024   3.781   9.545   2.266
  825W        W 5025   0.271   7.510   1.928
  826W        W 5026   4.704   9.877   8.831
  827W        W 5027   7.087   9.372  11.693
  828W        W 5028   5.420  10.341  10.312
  829W        W 5029   5.492   3.796   8.646
  830W        W 5030  10.465  11.347   9.845
  831W        W 5031  11.464   8.466  10.816
  832W        W 5032   1.312  10.800   2.975
  833W        W 5033   8.900   1.438  10.679
  834W        W 5034   7.253   0.080   9.707
  835W        W 5035  10.331   5.655   0.405
  836W        W 5036   8.622   3.731   8.174
  837W        W 5037  10.369   7.272  10.346
  838W        W 5038  10.327   2.927   9.752
  839W        W 5039   0.449   2.207  10.784
  840W        W 5040  10.931   0.061   0.780
  841W        W 5041   7.881   5.714   0.342
  842W        W 5042  10.872   0.710   9.886
  843W        W 5043   4.070   5.529  11.790
  844W        W 5044   3.732   8.933  10.090
  845W        W 5045   9.529  10.562  11.892
  846W        W 5046   4.683   0.488   0.975
  847W        W 5047   1.005   2.680   2.144
  848W        W 5048   1.975   0.445  11.055
  849W        W 5049  10.909   6.174  11.803
  850W        W 5050   9.354   5.665   0.673
  851W        W 5051   5.924   3.653   8.948
  852W        W 5052   1.649   9.324   2.117
  853W        W 5053   0.035   7.166   3.525
  854W        W 5054   8.012   7.206   2.552
  855W        W 5055   0.864   3.284  11.470
  856W        W 5056   6.567   0.295   1.980
  857W        W 5057   8.050   0.523   3.344
  858W        W 5058  10.694   9.788  11.512
  859W        W 5059   7.709   2.232   2.169
  860W        W 5060   5.109   7.005  10.448
  861W        W 5061   9.647   2.065   1.804
  862W        W 5062   6.633  11.270  10.771
  863W        W 5063   4.412   9.757   0.917
  864W        W 5064   5.938   6.626  10.418
  865W        W 5065   1.242   7.599   9.231
  866W        W 5066   1.891  10.615   9.851
  867W        W 5067  10.746   8.358   0.364
  868W        W 5068   8.870   9.958   1.049
  869W        W 5069   0.685   5.973   2.835
  870W        W 5070  10.810   9.583  10.052
  871W        W 5071  10.012  10.079   1.691
  872W        W 5072   2.653   2.215   3.658
  873W        W 5073   5.626  11.492   3.169
  874W        W 5074  11.014  11.167   8.994
  875W        W 5075   7.975   1.855   1.940
  876W        W 5076   2.975   0.663   9.550
  877W        W 5077  10.868   9.148   9.760
  878W        W 5078   4.641   1.926   2.476
  879W        W 5079   5.457   7.157  11.917
  880W        W 5080   8.576   3.224  11.293
  881W        W 5081   9.965   9.990   9.230
  882W        W 5082   0.336   6.094   9.394
  883W        W 5083   4.117   1.606  11.948
  884W        W 5084   8.493   1.732   8.901
  885W        W 5085  10.499   9.800   0.404
  886W        W 5086   4.202   7.225  10.894
  887W        W 5087   5.526   9.903   2.434
  888W        W 5088   4.982   6.911  11.945
  889W        W 5089   5.040   4.528   1.238
  890W        W 5090   4.402  11.271   2.964
  891W        W 5091   7.105   7.474   2.657
  892W        W 5092  11.199  10.303   2.413
  893W        W 5093   0.516   9.977   1.891
  894W        W 5094   0.815   0.681   9.112
  895W        W 5095   5.651   0.891  11.679
  896W        W 5096   7.851  10.399   0.278
  897W        W 5097   6.675   7.214   1.779
  898W        W 5098   9.428   7.329   1.875
  899W        W 5099   6.434   3.203   9.551
  900W        W 5100   6.191   6.988   3.067
  901W        W 5101   6.184   3.554  10.296
  902W        W 5102   3.391   9.339   0.277
  903W        W 5103   3.873   1.656  10.918
  904W        W 5104   2.010   0.461   9.523
  905W        W 5105   1.909   1.553   2.712
  906W        W 5106   5.165   6.944   9.235
  907W        W 5107  10.622   5.054  10.363
  908W        W 5108   8.953   9.316   9.334
  909W        W 5109   1.356   3.161   9.803
  910W        W 5110   3.818   3.732   2.174
  911W        W 5111   5.891   7.480   9.315
  912W        W 5112   6.741   7.813   3.236
  913W        W 5113   6.405  10.011   2.931
  914W        W 5114   0.900   3.664   9.315
  915W        W 5115   5.680  10.388  10.783
  916W        W 5116   3.533   0.807  10.475
  917W        W 5117   7.094   6.922   9.775
  918W        W 5118   9.731  11.437  10.313
  919W        W 5119   4.959   8.360   0.262
  920W        W 5120   7.058   0.481   2.729
  921W        W 5121   0.311   7.339  10.339
  922W        W 5122   3.545  10.399   2.569
  923W        W 5123   6.964   7.423   9.816
  924W        W 5124   9.037   6.453   8.386
  925W        W 5125   3.945   9.842  11.566
  926W        W 5126  10.424   7.653  11.527
  927W        W 5127   9.906   6.681  10.766
  928W        W 5128   2.842   1.360   3.356
  929W        W 5129   2.969   9.863   9.481
  930W        W 5130   7.635   6.678   0.311
  931W        W 5131   9.363  10.594   0.371
  932W        W 5132   0.235   4.610   0.830
  933W        W 5133  11.059   2.664  10.791
  934W        W 5134   1.872  10.447   2.650
  935W        W 5135   2.441   0.667   1.660
  936W        W 5136   9.818   4.142  11.916
  937W        W 5137  10.035   3.693  11.127
  938W        W 5138   1.434   7.633   3.307
  939W        W 5139   5.043   3.634  10.067
  940W        W 5140   8.654  10.515   0.896
  941W        W 5141   1.934   8.394   1.558
  942W        W 5142   9.340   2.892   1.559
  943W        W 5143   9.236   5.753   8.437
  944W        W 5144   6.776   7.571   0.780
  945W        W 5145   3.132   7.457   0.215
  946W        W 5146   4.827   9.449   3.308
  947W        W 5147   4.482   1.201  11.463
  948W        W 5148   7.607   3.338   2.458
  949W        W 5149   3.137  10.364  11.789
  950W        W 5150   6.688   8.986   9.826
  951W        W 5151   0.334   2.614   9.981
  952W        W 5152   2.324   7.203   9.041
  953W        W 5153   6.258   3.782  11.443
  954W        W 5154   0.689   7.298   2.667
  955W        W 5155   3.628   9.418   0.735
  956W        W 5156   0.506   1.707   9.061
  957W        W 5157  11.455   0.012   8.880
  958W        W 5158   6.756   9.790   0.373
  959W        W 5159   5.884   7.297  11.683
  960W        W 5160   4.956   7.985  10.667
  961W        W 5161   3.283   2.145   9.206
  962W        W 5162   3.711   1.978  11.304
  963W        W 5163   7.247   3.119  10.145
  964W        W 5164   7.723   9.551   0.244
  965W        W 5165   9.930   5.109   9.246
  966W        W 5166   4.452  11.012   0.903
  967W        W 5167   9.770   2.390  11.286
  968W        W 5168  10.802   9.409   9.096
  969W        W 5169   5.288   5.104   0.359
  970W        W 5170   9.140   5.931  10.236
  971W        W 5171   6.081   9.463   2.979
  972W        W 5172  11.291   6.526  11.882
  973W        W 5173   1.008   0.295   9.588
  974W        W 5174   1.011   0.510  10.413
  975W        W 5175   7.343   7.952  10.442
  976W        W 5176   0.221   0.789   2.848
  977W        W 5177   6.088   7.571  11.276
  978W        W 5178   4.544   4.539   1.342
  979W        W 5179  10.367  10.836   1.961
  980W        W 5180   3.067   0.834   1.229
  981W        W 5181   8.614   4.717   1.740
  982W        W 5182   4.704   7.581  10.315
  983W        W 5183   8.616   4.809  11.981
  984W        W 5184   3.219   7.393  11.714
  985W        W 5185   7.285   2.327   1.860
  986W        W 5186   8.441   2.720   3.570
  987W        W 5187   5.677  10.826   9.460
  988W        W 5188  11.375   8.651  11.631
  989W        W 5189   8.982   4.556   8.336
  990W        W 5190   9.331   0.347   1.068
  991W        W 5191   7.060   5.516  11.989
  992W        W 5192   3.900   2.178   2.921
  993W        W 5193   8.126   6.556   1.358
  994W        W 5194   3.905   6.653   8.975
  995W        W 5195   5.272  11.489   9.694
  996W        W 5196   6.917   8.602   1.321
  997W        W 5197  10.922  10.092  11.886
  998W        W 5198   1.891   5.033  10.757
  999W        W 5199   4.292   8.156   1.379
 1000W        W 5200   0.966   5.013   2.603
 1001W        W 5201  10.389   8.961  11.872
 1002W        W 5202   2.682   1.189  10.318
 1003W        W 5203   8.890   2.800   1.811
 1004W        W 5204   7.988   9.041   2.649
 1005W        W 5205   7.146   3.088  10.677
 1006W        W 5206  11.023   5.672  11.854
 1007W        W 5207   2.701   3.115   9.869
 1008W        W 5208   3.927   0.738   1.594
 1009W        W 5209   7.216   9.028  11.261
 1010W        W 5210   7.576   3.621  10.947
 1011W        W 5211   2.682   4.115   1.519
 1012W        W 5212   1.374   3.881   3.370
 1013W        W 5213  10.899  10.639   1.695
 1014W        W 5214   0.794   6.063   2.344
 1015W        W 5215  10.169   8.080   8.834
 1016W        W 5216   3.752  10.475   1.953
 1017W        W 5217  10.764   2.335   9.294
 1018W        W 5218   0.539   0.480   9.502
 1019W        W 5219   6.139   0.140   3.251
 1020W        W 5220   5.253   7.254   2.795
 1021W        W 5221   9.495  10.686   3.258
 1022W        W 5222   0.065   5.860   3.606
 1023W        W 5223   6.002   9.914   3.241
 1024W        W 5224   5.179   6.544   9.595
 1025W        W 5225   6.737  10.961  10.322
 1026W        W 5226   7.884   2.219  10.244
 1027W        W 5227   0.177  10.900   1.784
 1028W        W 5228   9.098   5.078   8.132
 1029W        W 5229   5.639   3.738   0.266
 1030W        W 5230   0.863   2.846   3.143
 1031W        W 5231   1.292   2.541  10.423
 1032W        W 5232   9.075   2.097   9.476
 1033W        W 5233   6.873   8.110  10.693
 1034W        W 5234   2.914   8.057   0.010
 1035W        W 5235   4.070   0.193   2.303
 1036W        W 5236   9.444   3.732   8.957
 1037W        W 5237  10.795   6.587   0.096
 1038W        W 5238   8.253   4.893   0.559
 1039W        W 5239   0.900  11.161   8.984
 1040W        W 5240  10.954   9.763   8.713
 1041W        W 5241   8.881   7.629   3.174
 1042W        W 5242   0.939   2.056   8.668
 1043W        W 5243   5.922   1.287   1.208
 1044W        W 5244   5.735   5.787   2.502
 1045W        W 5245   7.457   8.569   9.636
 1046W        W 5246  11.223   0.730   2.551
 1047W        W 5247   9.010   9.008  10.724
 1048W        W 5248   5.590   4.539  11.193
 1049W        W 5249   2.865   0.433   0.763
 1050W        W 5250   4.207  10.084   8.746
 1051W        W 5251   3.181   6.722  10.772
 1052W        W 5252   0.473  11.479   8.741
 1053W        W 5253   7.101   0.784   1.836
 1054W        W 5254   5.263  11.497   3.541
 1055W        W 5255   1.586   7.208  10.223
 1056W        W 5256   4.753   8.622   8.604
 1057W        W 5257   3.522   0.282   3.238
 1058W        W 5258   3.195   5.738   1.536
 1059W        W 5259   7.293   6.070   1.427
 1060W        W 5260   6.129   2.166   1.266
 1061W        W 5261   3.685   8.540   3.138
 1062W        W 5262   7.597   9.734   2.317
 1063W        W 5263   4.825   9.612  10.280
 1064W        W 5264   5.491   7.580   1.256
 1065W        W 5265   7.432   4.961   9.449
 1066W        W 5266  11.326   0.884   9.990
 1067W        W 5267   3.214   9.466   3.205
 1068W        W 5268   5.723   7.475   1.672
 1069W        W 5269   2.779   4.575  11.180
 1070W        W 5270   9.815   1.877  11.398
 1071W        W 5271   0.188   1.307   8.911
 1072W        W 5272   9.530   3.143  11.063
 1073W        W 5273   1.430   3.922  10.427
 1074W        W 5274   4.312   4.163   0.640
 1075W        W 5275   5.732  10.337   2.262
 1076W        W 5276   9.140   3.191   2.597
 1077W        W 5277   5.820  11.104   1.737
 1078W        W 5278   1.189   2.699   3.493
 1079W        W 5279  10.908  11.437  10.864
 1080W        W 5280   7.663  11.333   2.141
 1081W        W 5281   7.085   0.994   2.695
 1082W        W 5282   2.530   4.367  11.589
 1083W        W 5283   0.999   4.601  10.903
 1084W        W 5284   2.050   1.479   8.471
 1085W        W 5285   7.296   2.207  11.882
 1086W        W 5286   0.777   3.751   1.318
 1087W        W 5287   9.749   9.526   2.006
 1088W        W 5288   7.770   3.877  11.368
 1089W        W 5289   6.423   7.423   3.168
 1090W        W 5290   8.656   5.117   0.395
 1091W        W 5291   4.753   9.041   3.612
 1092W        W 5292   4.272   6.510   9.527
 1093W        W 5293   4.172   4.159   1.216
 1094W        W 5294   8.077   5.164   3.961
 1095W        W 5295   7.091   3.945   9.502
 1096W        W 5296   2.858   1.274   9.281
 1097W        W 5297   5.523   3.233   3.065
 1098W        W 5298   6.949   0.976   9.354
 1099W        W 5299   7.975   9.435   2.982
 1100W        W 5300   4.539   6.527   9.957
 1101W        W 5301   5.136   2.380   1.375
 1102W        W 5302   4.538   6.555  11.456
 1103W        W 5303   7.682   7.488   0.861
 1104W        W 5304   5.446  10.367   0.282
 1105W        W 5305  10.930   2.279  11.978
 1106W        W 5306   5.108   2.046  10.441
 1107W        W 5307   4.664   5.590  11.002
 1108W        W 5308   2.892   0.849   2.640
 1109W        W 5309   1.179   0.417   0.221
 1110W        W 5310  10.482   0.785   1.895
 1111W        W 5311   6.042   7.886  10.505
 1112W        W 5312   5.126   4.458   3.425
 1113W        W 5313   0.522   6.189   8.891
 1114W        W 5314   3.818   4.079   0.852
 1115W        W 5315   4.850   2.767   9.011
 1116W        W 5316   3.292   9.138  10.563
 1117W        W 5317   6.698   9.013  11.702
 1118W        W 5318   5.810   3.261  11.681
 1119W        W 5319   5.095   4.672   2.186
 1120W        W 5320   5.345   6.099   9.988
 1121W        W 5321   4.603   5.112  10.699
 1122W        W 5322   5.254   0.309   1.828
 1123W        W 5323   2.624  11.016   1.590
 1124W        W 5324   1.803   7.784  10.919
 1125W        W 5325   3.630   0.736   0.205
 1126W        W 5326   9.344   0.364  11.867
 1127W        W 5327   4.963   0.234   8.863
 1128W        W 5328   8.164   8.927  11.239
 1129W        W 5329   7.468   0.165  11.939
 1130W        W 5330  10.346  10.351   3.174
 1131W        W 5331   0.615   8.796   1.325
 1132W        W 5332   7.510   9.404   3.302
 1133W        W 5333   0.492   8.180   2.140
 1134W        W 5334  10.453   6.934   1.869
 1135W        W 5335   6.431   0.048  11.903
 1136W        W 5336   5.717   7.555   2.178
 1137W        W 5337   7.000   6.515  11.813
 1138W        W 5338   9.882   8.092   1.284
 1139W        W 5339   6.072   9.704   9.077
 1140W        W 5340   7.212  10.880   3.321
 1141W        W 5341   5.247  11.282   0.463
 1142W        W 5342   4.596  11.406  10.602
 1143W        W 5343  10.461   0.977   8.787
 1144W        W 5344   6.186   2.971   1.713
 1145W        W 5345  11.254   2.707   1.400
 1146W        W 5346   0.915   7.055  11.982
 1147W        W 5347   9.473  10.734   2.751
 1148W        W 5348  10.876   1.120  10.182
 1149W        W 5349   3.433   0.833   1.670
 1150W        W 5350   8.845   2.461   0.922
 1151W        W 5351   8.469  10.248   1.313
 1152W        W 5352   0.981   7.097   9.273
 1153W        W 5353   7.388   1.143   0.734
 1154W        W 5354   6.630   7.575   0.284
 1155W        W 5355   5.102   9.866  11.796
 1156W        W 5356  11.052   3.224   1.329
 1157W        W 5357   1.407   1.465  10.641
 1158W        W 5358   5.043   1.716   2.219
 1159W        W 5359   0.113   6.485   0.514
 1160W        W 5360   0.382   6.626  11.518
 1161W        W 5361   4.822   3.308  11.458
 1162W        W 5362   4.805  11.322  11.572
 1163W        W 5363   7.955   4.423   2.056
 1164W        W 5364   5.211   0.848   2.500
 1165W        W 5365   9.826   0.879   1.061
 1166W        W 5366   8.764   3.588   8.634
 1167W        W 5367   4.104   2.385   9.806
 1168W        W 5368   2.460   1.886   0.968
 1169W        W 5369   0.494  10.937   3.338
 1170W        W 5370   0.111   8.216  10.404
 1171W        W 5371   2.240   9.654   8.932
 1172W        W 5372   5.036   5.671   1.365
 1173W        W 5373   9.309   4.220   9.079
 1174W        W 5374  11.267   5.231   0.542
 1175W        W 5375   1.753   1.047   8.803
 1176W        W 5376   3.564   7.230   1.028
 1177W        W 5377   3.610   4.938   9.446
 1178W        W 5378   7.379  10.880   1.230
 1179W        W 5379   3.137   1.192  11.065
 1180W        W 5380   9.892   9.000  11.080
 1181W        W 5381   3.435   7.467   9.848
 1182W        W 5382  11.222   1.862  11.888
 1183W        W 5383  11.487   1.326   9.804
 1184W        W 5384   7.868   4.599   1.261
 1185W        W 5385   7.880  10.680  10.495
 1186W        W 5386  10.010   5.225   2.944
 1187W        W 5387   7.508   4.119  10.928
 1188W        W 5388   0.080   0.859  11.745
 1189W        W 5389   5.832   1.335  11.856
 1190W        W 5390   2.779   4.070  10.992
 1191W        W 5391   6.776   8.194  11.611
 1192W        W 5392   9.208   1.140  10.423
 1193W        W 5393   4.814   0.170   9.852
 1194W        W 5394   8.004   5.224   1.434
 1195W        W 5395   5.044  10.883   1.740
 1196W        W 5396   8.310  10.986   0.933
 1197W        W 5397  10.278   8.961   0.996
 1198W        W 5398  11.332   5.066   3.481
 1199W        W 5399   1.736   5.204   8.967
 1200W        W 5400   2.564   8.023   0.944
 1201W        W 5401   6.146   6.697   3.794
 1202W        W 5402   7.031   5.640   1.438
 1203W        W 5403   8.728   4.069   2.275
 1204W        W 5404   0.015   1.888   9.066
 1205W        W 5405   9.068   2.369   2.996
 1206W        W 5406   1.434   1.751   0.177
 1207W        W 5407   1.761   2.382   1.784
 1208W        W 5408   0.819   9.805   9.878
 1209W        W 5409   6.892   9.939  10.922
 1210W        W 5410   4.538   4.805   8.250
 1211W        W 5411   7.920   8.937  10.394
 1212W        W 5412   4.662   3.817   0.857
 1213W        W 5413   8.955   9.871  10.611
 1214W        W 5414   1.981   7.559  11.354
 1215W        W 5415   6.019   3.599   4.120
 1216W        W 5416   0.005   0.404  10.397
 1217W        W 5417   8.008  10.776  11.546
 1218W        W 5418   5.836   3.107   1.382
 1219W        W 5419   2.289   4.093  10.572
 1220W        W 5420   0.688   8.735   9.025
 1221W        W 5421   6.215   4.555   9.393
 1222W        W 5422  11.386   9.800   1.632
 1223W        W 5423   1.795  10.091  11.569
 1224W        W 5424   0.918   1.921   9.372
 1225W        W 5425   8.450   9.510   2.784
 1226W        W 5426   5.477   0.862   9.584
 1227W        W 5427   5.418   3.337   1.105
 1228W        W 5428   9.224   2.034   0.390
 1229W        W 5429   5.632   8.982   1.999
 1230W        W 5430  10.017   9.920   2.703
 1231W        W 5431   6.649   4.190   3.154
 1232W        W 5432   9.937   9.867   1.219
 1233W        W 5433   9.213   0.611  10.413
 1234W        W 5434   3.780   8.032  10.004
 1235W        W 5435   8.708   2.193   0.252
 1236W        W 5436   9.093   9.482   1.374
 1237W        W 5437   1.830   2.630  10.122
 1238W        W 5438   8.904   7.178   9.990
 1239W        W 5439   5.619   9.547   8.895
 1240W        W 5440   3.120   2.368  10.129
 1241W        W 5441   1.257   4.728   0.133
 1242W        W 5442  11.429   1.879   1.976
 1243W        W 5443   9.432   5.146   9.045
 1244W        W 5444  11.256  11.254   0.529
 1245W        W 5445   2.592  10.754   9.567
 1246W        W 5446   8.550   9.543   0.792
 1247W        W 5447   3.873   0.430   9.695
 1248W        W 5448   5.937   4.748  11.855
 1249W        W 5449   0.750   0.088   0.244
 1250W        W 5450   7.199   2.303   9.361
 1251W        W 5451   2.582   2.331   0.420
 1252W        W 5452   3.189   1.740   2.493
 1253W        W 5453  10.861   7.994  11.596
 1254W        W 5454   8.487   1.763   1.884
 1255W        W 5455   9.371   7.619   3.086
 1256W        W 5456   8.496   5.740  11.829
 1257W        W 5457   5.637   2.133  10.891
 1258W        W 5458   2.138   6.545   8.530
 1259W        W 5459  10.883   4.130   9.101
 1260W        W 5460   4.818  10.290   9.130
 1261W        W 5461   3.352   6.094  10.196
 1262W        W 5462  11.247   2.333   2.953
 1263W        W 5463   1.155   1.798  10.313
 1264W        W 5464   8.892   9.947   2.040
 1265W        W 5465   3.218   1.595   9.602
 1266W        W 5466   0.746  10.694   8.796
 1267W        W 5467  10.529   1.346  11.040
 1268W        W 5468  11.359   8.823  11.151
 1269W        W 5469   8.751   3.193   3.536
 1270W        W 5470   2.207  11.357   1.418
 1271W        W 5471   3.446  11.152   2.532
 1272W        W 5472   5.896   4.172  11.452
 1273W        W 5473   2.341   8.989   1.011
 1274W        W 5474   0.902   0.453   2.617
 1275W        W 5475   7.642  11.090   2.576
 1276W        W 5476   3.784   8.153   8.711
 1277W        W 5477   6.108   6.508   0.299
 1278W        W 5478  11.347   7.421  11.920
 1279W        W 5479   1.555   4.368   8.972
 1280W        W 5480   5.529  11.396   2.668
 1281W        W 5481  11.442   7.591   1.097
 1282W        W 5482   6.109   4.851   0.857
 1283W        W 5483   4.668   3.584  10.977
 1284W        W 5484   8.519   2.471   1.360
 1285W        W 5485   1.959  10.889  10.945
 1286W        W 5486   7.710   4.372   3.269
 1287W        W 5487   6.684   8.366   8.990
 1288W        W 5488   7.725   2.252   2.683
 1289W        W 5489   1.595   7.048  11.525
 1290W        W 5490   7.090   1.875  11.282
 1291W        W 5491   5.562   6.605   2.623
 1292W        W 5492   9.017   3.319   1.147
 1293W        W 5493   9.401   7.451   0.419
 1294W        W 5494   8.000   2.940  11.865
 1295W        W 5495   0.502   7.102  11.715
 1296W        W 5496  10.904  10.946   2.622
 1297W        W 5497   5.412   2.358   3.521
 1298W        W 5498   1.108   2.454  11.665
 1299W        W 5499   9.932   9.458   2.477
 1300W        W 5500   0.986   8.393   8.321
 1301W        W 5501   9.179   4.214   2.117
 1302W        W 5502   6.185  10.401   1.983
 1303W        W 5503   5.687   4.121   3.541
 1304W        W 5504   3.775   9.822   8.897
 1305W        W 5505  11.019  11.019  10.484
 1306W        W 5506   3.829   9.804  10.603
 1307W        W 5507   2.534   7.531   1.146
 1308W        W 5508  10.899  10.016   0.896
 1309W        W 5509   0.956   3.651   1.823
 1310W        W 5510   2.137   0.853   9.883
 1311W        W 5511   7.005   1.269   1.021
 1312W        W 5512   6.695   4.319  11.774
 1313W        W 5513  10.931   8.533   1.869
 1314W        W 5514   1.045   0.823  10.874
 1315W        W 5515   3.603  11.237  10.381
 1316W        W 5516   9.346   1.051   2.572
 1317W        W 5517   9.484   2.399   0.104
 1318W        W 5518   1.772  10.829   0.132
 1319W        W 5519  10.031   6.100  11.980
 1320W        W 5520   6.556   4.767   1.121
 1321W        W 5521   2.762   7.405   8.862
 1322W        W 5522   8.920  11.490   3.183
 1323W        W 5523  10.990  10.001   3.690
 1324W        W 5524   1.092   5.626   3.373
 1325W        W 5525   2.395   7.969   1.444
 1326W        W 5526   0.430   3.144   2.796
 1327W        W 5527   6.420   6.685   0.660
 1328W        W 5528   3.227  10.016   3.290
 1329W        W 5529   3.596   0.360   1.434
 1330W        W 5530   2.559   1.101   9.682
 1331W        W 5531   3.319   7.151   0.573
 1332W        W 5532  11.041   1.653   9.303
 1333W        W 5533   2.618   3.505  11.802
 1334W        W 5534   5.734   5.251   1.203
 1335W        W 5535   6.147   2.898  11.806
 1336W        W 5536   6.014   1.316  10.294
 1337W        W 5537   4.626   7.952  11.549
 1338W        W 5538  11.320   9.304   9.104
 1339W        W 5539  11.326   9.787   0.713
 1340W        W 5540   7.470   6.848   9.421
 1341W        W 5541   3.316  10.604   9.121
 1342W        W 5542   2.262   6.935   2.288
 1343W        W 5543   8.718   4.685  10.615
 1344W        W 5544   8.970   3.280   3.077
 1345W        W 5545   7.494   7.031   2.669
 1346W        W 5546   9.088   6.477   0.947
 1347W        W 5547   5.338   0.045   9.173
 1348W        W 5548   0.889   9.782  11.825
 1349W        W 5549  10.725  11.149   1.788
 1350W        W 5550   5.791  10.456   2.801
 1351W        W 5551   3.891   1.617   2.057
 1352W        W 5552   3.225   4.657  11.861
 1353W        W 5553   7.057   9.503   3.036
 1354W        W 5554   4.060   1.288  10.613
 1355W        W 5555   3.597  10.724  10.336
 1356W        W 5556   5.391   4.045  11.417
 1357W        W 5557   6.966   9.025   1.074
 1358W        W 5558   8.905   1.433  10.145
 1359W        W 5559   1.933   3.862  10.275
 1360W        W 5560   0.241   5.009   9.437
 1361W        W 5561   3.350   7.640  11.288
 1362W        W 5562   6.491   2.587   1.824
 1363W        W 5563   4.161  11.293   9.395
 1364W        W 5564   1.289   4.410   3.388
 1365W        W 5565   4.112   8.188   2.248
 1366W        W 5566   5.626   1.201  10.907
 1367W        W 5567   1.841   7.108   9.789
 1368W        W 5568   1.804   3.605  11.715
 1369W        W 5569   3.143   8.692   1.332
 1370W        W 5570   8.172   7.646   0.809
 1371W        W 5571   4.574   1.865   9.413
 1372W        W 5572   7.700   1.470   2.198
 1373W        W 5573   7.638   1.405   9.240
 1374W        W 5574   9.339   0.373   8.198
 1375W        W 5575   3.378   2.553   3.515
 1376W        W 5576   2.963   9.632   1.716
 1377W        W 5577   1.294   0.287  10.048
 1378W        W 5578   3.987   4.062  10.557
 1379W        W 5579   2.182   5.315   1.135
 1380W        W 5580   5.093   3.618   3.947
 1381W        W 5581   3.743   8.798  11.108
 1382W        W 5582   7.111   8.922   9.527
 1383W        W 5583   9.048  10.346   9.292
 1384W        W 5584   6.617   1.406   3.361
 1385W        W 5585   2.196  10.000   3.192
 1386W        W 5586   4.154   6.214  10.774
 1387W        W 5587   4.139   9.356   0.762
 1388W        W 5588   4.556   0.061   2.381
 1389W        W 5589   1.433   1.136  11.042
 1390W        W 5590   2.699  11.141  11.740
 1391W        W 5591   8.479   1.006   1.086
 1392W        W 5592   5.084   3.274  10.970
 1393W        W 5593   9.335   0.801   3.008
 1394W        W 5594   3.245   2.654   2.807
 1395W        W 5595  11.223   2.179   3.447
 1396W        W 5596   8.546   9.613   3.623
 1397W        W 5597   5.985   7.296   8.599
 1398W        W 5598   3.083   2.362   0.472
 1399W        W 5599   3.615  10.613  11.751
 1400W        W 5600   2.346   4.143   0.871
 1401W        W 5601   8.444   0.745  10.711
 1402W        W 5602  10.298  10.471   9.744
 1403W        W 5603   2.745   7.858   0.462
 1404W        W 5604   8.427   8.810   8.552
 1405W        W 5605   8.176   5.976   8.275
 1406W        W 5606   5.728  10.305   1.737
 1407W        W 5607   6.612   8.085   0.717
 1408W        W 5608   5.671   2.321   8.679
 1409W        W 5609   3.479   1.944   2.142
 1410W        W 5610   3.311   5.715  10.547
 1411W        W 5611  11.313   2.713   3.482
 1412W        W 5612   6.030   2.820   3.670
 1413W        W 5613   6.196  10.540   1.501
 1414W        W 5614   9.676   1.466  11.118
 1415W        W 5615  10.442   0.698   0.443
 1416W        W 5616   2.580   5.668   2.618
 1417W        W 5617   6.094   8.855   2.781
 1418W        W 5618   5.581   8.643   9.915
 1419W        W 5619  10.988   9.909   0.366
 1420W        W 5620   6.533   4.366   8.959
 1421W        W 5621   8.678   8.101   0.056
 1422W        W 5622   7.445   4.326  10.310
 1423W        W 5623   4.649   5.631  10.489
 1424W        W 5624   8.823   4.813   0.806
 1425W        W 5625   4.848   9.661   3.777
 1426W        W 5626   2.393   7.071   1.430
 1427W        W 5627   9.949   2.834  11.095
 1428W        W 5628   1.363   1.657   9.330
 1429W        W 5629   9.696   9.193   0.415
 1430W        W 5630  10.415   1.662   0.217
 1431W        W 5631   4.199   4.697   9.354
 1432W        W 5632   2.227   6.388   9.403
 1433W        W 5633   9.559   6.506   9.093
 1434W        W 5634   7.711   9.414  10.273
 1435W        W 5635   2.448   8.202   1.908
 1436W        W 5636   8.087   8.612   8.916
 1437W        W 5637   9.754   2.103   0.750
 1438W        W 5638   8.976   7.510  11.504
 1439W        W 5639   8.469   4.751   2.683
 1440W        W 5640   8.610   6.484   9.651
 1441W        W 5641   1.700  11.007   1.867
 1442W        W 5642   8.148   6.422   9.453
 1443W        W 5643  11.330   6.013   3.156
 1444W        W 5644   8.037   0.266  11.329
 1445W        W 5645   7.567   7.165   0.486
 1446W        W 5646   0.324   5.850   2.265
 1447W        W 5647   5.219  10.814  10.248
 1448W        W 5648   7.360   7.825   2.327
 1449W        W 5649   6.055   2.007   8.867
 1450W        W 5650   6.335   6.065  10.116
 1451W        W 5651   8.696   4.082   3.348
 1452W        W 5652   5.608   9.303  11.311
 1453W        W 5653   7.267   9.755   0.039
 1454W        W 5654   8.665   3.720   0.423
 1455W        W 5655   8.873  11.193  11.914
 1456W        W 5656   4.962  11.170   0.895
 1457W        W 5657   4.900   3.278   9.173
 1458W        W 5658   1.929   4.743   8.893
 1459W        W 5659   5.443   6.613  10.357
 1460W        W 5660   1.257   1.244   0.044
 1461W        W 5661   6.220   8.005   0.244
 1462W        W 5662   9.773   8.628   0.578
 1463W        W 5663  10.768   2.789   1.215
 1464W        W 5664   0.294  10.363  11.317
 1465W        W 5665   6.017   0.879   0.043
 1466W        W 5666   1.369   9.080  11.650
 1467W        W 5667   2.292   1.437  10.598
 1468W        W 5668   2.087   9.361   9.349
 1469W        W 5669   5.263   9.205   3.279
 1470W        W 5670   6.501   9.491   2.307
 1471W        W 5671   5.983   5.513  10.349
 1472W        W 5672   8.457   3.059   3.107
 1473W        W 5673   3.914   0.435  10.929
 1474W        W 5674   7.260   5.077   9.942
 1475W        W 5675   7.586   5.885  11.212
 1476W        W 5676   2.941   1.263   0.419
 1477W        W 5677   8.426   9.756   1.268
 1478W        W 5678  10.704   5.263  11.776
 1479W        W 5679   3.199   4.546   3.438
 1480W        W 5680   0.576   0.812  11.758
 1481W        W 5681   8.576   6.936  10.278
 1482W        W 5682   0.679   8.154  10.040
 1483W        W 5683   0.368   0.769  11.287
 1484W        W 5684   5.961   9.024   1.016
 1485W        W 5685   4.754   0.483   1.857
 1486W        W 5686   2.853   0.445   8.962
 1487W        W 5687   7.802   3.080   2.876
 1488W        W 5688   9.088   3.331   9.437
 1489W        W 5689   2.787   4.238   3.473
 1490W        W 5690   1.741   2.696  10.634
 1491W        W 5691  10.879   9.897   9.224
 1492W        W 5692   0.295   7.630  10.842
 1493W        W 5693   9.143   6.222   2.290
 1494W        W 5694   7.498   5.751  11.729
 1495W        W 5695   5.953   5.197  11.392
 1496W        W 5696   1.457   6.180   1.665
 1497W        W 5697   1.895   6.143   1.403
 1498W        W 5698  10.937   4.070   0.603
 1499W        W 5699   9.485   5.958   9.756
 1500W        W 5700   2.575   5.253  11.815
 1501W        W 5701   7.916   1.383   3.144
 1502W        W 5702   2.381   0.963   0.007
 1503W        W 5703   6.125   1.264  10.795
 1504W        W 5704   5.241   1.560  10.592
 1505W        W 5705   0.053   0.326   9.491
 1506W        W 5706   0.385   8.439   0.989
 1507W        W 5707   2.082   4.042  11.401
 1508W        W 5708   2.872   0.328   9.929
 1509W        W 5709   0.263   5.588   2.704
 1510W        W 5710   6.461   2.063  11.857
 1511W        W 5711   4.254   2.554  11.882
 1512W        W 5712   3.564   2.088   9.999
 1513W        W 5713   1.018   2.073   0.075
 1514W        W 5714   6.560   8.145   9.489
 1515W        W 5715   0.176  10.481   2.372
 1516W        W 5716   1.315   3.993   1.962
 1517W        W 5717   4.312  10.994   8.968
 1518W        W 5718  10.933   6.724   9.752
 1519W        W 5719   1.411  10.439   3.391
 1520W        W 5720   2.499   5.787  10.000
 1521W        W 5721   4.885   2.355   3.415
 1522W        W 5722   3.283   5.015  10.049
 1523W        W 5723   2.116   4.575  11.394
 1524W        W 5724  11.334   3.305  10.584
 1525W        W 5725   1.675   7.474   1.712
 1526W        W 5726   6.584   0.762   8.899
 1527W        W 5727   7.832   9.875  11.309
 1528W        W 5728  10.664   4.291  11.774
 1529W        W 5729   6.817   1.008  11.519
 1530W        W 5730   3.181   9.762   0.473
 1531W        W 5731   3.745   2.784   1.170
 1532W        W 5732   7.362   5.585  10.811
 1533W        W 5733   7.159   4.843  11.168
 1534W        W 5734   8.535   8.619   4.112
 1535W        W 5735   7.979   5.729  10.046
 1536W        W 5736  10.537   5.993   2.764
 1537W        W 5737   6.454   4.727  10.179
 1538W        W 5738   2.480   0.498   8.596
 1539W        W 5739   3.312   2.740  10.435
 1540W        W 5740   5.696   1.805   8.532
 1541W        W 5741   5.833   6.111   1.366
 1542W        W 5742   1.858   7.460   9.027
 1543W        W 5743   9.966   9.839  11.726
 1544W        W 5744   1.482   3.284   2.724
 1545W        W 5745   7.739   0.075   0.372
 1546W        W 5746   8.494  11.431   2.106
 1547W        W 5747   5.191   3.965   3.584
 1548W        W 5748   3.788   8.510   0.715
 1549W        W 5749   7.942   1.443   2.653
 1550W        W 5750   3.751   0.731   0.776
 1551W        W 5751   8.029   8.464   2.356
 1552W        W 5752  10.477   2.304   2.985
 1553W        W 5753   2.209   8.097   9.924
 1554W        W 5754  10.982   7.190  10.991
 1555W        W 5755   4.562   3.523   8.638
 1556W        W 5756   5.051   3.577   8.778
 1557W        W 5757   3.847   1.235   1.697
 1558W        W 5758  11.045   0.396   2.919
 1559W        W 5759  10.563   5.211   2.250
 1560W        W 5760   7.194   5.259  10.430
 1561W        W 5761   4.792   3.568   2.463
 1562W        W 5762   8.929   1.997   8.989
 1563W        W 5763   8.619   3.330   0.792
 1564W        W 5764   5.691   2.717   0.019
 1565W        W 5765   4.599  10.789   9.380
 1566W        W 5766   0.844   4.710  10.431
 1567W        W 5767   2.837   1.345   2.836
 1568W        W 5768   5.278   5.091   1.961
 1569W        W 5769   3.278   7.485   8.978
 1570W        W 5770   5.552   2.688   1.421
 1571W        W 5771   4.255   0.769   9.073
 1572W        W 5772   5.541   4.963  10.874
 1573W        W 5773  10.354   4.754  10.722
 1574W        W 5774  10.947   9.857   2.219
 1575W        W 5775   7.954   6.560   2.294
 1576W        W 5776   0.363   5.661   1.048
 1577W        W 5777   8.602   0.741   9.873
 1578W        W 5778  10.504   2.394  11.042
 1579W        W 5779   8.007   7.896   1.793
 1580W        W 5780   5.549   3.827   1.091
 1581W        W 5781   9.110   8.395   0.035
 1582W        W 5782   9.695   5.088  10.009
 1583W        W 5783   9.932   9.104   9.592
 1584W        W 5784  11.292   7.218   0.785
 1585W        W 5785   4.672  10.693  11.027
 1586W        W 5786   9.509  10.094   0.348
 1587W        W 5787   0.720   0.628   0.228
 1588W        W 5788   2.776   6.637   1.788
 1589W        W 5789   3.182   0.435  10.521
 1590W        W 5790   4.811   5.138   0.523
 1591W        W 5791   0.835   4.550   9.897
 1592W        W 5792   1.522   1.871   1.144
 1593W        W 5793   3.981   2.640   9.073
 1594W        W 5794   4.421   6.621   9.056
 1595W        W 5795   9.494   0.094   9.895
 1596W        W 5796  10.568   8.543   0.829
 1597W        W 5797  10.790   2.691   0.714
 1598W        W 5798   0.962  11.127   3.188
 1599W        W 5799   9.009  11.353   2.199
 1600W        W 5800  10.423   3.821  10.841
 1601W        W 5801   1.747   7.256  10.706
 1602W        W 5802   0.870  11.299   2.384
 1603W        W 5803   4.014   1.082   1.211
 1604W        W 5804   0.116   4.588   9.188
 1605W        W 5805  11.380  10.836   1.319
 1606W        W 5806   1.269   8.631  11.408
 1607W        W 5807   1.844   3.388   8.837
 1608W        W 5808   4.346   2.275  10.500
 1609W        W 5809   0.648   3.290   3.211
 1610W        W 5810   3.021   9.458   2.711
 1611W        W 5811   7.608   7.200  11.971
 1612W        W 5812   1.645   0.170  10.761
 1613W        W 5813   7.407   9.844  11.558
 1614W        W 5814  11.394   4.546  11.481
 1615W        W 5815  11.041   2.057   8.962
 1616W        W 5816   8.619   6.439  10.197
 1617W        W 5817   0.269  11.008  11.940
 1618W        W 5818   2.460   6.907   4.135
 1619W        W 5819   4.634   7.047  11.587
 1620W        W 5820   9.857   1.222   1.685
 1621W        W 5821   5.194   1.325   2.802
 1622W        W 5822   1.710   4.890   1.854
 1623W        W 5823   3.821   9.978   2.695
 1624W        W 5824   8.854   2.822   2.323
 1625W        W 5825   4.474   8.212   9.032
 1626W        W 5826   6.729   3.591   9.442
 1627W        W 5827   9.813   6.971   9.076
 1628W        W 5828   4.429   2.763   9.273
 1629W        W 5829   8.619   8.888   2.448
 1630W        W 5830   2.205   0.973  10.359
 1631W        W 5831   2.527   4.509   0.548
 1632W        W 5832   6.058   7.949   9.522
 1633W        W 5833   1.550   1.321   2.256
 1634W        W 5834   4.306   1.471   1.754
 1635W        W 5835   1.492   8.652   1.501
 1636W        W 5836   2.895   2.358  11.600
 1637W        W 5837   8.383   1.362   3.378
 1638W        W 5838   5.012   7.228   9.629
 1639W        W 5839   2.535   3.544   2.590
 1640W        W 5840  10.321   7.941   0.421
 1641W        W 5841   3.839   5.972   0.445
 1642W        W 5842   3.806   0.931  10.897
 1643W        W 5843   5.432   3.304   1.617
 1644W        W 5844   7.274   3.833  11.347
 1645W        W 5845   3.584   0.892   3.383
 1646W        W 5846   2.193   1.769  10.990
 1647W        W 5847   2.248   5.229   0.204
 1648W        W 5848   0.017   4.218  10.266
 1649W        W 5849   2.833   5.051   2.566
 1650W        W 5850   7.943   5.055   9.515
 1651W        W 5851   2.875   9.860   0.883
 1652W        W 5852   4.048   9.841   0.064
 1653W        W 5853   9.087   3.945  11.261
 1654W        W 5854  10.765  10.768   9.150
 1655W        W 5855  11.452   0.082   3.579
 1656W        W 5856   0.534   7.481   0.222
 1657W        W 5857   4.713   2.101  10.795
 1658W        W 5858   8.089   3.170   1.171
 1659W        W 5859   9.158   6.238   2.814
 1660W        W 5860   1.648   8.360   8.840
 1661W        W 5861  10.903   5.753   9.993
 1662W        W 5862   5.531   0.258   0.464
 1663W        W 5863   2.201   8.141   2.757
 1664W        W 5864   0.344  11.296   3.709
 1665W        W 5865   1.079   2.247   2.375
 1666W        W 5866   8.031   7.545   2.150
 1667W        W 5867   9.097   1.987   2.651
 1668W        W 5868   2.333   5.573  11.433
 1669W        W 5869   6.311   8.311  10.340
 1670W        W 5870   8.087   7.998  11.579
 1671W        W 5871   0.228   4.202   3.393
 1672W        W 5872  11.469   5.195   2.797
 1673W        W 5873   2.930  10.197   0.444
 1674W        W 5874   6.106   3.026   2.382
 1675W        W 5875   2.029   4.822   2.720
 1676W        W 5876   8.992  11.156  11.288
 1677W        W 5877   4.779   9.891   2.963
 1678W        W 5878   8.357   7.617  10.738
 1679W        W 5879   4.748   9.410   9.746
 1680W        W 5880   8.094   0.665  11.654
 1681W        W 5881   1.674   9.554   9.630
 1682W        W 5882   7.560   2.005   3.456
 1683W        W 5883   8.939   1.459   8.831
 1684W        W 5884   1.980   7.623   9.925
 1685W        W 5885   0.031  10.930  10.634
 1686W        W 5886   0.224   0.253  10.988
 1687W        W 5887   4.321  10.474   9.059
 1688W        W 5888   6.600   4.390   8.442
 1689W        W 5889   8.586  11.406  11.447
 1690W        W 5890   4.694   2.079   8.478
 1691W        W 5891   9.429   4.139   3.135
 1692W        W 5892   9.007   8.774   9.384
 1693W        W 5893   2.097   7.225   1.874
 1694W        W 5894   9.551   2.633  10.860
 1695W        W 5895   3.270   2.910   1.350
 1696W        W 5896   7.069   1.814   9.462
 1697W        W 5897   3.553   3.845  11.812
 1698W        W 5898  11.111   4.985  10.482
 1699W        W 5899   8.952   9.121   3.437
 1700W        W 5900  11.232   9.331   2.478
 1701W        W 5901   4.306   2.440   3.208
 1702W        W 5902   0.304   7.538   0.731
 1703W        W 5903   3.054   6.175   9.355
 1704W        W 5904   1.321   0.329  11.738
 1705W        W 5905  10.464   9.386   1.267
 1706W        W 5906   9.012   3.763  10.791
 1707W        W 5907   6.001   2.310  10.097
 1708W        W 5908  11.282   3.302  10.078
 1709W        W 5909   8.817   7.104   2.564
 1710W        W 5910   8.369   9.881  11.310
 1711W        W 5911   2.753  11.383   0.706
 1712W        W 5912   7.515   2.714   2.679
 1713W        W 5913  10.462   9.542   8.727
 1714W        W 5914   4.627   8.595   3.310
 1715W        W 5915   0.424   1.932   3.362
 1716W        W 5916   2.357   2.837   1.320
 1717W        W 5917   6.072   9.343  11.059
 1718W        W 5918   7.319   7.817   1.454
 1719W        W 5919   6.139   0.503   8.766
 1720W        W 5920   6.476  10.897   8.821
 1721W        W 5921   7.955   0.476   8.848
 1722W        W 5922   7.131   7.267   9.361
 1723W        W 5923   5.957   7.555   0.242
 1724W        W 5924   1.724   7.405   2.986
 1725W        W 5925  10.460   3.139   2.372
 1726W        W 5926   1.454   9.735   3.816
 1727W        W 5927  10.680   6.972   1.392
 1728W        W 5928   8.371   6.876   9.328
 1729W        W 5929   7.087  10.031   9.081
 1730W        W 5930   4.434   8.121   3.210
 1731W        W 5931   4.575   7.089  10.514
 1732W        W 5932   2.878   9.416  10.899
 1733W        W 5933   3.081   9.987  11.044
 1734W        W 5934   8.143   6.650  10.413
 1735W        W 5935  11.294   1.400   1.813
 1736W        W 5936   4.219   7.629   3.130
 1737W        W 5937   2.147   7.142   0.985
 1738W        W 5938   0.334   1.303   9.406
 1739W        W 5939  11.049  11.250   1.278
 1740W        W 5940   4.479   5.286   0.958
 1741W        W 5941   5.237   7.839   1.630
 1742W        W 5942   9.710   5.530   9.499
 1743W        W 5943   9.117   4.886   8.699
 1744W        W 5944  11.312   5.471  10.392
 1745W        W 5945  10.731   0.585   2.538
 1746W        W 5946   8.231   1.494   2.224
 1747W        W 5947   9.636   7.139  11.829
 1748W        W 5948   1.760   0.575  11.506
 1749W        W 5949   8.534   0.434   2.249
 1750W        W 5950  10.956   7.219   3.150
 1751W        W 5951  10.846   9.095   2.730
 1752W        W 5952   1.729   2.683  11.153
 1753W        W 5953   2.592   7.214   2.784
 1754W        W 5954   6.493   0.169   0.970
 1755W        W 5955   8.626   1.010   1.572
 1756W        W 5956   7.086   8.914  10.765
 1757W        W 5957   9.008   7.441   9.095
 1758W        W 5958   4.888   3.239   3.657
 1759W        W 5959   0.364   8.601  11.847
 1760W        W 5960   5.635   2.761   2.361
 1761W        W 5961  11.429   5.970   0.553
 1762W        W 5962   1.444   2.707   2.509
 1763W        W 5963   1.476   7.140   8.549
 1764W        W 5964   7.151   3.375  11.115
 1765W        W 5965  10.831   7.470  11.809
 1766W        W 5966   6.672   0.543   0.672
 1767W        W 5967   4.347   2.061  11.924
 1768W        W 5968  10.091   6.851  10.322
 1769W        W 5969   1.812  11.293  11.926
 1770W        W 5970   2.220   5.670   0.474
 1771W        W 5971   3.102  11.430  10.121
 1772W        W 5972   3.180   6.466   1.167
 1773W        W 5973  10.891   3.838   3.112
 1774W        W 5974   3.680   9.817   0.402
 1775W        W 5975   3.330   3.751   2.041
 1776W        W 5976   3.396  11.166  11.537
 1777W        W 5977   3.367   4.243   1.788
 1778W        W 5978   3.609   4.809   0.163
 1779W        W 5979   2.966   4.244   0.435
 1780W        W 5980   2.459  11.423   1.900
 1781W        W 5981   8.377   3.129   2.208
 1782W        W 5982   6.276  10.928   1.830
 1783W        W 5983   3.295  11.016   2.022
 1784W        W 5984   0.875   3.232   9.984
 1785W        W 5985   7.999  10.483  10.044
 1786W        W 5986   7.407   8.996  10.373
 1787W        W 5987   8.153   5.171   2.725
 1788W        W 5988   5.695  10.323   9.404
 1789W        W 5989   6.645   7.307   9.181
 1790W        W 5990   2.088   5.624   2.439
 1791W        W 5991   5.439   5.137  11.347
 1792W        W 5992   6.254   0.855   1.412
 1793W        W 5993   7.872   4.549   0.699
 1794W        W 5994   4.129   5.135  10.026
 1795W        W 5995   6.160   3.310  11.265
 1796W        W 5996  10.430   0.306   2.228
 1797W        W 5997   4.264  10.575   0.549
 1798W        W 5998   2.815   5.052   9.872
 1799W        W 5999   7.657   7.570   2.759
 1800W        W 6000   0.495   1.491  10.809
 1801W        W 6001   2.473   9.831   9.348
 1802W        W 6002   9.069   0.367   9.939
 1803W        W 6003   8.954  10.502  10.311
 1804W        W 6004   9.439   1.500   9.594
 1805W        W 6005  11.289   0.969   8.858
 1806W        W 6006   8.563   3.311   9.424
 1807W        W 6007   0.288   5.760  11.344
 1808W        W 6008   4.322   8.327  10.072
 1809W        W 6009   1.538   7.792  11.472
 1810W        W 6010   6.885   3.315   0.489
 1811W        W 6011   8.058   0.683   1.003
 1812W        W 6012   9.934  10.987   9.450
 1813W        W 6013   2.838   3.928   1.981
 1814W        W 6014   5.472   5.292   0.779
 1815W        W 6015   9.513   7.072   4.251
 1816W        W 6016   8.118  10.585   9.201
 1817W        W 6017   5.602   5.720  11.979
 1818W        W 6018  10.002   9.997   0.216
 1819W        W 6019   3.725  11.349   2.170
 1820W        W 6020   3.763   1.231  11.960
 1821W        W 6021   6.293   4.327   1.764
 1822W        W 6022   1.920   2.640   2.272
 1823W        W 6023   3.718   0.201   0.805
 1824W        W 6024  11.469   2.143   0.307
 1825W        W 6025   0.804   9.582   0.316
 1826W        W 6026   9.317   5.513  10.497
 1827W        W 6027   4.258   9.577   1.463
 1828W        W 6028   7.892   4.943  11.882
 1829W        W 6029   7.763   8.636   1.290
 1830W        W 6030   0.394   5.212   2.318
 1831W        W 6031   5.030   1.003   9.410
 1832W        W 6032   2.089   7.474   1.395
 1833W        W 6033   5.080   8.504   3.489
 1834W        W 6034   0.580   8.371  10.509
 1835W        W 6035   6.105   4.048  10.132
 1836W        W 6036  10.000   4.614  11.072
 1837W        W 6037   5.992   3.306   0.942
 1838W        W 6038   7.611  10.472   0.723
 1839W        W 6039   5.299   6.959   0.365
 1840W        W 6040   6.021   2.384  11.752
 1841W        W 6041   4.675   4.786  11.561
 1842W        W 6042   1.561   0.831  11.917
 1843W        W 6043   3.617   5.090  11.284
 1844W        W 6044   5.428   5.726   9.161
 1845W        W 6045  10.256   0.398  11.017
 1846W        W 6046   6.273   6.560   3.320
 1847W        W 6047   6.489   5.554  11.020
 1848W        W 6048   8.029   0.565   2.437
 1849W        W 6049   8.691   2.429   9.368
 1850W        W 6050  11.297   7.030  10.267
 1851W        W 6051   9.541   3.284   1.308
 1852W        W 6052   9.096   6.030   4.071
 1853W        W 6053  11.419  10.367   1.536
 1854W        W 6054   7.158   6.863   0.408
 1855W        W 6055   1.950   5.543  10.816
 1856W        W 6056   8.671   3.237  10.769
 1857W        W 6057   9.084   3.706   2.478
 1858W        W 6058   4.116   0.346  11.481
 1859W        W 6059   3.348   2.374   1.323
 1860W        W 6060   0.376   4.165   2.026
 1861W        W 6061   5.202   6.693   1.617
 1862W        W 6062   6.716   6.750   1.555
 1863W        W 6063  10.091   8.158   0.806
 1864W        W 6064   3.113   1.244   8.824
 1865W        W 6065   4.523   9.490   8.512
 1866W        W 6066   6.153   2.196   0.251
 1867W        W 6067  10.755   0.454  10.962
 1868W        W 6068   8.582   9.984   8.848
 1869W        W 6069   1.162   5.246   9.021
 1870W        W 6070   3.724   9.312   8.967
 1871W        W 6071   5.021  11.275   0.018
 1872W        W 6072  10.329   3.098   0.030
 1873W        W 6073   6.878   2.232  11.620
 1874W        W 6074   2.283   1.274  11.151
 1875W        W 6075   7.112   2.702  11.740
 1876W        W 6076   4.160   3.331   0.379
 1877W        W 6077   4.489   3.520   1.245
 1878W        W 6078   5.297   2.086   3.097
 1879W        W 6079   3.510   2.857   9.465
 1880W        W 6080   9.635   6.233   1.887
 1881W        W 6081   3.106   8.773   8.688
 1882W        W 6082   2.711   9.458  11.445
 1883W        W 6083  10.305  10.027  10.474
 1884W        W 6084   0.293   6.726  11.011
 1885W        W 6085   2.354   9.882   0.863
 1886W        W 6086  10.082   9.524   0.389
 1887W        W 6087   0.356   2.318   0.624
 1888W        W 6088   1.921   0.147   0.407
 1889W        W 6089   9.466   9.409   2.645
 1890W        W 6090  11.408   6.624   9.959
 1891W        W 6091   3.115   8.396   2.310
 1892W        W 6092   3.097   8.494  11.825
 1893W        W 6093   5.622   1.674   0.223
 1894W        W 6094   3.102   4.890   3.884
 1895W        W 6095   4.732   6.118  10.257
 1896W        W 6096   1.634   6.781  10.571
 1897W        W 6097   2.269   6.233   1.729
 1898W        W 6098   1.181   3.676   2.951
 1899W        W 6099   4.321   3.160  11.491
 1900W        W 6100   7.435   6.112   8.628
 1901W        W 6101   9.908  10.918  10.368
 1902W        W 6102   5.883   7.087   3.453
 1903W        W 6103   2.309   8.673   1.772
 1904W        W 6104   1.826   6.180   2.479
 1905W        W 6105   1.329   0.966   1.527
 1906W        W 6106   6.973   4.264  11.334
 1907W        W 6107   6.087   1.280   2.659
 1908W        W 6108   8.622   5.332   1.480
 1909W        W 6109   5.812   3.827  10.528
 1910W        W 6110   3.201   0.703  11.475
 1911W        W 6111   4.708   3.708   3.492
 1912W        W 6112   5.906   4.577   3.444
 1913W        W 6113   0.465   1.445   1.227
 1914W        W 6114   9.516  10.056  11.810
 1915W        W 6115   2.782   8.100  10.799
 1916W        W 6116   2.246   3.510  11.436
 1917W        W 6117   3.630   5.242  11.829
 1918W        W 6118   2.489   4.724  10.102
 1919W        W 6119   8.002   9.598   3.469
 1920W        W 6120   1.114   2.224  10.032
 1921W        W 6121   1.627   9.422   9.131
 1922W        W 6122   7.197   4.215   3.261
 1923W        W 6123   2.264   1.467   9.466
 1924W        W 6124   7.325  11.338   3.061
 1925W        W 6125   3.241   5.259   9.613
 1926W        W 6126   2.501   7.685   9.860
 1927W        W 6127   1.409   8.317   2.766
 1928W        W 6128   2.023   5.612   9.976
 1929W        W 6129   2.374   2.328   1.214
 1930W        W 6130   2.187   6.661   9.914
 1931W        W 6131   0.754   9.963  10.527
 1932W        W 6132   4.697   7.954   2.373
 1933W        W 6133   2.094   6.164  10.019
 1934W        W 6134  10.736   5.881   9.423
 1935W        W 6135   0.360   8.431   3.445
 1936W        W 6136   1.439   2.314   1.378
 1937W        W 6137   3.089   5.044   3.375
 1938W        W 6138   0.707   8.540   2.745
 1939W        W 6139   1.394   4.870   1.435
 1940W        W 6140   9.069   8.472   8.966
 1941W        W 6141   3.175   4.021   3.248
 1942W        W 6142   5.611   8.060   3.959
 1943W        W 6143   9.983   4.650   8.983
 1944W        W 6144   8.158   9.754   9.566
 1945W        W 6145  10.760  11.381   9.415
 1946W        W 6146   0.322   6.579   1.626
 1947W        W 6147   7.385   2.185   9.870
 1948W        W 6148   9.525   9.155   8.463
 1949W        W 6149   8.114   5.236   9.969
 1950W        W 6150   3.978   9.511   2.818
 1951W        W 6151   0.366   6.558   0.964
 1952W        W 6152  10.927   8.970   3.218
 1953W        W 6153   0.421   2.765   8.886
 1954W        W 6154   3.305  11.437   0.401
 1955W        W 6155   0.778   5.890  11.278
 1956W        W 6156   6.452   8.456   0.417
 1957W        W 6157   6.471   1.745   2.542
 1958W        W 6158   6.609   2.722  11.094
 1959W        W 6159   2.826   8.425  10.409
 1960W        W 6160   6.058   5.522   2.187
 1961W        W 6161   0.928   2.206  10.538
 1962W        W 6162   4.622  10.366   2.764
 1963W        W 6163   4.665   9.348   0.697
 1964W        W 6164   8.912  10.400   9.784
 1965W        W 6165   2.016   2.157   2.460
 1966W        W 6166   8.671  10.751  10.780
 1967W        W 6167   1.262   0.491   1.367
 1968W        W 6168   5.723   0.913   3.278
 1969W        W 6169   8.388  10.317   2.121
 1970W        W 6170   4.388   1.337   0.368
 1971W        W 6171   0.398   1.273   2.974
 1972W        W 6172   1.226   5.809   8.503
 1973W        W 6173   4.177   3.686   0.737
 1974W        W 6174   7.458   5.073   8.915
 1975W        W 6175   4.757   4.418  11.910
 1976W        W 6176   2.678   3.515  10.883
 1977W        W 6177   3.176   9.552  11.294
 1978W        W 6178   5.623   8.490   1.257
 1979W        W 6179  10.589   0.031  11.755
 1980W        W 6180   9.011   4.425   3.124
 1981W        W 6181  11.119   4.594   9.063
 1982W        W 6182  11.107   0.535   0.905
 1983W        W 6183   1.513   0.633  10.953
 1984W        W 6184   2.767   5.390  10.265
 1985W        W 6185   3.117   5.111   1.141
 1986W        W 6186   8.241   5.243   1.876
 1987W        W 6187   9.825   0.932   3.469
 1988W        W 6188   1.873   7.979   9.104
 1989W        W 6189   2.212   4.335  11.987
 1990W        W 6190   2.816   2.261   0.904
 1991W        W 6191   4.366   9.523  10.076
 1992W        W 6192   8.533   9.875   2.383
 1993W        W 6193   0.077  10.441   1.003
 1994W        W 6194   5.157   7.662  11.078
 1995W        W 6195   1.867   1.373  10.874
 1996W        W 6196   4.128   3.151   1.404
 1997W        W 6197   7.268   9.273   0.164
 1998W        W 6198   6.745   1.391   9.586
 1999W        W 6199  10.199   1.799  11.737
 2000W        W 6200  10.500  10.923   9.558
 2001W        W 6201   1.868   1.363  10.349
 2002W        W 6202   4.747   6.706   0.396
 2003W        W 6203   0.246   6.976   0.702
 2004W        W 6204  11.283   4.567   2.380
 2005W        W 6205  10.056   8.115   2.151
 2006W        W 6206   3.348   5.127   2.359
 2007W        W 6207  10.094   8.742   1.505
 2008W        W 6208   5.636  10.955   2.953
 2009W        W 6209  11.011  11.402   2.791
 2010W        W 6210  10.911  10.308   1.321
 2011W        W 6211   5.022  10.964  11.283
 2012W        W 6212   8.161   8.951   1.302
 2013W        W 6213   8.695   8.148   9.134
 2014W        W 6214   6.051   8.222   1.219
 2015W        W 6215   8.851   3.778   0.923
 2016W        W 6216   2.288   3.805  11.003
 2017W        W 6217   9.796   2.562   1.812
 2018W        W 6218   1.169   4.772   3.047
 2019W        W 6219   4.250   4.588   0.914
 2020W        W 6220   7.112  10.957   0.207
 2021W        W 6221   9.015  11.321   9.981
 2022W        W 6222  11.337   2.356   9.938
 2023W        W 6223   7.240   4.112   1.544
 2024W        W 6224   1.218   6.949   9.998
 2025W        W 6225   3.219   8.937   2.836
 2026W        W 6226   2.442   0.170   0.994
 2027W        W 6227   3.756   5.735   1.950
 2028W        W 6228   9.992   3.628   9.069
 2029W        W 6229   6.089   0.857   1.929
 2030W        W 6230  10.016   3.692  10.027
 2031W        W 6231   8.446  10.041   0.795
 2032W        W 6232   4.800   2.076   0.166
 2033W        W 6233   6.678   8.651   9.420
 2034W        W 6234   1.716   8.847   0.290
 2035W        W 6235   4.388   5.901   2.500
 2036W        W 6236  10.859   1.191   9.076
 2037W        W 6237  11.030   7.386   0.318
 2038W        W 6238  11.114   5.546   9.534
 2039W        W 6239   9.079   7.938  11.237
 2040W        W 6240   5.796   4.870   9.569
 2041W        W 6241   5.748   3.840   9.386
 2042W        W 6242   0.264   5.534   0.552
 2043W        W 6243   9.602   8.856   9.890
 2044W        W 6244   1.812   6.256   0.511
 2045W        W 6245   3.864   7.525  10.117
 2046W        W 6246   7.184   1.706   9.948
 2047W        W 6247   0.155   5.131   0.065
 2048W        W 6248   3.487   0.777   9.547
 2049W        W 6249   3.636   3.283   1.345
 2050W        W 6250  10.451  10.585   8.738
 2051W        W 6251   6.915   4.915  10.725
 2052W        W 6252   9.112   8.585   1.352
 2053W        W 6253   9.611   3.245   8.952
 2054W        W 6254   1.437   5.231  10.946
 2055W        W 6255   4.660   3.680   2.953
 2056W        W 6256   0.593   5.995  11.747
 2057W        W 6257   2.336   4.311  11.029
 2058W        W 6258   1.837   4.640   2.295
 2059W        W 6259   6.489   8.860   8.950
 2060W        W 6260   8.187   3.307  10.942
 2061W        W 6261   9.213   5.546  11.747
 2062W        W 6262   8.306   4.402   1.467
 2063W        W 6263   3.267   4.672  11.340
 2064W        W 6264   9.543   5.044  10.503
 2065W        W 6265   8.504   0.581   0.770
 2066W        W 6266   8.331   8.011   0.458
 2067W        W 6267   5.450   3.273   2.119
 2068W        W 6268   8.156  10.455   0.940
 2069W        W 6269   6.861   0.755  10.748
 2070W        W 6270   8.309   3.765   3.512
 2071W        W 6271   7.575  10.237   2.168
 2072W        W 6272   9.126   5.206   0.969
 2073W        W 6273   8.826  10.043   3.494
 2074W        W 6274   0.101   8.028   8.640
 2075W        W 6275   3.738   7.654   8.835
 2076W        W 6276   9.878   5.148   8.737
 2077W        W 6277   3.502  11.368   3.538
 2078W        W 6278   8.002   3.121  11.381
 2079W        W 6279  10.104   0.422   1.828
 2080W        W 6280   1.044   4.109   1.029
 2081W        W 6281   7.762  11.163  10.524
 2082W        W 6282   9.981   3.724  10.569
 2083W        W 6283   6.618   3.190   8.661
 2084W        W 6284   7.611   8.102   2.759
 2085W        W 6285   4.478   1.372  10.326
 2086W        W 6286   8.351   2.390   0.877
 2087W        W 6287   3.250  10.561   3.000
 2088W        W 6288   4.048   8.642  11.496
 2089W        W 6289  11.203   6.968   1.323
 2090W        W 6290  10.860   2.106   2.706
 2091W        W 6291   5.810   6.591   3.097
 2092W        W 6292   6.203   9.449   4.048
 2093W        W 6293   6.303  10.509   2.969
 2094W        W 6294   2.272   9.553   2.927
 2095W        W 6295   8.912   4.069   8.506
 2096W        W 6296   3.264   8.945  11.971
 2097W        W 6297   4.767   4.785  10.319
 2098W        W 6298   0.282   6.242   3.332
 2099W        W 6299   1.629   2.957   3.533
 2100W        W 6300   9.576   8.039  11.778
 2101W        W 6301   2.248   9.583   2.126
 2102W        W 6302   8.621   8.034  10.967
 2103W        W 6303   2.714   8.185   9.974
 2104W        W 6304   2.901   9.469   1.212
 2105W        W 6305   6.131   1.673   1.522
 2106W        W 6306   6.572   1.906   3.453
 2107W        W 6307  10.360   2.688   2.633
 2108W        W 6308   3.147   3.412   1.250
 2109W        W 6309   7.991   2.595  11.285
 2110W        W 6310   5.988   6.214  11.078
 2111W        W 6311   2.759   3.315   2.994
 2112W        W 6312   0.470  10.483   9.656
 2113W        W 6313  11.354   9.535   1.171
 2114W        W 6314   6.330   7.113  11.509
 2115W        W 6315   0.328   2.620   0.225
 2116W        W 6316   9.425   6.057   1.009
 2117W        W 6317   2.611   8.513   0.016
 2118W        W 6318   4.659   8.093   0.997
 2119W        W 6319   6.840   3.485   0.012
 2120W        W 6320   1.985   5.596   8.741
 2121W        W 6321  10.952   0.332  11.416
 2122W        W 6322   9.094   7.585  10.648
 2123W        W 6323   5.308   0.851   0.409
 2124W        W 6324   7.340  10.504   0.275
 2125W        W 6325  10.700   1.836  11.824
 2126W        W 6326   5.669   6.714   0.069
 2127W        W 6327   9.823   4.131   8.892
 2128W        W 6328   7.685   6.436   9.699
 2129W        W 6329   9.389   2.945   0.384
 2130W        W 6330   7.943   7.217  10.059
 2131W        W 6331   1.782   8.084   2.507
 2132W        W 6332   5.578   3.533  10.899
 2133W        W 6333   9.806   1.710   1.047
 2134W        W 6334   1.371   6.231   0.227
 2135W        W 6335   5.285   8.665   9.470
 2136W        W 6336   3.408   0.503   8.801
 2137W        W 6337   3.380   9.498   1.399
 2138W        W 6338   8.019   2.629   2.853
 2139W        W 6339   2.336   1.579   1.946
 2140W        W 6340   9.867   9.386  11.508
 2141W        W 6341   4.995   3.787   8.311
 2142W        W 6342   0.269   1.335   0.391
 2143W        W 6343   2.567   4.240   9.267
 2144W        W 6344   3.682   5.259   9.854
 2145W        W 6345   5.938   5.805  10.770
 2146W        W 6346   5.619   6.225   2.278
 2147W        W 6347   2.173   0.783   2.348
 2148W        W 6348   8.926   6.716   2.213
 2149W        W 6349   3.705   5.579  11.380
 2150W        W 6350   5.763   1.654  10.667
 2151W        W 6351   0.790   7.924   0.230
 2152W        W 6352  11.296   1.925   2.478
 2153W        W 6353   6.983   5.058   1.018
 2154W        W 6354  11.190   2.424  11.529
 2155W        W 6355   7.041   8.011   2.822
 2156W        W 6356   9.481   6.425   1.373
 2157W        W 6357   1.206   3.655   9.950
 2158W        W 6358   7.706   5.624   2.065
 2159W        W 6359   3.401   9.065   1.064
 2160W        W 6360   2.931   3.881   1.138
 2161W        W 6361   9.491   9.962   0.870
 2162W        W 6362   5.250   8.739   3.086
 2163W        W 6363   8.805   8.229   0.537
 2164W        W 6364   6.946   9.387   2.004
 2165W        W 6365   5.648   1.516   0.739
 2166W        W 6366   7.446   8.058   9.547
 2167W        W 6367   2.004  10.656   3.647
 2168W        W 6368   8.364   1.222   2.879
 2169W        W 6369   9.233   5.548   9.335
 2170W        W 6370  10.479   9.332   0.693
 2171W        W 6371   8.596   5.942   3.600
 2172W        W 6372   2.259   6.324  10.864
 2173W        W 6373   7.965   4.769   3.044
 2174W        W 6374   5.325   2.413   0.339
 2175W        W 6375   9.551   6.499   3.077
 2176W        W 6376  11.280   3.979   0.227
 2177W        W 6377  10.807   3.643   1.496
 2178W        W 6378   6.560   7.367  10.535
 2179W        W 6379   9.586  10.765  11.065
 2180W        W 6380   5.660   0.481   8.985
 2181W        W 6381   1.868   5.869  10.383
 2182W        W 6382   6.935   9.725   9.995
 2183W        W 6383   3.703   1.933   1.158
 2184W        W 6384   6.405   4.262  11.370
 2185W        W 6385   2.458  10.713   2.237
 2186W        W 6386   1.901   8.964   9.055
 2187W        W 6387   5.351   4.158   1.445
 2188W        W 6388   6.140   5.464   3.171
 2189W        W 6389  10.830  10.037  10.461
 2190W        W 6390   4.541   0.854   9.484
 2191W        W 6391   5.760   2.381   3.142
 2192W        W 6392   1.684   6.686  10.070
 2193W        W 6393   4.640   5.701   9.963
 2194W        W 6394   3.086   8.015   2.715
 2195W        W 6395   1.388  10.199   1.735
 2196W        W 6396   0.833   3.162   1.934
 2197W        W 6397   7.831   8.587   2.810
 2198W        W 6398   8.984   3.131  11.619
 2199W        W 6399  10.488   4.186   0.407
 2200W        W 6400   9.075   7.951  11.758
 2201W        W 6401  10.024   1.575   2.919
 2202W        W 6402   0.687   8.835   9.547
 2203W        W 6403   9.306   9.938   1.336
 2204W        W 6404   6.249   2.371   9.160
 2205W        W 6405   8.856   5.545   0.624
 2206W        W 6406  10.533   1.509   8.803
 2207W        W 6407   3.721  10.040   3.534
 2208W        W 6408   3.737   8.579   1.740
 2209W        W 6409   8.710   0.995  10.307
 2210W        W 6410   5.209   7.672   2.129
 2211W        W 6411   7.185  10.050  10.488
 2212W        W 6412  10.326   6.194   9.468
 2213W        W 6413   2.830   1.500   9.930
 2214W        W 6414  10.358   6.043   1.690
 2215W        W 6415  10.064   2.470   3.314
 2216W        W 6416   5.590   2.197  10.384
 2217W        W 6417   0.848   2.683  10.187
 2218W        W 6418   5.672   8.961   1.471
 2219W        W 6419   9.092   6.270   0.372
 2220W        W 6420  11.016   8.351  11.923
 2221W        W 6421  10.866   1.613  10.046
 2222W        W 6422  10.988   8.056   8.828
 2223W        W 6423   3.650   1.664  11.714
 2224W        W 6424   9.980  10.375  11.093
 2225W        W 6425  10.861   4.762   1.139
 2226W        W 6426   9.974   0.873   2.044
 2227W        W 6427   7.458   4.815   3.286
 2228W        W 6428   1.604   7.562   1.201
 2229W        W 6429   7.162   2.854   9.340
 2230W        W 6430  10.514  11.311   1.369
 2231W        W 6431   1.270   9.088   0.194
 2232W        W 6432   1.300   2.925  10.783
 2233W        W 6433   5.651   9.678  11.943
 2234W        W 6434   2.399  10.008   1.815
 2235W        W 6435   5.641  11.028  11.854
 2236W        W 6436   8.884   1.960  10.858
 2237W        W 6437   3.837   6.239   9.983
 2238W        W 6438   7.460   1.517   3.310
 2239W        W 6439   7.261   1.412   1.792
 2240W        W 6440  10.062   3.221   8.708
 2241W        W 6441   3.229   8.134  11.109
 2242W        W 6442   6.581   0.779   1.800
 2243W        W 6443   7.619   1.379   0.329
 2244W        W 6444   6.398   3.196   0.482
 2245W        W 6445   6.134   5.552   1.241
 2246W        W 6446   3.334   0.718  10.973
 2247W        W 6447   4.159   2.416   1.881
 2248W        W 6448   9.856   3.096   0.925
 2249W        W 6449   4.097   9.957   3.214
 2250W        W 6450   3.443   6.076  11.440
 2251W        W 6451   4.951   4.108   4.065
 2252W        W 6452   0.601   6.509   0.456
 2253W        W 6453   9.928   7.586   8.651
 2254W        W 6454   4.780   8.945   2.530
 2255W        W 6455   8.151   9.165  10.787
 2256W        W 6456   3.708   2.388   9.472
 2257W        W 6457   3.955   3.852   9.288
 2258W        W 6458   5.278   2.143   2.305
 2259W        W 6459   9.965   4.766   9.655
 2260W        W 6460   9.389  11.498   9.004
 2261W        W 6461   4.771  10.760   8.892
 2262W        W 6462   3.717   1.251  10.262
 2263W        W 6463   5.943   3.674   9.828
 2264W        W 6464   9.711   4.185   3.572
 2265W        W 6465   0.406   8.149  10.926
 2266W        W 6466   0.153   4.174  10.763
 2267W        W 6467   0.119   8.810   1.401
 2268W        W 6468   3.798   8.087   1.260
 2269W        W 6469   8.179  11.256   0.341
 2270W        W 6470   5.724  11.342   9.475
 2271W        W 6471   2.707  10.026   3.262
 2272W        W 6472  10.313   5.490  11.484
 2273W        W 6473   6.036   1.033   3.700
 2274W        W 6474   1.515   0.545  10.438
 2275W        W 6475   8.112  10.153   8.648
 2276W        W 6476   1.881   6.027   3.341
 2277W        W 6477   5.625   7.945   0.454
 2278W        W 6478   0.649   6.988  11.254
 2279W        W 6479   5.840   5.308   2.684
 2280W        W 6480   6.661   4.146  10.930
 2281W        W 6481   2.176   2.799  10.915
 2282W        W 6482   9.289  10.870   0.803
 2283W        W 6483   8.984   7.051   1.823
 2284W        W 6484   6.481   0.646  11.257
 2285W        W 6485   5.198   0.926  10.916
 2286W        W 6486   3.202   0.828   2.132
 2287W        W 6487   8.087   5.952  11.049
 2288W        W 6488   3.645   2.615   9.929
 2289W        W 6489   5.511   0.427   2.293
 2290W        W 6490   6.068   1.912  11.499
 2291W        W 6491   0.990   1.745   1.056
 2292W        W 6492  10.726   6.280  11.281
 2293W        W 6493   0.772   7.516   9.498
 2294W        W 6494   0.212   8.498   2.963
 2295W        W 6495   3.849   9.428   1.193
 2296W        W 6496   2.267   2.329  10.023
 2297W        W 6497   4.884   4.309   1.694
 2298W        W 6498   6.019   4.574   0.364
 2299W        W 6499  10.217   6.997   0.269
 2300W        W 6500   3.145   4.239   9.626
 2301W        W 6501   0.826   7.643   0.720
 2302W        W 6502   1.098   7.514   0.216
 2303W        W 6503   0.206   4.789   2.564
 2304W        W 6504   6.977   6.592  10.412
 2305W        W 6505   8.405   1.907   1.020
 2306W        W 6506   2.336   0.223   3.047
 2307W        W 6507   9.786   5.766   0.260
 2308W        W 6508   9.988  11.436   0.634
 2309W        W 6509   5.090   0.217  11.732
 2310W        W 6510   1.464   2.998  10.292
 2311W        W 6511   7.627  11.242   3.435
 2312W        W 6512   3.135   9.973   1.366
 2313W        W 6513  10.447  11.053   2.911
 2314W        W 6514   4.014   5.039   1.026
 2315W        W 6515   9.437  11.036   2.323
 2316W        W 6516   2.799   6.763  11.368
 2317W        W 6517   4.398   0.721   1.374
 2318W        W 6518   9.997   5.695  10.850
 2319W        W 6519   0.791   6.572   2.282
 2320W        W 6520   5.653   8.513   2.307
 2321W        W 6521   4.105   9.388  11.837
 2322W        W 6522   2.850   1.831  10.821
 2323W        W 6523   1.916   2.590   1.338
 2324W        W 6524   2.847   2.611   1.294
 2325W        W 6525   2.813   2.843  10.304
 2326W        W 6526  11.375   5.659   9.092
 2327W        W 6527  10.331  10.977   0.946
 2328W        W 6528   1.818   4.628   9.397
 2329W        W 6529  10.854   1.375   0.514
 2330W        W 6530   4.433   7.112   3.117
 2331W        W 6531   4.180   0.298   9.266
 2332W        W 6532   9.042   4.927   3.265
 2333W        W 6533  10.514   8.952   2.358
 2334W        W 6534   8.498   0.742   2.668
 2335W        W 6535   8.187   5.645   2.210
 2336W        W 6536  10.686   0.809   2.989
 2337W        W 6537  10.387   6.129   1.160
 2338W        W 6538   0.986   7.935  10.431
 2339W        W 6539   8.607   6.484  11.170
 2340W        W 6540   0.553   1.014  10.888
 2341W        W 6541   6.015   2.366   9.600
 2342W        W 6542   6.472   8.596  11.498
 2343W        W 6543   3.157  10.729   2.441
 2344W        W 6544  10.840   6.540  10.221
 2345W        W 6545   6.086   7.838   2.757
 2346W        W 6546   0.874   4.071  10.078
 2347W        W 6547   9.415   5.261   8.549
 2348W        W 6548   7.715  11.274   1.240
 2349W        W 6549   6.353  10.743   0.326
 2350W        W 6550   7.867   5.053   3.504
 2351W        W 6551   2.945   7.269  11.294
 2352W        W 6552   9.139   1.804   9.882
 2353W        W 6553   3.653  10.416  10.854
 2354W        W 6554   0.489  10.315   2.795
 2355W        W 6555   0.076   3.715  10.372
 2356W        W 6556   4.681  10.898  10.338
 2357W        W 6557   1.815   1.808  10.597
 2358W        W 6558   1.966   1.837   0.904
 2359W        W 6559   9.237   7.013   0.100
 2360W        W 6560   3.226   9.103  10.041
 2361W        W 6561   5.188   8.851   1.635
 2362W        W 6562   3.156  10.328   9.532
 2363W        W 6563   1.198   6.311   1.239
 2364W        W 6564  11.211   3.430   3.472
 2365W        W 6565   3.386   3.889   0.374
 2366W        W 6566  11.499   2.445   9.018
 2367W        W 6567   0.225   9.773  10.399
 2368W        W 6568   2.134   1.340   8.980
 2369W        W 6569   7.775  10.510   8.812
 2370W        W 6570   7.856   4.038   0.632
 2371W        W 6571  11.190   6.167  10.057
 2372W        W 6572   5.220   1.246   2.195
 2373W        W 6573   9.727   7.608   0.047
 2374W        W 6574   2.688   5.503   0.267
 2375W        W 6575   7.336   3.262   2.877
 2376W        W 6576   5.208   9.074   2.264
 2377W        W 6577   2.866   5.367   4.081
 2378W        W 6578   7.143   8.609   3.951
 2379W        W 6579   3.868   4.197   1.676
 2380W        W 6580  10.324   8.542   2.134
 2381W        W 6581   0.360   9.280   0.308
 2382W        W 6582  11.416   2.215   1.366
 2383W        W 6583   7.598   4.330   0.276
 2384W        W 6584   2.281   1.326   1.504
 2385W        W 6585   3.651   6.733   1.162
 2386W        W 6586   1.140  10.981   8.539
 2387W        W 6587   9.466   2.966   9.391
 2388W        W 6588   1.419  10.423   0.015
 2389W        W 6589   4.276   3.628   2.406
 2390W        W 6590   0.463   5.039  10.590
 2391W        W 6591   3.226   7.384  10.383
 2392W        W 6592   4.113   5.589   9.752
 2393W        W 6593  10.399   5.902   9.868
 2394W        W 6594   2.609   5.066   1.262
 2395W        W 6595   0.844   6.642   9.008
 2396W        W 6596   4.432   3.657  11.429
 2397W        W 6597   2.366   6.616   2.741
 2398W        W 6598   1.634   7.465   0.279
 2399W        W 6599   2.346   9.389   0.254
 2400W        W 6600   0.873   3.524   2.331
 2401W        W 6601   8.170   6.074   2.496
 2402W        W 6602   7.643  10.090   2.682
 2403W        W 6603   6.425   5.165   2.253
 2404W        W 6604   7.151   4.860   1.958
 2405W        W 6605   1.564   7.012   2.735
 2406W        W 6606   4.190   1.794   2.688
 2407W        W 6607   3.657  10.783  11.241
 2408W        W 6608   1.571   2.273   2.245
 2409W        W 6609   6.456   0.668  10.189
 2410W        W 6610   4.654   9.897   1.342
 2411W        W 6611   5.443   9.218   8.536
 2412W        W 6612   0.876   6.663   9.522
 2413W        W 6613   9.523  10.163   3.362
 2414W        W 6614   1.350   4.374  11.732
 2415W        W 6615   1.057   5.905  11.966
 2416W        W 6616   0.551   1.423   2.491
 2417W        W 6617   8.505   9.606   9.206
 2418W        W 6618   7.180   4.534   2.357
 2419W        W 6619   0.967   1.182  10.001
 2420W        W 6620   5.134   2.914   1.220
 2421W        W 6621   0.406   7.895   1.125
 2422W        W 6622   9.470   9.656  10.346
 2423W        W 6623   9.081  11.347   2.715
 2424W        W 6624  10.638   8.091   1.979
 2425W        W 6625   9.435   7.647   2.287
 2426W        W 6626   9.564   8.366   8.992
 2427W        W 6627  10.814  10.161   2.700
 2428W        W 6628   3.359   0.497   1.014
 2429W        W 6629   7.224   8.065  11.445
 2430W        W 6630   7.558   2.745   3.584
 2431W        W 6631   8.384  10.684  10.357
 2432W        W 6632   9.533   2.429   1.363
 2433W        W 6633   5.427  10.589   3.399
 2434W        W 6634  11.384   2.865   9.845
 2435W        W 6635   5.207   2.876   1.805
 2436W        W 6636   7.074   9.015   3.207
 2437W        W 6637  11.411   3.309  11.086
 2438W        W 6638   4.636   2.730   2.498
 2439W        W 6639   6.440   0.853   9.385
 2440W        W 6640   0.785  10.223   1.316
 2441W        W 6641   8.626   4.888   8.585
 2442W        W 6642   2.344   1.189   3.280
 2443W        W 6643  10.271   3.386   0.976
 2444W        W 6644   2.621   8.871   0.402
 2445W        W 6645   5.508   8.955  10.334
 2446W        W 6646   6.571   4.266   1.286
 2447W        W 6647  10.896   6.256   3.027
 2448W        W 6648   8.425   3.786  11.932
 2449W        W 6649   8.912   0.397   0.227
 2450W        W 6650   4.609   3.018   1.194
 2451W        W 6651   9.297   2.211   0.935
 2452W        W 6652   1.961   9.519   1.734
 2453W        W 6653   1.032   9.068   9.220
 2454W        W 6654   4.796   8.066  10.171
 2455W        W 6655   2.371   5.028  11.400
 2456W        W 6656   0.995   2.760   1.635
 2457W        W 6657   4.317   6.071   9.797
 2458W        W 6658   0.549   2.674   1.933
 2459W        W 6659   9.493   3.991   2.652
 2460W        W 6660   3.873   3.790  11.419
 2461W        W 6661   2.229   7.957   2.292
 2462W        W 6662   0.282   4.909  11.177
 2463W        W 6663   8.405   6.971  11.504
 2464W        W 6664   3.430   3.914   9.324
 2465W        W 6665   0.970   3.714  11.735
 2466W        W 6666   8.137   8.181  11.036
 2467W        W 6667   6.525   9.929  11.341
 2468W        W 6668   1.089   1.837   2.734
 2469W        W 6669  10.137  10.939   9.919
 2470W        W 6670   2.709   4.139   8.797
 2471W        W 6671   0.633   8.092   8.638
 2472W        W 6672   4.963   3.349   1.422
 2473W        W 6673   9.793   3.649   8.567
 2474W        W 6674   5.993   8.487  11.351
 2475W        W 6675   5.195   9.319  10.509
 2476W        W 6676  11.081   5.944  10.498
 2477W        W 6677  10.877  10.247  11.375
 2478W        W 6678   4.353   4.314   1.740
 2479W        W 6679   1.325   1.424   1.290
 2480W        W 6680   6.491   3.443   2.721
 2481W        W 6681   7.454  10.088   1.680
 2482W        W 6682   9.986   7.453   9.156
 2483W        W 6683   4.140   3.420   1.926
 2484W        W 6684   6.898   2.044   0.165
 2485W        W 6685   6.260   2.692   0.260
 2486W        W 6686  11.362   6.091  10.888
 2487W        W 6687   2.606   3.879  11.441
 2488W        W 6688   1.717   1.271   9.286
 2489W        W 6689   8.908   2.821   1.293
 2490W        W 6690   6.593   1.817   1.358
 2491W        W 6691   2.907   6.604   2.690
 2492W        W 6692   8.447   4.529  11.572
 2493W        W 6693   0.298   4.593   0.337
 2494W        W 6694   1.853  11.197   9.075
 2495W        W 6695   0.487   4.324  11.959
 2496W        W 6696  10.704   2.256  11.512
 2497W        W 6697   8.346   7.261  11.947
 2498W        W 6698   2.722   1.752   9.486
 2499W        W 6699   6.244   3.030  10.332
 2500W        W 6700   9.984   8.116   3.232
 2501W        W 6701   2.838   2.251  11.104
 2502W        W 6702   9.203  11.423   9.508
 2503W        W 6703   2.691   3.786   3.236
 2504W        W 6704   6.658   8.646   2.122
 2505W        W 6705   1.894   1.624   1.379
 2506W        W 6706   7.129  11.150  10.913
 2507W        W 6707   4.199   3.045  11.976
 2508W        W 6708   1.648  10.736   1.413
 2509W        W 6709   4.786   8.851  10.994
 2510W        W 6710   3.210   5.116  11.576
 2511W        W 6711   5.674  10.481   0.714
 2512W        W 6712   6.483   3.846  11.892
 2513W        W 6713   3.543   4.983   3.632
 2514W        W 6714   2.271  10.800   2.704
 2515W        W 6715   4.753   2.413  11.765
 2516W        W 6716   3.101   8.415   0.350
 2517W        W 6717   0.767   6.599   1.311
 2518W        W 6718  10.028  11.317   1.193
 2519W        W 6719   7.590   2.857  10.517
 2520W        W 6720   7.961  10.273   1.838
 2521W        W 6721   5.440   1.409   1.198
 2522W        W 6722   1.009   6.884   2.624
 2523W        W 6723   3.142   2.740  10.943
 2524W        W 6724   3.075   4.248  10.597
 2525W        W 6725   5.570   1.873   3.641
 2526W        W 6726  10.019   6.646   2.708
 2527W        W 6727   6.649   9.931   1.303
 2528W        W 6728   8.220   7.642  10.229
 2529W        W 6729   4.307  10.146  11.319
 2530W        W 6730   3.544   0.944   1.195
 2531W        W 6731  10.781   1.416   1.935
 2532W        W 6732   3.285   5.751   9.530
 2533W        W 6733   0.975   3.672   0.265
 2534W        W 6734   2.945   1.770   1.027
 2535W        W 6735  10.036   2.824  10.591
 2536W        W 6736   7.088   9.008   2.707
 2537W        W 6737   8.489   6.248  11.929
 2538W        W 6738   2.438   0.237   0.478
 2539W        W 6739  11.258   3.608   1.783
 2540W        W 6740  10.272   9.412   9.793
 2541W        W 6741   7.483   6.690  11.816
 2542W        W 6742   5.470   7.215   8.521
 2543W        W 6743   3.618   4.454  10.708
 2544W        W 6744   0.912   3.264   1.443
 2545W        W 6745   6.283   3.285   3.738
 2546W        W 6746   1.415   1.395  10.130
 2547W        W 6747  10.207   7.093  11.263
 2548W        W 6748   6.703   9.160   9.324
 2549W        W 6749   3.135  10.476  10.847
 2550W        W 6750   2.632   1.884   3.252
 2551W        W 6751   3.688   2.624  10.773
 2552W        W 6752   9.489   4.613   9.982
 2553W        W 6753   8.125   0.875   1.474
 2554W        W 6754   2.392   6.570  10.377
 2555W        W 6755   5.839   6.099   9.137
 2556W        W 6756   0.905   6.012   1.527
 2557W        W 6757   6.977   5.241  11.552
 2558W        W 6758  10.012   2.244   9.911
 2559W        W 6759   3.356   6.980   2.386
 2560W        W 6760   4.616   0.250   1.413
 2561W        W 6761  11.006   0.530   1.992
 2562W        W 6762  10.477   9.962   1.926
 2563W        W 6763   6.469   5.214  11.445
 2564W        W 6764   5.932  11.456  11.762
 2565W        W 6765   9.505   0.157  10.762
 2566W        W 6766   1.274   8.402   1.901
 2567W        W 6767   6.434   4.906   9.699
 2568W        W 6768   5.038   9.039   0.257
 2569W        W 6769  11.219   3.991   1.428
 2570W        W 6770  10.045   6.289   3.091
 2571W        W 6771   1.111   7.113  11.397
 2572W        W 6772   8.667  10.037   0.256
 2573W        W 6773   7.539   2.979   1.188
 2574W        W 6774   2.623   4.616   9.623
 2575W        W 6775   8.302  10.997   9.653
 2576W        W 6776   0.299   6.769   8.639
 2577W        W 6777   7.508   1.204  10.927
 2578W        W 6778   5.329  10.593  11.617
 2579W        W 6779  10.942   0.966   1.730
 2580W        W 6780  10.555   3.508  11.236
 2581W        W 6781   6.900   3.714   0.783
 2582W        W 6782   8.142   2.979   8.709
 2583W        W 6783   1.911   8.815   1.256
 2584W        W 6784   1.722   0.680   1.241
 2585W        W 6785   2.537   9.405   2.510
 2586W        W 6786  10.873   2.727   8.964
 2587W        W 6787   1.222   5.731  11.485
 2588W        W 6788   4.989   5.298   0.998
 2589W        W 6789  10.779   6.236   9.779
 2590W        W 6790  10.747   5.135  10.846
 2591W        W 6791   0.611   9.475  11.474
 2592W        W 6792   7.658   6.129   2.393
 2593W        W 6793   1.408   7.118   1.455
 2594W        W 6794   5.632   2.206  11.426
 2595W        W 6795   5.772  11.141   9.939
 2596W        W 6796   0.329   0.991   2.346
 2597W        W 6797   6.062   5.704  11.246
 2598W        W 6798   0.763   1.498   3.329
 2599W        W 6799   6.721   1.743   2.990
 2600W        W 6800   8.660   6.106   2.742
 2601W        W 6801   4.070   5.141   9.527
 2602W        W 6802  11.497   2.396  11.047
 2603W        W 6803  11.437   4.586  10.973
 2604W        W 6804   1.389   3.247   1.225
 2605W        W 6805   9.430  10.623   9.550
 2606W        W 6806   1.926   4.415   0.931
 2607W        W 6807   8.497   0.287   3.312
 2608W        W 6808   4.934   7.652   9.349
 2609W        W 6809   5.279   2.793   9.821
 2610W        W 6810   8.566   2.339  11.748
 2611W        W 6811   5.763   8.578   8.595
 2612W        W 6812   6.952   2.631   2.142
 2613W        W 6813   4.762   9.402   2.773
 2614W        W 6814   8.945   6.370   3.707
 2615W        W 6815   2.721   9.063  11.885
 2616W        W 6816  10.526   7.468   0.393
 2617W        W 6817   3.068   6.506   9.927
 2618W        W 6818  10.769   4.764   3.094
 2619W        W 6819   0.362  10.137  11.782
 2620W        W 6820   7.542   4.197   8.746
 2621W        W 6821   1.384   3.642   1.549
 2622W        W 6822  10.950   4.400   0.204
 2623W        W 6823   1.184  10.531   1.390
 2624W        W 6824   6.572   6.145   9.672
 2625W        W 6825   3.619   1.197   8.722
 2626W        W 6826   3.328   1.009  11.851
 2627W        W 6827  10.421   6.676   0.995
 2628W        W 6828   2.104   3.223   0.407
 2629W        W 6829   9.002   4.778   2.756
 2630W        W 6830   2.476   9.431   9.660
 2631W        W 6831   1.712   8.361   0.088
 2632W        W 6832   1.206   7.366   9.695
 2633W        W 6833   0.310   5.759   3.164
 2634W        W 6834  10.928   4.835   2.120
 2635W        W 6835   3.510  10.705   0.698
 2636W        W 6836   6.648   6.231   8.752
 2637W        W 6837   1.506   2.229  11.941
 2638W        W 6838   3.860   2.332   1.443
 2639W        W 6839   8.429   5.569  11.309
 2640W        W 6840   7.904   3.607  11.824
 2641W        W 6841   7.987  11.492  10.197
 2642W        W 6842   0.252   0.920   3.368
 2643W        W 6843   6.721   3.089   0.918
 2644W        W 6844   9.857  10.366   3.018
 2645W        W 6845  11.015   0.341   9.475
 2646W        W 6846   2.086   6.904   3.648
 2647W        W 6847   6.455   9.078   0.897
 2648W        W 6848   5.611   5.592  11.480
 2649W        W 6849   8.146   1.771   1.475
 2650W        W 6850   4.710   4.598   9.427
 2651W        W 6851   7.599   9.400  11.774
 2652W        W 6852   8.751   6.842   3.587
 2653W        W 6853   5.691   0.456   0.900
 2654W        W 6854  10.484   5.073   2.783
 2655W        W 6855   0.514   2.116   0.170
 2656W        W 6856   1.442   6.146  10.532
 2657W        W 6857   0.387   0.813   1.875
 2658W        W 6858   5.462   2.897   0.454
 2659W        W 6859   6.179   1.344   0.229
 2660W        W 6860   7.100   3.537  10.416
 2661W        W 6861   6.059   6.107   3.165
 2662W        W 6862   5.016   2.794   0.228
 2663W        W 6863  10.875   0.457  11.920
 2664W        W 6864  10.381   5.183   0.153
 2665W        W 6865   6.362   6.042   0.359
 2666W        W 6866  11.101   3.951  10.387
 2667W        W 6867   5.601   8.050   2.628
 2668W        W 6868   5.941   8.072   2.254
 2669W        W 6869   4.058   5.986  11.992
 2670W        W 6870   1.821   6.905  11.967
 2671W        W 6871  11.159   6.373   0.363
 2672W        W 6872   6.801   2.196   1.894
 2673W        W 6873   1.062   0.797  11.869
 2674W        W 6874   8.201   7.174  10.507
 2675W        W 6875   1.735   2.240  10.868
 2676W        W 6876   6.221   9.950   2.250
 2677W        W 6877   9.092   0.873   9.989
 2678W        W 6878   6.889   9.103  10.317
 2679W        W 6879   6.786   0.772   2.269
 2680W        W 6880   9.975   4.213  11.411
 2681W        W 6881   9.939   6.696   1.739
 2682W        W 6882   8.538  10.893  11.254
 2683W        W 6883   7.212   4.668   4.140
 2684W        W 6884  10.914   2.138  10.155
 2685W        W 6885   9.294   4.134  10.140
 2686W        W 6886   3.818   6.622   1.649
 2687W        W 6887   5.616   1.797  11.734
 2688W        W 6888   4.344   6.970   9.728
 2689W        W 6889   2.976  11.397   1.719
 2690W        W 6890   8.472   8.900  10.427
 2691W        W 6891   3.885  11.074  11.659
 2692W        W 6892   6.525   7.867  11.861
 2693W        W 6893   4.194   2.205  11.469
 2694W        W 6894   8.065   3.801  10.908
 2695W        W 6895   5.710   2.908   1.863
 2696W        W 6896   6.433   7.798   1.084
 2697W        W 6897   8.703   5.134  11.124
 2698W        W 6898   0.722   5.559   2.511
 2699W        W 6899   3.655   0.521  11.351
 2700W        W 6900   4.940  11.041  10.766
 2701W        W 6901   2.878   8.981   0.964
 2702W        W 6902   8.047   2.705  10.290
 2703W        W 6903   7.119   0.770   0.933
 2704W        W 6904   4.743   7.150   2.694
 2705W        W 6905   6.712   3.691   2.234
 2706W        W 6906  10.084   1.498  10.775
 2707W        W 6907   4.555   9.877   3.412
 2708W        W 6908   8.876   5.626   2.645
 2709W        W 6909   8.226   4.225   3.248
 2710W        W 6910   1.762   6.537  11.020
 2711W        W 6911   0.784   1.849   2.339
 2712W        W 6912   1.309   7.526  10.531
 2713W        W 6913   8.816   7.091  11.804
 2714W        W 6914   0.017   3.755   2.233
 2715W        W 6915   4.710   6.654   1.420
 2716W        W 6916   7.497   4.081   2.881
 2717W        W 6917   7.792  10.691  11.095
 2718W        W 6918   7.933   7.690   1.265
 2719W        W 6919   0.785   6.442  10.516
 2720W        W 6920   7.533   4.655   9.941
 2721W        W 6921   6.577   0.891   3.245
 2722W        W 6922   6.090   5.603   0.275
 2723W        W 6923   9.069   6.698   3.187
 2724W        W 6924   5.473   8.900   0.987
 2725W        W 6925   5.527  10.906  11.260
 2726W        W 6926   6.543  10.935   1.409
 2727W        W 6927   9.047   9.952   9.611
 2728W        W 6928   2.877   6.054   3.311
 2729W        W 6929   3.215   5.546  10.060
 2730W        W 6930   8.435   5.962   9.605
 2731W        W 6931   2.174   5.611   3.499
 2732W        W 6932   5.059   3.780   1.172
 2733W        W 6933   5.560   9.316   9.355
 2734W        W 6934   7.567  10.008   0.397
 2735W        W 6935  10.627   4.523   8.886
 2736W        W 6936   2.614   9.075   1.877
 2737W        W 6937   2.797   7.682  11.686
 2738W        W 6938  11.249  11.473  10.292
 2739W        W 6939   7.580  10.571   1.706
 2740W        W 6940   0.457   9.160   2.249
 2741W        W 6941   4.770  10.205  11.007
 2742W        W 6942   1.881   0.077  11.497
 2743W        W 6943   9.022   6.715  10.960
 2744W        W 6944   3.804   2.722   0.119
 2745W        W 6945   7.872   9.786   1.730
 2746W        W 6946  10.251   5.021  11.662
 2747W        W 6947  10.977   2.966   3.196
 2748W        W 6948   7.106   8.716  10.029
 2749W        W 6949  10.340   7.687   2.086
 2750W        W 6950   6.956   1.267  10.039
 2751W        W 6951   9.133   0.376   2.189
 2752W        W 6952   4.736  11.412   3.333
 2753W        W 6953   8.884   3.544  10.350
 2754W        W 6954  11.500   8.029   1.381
 2755W        W 6955   7.446   7.255   3.129
 2756W        W 6956   5.243  10.793   0.642
 2757W        W 6957  10.679   7.135  11.424
 2758W        W 6958   1.712   9.859   0.522
 2759W        W 6959   2.212   1.866  10.278
 2760W        W 6960   8.459   7.659   1.849
 2761W        W 6961   8.414   4.178  10.764
 2762W        W 6962   2.122   9.849   1.388
 2763W        W 6963   5.063   7.782   0.406
 2764W        W 6964   3.167  11.417  10.621
 2765W        W 6965   5.285   6.925   9.952
 2766W        W 6966   8.655   5.853   1.381
 2767W        W 6967   1.818   8.611  11.333
 2768W        W 6968   1.875   9.389   1.235
 2769W        W 6969   7.542   9.182   9.442
 2770W        W 6970   2.363   6.961   3.166
 2771W        W 6971   1.926   8.997   3.303
 2772W        W 6972   0.882   9.035   2.510
 2773W        W 6973   2.623  11.367  10.881
 2774W        W 6974   6.213  10.437  11.356
 2775W        W 6975   1.239  11.488   1.331
 2776W        W 6976   8.006   7.602   8.842
 2777W        W 6977   6.534   6.699  11.719
 2778W        W 6978   4.215   3.878   8.819
 2779W        W 6979   2.685  10.145  11.991
 2780W        W 6980   6.822   6.551   2.491
 2781W        W 6981   1.111   7.102   1.874
 2782W        W 6982   0.729   8.341   9.372
 2783W        W 6983   7.508   2.553   0.707
 2784W        W 6984   3.530  10.014   9.693
 2785W        W 6985   9.747   1.485   3.344
 2786W        W 6986   9.045   6.167   1.363
 2787W        W 6987   7.650   4.274   2.428
 2788W        W 6988   5.625   5.681   0.489
 2789W        W 6989   2.662   5.081   8.883
 2790W        W 6990  10.108  11.269   2.590
 2791W        W 6991   4.769   0.664   9.915
 2792W        W 6992   1.298   4.401  10.212
 2793W        W 6993   1.332   1.803   9.814
 2794W        W 6994   3.932   8.084   3.031
 2795W        W 6995   3.965   6.452   2.675
 2796W        W 6996  11.289   8.576   9.503
 2797W        W 6997   2.178   7.730   1.846
 2798W        W 6998   5.670   4.294  10.247
 2799W        W 6999   5.246  10.716   8.696
 2800W        W 7000  11.276   2.844  11.232
 2801W        W 7001  10.928   8.479   9.140
 2802W        W 7002   2.497   5.534   8.702
 2803W        W 7003   0.185   9.134  10.851
 2804W        W 7004   8.938   5.663   8.918
 2805W        W 7005   2.714   9.511   3.176
 2806W        W 7006   5.789   8.877  10.998
 2807W        W 7007   0.389   8.939   0.817
 2808W        W 7008   8.547   9.790  10.306
 2809W        W 7009   4.542   3.974  11.805
 2810W        W 7010   6.832   2.272  11.114
 2811W        W 7011   0.330   4.028   9.890
 2812W        W 7012   4.199   0.421   0.035
 2813W        W 7013   4.903   2.804  11.417
 2814W        W 7014   1.775   0.937  10.650
 2815W        W 7015   6.024   5.100   9.983
 2816W        W 7016   9.561   9.874   2.417
 2817W        W 7017  11.470   0.373   1.660
 2818W        W 7018   8.901   1.760   2.196
 2819W        W 7019  11.062   0.049   1.713
 2820W        W 7020   2.860   8.521  11.080
 2821W        W 7021   6.549   3.640  10.859
 2822W        W 7022  10.327   9.168  11.334
 2823W        W 7023   3.875   1.368   3.445
 2824W        W 7024   5.205   4.128  11.905
 2825W        W 7025   1.884   1.964   3.028
 2826W        W 7026   3.282   8.602  11.350
 2827W        W 7027   6.664   6.638   3.649
 2828W        W 7028   2.716  11.498   2.379
 2829W        W 7029   1.110   5.420   0.761
 2830W        W 7030   9.975   1.204  10.322
 2831W        W 7031   2.872   5.899  10.356
 2832W        W 7032   4.857   9.522   0.225
 2833W        W 7033   6.233   5.844   9.405
 2834W        W 7034   5.530   1.922   9.543
 2835W        W 7035   0.454   0.957   1.365
 2836W        W 7036   9.073   5.060   4.283
 2837W        W 7037   6.748   2.582   4.031
 2838W        W 7038   3.301   0.518   2.826
 2839W        W 7039   0.234   2.169   2.808
 2840W        W 7040   6.447  11.175   0.968
 2841W        W 7041   4.513   8.590   0.221
 2842W        W 7042   8.128  10.042   9.143
 2843W        W 7043   0.830  11.156   3.661
 2844W        W 7044  10.027  10.338  11.833
 2845W        W 7045   2.661   8.137   2.944
 2846W        W 7046   9.944   6.238   1.470
 2847W        W 7047   3.368   9.231   2.382
 2848W        W 7048   8.337   0.782   8.985
 2849W        W 7049   0.033   0.675   1.189
 2850W        W 7050   5.228  10.141  10.777
 2851W        W 7051   8.905   9.516   0.403
 2852W        W 7052   9.333   2.251  10.104
 2853W        W 7053   5.642   7.054   9.017
 2854W        W 7054   6.576   9.531   2.838
 2855W        W 7055   8.465   9.023   1.737
 2856W        W 7056   4.573   9.741  10.993
 2857W        W 7057   4.370   9.573  11.449
 2858W        W 7058   4.168  10.051   0.524
 2859W        W 7059   7.941  10.056   0.731
 2860W        W 7060   4.316   1.430  11.039
 2861W        W 7061   8.969   0.657   9.506
 2862W        W 7062   7.578  10.380   1.235
 2863W        W 7063   0.450   9.918   9.502
 2864W        W 7064  10.819   0.219   1.264
 2865W        W 7065   2.757   7.382  10.189
 2866W        W 7066   9.908   6.517   0.284
 2867W        W 7067  10.369   1.301   9.243
 2868W        W 7068   8.375   5.038  11.497
 2869W        W 7069   7.428   0.935   9.157
 2870W        W 7070   8.757   7.554  11.046
 2871W        W 7071   0.759   2.308   9.662
 2872W        W 7072   2.156   9.065   2.825
 2873W        W 7073   8.461   3.237   8.390
 2874W        W 7074   0.302   1.731  10.054
 2875W        W 7075   8.338   4.121   0.493
 2876W        W 7076   6.265   5.754   0.784
 2877W        W 7077   6.091   0.976   8.996
 2878W        W 7078   6.055   7.435   9.789
 2879W        W 7079   2.336   0.246  11.346
 2880W        W 7080   4.332   6.808   2.688
 2881W        W 7081   2.096   7.857   1.042
 2882W        W 7082   8.036   9.256   9.565
 2883W        W 7083   7.630   6.709  11.328
 2884W        W 7084  10.859  11.432   0.224
 2885W        W 7085   2.216   7.453   3.058
 2886W        W 7086   2.397   5.269   2.152
 2887W        W 7087   3.304   4.711   8.955
 2888W        W 7088   2.167   2.879   9.316
 2889W        W 7089  10.524   9.978   3.474
 2890W        W 7090   8.878   0.626   8.972
 2891W        W 7091   3.396  10.873   3.828
 2892W        W 7092   0.124   1.452   2.214
 2893W        W 7093   6.811   7.974  11.173
 2894W        W 7094   2.697  10.682  10.422
 2895W        W 7095   4.594   4.027   2.558
 2896W        W 7096   8.159   3.657   0.342
 2897W        W 7097   2.372   7.571   0.681
 2898W        W 7098   6.463   9.391  10.382
 2899W        W 7099   4.101   6.422  11.237
 2900W        W 7100  10.911   5.361  11.328
 2901W        W 7101   0.887   6.701  11.601
 2902W        W 7102   0.271   0.414   9.949
 2903W        W 7103   7.108  11.327   3.542
 2904W        W 7104   5.944   8.017  11.003
 2905W        W 7105   7.408   9.603   1.856
 2906W        W 7106   5.669  11.349   1.327
 2907W        W 7107   7.953   3.686  10.415
 2908W        W 7108   2.241   1.139   2.768
 2909W        W 7109   0.075   4.167   2.556
 2910W        W 7110   4.048   3.393   8.762
 2911W        W 7111   9.408   6.565   3.572
 2912W        W 7112   5.330  11.303   1.728
 2913W        W 7113   9.029   2.282   1.365
 2914W        W 7114   8.954   9.027   1.555
 2915W        W 7115   9.926   0.435   2.327
 2916W        W 7116   0.346   9.261   1.211
 2917W        W 7117   0.700   9.511   1.981
 2918W        W 7118   5.059   9.613   8.573
 2919W        W 7119   0.224   8.018   3.173
 2920W        W 7120   8.044   9.502   2.461
 2921W        W 7121  11.451  11.385   2.519
 2922W        W 7122   7.112   2.944   4.115
 2923W        W 7123   4.833  10.836   9.856
 2924W        W 7124   6.440   2.348  10.806
 2925W        W 7125   5.183   6.904   3.592
 2926W        W 7126   4.091  11.058  11.173
 2927W        W 7127   2.786  11.084   2.079
 2928W        W 7128  10.600   0.467   0.876
 2929W        W 7129   5.243   2.622   0.823
 2930W        W 7130   0.226   6.965   1.258
 2931W        W 7131   0.582   1.764   2.886
 2932W        W 7132   0.884   7.678   9.995
 2933W        W 7133   1.560   2.133  10.290
 2934W        W 7134   0.171   9.570   2.098
 2935W        W 7135   2.879   2.134   0.057
 2936W        W 7136   8.423   6.759  11.981
 2937W        W 7137  10.609   8.567  10.450
 2938W        W 7138   1.815   9.298  11.854
 2939W        W 7139   6.309  10.469  11.884
 2940W        W 7140   0.353   3.386   2.362
 2941W        W 7141   7.269   2.417  11.347
 2942W        W 7142   3.359   5.688   2.849
 2943W        W 7143   3.577   4.334   3.073
 2944W        W 7144  11.118   0.878  10.951
 2945W        W 7145   3.229   5.180   2.866
 2946W        W 7146   0.846   9.505  10.307
 2947W        W 7147  10.356   0.423  11.992
 2948W        W 7148   5.089  10.132   2.596
 2949W        W 7149   9.547   5.035   2.666
 2950W        W 7150   9.522   6.979   8.624
 2951W        W 7151   2.664   1.975   1.867
 2952W        W 7152   3.867   1.446   9.464
 2953W        W 7153  10.889   5.675   0.749
 2954W        W 7154   3.961  11.298   9.983
 2955W        W 7155   2.670  10.241  10.749
 2956W        W 7156   0.277   5.193   3.249
 2957W        W 7157   7.578   3.355  10.499
 2958W        W 7158   9.867   9.618   9.554
 2959W        W 7159   5.161   9.310   8.976
 2960W        W 7160   5.521   6.319  11.824
 2961W        W 7161   1.227   3.239   0.183
 2962W        W 7162   5.982   1.746   2.390
 2963W        W 7163   0.878  10.365   1.803
 2964W        W 7164   3.777   1.269   2.413
 2965W        W 7165   9.359   2.764   1.024
 2966W        W 7166   7.425   5.011   3.788
 2967W        W 7167   5.055   6.084   0.510
 2968W        W 7168   4.925  10.099   1.716
 2969W        W 7169   9.371   8.135   1.363
 2970W        W 7170   7.942   9.072   9.097
 2971W        W 7171   3.851   5.508   0.245
 2972W        W 7172   1.708   3.155  10.951
 2973W        W 7173   8.951   8.830   0.269
 2974W        W 7174   2.900  10.289   9.096
 2975W        W 7175   9.078   1.487   2.605
 2976W        W 7176   5.117   7.333   8.889
 2977W        W 7177  10.779   3.276   0.903
 2978W        W 7178   2.739   1.843   2.695
 2979W        W 7179   5.858   3.304   9.392
 2980W        W 7180  10.021   9.473   0.884
 2981W        W 7181   8.952   2.938   0.767
 2982W        W 7182   0.179   4.047  11.658
 2983W        W 7183   5.202   1.443  11.085
 2984W        W 7184   2.168   4.276   9.581
 2985W        W 7185   6.790   2.134   2.398
 2986W        W 7186   0.507   0.424  10.390
 2987W        W 7187  10.149   7.084   9.491
 2988W        W 7188   3.552   6.703   9.829
 2989W        W 7189   6.132   6.517   9.950
 2990W        W 7190   2.711   6.719   8.261
 2991W        W 7191   0.355   0.063   1.158
 2992W        W 7192   2.078   4.288   9.069
 2993W        W 7193  11.405   3.896   0.762
 2994W        W 7194   3.711   0.850   9.086
 2995W        W 7195   6.527   4.585  10.697
 2996W        W 7196   8.621  10.474   9.014
 2997W        W 7197   0.131   0.424   3.221
 2998W        W 7198   8.856   4.867  11.523
 2999W        W 7199   9.752  11.318  11.695
 3000W        W 7200   0.455   3.279   8.924
 3001W        W 7201   2.252   0.016   0.031
 3002W        W 7202  10.924   0.442   0.435
 3003W        W 7203   4.873   1.471   9.563
 3004W        W 7204   0.914   1.366   2.853
 3005W        W 7205   4.322   2.305   2.646
 3006W        W 7206   7.273   2.808   3.125
 3007W        W 7207   3.525   9.329   2.843
 3008W        W 7208   4.365   3.702  10.567
 3009W        W 7209  10.775   0.809  10.581
 3010W        W 7210   9.895   7.683   2.988
 3011W        W 7211   1.222   5.769   1.863
 3012W        W 7212   0.777   8.514  11.226
 3013W        W 7213   2.977   5.998   9.859
 3014W        W 7214   1.302   3.166   1.750
 3015W        W 7215   7.400   2.101   0.936
 3016W        W 7216   1.402   8.593   0.963
 3017W        W 7217   4.107   9.194  10.434
 3018W        W 7218   0.760   8.403   3.757
 3019W        W 7219   3.741   4.924  10.282
 3020W        W 7220   9.593   5.144  11.703
 3021W        W 7221  10.003   8.113   2.691
 3022W        W 7222   2.275   1.954   9.249
 3023W        W 7223   5.665   9.007   2.517
 3024W        W 7224   5.136   3.813  10.917
 3025W        W 7225   6.714   2.674   8.553
 3026W        W 7226   4.252   1.121  11.917
 3027W        W 7227   6.546   1.675   8.774
 3028W        W 7228   3.220   5.287  11.036
 3029W        W 7229   2.633   0.603   1.196
 3030W        W 7230   3.856   5.855   1.479
 3031W        W 7231   3.629   4.342   1.243
 3032W        W 7232   5.093   5.707  10.208
 3033W        W 7233   0.699   7.994  11.348
 3034W        W 7234   8.674   7.443  10.372
 3035W        W 7235   4.618   7.954  11.044
 3036W        W 7236  11.206  11.041   1.785
 3037W        W 7237  10.060   5.183   2.447
 3038W        W 7238   6.262   3.273   9.061
 3039W        W 7239   1.393   5.725  10.201
 3040W        W 7240   2.662   1.693  10.369
 3041W        W 7241  10.145   9.594   1.642
 3042W        W 7242   2.664   0.185  11.810
 3043W        W 7243   0.151   2.594   1.007
 3044W        W 7244   3.134   7.531   1.670
 3045W        W 7245   3.634   9.747   3.123
 3046W        W 7246   0.916  10.787  11.938
 3047W        W 7247   6.280   7.675   0.622
 3048W        W 7248   6.023   1.355   8.451
 3049W        W 7249   9.887   5.142  11.292
 3050W        W 7250   9.189   7.946   9.030
 3051W        W 7251   7.965   4.706   2.526
 3052W        W 7252   6.763   8.827  11.143
 3053W        W 7253   7.715   3.634   2.830
 3054W        W 7254   3.158  10.893  11.909
 3055W        W 7255   7.736   7.588  10.370
 3056W        W 7256  11.018  11.496   3.302
 3057W        W 7257   7.061   0.568   9.073
 3058W        W 7258   0.507  10.851  11.543
 3059W        W 7259   9.914   7.607   9.633
 3060W        W 7260   0.883   0.399   0.654
 3061W        W 7261   2.331   7.200   9.928
 3062W        W 7262   1.192   1.193   9.176
 3063W        W 7263   4.418   2.666  11.414
 3064W        W 7264   3.695  11.389   9.082
 3065W        W 7265  10.407   8.170  11.483
 3066W        W 7266  10.936   2.738   0.216
 3067W        W 7267   9.939   4.870   3.461
 3068W        W 7268   8.887   7.252   0.339
 3069W        W 7269   2.769   1.824  11.637
 3070W        W 7270   7.472  10.384   9.795
 3071W        W 7271   9.494   8.895   8.939
 3072W        W 7272   7.475   6.739   3.197
 3073W        W 7273   5.501  10.756   1.929
 3074W        W 7274   1.459   5.271  11.484
 3075W        W 7275   0.011  10.079   2.044
 3076W        W 7276   5.534   0.622  10.163
 3077W        W 7277   5.818   7.566   0.794
 3078W        W 7278   5.240   3.727   2.280
 3079W        W 7279  10.538   1.427   2.915
 3080W        W 7280   8.180   5.048  10.456
 3081W        W 7281   6.677  10.470   1.240
 3082W        W 7282   6.761   3.760  11.314
 3083W        W 7283   6.055  11.018   1.272
 3084W        W 7284   9.866   4.697  11.561
 3085W        W 7285  11.314   9.260   3.404
 3086W        W 7286   0.514   5.911  10.846
 3087W        W 7287   7.477   8.515  11.480
 3088W        W 7288   5.189   5.727   9.672
 3089W        W 7289   8.050   0.020   3.390
 3090W        W 7290   2.669  10.196  10.250
 3091W        W 7291   8.322   0.788  11.206
 3092W        W 7292   9.428   7.375   1.058
 3093W        W 7293   8.972   1.598   9.348
 3094W        W 7294   5.603   4.478   1.088
 3095W        W 7295   2.913   4.639   8.613
 3096W        W 7296   5.312  10.995   9.775
 3097W        W 7297   1.850   6.582   2.820
 3098W        W 7298   4.145  11.465   8.855
 3099W        W 7299   6.571   9.880   8.925
 3100W        W 7300   5.821   6.054  11.538
 3101W        W 7301   0.852   2.661  10.715
 3102W        W 7302   4.595   5.444   1.440
 3103W        W 7303   4.284   7.828  10.075
 3104W        W 7304   2.848   7.499   2.089
 3105W        W 7305   1.434   8.171  10.523
 3106W        W 7306   7.507   2.760   1.652
 3107W        W 7307  11.377   1.266   0.034
 3108W        W 7308   8.035   0.817   1.980
 3109W        W 7309   6.130   0.451  11.775
 3110W        W 7310   5.249  10.499   1.056
 3111W        W 7311   8.107   2.449  11.932
 3112W        W 7312   7.043   4.091   1.080
 3113W        W 7313   3.257   8.658   9.359
 3114W        W 7314   3.595   5.762  11.859
 3115W        W 7315   5.800  10.764   0.280
 3116W        W 7316   4.041   0.776  10.443
 3117W        W 7317  11.389   5.198   9.750
 3118W        W 7318   6.443   4.765  11.708
 3119W        W 7319   1.189   8.598   9.331
 3120W        W 7320   3.262   7.925   0.370
 3121W        W 7321   3.286   8.197   1.268
 3122W        W 7322   1.807  11.227  10.563
 3123W        W 7323   4.568   0.013   0.892
 3124W        W 7324   8.516  11.265   2.589
 3125W        W 7325   6.164   1.301   0.740
 3126W        W 7326   0.892   7.243   4.060
 3127W        W 7327   0.374   3.810   0.991
 3128W        W 7328   3.735   3.201  11.885
 3129W        W 7329   1.629  10.311   9.018
 3130W        W 7330   3.550  11.308   3.023
 3131W        W 7331  11.051   8.721   0.587
 3132W        W 7332   5.701   2.299   9.206
 3133W        W 7333   2.636   5.044   3.743
 3134W        W 7334   6.722  10.505   9.063
 3135W        W 7335   5.739   2.828  10.019
 3136W        W 7336   3.976   4.668   9.811
 3137W        W 7337   4.529   9.099   0.274
 3138W        W 7338   7.765   8.323   9.237
 3139W        W 7339   0.250   0.840  10.258
 3140W        W 7340  11.484   1.251   1.296
 3141W        W 7341  11.135  10.768   3.544
 3142W        W 7342   1.292  11.367  10.500
 3143W        W 7343   6.856   7.860   2.347
 3144W        W 7344   6.505   4.497   2.616
 3145W        W 7345   1.027   4.510   1.330
 3146W        W 7346   4.250  10.334   1.969
 3147W        W 7347   0.629  10.057   0.201
 3148W        W 7348   1.401   9.520  11.018
 3149W        W 7349   8.963   1.085   9.188
 3150W        W 7350   2.911   0.271   0.263
 3151W        W 7351  11.375   8.730   3.341
 3152W        W 7352  11.192   4.586   3.391
 3153W        W 7353  11.225   4.342   9.878
 3154W        W 7354   1.915   1.868   0.036
 3155W        W 7355   6.966   9.797   0.907
 3156W        W 7356   5.287   8.958  10.987
 3157W        W 7357   1.889   3.884   0.875
 3158W        W 7358  10.488   8.443  11.924
 3159W        W 7359   4.395   9.980   9.234
 3160W        W 7360   2.565   1.209   2.392
 3161W        W 7361   8.422   5.547   8.967
 3162W        W 7362   1.567  10.411   0.992
 3163W        W 7363   3.737   1.770  10.422
 3164W        W 7364   5.635   1.673   1.584
 3165W        W 7365   8.167   1.046   2.431
 3166W        W 7366  10.535   9.336   0.178
 3167W        W 7367   6.238   5.077  10.469
 3168W        W 7368   3.590  10.984   9.458
 3169W        W 7369   8.494   2.668   9.998
 3170W        W 7370   2.308   8.671   9.114
 3171W        W 7371  10.869   9.549   3.482
 3172W        W 7372   9.332   4.248   9.642
 3173W        W 7373   5.739   7.998   9.087
 3174W        W 7374   3.154   6.946   1.053
 3175W        W 7375   9.992   4.583  10.146
 3176W        W 7376   2.825   2.802   0.477
 3177W        W 7377   5.589   2.831   3.384
 3178W        W 7378   6.958   0.779  10.244
 3179W        W 7379  11.405  10.946   2.280
 3180W        W 7380   2.116   6.118  11.762
 3181W        W 7381  11.346   7.614   1.619
 3182W        W 7382   1.694   0.699   9.169
 3183W        W 7383  10.595   8.870   1.391
 3184W        W 7384   3.256   8.884   1.974
 3185W        W 7385   6.087   8.309   1.777
 3186W        W 7386   0.360  11.060   1.333
 3187W        W 7387   6.005  10.921  11.442
 3188W        W 7388   9.867   2.239  11.779
 3189W        W 7389   8.933   0.870  10.743
 3190W        W 7390   8.616   3.785   2.674
 3191W        W 7391   1.216   6.545   3.552
 3192W        W 7392   8.875   1.216   9.688
 3193W        W 7393   3.824   7.786  11.419
 3194W        W 7394   8.313   9.539   2.016
 3195W        W 7395   9.311   7.841   1.848
 3196W        W 7396   0.953   9.879   9.377
 3197W        W 7397   8.790   4.568   1.271
 3198W        W 7398   1.077  11.288  11.939
 3199W        W 7399   1.193   1.005   2.601
 3200W        W 7400   5.728   3.265   8.384
 3201W        W 7401   9.947   6.183   9.836
 3202W        W 7402   5.651   0.933   2.208
 3203W        W 7403   2.694   7.173  11.744
 3204W        W 7404   5.755  11.272   0.419
 3205W        W 7405   2.650   2.849   9.450
 3206W        W 7406   3.818   2.615   3.223
 3207W        W 7407  10.947   8.959   9.291
 3208W        W 7408   2.215  11.283   2.830
 3209W        W 7409   9.067   4.675   9.676
 3210W        W 7410   8.133   9.386   1.566
 3211W        W 7411   7.551   9.046   2.915
 3212W        W 7412   2.004   7.633   2.623
 3213W        W 7413   8.708  11.343   0.388
 3214W        W 7414   0.795   1.592  11.349
 3215W        W 7415   8.435   0.565   1.743
 3216W        W 7416   7.502   7.979   1.008
 3217W        W 7417   4.004   2.826   9.557
 3218W        W 7418   0.830   8.801   0.059
 3219W        W 7419  10.774   4.867  11.442
 3220W        W 7420  11.282   8.180   0.368
 3221W        W 7421   2.732   1.522  11.231
 3222W        W 7422   6.607   0.767   2.740
 3223W        W 7423   4.204   0.977   3.345
 3224W        W 7424  10.809  10.776  10.908
 3225W        W 7425   7.257   1.345   9.581
 3226W        W 7426  10.936   2.554   9.721
 3227W        W 7427   9.429   6.621   0.332
 3228W        W 7428   1.870   2.908   2.713
 3229W        W 7429   3.479   4.399   0.457
 3230W        W 7430   9.564   6.553   0.820
 3231W        W 7431  10.220   1.273   3.323
 3232W        W 7432   7.513   9.436  11.289
 3233W        W 7433   9.906   9.490  10.528
 3234W        W 7434   3.908  10.049   9.344
 3235W        W 7435   3.445   7.952   1.742
 3236W        W 7436  10.583   1.831   9.194
 3237W        W 7437  10.827   0.851   3.473
 3238W        W 7438   3.608   8.961   0.553
 3239W        W 7439   6.988   4.318   2.784
 3240W        W 7440   3.140   3.214   0.456
 3241W        W 7441   6.516   9.187   8.478
 3242W        W 7442   6.109   5.223  11.901
 3243W        W 7443   4.345   8.619   2.556
 3244W        W 7444   6.279  11.294   0.376
 3245W        W 7445   3.662   6.501   2.147
 3246W        W 7446   2.817   4.331   0.929
 3247W        W 7447   1.270  10.049   1.256
 3248W        W 7448  11.309  10.289   9.944
 3249W        W 7449   8.089  10.317  11.280
 3250W        W 7450   0.917   5.650   9.971
 3251W        W 7451   8.413   7.081   9.813
 3252W        W 7452   0.785   7.775  10.880
 3253W        W 7453   3.950   3.208   0.896
 3254W        W 7454   6.400   5.752  10.549
 3255W        W 7455  10.422   9.789   0.930
 3256W        W 7456   0.779   9.966   0.687
 3257W        W 7457   0.391  11.030   9.953
 3258W        W 7458   4.659   4.391  10.015
 3259W        W 7459   0.855   1.266  11.734
 3260W        W 7460  11.469   0.168   0.713
 3261W        W 7461  10.913   1.269   3.212
 3262W        W 7462   1.889  10.418   3.177
 3263W        W 7463   6.309   6.035   1.213
 3264W        W 7464   0.302  11.456  10.250
 3265W        W 7465  10.254   0.528   2.730
 3266W        W 7466   5.359  10.084   0.756
 3267W        W 7467   5.995  11.338   2.867
 3268W        W 7468   2.784   9.390   9.259
 3269W        W 7469   8.390   9.268   3.261
 3270W        W 7470   9.916   2.828   0.461
 3271W        W 7471   9.398   0.026   1.447
 3272W        W 7472   5.052  11.473   2.517
 3273W        W 7473   9.695   0.015   0.155
 3274W        W 7474   8.405   8.619   2.057
 3275W        W 7475   3.370   8.441   2.763
 3276W        W 7476   0.380   6.090   0.744
 3277W        W 7477   4.207   6.535   8.569
 3278W        W 7478   5.060   2.367   9.993
 3279W        W 7479   1.168   8.755   2.860
 3280W        W 7480   2.640   8.560   3.236
 3281W        W 7481   0.376  11.049   8.452
 3282W        W 7482   7.513   1.422   1.187
 3283W        W 7483   1.376   2.240   3.308
 3284W        W 7484   9.968   7.191   9.947
 3285W        W 7485   1.323   0.586   2.377
 3286W        W 7486   2.688   3.462   1.021
 3287W        W 7487  11.273   6.877   0.378
 3288W        W 7488   7.474   8.190   0.306
 3289W        W 7489   6.979  10.175   0.060
 3290W        W 7490   0.457   0.465   1.455
 3291W        W 7491   5.506   3.262   0.098
 3292W        W 7492   8.647   5.939  10.076
 3293W        W 7493   2.216   4.115   1.752
 3294W        W 7494   0.400   2.969  11.842
 3295W        W 7495   7.669   0.070   1.670
 3296W        W 7496   1.926   5.140   2.314
 3297W        W 7497   7.484   2.689   2.169
 3298W        W 7498   1.417   6.939   9.526
 3299W        W 7499   8.484   0.237   2.798
 3300W        W 7500   1.554   9.456   0.841
 3301W        W 7501  11.336   1.622   0.421
 3302W        W 7502   6.595   7.105   9.658
 3303W        W 7503   9.057   8.889  11.233
 3304W        W 7504   3.746   4.641   0.828
 3305W        W 7505   1.802   0.462  10.018
 3306W        W 7506   8.382   8.898   9.409
 3307W        W 7507   1.045   7.940  11.750
 3308W        W 7508   0.450   5.547  10.478
 3309W        W 7509   2.957   9.495   9.827
 3310W        W 7510  10.853   0.664   8.938
 3311W        W 7511   3.241   8.206  10.093
 3312W        W 7512   7.465   0.528   0.274
 3313W        W 7513  11.323   6.450  10.458
 3314W        W 7514   3.173   1.256   1.545
 3315W        W 7515   3.191   7.686  10.798
 3316W        W 7516   6.696   9.049   2.405
 3317W        W 7517   8.013   0.515   0.286
 3318W        W 7518   1.881   3.082   1.277
 3319W        W 7519   4.975  10.359   0.495
 3320W        W 7520  10.320   3.676   8.672
 3321W        W 7521   3.891   2.341   0.905
 3322W        W 7522   7.541   5.619   1.568
 3323W        W 7523   1.356   8.901   1.951
 3324W        W 7524   6.216  10.141   1.183
 3325W        W 7525  10.587   6.092   0.682
 3326W        W 7526   3.975   2.201   3.530
 3327W        W 7527   9.767   3.069   1.861
 3328W        W 7528   0.184   4.511   2.981
 3329W        W 7529   0.537   3.898  10.565
 3330W        W 7530   6.045  10.589   1.025
 3331W        W 7531  10.481  11.203   0.483
 3332W        W 7532  10.371  10.460   9.227
 3333W        W 7533   4.362   5.993  11.178
 3334W        W 7534   9.345   1.013   9.561
 3335W        W 7535   3.072   1.447  10.556
 3336W        W 7536   4.737   6.787   9.484
 3337W        W 7537   4.625   1.118   2.892
 3338W        W 7538  10.723   3.617   2.662
 3339W        W 7539   0.615   9.048  10.510
 3340W        W 7540   8.530   1.436   8.473
 3341W        W 7541   0.914   0.496   3.125
 3342W        W 7542   0.419   2.244   8.765
 3343W        W 7543   6.180  11.471   9.869
 3344W        W 7544   4.088   1.611   1.301
 3345W        W 7545   9.935   6.654  11.283
 3346W        W 7546   4.057   5.044   0.050
 3347W        W 7547   8.048  10.540   1.426
 3348W        W 7548   7.278   5.461   1.034
 3349W        W 7549  11.365   6.007   2.404
 3350W        W 7550   9.457   8.422   2.789
 3351W        W 7551   0.580   7.490  11.274
 3352W        W 7552   7.465   6.038   1.907
 3353W        W 7553   3.022   9.671   3.616
 3354W        W 7554   6.780   4.213   2.276
 3355W        W 7555   3.437   6.552   2.648
 3356W        W 7556   4.987   7.532   1.274
 3357W        W 7557   0.863   8.416  11.719
 3358W        W 7558   7.411   9.903  10.041
 3359W        W 7559   0.952   5.673  10.486
 3360W        W 7560   8.000   8.935   3.179
 3361W        W 7561   5.693   3.128  11.180
 3362W        W 7562  11.452   2.816   2.953
 3363W        W 7563   5.207  10.533  11.100
 3364W        W 7564   2.243   8.546   0.775
 3365W        W 7565   0.379   1.762  11.599
 3366W        W 7566   2.893   7.162  10.791
 3367W        W 7567   8.353   5.661   2.750
 3368W        W 7568   0.959   8.032   1.490
 3369W        W 7569   6.738   9.141   4.149
 3370W        W 7570   1.101  11.280   0.469
 3371W        W 7571   6.583   3.048   0.034
 3372W        W 7572   9.172   6.435   1.810
 3373W        W 7573   2.840   2.960   1.931
 3374W        W 7574   6.503   4.376   9.803
 3375W        W 7575   3.198   3.493   3.215
 3376W        W 7576   4.752   0.767  11.306
 3377W        W 7577   9.370   4.084  10.641
 3378W        W 7578   7.789   3.366   8.724
 3379W        W 7579   3.783   6.461   9.444
 3380W        W 7580  10.325   9.499  11.741
 3381W        W 7581   3.816   4.126   2.653
 3382W        W 7582   4.539   7.305   9.408
 3383W        W 7583   6.939   0.485   9.590
 3384W        W 7584   1.042   6.224   8.773
 3385W        W 7585   1.286   2.448  10.936
 3386W        W 7586   4.898   6.554  10.601
 3387W        W 7587   9.362   2.316  11.615
 3388W        W 7588  10.938   6.721   2.672
 3389W        W 7589   4.276   5.300   1.861
 3390W        W 7590   5.009   2.388   1.878
 3391W        W 7591   5.468   4.964   2.810
 3392W        W 7592   9.790   9.949  11.271
 3393W        W 7593   4.391   7.019   0.629
 3394W        W 7594   8.257   6.972   3.358
 3395W        W 7595  10.825  11.054  11.840
 3396W        W 7596  10.501   6.086   3.294
 3397W        W 7597   5.248   2.238   8.956
 3398W        W 7598   7.034   1.014   8.817
 3399W        W 7599   7.061   2.887  11.248
 3400W        W 7600   6.786   7.036  10.181
 3401W        W 7601   5.234   5.729   0.846
 3402W        W 7602  10.026   7.175  10.799
 3403W        W 7603   9.018   6.183   9.774
 3404W        W 7604   4.174   1.955   1.679
 3405W        W 7605   2.947   8.640   9.930
 3406W        W 7606   0.400   9.555   8.520
 3407W        W 7607   9.923   8.665   8.747
 3408W        W 7608   6.491   9.636   9.387
 3409W        W 7609   3.123   1.677   1.883
 3410W        W 7610   8.436   2.550   8.531
 3411W        W 7611   5.250   1.437   9.207
 3412W        W 7612   4.153   3.173   9.892
 3413W        W 7613   9.508  10.280  10.930
 3414W        W 7614   3.022   3.173  10.640
 3415W        W 7615   3.572   8.572   0.240
 3416W        W 7616   1.361   2.646   9.903
 3417W        W 7617   1.783   7.661  10.408
 3418W        W 7618   4.107   6.737  10.837
 3419W        W 7619   7.842   6.923   1.544
 3420W        W 7620   1.943   2.855   1.789
 3421W        W 7621   8.420   6.300   0.821
 3422W        W 7622   6.668  11.267   2.372
 3423W        W 7623   2.745   2.573   9.041
 3424W        W 7624   2.341   6.904   9.491
 3425W        W 7625   4.321   0.369  10.611
 3426W        W 7626   3.113  10.828   9.554
 3427W        W 7627   7.106   5.019   0.088
 3428W        W 7628  10.810   9.010   0.944
 3429W        W 7629   9.591   1.491   2.626
 3430W        W 7630   4.318   9.938   2.758
 3431W        W 7631   0.694   0.919   2.696
 3432W        W 7632   6.740  10.617   3.226
 3433W        W 7633  10.933  10.907   0.327
 3434W        W 7634  10.920   8.069   2.717
 3435W        W 7635   5.830   6.673  10.929
 3436W        W 7636   8.962   4.404  11.384
 3437W        W 7637   2.196   8.375   9.497
 3438W        W 7638   4.122   3.058   3.249
 3439W        W 7639   2.493   2.212   2.307
 3440W        W 7640   4.155   3.644  10.118
 3441W        W 7641   6.544  10.509  10.169
 3442W        W 7642   3.514   8.754   2.401
 3443W        W 7643   6.624   5.190  11.988
 3444W        W 7644   9.879   2.706   9.590
 3445W        W 7645  10.825   8.950  11.233
 3446W        W 7646   1.336   5.211   0.354
 3447W        W 7647   7.204   6.972   0.916
 3448W        W 7648   2.331   1.070   1.941
 3449W        W 7649   8.662   7.788   0.908
 3450W        W 7650   6.987   3.906  11.760
 3451W        W 7651   7.101   8.554   3.439
 3452W        W 7652   9.805   4.560   1.016
 3453W        W 7653   8.626  11.233   1.279
 3454W        W 7654   1.679   0.835   9.651
 3455W        W 7655   8.032   1.008   3.433
 3456W        W 7656   8.202  10.480  10.813
 3457W        W 7657  10.853   5.735   3.127
 3458W        W 7658   2.167   4.906   3.573
 3459W        W 7659   5.278   7.880  10.278
 3460W        W 7660   1.766   2.701   9.595
 3461W        W 7661   0.094   1.742  10.550
 3462W        W 7662   9.405   2.733   3.021
 3463W        W 7663   3.412   1.242   9.280
 3464W        W 7664   7.108   3.928   1.987
 3465W        W 7665   8.802   5.167   8.986
 3466W        W 7666   0.279   8.282   0.239
 3467W        W 7667   7.700   8.043  11.261
 3468W        W 7668   5.129   6.849   2.506
 3469W        W 7669   2.421   9.468  10.168
 3470W        W 7670   6.708   6.909  10.706
 3471W        W 7671   5.069   4.213   2.398
 3472W        W 7672   0.050   9.641  10.915
 3473W        W 7673   5.905   7.506   3.137
 3474W        W 7674  11.393   8.799   9.052
 3475W        W 7675   7.740   8.535  11.953
 3476W        W 7676   5.179   9.357   1.836
 3477W        W 7677   1.720   9.481   3.013
 3478W        W 7678   3.034   5.265   0.644
 3479W        W 7679   5.956   6.065   0.063
 3480W        W 7680  10.856   4.509   9.503
 3481W        W 7681   9.014   6.703   1.407
 3482W        W 7682   0.810  10.817   1.184
 3483W        W 7683   5.986   0.809  10.341
 3484W        W 7684  11.474   1.276  10.806
 3485W        W 7685   9.580   5.410  10.939
 3486W        W 7686   4.314   9.467   9.456
 3487W        W 7687  10.278   2.783   8.928
 3488W        W 7688   4.029   5.547   2.368
 3489W        W 7689  10.822   8.192  10.131
 3490W        W 7690   4.713   0.826   3.297
 3491W        W 7691   1.373   6.109  11.144
 3492W        W 7692   6.060   6.462  11.786
 3493W        W 7693   9.773   4.123  10.312
 3494W        W 7694   8.329   1.443   0.853
 3495W        W 7695   5.737   5.760   0.987
 3496W        W 7696   3.602   8.302   2.160
 3497W        W 7697   8.544   4.680   3.203
 3498W        W 7698   1.244   8.635   0.444
 3499W        W 7699   8.877  10.472   0.452
 3500W        W 7700   0.812   4.732   2.179
 3501W        W 7701   0.537  10.584  10.911
 3502W        W 7702  10.024   1.727   9.569
 3503W        W 7703   4.313   3.707   9.637
 3504W        W 7704   2.422   3.010   3.273
 3505W        W 7705   3.321   9.578   8.797
 3506W        W 7706   2.386   5.326  10.970
 3507W        W 7707   9.350   7.020   0.683
 3508W        W 7708   7.498   4.587   2.812
 3509W        W 7709  11.073  11.375   8.526
 3510W        W 7710   1.605   8.598   3.183
 3511W        W 7711  10.850   8.366   1.293
 3512W        W 7712   6.787   5.209   1.889
 3513W        W 7713  11.314   5.756   1.911
 3514W        W 7714   8.301  11.197  10.496
 3515W        W 7715   2.790   5.038  10.874
 3516W        W 7716   2.258   6.630  11.282
 3517W        W 7717   1.588   8.520   2.320
 3518W        W 7718   3.034  10.560   0.770
 3519W        W 7719   3.265   5.600   9.024
 3520W        W 7720   1.035  10.714  11.000
 3521W        W 7721   1.819   6.588  11.549
 3522W        W 7722   8.147   8.430   3.205
 3523W        W 7723   4.601   9.038   9.384
 3524W        W 7724  11.340   3.307   9.555
 3525W        W 7725   3.190   4.167  11.986
 3526W        W 7726   9.050   2.280   2.229
 3527W        W 7727   1.282   0.739  11.396
 3528W        W 7728   3.125   4.758   9.524
 3529W        W 7729   5.257   1.404   0.431
 3530W        W 7730   9.326   4.686   2.313
 3531W        W 7731   0.489   0.315   2.888
 3532W        W 7732   0.750   6.412  11.151
 3533W        W 7733   3.742   2.626   2.694
 3534W        W 7734   1.074  10.403   0.888
 3535W        W 7735   6.131   7.688   8.909
 3536W        W 7736   0.730   3.329  11.980
 3537W        W 7737   1.732   9.830   8.842
 3538W        W 7738   4.316   1.853   0.382
 3539W        W 7739   3.322   4.615  10.347
 3540W        W 7740  10.417  10.872   0.088
 3541W        W 7741   6.572   9.294  11.184
 3542W        W 7742   8.139   2.151  11.528
 3543W        W 7743   0.939   3.761  11.237
 3544W        W 7744   4.622   1.494  11.936
 3545W        W 7745   5.232  10.625   9.239
 3546W        W 7746   8.863  10.414   2.272
 3547W        W 7747  11.149   5.192   0.011
 3548W        W 7748   8.071  10.367   2.942
 3549W        W 7749   9.371   5.532   2.473
 3550W        W 7750   1.638   1.844  11.605
 3551W        W 7751   6.438   9.377   8.940
 3552W        W 7752   5.987  10.430  10.355
 3553W        W 7753   7.889   8.928   1.741
 3554W        W 7754  10.967   7.425   1.345
 3555W        W 7755   1.887   8.935   2.406
 3556W        W 7756   4.948   8.304  11.742
 3557W        W 7757  10.191  11.388   0.074
 3558W        W 7758   6.702  11.284   1.856
 3559W        W 7759   4.766   9.895   9.554
 3560W        W 7760   8.592  10.347  11.101
 3561W        W 7761   5.403   7.293   3.304
 3562W        W 7762   6.286   3.838   1.401
 3563W        W 7763   2.736   3.054  11.061
 3564W        W 7764  11.373   5.579   0.896
 3565W        W 7765   7.941   3.231   9.587
 3566W        W 7766   5.207  11.028   3.253
 3567W        W 7767   1.307   0.082   2.335
 3568W        W 7768   1.259   9.056   3.252
 3569W        W 7769   7.123   7.399   2.114
 3570W        W 7770   4.096   6.473  11.768
 3571W        W 7771  10.956   1.879   1.738
 3572W        W 7772   9.159   0.007   3.636
 3573W        W 7773   6.177   2.490   8.639
 3574W        W 7774   6.692   9.921   2.511
 3575W        W 7775   3.627   3.598   8.978
 3576W        W 7776   3.106  10.049   9.991
 3577W        W 7777   8.064   0.246   0.743
 3578W        W 7778  10.001  10.329   8.855
 3579W        W 7779   8.724   2.401   2.596
 3580W        W 7780   0.415   2.279   1.329
 3581W        W 7781   3.660   0.374   9.244
 3582W        W 7782  11.420  11.020   8.694
 3583W        W 7783  11.028   2.313   2.273
 3584W        W 7784   1.827   6.040  10.851
 3585W        W 7785   3.440   8.605   9.831
 3586W        W 7786   2.589   7.098   1.923
 3587W        W 7787   9.946   4.835   0.616
 3588W        W 7788   7.704   8.845   2.253
 3589W        W 7789  11.314  10.556   1.984
 3590W        W 7790   0.907   5.423   1.624
 3591W        W 7791   6.983   1.884   0.664
 3592W        W 7792   1.977   2.297  11.748
 3593W        W 7793   6.543   5.687   1.501
 3594W        W 7794   9.115   3.445  11.215
 3595W        W 7795   3.511   7.470   2.613
 3596W        W 7796   3.583   7.076  10.184
 3597W        W 7797   7.275   6.222  11.002
 3598W        W 7798   4.011   9.350   8.528
 3599W        W 7799   6.150   2.842   0.738
 3600W        W 7800   9.546   9.060  11.764
 3601W        W 7801   2.399   9.162   8.981
 3602W        W 7802   9.210   5.782   3.034
 3603W        W 7803   4.991   6.661  11.232
 3604W        W 7804   4.248   4.725  11.245
 3605W        W 7805   5.359   8.859  11.905
 3606W        W 7806   3.246   7.906   2.231
 3607W        W 7807   8.447   1.814   0.511
 3608W        W 7808  11.296   7.825   3.010
 3609W        W 7809   0.986   8.260  10.826
 3610W        W 7810   1.136   4.272  11.267
 3611W        W 7811   6.104   5.277   9.470
 3612W        W 7812   6.677  10.211   0.814
 3613W        W 7813   6.803   0.295  10.065
 3614W        W 7814   5.629   4.067   9.813
 3615W        W 7815   4.621   1.622   2.928
 3616W        W 7816   8.080   8.118   0.985
 3617W        W 7817   1.897  10.313   0.228
 3618W        W 7818   1.311   2.729   9.338
 3619W        W 7819   6.494   2.630   2.342
 3620W        W 7820   4.123   7.553   9.643
 3621W        W 7821   2.296   5.554  10.432
 3622W        W 7822   9.549   8.268  10.743
 3623W        W 7823   1.889   7.005   9.268
 3624W        W 7824   9.972   0.865   0.564
 3625W        W 7825   6.172   8.531   2.239
 3626W        W 7826  11.312   1.106   0.521
 3627W        W 7827   7.487   7.674   0.231
 3628W        W 7828  11.071   6.167   0.866
 3629W        W 7829   2.156   8.999   0.528
 3630W        W 7830   8.391   6.891   2.316
 3631W        W 7831   3.245   4.705   2.096
 3632W        W 7832  10.957   1.387   1.443
 3633W        W 7833   4.670   1.914   0.907
 3634W        W 7834   5.653   0.634   1.788
 3635W        W 7835   3.206   7.589   3.027
 3636W        W 7836   1.069   7.630  11.330
 3637W        W 7837  10.036   9.938   3.237
 3638W        W 7838   5.776   2.225   2.336
 3639W        W 7839   9.049  10.821   1.528
 3640W        W 7840   6.528   8.168   2.915
 3641W        W 7841   1.832  10.410  10.734
 3642W        W 7842   9.948   8.751   0.083
 3643W        W 7843   1.747   4.212   9.918
 3644W        W 7844   4.249   8.474   0.937
 3645W        W 7845   9.845   5.653  11.332
 3646W        W 7846   0.176   1.721   0.053
 3647W        W 7847   3.668  10.473   9.476
 3648W        W 7848   8.516  10.864   0.437
 3649W        W 7849   5.015   3.880   9.203
 3650W        W 7850   8.065   0.050   2.444
 3651W        W 7851   5.456   7.448   0.369
 3652W        W 7852  10.436   0.853  10.950
 3653W        W 7853   8.221   1.909   0.063
 3654W        W 7854   0.698   0.057  11.060
 3655W        W 7855   8.086  10.374   3.452
 3656W        W 7856   8.548   6.612   3.134
 3657W        W 7857  10.959   8.582  10.884
 3658W        W 7858   1.319   0.261   2.829
 3659W        W 7859   5.038   5.239  10.437
 3660W        W 7860   8.537   4.630  11.092
 3661W        W 7861   2.340   5.223   2.657
 3662W        W 7862   9.332   2.372   9.132
 3663W        W 7863   4.053   1.236   9.043
 3664W        W 7864   2.616   6.562   2.279
 3665W        W 7865   7.296   7.970  10.953
 3666W        W 7866   5.100   3.877   2.761
 3667W        W 7867   4.463   9.895   1.818
 3668W        W 7868   8.359  11.453   9.253
 3669W        W 7869   8.461   0.305   8.906
 3670W        W 7870   0.914   2.298   1.433
 3671W        W 7871   2.878  10.528   9.925
 3672W        W 7872   5.109   3.258   0.459
 3673W        W 7873   9.631   3.480   9.409
 3674W        W 7874  10.058   7.181   2.829
 3675W        W 7875  10.605   2.669  11.842
 3676W        W 7876   5.061   3.059   3.192
 3677W        W 7877   6.331   6.586  10.848
 3678W        W 7878   0.370  10.857   0.881
 3679W        W 7879  11.393   3.077   0.072
 3680W        W 7880   1.260   0.362   9.105
 3681W        W 7881  11.227   2.340   1.814
 3682W        W 7882   3.777   5.221   2.062
 3683W        W 7883   2.378   3.107   1.763
 3684W        W 7884   4.301   9.251  10.941
 3685W        W 7885   6.013   5.307  10.874
 3686W        W 7886   5.701   1.380   3.534
 3687W        W 7887   3.307   8.666  10.846
 3688W        W 7888   8.725   5.145   1.960
 3689W        W 7889   6.289   3.992  10.604
 3690W        W 7890   2.292  10.331   1.315
 3691W        W 7891   4.896   4.089   3.162
 3692W        W 7892   8.144  10.757   0.076
 3693W        W 7893   7.293   2.129  10.903
 3694W        W 7894   2.839  11.030   9.939
 3695W        W 7895   6.540   5.659   2.002
 3696W        W 7896   7.085   7.567  11.328
 3697W        W 7897   4.363   6.000   1.538
 3698W        W 7898   9.719   0.159   3.353
 3699W        W 7899   4.196   9.020   1.736
 3700W        W 7900   9.494   4.520   2.785
 3701W        W 7901   3.382   2.272  11.007
 3702W        W 7902   6.140   5.615   9.875
 3703W        W 7903   2.379   7.964  11.507
 3704W        W 7904   2.277   5.679  11.959
 3705W        W 7905   0.345   6.588   9.162
 3706W        W 7906   9.953   1.033  11.030
 3707W        W 7907   0.453  11.323   1.813
 3708W        W 7908  11.371   2.668  10.347
 3709W        W 7909   7.960   6.663   3.734
 3710W        W 7910   2.668   6.649  10.819
 3711W        W 7911   3.152   5.898   2.018
 3712W        W 7912   5.748   6.675   1.648
 3713W        W 7913  11.419   9.064   2.923
 3714W        W 7914   1.108   2.954  11.773
 3715W        W 7915  11.046   7.946   9.341
 3716W        W 7916   5.682   9.422   1.719
 3717W        W 7917   3.833   2.460  11.231
 3718W        W 7918   9.579   5.211   0.727
 3719W        W 7919   8.527   7.435   1.373
 3720W        W 7920   9.514   3.262  11.566
 3721W        W 7921   2.296   3.577  10.522
 3722W        W 7922   9.734   9.566   3.417
 3723W        W 7923   8.583  11.303  10.927
 3724W        W 7924   7.112   2.665  10.322
 3725W        W 7925   3.147   6.184   2.888
 3726W        W 7926   1.135   0.889   0.410
 3727W        W 7927   8.546   5.657   1.849
 3728W        W 7928  10.069   6.136   2.599
 3729W        W 7929   4.161   7.737  10.979
 3730W        W 7930  10.427  11.491   0.910
 3731W        W 7931   0.116   2.642   8.508
 3732W        W 7932   6.132   2.786  11.305
 3733W        W 7933   4.256   0.059   0.441
 3734W        W 7934   6.306   6.933   1.287
 3735W        W 7935   6.069   4.816   1.785
 3736W        W 7936   7.774   5.575   1.118
 3737W        W 7937   7.294   9.389   0.987
 3738W        W 7938   5.166   9.193   0.726
 3739W        W 7939   1.885  10.017   1.836
 3740W        W 7940   5.285   4.653  10.277
 3741W        W 7941   4.301   3.802   0.233
 3742W        W 7942   3.088   2.569   9.456
 3743W        W 7943   6.909   4.709   9.848
 3744W        W 7944   5.047   9.674   0.708
 3745W        W 7945   5.219   0.865   3.018
 3746W        W 7946   9.389   3.560   2.910
 3747W        W 7947   0.286   6.334  10.667
 3748W        W 7948   0.775  11.308   1.415
 3749W        W 7949   3.268   4.239  11.055
 3750W        W 7950   4.054   0.302  10.171
 3751W        W 7951   0.466   5.762   1.560
 3752W        W 7952  10.838   3.231   0.018
 3753W        W 7953   8.148   8.179   2.764
 3754W        W 7954   6.234   8.306  11.836
 3755W        W 7955   9.089   6.506   9.373
 3756W        W 7956   2.162   3.890   2.658
 3757W        W 7957   3.552  10.847   1.213
 3758W        W 7958   9.631   1.907   9.841
 3759W        W 7959   8.301   4.315   2.438
 3760W        W 7960   9.490  10.770   1.850
 3761W        W 7961   9.532   8.551  11.786
 3762W        W 7962   3.301   1.944   0.290
 3763W        W 7963   3.908   9.100   2.498
 3764W        W 7964   9.273   1.372   3.073
 3765W        W 7965   6.113   0.310  10.254
 3766W        W 7966   7.624   4.614  10.966
 3767W        W 7967  10.848  11.060   0.820
 3768W        W 7968   6.059   8.123   0.714
 3769W        W 7969   6.669   4.674  11.218
 3770W        W 7970   2.221   4.251  10.088
 3771W        W 7971   8.509   3.633   9.971
 3772W        W 7972   0.713   9.733   1.180
 3773W        W 7973   3.020   0.422   2.397
 3774W        W 7974   8.432   3.631  10.549
 3775W        W 7975   2.908   5.160   2.081
 3776W        W 7976   6.090   4.118   9.127
 3777W        W 7977   9.281   5.415   3.435
 3778W        W 7978   2.571   5.658   3.124
 3779W        W 7979   6.906  10.669   8.608
 3780W        W 7980   4.187   5.630  10.247
 3781W        W 7981   6.673   3.142   2.331
 3782W        W 7982   0.804  11.238   9.492
 3783W        W 7983   0.346   7.602   8.810
 3784W        W 7984   8.004   1.898   2.443
 3785W        W 7985   9.786   7.901   0.470
 3786W        W 7986   9.840   6.029   9.369
 3787W        W 7987   3.361   3.327  11.564
 3788W        W 7988   5.675   0.886   2.734
 3789W        W 7989  10.960   9.947   3.143
 3790W        W 7990   2.152   8.232   8.702
 3791W        W 7991   8.594  10.083   9.374
 3792W        W 7992   1.824   5.975   9.107
 3793W        W 7993  11.280   7.481   2.098
 3794W        W 7994  10.060   5.338   1.498
 3795W        W 7995   7.943   8.180   9.706
 3796W        W 7996   8.016   1.937   8.950
 3797W        W 7997   9.840   0.900   2.537
 3798W        W 7998   5.690   9.893   0.420
 3799W        W 7999  10.792   2.729  11.283
 3800W        W 8000   9.789   1.514  11.792
 3801W        W 8001   8.990   2.973  11.090
 3802W        W 8002   3.415   5.677   0.573
 3803W        W 8003   0.691   1.196   9.064
 3804W        W 8004   2.556   2.225  10.449
 3805W        W 8005   1.845   3.592   1.312
 3806W        W 8006   3.636   7.855   9.559
 3807W        W 8007   7.892   7.402  10.827
 3808W        W 8008   5.236   3.498  10.530
 3809W        W 8009   4.718  10.035  10.534
 3810W        W 8010   7.954   3.813   9.062
 3811W        W 8011   3.635   8.582   1.217
 3812W        W 8012   6.662   7.390   2.321
 3813W        W 8013   7.594   7.548  11.229
 3814W        W 8014   3.144  10.462  10.346
 3815W        W 8015   0.629   2.787   1.227
 3816W        W 8016   9.802   2.356  10.378
 3817W        W 8017   8.488   9.379  11.137
 3818W        W 8018   8.526  10.566   9.514
 3819W        W 8019   4.463  11.336  10.114
 3820W        W 8020  11.212   9.143  11.530
 3821W        W 8021   1.605   9.354   3.500
 3822W        W 8022   8.096   5.436   8.210
 3823W        W 8023   2.017   8.888   9.556
 3824W        W 8024   8.749   5.331   3.378
 3825W        W 8025   8.434   8.193   1.783
 3826W        W 8026  10.948   1.231   9.659
 3827W        W 8027   9.102   8.089   2.429
 3828W        W 8028   3.946   9.992   1.765
 3829W        W 8029   8.199   5.503   9.458
 3830W        W 8030  10.692   2.331   1.878
 3831W        W 8031   7.384   4.470   1.225
 3832W        W 8032   9.465   6.968  10.834
 3833W        W 8033   0.459   6.852   2.561
 3834W        W 8034  10.382   6.552   0.478
 3835W        W 8035   1.777   4.106  11.823
 3836W        W 8036   4.674   4.100  10.896
 3837W        W 8037   0.548   4.967   3.679
 3838W        W 8038   1.782  10.238   1.402
 3839W        W 8039   7.227  11.431   0.338
 3840W        W 8040   6.288   6.991  10.056
 3841W        W 8041   9.993   9.771   8.767
 3842W        W 8042   2.470  10.523   1.758
 3843W        W 8043   8.913   2.968   0.183
 3844W        W 8044   9.416   0.392   9.342
 3845W        W 8045  10.281   1.286   1.993
 3846W        W 8046   0.792   3.501  10.825
 3847W        W 8047   6.928   1.496   2.594
 3848W        W 8048   8.458  10.498  11.569
 3849W        W 8049  11.005  10.316  10.865
 3850W        W 8050   9.500   1.908  11.922
 3851W        W 8051   3.515   3.339   2.350
 3852W        W 8052  10.006   0.377   0.356
 3853W        W 8053   3.786   8.976  11.985
 3854W        W 8054   8.975  10.363   1.347
 3855W        W 8055   3.776   0.252   0.295
 3856W        W 8056   2.303   1.412  10.035
 3857W        W 8057   9.405   3.627  10.327
 3858W        W 8058   6.978   9.497   9.557
 3859W        W 8059   8.578   5.104   4.139
 3860W        W 8060  10.137   0.805   1.476
 3861W        W 8061   1.418   1.443   2.725
 3862W        W 8062   0.783   9.348   1.510
 3863W        W 8063   7.305  10.939   0.703
 3864W        W 8064   6.462   2.296   2.739
 3865W        W 8065   9.562   1.825   3.011
 3866W        W 8066   4.986   3.373   1.930
 3867W        W 8067   2.441   1.313  11.631
 3868W        W 8068   7.182   3.473   2.209
 3869W        W 8069   8.507  10.959   9.181
 3870W        W 8070  10.462  10.965  10.591
 3871W        W 8071   9.818   3.571   1.822
 3872W        W 8072  11.377   6.688   8.930
 3873W        W 8073   0.194   9.512   3.677
 3874W        W 8074   3.559   5.414   1.368
 3875W        W 8075   6.004   1.851   9.351
 3876W        W 8076   4.711   4.311   0.923
 3877W        W 8077   6.036   1.753   0.510
 3878W        W 8078   3.140   3.456   9.138
 3879W        W 8079   6.108   7.464  10.776
 3880W        W 8080   4.491   8.895  10.578
 3881W        W 8081  10.948   9.403   0.497
 3882W        W 8082   5.118   4.668   0.706
 3883W        W 8083   4.471   8.716   9.008
 3884W        W 8084   5.760   1.855   3.155
 3885W        W 8085  10.309  10.141  11.433
 3886W        W 8086   5.735   4.378   9.414
 3887W        W 8087   9.512   7.393   8.984
 3888W        W 8088   4.768   0.689  10.773
 3889W        W 8089   4.270   4.224   9.538
 3890W        W 8090   7.222   1.823   2.946
 3891W        W 8091   1.335  10.431  11.505
 3892W        W 8092   4.468   1.254   1.312
 3893W        W 8093   4.806   3.629   9.594
 3894W        W 8094   3.371   7.142   3.274
 3895W        W 8095   8.981  10.738  11.718
 3896W        W 8096  11.244   5.770  11.336
 3897W        W 8097   4.790  10.647   0.868
 3898W        W 8098  11.315   0.169   0.200
 3899W        W 8099   4.194   9.882   9.741
 3900W        W 8100   3.586   8.011   2.619
 3901W        W 8101   3.140   9.895  11.996
 3902W        W 8102   2.694   9.078   9.937
 3903W        W 8103   9.445   9.293  10.749
 3904W        W 8104   5.528   4.705   0.161
 3905W        W 8105   8.455   0.500  11.967
 3906W        W 8106  10.907  11.257  11.368
 3907W        W 8107   8.851   5.859  11.460
 3908W        W 8108   9.548   3.623  10.846
 3909W        W 8109   6.329   5.205   2.757
 3910W        W 8110   5.216  10.138   9.437
 3911W        W 8111   0.465   3.305   0.874
 3912W        W 8112  11.407   1.346   3.117
 3913W        W 8113   8.357   1.252  10.554
 3914W        W 8114   4.922  10.850  11.772
 3915W        W 8115   1.761   0.187   9.147
 3916W        W 8116   4.626   8.423  10.728
 3917W        W 8117   5.607  11.287  10.788
 3918W        W 8118   8.535   1.746   2.559
 3919W        W 8119   6.358   7.298   0.947
 3920W        W 8120   0.262   9.031   8.761
 3921W        W 8121  10.512   2.259   2.353
 3922W        W 8122   4.227   9.468   1.985
 3923W        W 8123  10.368   8.530   2.640
 3924W        W 8124  11.311   3.827   9.949
 3925W        W 8125   7.155   0.327  11.586
 3926W        W 8126   2.249   5.754   1.960
 3927W        W 8127   0.458   3.653   1.935
 3928W        W 8128   8.050   2.214   1.252
 3929W        W 8129   7.223   7.837   9.948
 3930W        W 8130   2.745   7.941   2.320
 3931W        W 8131   7.410   5.238   2.250
 3932W        W 8132   8.410   6.424   3.587
 3933W        W 8133   7.640   5.075   2.694
 3934W        W 8134   9.676  10.243   2.051
 3935W        W 8135   6.054   7.797   1.841
 3936W        W 8136  10.390  11.451  10.768
 3937W        W 8137   5.653   1.726  11.186
 3938W        W 8138   7.208   5.190   1.571
 3939W        W 8139   8.579   1.840  11.738
 3940W        W 8140   3.280   2.706   1.839
 3941W        W 8141   0.504   4.347  10.317
 3942W        W 8142   1.214  11.024   1.519
 3943W        W 8143   3.891   4.100   0.357
 3944W        W 8144   9.462   4.777   8.328
 3945W        W 8145   9.034   4.755  11.038
 3946W        W 8146   7.663   1.018   2.488
 3947W        W 8147   4.492  10.841   8.450
 3948W        W 8148   7.195   8.419   0.911
 3949W        W 8149   7.603   8.384   3.222
 3950W        W 8150   5.414   7.765   3.084
 3951W        W 8151   6.285  11.354  11.401
 3952W        W 8152   3.791   2.795   1.670
 3953W        W 8153   7.518   3.107  11.849
 3954W        W 8154   3.252   1.825   1.406
 3955W        W 8155   7.939   3.161   1.644
 3956W        W 8156   1.968   9.450  10.396
 3957W        W 8157   1.052   5.578  10.991
 3958W        W 8158   9.333   2.857   2.073
 3959W        W 8159   2.705   7.599   3.164
 3960W        W 8160   8.460   4.295   0.010
 3961W        W 8161   7.152   7.351   1.614
 3962W        W 8162   7.155   4.568   3.638
 3963W        W 8163   6.663   3.086   1.806
 3964W        W 8164   4.184   3.844   2.865
 3965W        W 8165   4.257   8.851  10.094
 3966W        W 8166   7.873   4.455  11.728
 3967W        W 8167   2.193   7.441  10.876
 3968W        W 8168   9.542   4.593  11.932
 3969W        W 8169   2.115   6.152   2.889
 3970W        W 8170   1.349   8.690  10.596
 3971W        W 8171   8.332   5.080   9.154
 3972W        W 8172   4.799  10.403   1.326
 3973W        W 8173   6.063   3.209   9.889
 3974W        W 8174   9.050   5.577   1.621
 3975W        W 8175   8.469   7.134   1.863
 3976W        W 8176   9.055   4.701   0.343
 3977W        W 8177   5.853   2.641  10.475
 3978W        W 8178   2.084   5.648   2.967
 3979W        W 8179   1.789   8.791  11.793
 3980W        W 8180  11.434   9.017   0.455
 3981W        W 8181   0.719   7.727   2.940
 3982W        W 8182   5.139   9.971   9.926
 3983W        W 8183   8.625   9.301  10.122
 3984W        W 8184   4.791   0.739   9.004
 3985W        W 8185   7.694   2.192   9.255
 3986W        W 8186   4.834   0.826   0.633
 3987W        W 8187   7.644  11.195  11.064
 3988W        W 8188   2.363   3.819   2.189
 3989W        W 8189   8.101   7.200   1.185
 3990W        W 8190   6.743   4.989   0.559
 3991W        W 8191   6.630  10.889   2.749
 3992W        W 8192   1.317   3.785   2.469
 3993W        W 8193   0.722   5.722   0.666
 3994W        W 8194   4.699   1.742   8.930
 3995W        W 8195   8.965   9.553   2.713
 3996W        W 8196   2.029   0.488  10.532
 3997W        W 8197   6.580   1.255   9.089
 3998W        W 8198   6.130   6.942  11.980
 3999W        W 8199   8.908   7.749   0.440
 4000W        W 8200   5.281   8.039   0.035
 4001W        W 8201   2.204   0.892   1.223
 4002W        W 8202   9.479   4.615   3.326
 4003W        W 8203  10.418   0.532   9.713
 4004W        W 8204   7.434   9.253   2.391
 4005W        W 8205  11.278   1.731   1.246
 4006W        W 8206   7.617   8.466  10.991
 4007W        W 8207   1.934  10.796   2.281
 4008W        W 8208   4.384   9.519   3.093
 4009W        W 8209   4.230   2.800   2.822
 4010W        W 8210   9.624   5.986   2.354
 4011W        W 8211   7.971   3.756   9.920
 4012W        W 8212   3.329   5.421   1.924
 4013W        W 8213   4.651   4.365   2.150
 4014W        W 8214   5.912   4.051   3.072
 4015W        W 8215   7.172  10.954   2.772
 4016W        W 8216   9.320   4.617   1.351
 4017W        W 8217   2.654   7.599  10.705
 4018W        W 8218  10.713   2.180  10.624
 4019W        W 8219   1.319   2.278   0.431
 4020W        W 8220   6.080   6.415   0.940
 4021W        W 8221   3.366   1.398   3.327
 4022W        W 8222   6.618   7.029   3.993
 4023W        W 8223   5.695   8.206  10.341
 4024W        W 8224   1.316   5.177   3.352
 4025W        W 8225   2.890   9.277   8.760
 4026W        W 8226   8.253   5.642   3.337
 4027W        W 8227   0.358   2.868   3.378
 4028W        W 8228   2.930   0.752   1.701
 4029W        W 8229   5.720  10.904   8.570
 4030W        W 8230   5.941   1.314  11.295
 4031W        W 8231   6.445   6.145   1.733
 4032W        W 8232   1.275   0.813   8.854
 4033W        W 8233   9.525   4.149   0.854
 4034W        W 8234   3.876   6.881   2.421
 4035W        W 8235   4.309   8.512   9.461
 4036W        W 8236   4.604   8.041   0.491
 4037W        W 8237   3.016   5.112   0.042
 4038W        W 8238   9.380   1.371   9.096
 4039W        W 8239   6.891  10.593   0.515
 4040W        W 8240   5.703   1.164   1.704
 4041W        W 8241  11.318   6.637   1.798
 4042W        W 8242   3.955  10.507   3.454
 4043W        W 8243   3.730   0.268  11.792
 4044W        W 8244   4.036   8.504   0.009
 4045W        W 8245   2.489   0.566   9.653
 4046W        W 8246   2.752  11.388   9.032
 4047W        W 8247   1.789   3.624  11.201
 4048W        W 8248   3.652   6.393   8.598
 4049W        W 8249   1.201   1.879   1.531
 4050W        W 8250  11.298   7.496  10.062
 4051W        W 8251   6.743   7.857   8.273
 4052W        W 8252   0.409  11.267  10.735
 4053W        W 8253   8.766   7.584  11.966
 4054W        W 8254   5.517   3.032  10.687
 4055W        W 8255   6.642   1.870  10.857
 4056W        W 8256  11.277   5.138   9.230
 4057W        W 8257   8.090   9.318  11.945
 4058W        W 8258   7.454   0.528   9.491
 4059W        W 8259   3.245   4.630   0.935
 4060W        W 8260   7.694   9.993   9.513
 4061W        W 8261   4.015   8.466   9.049
 4062W        W 8262   1.746  11.175   0.495
 4063W        W 8263   9.441  11.055   8.715
 4064W        W 8264   0.551   6.186   1.884
 4065W        W 8265   5.016   3.818   1.689
 4066W        W 8266   5.526   5.198  11.862
 4067W        W 8267   2.146   8.406  11.746
 4068W        W 8268   2.354   3.402   8.633
 4069W        W 8269  10.785   5.537  10.480
 4070W        W 8270   3.997   0.936   9.519
 4071W        W 8271   7.606   3.757   1.662
 4072W        W 8272   4.726   9.117  10.183
 4073W        W 8273  10.807   3.901   0.070
 4074W        W 8274   7.950  11.189  11.878
 4075W        W 8275   5.634   0.227  10.494
 4076W        W 8276   3.082   5.125   9.167
 4077W        W 8277   6.771  10.630   0.020
 4078W        W 8278   2.232   9.868  11.838
 4079W        W 8279   4.013   3.165   2.375
 4080W        W 8280   3.207   6.341   4.017
 4081W        W 8281   7.536   0.080   2.669
 4082W        W 8282   3.094  10.008  10.542
 4083W        W 8283   2.943  10.629   1.925
 4084W        W 8284   6.822   1.967   8.410
 4085W        W 8285   8.465   7.491  11.502
 4086W        W 8286   9.517   4.580   8.796
 4087W        W 8287   6.315   8.052  11.385
 4088W        W 8288   1.037   6.278   1.932
 4089W        W 8289  11.006   1.804  11.416
 4090W        W 8290   2.645   7.515   9.358
 4091W        W 8291   8.310   7.763  11.962
 4092W        W 8292   9.531   4.896   0.330
 4093W        W 8293   0.036   2.877  10.791
 4094W        W 8294   6.722  10.288  10.582
 4095W        W 8295   3.758   3.878   8.563
 4096W        W 8296   5.758   8.851   9.452
 4097W        W 8297   3.530   5.349   3.255
 4098W        W 8298   6.637   6.810  11.202
 4099W        W 8299   0.553   9.473   0.765
 4100W        W 8300   3.722   1.691   3.070
 4101W        W 8301   0.552   3.832  12.000
 4102W        W 8302   9.770   1.941  10.876
 4103W        W 8303   5.683   2.172   0.080
 4104W        W 8304   6.429   6.593   2.828
 4105W        W 8305   2.321   4.807  11.858
 4106W        W 8306   0.787   8.532   1.768
 4107W        W 8307  11.072  10.588  11.819
 4108W        W 8308   5.006   4.747   9.852
 4109W        W 8309   3.003   0.773   8.578
 4110W        W 8310   4.478   4.825   9.818
 4111W        W 8311   0.555   7.458   3.740
 4112W        W 8312  10.876   9.522   0.972
 4113W        W 8313   9.818   9.505  11.020
 4114W        W 8314   3.991   0.013   3.217
 4115W        W 8315   9.613   5.959  10.472
 4116W        W 8316   1.957   0.822   1.693
 4117W        W 8317  11.233   2.751   2.433
 4118W        W 8318   3.177   6.676   3.120
 4119W        W 8319   9.944   7.668  10.125
 4120W        W 8320   6.862  11.184   8.615
 4121W        W 8321   2.184   1.366   0.992
 4122W        W 8322   5.273   0.984   1.429
 4123W        W 8323   0.395  10.561   1.382
 4124W        W 8324   8.440   6.196   8.648
 4125W        W 8325  10.847  10.317   8.964
 4126W        W 8326   1.723   8.523   9.330
 4127W        W 8327  10.844   7.875   0.459
 4128W        W 8328   0.061   6.214   1.969
 4129W        W 8329  11.442   7.630   9.590
 4130W        W 8330  10.014   8.494  11.223
 4131W        W 8331  11.351   4.107  11.237
 4132W        W 8332  11.457  10.085   2.935
 4133W        W 8333   6.054   3.757  10.979
 4134W        W 8334   9.798   4.101  10.932
 4135W        W 8335  10.979   6.825  10.620
 4136W        W 8336   2.433  10.511   9.156
 4137W        W 8337   4.331   4.310   0.146
 4138W        W 8338   2.776   0.752  10.986
 4139W        W 8339   6.550   1.262   2.873
 4140W        W 8340   9.428   4.079   8.556
 4141W        W 8341   6.751   2.738   3.173
 4142W        W 8342   6.573  11.046   9.838
 4143W        W 8343   8.801  11.016   0.834
 4144W        W 8344   0.161   2.663  11.517
 4145W        W 8345   6.812   0.830   0.261
 4146W        W 8346   0.313   4.370  11.263
 4147W        W 8347   1.070   4.948   1.804
 4148W        W 8348   6.714  10.348  11.601
 4149W        W 8349   4.023   4.605   0.401
 4150W        W 8350   0.958   3.356   8.889
 4151W        W 8351   0.868  10.848   0.677
 4152W        W 8352   8.196   6.650   1.847
 4153W        W 8353   1.750   9.882   1.036
 4154W        W 8354   7.724   9.596   0.784
 4155W        W 8355  10.093   1.758   0.623
 4156W        W 8356   7.585   3.998   1.164
 4157W        W 8357   9.520   6.212   0.035
 4158W        W 8358   2.826  10.838   9.114
 4159W        W 8359   1.656   4.314  11.306
 4160W        W 8360   7.027   3.226   3.297
 4161W        W 8361   3.655   6.099   2.853
 4162W        W 8362   9.423  11.249   3.249
 4163W        W 8363  10.688   7.125   9.494
 4164W        W 8364   8.155  10.977  10.913
 4165W        W 8365   5.654   7.694   3.551
 4166W        W 8366   2.955   6.495   3.592
 4167W        W 8367  10.515   6.148   0.175
 4168W        W 8368   2.673   3.442   2.014
 4169W        W 8369   6.576   1.840  11.388
 4170W        W 8370  11.283   8.935  10.608
 4171W        W 8371   8.777   6.978   9.034
 4172W        W 8372  10.714  10.335   2.202
 4173W        W 8373   9.946   9.032   3.183
 4174W        W 8374   2.790   6.130  10.837
 4175W        W 8375   9.839   1.057  11.582
 4176W        W 8376   9.651  10.595   8.513
 4177W        W 8377   9.146  10.371   0.871
 4178W        W 8378  10.429   2.165   1.453
 4179W        W 8379   3.515   1.505  11.228
 4180W        W 8380   5.612   1.355   2.503
 4181W        W 8381   3.961   0.672   2.492
 4182W        W 8382  10.809   4.163   8.571
 4183W        W 8383   7.649  10.707  11.908
 4184W        W 8384   7.712   9.025   0.095
 4185W        W 8385  10.681  10.168   8.519
 4186W        W 8386   6.074   4.289  10.967
 4187W        W 8387   8.974   2.775   3.340
 4188W        W 8388   9.887   8.554   2.432
 4189W        W 8389   3.137   3.719  10.866
 4190W        W 8390   2.383   4.657   8.287
 4191W        W 8391   1.920   7.053  11.139
 4192W        W 8392   2.059   1.283   2.307
 4193W        W 8393   2.770   0.476  11.402
 4194W        W 8394   9.929  11.070   1.810
 4195W        W 8395   1.808  10.260  10.214
 4196W        W 8396   9.613   8.576   1.452
 4197W        W 8397  10.715  10.303  10.007
 4198W        W 8398   9.501   6.977   3.260
 4199W        W 8399   5.547   5.264  10.450
 4200W        W 8400   5.710   7.704   8.389
 4201W        W 8401  11.398   6.757  11.413
 4202W        W 8402   9.721   8.307   0.187
 4203W        W 8403   3.769  11.489  11.353
 4204W        W 8404  10.304   8.161  10.597
 4205W        W 8405  10.802   0.936   0.771
 4206W        W 8406   0.807   7.431  10.460
 4207W        W 8407   8.142   6.567   8.436
 4208W        W 8408  10.862   5.176   0.846
 4209W        W 8409   7.593   2.585  10.970
 4210W        W 8410   4.647   7.501  10.815
 4211W        W 8411  10.359   6.436  10.499
 4212W        W 8412   6.066   0.379  10.763
 4213W        W 8413   3.949  11.261   2.690
 4214W        W 8414   2.833   4.539   2.498
 4215W        W 8415   5.033  11.211   8.820
 4216W        W 8416   1.696  11.247   1.423
 4217W        W 8417   2.894   6.071   2.440
 4218W        W 8418   9.885   1.655   2.030
 4219W        W 8419   4.689   1.250   9.110
 4220W        W 8420   4.228   2.765   0.954
 4221W        W 8421   6.636   0.294   2.488
 4222W        W 8422   7.488   0.722   8.694
 4223W        W 8423   7.931   8.252   3.621
 4224W        W 8424   9.457   0.054   2.415
 4225W        W 8425   6.746   5.670   0.998
 4226W        W 8426   9.626   3.420   0.393
 4227W        W 8427  10.853   2.657   2.786
 4228W        W 8428   2.710   9.800   2.193
 4229W        W 8429   8.018   9.404  11.405
 4230W        W 8430   8.349   9.932   3.270
 4231W        W 8431   9.997   3.095   9.258
 4232W        W 8432   4.928  11.489   2.031
 4233W        W 8433   0.009   8.073   0.856
 4234W        W 8434   8.835   6.908   0.961
 4235W        W 8435   3.696   4.477   3.566
 4236W        W 8436  10.303   2.232   9.018
 4237W        W 8437   2.853   7.771  11.177
 4238W        W 8438   3.699   8.440  10.277
 4239W        W 8439   9.117   4.166   1.215
 4240W        W 8440   1.717   5.712   1.641
 4241W        W 8441   8.264   8.398   9.341
 4242W        W 8442  10.895   1.837   0.294
 4243W        W 8443   9.499   7.888   9.880
 4244W        W 8444   7.802   6.100   1.521
 4245W        W 8445   9.717   7.198   1.449
 4246W        W 8446   1.219   4.947   0.947
 4247W        W 8447  10.814   4.991   9.038
 4248W        W 8448   5.050   7.011   2.025
 4249W        W 8449   4.055  10.920   1.355
 4250W        W 8450   4.331   9.627  10.574
 4251W        W 8451  11.130   4.228  10.803
 4252W        W 8452   9.132   0.849   0.320
 4253W        W 8453   0.949   3.124  10.472
 4254W        W 8454   6.838   6.199  11.371
 4255W        W 8455   4.235   1.113   2.571
 4256W        W 8456   8.075   1.167  11.645
 4257W        W 8457   8.361   6.098  11.458
 4258W        W 8458   0.926  10.443   0.368
 4259W        W 8459   0.345   4.675   8.485
 4260W        W 8460   3.888   8.857   8.721
 4261W        W 8461   5.368   9.848   1.673
 4262W        W 8462   0.814   8.162   0.980
 4263W        W 8463   3.437   1.288   2.007
 4264W        W 8464   9.123   1.374   0.475
 4265W        W 8465   8.433   4.311   1.952
 4266W        W 8466  10.268   9.556   9.211
 4267W        W 8467   0.985   8.482   9.788
 4268W        W 8468   7.259   2.324   2.895
 4269W        W 8469   9.460   4.401   0.416
 4270W        W 8470  10.415   6.668  11.479
 4271W        W 8471   2.929   9.029   3.268
 4272W        W 8472   6.024   4.790   2.661
 4273W        W 8473   5.352   3.129   9.366
 4274W        W 8474   0.791   0.145   9.140
 4275W        W 8475   7.235   1.933  10.394
 4276W        W 8476   1.441   7.134   9.053
 4277W        W 8477   4.218   7.431  11.406
 4278W        W 8478  10.960   5.700   2.291
 4279W        W 8479   9.163   9.796   0.084
 4280W        W 8480   8.003   4.075   0.079
 4281W        W 8481  11.052   8.049   1.664
 4282W        W 8482  10.988   5.217   3.013
 4283W        W 8483   1.350   6.619  11.869
 4284W        W 8484   7.942   4.330   9.058
 4285W        W 8485   0.243   8.497   2.461
 4286W        W 8486   0.306   1.831  11.099
 4287W        W 8487   8.879   0.941   0.757
 4288W        W 8488   6.285   2.156   2.252
 4289W        W 8489  10.218   1.032   2.862
 4290W        W 8490   0.015   3.800   9.497
 4291W        W 8491   7.947   7.776   3.805
 4292W        W 8492   9.529   9.115   2.222
 4293W        W 8493  11.249   6.989   2.203
 4294W        W 8494   7.097  10.338   1.955
 4295W        W 8495   7.104  10.133   0.549
 4296W        W 8496   0.931   7.976   1.991
 4297W        W 8497   4.248   8.469   8.598
 4298W        W 8498  10.104   9.004   2.677
 4299W        W 8499   2.420   9.097   3.265
 4300W        W 8500   0.445   0.305   3.626
 4301W        W 8501   8.243   3.220   3.566
 4302W        W 8502   4.072   7.168   1.025
 4303W        W 8503   4.727   6.098   3.539
 4304W        W 8504  10.819   8.556   2.885
 4305W        W 8505   8.166   9.516  10.011
 4306W        W 8506   3.131   6.529   2.180
 4307W        W 8507   0.296   6.514   0.018
 4308W        W 8508   1.674   1.412   0.926
 4309W        W 8509   2.772   8.492   0.995
 4310W        W 8510   7.678   5.137  10.241
 4311W        W 8511   8.149   7.697   2.634
 4312W        W 8512   4.639   0.291  11.490
 4313W        W 8513   6.552   6.223  11.915
 4314W        W 8514   7.056   1.190  10.536
 4315W        W 8515  10.940   1.136   2.710
 4316W        W 8516   0.623   4.662   9.430
 4317W        W 8517   9.418  10.927  11.518
 4318W        W 8518   9.372   9.858   1.857
 4319W        W 8519   9.035   3.632   9.875
 4320W        W 8520   9.963   4.758   2.783
 4321W        W 8521   3.868   5.968   9.509
 4322W        W 8522   8.961   8.997   8.906
 4323W        W 8523   6.805   2.225   3.095
 4324W        W 8524   7.710   6.191   0.467
 4325W        W 8525   4.561   3.437  11.928
 4326W        W 8526   6.472   3.189   3.217
 4327W        W 8527   4.495   2.060   3.566
 4328W        W 8528   7.549   1.895   1.403
 4329W        W 8529   9.846   3.596   2.659
 4330W        W 8530  11.176   9.441   1.957
 4331W        W 8531   9.141   8.558   9.888
 4332W        W 8532   4.515  10.290   0.213
 4333W        W 8533   2.746   4.248   7.764
 4334W        W 8534   2.722  10.638  11.668
 4335W        W 8535  10.456   5.961  10.732
 4336W        W 8536   6.046   3.711   3.617
 4337W        W 8537   6.229   3.668   9.401
 4338W        W 8538   1.182   7.030  10.515
 4339W        W 8539   6.162   0.925  11.560
 4340W        W 8540   7.196  10.515  11.733
 4341W        W 8541   4.706   2.475   1.104
 4342W        W 8542   3.172  11.293  11.102
 4343W        W 8543  10.186   4.168   8.513
 4344W        W 8544   8.425  10.012  11.808
 4345W        W 8545   9.173   3.136  10.234
 4346W        W 8546   6.490   9.806   3.402
 4347W        W 8547   6.290  10.298   3.420
 4348W        W 8548   1.271   5.327   2.864
 4349W        W 8549   9.353   4.736  11.472
 4350W        W 8550   1.754   2.560   0.474
 4351W        W 8551   8.914   4.272  10.882
 4352W        W 8552   2.772   0.317   1.959
 4353W        W 8553   0.648   8.677   2.243
 4354W        W 8554   4.463   0.829   0.274
 4355W        W 8555  10.371   7.938  10.157
 4356W        W 8556   6.976  11.297  10.014
 4357W        W 8557   6.697   0.167  11.468
 4358W        W 8558  10.008   8.390  11.724
 4359W        W 8559   4.075   8.837   0.393
 4360W        W 8560  10.915   6.556   1.185
 4361W        W 8561   8.875   0.514   8.444
 4362W        W 8562   5.036   3.229   9.764
 4363W        W 8563   1.155  10.537   9.110
 4364W        W 8564   3.875  10.350   0.901
 4365W        W 8565   2.987   3.168  11.883
 4366W        W 8566   5.904   6.611   8.912
 4367W        W 8567   8.741   6.861   8.163
 4368W        W 8568   9.848   1.321   9.292
 4369W        W 8569  11.319  10.298   3.412
 4370W        W 8570   2.398   2.000  11.948
 4371W        W 8571   6.141  10.031   9.465
 4372W        W 8572  10.273   2.625   1.279
 4373W        W 8573   5.226   2.586   3.115
 4374W        W 8574   7.565   3.400  11.429
 4375W        W 8575   4.061   7.042  10.410
 4376W        W 8576   4.530   6.644  11.944
 4377W        W 8577   3.815   2.236   2.399
 4378W        W 8578   3.212   1.004   3.025
 4379W        W 8579   6.195   9.050  11.544
 4380W        W 8580   0.760   0.993   3.201
 4381W        W 8581   8.311   6.046   9.112
 4382W        W 8582   2.806  10.523   2.765
 4383W        W 8583   8.114   3.314   9.115
 4384W        W 8584  11.312   9.570   2.949
 4385W        W 8585  11.351   8.466   1.132
 4386W        W 8586   4.441   0.058   1.881
 4387W        W 8587   8.086   7.413   3.061
 4388W        W 8588  11.442   3.233   2.638
 4389W        W 8589   4.797   2.586  10.971
 4390W        W 8590  10.362   7.695   3.245
 4391W        W 8591   9.419   2.686  10.382
 4392W        W 8592  10.963   7.116   1.787
 4393W        W 8593   9.333   8.812   1.825
 4394W        W 8594   0.905   4.104   3.180
 4395W        W 8595   6.061   2.273  11.132
 4396W        W 8596   7.832  10.820   1.047
 4397W        W 8597   7.214  11.351  11.394
 4398W        W 8598   3.157   4.113  10.117
 4399W        W 8599   7.530   7.087  10.991
 4400W        W 8600   9.866   0.029   1.624
 4401W        W 8601  11.420   5.035  11.606
 4402W        W 8602   9.549   6.165   3.871
 4403W        W 8603   3.698   6.777  11.913
 4404W        W 8604  10.873  10.817   2.152
 4405W        W 8605   9.940   6.695   9.850
 4406W        W 8606   4.681   9.432   1.714
 4407W        W 8607   0.582   6.019  10.329
 4408W        W 8608   4.583   2.533   0.268
 4409W        W 8609   4.971   0.388   3.257
 4410W        W 8610   7.740   4.555   9.498
 4411W        W 8611   3.139   1.299   1.039
 4412W        W 8612   8.452   2.228   8.941
 4413W        W 8613   0.800   2.850   0.162
 4414W        W 8614   4.349   9.073   2.795
 4415W        W 8615   7.996   2.839   3.317
 4416W        W 8616   0.332   3.132   1.934
 4417W        W 8617   3.452   6.721   3.569
 4418W        W 8618   0.130   2.559   9.515
 4419W        W 8619   8.883   2.506   8.886
 4420W        W 8620   9.220   8.329   1.826
 4421W        W 8621   9.875   9.956  10.752
 4422W        W 8622  10.348   8.998  10.431
 4423W        W 8623   6.400   7.968   3.712
 4424W        W 8624   5.596   3.361   0.621
 4425W        W 8625   9.945   4.420   3.171
 4426W        W 8626  11.020   3.592   2.241
 4427W        W 8627  10.885   1.980   9.672
 4428W        W 8628   3.468   7.680   1.294
 4429W        W 8629   3.253   1.967  11.746
 4430W        W 8630   8.995   6.114  11.880
 4431W        W 8631   0.697   1.218   2.008
 4432W        W 8632   3.805   9.510   1.701
 4433W        W 8633   5.714   1.353   3.000
 4434W        W 8634  10.731   2.728   2.252
 4435W        W 8635   8.752   9.112   2.903
 4436W        W 8636   1.174   1.565   8.463
 4437W        W 8637  10.296  10.969   9.077
 4438W        W 8638   6.607  11.483   3.404
 4439W        W 8639   1.438   4.824   9.120
 4440W        W 8640   4.580  11.376   8.567
 4441W        W 8641   9.794   3.617   0.850
 4442W        W 8642   2.777   2.471   1.825
 4443W        W 8643   6.840   6.239   9.237
 4444W        W 8644   2.348   8.428  11.257
 4445W        W 8645   3.188   0.048   0.890
 4446W        W 8646   3.059   3.735  11.742
 4447W        W 8647   7.617   0.329   2.235
 4448W        W 8648   0.227   2.843   2.429
 4449W        W 8649   5.151   8.188   2.439
 4450W        W 8650  11.335   0.498   9.065
 4451W        W 8651   1.321   1.824   2.181
 4452W        W 8652   1.223   3.240   9.324
 4453W        W 8653   9.982   4.332   0.401
 4454W        W 8654   9.451   1.575   1.770
 4455W        W 8655   2.628   8.348   0.509
 4456W        W 8656   9.808  10.564   9.936
 4457W        W 8657   1.299   3.307   0.715
 4458W        W 8658   1.628   1.435   3.478
 4459W        W 8659   1.961   9.866   9.319
 4460W        W 8660   2.370   5.825  10.899
 4461W        W 8661   1.042   5.028   9.552
 4462W        W 8662   7.580   3.165   9.177
 4463W        W 8663   0.077   5.948  10.367
 4464W        W 8664   9.254   4.590  10.595
 4465W        W 8665   3.120   0.599   3.298
 4466W        W 8666   9.260   1.176  10.998
 4467W        W 8667  10.396   6.770   2.393
 4468W        W 8668   9.015   1.192   1.305
 4469W        W 8669   4.755   1.714  11.195
 4470W        W 8670   9.393   6.364  10.117
 4471W        W 8671   1.863   3.710   3.305
 4472W        W 8672   9.501   5.022   9.539
 4473W        W 8673  10.910   4.377  11.316
 4474W        W 8674   6.121   9.211   1.505
 4475W        W 8675   4.448   7.809   9.341
 4476W        W 8676   7.018   8.916   9.011
 4477W        W 8677   8.200   0.847  10.270
 4478W        W 8678   8.621   6.673   8.637
 4479W        W 8679   2.924   9.343   2.164
 4480W        W 8680   6.031   6.824   2.618
 4481W        W 8681   3.423   6.214   9.697
 4482W        W 8682   6.758   9.342   0.109
 4483W        W 8683   7.053   3.236  11.616
 4484W        W 8684   1.518   6.094  11.730
 4485W        W 8685   1.195   8.303   3.250
 4486W        W 8686   8.909   6.609   0.012
 4487W        W 8687   3.168   6.114   8.787
 4488W        W 8688   8.031   2.834  10.800
 4489W        W 8689  11.375  10.840   9.176
 4490W        W 8690   1.292   2.246   9.532
 4491W        W 8691   2.594   6.851   3.632
 4492W        W 8692   2.259   3.351   9.133
 4493W        W 8693   0.936   1.656   1.893
 4494W        W 8694   4.061   5.090  11.534
 4495W        W 8695   3.770   0.810  10.007
 4496W        W 8696  10.947   3.971   9.628
 4497W        W 8697   5.691   0.146   9.975
 4498W        W 8698   8.638   1.777   9.860
 4499W        W 8699   7.464   1.854   1.933
 4500W        W 8700  10.779   4.303   3.295
 4501W        W 8701   0.946   2.851   8.987
 4502W        W 8702   4.780   8.040   1.490
 4503W        W 8703   9.099   1.242   2.150
 4504W        W 8704   9.965   5.081  10.790
 4505W        W 8705   5.891   4.113   1.299
 4506W        W 8706   2.165   8.483   0.277
 4507W        W 8707   8.834   3.070   9.801
 4508W        W 8708  10.834   1.839   2.258
 4509W        W 8709   4.257   4.669  10.252
 4510W        W 8710   5.527   5.468  10.929
 4511W        W 8711   1.754   4.214   3.246
 4512W        W 8712   0.443   2.670  11.035
 4513W        W 8713   4.362   0.894   0.858
 4514W        W 8714   4.505  10.564  11.810
 4515W        W 8715  10.548   0.065  11.239
 4516W        W 8716   4.865   6.174   1.516
 4517W        W 8717   8.891   0.682   1.215
 4518W        W 8718  10.806   0.848  11.338
 4519W        W 8719   8.105   2.461   2.367
 4520W        W 8720   7.636  10.904   3.045
 4521W        W 8721   5.656   7.571  10.961
 4522W        W 8722   8.413   2.817   2.603
 4523W        W 8723   4.297   0.724   2.910
 4524W        W 8724   8.534   9.334   9.634
 4525W        W 8725   3.105   1.920  10.352
 4526W        W 8726   8.874   2.916   9.224
 4527W        W 8727   3.374   6.082   0.281
 4528W        W 8728   1.910   9.334   8.698
 4529W        W 8729   3.560   9.029  11.534
 4530W        W 8730   6.099   4.546   8.368
 4531W        W 8731   9.404   5.740   1.972
 4532W        W 8732   4.729  11.328   0.440
 4533W        W 8733   6.303   1.658  10.523
 4534W        W 8734   3.580   1.028  11.380
 4535W        W 8735  11.499   3.162  11.578
 4536W        W 8736   3.906   4.392   8.583
 4537W        W 8737   6.508   2.353   9.844
 4538W        W 8738   5.222   9.134   2.775
 4539W        W 8739   1.881   0.940  11.171
 4540W        W 8740   3.963   0.498   3.434
 4541W        W 8741   6.984   3.641   9.912
 4542W        W 8742   2.133   2.052   1.948
 4543W        W 8743   3.479   4.576   9.854
 4544W        W 8744   6.529   7.294  11.041
 4545W        W 8745   7.144   6.404   9.629
 4546W        W 8746   2.188   3.309  10.972
 4547W        W 8747   7.293   4.957   8.361
 4548W        W 8748   8.562   4.118  11.265
 4549W        W 8749  10.740   9.536  10.585
 4550W        W 8750   4.146   7.072  11.808
 4551W        W 8751   6.876   2.241  10.583
 4552W        W 8752  10.516   1.768  11.355
 4553W        W 8753   3.903   9.348   0.307
 4554W        W 8754   6.514   7.454  10.042
 4555W        W 8755   7.138   0.341   0.632
 4556W        W 8756   4.593   4.168   9.094
 4557W        W 8757   6.945   3.519   1.740
 4558W        W 8758   9.669   3.994   9.353
 4559W        W 8759   9.042  11.026   3.514
 4560W        W 8760   3.577   3.811   3.023
 4561W        W 8761   7.824   3.533   0.695
 4562W        W 8762   4.193   9.913   2.260
 4563W        W 8763   7.212   0.444  10.557
 4564W        W 8764   9.443   6.845   1.676
 4565W        W 8765   2.895   6.538   9.049
 4566W        W 8766   0.031   0.670   0.651
 4567W        W 8767   2.737  10.296   2.289
 4568W        W 8768   3.169   8.570   3.230
 4569W        W 8769   8.596   8.648   9.027
 4570W        W 8770  11.361   7.522  11.100
 4571W        W 8771   4.183   3.353  10.919
 4572W        W 8772   7.148   2.260   1.353
 4573W        W 8773   5.265   3.134   4.013
 4574W        W 8774   6.591   8.789   3.355
 4575W        W 8775   8.873   1.949   0.776
 4576W        W 8776  10.081   7.955  11.964
 4577W        W 8777  11.326   6.823   3.173
 4578W        W 8778   3.295   9.503   9.336
 4579W        W 8779   0.065   6.995   9.320
 4580W        W 8780   4.627  11.257  11.102
 4581W        W 8781  10.027   9.904   2.189
 4582W        W 8782  10.889   3.115  10.418
 4583W        W 8783  10.318  10.323   2.667
 4584W        W 8784   2.393   9.474   1.175
 4585W        W 8785   2.356   7.332   3.526
 4586W        W 8786  10.807   6.751   3.161
 4587W        W 8787  11.245   7.581   3.427
 4588W        W 8788   6.568   4.247  10.280
 4589W        W 8789   9.526   9.467   1.025
 4590W        W 8790   2.154   7.388   9.485
 4591W        W 8791   8.966   1.685   8.375
 4592W        W 8792   0.340   3.129   0.349
 4593W        W 8793   9.054  10.010   2.522
 4594W        W 8794   0.494   3.479   3.645
 4595W        W 8795   8.839   2.927   8.589
 4596W        W 8796  11.379   7.480  10.570
 4597W        W 8797  10.311   2.866   0.822
 4598W        W 8798   5.095   4.794  11.217
 4599W        W 8799   2.831   5.535   9.702
 4600W        W 8800   1.481   2.755   1.997
 4601W        W 8801   6.408   3.535   1.799
 4602W        W 8802   5.185   1.688   8.757
 4603W        W 8803   3.408   3.832   2.532
 4604W        W 8804   9.631  10.442   0.779
 4605W        W 8805   5.635   6.263  10.703
 4606W        W 8806   8.700   8.465  10.159
 4607W        W 8807   1.750   2.232   9.277
 4608W        W 8808  10.509   3.798   9.821
 4609W        W 8809   3.810   4.710   9.002
 4610W        W 8810   5.386   7.398   9.307
 4611W        W 8811   5.525   2.435   1.930
 4612W        W 8812   5.570   0.717  11.216
 4613W        W 8813   6.692   8.509  11.976
 4614W        W 8814   1.848   6.659   0.833
 4615W        W 8815   2.837   9.286  10.387
 4616W        W 8816  10.455   1.160   0.257
 4617W        W 8817   6.982   7.805   9.461
 4618W        W 8818   1.391  10.365  10.997
 4619W        W 8819   3.461   0.913   2.568
 4620W        W 8820  10.800   5.448   0.290
 4621W        W 8821   8.162   3.152   0.678
 4622W        W 8822   3.131   1.414  11.548
 4623W        W 8823   8.306   3.152   9.925
 4624W        W 8824   1.854  10.551  11.738
 4625W        W 8825  10.860   7.525   0.823
 4626W        W 8826   0.035  10.477  10.861
 4627W        W 8827  11.003   2.227  11.083
 4628W        W 8828  11.158   4.145  11.733
 4629W        W 8829   1.505   2.293  11.387
 4630W        W 8830   8.863   0.189  11.774
 4631W        W 8831  10.806   5.751   1.792
 4632W        W 8832   9.215   0.108  10.356
 4633W        W 8833   5.154   7.720   2.633
 4634W        W 8834   9.028   6.743  10.431
 4635W        W 8835   3.546   9.078   9.619
 4636W        W 8836   4.232   6.133  10.290
 4637W        W 8837   2.330   2.590   2.635
 4638W        W 8838   6.660   9.322   3.342
 4639W        W 8839   6.075   8.827   9.858
 4640W        W 8840   8.180   4.077  11.594
 4641W        W 8841   1.311  10.876   0.997
 4642W        W 8842   3.158   2.939   9.066
 4643W        W 8843   6.987   0.146  10.988
 4644W        W 8844   3.788   1.954   0.134
 4645W        W 8845   5.737   2.638  10.978
 4646W        W 8846   3.618   4.897   8.567
 4647W        W 8847  10.318   3.382   9.523
 4648W        W 8848  10.501   7.390   1.163
 4649W        W 8849   2.687   9.637  11.925
 4650W        W 8850  10.441   3.345  10.016
 4651W        W 8851   9.848   2.587   0.961
 4652W        W 8852   6.457   6.598  10.355
 4653W        W 8853  10.769  10.560  10.443
 4654W        W 8854   3.600  10.127  11.973
 4655W        W 8855   4.756   4.068   0.340
 4656W        W 8856  11.253   7.654   2.560
 4657W        W 8857   7.265   9.627   0.532
 4658W        W 8858  10.709   3.413   3.332
 4659W        W 8859  10.295   9.337  10.829
 4660W        W 8860   1.858   6.069   1.973
 4661W        W 8861   8.992   3.753   1.961
 4662W        W 8862  10.240  10.863   1.441
 4663W        W 8863   0.335   6.364   2.390
 4664W        W 8864   5.211   0.689  11.893
 4665W        W 8865   5.758   5.262   1.782
 4666W        W 8866   3.460   1.195   0.360
 4667W        W 8867   9.535   7.765  10.939
 4668W        W 8868   9.992   6.570   9.358
 4669W        W 8869   9.979   0.605  11.406
 4670W        W 8870   2.233   8.924   0.032
 4671W        W 8871  10.011   5.237   0.989
 4672W        W 8872  10.105   6.102   0.498
 4673W        W 8873   9.506   9.889   8.987
 4674W        W 8874   7.726   0.258   9.836
 4675W        W 8875   7.998   0.853   2.903
 4676W        W 8876   4.307   5.366   2.752
 4677W        W 8877   1.349   4.792  10.581
 4678W        W 8878   2.696   4.280   2.973
 4679W        W 8879   1.166   4.893  10.091
 4680W        W 8880   4.761   1.366   1.961
 4681W        W 8881  11.018   9.058   0.143
 4682W        W 8882   9.698   7.148  11.281
 4683W        W 8883   2.642   6.387   8.633
 4684W        W 8884   6.223   7.702   8.358
 4685W        W 8885  10.500   6.662   9.468
 4686W        W 8886   4.838   8.803  11.845
 4687W        W 8887   5.161   2.671   4.205
 4688W        W 8888   5.662   2.742   9.489
 4689W        W 8889   5.952   9.967   2.711
 4690W        W 8890   9.608   6.910   2.779
 4691W        W 8891   5.025   3.236  11.952
 4692W        W 8892   8.895   0.342  10.767
 4693W        W 8893  11.348   8.371   9.971
 4694W        W 8894   1.036   9.271  10.721
 4695W        W 8895   2.619   7.441   0.200
 4696W        W 8896   4.048   3.330   9.358
 4697W        W 8897   5.627   7.551   8.870
 4698W        W 8898   2.529   3.061  11.563
 4699W        W 8899   6.631  11.108   0.046
 4700W        W 8900   8.125   9.612  10.513
 4701W        W 8901  10.206   7.987   1.675
 4702W        W 8902   0.753   0.962   9.539
 4703W        W 8903   7.620   4.865   0.352
 4704W        W 8904   6.489   1.056  11.939
 4705W        W 8905   4.606   3.066  11.063
 4706W        W 8906  10.509   4.159   9.466
 4707W        W 8907   1.444  10.859  11.254
 4708W        W 8908   5.204   0.837   3.519
 4709W        W 8909   9.087  10.298   0.009
 4710W        W 8910  10.007   3.833   2.229
 4711W        W 8911   0.270   6.595   2.974
 4712W        W 8912   3.529   3.376   9.440
 4713W        W 8913   3.717   3.383   3.282
 4714W        W 8914   8.358   4.600   8.915
 4715W        W 8915   3.758   4.108  11.043
 4716W        W 8916   6.862   3.113   2.834
 4717W        W 8917   1.000   1.623   8.959
 4718W        W 8918   8.464   6.391   2.207
 4719W        W 8919   5.251   4.232   9.514
 4720W        W 8920   3.344  10.103   8.694
 4721W        W 8921   5.676   6.604   0.585
 4722W        W 8922   0.261   8.612   1.933
 4723W        W 8923   8.142   8.369   8.453
 4724W        W 8924   1.419   4.320  10.795
 4725W        W 8925   3.567   1.217   9.782
 4726W        W 8926   5.244   8.937   3.694
 4727W        W 8927  10.895   4.424   1.800
 4728W        W 8928  10.482   5.004   9.874
 4729W        W 8929  11.291   7.751  11.549
 4730W        W 8930   0.814   0.763   2.210
 4731W        W 8931   5.555   4.482  10.693
 4732W        W 8932   8.174  11.481   1.160
 4733W        W 8933  11.269   0.880  10.478
 4734W        W 8934   7.013   1.128  11.051
 4735W        W 8935   0.796   0.186  10.047
 4736W        W 8936   1.936  11.373   3.260
 4737W        W 8937   9.017   1.712   1.289
 4738W        W 8938   4.727   2.348   9.540
 4739W        W 8939   9.870   2.931   3.198
 4740W        W 8940   3.809   3.636   0.198
 4741W        W 8941   7.648   0.271   1.176
 4742W        W 8942   8.211   9.008   9.977
 4743W        W 8943  10.030   9.225   8.670
 4744W        W 8944   7.402  10.872   9.555
 4745W        W 8945  11.450   1.170   2.637
 4746W        W 8946  10.952   5.924   0.308
 4747W        W 8947   5.596   2.177   1.479
 4748W        W 8948   4.600   3.266   3.229
 4749W        W 8949   8.580   5.239   0.953
 4750W        W 8950   8.311   7.077   8.838
 4751W        W 8951   3.293  10.489   0.255
 4752W        W 8952  10.364   6.546   1.482
 4753W        W 8953   7.926   2.938   2.399
 4754W        W 8954   3.187   3.866   8.828
 4755W        W 8955   5.537   5.784  10.471
 4756W        W 8956   3.223   8.112   8.657
 4757W        W 8957   9.042   0.182  11.256
 4758W        W 8958   4.206   6.746   1.267
 4759W        W 8959   0.803   0.045  10.553
 4760W        W 8960  10.819   4.704   2.596
 4761W        W 8961  11.055   6.853   9.279
 4762W        W 8962  11.449   3.967   8.994
 4763W        W 8963  10.889   5.372   1.447
 4764W        W 8964  11.407   6.517   9.456
 4765W        W 8965   9.985   1.364   0.266
 4766W        W 8966   4.127   7.010   9.275
 4767W        W 8967   1.795   3.334   1.757
 4768W        W 8968  10.114  10.532   0.758
 4769W        W 8969   8.377   2.224   9.747
 4770W        W 8970   6.734   4.560   9.395
 4771W        W 8971  10.552   2.798   1.699
 4772W        W 8972   4.959   7.025   3.145
 4773W        W 8973   0.260   2.149   9.775
 4774W        W 8974   7.836   7.991   2.302
 4775W        W 8975   3.955   6.014  11.509
 4776W        W 8976  11.347   4.640   1.856
 4777W        W 8977   4.590   7.555   0.338
 4778W        W 8978   5.573   4.590   2.474
 4779W        W 8979  10.438   7.547   9.374
 4780W        W 8980   7.488   4.329  11.393
 4781W        W 8981   8.338   8.721   2.830
 4782W        W 8982   3.653   3.246   1.870
 4783W        W 8983   2.038   6.989  10.292
 4784W        W 8984  10.293   1.777   1.140
 4785W        W 8985  11.390   8.761   8.531
 4786W        W 8986  10.158   2.184   1.913
 4787W        W 8987   7.148   9.922   2.739
 4788W        W 8988   0.253   6.245  11.169
 4789W        W 8989   1.215   1.002   2.032
 4790W        W 8990  10.465   9.863   2.960
 4791W        W 8991   8.712  11.500  10.445
 4792W        W 8992   9.332   2.211  11.111
 4793W        W 8993   8.521   3.458   1.282
 4794W        W 8994   9.134   5.189  10.827
 4795W        W 8995   4.783   7.914   0.023
 4796W        W 8996  11.421  11.414  10.761
 4797W        W 8997   0.627   9.693   3.470
 4798W        W 8998   0.457   0.002   9.729
 4799W        W 8999   1.949   7.926  11.809
 4800W        W 9000  10.441   8.529   8.880
 4801W        W 9001   3.822   2.886  10.342
 4802W        W 9002   4.878   4.990   1.407
 4803W        W 9003   1.142   2.810   0.589
 4804W        W 9004   7.392   3.786   0.735
 4805W        W 9005   8.528   6.777  10.758
 4806W        W 9006   2.136   4.747   0.336
 4807W        W 9007   4.737   1.597  10.710
 4808W        W 9008   1.542   2.859   0.926
 4809W        W 9009   9.036  10.972   0.362
 4810W        W 9010   0.696   7.108   2.182
 4811W        W 9011   1.254   2.833  11.299
 4812W        W 9012  11.013  10.141   1.801
 4813W        W 9013   4.791   1.365   2.485
 4814W        W 9014   9.610   9.795   2.968
 4815W        W 9015  10.802   4.569   0.670
 4816W        W 9016   5.946   6.086   9.751
 4817W        W 9017   9.957   5.301   0.409
 4818W        W 9018   9.179   4.715   9.174
 4819W        W 9019   9.096   7.649  10.132
 4820W        W 9020   0.245   2.257   1.818
 4821W        W 9021   9.953  11.101  11.290
 4822W        W 9022   9.510  10.123   9.457
 4823W        W 9023   9.425   6.620  11.260
 4824W        W 9024   1.121   9.514   3.443
 4825W        W 9025   9.809   8.604   1.940
 4826W        W 9026   8.068   4.574   0.210
 4827W        W 9027   9.948   1.881   0.156
 4828W        W 9028   6.565   7.496   8.695
 4829W        W 9029   7.146   4.564   8.672
 4830W        W 9030   0.490   7.930   9.605
 4831W        W 9031   3.451   6.057   1.246
 4832W        W 9032   1.582   6.170  10.043
 4833W        W 9033   1.705   0.839   2.137
 4834W        W 9034   6.000   1.320   2.126
 4835W        W 9035   1.097   8.526   2.390
 4836W        W 9036   1.856   4.048  10.888
 4837W        W 9037   6.696   2.387   3.563
 4838W        W 9038   6.526   8.546   1.641
 4839W        W 9039   0.904   3.648   0.807
 4840W        W 9040   6.846  11.152   3.119
 4841W        W 9041   1.216   5.554   9.422
 4842W        W 9042   6.818   1.216   1.967
 4843W        W 9043  10.427   9.974  11.919
 4844W        W 9044   6.714   4.682   0.147
 4845W        W 9045   1.622   7.962   0.872
 4846W        W 9046   0.278   3.504  10.792
 4847W        W 9047  10.026   7.566  11.125
 4848W        W 9048   7.116  10.191  11.324
 4849W        W 9049   7.988   5.215   0.310
 4850W        W 9050   5.617   1.366   8.804
 4851W        W 9051   8.915   6.152   8.809
 4852W        W 9052   2.251   4.185   8.522
 4853W        W 9053   5.141   5.637  11.238
 4854W        W 9054   4.726   8.575  10.247
 4855W        W 9055   7.746   1.836   2.971
 4856W        W 9056   0.171   9.466   9.501
 4857W        W 9057   7.684   1.342  11.391
 4858W        W 9058   6.303   4.034   2.251
 4859W        W 9059   0.618   2.219  10.138
 4860W        W 9060   7.581   6.209  11.953
 4861W        W 9061   0.788   5.219  10.244
 4862W        W 9062   7.986   2.478   8.850
 4863W        W 9063   7.417   4.293   0.752
 4864W        W 9064   8.364   3.286  11.769
 4865W        W 9065   8.578   4.573   9.803
 4866W        W 9066   0.367   0.306  11.494
 4867W        W 9067   3.021   3.496   2.377
 4868W        W 9068   8.978   0.416   0.726
 4869W        W 9069   0.335   8.345  11.416
 4870W        W 9070   3.066   5.570   3.240
 4871W        W 9071   1.992   1.010  11.686
 4872W        W 9072  10.513   8.366  11.020
 4873W        W 9073   5.715  10.071   8.914
 4874W        W 9074   2.587   5.990   9.514
 4875W        W 9075   4.151   0.533   0.547
 4876W        W 9076   4.328   8.119   2.705
 4877W        W 9077   8.745   7.104   3.150
 4878W        W 9078   8.046   1.895  11.024
 4879W        W 9079   3.979   8.677   2.195
 4880W        W 9080   2.663  10.920   3.072
 4881W        W 9081   9.665   4.254   2.253
 4882W        W 9082   5.587   1.827   9.041
 4883W        W 9083   3.756   4.619  11.155
 4884W        W 9084   0.411   5.242  11.566
 4885W        W 9085   5.629   4.801   0.665
 4886W        W 9086   7.910   8.752   9.517
 4887W        W 9087   0.731   3.022   8.544
 4888W        W 9088   2.883   7.054   1.487
 4889W        W 9089   5.761  10.878  10.405
 4890W        W 9090   1.268  11.394   9.315
 4891W        W 9091   2.510   2.503   3.161
 4892W        W 9092   0.591   2.663   9.342
 4893W        W 9093   9.763   9.081   1.748
 4894W        W 9094   1.414   6.105   2.203
 4895W        W 9095   9.363   2.826  11.838
 4896W        W 9096   6.127  11.030   9.601
 4897W        W 9097   1.809   3.591  10.690
 4898W        W 9098   1.735   9.915  10.575
 4899W        W 9099   4.388  10.485  10.068
 4900W        W 9100   7.710   0.835  11.948
 4901W        W 9101   5.135   8.507   1.085
 4902W        W 9102   3.193   2.180   1.776
 4903W        W 9103   0.670   9.142  11.071
 4904W        W 9104   9.509   2.349   9.622
 4905W        W 9105   9.952   2.166   1.259
 4906W        W 9106   9.261  11.405  11.655
 4907W        W 9107   7.918   5.505  10.517
 4908W        W 9108  10.607   3.100   0.462
 4909W        W 9109   5.658   8.481   0.734
 4910W        W 9110   5.106   6.332   2.427
 4911W        W 9111   7.476   1.303   8.761
 4912W        W 9112   6.542   1.148  10.334
 4913W        W 9113   7.595   6.515   1.314
 4914W        W 9114   0.574  10.398   0.885
 4915W        W 9115   3.998   7.610   1.371
 4916W        W 9116   5.780   9.954  10.325
 4917W        W 9117   8.495   2.651  10.533
 4918W        W 9118   9.327   7.945   0.226
 4919W        W 9119   3.048   9.136   1.577
 4920W        W 9120   1.783   4.579   3.604
 4921W        W 9121   1.679   0.188   1.194
 4922W        W 9122   7.493   0.914  10.457
 4923W        W 9123   7.374   7.330  10.122
 4924W        W 9124   1.840   1.204   3.089
 4925W        W 9125   9.494   7.631  11.463
 4926W        W 9126   6.590   3.958   2.693
 4927W        W 9127   1.114   5.155  11.868
 4928W        W 9128  11.483   7.228   8.875
 4929W        W 9129   2.071   5.933   9.573
 4930W        W 9130   9.397   9.787  10.865
 4931W        W 9131   1.783   4.896   1.035
 4932W        W 9132   2.731  11.005   2.572
 4933W        W 9133   0.477   1.752   9.566
 4934W        W 9134  10.369   2.229  11.943
 4935W        W 9135   7.020   9.573  11.238
 4936W        W 9136  11.300   6.707   0.858
 4937W        W 9137   6.953   6.082  10.047
 4938W        W 9138   4.633   4.532   3.141
 4939W        W 9139   3.321   3.243   3.631
 4940W        W 9140   5.131   8.891   9.961
 4941W        W 9141   3.886  10.874  10.725
 4942W        W 9142   4.339   0.942  10.846
 4943W        W 9143   4.753   2.813   0.717
 4944W        W 9144   9.829   7.681   1.911
 4945W        W 9145   2.779  11.470  11.362
 4946W        W 9146   7.232  11.378   1.855
 4947W        W 9147  10.855   2.616  10.285
 4948W        W 9148   9.883   6.380  10.299
 4949W        W 9149   2.683   3.091   2.400
 4950W        W 9150   6.425   8.730   8.247
 4951W        W 9151  10.955   9.574  11.972
 4952W        W 9152   0.827   2.427   0.427
 4953W        W 9153   5.468   4.111   9.058
 4954W        W 9154   2.898  10.939  10.812
 4955W        W 9155   8.611   6.415   1.278
 4956W        W 9156   5.162   9.543   2.493
 4957W        W 9157   5.855   6.675   2.167
 4958W        W 9158   9.960   1.972   3.435
 4959W        W 9159   0.812   6.265   0.915
 4960W        W 9160   0.701  10.855   1.690
 4961W        W 9161   5.754   9.185  11.810
 4962W        W 9162   2.657   2.265   9.491
 4963W        W 9163   0.256   1.441   3.471
 4964W        W 9164   9.949   4.257   2.678
 4965W        W 9165   3.827   8.104  11.798
 4966W        W 9166   2.990   5.633   8.582
 4967W        W 9167   9.988   6.186  10.768
 4968W        W 9168   5.528   0.962   9.098
 4969W        W 9169  11.390   2.647   0.522
 4970W        W 9170   9.800  10.912   0.940
 4971W        W 9171   9.994  10.799   2.765
 4972W        W 9172   2.733   7.999   9.502
 4973W        W 9173  10.765   7.632   2.384
 4974W        W 9174   4.760   7.587   1.751
 4975W        W 9175  10.790   4.910   3.572
 4976W        W 9176  10.297   1.934  10.943
 4977W        W 9177   1.613   6.164   0.982
 4978W        W 9178  10.360   6.979   9.046
 4979W        W 9179   8.112   9.946   0.258
 4980W        W 9180   6.929   4.413   1.823
 4981W        W 9181   4.639   4.724   3.614
 4982W        W 9182   6.549   5.468   0.466
 4983W        W 9183   7.915   9.968   9.988
 4984W        W 9184   5.033   4.607   3.925
 4985W        W 9185   2.220   3.297   2.223
 4986W        W 9186   5.687   9.059   3.034
 4987W        W 9187   5.534   4.109   2.597
 4988W        W 9188   2.538   2.673   0.871
 4989W        W 9189  10.263   7.266   2.354
 4990W        W 9190   5.679   3.181   8.900
 4991W        W 9191   8.439  10.994  11.744
 4992W        W 9192   1.035   4.091   0.521
 4993W        W 9193   3.395   6.593  10.315
 4994W        W 9194  10.308   6.571  11.971
 4995W        W 9195   4.163   9.103   9.092
 4996W        W 9196   9.930   5.687   9.936
 4997W        W 9197   3.489   8.509   8.928
 4998W        W 9198   4.372  10.984  10.746
 4999W        W 9199  10.010   1.665  10.079
 5000W        W 9200  10.047   1.282   8.811
 5001W        W 9201  10.045   0.859   0.044
 5002W        W 9202   6.083   5.770   1.711
 5003W        W 9203   1.267   9.453  10.005
 5004W        W 9204   2.502   7.716   2.704
 5005W        W 9205   9.915   0.774   8.894
 5006W        W 9206   3.980   1.343  11.478
 5007W        W 9207   2.086   1.621   3.337
 5008W        W 9208   8.656   3.079  10.286
 5009W        W 9209  10.527  10.825   3.383
 5010W        W 9210   2.266   9.350  11.216
 5011W        W 9211   8.451   2.651   2.042
 5012W        W 9212   7.324  11.330   8.831
 5013W        W 9213   8.147   0.843   8.473
 5014W        W 9214   0.199   6.089   2.793
 5015W        W 9215   8.664   9.980   2.870
 5016W        W 9216   4.549   5.299   9.660
 5017W        W 9217   5.968   6.283   2.685
 5018W        W 9218   3.700  10.807   2.830
 5019W        W 9219   1.595   5.613   3.171
 5020W        W 9220   4.719   4.528   2.628
 5021W        W 9221   8.114   4.614   3.533
 5022W        W 9222   6.849   9.358   0.665
 5023W        W 9223   0.087   5.645  10.818
 5024W        W 9224   0.624   1.456   0.739
 5025W        W 9225   2.345   0.663   0.780
 5026W        W 9226   8.364   2.122   3.731
 5027W        W 9227   4.898   6.065   1.006
 5028W        W 9228  10.231  11.407   9.390
 5029W        W 9229   7.108   2.644   9.800
 5030W        W 9230  10.888   7.555   9.655
 5031W        W 9231   5.540   6.429  11.277
 5032W        W 9232   0.953   2.358   9.127
 5033W        W 9233   5.489   0.004   0.018
 5034W        W 9234   1.616   3.473  10.209
 5035W        W 9235   4.738   2.825   2.018
 5036W        W 9236   4.964   8.094   1.970
 5037W        W 9237   8.539   5.502   9.841
 5038W        W 9238   0.702   4.152  11.000
 5039W        W 9239  11.261   2.223   9.423
 5040W        W 9240   9.618   8.366   9.916
 5041W        W 9241   5.788   9.864   1.990
 5042W        W 9242   6.972   4.566   0.912
 5043W        W 9243   4.793   1.646   0.438
 5044W        W 9244   2.283  11.253  11.435
 5045W        W 9245   1.267   0.489   1.889
 5046W        W 9246   4.086   2.327   0.315
 5047W        W 9247   7.234   4.460   9.535
 5048W        W 9248   9.893  10.476   9.394
 5049W        W 9249   1.918   6.380  10.458
 5050W        W 9250   7.003   8.302   9.713
 5051W        W 9251   0.765   8.409   0.409
 5052W        W 9252   9.391   3.918   1.679
 5053W        W 9253   9.873   2.618   2.816
 5054W        W 9254   6.748  10.740   1.865
 5055W        W 9255   5.482   8.100   2.025
 5056W        W 9256   9.416   0.944  11.889
 5057W        W 9257   5.500  11.069   9.038
 5058W        W 9258   6.221   2.747   9.885
 5059W        W 9259   2.266   7.102   0.071
 5060W        W 9260  11.291  11.393   9.355
 5061W        W 9261   5.659   0.700  10.715
 5062W        W 9262  10.870   8.331   9.634
 5063W        W 9263  10.284   5.965  11.207
 5064W        W 9264   6.976   3.173   1.367
 5065W        W 9265   2.743   8.510   9.471
 5066W        W 9266  10.851   7.624   1.865
 5067W        W 9267   9.396   4.393  11.057
 5068W        W 9268   7.499  11.356   9.323
 5069W        W 9269  10.824   3.929   1.908
 5070W        W 9270   2.586   6.299   9.985
 5071W        W 9271  10.587   7.892  11.998
 5072W        W 9272   0.464  11.344   0.699
 5073W        W 9273  11.430   5.020   2.175
 5074W        W 9274   4.617  11.406   9.104
 5075W        W 9275   8.917   5.342   8.522
 5076W        W 9276   8.887   2.831   2.841
 5077W        W 9277   0.481   3.607  11.539
 5078W        W 9278   8.452   2.950   1.545
 5079W        W 9279   8.061   3.930   1.932
 5080W        W 9280   0.516   5.391  11.014
 5081W        W 9281   2.459   2.521  11.887
 5082W        W 9282   2.781   3.106   1.433
 5083W        W 9283   6.151  10.566   9.396
 5084W        W 9284   4.647  10.884   1.367
 5085W        W 9285   1.036   9.518   0.787
 5086W        W 9286   4.655   6.821   2.301
 5087W        W 9287   5.203   9.819   9.040
 5088W        W 9288   0.293   9.941   0.915
 5089W        W 9289   5.808   7.080   0.384
 5090W        W 9290   7.890   6.941   2.979
 5091W        W 9291   3.848  10.790   9.871
 5092W        W 9292   2.605   6.201  11.871
 5093W        W 9293   1.364   2.028   8.976
 5094W        W 9294   0.825   1.868  10.914
 5095W        W 9295   4.089   0.866  11.301
 5096W        W 9296   2.020  11.108  10.076
 5097W        W 9297   1.405   7.893   8.809
 5098W        W 9298   2.164   4.945   1.492
 5099W        W 9299   2.642   9.751  10.552
 5100W        W 9300  10.536  11.251   2.300
 5101W        W 9301   6.164   0.625   3.412
 5102W        W 9302   3.858   7.340   2.235
 5103W        W 9303   3.872   8.447   2.650
 5104W        W 9304  10.035   3.312   1.431
 5105W        W 9305   3.479   2.226  10.499
 5106W        W 9306   0.350   9.587   1.604
 5107W        W 9307   8.868   4.125   9.869
 5108W        W 9308   0.200   3.659   2.760
 5109W        W 9309   0.496   3.066  10.690
 5110W        W 9310   4.174  10.824   1.871
 5111W        W 9311   4.149  10.907  10.285
 5112W        W 9312   5.358   9.453   0.321
 5113W        W 9313   0.178  10.566   3.160
 5114W        W 9314  10.569   0.879  11.847
 5115W        W 9315   2.888   8.554   2.783
 5116W        W 9316   9.520   2.720   3.509
 5117W        W 9317   5.738   7.768  10.027
 5118W        W 9318   8.546   1.473   1.333
 5119W        W 9319   8.115   9.423   1.055
 5120W        W 9320   9.365   2.732  11.327
 5121W        W 9321   6.723   7.894   9.902
 5122W        W 9322   5.780   4.814  10.349
 5123W        W 9323   7.657  10.301  10.799
 5124W        W 9324   5.103   5.718  10.735
 5125W        W 9325   9.157   3.739   0.211
 5126W        W 9326   2.192   0.807   8.908
 5127W        W 9327   0.332   7.531   3.286
 5128W        W 9328   6.863   8.563   2.978
 5129W        W 9329   0.667  10.352   2.288
 5130W        W 9330   2.941   0.266  10.955
 5131W        W 9331   2.978   4.575   9.980
 5132W        W 9332   6.495   4.047   0.795
 5133W        W 9333   3.848   4.678   8.155
 5134W        W 9334   4.790   2.725   1.544
 5135W        W 9335   8.156   1.823   9.993
 5136W        W 9336   3.363   2.377   0.018
 5137W        W 9337   8.501   1.885  11.256
 5138W        W 9338   3.760  10.352   8.959
 5139W        W 9339   9.583   0.610   0.243
 5140W        W 9340   8.589   5.015  10.131
 5141W        W 9341   6.661  10.371  11.093
 5142W        W 9342   9.552   2.363   2.212
 5143W        W 9343  10.702   1.324  11.538
 5144W        W 9344   1.412   3.880  11.478
 5145W        W 9345   8.051   2.775   0.363
 5146W        W 9346   0.416   5.717   9.954
 5147W        W 9347   4.181   7.471   9.054
 5148W        W 9348  10.366   4.561  11.449
 5149W        W 9349   4.692   3.556   0.432
 5150W        W 9350   6.780   3.146   9.171
 5151W        W 9351   7.686   5.762   8.312
 5152W        W 9352   4.593   6.369   2.518
 5153W        W 9353   5.569   8.970   0.418
 5154W        W 9354   2.744   3.410  10.286
 5155W        W 9355   2.833   2.325   2.766
 5156W        W 9356   5.481   2.397   2.708
 5157W        W 9357   6.721   2.807   0.463
 5158W        W 9358   3.166   0.826   9.116
 5159W        W 9359   8.981  10.008  10.120
 5160W        W 9360  11.390   5.585   0.218
 5161W        W 9361   4.526   3.210   9.524
 5162W        W 9362   8.045   1.820   3.445
 5163W        W 9363   8.481   6.966   0.454
 5164W        W 9364  10.453   8.133   2.967
 5165W        W 9365   7.583   0.728   3.412
 5166W        W 9366   4.089  11.385  10.500
 5167W        W 9367   1.922   5.234  11.237
 5168W        W 9368   4.543   5.448   2.279
 5169W        W 9369   5.582   3.680   3.807
 5170W        W 9370   7.377   4.788  10.531
 5171W        W 9371  11.320   6.413   2.814
 5172W        W 9372   1.707   2.321   0.934
 5173W        W 9373   5.110   9.845   2.111
 5174W        W 9374  11.488  11.467   2.015
 5175W        W 9375   9.175   9.546   2.243
 5176W        W 9376   0.775   7.181   9.944
 5177W        W 9377   6.964   1.255  11.948
 5178W        W 9378   0.775   7.491   1.807
 5179W        W 9379   0.856   9.140   1.051
 5180W        W 9380   5.165   5.575  11.756
 5181W        W 9381  10.120   5.049  10.286
 5182W        W 9382  10.127   1.964  10.475
 5183W        W 9383   4.991   1.508  10.117
 5184W        W 9384   8.852   6.933   9.529
 5185W        W 9385   0.803   2.041  11.611
 5186W        W 9386   0.756   5.513   3.017
 5187W        W 9387   6.267   5.037   0.379
 5188W        W 9388   1.271   5.273  10.428
 5189W        W 9389   5.332   6.718  10.848
 5190W        W 9390   1.618   5.071  11.962
 5191W        W 9391   0.252  11.423   0.242
 5192W        W 9392   0.490   4.577  10.815
 5193W        W 9393  11.328   8.892   1.881
 5194W        W 9394   8.717  11.267   9.567
 5195W        W 9395  10.506   7.363  10.952
 5196W        W 9396   9.107   9.063   2.521
 5197W        W 9397  11.254   4.799   0.816
 5198W        W 9398   3.282   2.637   0.869
 5199W        W 9399   8.528   0.947   9.421
 5200W        W 9400   7.062   8.359   1.941
 5201W        W 9401   5.146  11.464   3.023
 5202W        W 9402   3.002   3.989   4.108
 5203W        W 9403   1.207   8.163   0.656
 5204W        W 9404   1.329   9.549   0.395
 5205W        W 9405   0.726   0.921  10.427
 5206W        W 9406  10.326   2.578   9.394
 5207W        W 9407  10.528   1.589   9.649
 5208W        W 9408  10.237   8.465   0.403
 5209W        W 9409   2.366  10.314   2.656
 5210W        W 9410   9.969   8.062  10.963
 5211W        W 9411   2.270  11.253   0.487
 5212W        W 9412   7.659   2.449   3.175
 5213W        W 9413  10.170   0.307  10.107
 5214W        W 9414   8.438  11.294   3.115
 5215W        W 9415   9.447   6.690   2.158
 5216W        W 9416   4.118   8.078   9.640
 5217W        W 9417   9.810   0.821   9.438
 5218W        W 9418   7.182  10.391   3.414
 5219W        W 9419   0.681   6.934  10.377
 5220W        W 9420  11.303   1.792  10.968
 5221W        W 9421   2.149   2.938   8.789
 5222W        W 9422   7.721   7.742   9.877
 5223W        W 9423   8.600   6.003  11.008
 5224W        W 9424   7.497   7.058   1.887
 5225W        W 9425   1.782  10.974   2.784
 5226W        W 9426   1.816  10.493  11.241
 5227W        W 9427   2.965   7.865  10.379
 5228W        W 9428   1.843   3.694   2.280
 5229W        W 9429   9.450   8.790   0.217
 5230W        W 9430   0.391   6.059   0.236
 5231W        W 9431   0.503   3.878   2.417
 5232W        W 9432   4.728   2.663   2.990
 5233W        W 9433   0.718   0.689   9.970
 5234W        W 9434  10.398   7.475   9.875
 5235W        W 9435   3.221   0.141   9.149
 5236W        W 9436   3.789   0.627   2.967
 5237W        W 9437   1.187   5.690   2.388
 5238W        W 9438   7.567   1.035   1.947
 5239W        W 9439   7.468   8.363   2.313
 5240W        W 9440   8.597   6.450   0.379
 5241W        W 9441  10.232   2.303   0.829
 5242W        W 9442   6.651   9.862   2.006
 5243W        W 9443   3.690  11.461   9.581
 5244W        W 9444   4.668   4.626  10.957
 5245W        W 9445   4.806   8.995   3.066
 5246W        W 9446   2.675   1.149   1.252
 5247W        W 9447   4.770   7.004  10.031
 5248W        W 9448   1.352   9.516  11.904
 5249W        W 9449   2.372   3.794   9.473
 5250W        W 9450   4.659   4.754   1.807
 5251W        W 9451   2.892   9.963  11.533
 5252W        W 9452   9.241   7.357  11.087
 5253W        W 9453   8.781   8.691   0.748
 5254W        W 9454   8.072   1.450   8.734
 5255W        W 9455   9.630   9.563   1.511
 5256W        W 9456   0.726   4.668  11.321
 5257W        W 9457   8.103   8.844  11.756
 5258W        W 9458   1.821   7.411  11.817
 5259W        W 9459   4.720   8.506   0.709
 5260W        W 9460   6.340   7.441   1.467
 5261W        W 9461   3.731   8.862  10.593
 5262W        W 9462  10.365   5.032  11.161
 5263W        W 9463   1.423   5.222   2.375
 5264W        W 9464   1.887   0.461   0.810
 5265W        W 9465   2.827   7.031   2.374
 5266W        W 9466   7.904   5.215  11.439
 5267W        W 9467   1.787   5.261   2.799
 5268W        W 9468   6.354   1.255   1.739
 5269W        W 9469   1.633   3.045   0.448
 5270W        W 9470  11.075   0.922   1.236
 5271W        W 9471   1.464   0.010   0.202
 5272W        W 9472   4.095   3.526  11.790
 5273W        W 9473   5.189   0.802   1.943
 5274W        W 9474  10.043   8.969   9.128
 5275W        W 9475   2.004  10.395   9.399
 5276W        W 9476   2.743   4.603   1.356
 5277W        W 9477   4.541   5.135  11.206
 5278W        W 9478   9.018   5.677   9.772
 5279W        W 9479   4.642   4.014   1.358
 5280W        W 9480   7.813   9.529  10.903
 5281W        W 9481   4.186   1.383   3.014
 5282W        W 9482   9.382   8.633   2.318
 5283W        W 9483   1.443   5.559  11.925
 5284W        W 9484   3.767   1.128   2.955
 5285W        W 9485   9.966   2.751  10.089
 5286W        W 9486   1.168   7.349   2.862
 5287W        W 9487   5.944   5.595   9.056
 5288W        W 9488   6.539   2.865   3.629
 5289W        W 9489   9.728   1.136   2.980
 5290W        W 9490   4.084  11.356   0.873
 5291W        W 9491   0.909  11.047  10.649
 5292W        W 9492   8.318   6.791   0.932
 5293W        W 9493   7.124   7.033  11.936
 5294W        W 9494   9.919  10.905  11.956
 5295W        W 9495   3.732   6.916  11.158
 5296W        W 9496   2.210   8.050   0.567
 5297W        W 9497   9.639   4.214   1.346
 5298W        W 9498  10.634   0.694   1.376
 5299W        W 9499   7.587   7.354   2.299
 5300W        W 9500   1.984   5.324   1.839
 5301W        W 9501  10.560  10.472  11.766
 5302W        W 9502   1.615   7.004   1.918
 5303W        W 9503   8.322   4.035  10.272
 5304W        W 9504   5.655   3.229   2.567
 5305W        W 9505   6.076   0.329   2.235
 5306W        W 9506   9.571   7.683   1.448
 5307W        W 9507   9.906   3.208   9.786
 5308W        W 9508   9.614   4.902   1.720
 5309W        W 9509   8.210   3.671   9.492
 5310W        W 9510   6.668   3.974   1.733
 5311W        W 9511   9.987   8.537  10.713
 5312W        W 9512   8.481  10.269  10.039
 5313W        W 9513   0.318  11.453   9.246
 5314W        W 9514   3.673   3.610  10.979
 5315W        W 9515  11.456  10.720   9.685
 5316W        W 9516   0.175   7.180  11.326
 5317W        W 9517   8.950   9.359  11.415
 5318W        W 9518   2.616   0.834   9.227
 5319W        W 9519   0.528   3.441  10.321
 5320W        W 9520  10.228   2.724   2.101
 5321W        W 9521   5.636   8.534   1.773
 5322W        W 9522   3.962   8.002   1.752
 5323W        W 9523   8.259   3.858   4.016
 5324W        W 9524   1.211   4.071   9.225
 5325W        W 9525   2.265   1.889   9.763
 5326W        W 9526   9.900  10.801   2.244
 5327W        W 9527   5.085   9.884   3.383
 5328W        W 9528   1.969   2.123  11.285
 5329W        W 9529   7.993  10.414   2.423
 5330W        W 9530   1.960   3.187   8.353
 5331W        W 9531   0.396  10.023  10.932
 5332W        W 9532   8.567   3.567   3.135
 5333W        W 9533   9.933   7.680   2.422
 5334W        W 9534   6.548  10.913   9.334
 5335W        W 9535   2.795   5.295  11.338
 5336W        W 9536   4.956   2.523   8.607
 5337W        W 9537   6.729   8.631   0.824
 5338W        W 9538   1.876   6.920   8.769
 5339W        W 9539   3.690   0.191   2.719
 5340W        W 9540   5.003   8.305   8.925
 5341W        W 9541   7.031   9.335   8.568
 5342W        W 9542   1.249   7.572   2.061
 5343W        W 9543   7.999   5.915   0.798
 5344W        W 9544   5.629  10.954   0.953
 5345W        W 9545   0.675   8.779  10.076
 5346W        W 9546   4.003   6.200   1.856
 5347W        W 9547  10.743   7.480   3.528
 5348W        W 9548   1.627   6.648   8.345
 5349W        W 9549   0.308  10.999   9.464
 5350W        W 9550   5.222   4.684   1.673
 5351W        W 9551   2.795   4.822  11.626
 5352W        W 9552   3.145   3.339   1.768
 5353W        W 9553   0.142   7.910   9.997
 5354W        W 9554   6.317   6.482   2.337
 5355W        W 9555   2.205  10.982   1.870
 5356W        W 9556   0.431   0.504   2.420
 5357W        W 9557   9.715   7.034   0.322
 5358W        W 9558   0.880   7.091   1.423
 5359W        W 9559   5.217   1.427   1.718
 5360W        W 9560   1.771   4.815  10.301
 5361W        W 9561   5.780   5.179   0.309
 5362W        W 9562   1.776   8.064   9.617
 5363W        W 9563   1.186   1.922  11.275
 5364W        W 9564  10.970   9.962   9.726
 5365W        W 9565   3.944   9.379   3.334
 5366W        W 9566   6.896   2.614   2.676
 5367W        W 9567   6.365   2.532  10.338
 5368W        W 9568   2.226   1.462   0.070
 5369W        W 9569   1.161   1.305   3.641
 5370W        W 9570   7.747   0.343   3.716
 5371W        W 9571   2.292   5.762   9.135
 5372W        W 9572   8.962   7.481   2.166
 5373W        W 9573  11.249   5.150   1.194
 5374W        W 9574   1.434  10.303   2.885
 5375W        W 9575   2.816   3.254   3.500
 5376W        W 9576  10.439   8.875   3.022
 5377W        W 9577   8.614   7.375   9.448
 5378W        W 9578   1.890   4.545  10.896
 5379W        W 9579  10.090   1.301   1.216
 5380W        W 9580   7.572   1.789   9.586
 5381W        W 9581   3.162   5.613   0.103
 5382W        W 9582   4.052   5.157  11.019
 5383W        W 9583   2.668   3.094   8.976
 5384W        W 9584   0.195   1.803   1.500
 5385W        W 9585   9.787   1.305   0.770
 5386W        W 9586   8.956   0.772   1.882
 5387W        W 9587   7.571   5.060   1.247
 5388W        W 9588   6.714  10.386   2.710
 5389W        W 9589   0.842  10.291  10.086
 5390W        W 9590   0.080   9.369   0.757
 5391W        W 9591   7.659   1.028   9.596
 5392W        W 9592   7.698   6.515   1.834
 5393W        W 9593   8.100   6.686   9.915
 5394W        W 9594   3.748   9.082   2.008
 5395W        W 9595   1.678   8.890  10.909
 5396W        W 9596   7.023   5.999  11.829
 5397W        W 9597   6.172   0.813   2.434
 5398W        W 9598   8.070  10.829   2.754
 5399W        W 9599   0.234   5.473   1.905
 5400W        W 9600   8.089   3.716   1.442
 5401W        W 9601  10.869   1.386   0.009
 5402W        W 9602   8.968   8.583   2.711
 5403W        W 9603   8.466   1.462   9.500
 5404W        W 9604   0.281   7.569  11.718
 5405W        W 9605   7.114   6.690  11.337
 5406W        W 9606   2.315   7.953  10.980
 5407W        W 9607   0.355   1.286  11.841
 5408W        W 9608   3.950   6.301   1.263
 5409W        W 9609   6.657   7.502   3.677
 5410W        W 9610  11.325   8.449   2.182
 5411W        W 9611   9.115  11.406   0.718
 5412W        W 9612   0.167   5.159   0.926
 5413W        W 9613   9.858   0.390  11.850
 5414W        W 9614   5.078   0.241   0.239
 5415W        W 9615   6.235   3.504   2.272
 5416W        W 9616  10.821  10.396   3.375
 5417W        W 9617  11.187   5.279   8.746
 5418W        W 9618   5.700   8.613   3.324
 5419W        W 9619   8.969   3.664   3.458
 5420W        W 9620  11.201   1.502   8.826
 5421W        W 9621   2.726  11.266   0.222
 5422W        W 9622   5.714   2.397   1.013
 5423W        W 9623   5.091   7.735  11.643
 5424W        W 9624   1.198   8.223   0.146
 5425W        W 9625  10.624   7.847   1.420
 5426W        W 9626   7.659   3.062   0.708
 5427W        W 9627  11.413   3.771   3.144
 5428W        W 9628   4.365   5.004   1.417
 5429W        W 9629   0.180   9.241  10.335
 5430W        W 9630   8.745   7.969  10.381
 5431W        W 9631   1.709  10.835   9.408
 5432W        W 9632   9.360   6.635  11.788
 5433W        W 9633   9.137   7.354   9.590
 5434W        W 9634  11.477  11.392   9.827
 5435W        W 9635  10.775   0.220   9.927
 5436W        W 9636   1.980  10.700   8.974
 5437W        W 9637   7.752   6.283   8.247
 5438W        W 9638   0.193   5.543   9.501
 5439W        W 9639  10.830   7.168   8.933
 5440W        W 9640   6.442   2.801   8.973
 5441W        W 9641  10.090   0.747  10.554
 5442W        W 9642   6.800   6.098   1.306
 5443W        W 9643   9.501   3.296   2.270
 5444W        W 9644   5.249   5.813   2.355
 5445W        W 9645   7.303   0.449  10.055
 5446W        W 9646   8.932   0.807   2.390
 5447W        W 9647   3.670   3.602   0.711
 5448W        W 9648   0.202   3.054  10.250
 5449W        W 9649   0.415   8.681  10.889
 5450W        W 9650   7.592   6.362   3.523
 5451W        W 9651   1.298   7.853  10.915
 5452W        W 9652   3.998   1.015   0.429
 5453W        W 9653   9.476   2.794   9.897
 5454W        W 9654   7.289   1.003   0.265
 5455W        W 9655   6.802   0.761   8.405
 5456W        W 9656   5.512   3.768   1.835
 5457W        W 9657   9.538   1.361   1.302
 5458W        W 9658   0.501   7.070   9.008
 5459W        W 9659   0.220   8.722  10.384
 5460W        W 9660   0.297   3.864  11.149
 5461W        W 9661   1.407  10.874  11.785
 5462W        W 9662  10.775   9.373   2.256
 5463W        W 9663   2.103   8.409   3.182
 5464W        W 9664   1.669  10.350   2.172
 5465W        W 9665   4.630   8.130   9.690
 5466W        W 9666   9.462   6.900   9.885
 5467W        W 9667   3.696   5.444  10.332
 5468W        W 9668  11.375   6.045   0.038
 5469W        W 9669   3.352   7.205  10.969
 5470W        W 9670  10.918   8.551   8.636
 5471W        W 9671  10.729   6.987   0.403
 5472W        W 9672   3.345   9.131  11.065
 5473W        W 9673   1.630   9.616  11.474
 5474W        W 9674   5.890   1.516   9.802
 5475W        W 9675   4.896  10.402  10.168
 5476W        W 9676   1.307   5.732   0.384
 5477W        W 9677   2.172   1.740  11.562
 5478W        W 9678   9.826   0.630   3.021
 5479W        W 9679   7.693   9.051   9.911
 5480W        W 9680   7.140   7.129  10.540
 5481W        W 9681  11.468   9.840   8.696
 5482W        W 9682   1.359  10.439   9.978
 5483W        W 9683   5.502  10.768   2.462
 5484W        W 9684   4.982   8.001   3.352
 5485W        W 9685   3.258   0.183  11.466
 5486W        W 9686   2.258   7.481  10.355
 5487W        W 9687   1.482   4.265   2.374
 5488W        W 9688  10.482   2.469   9.919
 5489W        W 9689   4.955   6.406  11.718
 5490W        W 9690   7.086   1.752   1.145
 5491W        W 9691   0.392   0.347   0.501
 5492W        W 9692   8.367   7.194  11.021
 5493W        W 9693   2.339   3.088   2.776
 5494W        W 9694  10.573   6.013   2.189
 5495W        W 9695   4.298  11.375  11.523
 5496W        W 9696   2.425  10.211  11.518
 5497W        W 9697   0.954  11.462   8.554
 5498W        W 9698   9.438   0.782   2.129
 5499W        W 9699   7.684   6.607   8.675
 5500W        W 9700   6.607   8.594   3.834
 5501W        W 9701   2.374   0.393   9.158
 5502W        W 9702   8.477   5.048   9.631
 5503W        W 9703   3.736   0.857   2.076
 5504W        W 9704   1.713   0.374   1.661
 5505W        W 9705   4.267   2.270   9.292
 5506W        W 9706   0.373   8.049   9.107
 5507W        W 9707   9.993  10.021   0.724
 5508W        W 9708   0.415   3.382   1.480
 5509W        W 9709   4.211   0.025  11.000
 5510W        W 9710  11.126   1.429   2.326
 5511W        W 9711   5.095   6.999   1.044
 5512W        W 9712  11.485   5.587   1.425
 5513W        W 9713   1.379   7.070   0.136
 5514W        W 9714   1.409   3.731   1.027
 5515W        W 9715   3.297   7.631   0.796
 5516W        W 9716   6.114   1.706   3.489
 5517W        W 9717   8.453   8.458   3.616
 5518W        W 9718  10.006  10.354   3.531
 5519W        W 9719   9.526   7.732  10.413
 5520W        W 9720   8.046  10.992  10.095
 5521W        W 9721  10.871   8.688  10.000
 5522W        W 9722   2.502   4.321   2.136
 5523W        W 9723   8.683   8.530  11.755
 5524W        W 9724   2.384   6.063  10.436
 5525W        W 9725   2.872   8.898  10.726
 5526W        W 9726   7.126   5.730  11.371
 5527W        W 9727   2.882   9.334   0.287
 5528W        W 9728   5.106   9.075  11.470
 5529W        W 9729   3.442   0.222  10.983
 5530W        W 9730   4.623   4.561   0.495
 5531W        W 9731   0.641   0.520  10.854
 5532W        W 9732   8.413   7.865   3.093
 5533W        W 9733  10.392   5.599   0.910
 5534W        W 9734   1.850   5.690  11.639
 5535W        W 9735   2.035   4.683   9.874
 5536W        W 9736  11.047   5.306   1.952
 5537W        W 9737   4.846  10.443  11.457
 5538W        W 9738   4.401   4.078   3.255
 5539W        W 9739   7.282   2.274   8.822
 5540W        W 9740   3.672   1.871   1.671
 5541W        W 9741   8.396   4.151   9.258
 5542W        W 9742   7.863   3.258   0.242
 5543W        W 9743   4.370   3.244   3.674
 5544W        W 9744   9.031   5.032   1.447
 5545W        W 9745   4.249   7.021   8.767
 5546W        W 9746   7.769   0.917   0.459
 5547W        W 9747   6.117   4.560   1.323
 5548W        W 9748  10.363   6.429   9.987
 5549W        W 9749   5.864   9.402   0.331
 5550W        W 9750   4.168   1.376   0.826
 5551W        W 9751  11.223   9.850  10.190
 5552W        W 9752   7.216   9.536  10.368
 5553W        W 9753   6.021   4.279   2.621
 5554W        W 9754   4.960   2.339   2.662
 5555W        W 9755  10.349   9.486  10.285
 5556W        W 9756   2.597   9.847  11.100
 5557W        W 9757   1.421   1.749   3.128
 5558W        W 9758   5.550   5.386   2.258
 5559W        W 9759   4.879   7.102   1.507
 5560W        W 9760   0.374   1.309  11.302
 5561W        W 9761   5.573   4.640   9.018
 5562W        W 9762   5.918   6.506   9.447
 5563W        W 9763   0.237   6.793   2.096
 5564W        W 9764   9.921  10.462   1.243
 5565W        W 9765   2.305   3.349   1.326
 5566W        W 9766   4.930   9.112   8.530
 5567W        W 9767   8.539   3.862   1.745
 5568W        W 9768   1.516   4.802   2.676
 5569W        W 9769   6.230  11.467   1.400
 5570W        W 9770   1.854   6.939   3.177
 5571W        W 9771   3.161   3.605   0.771
 5572W        W 9772   7.697   9.209   1.292
 5573W        W 9773   7.879   8.075  10.219
 5574W        W 9774   9.570  11.381   0.976
 5575W        W 9775   6.753   6.560   9.945
 5576W        W 9776   3.045   5.527   2.471
 5577W        W 9777   7.327   8.553   2.776
 5578W        W 9778   3.399  10.928  10.804
 5579W        W 9779   8.041   1.318   1.260
 5580W        W 9780   5.927   3.073   0.322
 5581W        W 9781  11.293   1.074   3.568
 5582W        W 9782  10.310   3.714   1.706
 5583W        W 9783   4.603   3.364  10.030
 5584W        W 9784   8.507   7.666   9.046
 5585W        W 9785   7.710   5.246   8.499
 5586W        W 9786   1.728   3.138   2.260
 5587W        W 9787   3.141   7.033   9.884
 5588W        W 9788   2.279   2.467   1.693
 5589W        W 9789   9.507   7.400   9.959
 5590W        W 9790   7.491   0.238  11.149
 5591W        W 9791   6.635   2.338   1.379
 5592W        W 9792   8.638   7.637   9.891
 5593W        W 9793  10.975   3.589   0.460
 5594W        W 9794   3.594   2.340   0.472
 5595W        W 9795   8.131   6.600  11.289
 5596W        W 9796   6.948   0.336   1.121
 5597W        W 9797   0.939   5.726   8.994
 5598W        W 9798  10.294   5.659   2.441
 5599W        W 9799   4.201   6.918  11.327
 5600W        W 9800   0.128   0.737  10.811
 5601W        W 9801   1.454  11.362   0.870
 5602W        W 9802  10.016   0.308   9.129
 5603W        W 9803   2.235   1.921   8.716
 5604W        W 9804   1.375   1.436   1.791
 5605W        W 9805   9.128   9.950   3.082
 5606W        W 9806   8.632   1.156  11.023
 5607W        W 9807   9.292   2.665   2.542
 5608W        W 9808   9.190  11.474   0.207
 5609W        W 9809   7.517   8.771   9.147
 5610W        W 9810   2.772   1.588   1.509
 5611W        W 9811  10.680  10.605   2.915
 5612W        W 9812  10.424   8.215   3.482
 5613W        W 9813   8.379   7.922   1.361
 5614W        W 9814   2.183   0.654   2.846
 5615W        W 9815   6.440   1.173  11.204
 5616W        W 9816   7.197   6.468   1.722
 5617W        W 9817   5.407   5.274   9.540
 5618W        W 9818   0.118   1.628   2.725
 5619W        W 9819   3.179   2.815   9.914
 5620W        W 9820   3.011   4.710   2.979
 5621W        W 9821   2.049   5.144   0.664
 5622W        W 9822   6.025   9.433   9.553
 5623W        W 9823   9.041   5.130   2.397
 5624W        W 9824   8.458   0.418   1.240
 5625W        W 9825  10.339   6.463  11.009
 5626W        W 9826   7.086   8.436  11.058
 5627W        W 9827   4.052   4.741  10.710
 5628W        W 9828   2.330   7.724   8.949
 5629W        W 9829   6.563   3.076   4.141
 5630W        W 9830  11.220  11.034  11.037
 5631W        W 9831   0.001   3.448   9.079
 5632W        W 9832   2.988   8.372   9.035
 5633W        W 9833   6.234   9.343  11.987
 5634W        W 9834   2.256   2.811   9.826
 5635W        W 9835   9.893   6.152  11.467
 5636W        W 9836   8.688   6.600   1.777
 5637W        W 9837  10.406  10.450  10.798
 5638W        W 9838  10.042   4.087   0.893
 5639W        W 9839   7.081   0.770   3.175
 5640W        W 9840  10.399   4.499   2.860
 5641W        W 9841   8.756   2.310   1.815
 5642W        W 9842   9.204   3.817   9.415
 5643W        W 9843   5.487   5.040   9.985
 5644W        W 9844   6.933  10.765   2.356
 5645W        W 9845   3.524   7.726  11.953
 5646W        W 9846   0.240   2.724   1.530
 5647W        W 9847   1.826   8.184   1.996
 5648W        W 9848   9.146   9.064   9.782
 5649W        W 9849   1.205   4.807  11.497
 5650W        W 9850  11.387   9.826   9.220
 5651W        W 9851   8.593   9.346  10.628
 5652W        W 9852   7.970   2.330  10.746
 5653W        W 9853   0.495   8.035  11.820
 5654W        W 9854   4.462   2.815  10.654
 5655W        W 9855   8.926   1.564  11.184
 5656W        W 9856   3.487   3.797   1.173
 5657W        W 9857   6.443   3.527   0.872
 5658W        W 9858   6.571   2.848   1.360
 5659W        W 9859  10.446   3.290  10.615
 5660W        W 9860   3.705   8.285  11.291
 5661W        W 9861   4.132   6.579   0.771
 5662W        W 9862   4.739   0.315  10.337
 5663W        W 9863  10.124   0.104  11.512
 5664W        W 9864  10.977  11.245   9.934
 5665W        W 9865   0.791   5.062   3.239
 5666W        W 9866  10.072   1.366   2.454
 5667W        W 9867   8.890   4.176   0.262
 5668W        W 9868   0.784  10.102   3.172
 5669W        W 9869  10.871   9.643   2.699
 5670W        W 9870   3.434   3.146   0.883
 5671W        W 9871  11.019   7.005   3.596
 5672W        W 9872   1.282   2.323   2.829
 5673W        W 9873   2.173  10.831   1.378
 5674W        W 9874   7.165  10.328   2.452
 5675W        W 9875   3.418  11.065   9.930
 5676W        W 9876   2.232   3.311   9.641
 5677W        W 9877   3.499   3.966  10.626
 5678W        W 9878   1.870   5.521   9.344
 5679W        W 9879   8.669   5.196   2.877
 5680W        W 9880   5.543   7.353   9.785
 5681W        W 9881   4.313   7.514   0.764
 5682W        W 9882   0.956   2.686   2.666
 5683W        W 9883   0.202   6.825  10.503
 5684W        W 9884   5.461   4.104   4.042
 5685W        W 9885   8.188   8.079   8.962
 5686W        W 9886   8.890   5.461  10.217
 5687W        W 9887   7.476   2.370  10.500
 5688W        W 9888   7.702  11.235   9.789
 5689W        W 9889   0.198   5.263   8.974
 5690W        W 9890   1.893   6.993   1.464
 5691W        W 9891   0.957   5.276   2.157
 5692W        W 9892   7.627   0.563   1.779
 5693W        W 9893  11.408   5.688   9.934
 5694W        W 9894   2.625  11.246   9.515
 5695W        W 9895  10.849   7.174  10.006
 5696W        W 9896   3.743   4.757   2.260
 5697W        W 9897   4.675   9.927   0.504
 5698W        W 9898   7.874   1.550  11.929
 5699W        W 9899   0.753   0.422   8.674
 5700W        W 9900  11.342   0.026  11.280
 5701W        W 9901   0.467   8.018   0.624
 5702W        W 9902  10.228  11.319  10.297
 5703W        W 9903   1.440   4.242   0.230
 5704W        W 9904   4.908   1.311   3.259
 5705W        W 9905   7.666   8.985  10.901
 5706W        W 9906   6.891   8.846   8.516
 5707W        W 9907   3.678   5.488  10.852
 5708W        W 9908   4.945   4.338  10.504
 5709W        W 9909   0.385   8.776   0.329
 5710W        W 9910   6.950   4.583  10.335
 5711W        W 9911   8.205   9.630   8.786
 5712W        W 9912   5.018   2.903  10.628
 5713W        W 9913   9.772   4.587  10.615
 5714W        W 9914  11.140   8.484  10.413
 5715W        W 9915   4.461   7.995   1.890
 5716W        W 9916   6.418   1.315   1.235
 5717W        W 9917   1.441   9.076   1.192
 5718W        W 9918   9.915   6.447   3.571
 5719W        W 9919   1.319   7.158   2.331
 5720W        W 9920   8.064   4.146   1.089
 5721W        W 9921   4.803   5.241   1.871
 5722W        W 9922   0.393   3.492   9.423
 5723W        W 9923   6.976   1.714   2.129
 5724W        W 9924   4.418  10.287   0.938
 5725W        W 9925  10.030   8.086   9.821
 5726W        W 9926  10.297   3.974  11.984
 5727W        W 9927   8.409   6.165   1.714
 5728W        W 9928  11.287   3.405   0.859
 5729W        W 9929   4.460   6.310   1.149
 5730W        W 9930   0.032   8.548   0.644
 5731W        W 9931   8.837   1.124   3.367
 5732W        W 9932   3.879   7.105   1.493
 5733W        W 9933   9.030   4.325   0.732
 5734W        W 9934   7.751   1.470   1.667
 5735W        W 9935  11.358  10.127  11.631
 5736W        W 9936   4.170   5.060   2.343
 5737W        W 9937   8.927   7.570   1.670
 5738W        W 9938   3.158   7.713   9.417
 5739W        W 9939   2.294   4.784   0.962
 5740W        W 9940   1.404  11.442   8.815
 5741W        W 9941   1.439  11.321  11.561
 5742W        W 9942   7.142   2.933   8.824
 5743W        W 9943  11.187   9.277  11.002
 5744W        W 9944   0.430   3.755   3.240
 5745W        W 9945   1.017   8.466  10.310
 5746W        W 9946   8.795   5.994   8.335
 5747W        W 9947   6.366   0.810  10.692
 5748W        W 9948   5.516   3.711   8.141
 5749W        W 9949   9.568   8.626   3.271
 5750W        W 9950   5.906   3.382   1.889
 5751W        W 9951   2.278   8.432  10.303
 5752W        W 9952   5.717   9.102   3.556
 5753W        W 9953   3.614   1.889   9.505
 5754W        W 9954   1.341   4.745   2.194
 5755W        W 9955   6.065   8.338   2.698
 5756W        W 9956  10.384   6.589   3.376
 5757W        W 9957   0.302  10.561   9.160
 5758W        W 9958   9.563   5.541   1.127
 5759W        W 9959   8.522   0.951   2.077
 5760W        W 9960   2.898   7.870   1.322
 5761W        W 9961   0.083  10.583  11.737
 5762W        W 9962   5.188   0.961  11.444
 5763W        W 9963   9.068   7.601   2.661
 5764W        W 9964   2.272   0.856  10.847
 5765W        W 9965   6.294  10.517  10.767
 5766W        W 9966   3.493   3.756   3.571
 5767W        W 9967  10.580   9.981  10.984
 5768W        W 9968   6.154   1.752  11.014
 5769W        W 9969   8.106   7.678  11.188
 5770W        W 9970   2.171   8.889  11.036
 5771W        W 9971   8.936   6.029   0.783
 5772W        W 9972  10.173   4.254  10.611
 5773W        W 9973   3.282   9.078   9.067
 5774W        W 9974  10.494   9.045   8.881
 5775W        W 9975  10.035   9.015   2.175
 5776W        W 9976  10.317   5.394  10.611
 5777W        W 9977   1.682   3.817   2.833
 5778W        W 9978  11.258  10.281   0.624
 5779W        W 9979   1.951  11.454   1.859
 5780W        W 9980   4.524  10.914  11.450
 5781W        W 9981   2.768   2.059   9.043
 5782W        W 9982   6.158   9.056   2.302
 5783W        W 9983   8.965   0.368   2.667
 5784W        W 9984   9.540   6.448   9.614
 5785W        W 9985   1.371   3.836  10.950
 5786W        W 9986   7.422   7.608  11.715
 5787W        W 9987   0.973   3.679  10.390
 5788W        W 9988   4.891   7.193   0.570
 5789W        W 9989  10.425  10.773   2.464
 5790W        W 9990   3.320   3.751   9.786
 5791W        W 9991   1.642  11.224   3.669
 5792W        W 9992   7.197   7.490   1.061
 5793W        W 9993   3.132  10.809  11.281
 5794W        W 9994   0.306  10.056   1.414
 5795W        W 9995   8.626   1.979   1.460
 5796W        W 9996   5.169   1.940  10.945
 5797W        W 9997   4.703   6.058  10.769
 5798W        W 9998  10.064   7.591   1.349
 5799W        W 9999   2.283   9.855   2.532
 5800W        W10000  10.352   4.957   8.836
 5801W        W10001   4.682  10.557   1.816
 5802W        W10002   6.993   0.375   0.123
 5803W        W10003   0.598  11.360  11.768
 5804W        W10004   9.207   5.213  11.332
 5805W        W10005   8.024   5.661   8.677
 5806W        W10006   8.560  11.031   1.772
 5807W        W10007   2.515   4.769   2.855
 5808W        W10008   3.710   3.078   9.038
 5809W        W10009   3.544   9.541   3.611
 5810W        W10010   2.595   9.352   0.720
 5811W        W10011   2.684   4.285  10.268
 5812W        W10012   3.699   4.248   2.172
 5813W        W10013   8.462   9.579   0.156
 5814W        W10014   7.718   6.443   9.165
 5815W        W10015   1.914   0.978   0.753
 5816W        W10016   8.992  10.868   2.526
 5817W        W10017   2.837   5.559  10.764
 5818W        W10018  10.884  10.536   0.867
 5819W        W10019   5.642  10.138   9.868
 5820W        W10020   5.641   9.557   3.260
 5821W        W10021   6.495   1.238   2.354
 5822W        W10022   6.102   1.498   8.975
 5823W        W10023   0.851   4.859   8.502
 5824W        W10024   8.693   4.734   9.281
 5825W        W10025   6.214   1.670   2.983
 5826W        W10026   6.667   0.584  11.763
 5827W        W10027   4.683   1.323   0.823
 5828W        W10028   9.452   8.776  10.832
 5829W        W10029   2.647   9.015  11.164
 5830W        W10030   3.658   2.359   1.916
 5831W        W10031   0.025   8.938   2.346
 5832W        W10032   1.821   8.711   1.924
 5833W        W10033   8.946   8.445  11.033
 5834W        W10034   8.054   4.788   1.717
 5835W        W10035   7.097   6.497   1.185
 5836W        W10036   5.967   8.488   0.320
 5837W        W10037   9.899   1.870   2.491
 5838W        W10038   8.643   6.472   9.120
 5839W        W10039   6.221   3.642   3.150
 5840W        W10040   2.654   8.842   1.412
 5841W        W10041   3.653   9.943   1.345
 5842W        W10042   0.872   4.604  11.807
 5843W        W10043  11.411   3.657  11.464
 5844W        W10044  10.488   5.706  11.922
 5845W        W10045   7.496   4.084   9.808
 5846W        W10046   7.914   7.941   3.178
 5847W        W10047   1.459   9.891   9.288
 5848W        W10048  10.514   0.069   2.808
 5849W        W10049   2.240  10.655   0.881
 5850W        W10050   2.885   3.434  11.365
 5851W        W10051  11.428   1.061  11.305
 5852W        W10052   8.288   3.724   0.855
 5853W        W10053   5.242   9.760   1.177
 5854W        W10054   0.312   7.465   9.294
 5855W        W10055  10.411   4.219   1.792
 5856W        W10056   8.929   0.123   8.774
 5857W        W10057   0.380   8.358   1.492
 5858W        W10058  10.782   1.823   1.249
 5859W        W10059   1.176  10.332   2.221
 5860W        W10060  10.067   3.252  11.433
 5861W        W10061   6.420   7.839  10.896
 5862W        W10062   6.054   4.338   0.844
 5863W        W10063   6.642   1.287   0.436
 5864W        W10064   8.004   4.256  11.115
 5865W        W10065   8.734   5.805  10.561
 5866W        W10066   7.414   8.290  10.066
 5867W        W10067   8.937   8.073   9.900
 5868W        W10068   6.735  11.420   1.351
 5869W        W10069   1.626   6.180   9.529
 5870W        W10070   1.688   0.943  10.146
 5871W        W10071   1.747   2.444   3.574
 5872W        W10072   6.841   1.396   1.493
 5873W        W10073   5.220   2.152  11.856
 5874W        W10074  11.358   0.409  11.732
 5875W        W10075   2.117   9.112   1.998
 5876W        W10076   8.910   8.512   2.194
 5877W        W10077   3.903   7.027   3.254
 5878W        W10078  10.866   5.883   3.615
 5879W        W10079   2.504   7.052  10.494
 5880W        W10080  10.465   5.639   1.413
 5881W        W10081   3.203   5.621  11.528
 5882W        W10082   7.940   7.004   9.572
 5883W        W10083   6.648   0.372   3.059
 5884W        W10084   9.370   3.209   8.494
 5885W        W10085   4.710   7.042   9.017
 5886W        W10086   5.087   7.160  10.979
 5887W        W10087   8.327   4.817   2.173
 5888W        W10088  11.324   4.794   0.293
 5889W        W10089   2.381   8.616   2.794
 5890W        W10090   6.471   8.011   8.673
 5891W        W10091  11.040   2.827   1.853
 5892W        W10092   6.525   8.478   9.899
 5893W        W10093   5.559   3.276   9.812
 5894W        W10094  10.528   5.549  11.035
 5895W        W10095  10.285   0.288   1.330
 5896W        W10096   3.426  10.190   0.652
 5897W        W10097   4.916   1.154  10.521
 5898W        W10098   2.662  10.976  11.254
 5899W        W10099   7.538  10.178  11.921
 5900W        W10100   2.112   6.659   0.359
 5901W        W10101  10.411   1.048   9.697
 5902W        W10102   7.333   8.339   1.422
 5903W        W10103   2.542   8.860  10.349
 5904W        W10104   2.692   5.817   1.612
 5905W        W10105   7.519   9.574   2.802
 5906W        W10106   8.641   3.276   2.656
 5907W        W10107   6.491  11.409   2.853
 5908W        W10108   5.288   4.767   9.422
 5909W        W10109   1.676   9.757  10.099
 5910W        W10110   0.253   7.604   2.759
 5911W        W10111   2.860  10.412   1.408
 5912W        W10112  10.403   3.813   1.214
 5913W        W10113   6.212   8.180   9.083
 5914W        W10114   9.514   0.219   0.587
 5915W        W10115   6.048   7.093   1.701
 5916W        W10116   4.483  10.495  10.582
 5917W        W10117   0.379  11.026   8.965
 5918W        W10118  11.068   1.849   0.793
 5919W        W10119   3.370   9.779   0.958
 5920W        W10120   5.424   1.057  10.440
 5921W        W10121   6.567   9.517   1.637
 5922W        W10122   6.228   1.864   8.413
 5923W        W10123   0.287   8.496   8.790
 5924W        W10124   1.667   3.143  11.948
 5925W        W10125   9.062   8.506   3.230
 5926W        W10126   4.645   8.745   9.784
 5927W        W10127   9.284   2.846   8.899
 5928W        W10128   7.249  11.460   1.324
 5929W        W10129   6.300   8.828   0.023
 5930W        W10130   9.418   6.158   8.730
 5931W        W10131  10.009   4.571   1.790
 5932W        W10132   1.732   1.945   3.520
 5933W        W10133   1.001   2.249   3.654
 5934W        W10134  11.256   9.462  10.522
 5935W        W10135   2.611   1.102   8.792
 5936W        W10136  10.895   4.732   9.967
 5937W        W10137   2.128   6.802  10.756
 5938W        W10138   7.135   7.955  11.957
 5939W        W10139   1.444  10.896  10.743
 5940W        W10140   9.257   7.488  11.923
 5941W        W10141   4.247   8.462   1.820
 5942W        W10142  10.006   5.781   1.221
 5943W        W10143   4.484  10.665   2.292
 5944W        W10144  10.081   2.661  11.964
 5945W        W10145   2.797   8.605   1.947
 5946W        W10146  10.507   4.570  10.282
 5947W        W10147   7.406   9.877  10.994
 5948W        W10148   4.219  11.176   2.263
 5949W        W10149   8.225   8.590   0.843
 5950W        W10150   8.966   6.765   0.495
 5951W        W10151   6.712   1.868   9.811
 5952W        W10152   1.606   0.664   0.423
 5953W        W10153   9.158   6.725   2.673
 5954W        W10154   8.998   7.397   0.812
 5955W        W10155   7.118   5.568   9.964
 5956W        W10156   2.631   9.923   1.349
 5957W        W10157  11.317   0.678   0.164
 5958W        W10158   7.120   2.529   0.251
 5959W        W10159   5.307   5.245   1.484
 5960W        W10160   5.219   0.223  10.177
 5961W        W10161  11.020   8.886   2.291
 5962W        W10162   0.702   9.261   8.870
 5963W        W10163   7.469   1.852   2.463
 5964W        W10164  10.970   5.974   8.969
 5965W        W10165   2.708  11.399   2.892
 5966W        W10166   0.698   4.126  11.534
 5967W        W10167   8.883   5.585  11.022
 5968W        W10168  11.181   7.216  11.483
 5969W        W10169   5.780   6.992  10.080
 5970W        W10170   9.197   2.332   3.500
 5971W        W10171   1.769  11.297   2.327
 5972W        W10172   6.936   2.238  10.086
 5973W        W10173  10.415   7.508   8.865
 5974W        W10174   0.884   0.241   1.653
 5975W        W10175   8.609   8.979  11.475
 5976W        W10176   1.419   9.787   2.015
 5977W        W10177   4.273   4.333   2.815
 5978W        W10178  10.066   5.078   1.946
 5979W        W10179  10.341  11.090  11.625
 5980W        W10180  10.617   3.155   2.878
 5981W        W10181  10.973   7.677  10.797
 5982W        W10182   7.028   7.137  11.050
 5983W        W10183   9.358   9.527  11.688
 5984W        W10184  10.599   7.994   0.899
 5985W        W10185   5.049   5.232  10.956
 5986W        W10186   1.572   1.939   2.629
 5987W        W10187   1.455   4.503   1.087
 5988W        W10188   9.248   7.069  11.524
 5989W        W10189   0.210   9.422   2.630
 5990W        W10190   1.063   6.690   0.322
 5991W        W10191  11.427   1.506  11.560
 5992W        W10192   6.253   8.985   9.411
 5993W        W10193   3.812  10.845   2.313
 5994W        W10194   6.143   5.705  11.749
 5995W        W10195   5.551   1.852   2.661
 5996W        W10196   2.506   8.973   9.472
 5997W        W10197  10.039  10.950   0.463
 5998W        W10198  10.080   8.597   3.411
 5999W        W10199   6.949   7.074   3.602
 6000W        W10200   4.210  10.021  10.280
 6001W        W10201   3.315  10.349  11.312
 6002W        W10202   3.018   6.223   1.603
 6003W        W10203   2.819   0.395   2.933
 6004W        W10204   6.142  11.003  11.937
 6005W        W10205   7.996   6.105   2.007
 6006W        W10206   4.538   4.313  11.379
 6007W        W10207   5.045   0.185   0.751
 6008W        W10208   4.061   9.698  11.063
 6009W        W10209   9.949   8.566   2.932
 6010W        W10210   5.128   3.595   3.212
 6011W        W10211  10.447   1.947  10.060
 6012W        W10212   2.715   5.518   3.597
 6013W        W10213   7.664   9.861  10.518
 6014W        W10214   8.272   5.574   1.211
 6015W        W10215   3.878   0.768  11.757
 6016W        W10216   1.037   7.016   3.632
 6017W        W10217   2.290   7.930   3.222
 6018W        W10218   0.542   7.954   3.593
 6019W        W10219   7.921   1.432   9.756
 6020W        W10220   1.339   2.538   8.812
 6021W        W10221   8.263   8.064  10.551
 6022W        W10222  10.852   0.979   2.230
 6023W        W10223   0.499   1.903   0.997
 6024W        W10224   9.375   9.621   9.418
 6025W        W10225   7.931   5.179   2.269
 6026W        W10226   8.796   4.598   2.268
 6027W        W10227   5.131   3.706   0.202
 6028W        W10228   9.294   7.135   2.372
 6029W        W10229   8.369   0.455   9.421
 6030W        W10230   7.900  11.252   0.764
 6031W        W10231   1.004   7.307  10.930
 6032W        W10232   9.159   5.138   9.909
 6033W        W10233   6.532  10.260   0.319
 6034W        W10234   6.990   3.593   2.682
 6035W        W10235   6.206  11.430   1.905
 6036W        W10236   6.094   9.479   3.531
 6037W        W10237   1.547   8.849   3.625
 6038W        W10238   5.529   9.549   0.777
 6039W        W10239  11.011   3.217   9.114
 6040W        W10240   0.704   6.511   3.503
 6041W        W10241   0.012   5.349  11.227
 6042W        W10242   2.726   4.027   2.501
 6043W        W10243   9.775   3.087   0.022
 6044W        W10244   7.095   4.431  10.834
 6045W        W10245   3.805   6.970   0.624
 6046W        W10246   7.408   6.664   2.247
 6047W        W10247  11.032  10.963   9.526
 6048W        W10248   6.993   8.635  11.540
 6049W        W10249   4.634   7.211   1.036
 6050W        W10250   1.726   0.311   2.163
 6051W        W10251   5.498   4.552   9.836
 6052W        W10252  10.407   3.048  11.084
 6053W        W10253  10.190   7.048   1.402
 6054W        W10254   2.431   8.635   9.866
 6055W        W10255   8.431   0.303  10.990
 6056W        W10256  10.949   5.390   3.500
 6057W        W10257  10.593   1.392   2.414
 6058W        W10258   9.594   8.236   0.887
 6059W        W10259   3.673   9.481  11.330
 6060W        W10260   6.597   0.343  10.558
 6061W        W10261   3.651   5.767   9.923
 6062W        W10262   6.973   1.752  11.758
 6063W        W10263   9.852   8.144  10.333
 6064W        W10264  10.367   3.979   2.571
 6065W        W10265   8.257   2.190   2.758
 6066W        W10266  10.217   2.182  11.403
 6067W        W10267   2.418  10.481   3.120
 6068W        W10268   3.805   9.801  10.076
 6069W        W10269   8.658   0.953   8.613
 6070W        W10270   2.598   4.870   1.788
 6071W        W10271   6.051   3.235   2.875
 6072W        W10272   2.684   3.387   9.409
 6073W        W10273  10.015   7.681  10.624
 6074W        W10274   6.916   5.863  10.919
 6075W        W10275   5.935  10.813   2.195
 6076W        W10276   4.489   7.672   1.253
 6077W        W10277   9.610  11.063   1.413
 6078W        W10278   5.928   5.037   2.233
 6079W        W10279   9.937   2.222   9.385
 6080W        W10280   4.552   4.460   4.062
 6081W        W10281   9.079   8.234   0.965
 6082W        W10282   6.057   8.471  10.779
 6083W        W10283  10.207  10.375   2.152
 6084W        W10284   6.285   8.487   8.665
 6085W        W10285   7.687   3.485   1.180
 6086W        W10286   1.834   1.739   2.218
 6087W        W10287   3.134  11.336   9.588
 6088W        W10288   8.961   0.695  11.785
 6089W        W10289   0.782   9.272   9.850
 6090W        W10290   9.351   4.743   0.810
 6091W        W10291   2.208   5.742   1.451
 6092W        W10292   0.753   4.298   9.081
 6093W        W10293   8.916   3.913   9.001
 6094W        W10294   0.287   9.772   0.437
 6095W        W10295   1.913   7.773   8.605
 6096W        W10296   4.853   8.932   1.019
 6097W        W10297  10.887   5.045   9.548
 6098W        W10298   7.381   9.651   9.291
 6099W        W10299   4.334   9.471   2.481
 6100W        W10300  11.083   4.308   1.029
 6101W        W10301   0.883   4.148   2.173
 6102W        W10302   5.795   6.163  10.227
 6103W        W10303   3.460   9.527   9.828
 6104W        W10304   9.938   1.716   1.533
 6105W        W10305   9.508   5.369   0.146
 6106W        W10306   2.841   5.735   0.711
 6107W        W10307   6.986   4.726  11.656
 6108W        W10308   8.770   8.580   1.717
 6109W        W10309   3.888   9.833   0.885
 6110W        W10310   9.563   3.740  11.352
 6111W        W10311   3.675   0.243  10.526
 6112W        W10312   4.622   6.992  11.050
 6113W        W10313   7.828   0.867  11.238
 6114W        W10314   8.494  11.280  10.041
 6115W        W10315   2.778  10.636   0.185
 6116W        W10316   8.976   2.821  10.605
 6117W        W10317   4.488  10.954   3.446
 6118W        W10318  10.339  10.644  11.317
 6119W        W10319   3.736   8.092   0.302
 6120W        W10320   2.846   8.184  11.484
 6121W        W10321   4.725   3.310  10.539
 6122W        W10322   1.160   8.962   9.743
 6123W        W10323  10.120   1.454  11.344
 6124W        W10324   6.246   1.358   9.476
 6125W        W10325   0.477   7.843  10.412
 6126W        W10326   3.117   8.917   0.479
 6127W        W10327   3.342   0.434   0.514
 6128W        W10328   5.196   8.163   9.410
 6129W        W10329  11.212   2.796   9.352
 6130W        W10330   9.351  10.524   2.310
 6131W        W10331   9.004  10.512   3.344
 6132W        W10332   0.345   8.854  11.372
 6133W        W10333   2.168   2.387   9.530
 6134W        W10334   8.023   0.380   1.483
 6135W        W10335   9.703  11.456   9.421
 6136W        W10336   1.715   4.825  11.532
 6137W        W10337   1.949  10.542   1.788
 6138W        W10338   8.136   8.912   0.340
 6139W        W10339   6.283   6.682   1.871
 6140W        W10340   4.214   4.629  11.763
 6141W        W10341   7.097   8.928   0.597
 6142W        W10342   4.178   2.728   3.627
 6143W        W10343   2.974   3.722   3.660
 6144W        W10344   3.737   8.848   9.225
 6145W        W10345   6.437   0.465   0.205
 6146W        W10346   6.137  11.275   2.378
 6147W        W10347   5.157   6.584   0.677
 6148W        W10348   5.159  11.028   2.744
 6149W        W10349   2.737   0.196  10.436
 6150W        W10350   7.702  10.771   2.167
 6151W        W10351   8.143  11.039   1.422
 6152W        W10352   5.463   8.016  10.762
 6153W        W10353  10.286   1.296   0.702
 6154W        W10354   5.533   8.539   3.800
 6155W        W10355   9.526   2.512   0.589
 6156W        W10356   5.180   4.470   2.860
 6157W        W10357   0.936   3.154   3.608
 6158W        W10358   2.368  11.146   0.983
 6159W        W10359   3.641   6.902  10.659
 6160W        W10360   6.614   5.625  10.095
 6161W        W10361   6.436   2.387  11.450
 6162W        W10362   1.979   8.443  10.885
 6163W        W10363   1.192   9.448   9.511
 6164W        W10364   6.302   7.180   0.435
 6165W        W10365   8.839   1.683   0.183
 6166W        W10366   9.781   2.831   2.345
 6167W        W10367   4.027   4.626   1.394
 6168W        W10368   5.483  10.032   2.934
 6169W        W10369   6.213  10.258   8.993
 6170W        W10370   7.022  10.946   9.054
 6171W        W10371   5.727   2.822   2.885
 6172W        W10372   1.159   1.682  11.746
 6173W        W10373  11.486   9.098  11.954
 6174W        W10374   7.893   5.464  11.895
 6175W        W10375   5.555   7.089  11.169
 6176W        W10376   4.291   2.052   8.803
 6177W        W10377   6.173   6.473   1.436
 6178W        W10378   3.297   9.970   2.770
 6179W        W10379   0.720   1.143   0.200
 6180W        W10380   0.284  10.061   9.028
 6181W        W10381   7.154   9.995   9.597
 6182W        W10382  10.918   6.227   2.509
 6183W        W10383   6.647  10.340   2.209
 6184W        W10384  10.830   3.431   9.610
 6185W        W10385   7.934   1.307  10.263
 6186W        W10386   9.830   4.232   9.803
 6187W        W10387   7.295   0.712   2.308
 6188W        W10388   0.900   8.065   2.539
 6189W        W10389  10.392   9.898   9.973
 6190W        W10390   3.729   6.486   0.359
 6191W        W10391   5.356   5.491   2.743
 6192W        W10392   1.859   4.096   1.345
 6193W        W10393   9.093  10.739   8.958
 6194W        W10394  10.077   1.750   9.064
 6195W        W10395  10.281   0.749   3.298
 6196W        W10396   1.338   6.597  11.348
 6197W        W10397   6.517   1.751   9.289
 6198W        W10398   9.327   0.465   8.737
 6199W        W10399   6.605  10.527   9.667
 6200W        W10400   1.790   8.534  10.413
 6201W        W10401   6.565   4.202   0.255
 6202W        W10402   0.676   4.532   3.399
 6203W        W10403   9.320   4.137  11.988
 6204W        W10404   6.703   9.446   1.155
 6205W        W10405   9.952  10.574   1.755
 6206W        W10406   2.117   7.608   0.250
 6207W        W10407   8.891   1.029   2.862
 6208W        W10408   8.537  10.401   3.155
 6209W        W10409   6.970  11.444  11.871
 6210W        W10410   3.412   9.903   1.802
 6211W        W10411   6.203   8.592   0.853
 6212W        W10412  11.204   7.922  10.360
 6213W        W10413  11.238   0.864   3.063
 6214W        W10414   7.728   0.755  10.023
 6215W        W10415   8.143   5.418   0.749
 6216W        W10416   9.067   5.684   1.125
 6217W        W10417   6.139   7.531   3.599
 6218W        W10418   8.837   1.440   0.894
 6219W        W10419   5.969  11.344  10.376
 6220W        W10420   5.963   8.090   8.621
 6221W        W10421   8.481   7.423   2.328
 6222W        W10422   4.582   0.061  11.992
 6223W        W10423  10.001   3.310   2.272
 6224W        W10424   8.712   8.396   9.585
 6225W        W10425  11.344   3.198   2.140
 6226W        W10426   0.693   1.656   0.028
 6227W        W10427   4.893   2.302   0.621
 6228W        W10428   9.317   8.323   3.655
 6229W        W10429  10.284   2.682  11.449
 6230W        W10430  10.580   8.111   9.179
 6231W        W10431   8.602   8.782   3.263
 6232W        W10432   0.924  10.289  11.851
 6233W        W10433   8.198   5.966  10.482
 6234W        W10434   2.233   9.867   3.696
 6235W        W10435   3.613   7.235   0.087
 6236W        W10436   4.748   9.914  11.442
 6237W        W10437   0.368  10.302  10.496
 6238W        W10438   9.289   0.583  10.961
 6239W        W10439   5.053   1.819   2.745
 6240W        W10440   1.997  10.229   0.739
 6241W        W10441   0.995   6.068  10.802
 6242W        W10442   4.909   7.537   3.068
 6243W        W10443   5.470   0.467   3.244
 6244W        W10444   7.925   0.488  10.881
 6245W        W10445   4.560   3.218   1.693
 6246W        W10446   2.262   6.741   1.787
 6247W        W10447   9.338   1.435   0.025
 6248W        W10448   3.783   0.326   1.908
 6249W        W10449   7.493   3.568  10.010
 6250W        W10450   4.543   7.509  11.812
 6251W        W10451   4.604   3.886  10.037
 6252W        W10452   5.754   5.661   9.536
 6253W        W10453   8.922  10.276  11.507
 6254W        W10454   5.472   1.368  11.504
 6255W        W10455   5.206   0.492   9.755
 6256W        W10456  11.462   6.892   2.670
 6257W        W10457   1.921   8.108  11.307
 6258W        W10458   5.982   5.342   0.747
 6259W        W10459  10.878   7.299  10.492
 6260W        W10460   5.680   8.059   1.543
 6261W        W10461   0.845  10.949   2.731
 6262W        W10462   0.817   6.384  11.996
 6263W        W10463   1.307  11.225   2.700
 6264W        W10464   7.286   6.902   1.433
 6265W        W10465   4.746   9.321  11.214
 6266W        W10466   8.914   9.011   2.050
 6267W        W10467   8.587   4.552   0.436
 6268W        W10468   8.893   4.234   1.683
 6269W        W10469   7.863   3.547   3.654
 6270W        W10470   5.631   8.020   0.992
 6271W        W10471   0.878   9.671  11.027
 6272W        W10472   9.890  11.437   2.164
 6273W        W10473   1.852   0.398   3.153
 6274W        W10474   9.062   6.234  11.150
 6275W        W10475   9.895  10.452  10.604
 6276W        W10476   7.833   5.620   2.580
 6277W        W10477  11.332   6.509   2.317
 6278W        W10478   0.150   2.189  10.306
 6279W        W10479   3.531   4.256  11.499
 6280W        W10480  10.493   0.388  10.507
 6281W        W10481   9.676   0.718   1.668
 6282W        W10482   3.979   3.649   1.204
 6283W        W10483   2.608   6.191   0.759
 6284W        W10484  11.085   4.712  11.833
 6285W        W10485   1.648   4.815   0.507
 6286W        W10486   4.161  10.553  11.006
 6287W        W10487   1.650   1.821   8.517
 6288W        W10488   3.682   8.351   9.418
 6289W        W10489   1.437  10.699   2.487
 6290W        W10490   4.264  10.370   9.573
 6291W        W10491   7.289   3.689   3.159
 6292W        W10492   1.207   4.561   0.625
 6293W        W10493   7.602  10.355  11.442
 6294W        W10494   8.993   9.817   9.124
 6295W        W10495   3.303   2.107   0.869
 6296W        W10496   4.206   2.004   2.198
 6297W        W10497   3.380   1.802  10.798
 6298W        W10498   1.345   8.047   2.279
 6299W        W10499   3.099   4.270   9.119
 6300W        W10500   7.141   3.046   1.923
 6301W        W10501   2.691   9.037   2.821
 6302W        W10502   7.660   3.657   9.499
 6303W        W10503  10.954  11.004   3.129
 6304W        W10504   7.718   0.394  10.403
 6305W        W10505   2.325   4.367   2.620
 6306W        W10506   8.428   2.837   9.520
 6307W        W10507   3.380   4.437   8.501
 6308W        W10508   9.155   6.815   3.957
 6309W        W10509   6.696   2.836  10.061
 6310W        W10510   7.876   1.002   8.894
 6311W        W10511   3.872   6.483  10.447
 6312W        W10512   5.695   1.866   1.099
 6313W        W10513   9.541   1.898   9.302
 6314W        W10514   8.950  11.220   9.099
 6315W        W10515   1.436   0.748   2.973
 6316W        W10516   2.704   8.672  11.543
 6317W        W10517   6.861  10.091   3.133
 6318W        W10518   6.925   1.948   9.000
 6319W        W10519   3.656   9.385  10.325
 6320W        W10520   9.369   0.516   3.427
 6321W        W10521   5.049   4.639   8.174
 6322W        W10522   9.994   2.336   0.356
 6323W        W10523   2.147   4.605   1.881
 6324W        W10524   6.764   8.364   8.455
 6325W        W10525  10.641   6.074  10.277
 6326W        W10526   7.483   1.255  10.031
 6327W        W10527   4.111   1.904   9.621
 6328W        W10528   5.965   9.185   9.049
 6329W        W10529   1.387   3.609   9.003
 6330W        W10530   9.576   6.113  11.052
 6331W        W10531   1.074   4.514   2.575
 6332W        W10532   1.760   3.923   8.866
 6333W        W10533   1.923   2.110   1.369
 6334W        W10534   3.717   3.129  10.820
 6335W        W10535   5.641   1.007   0.841
 6336W        W10536   9.413   0.787  11.405
 6337W        W10537   5.475   7.056   1.393
 6338W        W10538   3.625   9.583  11.893
 6339W        W10539  10.426   7.115   3.261
 6340W        W10540   0.158   2.387   3.279
 6341W        W10541  10.388   4.054   3.091
 6342W        W10542   9.425   3.174   3.253
 6343W        W10543   0.923   4.042   2.667
 6344W        W10544   8.191   3.847   2.922
 6345W        W10545   7.913   7.998   0.121
 6346W        W10546   0.756   4.687   0.910
 6347W        W10547   8.161   2.376   9.330
 6348W        W10548   5.612   4.721   1.999
 6349W        W10549   3.906   8.945   0.969
 6350W        W10550   8.907   6.013   1.853
 6351W        W10551   6.705   0.895   9.809
 6352W        W10552   8.804   3.449  11.989
 6353W        W10553   6.560   2.589   0.916
 6354W        W10554   6.932   6.007   1.809
 6355W        W10555   9.537   8.637   9.433
 6356W        W10556   1.295  10.821   0.337
 6357W        W10557   3.723   8.382  10.787
 6358W        W10558   0.819   1.771   9.935
 6359W        W10559   1.800   9.358   0.356
 6360W        W10560   2.333   5.207  10.002
 6361W        W10561   9.323   1.687   0.876
 6362W        W10562   9.841   0.180   2.773
 6363W        W10563   9.440  11.034   9.246
 6364W        W10564   1.997   2.710   3.200
 6365W        W10565   9.329   1.088   1.712
 6366W        W10566  10.409   5.945   9.025
 6367W        W10567   3.086   1.116   9.696
 6368W        W10568   8.453   7.498   0.405
 6369W        W10569   5.557  10.086   3.432
 6370W        W10570   9.089   1.897   3.213
 6371W        W10571   9.412   3.295   9.829
 6372W        W10572   9.323   5.724  11.275
 6373W        W10573   0.533   7.006   3.503
 6374W        W10574  10.244   3.224   3.383
 6375W        W10575   3.640   3.136   9.892
 6376W        W10576   1.387   8.124   9.264
 6377W        W10577   0.402   9.823   2.898
 6378W        W10578   1.375   0.386   3.323
 6379W        W10579   6.609   7.081   2.720
 6380W        W10580   7.351   3.575  11.880
 6381W        W10581   7.648  11.057   0.318
 6382W        W10582   4.806   8.921   2.000
 6383W        W10583   4.224   4.370   3.655
 6384W        W10584   5.465   8.474   0.237
 6385W        W10585   1.752   2.214   9.807
 6386W        W10586   8.619   5.912   2.283
 6387W        W10587   1.202   9.937  10.251
 6388W        W10588   3.039   7.414   1.169
 6389W        W10589   9.823   2.854   1.389
 6390W        W10590   6.084   0.402   1.198
 6391W        W10591   4.347  11.332   1.330
 6392W        W10592   5.964   6.260   1.870
 6393W        W10593   0.821  10.494  11.396
 6394W        W10594   7.070   2.727   1.118
 6395W        W10595   5.332   4.178   8.296
 6396W        W10596   1.393  10.971   9.015
 6397W        W10597   4.626   9.196   8.908
 6398W        W10598   1.144   9.991   0.242
 6399W        W10599   4.921   3.350   0.915
 6400W        W10600  11.154   1.628   3.493
 6401W        W10601   4.910   2.831   9.491
 6402W        W10602  10.131   7.950   9.333
 6403W        W10603   5.212  10.088  11.319
 6404W        W10604   2.748   3.857  10.516
 6405W        W10605   7.176   3.012   2.439
 6406W        W10606   2.845   6.041   0.296
 6407W        W10607   9.451   5.657   8.893
 6408W        W10608   8.462   4.100   8.755
 6409W        W10609  11.006   2.288   0.490
 6410W        W10610   5.235   2.405   9.450
 6411W        W10611   2.147   9.040  10.042
 6412W        W10612   4.052  10.389   2.441
 6413W        W10613   0.446   6.961   0.221
 6414W        W10614   9.579   5.034   1.215
 6415W        W10615   3.331  10.406   1.649
 6416W        W10616   3.387   6.659   0.702
 6417W        W10617   3.264   1.591   0.648
 6418W        W10618   4.620   8.420  11.245
 6419W        W10619   7.968   2.836   9.248
 6420W        W10620  10.376   1.825   3.198
 6421W        W10621   3.663   1.279   0.819
 6422W        W10622   1.650   9.098   9.883
 6423W        W10623   4.584   5.235  10.183
 6424W        W10624   5.146   0.435  11.266
 6425W        W10625   8.147  10.751   1.894
 6426W        W10626   2.405   9.292  10.709
 6427W        W10627  10.438   3.983  11.420
 6428W        W10628   6.145   2.836   9.387
 6429W        W10629   1.348   7.564   0.671
 6430W        W10630   4.022   2.883   8.590
 6431W        W10631  10.113   3.815   0.469
 6432W        W10632  11.324   1.366  10.293
 6433W        W10633   8.012   6.995   0.204
 6434W        W10634   1.115   9.476  11.448
 6435W        W10635  11.388   9.820   2.489
 6436W        W10636   9.652  11.157  10.742
 6437W        W10637   4.185   8.147  11.427
 6438W        W10638   9.411   6.887   1.166
 6439W        W10639   4.742   5.748   1.812
 6440W        W10640   3.145  10.967  10.354
 6441W        W10641   7.171   2.912   0.635
 6442W        W10642   6.675   0.022   9.632
 6443W        W10643   7.144  10.482   0.946
 6444W        W10644   9.625   1.249   2.168
 6445W        W10645   3.821  11.271   0.438
 6446W        W10646   6.735   7.979   4.091
 6447W        W10647   1.244   9.377   1.758
 6448W        W10648   4.201   6.611   3.138
 6449W        W10649   9.540   8.709  11.319
 6450W        W10650   1.188   5.927   0.838
 6451W        W10651  11.490   0.485   2.173
 6452W        W10652   2.915   7.975   1.834
 6453W        W10653   4.751   4.441   8.569
 6454W        W10654  10.452   3.743  10.343
 6455W        W10655   6.068   4.581   8.890
 6456W        W10656   3.389  11.500   8.666
 6457W        W10657   0.935   5.108  10.786
 6458W        W10658   0.211  10.571  10.099
 6459W        W10659   9.191  10.832  10.731
 6460W        W10660   7.588   6.077   1.034
 6461W        W10661   9.495   9.118   3.416
 6462W        W10662   7.688   2.152  11.282
 6463W        W10663   0.453   9.107  11.806
 6464W        W10664  10.388   5.468  10.124
 6465W        W10665   8.868   3.308   2.167
 6466W        W10666   0.386   8.938   2.716
 6467W        W10667   9.169   3.291  10.720
 6468W        W10668   4.804   8.496   9.362
 6469W        W10669  11.242   4.749   2.880
 6470W        W10670   7.195  11.223   2.337
 6471W        W10671   6.100   4.051   0.396
 6472W        W10672   1.873   3.667   9.797
 6473W        W10673  11.276   8.638   2.677
 6474W        W10674   1.543   8.269  11.635
 6475W        W10675   7.935  11.456   8.906
 6476W        W10676   0.698   5.298   8.761
 6477W        W10677   3.787   9.310  10.844
 6478W        W10678   2.788   7.012   9.253
 6479W        W10679   8.039   5.961  11.924
 6480W        W10680   3.901   2.375  10.297
 6481W        W10681   8.404   1.319  10.013
 6482W        W10682   0.430  10.984   2.243
 6483W        W10683   0.855   2.343  11.162
 6484W        W10684   9.603   6.086   3.370
 6485W        W10685   2.725   5.183   3.057
 6486W        W10686   1.746   8.958   0.799
 6487W        W10687   7.007  10.718  11.255
 6488W        W10688  11.061   7.209   2.643
 6489W        W10689   9.832   5.472  10.406
 6490W        W10690   1.274   3.244   3.226
 6491W        W10691   7.540   2.840   0.270
 6492W        W10692   4.390   0.502  11.093
 6493W        W10693   0.872   9.983   2.680
 6494W        W10694  10.331   0.882   0.993
 6495W        W10695   5.576   6.905   9.524
 6496W        W10696   0.200   6.647   3.659
 6497W        W10697   6.422   8.097   2.435
 6498W        W10698   5.613   3.674   2.814
 6499W        W10699   5.273   3.129  10.208
 6500W        W10700   1.347   5.826   1.314
 6501W        W10701   8.394   7.926   9.500
 6502W        W10702   5.737   0.870   8.621
 6503W        W10703   7.446   0.013  10.700
 6504W        W10704   9.025   2.037  11.878
 6505W        W10705   8.839   9.914   1.549
 6506W        W10706   4.187   8.237  10.931
 6507W        W10707  10.043   8.630  10.199
 6508W        W10708   6.414   0.449   9.721
 6509W        W10709   5.122  11.046   2.220
 6510W        W10710   2.862   6.980   0.359
 6511W        W10711   1.825   1.762   9.523
 6512W        W10712   7.895   0.204   9.348
 6513W        W10713   9.313   1.723  10.884
 6514W        W10714   4.022  11.304   1.757
 6515W        W10715   0.473   0.575   0.953
 6516W        W10716  11.386   9.509   0.270
 6517W        W10717   2.227  10.984  11.888
 6518W        W10718  10.451   0.807  10.176
 6519W        W10719   8.789   9.488   8.773
 6520W        W10720   0.024   8.126   9.527
 6521W        W10721   9.584   1.655   0.436
 6522W        W10722   5.238   4.266   0.393
 6523W        W10723   0.653   5.006   0.044
 6524W        W10724   3.489   7.821  10.366
 6525W        W10725  10.097   6.980  11.744
 6526W        W10726   4.083  11.407  11.993
 6527W        W10727   4.179   0.353   1.031
 6528W        W10728   1.743   8.095  10.124
 6529W        W10729   7.534   8.863   3.408
 6530W        W10730  10.474   9.880   2.433
 6531W        W10731   6.095   7.142   2.209
 6532W        W10732  10.334   4.688   0.946
 6533W        W10733  10.475   5.131   1.200
 6534W        W10734   7.852   9.927   3.122
 6535W        W10735  11.473   7.126   1.742
 6536W        W10736   6.138  10.343   9.873
 6537W        W10737   7.608   0.245   3.209
 6538W        W10738   2.880   6.631   0.760
 6539W        W10739   2.782  10.412  11.215
 6540W        W10740   4.206   3.585   3.300
 6541W        W10741  10.480   8.454   1.669
 6542W        W10742   0.204   0.850   9.216
 6543W        W10743   5.567   8.807  11.438
 6544W        W10744   5.979   8.310   9.922
 6545W        W10745   7.356   2.096   0.416
 6546W        W10746   3.143   1.789   3.010
 6547W        W10747   1.422   5.308   1.800
 6548W        W10748   5.984   8.653   9.049
 6549W        W10749   0.327   1.820   0.525
 6550W        W10750   0.316   4.691   2.073
 6551W        W10751   1.698   9.878   3.355
 6552W        W10752   1.284   6.661   2.163
 6553W        W10753   0.540   4.398   2.468
 6554W        W10754   5.747   0.804   1.305
 6555W        W10755   1.573   6.149   2.929
 6556W        W10756   0.419   8.081   2.691
 6557W        W10757   9.015   7.213   1.323
 6558W        W10758   1.678  10.887   3.298
 6559W        W10759   9.796   5.611   8.502
 6560W        W10760   0.632   7.659   2.298
 6561W        W10761   6.229   7.909   3.242
 6562W        W10762   4.392   5.382   0.258
 6563W        W10763   4.924   5.206   0.014
 6564W        W10764   6.590   0.354   9.227
 6565W        W10765   0.862   6.815  10.846
 6566W        W10766   6.508   9.105   1.923
 6567W        W10767   2.712   2.036   9.982
 6568W        W10768   5.028   8.404   9.843
 6569W        W10769   9.287   3.288   0.026
 6570W        W10770   8.391   7.952   3.597
 6571W        W10771   1.221   6.801   1.117
 6572W        W10772   8.914   2.130  11.389
 6573W        W10773   8.533   3.996   1.253
 6574W        W10774  10.137   5.918  10.338
 6575W        W10775   1.740   1.015   2.628
 6576W        W10776   4.221   4.332  10.932
 6577W        W10777   6.002  11.447   0.906
 6578W        W10778   1.050   6.221  11.555
 6579W        W10779   8.945   6.645  11.499
 6580W        W10780   5.469   6.194   0.821
 6581W        W10781   0.835   0.498  11.321
 6582W        W10782   2.585   0.197   1.500
 6583W        W10783   6.876   2.536   9.036
 6584W        W10784   7.821   9.358   2.023
 6585W        W10785   9.521   7.921   2.709
 6586W        W10786   5.604   5.667   1.493
 6587W        W10787   4.173   8.302   0.459
 6588W        W10788   7.714   6.915   0.998
 6589W        W10789   1.254   1.800   3.619
 6590W        W10790   6.168   6.206  10.573
 6591W        W10791   9.467   1.921   1.352
 6592W        W10792   2.313   3.131   0.877
 6593W        W10793   2.226   9.115   1.507
 6594W        W10794   7.114   3.800   0.292
 6595W        W10795   4.085   4.297   9.063
 6596W        W10796   2.806   0.677  11.865
 6597W        W10797   4.127  10.409   2.952
 6598W        W10798   9.534   4.887  11.004
 6599W        W10799   8.987   9.471  10.929
 6600W        W10800  11.420   2.142   8.583
 6601W        W10801   8.030  11.482  10.859
 6602W        W10802   8.640   1.800  10.393
 6603W        W10803   4.751   8.492   1.749
 6604W        W10804   8.618   0.215   9.797
 6605W        W10805   4.100   5.129   9.018
 6606W        W10806   3.239   7.222   9.426
 6607W        W10807   3.721   7.285  11.585
 6608W        W10808   5.527   7.140   0.823
 6609W        W10809   4.945   1.397   1.284
 6610W        W10810   9.564   7.049   3.741
 6611W        W10811   0.945   0.128   3.504
 6612W        W10812   3.803   9.553   9.418
 6613W        W10813  11.329   0.188   1.199
 6614W        W10814   0.909   8.765  10.802
 6615W        W10815   1.469  10.399   9.487
 6616W        W10816   6.204  10.393   2.493
 6617W        W10817   9.409  11.049   0.013
 6618W        W10818   0.411   2.181   9.276
 6619W        W10819   7.380   3.353   0.393
 6620W        W10820   2.430   4.596   8.786
 6621W        W10821   9.916   7.236   0.970
 6622W        W10822   0.465   3.811   9.025
 6623W        W10823   9.544   3.796   9.827
 6624W        W10824   8.616   1.303   0.444
 6625W        W10825   0.301   9.053   9.839
 6626W        W10826   8.017  10.323  11.798
 6627W        W10827   6.228   7.878  10.005
 6628W        W10828   2.773   0.945   0.797
 6629W        W10829   2.896   4.440   1.840
 6630W        W10830   6.082  10.067  10.727
 6631W        W10831  10.447   1.689   1.655
 6632W        W10832   0.404  11.296   2.778
 6633W        W10833   2.132   6.451   2.178
 6634W        W10834   5.404   4.086   3.116
 6635W        W10835   3.110   0.809   0.262
 6636W        W10836   7.637  10.685   3.516
 6637W        W10837   4.556   7.107   0.134
 6638W        W10838  10.827   6.597   1.694
 6639W        W10839   2.466  10.748   8.698
 6640W        W10840   7.031   6.899   1.933
 6641W        W10841   0.300   1.931   2.366
 6642W        W10842   2.662   7.055   0.994
 6643W        W10843   1.556   6.187   8.713
 6644W        W10844   6.061   9.284  10.086
 6645W        W10845   6.107   0.826   0.919
 6646W        W10846   6.153  10.227   0.670
 6647W        W10847   3.658   7.884  10.906
 6648W        W10848   7.431   4.658  11.918
 6649W        W10849   9.785   0.539  10.949
 6650W        W10850   7.126   7.897   0.562
 6651W        W10851   1.425   3.068   8.890
 6652W        W10852  10.823   9.038   1.844
 6653W        W10853   8.579   8.892  10.948
 6654W        W10854   9.064   8.890  11.765
 6655W        W10855   1.757   6.740   2.341
 6656W        W10856   7.467  10.883  11.447
 6657W        W10857   1.779   3.856   1.798
 6658W        W10858   1.483   5.638   8.918
 6659W        W10859   5.453   8.158   3.462
 6660W        W10860   9.410   9.598   0.526
 6661W        W10861   0.838   1.949   0.592
 6662W        W10862   4.871   3.932  11.324
 6663W        W10863  10.164   4.321   2.218
 6664W        W10864   8.526   0.935  11.688
 6665W        W10865   2.202   4.591  10.494
 6666W        W10866   1.101   9.021  10.262
 6667W        W10867   7.966   2.715   0.913
 6668W        W10868   2.243  11.499  10.426
 6669W        W10869   7.072   1.434   9.112
 6670W        W10870   1.032   8.493   1.303
 6671W        W10871   7.428   0.703  10.939
 6672W        W10872   6.509   8.599   2.616
 6673W        W10873  10.251   4.143  10.110
 6674W        W10874   1.483   1.471   8.856
 6675W        W10875   2.262  10.695  11.415
 6676W        W10876   0.990   0.025  11.465
 6677W        W10877   1.243   8.118  10.023
 6678W        W10878   2.299   4.372   3.554
 6679W        W10879   1.641   6.580   1.294
 6680W        W10880   1.370   6.678   8.794
 6681W        W10881   9.268   2.434   1.792
 6682W        W10882   8.371   4.105   9.773
 6683W        W10883   5.026   5.280   9.912
 6684W        W10884   0.252   4.071   0.359
 6685W        W10885   4.146   1.880   0.856
 6686W        W10886   7.038   4.268   9.090
 6687W        W10887   2.368   6.652   0.832
 6688W        W10888   7.018   4.081  10.449
 6689W        W10889   8.876   2.641  11.461
 6690W        W10890   8.991   2.682  10.109
 6691W        W10891  10.502   3.551   0.261
 6692W        W10892   4.032   4.020  11.856
 6693W        W10893   9.864   5.565   2.155
 6694W        W10894   7.939   7.159  11.295
 6695W        W10895   8.244   8.194   4.029
 6696W        W10896   8.713   5.530   9.372
 6697W        W10897   7.547   9.181   0.563
 6698W        W10898   8.009   6.518   3.238
 6699W        W10899   5.449   8.139   8.624
 6700W        W10900   0.078   4.225   1.136
 6701W        W10901   1.206   2.196   0.917
 6702W        W10902   9.972   9.222   1.320
 6703W        W10903   1.379   8.985   2.440
 6704W        W10904   3.691   1.876   0.646
 6705W        W10905   5.099   8.600  11.356
 6706W        W10906  10.863  10.403   0.299
 6707W        W10907   6.170   7.131   9.054
 6708W        W10908   0.922   6.119   0.427
 6709W        W10909   6.194   8.488   3.175
 6710W        W10910  11.276   0.782   9.502
 6711W        W10911   0.927   0.830   1.147
 6712W        W10912   7.508   8.081   1.871
 6713W        W10913   7.623  10.031   8.997
 6714W        W10914   5.249   8.780   4.177
 6715W        W10915  11.173   0.489   3.404
 6716W        W10916   6.053   3.555   0.486
 6717W        W10917   5.259  10.449   1.567
 6718W        W10918   8.504  11.302   8.778
 6719W        W10919   6.661   3.224  11.136
 6720W        W10920  10.884   3.765  11.572
 6721W        W10921   9.812  10.125  10.233
 6722W        W10922   0.429   5.703   9.063
 6723W        W10923   8.596   9.289   1.309
 6724W        W10924   7.575   2.585   9.555
 6725W        W10925   0.767   4.133   1.667
 6726W        W10926   8.697   3.651  11.516
 6727W        W10927   3.983   7.715   2.669
 6728W        W10928   5.762  11.358  11.289
 6729W        W10929   7.088   7.373   0.365
 6730W        W10930   7.419   1.820   9.055
 6731W        W10931   8.826   0.204   9.288
 6732W        W10932   7.418   9.259   8.948
 6733W        W10933   4.234  10.840   2.698
 6734W        W10934  11.169   2.410   0.960
 6735W        W10935   3.002   2.264   3.254
 6736W        W10936  10.960   9.280   1.408
 6737W        W10937   1.406   3.780  11.990
 6738W        W10938   1.583   1.258   8.375
 6739W        W10939   2.791   0.212   9.430
 6740W        W10940   8.432   2.725   9.028
 6741W        W10941   7.024  10.770   9.908
 6742W        W10942   2.394   2.740   2.123
 6743W        W10943   9.108   1.945   1.760
 6744W        W10944   1.598   5.718   9.731
 6745W        W10945   2.016   8.076  10.555
 6746W        W10946   1.056   6.117  10.175
 6747W        W10947  11.195   4.079   3.469
 6748W        W10948   7.495   5.684  10.295
 6749W        W10949   7.879   6.100   2.920
 6750W        W10950   7.676   4.703   8.615
 6751W        W10951   9.436   9.059   1.342
 6752W        W10952   4.061   4.565   3.210
 6753W        W10953   3.182   6.699   9.462
 6754W        W10954   7.819   1.860   0.382
 6755W        W10955   9.299   3.724   0.693
 6756W        W10956  10.549   1.669  10.498
 6757W        W10957   4.147   4.779   1.896
 6758W        W10958   8.100  11.065   2.312
 6759W        W10959   4.641   2.126   2.993
 6760W        W10960   1.776  10.678   0.611
 6761W        W10961   2.010   2.772   0.009
 6762W        W10962  10.672   9.527   1.756
 6763W        W10963  10.854   5.487   9.105
 6764W        W10964   9.843   5.615   2.663
 6765W        W10965   2.829   4.676   8.037
 6766W        W10966  10.089   5.263   9.721
 6767W        W10967   4.336   7.313  10.076
 6768W        W10968   4.232   3.820   1.624
 6769W        W10969   7.947   2.702   1.934
 6770W        W10970   6.162   4.559   2.214
 6771W        W10971   2.885   4.889  10.379
 6772W        W10972   0.676   6.149   9.810
 6773W        W10973   5.217   8.184   0.678
 6774W        W10974   5.194   9.628   9.528
 6775W        W10975   3.759   4.150   9.695
 6776W        W10976  11.049   9.788  10.884
 6777W        W10977   7.077   6.811   2.879
 6778W        W10978   3.353   7.426   2.135
 6779W        W10979   3.747   5.736   0.973
 6780W        W10980   8.722   5.943   0.298
 6781W        W10981   0.256  10.297   0.496
 6782W        W10982   0.138   6.183  11.648
 6783W        W10983   1.667   7.552   9.516
 6784W        W10984   5.110   8.433  10.875
 6785W        W10985   7.516   5.725   0.681
 6786W        W10986  10.813   8.133  10.630
 6787W        W10987   5.665   2.905   0.932
 6788W        W10988  10.664   4.345   2.260
 6789W        W10989  11.049   1.363  11.157
 6790W        W10990   3.707   7.415  10.599
 6791W        W10991   1.318   1.965  10.759
 6792W        W10992   6.755  11.193  11.270
 6793W        W10993   4.128   1.222   9.943
 6794W        W10994   5.816   2.541   0.492
 6795W        W10995   0.017   0.343   2.704
 6796W        W10996   4.314  10.489   1.467
 6797W        W10997   6.974   7.587  10.319
 6798W        W10998   5.734   5.735   3.005
 6799W        W10999   6.802   1.650  10.357
 6800W        W11000   8.844  11.015  10.377
 6801W        W11001   8.437   9.052   0.893
 6802W        W11002  10.951   3.160   2.497
 6803W        W11003   1.840   3.151  11.451
 6804W        W11004   6.230  11.476   9.357
 6805W        W11005   0.883   5.455   0.242
 6806W        W11006   9.956   7.944  11.457
 6807W        W11007   9.672   5.615   3.146
 6808W        W11008   5.575   7.658  11.921
 6809W        W11009   5.196   9.610   2.985
 6810W        W11010   5.249   0.641   8.693
 6811W        W11011   4.113   8.971   9.586
 6812W        W11012   5.176   9.934   0.286
 6813W        W11013  10.793   6.150   1.469
 6814W        W11014   9.634   3.931   0.367
 6815W        W11015   9.899   5.784   1.709
 6816W        W11016   9.104   4.692   1.843
 6817W        W11017   5.387   3.281   3.547
 6818W        W11018   4.108   5.472   1.274
 6819W        W11019   1.760   2.708   9.063
 6820W        W11020   7.853   1.294   0.794
 6821W        W11021  11.093   0.249   2.415
 6822W        W11022   0.352  10.448   1.883
 6823W        W11023   2.083   8.924  10.548
 6824W        W11024   9.962   9.152  10.110
 6825W        W11025   0.701   8.202   3.128
 6826W        W11026   2.381   4.793   2.331
 6827W        W11027   6.951   5.332  11.035
 6828W        W11028   5.795   8.135   3.091
 6829W        W11029   1.835   4.332   2.747
 6830W        W11030   9.845   8.994  10.574
 6831W        W11031  10.909   2.318   1.402
 6832W        W11032   8.833   0.666  11.197
 6833W        W11033   2.230   6.211   8.906
 6834W        W11034   0.702   0.930   0.668
 6835W        W11035  10.033   3.254  10.299
 6836W        W11036   8.020   2.694   1.426
 6837W        W11037   0.136   9.322  11.329
 6838W        W11038   5.166   9.136   8.082
 6839W        W11039   6.206   2.811  10.797
 6840W        W11040   8.399   2.230  10.251
 6841W        W11041   8.426  11.474  11.944
 6842W        W11042   6.653  10.267   1.696
 6843W        W11043   6.468   7.617   9.555
 6844W        W11044   8.477   2.875   1.015
 6845W        W11045   7.431   1.421   2.718
 6846W        W11046   9.646   5.792  11.774
 6847W        W11047   3.169   3.829   1.575
 6848W        W11048   4.562   9.835  11.928
 6849W        W11049   2.280   4.403   1.327
 6850W        W11050   8.871   7.144  10.734
 6851W        W11051   5.374   1.434   9.711
 6852W        W11052   4.264   0.710   9.915
 6853W        W11053   6.139   0.836   2.947
 6854W        W11054   1.873   8.553   2.749
 6855W        W11055   7.041   1.326   3.080
 6856W        W11056   8.480   2.139   2.229
 6857W        W11057   7.244   6.709  10.833
 6858W        W11058  11.347  10.334   9.016
 6859W        W11059   4.389   2.331   0.720
 6860W        W11060   8.836   6.027   9.303
 6861W        W11061   1.433   3.677   9.505
 6862W        W11062  11.384   5.702   8.506
 6863W        W11063   7.450  10.003   0.903
 6864W        W11064  11.465   1.771   9.567
 6865W        W11065   1.661   5.620   2.146
 6866W        W11066   0.718   9.164   3.506
 6867W        W11067  11.340   1.247   9.296
 6868W        W11068  10.868   7.590  11.287
 6869W        W11069   0.715   5.718   9.500
 6870W        W11070   4.473   6.107  11.705
 6871W        W11071   9.314   1.172   0.889
 6872W        W11072   1.484   8.387  10.993
 6873W        W11073   1.292   1.200   3.160
 6874W        W11074   9.933  11.054   8.512
 6875W        W11075   0.806   7.483   8.980
 6876W        W11076   9.005   3.892   2.981
 6877W        W11077  10.464   3.548  11.754
 6878W        W11078   7.159   4.644   0.437
 6879W        W11079  10.848   6.638   2.185
 6880W        W11080   1.242  10.891   3.564
 6881W        W11081   8.400   4.914   1.340
 6882W        W11082   8.708   3.800   9.501
 6883W        W11083   1.839   1.786   9.014
 6884W        W11084   8.084  10.962   8.855
 6885W        W11085   7.869   9.578   9.186
 6886W        W11086   5.923   6.085   0.598
 6887W        W11087   9.357  10.142  10.460
 6888W        W11088   0.844   7.349   3.273
 6889W        W11089   2.817   8.864   9.097
 6890W        W11090   9.541   8.185  11.268
 6891W        W11091   1.199   7.563   1.533
 6892W        W11092   1.273   3.358  11.141
 6893W        W11093   6.132   8.697   1.357
 6894W        W11094   1.413  11.366   3.205
 6895W        W11095   8.705   0.487  10.301
 6896W        W11096  10.496   2.135   0.426
 6897W        W11097   9.459   5.907   1.492
 6898W        W11098  10.909   6.677  11.584
 6899W        W11099   1.739   3.179   9.371
 6900W        W11100   5.902  10.849  10.914
 6901W        W11101   2.176  10.280   2.190
 6902W        W11102   2.287   2.725  10.362
 6903W        W11103   8.498   9.799  10.819
 6904W        W11104   6.406   1.512  10.006
 6905W        W11105  11.441   0.889   1.645
 6906W        W11106   0.407   2.254  11.363
 6907W        W11107   8.146   1.277  11.138
 6908W        W11108   9.638   6.036   2.866
 6909W        W11109   7.045   2.796   3.623
 6910W        W11110   9.641   1.869  10.368
 6911W        W11111   1.875   7.079   0.507
 6912W        W11112   5.119   2.773   3.650
 6913W        W11113   4.864   6.145   9.758
 6914W        W11114   8.013   3.880   2.450
 6915W        W11115   4.651   1.151   9.899
 6916W        W11116   8.388   2.804  11.531
 6917W        W11117   2.780   5.785  11.229
 6918W        W11118   8.414   0.054   1.607
 6919W        W11119   3.817  11.400   1.296
 6920W        W11120  11.380  10.592   0.229
 6921W        W11121   5.817   0.694   0.469
 6922W        W11122   1.779   4.318  10.429
 6923W        W11123   5.092   4.785  10.715
 6924W        W11124  10.584   1.736   0.730
 6925W        W11125   3.572  11.212   0.866
 6926W        W11126   0.096   4.669  10.502
 6927W        W11127   6.224   9.633   1.255
 6928W        W11128  11.436   7.758   9.076
 6929W        W11129   4.545   6.492  10.962
 6930W        W11130   5.212  10.360   2.092
 6931W        W11131   1.490   7.608   2.558
 6932W        W11132   5.974   7.737   1.287
 6933W        W11133   7.344   5.872   0.231
 6934W        W11134   0.190   7.265   2.371
 6935W        W11135   6.068   7.071  11.090
 6936W        W11136   9.575   0.959  10.136
 6937W        W11137   9.923   9.668  10.058
 6938W        W11138   0.949   3.882   8.824
 6939W        W11139   0.745  10.766   9.318
 6940W        W11140   8.651   7.907   2.635
 6941W        W11141  11.172   9.654  11.358
 6942W        W11142   3.346   3.798  11.326
 6943W        W11143  10.423   2.637   0.344
 6944W        W11144   5.703   7.069   2.943
 6945W        W11145   7.259   2.308   2.395
 6946W        W11146   2.481   5.012   7.858
 6947W        W11147  10.019   2.355   2.408
 6948W        W11148   9.600   5.150   2.186
 6949W        W11149   5.242  10.995   1.290
 6950W        W11150   4.403   2.537   8.813
 6951W        W11151  11.483   4.412  11.995
 6952W        W11152   9.021   3.349   0.483
 6953W        W11153   7.552  10.814  10.084
 6954W        W11154   8.888   4.276   9.376
 6955W        W11155  10.290   3.216   1.869
 6956W        W11156   7.428   6.514   0.770
 6957W        W11157  11.047   5.791   1.226
 6958W        W11158   3.243   5.215  10.519
 6959W        W11159  10.712   5.514   2.689
 6960W        W11160  11.398   9.347   8.592
 6961W        W11161   5.210   4.197   0.912
 6962W        W11162   9.008   7.025   8.583
 6963W        W11163   7.446   4.793   0.844
 6964W        W11164   3.148   1.866  11.259
 6965W        W11165  11.043   5.178   2.490
 6966W        W11166   3.648   4.673   1.751
 6967W        W11167   0.739   2.368   0.941
 6968W        W11168   2.692   6.619   1.267
 6969W        W11169   2.281   3.525   3.060
 6970W        W11170   5.711   1.061   9.971
 6971W        W11171   9.567   8.158   2.245
 6972W        W11172   8.086   1.660  11.488
 6973W        W11173  10.424   8.409   9.920
 6974W        W11174   0.364   7.466   9.832
 6975W        W11175   7.223   8.473  10.537
 6976W        W11176  11.456   9.262   1.573
 6977W        W11177  10.501  11.426   8.937
 6978W        W11178   5.128   1.661  11.985
 6979W        W11179  10.851   2.484   3.302
 6980W        W11180   7.874  10.741   9.639
 6981W        W11181   7.427   5.306  11.250
 6982W        W11182   1.716   9.964  11.072
 6983W        W11183  10.491   3.619   2.183
 6984W        W11184  11.248   6.034   9.537
 6985W        W11185   4.205   4.074   2.172
 6986W        W11186   8.192   5.161   8.667
 6987W        W11187   3.265   5.809  11.042
 6988W        W11188   6.029  11.004   9.100
 6989W        W11189   7.343   6.253  11.505
 6990W        W11190   3.227   5.616   1.035
 6991W        W11191   0.697   1.836   1.479
 6992W        W11192   7.465   4.578   9.077
 6993W        W11193   1.131   0.807   3.484
 6994W        W11194   6.942   8.364   2.455
 6995W        W11195   5.616   9.140   9.849
 6996W        W11196   3.027   2.872  11.447
 6997W        W11197   8.614   8.307   8.641
 6998W        W11198   6.025   3.294  10.750
 6999W        W11199  11.480   9.842   9.758
 7000W        W11200   8.473   3.680   9.059
 7001W        W11201   2.342   0.780  11.357
 7002W        W11202   0.311  11.326  11.318
 7003W        W11203   5.345   2.641  10.318
 7004W        W11204   7.998   8.417   0.396
 7005W        W11205   8.859   8.080   3.415
 7006W        W11206   0.005   5.123  10.769
 7007W        W11207   0.527   7.045   9.523
 7008W        W11208   0.842   6.195   9.301
 7009W        W11209   9.360   2.217  10.618
 7010W        W11210   8.610  10.534   0.035
 7011W        W11211   4.181   5.678  10.782
 7012W        W11212   4.863   1.162   0.261
 7013W        W11213  10.856   8.461   3.394
 7014W        W11214   1.524   9.007   9.398
 7015W        W11215   6.106   4.446  10.455
 7016W        W11216  10.427  10.010   8.957
 7017W        W11217  10.443   9.963   1.406
 7018W        W11218   0.397   3.161  11.226
 7019W        W11219   7.625   0.906   1.138
 7020W        W11220   3.396   2.157   2.735
 7021W        W11221   0.603   1.823  10.445
 7022W        W11222   4.720   4.215   3.629
 7023W        W11223   3.097  11.435  11.893
 7024W        W11224   1.169   6.269   2.613
 7025W        W11225   4.720   6.705   8.634
 7026W        W11226   2.605   8.415   2.385
 7027W        W11227   2.348   5.505   9.570
 7028W        W11228   1.367   4.151   1.467
 7029W        W11229  11.458   4.839   8.769
 7030W        W11230   2.404   3.585   0.238
 7031W        W11231   7.069   3.818  10.873
 7032W        W11232   2.609   7.526   1.640
 7033W        W11233   4.592   2.264   1.621
 7034W        W11234   3.702   9.033   1.489
 7035W        W11235   3.939   8.539   9.819
 7036W        W11236  11.449   6.510   1.292
 7037W        W11237   6.981   0.280   1.673
 7038W        W11238   7.227   3.659   1.303
 7039W        W11239  11.063   1.766  10.498
 7040W        W11240   9.682   0.462  10.274
 7041W        W11241   5.462   4.823   3.316
 7042W        W11242   5.733   0.361   2.804
 7043W        W11243   4.129   7.782   0.381
 7044W        W11244   7.988   0.319   2.881
 7045W        W11245   9.377   8.694   0.939
 7046W        W11246   6.018   9.526   2.453
 7047W        W11247   9.251   7.195  10.364
 7048W        W11248   4.491  10.417   3.323
 7049W        W11249   3.085   1.254   2.384
 7050W        W11250  10.929   9.799   1.397
 7051W        W11251   8.466   7.456   3.422
 7052W        W11252  10.709   2.208   0.926
 7053W        W11253   8.121   1.434   0.372
 7054W        W11254   8.539  10.814   2.270
 7055W        W11255   0.270   9.415   3.168
 7056W        W11256   8.857   3.277   1.642
 7057W        W11257   5.976   2.475   1.641
 7058W        W11258   4.295   1.936  11.054
 7059W        W11259   6.705   6.611   0.233
 7060W        W11260   1.412   0.677   3.885
 7061W        W11261   2.531   5.304   0.749
 7062W        W11262   3.905   4.038   3.350
 7063W        W11263   3.844   3.561  10.509
 7064W        W11264   5.252  10.488   9.803
 7065W        W11265   0.703   9.995  11.400
 7066W        W11266   9.032  10.666  11.196
 7067W        W11267   7.940   7.501  11.690
 7068W        W11268   8.228   8.352  11.913
 7069W        W11269  10.864   1.951   3.190
 7070W        W11270  11.450   7.070  10.864
 7071W        W11271   4.291   8.921  11.869
 7072W        W11272   4.976  11.264  10.114
 7073W        W11273   5.217   0.441  10.746
 7074W        W11274   3.694   5.476   9.386
 7075W        W11275   6.869   8.145   1.522
 7076W        W11276   2.959   8.109   3.356
 7077W        W11277   1.830   9.873   2.310
 7078W        W11278   2.928   6.010   1.153
 7079W        W11279   1.876   1.347   1.832
 7080W        W11280   6.054   9.069  10.593
 7081W        W11281   6.066   1.775  11.989
 7082W        W11282   7.589   3.805   2.173
 7083W        W11283   7.572   2.640  10.058
 7084W        W11284   2.002   4.175   2.234
 7085W        W11285  11.020   3.300  11.424
 7086W        W11286  10.725  11.429  10.358
 7087W        W11287   2.601   6.522   0.345
 7088W        W11288  10.526   7.697  10.570
 7089W        W11289   2.283   3.618   0.736
 7090W        W11290   5.949   3.727   8.446
 7091W        W11291   5.271   2.132   0.930
 7092W        W11292   6.939   9.516   9.043
 7093W        W11293  10.575   3.715   9.250
 7094W        W11294   3.402   6.112   2.399
 7095W        W11295   7.223   6.381   0.274
 7096W        W11296   2.896   6.415  10.404
 7097W        W11297   2.672   6.547   3.172
 7098W        W11298   6.746   3.649   3.135
 7099W        W11299   5.148   4.167  10.029
 7100W        W11300   9.592   0.895  10.651
 7101W        W11301   9.021  10.340  10.807
 7102W        W11302   0.980   4.141   0.009
 7103W        W11303   8.020   6.078   3.508
 7104W        W11304   9.279   6.975   9.192
 7105W        W11305   9.471   0.538   2.584
 7106W        W11306   4.991   8.835   9.035
 7107W        W11307   3.274   0.913   0.736
 7108W        W11308   6.701   6.158  10.493
 7109W        W11309   5.716   9.425   1.220
 7110W        W11310   3.806  10.286  11.366
 7111W        W11311   2.529   0.455   2.521
 7112W        W11312   9.467  11.316  11.185
 7113W        W11313   9.576   5.094   3.176
 7114W        W11314   7.594   7.323   1.353
 7115W        W11315   6.580   9.007   1.411
 7116W        W11316   1.360   9.930   2.515
 7117W        W11317  11.372   9.061   9.564
 7118W        W11318   6.580   1.588   0.021
 7119W        W11319   0.389   9.942   2.400
 7120W        W11320   3.339   8.074  11.614
 7121W        W11321   2.758   5.537   9.180
 7122W        W11322  10.122   3.287   0.505
 7123W        W11323   3.524   4.837   3.121
 7124W        W11324   7.876   2.209   0.765
 7125W        W11325   2.239  11.498   8.857
 7126W        W11326   1.148   4.531   9.452
 7127W        W11327   1.860   1.298   9.791
 7128W        W11328   8.200   6.198   9.993
 7129W        W11329   4.119   8.675   1.374
 7130W        W11330   1.519   4.678   9.806
 7131W        W11331   6.110   4.115   9.633
 7132W        W11332   7.214   5.147   0.574
 7133W        W11333   9.905   7.296   3.326
 7134W        W11334   3.049   8.102   0.806
 7135W        W11335   8.483   8.490  11.268
 7136W        W11336   3.664   6.259   0.830
 7137W        W11337   8.374   6.984   2.828
 7138W        W11338  10.812   8.426   2.364
 7139W        W11339   0.487   7.893   1.662
 7140W        W11340  10.262   1.304  11.820
 7141W        W11341   5.282   2.822  11.099
 7142W        W11342  11.428   3.135   1.641
 7143W        W11343   7.606   7.401   9.141
 7144W        W11344   7.573  10.916   9.063
 7145W        W11345   4.633   1.865   1.942
 7146W        W11346   2.378  10.743  10.030
 7147W        W11347   2.883   6.240  11.439
 7148W        W11348  11.331   3.760  10.848
 7149W        W11349   8.508   2.558   3.038
 7150W        W11350   8.625   8.743   1.256
 7151W        W11351   5.646   8.571   2.820
 7152W        W11352   1.784   0.350  11.967
 7153W        W11353   2.360   7.443   2.279
 7154W        W11354   2.239   8.885  11.529
 7155W        W11355   5.678   7.060  10.618
 7156W        W11356   0.981   1.349  10.943
 7157W        W11357   0.347   8.913   3.244
 7158W        W11358   1.294   9.945   9.759
 7159W        W11359   2.175   9.875   0.348
 7160W        W11360  10.545   7.947   9.682
 7161W        W11361   2.645   2.646  10.760
 7162W        W11362   6.128   6.182   8.701
 7163W        W11363   0.044   2.354   2.312
 7164W        W11364  11.355   4.659   1.329
 7165W        W11365   9.898  11.305   8.978
 7166W        W11366   6.200   9.831   0.323
 7167W        W11367   6.076   6.991   9.558
 7168W        W11368   4.655   4.924   2.296
 7169W        W11369   7.958  11.145   9.325
 7170W        W11370   8.978   1.551  11.691
 7171W        W11371   5.295  10.553   2.882
 7172W        W11372   3.859   5.080   0.529
 7173W        W11373   3.074  -0.001   3.242
 7174W        W11374   6.946   8.877   1.767
 7175W        W11375  10.432   2.905  10.246
 7176W        W11376   4.456   7.981  10.550
 7177W        W11377  10.972  10.738   8.674
 7178W        W11378   9.489   3.786   2.163
 7179W        W11379   0.106   3.291   3.164
 7180W        W11380   0.457   6.183   1.294
 7181W        W11381   4.326  10.934   9.802
 7182W        W11382   2.848   1.179  11.922
 7183W        W11383   7.355   9.928   3.207
 7184W        W11384   5.252   7.852   9.015
 7185W        W11385   6.716   8.586  10.553
 7186W        W11386   9.069  10.925   3.024
 7187W        W11387   2.090   9.497   3.381
 7188W        W11388  10.047   4.848   1.365
 7189W        W11389  10.464   8.050   2.457
 7190W        W11390   6.083   4.676  11.343
 7191W        W11391   6.544  10.014   9.840
 7192W        W11392   4.688   6.710   0.912
 7193W        W11393   3.084   1.805   3.505
 7194W        W11394   1.646   1.773  11.092
 7195W        W11395   3.655  10.271   3.079
 7196W        W11396   1.302   7.416  11.755
 7197W        W11397   3.911   6.056   2.340
 7198W        W11398   8.479   2.776   0.025
 7199W        W11399   9.036   9.415  10.402
 7200W        W11400   8.507   8.561   0.293
 7201W        W11401   0.270   8.546   9.310
 7202W        W11402   0.824   3.233   0.495
 7203W        W11403   9.088   2.637   9.600
 7204W        W11404   9.357   0.222   2.982
 7205W        W11405   6.499   9.467   9.867
 7206W        W11406   9.326   1.031   3.471
 7207W        W11407   7.016   8.450   0.425
 7208W        W11408   5.616   9.488   2.745
 7209W        W11409  11.387   8.145   3.577
 7210W        W11410   1.462   5.677  10.700
 7211W        W11411   6.982  11.479   2.724
 7212W        W11412   0.357  10.798   2.735
 7213W        W11413   8.714   2.297   3.407
 7214W        W11414  11.402   7.965  10.844
 7215W        W11415   9.137  11.183   1.185
 7216W        W11416   5.221   3.323   8.308
 7217W        W11417  10.393   4.513   9.793
 7218W        W11418   4.663   6.678   3.396
 7219W        W11419   8.511   7.278   0.878
 7220W        W11420   5.670   4.829   1.474
 7221W        W11421   2.816   2.110   1.401
 7222W        W11422   9.551   9.360   9.857
 7223W        W11423   3.276   0.443  11.935
 7224W        W11424   9.390   3.237   0.815
 7225W        W11425   7.794   3.126  10.085
 7226W        W11426   6.977   7.975   1.058
 7227W        W11427   9.449   0.716   0.728
 7228W        W11428   5.705  10.590   8.974
 7229W        W11429  10.734   4.155   1.400
 7230W        W11430   9.922   6.223   0.954
 7231W        W11431   5.328   4.918   1.097
 7232W        W11432   1.350   1.231  11.543
 7233W        W11433   9.828  10.367   2.510
 7234W        W11434   3.676   6.529  11.468
 7235W        W11435  10.156   4.281   1.349
 7236W        W11436   3.169   0.039   2.718
 7237W        W11437   0.676   9.439   9.363
 7238W        W11438   2.121  11.450  10.944
 7239W        W11439  10.417   1.360  10.094
 7240W        W11440   5.206   8.389  10.333
 7241W        W11441   6.170  10.847  10.080
 7242W        W11442   7.620  10.452   9.307
 7243W        W11443   0.411   9.074   1.740
 7244W        W11444  10.400   1.862   2.675
 7245W        W11445   8.552   2.021   8.474
 7246W        W11446   4.742   0.528  11.977
 7247W        W11447  10.297   9.476   2.121
 7248W        W11448   4.823   0.927   1.147
 7249W        W11449   8.462   3.225   0.288
 7250W        W11450   8.337   7.980   2.236
 7251W        W11451   0.825   8.676   3.299
 7252W        W11452   3.813   8.641   3.943
 7253W        W11453   5.920   4.988   3.112
 7254W        W11454   2.341   2.118   2.859
 7255W        W11455   5.268  10.825   0.139
 7256W        W11456  10.418   6.932   9.912
 7257W        W11457   3.231   6.523  11.730
 7258W        W11458   3.602   6.994   1.939
 7259W        W11459   6.459   5.244   0.925
 7260W        W11460   4.654   7.603   9.799
 7261W        W11461   2.022   2.736   0.876
 7262W        W11462   1.694   9.112   1.634
 7263W        W11463   5.148   4.321  10.989
 7264W        W11464   6.390   7.076   3.542
 7265W        W11465   0.485   7.169  10.805
 7266W        W11466   5.666   2.070   0.607
 7267W        W11467   5.516   8.946   8.995
 7268W        W11468   8.626   0.812   0.318
 7269W        W11469   0.829   6.772   0.815
 7270W        W11470   1.299   7.018   0.645
 7271W        W11471   9.681   8.148   9.457
 7272W        W11472   0.116   3.078   1.169
 7273W        W11473   2.762   1.641   2.232
 7274W        W11474   8.497   5.613   8.472
 7275W        W11475   8.579   8.451  10.672
 7276W        W11476   0.614   7.208   0.986
 7277W        W11477   2.117   9.738   9.817
 7278W        W11478   7.771   6.355  11.003
 7279W        W11479   5.141   0.037   1.253
 7280W        W11480   2.362   6.069   2.398
 7281W        W11481  10.064   9.487   2.988
 7282W        W11482   5.579   7.057   1.935
 7283W        W11483   3.626   6.917   9.331
 7284W        W11484   7.099   0.264   3.278
 7285W        W11485   4.744   2.243   9.038
 7286W        W11486   2.313   3.849   1.279
 7287W        W11487  10.961   3.776   1.030
 7288W        W11488   0.419   5.044   0.508
 7289W        W11489   4.104  10.655  11.504
 7290W        W11490   0.839   1.012  11.312
 7291W        W11491   6.396   2.499   8.177
 7292W        W11492   3.673   7.495   1.753
 7293W        W11493   0.921   5.198  11.323
 7294W        W11494   3.126  10.959   0.431
 7295W        W11495   4.339   4.975   0.580
 7296W        W11496   1.532  10.964   9.902
 7297W        W11497   3.919   2.813  11.597
 7298W        W11498   5.336   4.014  10.501
 7299W        W11499   6.669   4.715   2.156
 7300W        W11500   6.590   7.668   2.750
 7301W        W11501   9.010   6.669   9.928
 7302W        W11502   8.117  11.241  11.350
 7303W        W11503   7.586   3.224   3.329
 7304W        W11504   9.367   1.804   8.806
 7305W        W11505   3.056   0.938  10.606
 7306W        W11506   1.745   5.250   1.396
 7307W        W11507   8.771   5.352  11.610
 7308W        W11508   6.210   1.934   9.799
 7309W        W11509   2.894   7.874   9.013
 7310W        W11510   9.544   2.236   2.701
 7311W        W11511   8.538   6.393   8.164
 7312W        W11512   7.904   4.836   9.054
 7313W        W11513   4.742   8.471   2.279
 7314W        W11514   9.492   3.708   3.412
 7315W        W11515   0.368  10.086   9.999
 7316W        W11516   4.780   1.179   3.737
 7317W        W11517   6.424   2.886   2.773
 7318W        W11518   1.974   3.412   2.667
 7319W        W11519   1.431   7.943   1.771
 7320W        W11520   3.119   6.522   0.267
 7321W        W11521   4.250   0.551   1.956
 7322W        W11522   7.014   2.392   0.739
 7323W        W11523   1.725   8.430   0.593
 7324W        W11524   0.022   2.051   0.887
 7325W        W11525   5.571   2.720   3.889
 7326W        W11526   6.538   3.379  11.616
 7327W        W11527   5.595   4.618   8.247
 7328W        W11528   7.451   8.865   0.950
 7329W        W11529   0.420   9.631  11.941
 7330W        W11530   5.740   1.391   9.326
 7331W        W11531   5.560   2.360   9.853
 7332W        W11532   0.807   5.532  11.706
 7333W        W11533   3.609  10.873   0.211
 7334W        W11534   5.284   9.818  10.392
 7335W        W11535   8.862   9.359  11.914
 7336W        W11536  10.830   3.675   8.805
 7337W        W11537   4.271   7.702   2.266
 7338W        W11538   9.570   6.438   2.570
 7339W        W11539   4.469   8.458  11.726
 7340W        W11540   4.127   5.537   0.689
 7341W        W11541  11.340   8.980   0.990
 7342W        W11542   3.032   9.765   8.388
 7343W        W11543   4.206   1.867   3.199
 7344W        W11544  11.456   1.866   3.138
 7345W        W11545   0.490   3.628   0.470
 7346W        W11546   8.949   3.742   1.447
 7347W        W11547   0.885  10.510  10.543
 7348W        W11548   7.677   1.923  10.636
 7349W        W11549   3.109  11.025   0.951
 7350W        W11550   0.691   4.089   3.660
 7351W        W11551   1.713  11.336   9.578
 7352W        W11552   1.085   1.272   0.858
 7353W        W11553   4.483   4.668   8.938
 7354W        W11554   3.663   3.185   0.396
 7355W        W11555   8.158   7.528   9.722
 7356W        W11556   2.228  10.243  11.037
 7357W        W11557   1.914   3.787   0.255
 7358W        W11558  10.866   3.589  10.659
 7359W        W11559   3.548  10.894   3.318
 7360W        W11560   9.421   1.836   2.243
 7361W        W11561   3.291   0.629  10.030
 7362W        W11562   0.011  11.353   1.522
 7363W        W11563   2.283   2.746   0.440
 7364W        W11564  11.350   8.880  10.063
 7365W        W11565   4.697   5.948   4.048
 7366W        W11566   6.384  10.907  11.084
 7367W        W11567   6.634   5.706  11.506
 7368W        W11568   7.872   2.207   9.742
 7369W        W11569  11.092   3.691   9.247
 7370W        W11570  10.835   4.952   0.351
 7371W        W11571   2.302   9.355  11.734
 7372W        W11572   1.557   5.368   8.473
 7373W        W11573   0.835   9.590   3.018
 7374W        W11574   1.853   7.911   1.490
 7375W        W11575   1.820   5.696   1.131
 7376W        W11576   1.863   7.525   0.740
 7377W        W11577   3.830   3.568   2.662
 7378W        W11578   6.141   9.487   1.945
 7379W        W11579   7.654   4.553   3.753
 7380W        W11580   1.263   6.659   1.633
 7381W        W11581   9.856  10.492   0.302
 7382W        W11582   1.815   4.585   1.446
 7383W        W11583   1.625   5.666  11.184
 7384W        W11584   9.368  10.322   9.967
 7385W        W11585   2.744   5.535   1.188
 7386W        W11586   5.667   7.540   2.687
 7387W        W11587   0.970   4.199  10.565
 7388W        W11588   9.517   4.411   1.796
 7389W        W11589   2.643  10.257   9.559
 7390W        W11590   5.334   4.248   1.962
 7391W        W11591   0.447   1.741   1.931
 7392W        W11592   3.702   1.759   2.563
 7393W        W11593   0.864   0.768   1.676
 7394W        W11594   2.325   7.037   8.549
 7395W        W11595   8.366   5.252  11.952
 7396W        W11596  10.390   2.099   9.574
 7397W        W11597   1.172   5.828   2.905
 7398W        W11598   6.048   2.598   2.107
 7399W        W11599   3.563   5.174   8.986
 7400W        W11600   8.025   5.698   3.852
 7401W        W11601   2.381   6.070   3.327
 7402W        W11602  11.021   8.261   0.795
 7403W        W11603   4.434   0.347   3.252
 7404W        W11604   9.232   0.470   1.595
 7405W        W11605   5.614   4.046  10.964
 7406W        W11606   9.603   7.398   2.689
 7407W        W11607   0.044  10.254   9.479
 7408W        W11608   5.952  10.271   0.186
 7409W        W11609   2.759   9.936   2.726
 7410W        W11610   1.833   7.249   2.326
 7411W        W11611   1.427   8.638  10.058
 7412W        W11612   8.992   5.116   9.442
 7413W        W11613   4.061  10.792   9.378
 7414W        W11614   6.394   7.987   1.536
 7415W        W11615  10.376   4.691   0.381
 7416W        W11616   7.320   5.735   2.399
 7417W        W11617   3.270   8.215  10.608
 7418W        W11618   2.712   0.872   3.127
 7419W        W11619  10.593   9.372   3.099
 7420W        W11620   6.651   3.750  10.330
 7421W        W11621   3.239   6.956   8.984
 7422W        W11622   8.438   0.208   8.399
 7423W        W11623   3.752   2.775   0.667
 7424W        W11624   2.492  11.328   3.360
 7425W        W11625  11.140   7.939   9.843
 7426W        W11626   5.016   3.114   2.346
 7427W        W11627   6.745   9.799  10.451
 7428W        W11628   3.532   4.449   9.355
 7429W        W11629  11.098   8.800   1.430
 7430W        W11630   3.117  10.884   1.501
 7431W        W11631   6.984  11.145   9.517
 7432W        W11632   6.387   9.386   0.468
 7433W        W11633   8.368   9.967   1.746
 7434W        W11634   4.960   3.699  11.742
 7435W        W11635   7.665   1.770  10.111
 7436W        W11636   3.674  10.924   1.704
 7437W        W11637   0.312   4.290   8.815
 7438W        W11638   4.714   5.711   0.028
 7439W        W11639  10.766   0.806   9.407
 7440W        W11640   1.189  11.341   9.826
 7441W        W11641   2.424   8.912   2.362
 7442W        W11642  10.549   4.218   0.934
 7443W        W11643   0.162   2.202  11.821
 7444W        W11644   2.941   2.667   0.003
 7445W        W11645  10.710   5.247   8.554
 7446W        W11646   7.598   8.092  11.762
 7447W        W11647   0.571   5.100   1.853
 7448W        W11648   2.233   3.844  11.841
 7449W        W11649  10.319   0.991  11.416
 7450W        W11650  11.378  10.083  11.133
 7451W        W11651  10.504  11.364   3.319
 7452W        W11652   7.069   1.852   3.444
 7453W        W11653   2.984   2.118   2.244
 7454W        W11654   8.154   9.931   2.714
 7455W        W11655   3.208   9.607  10.265
 7456W        W11656  10.665   0.378   3.270
 7457W        W11657   3.286   4.119   0.840
 7458W        W11658   4.102   6.965   1.947
 7459W        W11659  11.029  10.710   9.979
 7460W        W11660   5.129   7.218  11.511
 7461W        W11661   8.084  10.891   3.292
 7462W        W11662   2.221   5.075   8.623
 7463W        W11663  10.865   0.353   8.517
 7464W        W11664   5.552   7.219   3.812
 7465W        W11665  10.385   5.457   8.889
 7466W        W11666   2.922   2.774   3.348
 7467W        W11667  10.745   9.280  11.616
 7468W        W11668  10.328   5.609   3.036
 7469W        W11669   8.128  10.264   9.609
 7470W        W11670   1.775  10.098   9.736
 7471W        W11671   5.516   4.543   3.775
 7472W        W11672   4.674   9.301  11.779
 7473W        W11673   7.608   4.772   2.172
 7474W        W11674   7.133   8.441   9.243
 7475W        W11675   1.051   4.821   3.609
 7476W        W11676   1.666   8.158   3.459
 7477W        W11677   4.029   7.601  11.886
 7478W        W11678   9.165   3.661  11.685
 7479W        W11679   5.630   0.354   9.495
 7480W        W11680   8.612   8.013  11.519
 7481W        W11681  11.332  10.036   1.164
 7482W        W11682  11.395   8.280   9.057
 7483W        W11683   3.370  10.371   1.129
 7484W        W11684   1.878   8.341   1.066
 7485W        W11685   1.220   9.051  11.140
 7486W        W11686   2.659   9.776   0.423
 7487W        W11687   5.038   5.311   2.354
 7488W        W11688   7.740   2.375   0.281
 7489W        W11689  10.320   9.123   1.749
 7490W        W11690   8.952  10.438   2.822
 7491W        W11691   1.086   4.398   8.696
 7492W        W11692   2.946   8.881   2.389
 7493W        W11693   1.718   1.412  11.895
 7494W        W11694   3.493   2.563   9.017
 7495W        W11695   7.163   8.794   2.241
 7496W        W11696   6.802   7.641   1.405
 7497W        W11697   2.687   0.322   3.438
 7498W        W11698   1.200   9.525   1.260
 7499W        W11699   7.818   8.581  10.006
 7500W        W11700   6.151   7.330   2.699
 7501W        W11701   2.630   0.703   0.361
 7502W        W11702   3.117   1.675   9.109
 7503W        W11703   8.038   4.722  11.293
 7504W        W11704   4.644   8.522   1.256
 7505W        W11705   5.081   6.092   1.975
 7506W        W11706   4.705   4.836   0.948
 7507W        W11707   1.225   0.754   9.429
 7508W        W11708   7.526   2.645   9.062
 7509W        W11709   6.556   9.035  10.724
 7510W        W11710   1.811   6.629   9.584
 7511W        W11711  10.470   0.196   0.443
 7512W        W11712   8.203   8.495  10.314
 7513W        W11713   4.498   5.256  11.738
 7514W        W11714   0.929   3.103   0.971
 7515W        W11715   9.990   6.796   0.707
 7516W        W11716   2.397   8.021   0.066
 7517W        W11717   0.726   5.701   1.998
 7518W        W11718   8.684   2.039   2.950
 7519W        W11719   5.035   4.389  11.494
 7520W        W11720   9.293   8.398   0.511
 7521W        W11721   8.881   2.292  10.445
 7522W        W11722   3.932   2.379   8.609
 7523W        W11723  10.966   5.248  10.037
 7524W        W11724   6.777   5.125  10.126
 7525W        W11725   9.044   2.532   0.454
 7526W        W11726   8.864   4.443   8.865
 7527W        W11727   3.236   8.410   1.769
 7528W        W11728   3.570   4.873   1.259
 7529W        W11729  10.549   3.741   0.726
 7530W        W11730   6.568   3.339  10.022
 7531W        W11731   0.950   4.781   9.040
 7532W        W11732   5.444   8.384  11.697
 7533W        W11733   1.898   3.667   9.285
 7534W        W11734   3.895   2.148  10.792
 7535W        W11735  10.426   1.172  10.561
 7536W        W11736   3.460   5.222   4.124
 7537W        W11737   6.147   2.764   3.178
 7538W        W11738   4.062   9.141  11.378
 7539W        W11739   6.016   4.780  10.835
 7540W        W11740   8.230   8.437   1.383
 7541W        W11741   9.321   1.812  11.427
 7542W        W11742   1.648   6.484   3.300
 7543W        W11743   8.138   7.345   9.253
 7544W        W11744   8.259   1.726   2.984
 7545W        W11745   8.582  10.830   2.845
 7546W        W11746   2.243   4.066   3.130
 7547W        W11747  11.442   9.598  11.775
 7548W        W11748   0.449   2.641   2.876
 7549W        W11749   6.185   5.055   1.334
 7550W        W11750   6.590   9.023   2.909
 7551W        W11751   7.687  11.453  11.525
 7552W        W11752   6.316   0.888   0.455
 7553W        W11753   0.861   8.939  11.524
 7554W        W11754   2.137   9.814  11.330
 7555W        W11755   5.017   7.413   0.051
 7556W        W11756  10.734  10.842   1.269
 7557W        W11757   3.974   7.959   9.169
 7558W        W11758   5.069   4.081   8.729
 7559W        W11759   9.086   3.328   8.929
 7560W        W11760   4.356   9.571   0.348
 7561W        W11761   2.370   6.698   8.996
 7562W        W11762   6.133   6.011   2.272
 7563W        W11763   6.221   4.498   3.050
 7564W        W11764   0.860   5.658   1.164
 7565W        W11765   0.371   9.559   9.962
 7566W        W11766   8.565   5.189   8.171
 7567W        W11767   3.347   2.460   2.321
 7568W        W11768  10.398   0.456   8.787
 7569W        W11769   8.573   3.675  11.027
 7570W        W11770  11.360   8.246  11.297
 7571W        W11771  10.181   0.259   3.165
 7572W        W11772   6.200   6.604  11.327
 7573W        W11773  10.809   3.286   1.876
 7574W        W11774   5.134   7.406  10.095
 7575W        W11775   0.496  10.839  10.431
 7576W        W11776   5.214   8.666   2.570
 7577W        W11777   9.917   0.027  11.040
 7578W        W11778   7.099   9.333   1.493
 7579W        W11779   9.183   8.253   9.451
 7580W        W11780   5.218   1.926   0.426
 7581W        W11781   4.221   4.553   2.361
 7582W        W11782   8.958   8.919  10.233
 7583W        W11783   0.669   2.397   3.285
 7584W        W11784   7.580   6.404   4.039
 7585W        W11785   8.995   6.474   7.878
 7586W        W11786   7.976   6.847  10.864
 7587W        W11787   2.802  11.332   1.221
 7588W        W11788   9.616   4.553   9.345
 7589W        W11789   6.901   7.604  10.833
 7590W        W11790   5.629   9.827  10.844
 7591W        W11791   0.386   6.563   9.672
 7592W        W11792   2.133   0.388   1.345
 7593W        W11793   3.017   2.334  10.638
 7594W        W11794  10.820  10.766  11.414
 7595W        W11795   1.220   7.874   2.910
 7596W        W11796   0.382   7.091   3.019
 7597W        W11797   5.036   8.839  10.541
 7598W        W11798   7.461   1.655   0.726
 7599W        W11799   5.607   0.254  11.011
 7600W        W11800   7.890   7.801   9.354
 7601W        W11801   6.438   9.694  10.873
 7602W        W11802   5.250   2.885   2.723
 7603W        W11803   5.192   6.160  10.462
 7604W        W11804   5.211   2.109   8.471
 7605W        W11805   1.445   0.228  11.253
 7606W        W11806   2.718   1.632   0.119
 7607W        W11807   0.869   6.839   3.126
 7608W        W11808   8.230   3.642   8.617
 7609W        W11809   0.878   9.041   1.974
 7610W        W11810   6.110  11.341  10.896
 7611W        W11811   5.633   9.454  10.291
 7612W        W11812   3.565   0.149  10.043
 7613W        W11813  11.179  10.517   2.937
 7614W        W11814   6.610   8.937   0.424
 7615W        W11815   0.332   4.172   9.365
 7616W        W11816   1.506   7.419  11.140
 7617W        W11817   8.496   2.822  11.009
 7618W        W11818   2.886   9.794   8.962
 7619W        W11819   4.816   2.472  10.444
 7620W        W11820   3.523   1.306  10.727
 7621W        W11821   4.796   7.648   0.814
 7622W        W11822   1.555   5.144   9.480
 7623W        W11823   3.483   5.443   8.526
 7624W        W11824  10.330   5.581   1.931
 7625W        W11825   2.749   5.720  11.749
 7626W        W11826   9.210   5.187   1.901
 7627W        W11827   2.709   3.630   8.948
 7628W        W11828   5.931  10.373   8.540
 7629W        W11829   6.675  10.112   9.372
 7630W        W11830   2.220   2.429   9.020
 7631W        W11831   6.330   8.200   8.220
 7632W        W11832   6.976   0.002  10.478
 7633W        W11833   8.666  10.810   9.945
 7634W        W11834   6.018   4.547   9.924
 7635W        W11835   5.660   2.718  11.500
 7636W        W11836   4.047  10.667   8.657
 7637W        W11837   5.775   3.213   3.878
 7638W        W11838   5.062   0.701  10.339
 7639W        W11839   2.671   4.548  10.693
 7640W        W11840  11.092  11.487  11.770
 7641W        W11841   7.458   1.259  11.840
 7642W        W11842   5.559   5.936  11.094
 7643W        W11843   1.810   6.403   0.025
 7644W        W11844   5.453  11.276  10.294
 7645W        W11845   2.929   8.421   8.368
 7646W        W11846   4.227   5.534  11.310
 7647W        W11847   4.772   7.449   2.271
 7648W        W11848   6.055   2.120  10.595
 7649W        W11849   9.287   8.160  10.267
 7650W        W11850   2.827   1.228   1.923
 7651W        W11851   8.882   1.165   0.005
 7652W        W11852   4.735   9.318  10.697
 7653W        W11853   0.956  11.278   1.890
 7654W        W11854   1.126   2.661   1.132
 7655W        W11855   8.212   6.073   1.231
 7656W        W11856   9.938   0.358   9.633
 7657W        W11857   0.295   6.963   9.992
 7658W        W11858   2.603   8.553   8.724
 7659W        W11859   2.700   5.041   8.381
 7660W        W11860   2.735   4.251   8.302
 7661W        W11861  11.400   4.803  10.064
 7662W        W11862   4.277   2.709  10.203
 7663W        W11863   5.051   4.434   9.089
 7664W        W11864   5.651   9.820   9.356
 7665W        W11865   5.835   3.608   1.438
 7666W        W11866   9.499  10.417   9.036
 7667W        W11867   6.185   5.707   2.707
 7668W        W11868  10.430   5.193   9.322
 7669W        W11869   9.289   7.458   8.528
 7670W        W11870  11.241   8.313   3.088
 7671W        W11871   0.009   6.035   1.090
 7672W        W11872  11.299   4.740   9.557
 7673W        W11873  11.320   1.849  10.056
 7674W        W11874   2.998   6.924  10.353
 7675W        W11875   6.840   7.131  11.530
 7676W        W11876   6.435   6.628   9.549
 7677W        W11877   5.158   2.359  11.316
 7678W        W11878   7.743   5.070  10.760
 7679W        W11879   6.734   3.675   1.276
 7680W        W11880   2.648   1.445   0.786
 7681W        W11881   2.835   2.601   2.341
 7682W        W11882   7.154  10.479   2.930
 7683W        W11883   9.774   9.422   9.092
 7684W        W11884  10.602   4.772  11.929
 7685W        W11885   7.607  10.378   3.123
 7686W        W11886   0.890   1.444   9.519
 7687W        W11887   3.667   3.917  10.148
 7688W        W11888  10.521   5.158   1.715
 7689W        W11889   0.701   9.531   2.514
 7690W        W11890   1.788   5.153   9.927
 7691W        W11891   3.838   3.280  11.351
 7692W        W11892   9.949  10.088   9.743
 7693W        W11893  10.306  11.423   1.857
 7694W        W11894   7.115   2.604  10.838
 7695W        W11895   4.781   9.531   9.228
 7696W        W11896   5.158   9.575  11.376
 7697W        W11897  10.004   2.114   2.928
 7698W        W11898   7.982   5.724  11.483
 7699W        W11899   9.947   4.920   0.054
 7700W        W11900   1.205  10.843  10.278
 7701W        W11901   7.615   0.526   0.752
 7702W        W11902   6.797   7.148   1.211
 7703W        W11903  10.285   0.774   9.248
 7704W        W11904   0.053   6.961  11.868
 7705W        W11905   6.496   4.548   0.637
 7706W        W11906   8.158  11.482   9.717
 7707W        W11907   0.695   3.008   2.383
 7708W        W11908   5.152   7.999   1.150
 7709W        W11909  10.356   0.912   2.383
 7710W        W11910   0.221   9.820  11.396
 7711W        W11911   8.463   9.488  11.638
 7712W        W11912   2.270   0.679   3.355
 7713W        W11913   2.311  10.479  11.950
 7714W        W11914   0.090   1.541   0.871
 7715W        W11915   2.338   8.463   1.269
 7716W        W11916   3.777   3.102   2.845
 7717W        W11917   4.409   9.416   3.627
 7718W        W11918   2.289  11.193   2.332
 7719W        W11919   3.655   7.583   0.435
 7720W        W11920   2.645   4.970   0.355
 7721W        W11921   1.343   9.991  11.763
 7722W        W11922   7.911   1.481  10.751
 7723W        W11923  10.491   1.176   1.539
 7724W        W11924   0.735   3.148   9.342
 7725W        W11925   7.101   1.630  10.815
 7726W        W11926   6.222   7.641   2.300
 7727W        W11927   6.579   6.530   1.121
 7728W        W11928   1.762   2.040   0.491
 7729W        W11929   9.400   1.311  11.513
 7730W        W11930   3.693   3.713   1.653
 7731W        W11931   7.446   4.308   1.968
 7732W        W11932   1.895   1.538   0.466
 7733W        W11933   1.147   9.424   2.272
 7734W        W11934   9.914   6.625   8.710
 7735W        W11935   5.931  10.655   3.279
 7736W        W11936   0.265   9.520   9.006
 7737W        W11937   7.860   5.499  11.020
 7738W        W11938   8.200   9.062   2.186
 7739W        W11939   0.977   3.198   2.781
 7740W        W11940   3.011   4.213  11.503
 7741W        W11941  10.186   4.483  11.929
 7742W        W11942   7.575  10.324  10.292
 7743W        W11943   1.639   9.002   2.870
 7744W        W11944  10.833   6.573   0.679
 7745W        W11945   6.710   0.071   0.421
 7746W        W11946  11.295   6.107   1.550
 7747W        W11947   9.596   3.679  11.917
 7748W        W11948   1.988  11.461   0.876
 7749W        W11949   3.750   7.814   2.175
 7750W        W11950   1.738   5.782   0.647
 7751W        W11951   8.857   8.122   1.473
 7752W        W11952   4.937   6.517   9.083
 7753W        W11953   0.018   2.729   1.978
 7754W        W11954  10.466  11.086  11.116
 7755W        W11955   6.692   2.214   9.393
 7756W        W11956   4.358   1.522   2.270
 7757W        W11957   3.583   4.198   8.924
 7758W        W11958   4.788   0.217  10.961
 7759W        W11959   2.850   7.093   3.263
 7760W        W11960   5.711  10.638   9.948
 7761W        W11961  10.969   4.796   8.584
 7762W        W11962   9.243   9.090   0.624
 7763W        W11963  10.571   2.767  10.704
 7764W        W11964   6.182   1.739   1.003
 7765W        W11965   6.489  10.685   0.816
 7766W        W11966   3.169   4.215   2.263
 7767W        W11967   5.255   6.793   8.757
 7768W        W11968   0.413   5.579   0.041
 7769W        W11969  11.453   6.184   9.056
 7770W        W11970  10.893   5.902  10.984
 7771W        W11971   4.242  10.094  10.793
 7772W        W11972   8.989   9.044   1.057
 7773W        W11973   5.055  11.110   9.329
 7774W        W11974   8.526   5.308   2.390
 7775W        W11975   3.163   3.309   9.993
 7776W        W11976   8.186   0.971   0.105
 7777W        W11977   1.379  10.380  10.488
 7778W        W11978   1.913   4.288   0.430
 7779W        W11979   6.547   3.702   0.388
 7780W        W11980   6.431  10.809   2.291
 7781W        W11981   0.698   9.781   8.937
 7782W        W11982   6.187   4.296  11.893
 7783W        W11983   9.562  11.085   9.797
 7784W        W11984   2.407   5.061  10.507
 7785W        W11985   8.213   5.107  10.988
 7786W        W11986   9.403   3.750   1.188
 7787W        W11987   7.040   7.015   2.423
 7788W        W11988   1.761   7.714   2.147
 7789W        W11989  11.335   9.388   9.984
 7790W        W11990   2.489   3.112  10.614
 7791W        W11991   8.876   9.803  11.658
 7792W        W11992   5.271   1.963   1.822
 7793W        W11993   4.816  11.313   1.572
 7794W        W11994   2.917   3.656   0.243
 7795W        W11995   5.370   2.731   9.036
 7796W        W11996   7.980   0.216  11.869
 7797W        W11997   6.411   9.101   3.732
 7798W        W11998   8.369   3.396   1.775
 7799W        W11999   5.995   0.188   0.216
 7800W        W12000   6.506  10.843  11.585
 7801W        W12001  10.460   2.231   3.533
 7802W        W12002   0.786   6.706   1.807
 7803W        W12003   8.421   1.412  11.963
 7804W        W12004   1.794   1.750  10.033
 7805W        W12005   3.264   8.683  10.336
 7806W        W12006   6.597   6.144   0.797
 7807W        W12007   9.470   8.111   3.215
 7808W        W12008   1.423   3.518   2.065
 7809W        W12009   6.270   8.841  11.085
 7810W        W12010   8.865   6.218   3.231
 7811W        W12011   8.785   9.583   3.189
 7812W        W12012   5.701   5.142   9.140
 7813W        W12013   9.336   3.388   1.784
 7814W        W12014   7.638   5.413   9.800
 7815W        W12015   3.130   2.094   9.690
 7816W        W12016   0.948   1.964   3.215
 7817W        W12017   8.912   0.547   3.147
 7818W        W12018  10.393   6.447   1.990
 7819W        W12019   7.920   4.263  10.041
 7820W        W12020   6.663   2.532  11.981
 7821W        W12021   4.482   5.785   1.076
 7822W        W12022  10.846   7.019   0.921
 7823W        W12023   4.445   3.239   0.777
 7824W        W12024  10.657   9.584   9.555
 7825W        W12025  11.366   5.511   3.230
 7826W        W12026   6.660   2.733   9.499
 7827W        W12027   5.518  10.161  11.822
 7828W        W12028   2.792   4.845   0.836
 7829W        W12029   2.477   9.526   1.672
 7830W        W12030   5.117   6.494   1.163
 7831W        W12031   1.810   3.356   0.840
 7832W        W12032  10.463   9.114   9.409
 7833W        W12033   4.317   8.682   3.698
 7834W        W12034   0.846   0.275   1.145
 7835W        W12035   5.953   8.199   3.585
 7836W        W12036   7.635   6.552  10.542
 7837W        W12037   4.454   4.218  10.452
 7838W        W12038   8.970  10.838   9.468
 7839W        W12039   7.857   6.945   9.066
 7840W        W12040   8.525   6.921   1.392
 7841W        W12041   2.688  10.790   1.133
 7842W        W12042  10.000  11.278   3.104
 7843W        W12043   3.096   7.032   1.941
 7844W        W12044   3.782   5.961  11.027
 7845W        W12045   4.819   6.142  11.297
 7846W        W12046   9.553   8.613  10.355
 7847W        W12047   3.385  10.011   9.193
 7848W        W12048   2.239   7.874   9.447
 7849W        W12049   3.351   3.461   0.074
 7850W        W12050   1.481   7.839  11.977
 7851W        W12051   4.490   2.755   9.765
 7852W        W12052   8.587   9.140   0.437
 7853W        W12053   9.094  11.337  10.793
 7854W        W12054   7.189   2.365   3.391
 7855W        W12055   2.572   2.636  11.279
 7856W        W12056   0.350   4.815   1.262
 7857W        W12057   4.715   0.170   2.852
 7858W        W12058   5.769   4.372   1.692
 7859W        W12059   6.642   6.075   2.264
 7860W        W12060   5.881   2.720   8.972
 7861W        W12061   8.286   5.141   3.215
 7862W        W12062   6.931   5.108   2.380
 7863W        W12063   9.125   8.411  11.507
 7864W        W12064   2.240   5.258   9.096
 7865W        W12065   1.277   4.132   9.749
 7866W        W12066   0.861   0.254   2.155
 7867W        W12067   7.458  11.476  10.185
 7868W        W12068   0.748   2.178   1.939
 7869W        W12069   7.169   0.769  11.842
 7870W        W12070   8.348   4.547  10.289
 7871W        W12071  11.104   4.100   2.305
 7872W        W12072   9.905   3.789   1.338
 7873W        W12073   3.119   9.363   0.753
 7874W        W12074   3.814   1.639   9.933
 7875W        W12075  10.854   4.644  10.844
 7876W        W12076   8.255   6.359  10.814
 7877W        W12077  10.099   3.838   9.536
 7878W        W12078  10.677   4.172  10.561
 7879W        W12079   5.129   7.500  10.599
 7880W        W12080  11.383  10.978   2.816
 7881W        W12081   0.430   5.289   1.396
 7882W        W12082  10.159   3.767   3.447
 7883W        W12083   6.347   3.957   8.178
 7884W        W12084   3.218   5.403   3.706
 7885W        W12085   8.457   0.809   3.182
 7886W        W12086   1.809   6.501   9.075
 7887W        W12087   2.311   1.852   0.447
 7888W        W12088  10.868   3.903  11.084
 7889W        W12089   5.215   1.845  11.436
 7890W        W12090   5.463   8.165   9.892
 7891W        W12091   5.871   2.009   1.893
 7892W        W12092   2.313   7.543  11.792
 7893W        W12093   3.068   0.304   1.386
 7894W        W12094   7.625   3.116  10.970
 7895W        W12095   2.444  10.686  10.893
 7896W        W12096   4.225   3.211  10.410
 7897W        W12097   8.584   4.264   2.865
 7898W        W12098   1.360   0.390   0.845
 7899W        W12099   0.300   0.393  11.999
 7900W        W12100   7.076   0.231   2.221
 7901W        W12101   9.113   6.612   8.865
 7902W        W12102   4.187   7.486   1.830
 7903W        W12103   8.579   1.815   3.378
 7904W        W12104   1.517   0.329   9.581
 7905W        W12105   1.471   2.908   8.381
 7906W        W12106   7.343   6.457  10.093
 7907W        W12107  10.574   7.103   2.766
 7908W        W12108  11.367   9.783   3.408
 7909W        W12109   6.449   9.767   0.809
 7910W        W12110   1.928   7.693   3.484
 7911W        W12111   2.838   1.891   0.541
 7912W        W12112   7.033   4.840   9.106
 7913W        W12113   3.296   6.212  10.698
 7914W        W12114   9.615   3.114   2.756
 7915W        W12115   6.458   6.069  10.975
 7916W        W12116  10.348  10.378   0.228
 7917W        W12117   3.127   6.047  11.845
 7918W        W12118   5.367   1.911  10.021
 7919W        W12119   7.706   5.948  10.702
 7920W        W12120   7.503   5.382   0.242
 7921W        W12121   9.424  10.234   2.785
 7922W        W12122   0.986   9.839   1.653
 7923W        W12123   4.597   1.770   1.416
 7924W        W12124   6.149   2.255   0.759
 7925W        W12125   1.797   2.267   8.752
 7926W        W12126   2.180   7.078  11.569
 7927W        W12127   9.455   9.131   9.386
 7928W        W12128   4.657   1.884  10.294
 7929W        W12129   1.347   7.046   3.230
 7930W        W12130   9.988   3.279  10.845
 7931W        W12131   8.947   5.075   3.765
 7932W        W12132   6.480   9.959  11.901
 7933W        W12133   5.212   8.338   1.566
 7934W        W12134   6.592   2.327   0.463
 7935W        W12135  11.281  10.534  10.408
 7936W        W12136   4.782   0.962   1.653
 7937W        W12137   7.712   8.980  11.438
 7938W        W12138   5.526   7.556  11.437
 7939W        W12139   7.620   3.133   2.016
 7940W        W12140   7.949   6.883  11.715
 7941W        W12141   4.768   9.374   2.214
 7942W        W12142   2.257   6.148   0.264
 7943W        W12143   3.933   0.442   8.811
 7944W        W12144   5.948   0.946   9.482
 7945W        W12145   7.515   4.102   9.260
 7946W        W12146   9.480   1.885   3.552
 7947W        W12147   4.636  11.065   1.998
 7948W        W12148   5.712   1.179   0.346
 7949W        W12149   5.400  10.828  10.745
 7950W        W12150   6.981   4.193   9.943
 7951W        W12151   7.665   7.071  10.483
 7952W        W12152   3.680   6.454  10.931
 7953W        W12153  10.032   8.319   8.394
 7954W        W12154  10.988   0.419  10.350
 7955W        W12155  10.806   4.189   2.742
 7956W        W12156   1.329   6.625   2.937
 7957W        W12157   2.301   4.718   9.253
 7958W        W12158   2.373   1.592   2.929
 7959W        W12159   2.982   7.527   2.568
 7960W        W12160   5.487  11.454   0.873
 7961W        W12161   9.564   5.402   1.617
 7962W        W12162   0.995   7.053   8.737
 7963W        W12163   7.084   3.033   0.119
 7964W        W12164   1.792   5.415   0.299
 7965W        W12165   6.826   3.277   3.757
 7966W        W12166   6.682   5.339  10.579
 7967W        W12167   3.592   1.448   1.304
 7968W        W12168   4.168   7.988   0.879
 7969W        W12169   4.341   4.845   2.794
 7970W        W12170   2.229   0.379   2.019
 7971W        W12171   8.331  10.390   0.448
 7972W        W12172   5.215   9.368  11.855
 7973W        W12173   7.624   2.582  11.815
 7974W        W12174   2.773   2.830   2.839
 7975W        W12175   4.827   2.883  10.130
 7976W        W12176   0.771   7.593   1.280
 7977W        W12177   8.600  10.871   3.354
 7978W        W12178   0.797   4.137   9.567
 7979W        W12179   6.123   0.405   1.706
 7980W        W12180  10.532  10.715   0.560
 7981W        W12181   4.966  10.625   2.473
 7982W        W12182   5.610   9.641   9.824
 7983W        W12183   8.053   7.384   1.662
 7984W        W12184   3.029   9.057   9.553
 7985W        W12185  10.306   3.569   2.965
 7986W        W12186   5.121   1.654   0.859
 7987W        W12187   5.119   1.129   8.825
 7988W        W12188  10.018  10.796   3.279
 7989W        W12189   8.512   0.407  11.485
 7990W        W12190   8.557   7.452   2.833
 7991W        W12191   4.455   0.554   2.433
 7992W        W12192   7.474   3.056   9.696
 7993W        W12193   7.239  10.856   1.961
 7994W        W12194   0.005   5.538  11.723
 7995W        W12195   4.969  10.318   3.171
 7996W        W12196   8.683   9.379   2.327
 7997W        W12197   9.558   1.112   0.367
 7998W        W12198   6.569   9.505  11.643
 7999W        W12199   1.803   5.895   0.130
 8000W        W12200   5.638   3.671   3.310
 8001W        W12201   8.653   1.257   2.454
 8002W        W12202   9.030   4.531  11.868
 8003W        W12203  11.011   9.042   8.778
 8004W        W12204   2.467   7.046  11.065
 8005W        W12205   0.933   9.901   2.182
 8006W        W12206   9.668  10.980   3.652
 8007W        W12207   8.820   7.085  11.248
 8008W        W12208   6.555   2.203   8.783
 8009W        W12209   3.243   6.501  11.208
 8010W        W12210   0.699   3.673   9.801
 8011W        W12211   8.100   6.220   3.991
 8012W        W12212  10.480   8.595   9.419
 8013W        W12213  10.779   9.052  10.741
 8014W        W12214   6.552   4.776   1.649
 8015W        W12215   7.961   4.127   3.675
 8016W        W12216   7.544   2.865  11.404
 8017W        W12217   3.343   2.778   0.335
 8018W        W12218   2.704   6.532   9.538
 8019W        W12219   7.189   6.627   3.736
 8020W        W12220   1.459   2.791   3.037
 8021W        W12221   1.369   6.039   3.389
 8022W        W12222   0.675   5.220   0.931
 8023W        W12223   8.345   5.576  10.813
 8024W        W12224   8.687  10.502   1.765
 8025W        W12225   2.625   8.044   8.583
 8026W        W12226   6.920   9.866  11.664
 8027W        W12227   9.144   1.810  10.399
 8028W        W12228   2.711   6.022   8.996
 8029W        W12229   2.259   6.617  11.848
 8030W        W12230   5.274   6.034  11.505
 8031W        W12231   5.814   2.711   8.355
 8032W        W12232   0.306   7.457   1.418
 8033W        W12233  10.807   7.672  10.145
 8034W        W12234   3.421   5.235   0.327
 8035W        W12235   9.295   9.320   1.810
 8036W        W12236   7.001   9.816   1.663
 8037W        W12237   5.927   8.661  10.313
 8038W        W12238   5.848   0.001   9.004
 8039W        W12239  10.855   7.964   3.249
 8040W        W12240   3.247  10.283   2.162
 8041W        W12241   6.492  11.410  10.273
 8042W        W12242   5.337   9.529   3.667
 8043W        W12243   4.478   1.641   9.883
 8044W        W12244   2.431   2.187  11.466
 8045W        W12245   6.089   8.826   1.839
 8046W        W12246   0.294  10.076   3.343
 8047W        W12247   3.412  10.510   9.918
 8048W        W12248   9.069  10.218   8.789
 8049W        W12249   6.989  10.975  11.691
 8050W        W12250   8.709   5.749   3.117
 8051W        W12251  10.320   2.426  10.396
 8052W        W12252   5.026   6.512  10.095
 8053W        W12253   6.913   8.989   3.685
 8054W        W12254   9.905   4.071   1.786
 8055W        W12255   9.341   6.055   9.254
 8056W        W12256   0.348   1.321  10.365
 8057W        W12257  11.252   4.233   2.979
 8058W        W12258   7.236  11.075  10.400
 8059W        W12259  10.344   1.778   2.173
 8060W        W12260   8.654   5.212  10.624
 8061W        W12261   7.571   4.827  11.458
 8062W        W12262   3.122   4.767   0.418
 8063W        W12263   3.436   8.011   9.108
 8064W        W12264   7.807   3.871   3.263
 8065W        W12265   2.475   7.475  11.320
 8066W        W12266   4.196   3.846  11.022
 8067W        W12267   0.431   0.850   8.755
 8068W        W12268   7.930   0.708   9.318
 8069W        W12269   9.800   2.818  11.578
 8070W        W12270  11.396   8.623   0.140
 8071W        W12271   3.418   9.912  11.550
 8072W        W12272   1.761   4.588   0.007
 8073W        W12273   0.883  11.497   2.864
 8074W        W12274   5.225   5.589   1.869
 8075W        W12275   6.711   0.461   3.572
 8076W        W12276   2.404   7.077   0.549
 8077W        W12277   9.552  11.165   0.496
 8078W        W12278   2.776   6.911   8.736
 8079W        W12279  10.412   5.100   3.290
 8080W        W12280   1.452   3.724   0.491
 8081W        W12281  10.393   5.133   0.658
 8082W        W12282  11.380   8.435   1.653
 8083W        W12283   4.164   4.154  10.030
 8084W        W12284   4.806   0.663   2.786
 8085W        W12285   9.602   2.294   3.211
 8086W        W12286   7.586   7.571   1.833
 8087W        W12287   6.597   2.080   0.926
 8088W        W12288  10.140   8.997   0.499
 8089W        W12289   6.550   0.415   1.429
 8090W        W12290   3.300   6.649   1.657
 8091W        W12291   3.562   8.069   0.800
 8092W        W12292   3.223   3.207   2.775
 8093W        W12293   0.765   2.230   2.806
 8094W        W12294   5.955   3.828  11.863
 8095W        W12295   0.432   3.064   9.760
 8096W        W12296  10.419  10.022   9.480
 8097W        W12297   9.051   5.000  10.372
 8098W        W12298   5.572   9.442   2.213
 8099W        W12299   3.127   5.121   8.668
 8100W        W12300   3.601   9.934  11.065
 8101W        W12301   4.281   2.658   1.448
 8102W        W12302   8.472  10.383   2.618
 8103W        W12303   2.186   2.275   0.737
 8104W        W12304   4.756   0.353   8.389
 8105W        W12305   9.817   7.019   2.335
 8106W        W12306   0.441   4.814  10.111
 8107W        W12307   3.780   5.951  10.490
 8108W        W12308  11.061   2.882  11.714
 8109W        W12309   2.806   0.811  10.023
 8110W        W12310   0.518   9.509  10.716
 8111W        W12311   6.940  11.399   0.861
 8112W        W12312   6.859   6.049   0.340
 8113W        W12313   0.822  11.195  10.171
 8114W        W12314   7.342   8.932  11.764
 8115W        W12315  10.506   8.898   3.518
 8116W        W12316   3.823   2.121   9.059
 8117W        W12317   4.156   1.966  10.128
 8118W        W12318   6.320   6.307   9.169
 8119W        W12319   5.165   1.149   0.854
 8120W        W12320   0.666   5.248   9.270
 8121W        W12321   8.062   5.690   1.675
 8122W        W12322   9.075   8.533  10.539
 8123W        W12323  10.933   9.132  10.267
 8124W        W12324   6.329  10.046  10.296
 8125W        W12325   8.180   6.564   8.944
 8126W        W12326   2.081   7.075   2.738
 8127W        W12327   7.104  10.552   1.504
 8128W        W12328   6.081   9.795   9.926
 8129W        W12329  10.972   4.902   1.614
 8130W        W12330   0.391   2.612  10.484
 8131W        W12331  10.003   0.774   9.937
 8132W        W12332   1.852  11.002  11.505
 8133W        W12333   0.223   4.519   9.741
 8134W        W12334   2.467   6.158   1.276
 8135W        W12335   7.500   9.709   1.337
 8136W        W12336  11.111   7.850   0.028
 8137W        W12337   4.376   8.975   8.528
 8138W        W12338   8.163   3.195  10.440
 8139W        W12339   1.231   9.957  11.276
 8140W        W12340   3.962  10.863   0.848
 8141W        W12341   6.274  10.975  10.560
 8142W        W12342   5.076   9.669  10.876
 8143W        W12343   5.150   2.635   2.287
 8144W        W12344   3.671   4.347  11.977
 8145W        W12345   2.692  11.195  10.407
 8146W        W12346   7.531   4.054  11.827
 8147W        W12347   9.049   9.518   0.878
 8148W        W12348   7.976   8.477  11.425
 8149W        W12349   2.245  10.957  10.507
 8150W        W12350   2.820   3.646   9.835
 8151W        W12351   7.446  10.785  10.746
 8152W        W12352   1.253   1.002  10.437
 8153W        W12353   6.032   3.826   0.912
 8154W        W12354   5.709   4.283   8.645
 8155W        W12355   2.930   3.021   0.936
 8156W        W12356  10.456   7.864  11.051
 8157W        W12357   1.435  10.330   0.503
 8158W        W12358   6.091   8.962   0.504
 8159W        W12359   2.686   0.774   2.157
 8160W        W12360   1.050   1.412   2.339
 8161W        W12361   5.538   1.479  10.196
 8162W        W12362   2.547  11.447   9.990
 8163W        W12363   7.261  10.498   8.948
 8164W        W12364  10.394   8.923   9.900
 8165W        W12365   1.623   9.056  10.386
 8166W        W12366   9.576   6.134   0.533
 8167W        W12367   3.602   7.000   2.841
 8168W        W12368   7.890   5.348   9.063
 8169W        W12369   8.500   1.252   9.006
 8170W        W12370  11.276   6.585  10.954
 8171W        W12371   3.678   2.825   2.182
 8172W        W12372  11.371   2.573  11.992
 8173W        W12373   3.560  10.174  10.331
 8174W        W12374  10.817   7.609   2.891
 8175W        W12375  10.245   9.669  11.250
 8176W        W12376   3.725   7.423   9.313
 8177W        W12377  11.415  10.997  10.143
 8178W        W12378   3.198   6.964  11.984
 8179W        W12379   5.534   4.469  11.691
 8180W        W12380   4.761  10.818   3.015
 8181W        W12381   4.595   6.279   0.656
 8182W        W12382   5.902   7.248   1.213
 8183W        W12383   5.649   6.664   3.619
 8184W        W12384   2.079   0.071   9.862
 8185W        W12385   3.894   5.101   1.578
 8186W        W12386   6.639   8.291   3.399
 8187W        W12387   8.908   7.806   9.461
 8188W        W12388   3.390   1.398   2.782
 8189W        W12389  10.631   5.463   9.686
 8190W        W12390   1.269   6.448   0.726
 8191W        W12391   8.119   6.594   0.489
 8192W        W12392   6.747  10.222   3.621
 8193W        W12393   3.498   8.388   3.586
 8194W        W12394   6.210   7.007  10.585
 8195W        W12395   0.184  10.869  11.146
 8196W        W12396   7.502   0.296   9.027
 8197W        W12397  11.195   2.912   0.939
 8198W        W12398   8.072   0.282   1.983
 8199W        W12399   0.333   8.481   9.819
 8200W        W12400   1.483   1.243   0.495
 8201W        W12401   7.702   8.426   0.811
 8202W        W12402   8.252   2.251   1.755
 8203W        W12403  11.119   1.342   0.941
 8204W        W12404   6.898  10.919   1.039
 8205W        W12405  11.454   0.557   3.831
 8206W        W12406   1.873   9.367  10.888
 8207W        W12407   9.938   6.514   2.222
 8208W        W12408   8.008   2.724   9.776
 8209W        W12409   2.202   9.924  10.300
 8210W        W12410   6.640   1.363  10.782
 8211W        W12411   8.674   6.600   2.642
 8212W        W12412   2.195   5.147   3.132
 8213W        W12413   8.107   8.646  10.809
 8214W        W12414   7.493   8.603   1.844
 8215W        W12415   5.169   6.237  10.957
 8216W        W12416   6.089  10.870   2.692
 8217W        W12417   5.339   6.054   1.280
 8218W        W12418  10.003   5.438  11.902
 8219W        W12419   7.116  10.577  10.385
 8220W        W12420   3.127  11.049   2.913
 8221W        W12421   4.508   3.622   9.160
 8222W        W12422   2.128  10.170   8.936
 8223W        W12423   7.232   3.324   0.918
 8224W        W12424   7.396   9.102   1.891
 8225W        W12425   2.149  11.009   9.595
 8226W        W12426   7.561   0.589   2.759
 8227W        W12427   8.954   4.542  10.165
 8228W        W12428   3.353   9.600  10.774
 8229W        W12429   7.170   5.568   1.935
 8230W        W12430   0.469   4.109   2.891
 8231W        W12431  10.341   7.625   2.725
 8232W        W12432   0.676  11.047  11.104
 8233W        W12433   2.310   2.287  10.929
 8234W        W12434   7.111   1.478   0.390
 8235W        W12435   2.219  10.763   0.366
 8236W        W12436   3.243   9.751   2.284
 8237W        W12437  11.055   7.905   1.149
 8238W        W12438   6.551   7.857  10.395
 8239W        W12439   0.069   3.776   3.621
 8240W        W12440  10.907   3.144  10.942
 8241W        W12441  10.956   0.163   8.993
 8242W        W12442   5.465   3.675  11.792
 8243W        W12443   6.222   4.165   3.467
 8244W        W12444   2.372   4.059   0.371
 8245W        W12445   2.122   2.714  11.493
 8246W        W12446  10.343   4.092   8.991
 8247W        W12447   1.375   2.709   0.133
 8248W        W12448   8.244   0.989   0.621
 8249W        W12449   7.943   4.101   9.525
 8250W        W12450   5.832   7.605   4.033
 8251W        W12451   8.071   4.732   9.896
 8252W        W12452   4.124   5.211  10.524
 8253W        W12453   1.136   4.452   1.830
 8254W        W12454  11.384  10.065  10.616
 8255W        W12455  11.221   6.279  11.376
 8256W        W12456   7.066   6.402   4.202
 8257W        W12457   5.016   4.714   0.212
 8258W        W12458   9.975   9.239  11.987
 8259W        W12459   0.928   3.652   3.435
 8260W        W12460   5.253   4.563   8.636
 8261W        W12461  11.482   3.519   0.394
 8262W        W12462   1.427  11.472   1.828
 8263W        W12463   1.320  11.093   2.192
 8264W        W12464   9.565   6.776  10.374
 8265W        W12465   5.621   6.520   9.877
 8266W        W12466   3.380   7.130   1.490
 8267W        W12467   1.308   6.023   9.176
 8268W        W12468   1.291   9.938   0.773
 8269W        W12469   0.409   0.004   2.319
 8270W        W12470   6.470   2.043  10.254
 8271W        W12471  10.275  10.534  10.263
 8272W        W12472   7.952   0.972  10.727
 8273W        W12473   6.597   7.819   9.110
 8274W        W12474   1.697   7.250   3.534
 8275W        W12475   4.078  10.759   0.041
 8276W        W12476   8.554  10.742   1.335
 8277W        W12477   6.584   5.718   0.021
 8278W        W12478   6.757   7.070   0.657
 8279W        W12479   6.662   3.273  10.528
 8280W        W12480   7.924   6.427   0.914
 8281W        W12481  10.064   5.881   3.399
 8282W        W12482   4.624  10.002  10.014
 8283W        W12483   9.419  10.633   1.223
 8284W        W12484   9.056   4.273   2.620
 8285W        W12485   8.959   5.567   2.142
 8286W        W12486   9.970   6.805   3.187
 8287W        W12487  11.076   0.943  11.758
 8288W        W12488   3.789   4.418  10.234
 8289W        W12489   9.245   5.806   0.204
 8290W        W12490   5.480   6.249   1.726
 8291W        W12491  11.424   7.315   3.005
 8292W        W12492  10.420   9.405   2.623
 8293W        W12493   6.536   8.311   1.166
 8294W        W12494   9.752   7.264  10.398
 8295W        W12495   4.327   7.205   2.362
 8296W        W12496  11.164   6.310   8.622
 8297W        W12497   4.135   4.851   8.585
 8298W        W12498  11.117   3.111   0.488
 8299W        W12499   1.580   6.681   0.382
 8300W        W12500   8.128   9.394   0.521
 8301W        W12501   8.045   9.941   2.205
 8302W        W12502   4.746  10.792   0.308
 8303W        W12503   8.686   8.864   9.813
 8304W        W12504   3.811  10.401   0.354
 8305W        W12505   9.612   8.912   2.701
 8306W        W12506   6.094   3.776   2.673
 8307W        W12507   0.722  10.272   9.153
 8308W        W12508   1.793   6.545   1.784
 8309W        W12509  11.490   5.093   1.649
 8310W        W12510   3.941   9.348   9.875
 8311W        W12511   1.671  11.285  11.098
 8312W        W12512   3.533   5.610   2.379
 8313W        W12513   2.191   0.209   3.543
 8314W        W12514   9.441   9.227  11.261
 8315W        W12515   6.422   1.680   2.029
 8316W        W12516  10.467   5.561   3.536
 8317W        W12517   1.950   3.136  10.494
 8318W        W12518   1.746  11.499   2.802
 8319W        W12519   6.905   8.243  10.208
 8320W        W12520   9.283   9.270   0.144
 8321W        W12521   2.469   7.952  10.366
 8322W        W12522   2.344   1.863   1.484
 8323W        W12523   4.808   8.007   2.869
 8324W        W12524  11.441  10.046   0.142
 8325W        W12525   7.676   5.168   1.813
 8326W        W12526   2.622   0.696  10.495
 8327W        W12527   3.419   6.473   9.069
 8328W        W12528   5.738  11.098   3.454
 8329W        W12529   4.715   9.804   2.470
 8330W        W12530   2.156   3.278  11.885
 8331W        W12531   3.851   7.132   9.748
 8332W        W12532   3.786   7.413  11.096
 8333W        W12533   7.723   8.465  10.499
 8334W        W12534   0.120   7.798   0.179
 8335W        W12535   1.625   5.722   2.655
 8336W        W12536  10.404   4.693   9.312
 8337W        W12537   6.150   1.238   3.251
 8338W        W12538   1.800   9.132  11.356
 8339W        W12539   8.551   2.715   0.524
 8340W        W12540   3.903  10.289   9.941
 8341W        W12541   9.056   9.976   0.570
 8342W        W12542   2.294   3.223  10.144
 8343W        W12543   8.604   0.050   0.861
 8344W        W12544   7.783   7.932  10.751
 8345W        W12545   1.577   9.746   1.516
 8346W        W12546  10.374   4.586   3.413
 8347W        W12547   6.158   9.036   3.261
 8348W        W12548   7.970  10.028   1.266
 8349W        W12549   8.855   5.477   0.104
 8350W        W12550  11.030   6.191   1.992
 8351W        W12551  11.311   7.701   0.592
 8352W        W12552   5.531   3.690  10.132
 8353W        W12553   8.450   2.178  10.768
 8354W        W12554   3.166   4.799   1.577
 8355W        W12555   1.470   4.747  11.080
 8356W        W12556   3.102   7.094   2.818
 8357W        W12557  10.824   6.348  10.736
 8358W        W12558   3.383  10.457   3.489
 8359W        W12559   6.250   9.952   1.700
 8360W        W12560   1.826   1.400  11.389
 8361W        W12561  10.823   6.639   8.872
 8362W        W12562   6.940   4.653   3.176
 8363W        W12563  10.343   8.290   1.227
 8364W        W12564   2.347   1.134   0.501
 8365W        W12565   0.565   2.429   2.384
 8366W        W12566   6.636   2.868  11.569
 8367W        W12567  10.784   2.899   3.668
 8368W        W12568   2.614   9.865   9.882
 8369W        W12569   2.244   0.509  11.793
 8370W        W12570   7.792   8.146   1.417
 8371W        W12571   0.287   1.305   1.712
 8372W        W12572  11.042  10.430   9.471
 8373W        W12573   5.498   6.134   9.510
 8374W        W12574   3.503   2.131   3.247
 8375W        W12575   0.469   7.078   1.719
 8376W        W12576   3.890   1.503   0.390
 8377W        W12577   5.555   7.816   9.533
 8378W        W12578   9.084   7.733   1.211
 8379W        W12579   7.495   8.684   0.402
 8380W        W12580  10.442  10.411   1.669
 8381W        W12581   4.194   8.571   3.047
 8382W        W12582   4.333   9.027   3.300
 8383W        W12583   8.618   8.323   3.009
 8384W        W12584   5.541   0.339   1.383
 8385W        W12585  11.091   3.390   2.964
 8386W        W12586   5.829  10.565  11.768
 8387W        W12587   4.537   4.870   0.095
 8388W        W12588   1.708   4.883   3.168
 8389W        W12589   8.085   1.832   9.460
 8390W        W12590   9.845   3.431   3.150
 8391W        W12591   7.893   1.761   1.013
 8392W        W12592  11.363  11.037  11.543
 8393W        W12593   5.174   6.500   0.171
 8394W        W12594   2.185  11.475   9.374
 8395W        W12595   0.658  11.082   0.266
 8396W        W12596   5.186   1.846   1.342
 8397W        W12597   6.456   5.045  10.947
 8398W        W12598   3.141   4.300   1.338
 8399W        W12599   1.829   9.950   2.825
 8400W        W12600   4.632   8.236   3.676
 8401W        W12601   6.993   8.869   0.109
 8402W        W12602   5.070   1.910   9.299
 8403W        W12603   2.061  11.072   8.602
 8404W        W12604   7.428   3.285   1.580
 8405W        W12605   0.259   1.065   0.883
 8406W        W12606   1.008  11.006  11.482
 8407W        W12607   4.487  11.071  11.939
 8408W        W12608   1.152  10.057   8.917
 8409W        W12609   5.610   9.808  11.448
 8410W        W12610   5.233   0.393   2.769
 8411W        W12611   3.273   3.263  11.068
 8412W        W12612  10.073   6.033   2.107
 8413W        W12613   0.473  10.558   0.096
 8414W        W12614   2.128   4.579   3.140
 8415W        W12615   3.385   2.421  11.492
 8416W        W12616   4.295   2.181   1.221
 8417W        W12617   5.851   8.662  11.843
 8418W        W12618   6.038   0.330  11.286
 8419W        W12619   4.203   0.234   2.790
 8420W        W12620   0.801   4.524   0.322
 8421W        W12621   9.939   8.576   1.055
 8422W        W12622   6.031   0.835  11.068
 8423W        W12623   5.210   0.547   9.235
 8424W        W12624   8.981   2.529  11.950
 8425W        W12625   7.750   6.159  10.237
 8426W        W12626   2.086   5.069   9.538
 8427W        W12627   2.440   0.357  10.843
 8428W        W12628  10.006   5.376   3.412
 8429W        W12629   5.096   9.132   9.477
 8430W        W12630   4.372   7.199   1.459
 8431W        W12631   8.435   0.252   0.397
 8432W        W12632   0.886  10.209  10.969
 8433W        W12633   2.078   9.462   0.762
 8434W        W12634   4.845   3.832  10.492
 8435W        W12635   3.535   5.239   0.871
 8436W        W12636   1.205   3.121   2.306
 8437W        W12637   7.297   0.568   1.392
 8438W        W12638   0.283   3.928   1.522
 8439W        W12639   8.848   2.243   9.916
 8440W        W12640   0.176  10.954   0.431
 8441W        W12641   9.479   9.850   9.880
 8442W        W12642  10.407   6.174  11.660
 8443W        W12643   1.304   6.516   9.268
 8444W        W12644   8.835   4.079  10.403
 8445W        W12645   7.960   7.504   0.289
 8446W        W12646   0.729   2.782  11.445
 8447W        W12647   6.341   7.616   4.076
 8448W        W12648   0.472   4.840   8.946
 8449W        W12649   4.967   0.435   2.317
 8450W        W12650   6.986  10.250  10.014
 8451W        W12651   3.887   8.854   3.489
 8452W        W12652   4.536   8.903  11.431
 8453W        W12653   4.589   2.346   2.170
 8454W        W12654   0.571   4.299   1.225
 8455W        W12655   3.743   7.137   8.880
 8456W        W12656   0.363   6.468  10.182
 8457W        W12657   0.267   0.876   9.723
 8458W        W12658   5.783   8.134  11.996
 8459W        W12659   5.624   9.311  10.785
 8460W        W12660   1.901   1.071   0.228
 8461W        W12661   2.807   4.676   9.134
 8462W        W12662  10.747   7.140   2.249
 8463W        W12663  10.370   7.135   0.747
 8464W        W12664  10.619   1.340   1.070
 8465W        W12665   6.168   0.382   0.654
 8466W        W12666  11.413   8.148   2.623
 8467W        W12667   2.575   1.592   8.998
 8468W        W12668   4.399   6.595  10.445
 8469W        W12669   8.586  10.244  10.564
 8470W        W12670   3.314   0.304   9.630
 8471W        W12671   3.198   3.665  10.350
 8472W        W12672   7.109   6.056   0.845
 8473W        W12673   7.040   7.597   8.963
 8474W        W12674   8.151   1.848  10.500
 8475W        W12675  11.386   4.129   1.882
 8476W        W12676   4.781   1.905  11.683
 8477W        W12677   6.985   5.725  10.437
 8478W        W12678   6.032   9.582  10.578
 8479W        W12679   5.097   7.836   9.799
 8480W        W12680   3.822   3.630   9.747
 8481W        W12681   1.075   8.945   1.515
 8482W        W12682   5.180   8.693   0.609
 8483W        W12683   7.969   7.047   2.060
 8484W        W12684   9.149   5.188   0.454
 8485W        W12685   4.771  10.379   9.656
 8486W        W12686   8.383   5.514  10.311
 8487W        W12687   2.647  10.882   0.624
 8488W        W12688   9.377   0.828   1.263
 8489W        W12689   9.776   2.653   9.086
 8490W        W12690  10.849   3.021   9.918
 8491W        W12691  11.399   0.556  11.258
 8492W        W12692   2.801   1.018  11.425
 8493W        W12693   2.189   2.169   3.408
 8494W        W12694   9.468   1.463  10.105
 8495W        W12695   5.918   1.822  10.205
 8496W        W12696   4.507   7.601   2.712
 8497W        W12697   5.445   6.111   2.767
 8498W        W12698   4.788   8.515   2.826
 8499W        W12699   4.222   2.918   1.914
 8500W        W12700   6.064  10.963   0.693
 8501W        W12701   7.905   4.192  10.581
 8502W        W12702   4.283  11.059   0.415
 8503W        W12703   5.195  11.424  11.100
 8504W        W12704   7.221   9.249   9.933
 8505W        W12705   9.380   6.174  11.541
 8506W        W12706  10.685   3.885   3.607
 8507W        W12707   3.956   8.013  10.490
 8508W        W12708   6.791  10.768  10.784
 8509W        W12709   4.891  10.098   0.938
 8510W        W12710   1.650   0.872   3.453
 8511W        W12711   7.079  10.485   9.445
 8512W        W12712   9.823  10.799   8.973
 8513W        W12713   2.119   0.165   2.484
 8514W        W12714   2.392   6.116  11.333
 8515W        W12715   4.163   1.720   9.151
 8516W        W12716  10.481   4.314  11.019
 8517W        W12717   9.783   0.403   1.286
 8518W        W12718   0.921   4.987   0.511
 8519W        W12719   1.305   5.329   9.893
 8520W        W12720   8.485   5.802   0.817
 8521W        W12721   1.171   8.146  11.307
 8522W        W12722   0.219   3.456  11.947
 8523W        W12723   2.729   3.855   0.671
 8524W        W12724   2.623   5.093   9.409
 8525W        W12725   9.879   5.694   0.745
 8526W        W12726   8.580   8.278   1.029
 8527W        W12727   6.027   9.408   8.582
 8528W        W12728   9.605   3.135  10.536
 8529W        W12729   6.337   2.100   1.729
 8530W        W12730   5.821   9.864   1.460
 8531W        W12731   7.124   9.878   2.196
 8532W        W12732   4.653  11.266   9.606
 8533W        W12733   5.699   8.336   9.479
 8534W        W12734   5.663   5.818   1.987
 8535ION    NA+12735   2.771   6.688  11.892
 8536ION    NA+12736   4.220   1.058   2.056
 8537ION    NA+12737   0.880  10.616   3.139
 8538ION    NA+12738   6.825   0.879   1.354
 8539ION    NA+12739   7.201   3.410   9.453
 8540ION    NA+12740  10.270   9.534   3.483
 8541ION    NA+12741  11.454   2.013  11.408
 8542ION    NA+12742   5.636   4.070   0.653
 8543ION    NA+12743  11.237   7.150   9.674
 8544ION    NA+12744   8.227   4.611   9.419
 8545ION    NA+12745   6.821   6.432  10.903
 8546ION    NA+12746   7.753   2.285   1.667
 8547ION    NA+12747   8.042   4.969   0.991
 8548ION    NA+12748   8.134   2.286   3.249
 8549ION    NA+12749   1.841  10.990   1.001
 8550ION    NA+12750   0.904   9.287  11.902
 8551ION    NA+12751   7.857   6.233  11.515
 8552ION    NA+12752   5.337   1.588   3.238
 8553ION    NA+12753   3.995  10.437  10.461
 8554ION    NA+12754   1.848   3.114   9.920
 8555ION    NA+12755   9.847   4.724   2.277
 8556ION    NA+12756   0.872   8.672   0.839
 8557ION    NA+12757   6.326   7.419  11.910
 8558ION    NA+12758   8.051   3.415   3.137
 8559ION    NA+12759   8.872   6.311  10.664
 8560ION    NA+12760   9.736   7.744   0.944
 8561ION    NA+12761   6.356  10.983   3.162
 8562ION    NA+12762   8.232   2.289   0.400
 8563ION    NA+12763   0.923   2.812   9.689
 8564ION    NA+12764   2.116   0.615   0.309
 8565ION    NA+12765   3.400   2.840  11.798
 8566ION    NA+12766   6.574   7.684   1.908
 8567ION    NA+12767   3.237   4.887   8.232
 8568ION    NA+12768   4.681  11.109   2.562
 8569ION    NA+12769   5.690  10.291   1.210
 8570ION    NA+12770   3.171   4.710  10.831
 8571ION    NA+12771  10.473   0.497  11.499
 8572ION    NA+12772   7.119   7.539   3.433
 8573ION    NA+12773   7.640   3.769   0.258
 8574ION    NA+12774  10.238   7.446  11.971
 8575ION    NA+12775   3.693  10.043   2.212
 8576ION    NA+12776   3.224   1.129  10.175
 8577ION    NA+12777   1.457   7.664  10.014
 8578ION    NA+12778   1.422   8.832   8.914
 8579ION    NA+12779   3.139   9.422  11.805
 8580ION    NA+12780   8.907   0.161   1.295
 8581ION    NA+12781   0.528   5.239   9.796
 8582ION    NA+12782   5.611   7.087   2.436
 8583ION    NA+12783   2.906   3.859   9.373
 8584ION    NA+12784   7.029   5.614   0.554
 8585ION    NA+12785   3.497  11.426   1.722
 8586ION    NA+12786   0.906  10.796   2.156
 8587ION    NA+12787   4.821   6.528   1.930
 8588ION    NA+12788   1.020   6.282   3.124
 8589ION    NA+12789   9.767   2.152   8.907
 8590ION    NA+12790   6.676   6.873   3.178
 8591ION    NA+12791   9.178  10.350   1.833
 8592ION    NA+12792   1.500   4.161   0.733
 8593ION    NA+12793   1.663   4.364   1.881
 8594ION    NA+12794   3.344   6.261   3.388
 8595ION    NA+12795   9.634   7.699   3.490
 8596ION    NA+12796   5.767   8.034  11.485
 8597ION    NA+12797   1.162   6.003   9.679
 8598ION    NA+12798   8.447   3.645   2.220
 8599ION    NA+12799   9.819   2.334   3.784
 8600ION    NA+12800   7.398   1.736   0.044
 8601ION    NA+12801   8.532   8.380   2.497
 8602ION    NA+12802   0.007  11.072   3.308
 8603ION    NA+12803   6.809   7.470   4.208
 8604ION    NA+12804   5.321  11.286  11.571
 8605ION    NA+12805   6.051   2.562   2.618
 8606ION    NA+12806   8.290   8.542   9.818
 8607ION    NA+12807   7.334   8.873   1.438
 8608ION    NA+12808   4.711  10.189   2.171
 8609ION    NA+12809   4.275   5.806   2.008
 8610ION    NA+12810   0.037   8.015   1.908
 8611ION    NA+12811   4.148  10.041   1.288
 8612ION    NA+12812   8.138   0.940   9.761
 8613ION    NA+12813   4.360   5.911   0.383
 8614ION    NA+12814  10.081   0.424   0.859
 8615ION    NA+12815   9.721   7.879   9.021
 8616ION    NA+12816   6.004   3.904   1.853
 8617ION    NA+12817   7.322   9.370  10.829
 8618ION    NA+12818   5.911   3.242   3.363
 8619ION    NA+12819   1.775   1.154   1.351
 8620ION    NA+12820   7.657   2.853   8.624
 8621ION    NA+12821   6.186   8.487   9.490
 8622ION    NA+12822   0.659   4.668   1.619
 8623ION    NA+12823   3.180   6.606   8.601
 8624ION    NA+12824   4.132   6.803   0.250
 8625ION    CL-12825   5.555   1.655   2.104
 8626ION    CL-12826   0.210   7.857  11.298
 8627ION    CL-12827  11.310   4.334   8.649
 8628ION    CL-12828   2.116   8.478   2.296
 8629ION    CL-12829   7.001   7.812   1.865
 8630ION    CL-12830   4.685   8.963   1.508
 8631ION    CL-12831   8.202   3.602  11.384
 8632ION    CL-12832   0.145   7.832   2.299
 8633ION    CL-12833   9.172   5.897   3.539
 8634ION    CL-12834   0.277   0.863   0.229
 8635ION    CL-12835   7.445  11.464   0.814
 8636ION    CL-12836   3.316  11.327   1.328
 8637ION    CL-12837   6.938   3.150   9.703
 8638ION    CL-12838   5.038   0.533   1.416
 8639ION    CL-12839  11.474  11.443   3.044
 8640ION    CL-12840   4.768   1.190  11.029
 8641ION    CL-12841   5.810   9.936   0.949
 8642ION    CL-12842  11.165   7.350   9.280
 8643ION    CL-12843   0.261   4.452   1.625
 8644ION    CL-12844   6.049   7.767  11.748
 8645ION    CL-12845  10.602  10.933  10.111
 8646ION    CL-12846   3.579  11.327  11.986
 8647ION    CL-12847   7.226   1.063   1.426
 8648ION    CL-12848   9.117   1.524   3.559
 8649ION    CL-12849   3.243  11.133   9.111
 8650ION    CL-12850   0.975  10.354   9.592
 8651ION    CL-12851   3.424   2.958   3.193
 8652ION    CL-12852   6.913   7.258   3.126
 8653ION    CL-12853   6.702   2.779  10.602
 8654ION    CL-12854  11.468   3.554   1.298
 8655ION    CL-12855   2.360   0.434  10.132
 8656ION    CL-12856   9.480  10.624  10.359
 8657ION    CL-12857   0.985   7.847   3.371
 8658ION    CL-12858   6.468   7.259   4.424
 8659ION    CL-12859   8.458   4.960   3.653
 8660ION    CL-12860   5.363   2.862   8.525
 8661ION    CL-12861   8.181   6.513   2.758
 8662ION    CL-12862   6.988   9.483   2.515
 8663ION    CL-12863   5.195   3.389   2.745
 8664ION    CL-12864  11.210   3.564  11.931
 8665ION    CL-12865  10.530   3.219   1.393
 8666ION    CL-12866   7.555   7.325   9.647
 8667ION    CL-12867   1.021   1.509   0.402
 8668ION    CL-12868   3.334   1.555  10.102
 8669ION    CL-12869  10.876   3.586  10.113
 8670ION    CL-12870   1.350   1.232   9.657
 8671ION    CL-12871  11.434   5.493   2.332
 8672ION    CL-12872   2.664   6.821   9.989
 8673ION    CL-12873   6.884   9.418  10.762
 8674ION    CL-12874   8.305   4.601   0.965
 8675ION    CL-12875   4.255   8.738  11.014
 8676ION    CL-12876   5.296   3.773   0.664
 8677ION    CL-12877   0.222   5.268  10.123
 8678ION    CL-12878   5.810   4.173   2.155
 8679ION    CL-12879   9.165   9.568   3.564
 8680ION    CL-12880  11.018   5.524   8.100
 8681ION    CL-12881   3.015   7.764   9.894
 8682ION    CL-12882   5.317   1.185  11.964
 8683ION    CL-12883   9.897   6.689   1.207
 8684ION    CL-12884   9.195   7.180   2.922
 8685ION    CL-12885   4.087   7.259   0.291
 8686ION    CL-12886   9.315   6.391  10.672
 8687ION    CL-12887   0.683   4.643   2.897
 8688ION    CL-12888  10.437  10.438   1.146
 8689ION    CL-12889   7.126  10.105   1.278
 8690ION    CL-12890   5.314   3.695   9.621
 8691ION    CL-12891   4.542   6.177   2.011
 8692ION    CL-12892   4.230   6.346   0.303
 8693ION    CL-12893  10.896   0.920   8.495
 8694ION    CL-12894   5.536   8.307  11.194
 8695ION    CL-12895   5.318   3.109  11.550
 8696ION    CL-12896   4.437   3.063   8.846
 8697ION    CL-12897   9.966   7.458  11.618
 8698ION    CL-12898   0.733   5.992   3.352
 8699ION    CL-12899  10.115   3.122   2.775
 8700ION    CL-12900   9.333   7.818   0.765
 8701ION    CL-12901   7.483   1.768  11.606
 8702ION    CL-12902   2.719   5.655   2.107
 8703ION    CL-12903   5.673  10.702   1.409
 8704ION    CL-12904   1.240   2.299   1.855
 8705ION    CL-12905   1.162  11.276  11.038
 8706ION    CL-12906   4.904   1.925   9.806
 8707ION    CL-12907   8.072  11.279   1.854
 8708ION    CL-12908   1.231   9.337   2.798
 8709ION    CL-12909   6.628   7.104   0.041
 8710ION    CL-12910   1.750  10.754  10.345
 8711ION    CL-12911   0.861   4.984   1.353
 8712ION    CL-12912   6.050   9.552  11.552
 8713ION    CL-12913   5.159  10.183   8.680
 8714ION    CL-12914   9.542  10.305   1.578
  11.50000  11.50000  12.00000
