Protein in INSANE! Membrane UpperLeaflet>POPC=1.0 LowerLeaflet>POPC=1.0
11530
    1AU     AUC    1   5.248   5.305   6.002
    1AU     AUC    2   5.388   5.283   5.912
    1AU     AUC    3   5.389   5.287   6.090
    1AU     AUC    4   5.081   5.294   5.921
    1AU     AUC    5   5.103   5.304   6.140
    1AU     AUC    6   5.171   5.437   6.024
    1AU     AUC    7   5.316   5.422   6.001
    1AU     AUC    8   5.173   5.138   6.001
    1AU     AUC    9   5.321   5.140   6.017
    1AU     AUC   10   5.231   5.173   6.125
    1AU     AUC   11   5.242   5.370   6.146
    1AU     AUC   12   5.260   5.197   5.852
    1AU     AUC   13   5.240   5.382   5.867
    1AU     AUC   14   5.513   5.309   5.825
    1AU     AUC   15   5.559   5.295   5.994
    1AU     AUC   16   5.515   5.289   6.165
    1AU     AUC   17   4.966   5.309   5.880
    1AU     AUC   18   4.940   5.296   6.046
    1AU     AUC   19   4.985   5.280   6.197
    1AU     AUC   20   5.066   5.557   6.014
    1AU     AUC   21   5.185   5.613   6.028
    1AU     AUC   22   5.419   5.562   5.991
    1AU     AUC   23   5.083   4.997   5.945
    1AU     AUC   24   5.221   4.942   5.961
    1AU     AUC   25   5.442   5.021   6.019
    1AU     AUC   26   5.276   5.115   6.288
    1AU     AUC   27   5.290   5.300   6.351
    1AU     AUC   28   5.273   5.481   6.279
    1AU     AUC   29   5.221   5.132   5.725
    1AU     AUC   30   5.243   5.315   5.682
    1AU     AUC   31   5.231   5.454   5.742
    1AU     AUC   32   5.451   5.246   6.261
    1AU     AUC   33   5.400   5.374   6.257
    1AU     AUC   34   5.419   5.190   5.763
    1AU     AUC   35   5.405   5.411   5.737
    1AU     AUC   36   5.095   5.141   6.257
    1AU     AUC   37   5.104   5.356   6.282
    1AU     AUC   38   5.059   5.201   5.753
    1AU     AUC   39   5.079   5.408   5.764
    1AU     AUC   40   5.511   5.436   5.884
    1AU     AUC   41   5.495   5.469   6.082
    1AU     AUC   42   4.977   5.444   5.918
    1AU     AUC   43   4.981   5.449   6.138
    1AU     AUC   44   5.561   5.152   5.918
    1AU     AUC   45   5.501   5.119   6.123
    1AU     AUC   46   4.998   5.146   5.938
    1AU     AUC   47   4.943   5.154   6.124
    1AU     AUC   48   5.193   5.570   6.193
    1AU     AUC   49   5.412   5.559   6.134
    1AU     AUC   50   5.106   5.023   6.157
    1AU     AUC   51   5.354   5.006   6.171
    1AU     AUC   52   5.146   5.563   5.834
    1AU     AUC   53   5.346   5.548   5.838
    1AU     AUC   54   5.167   5.065   5.798
    1AU     AUC   55   5.395   5.007   5.885
    1AU    AUSL   56   5.755   5.310   6.385
    1AU    AUSL   57   5.456   4.924   6.548
    1AU     AUL   58   5.867   4.993   6.509
    1AU       S   59   5.675   4.570   6.761
    1AU     LIG   60   5.891   4.228   7.042
    1AU     LIG   61   6.202   3.860   7.045
    1AU       S   62   6.053   5.340   6.849
    1AU     LIG   63   6.081   5.295   7.344
    1AU     LIG   64   6.049   5.161   7.814
    1AU    AUSL   65   5.450   5.237   6.496
    1AU    AUSL   66   5.186   5.332   6.429
    1AU     AUL   67   5.316   5.307   6.770
    1AU       S   68   5.756   5.068   7.018
    1AU     LIG   69   5.651   5.025   7.502
    1AU     LIG   70   5.669   4.801   7.942
    1AU       S   71   4.814   5.289   7.116
    1AU     LIG   72   4.701   5.358   7.556
    1AU     LIG   73   4.581   5.385   8.009
    1AU    AUSL   74   5.332   5.524   6.562
    1AU    AUSL   75   5.543   5.483   6.375
    1AU     AUL   76   5.583   5.389   6.693
    1AU       S   77   5.272   5.800   6.938
    1AU     LIG   78   5.670   5.696   7.206
    1AU     LIG   79   5.736   5.540   7.642
    1AU       S   80   5.833   5.841   6.731
    1AU     LIG   81   6.277   5.933   6.885
    1AU     LIG   82   6.715   6.000   7.080
    1AU    AUSL   83   5.550   5.324   5.466
    1AU    AUSL   84   5.510   5.555   5.625
    1AU     AUL   85   5.297   5.372   5.286
    1AU       S   86   5.784   5.218   5.103
    1AU     LIG   87   6.072   5.090   4.728
    1AU     LIG   88   6.223   5.111   4.273
    1AU       S   89   5.849   5.723   5.282
    1AU     LIG   90   5.969   6.082   5.017
    1AU     LIG   91   6.155   6.488   4.866
    1AU    AUSL   92   5.339   5.124   5.444
    1AU    AUSL   93   5.494   5.154   5.678
    1AU     AUL   94   5.665   5.074   5.652
    1AU       S   95   5.729   4.294   5.420
    1AU     LIG   96   6.169   4.376   5.258
    1AU     LIG   97   6.520   4.191   5.024
    1AU       S   98   5.546   4.974   5.037
    1AU     LIG   99   5.658   4.789   4.611
    1AU     LIG  100   5.795   4.827   4.166
    1AU    AUSL  101   5.302   5.363   5.585
    1AU    AUSL  102   5.083   5.250   5.421
    1AU     AUL  103   5.266   5.556   5.490
    1AU       S  104   4.828   5.149   5.014
    1AU     LIG  105   4.781   4.918   4.615
    1AU     LIG  106   4.566   4.920   4.186
    1AU       S  107   5.605   5.239   4.836
    1AU     LIG  108   5.723   5.287   4.391
    1AU     LIG  109   5.859   5.301   3.938
    1AU    AUSL  110   5.014   5.117   6.419
    1AU    AUSL  111   5.201   5.583   6.320
    1AU     AUL  112   5.096   5.345   6.591
    1AU       S  113   4.708   5.061   6.850
    1AU     LIG  114   4.428   5.001   7.245
    1AU     LIG  115   4.274   5.099   7.689
    1AU       S  116   4.789   5.857   6.740
    1AU     LIG  117   4.537   6.170   6.981
    1AU     LIG  118   4.333   6.453   7.295
    1AU    AUSL  119   5.228   5.092   6.588
    1AU    AUSL  120   4.865   4.895   6.378
    1AU     AUL  121   5.155   4.734   6.625
    1AU       S  122   4.606   4.638   6.554
    1AU     LIG  123   4.207   4.551   6.759
    1AU     LIG  124   3.898   4.255   6.946
    1AU       S  125   4.947   5.026   7.009
    1AU     LIG  126   4.901   4.893   7.446
    1AU     LIG  127   4.738   4.912   7.876
    1AU    AUSL  128   4.813   5.296   5.545
    1AU    AUSL  129   5.011   5.154   5.664
    1AU     AUL  130   5.088   4.948   5.434
    1AU       S  131   4.574   5.248   5.178
    1AU     LIG  132   4.322   5.057   4.795
    1AU     LIG  133   4.140   5.177   4.362
    1AU       S  134   4.559   4.730   5.138
    1AU     LIG  135   4.411   4.364   4.930
    1AU     LIG  136   4.222   3.991   4.701
    1AU    AUSL  137   5.039   5.437   5.623
    1AU    AUSL  138   4.804   5.560   5.661
    1AU     AUL  139   5.039   5.520   5.327
    1AU       S  140   4.540   5.743   5.302
    1AU     LIG  141   4.352   6.077   4.983
    1AU     LIG  142   4.104   6.289   4.616
    1AU       S  143   4.664   5.406   4.902
    1AU     LIG  144   4.613   5.379   4.450
    1AU     LIG  145   4.461   5.411   4.009
    1AU    AUSL  146   5.637   5.552   5.889
    1AU    AUSL  147   5.704   5.358   5.698
    1AU     AUL  148   5.721   5.638   6.003
    1AU       S  149   6.055   5.520   5.420
    1AU     LIG  150   6.301   5.665   5.026
    1AU     LIG  151   6.490   6.093   4.942
    1AU       S  152   6.347   5.805   6.018
    1AU     LIG  153   6.758   6.076   5.943
    1AU     LIG  154   7.057   6.401   5.735
    1AU    AUSL  155   5.859   5.396   5.937
    1AU    AUSL  156   5.829   5.172   6.132
    1AU     AUL  157   5.803   5.561   6.271
    1AU       S  158   6.262   5.513   5.883
    1AU     LIG  159   6.635   5.640   5.642
    1AU     LIG  160   7.083   5.695   5.747
    1AU       S  161   6.251   4.974   6.148
    1AU     LIG  162   6.632   4.701   6.251
    1AU     LIG  163   7.058   4.507   6.406
    1AU    AUSL  164   5.653   5.388   6.122
    1AU    AUSL  165   5.474   5.609   6.130
    1AU     AUL  166   5.667   5.799   6.236
    1AU       S  167   5.886   6.171   6.599
    1AU     LIG  168   6.234   6.439   6.744
    1AU     LIG  169   6.679   6.468   6.893
    1AU       S  170   6.296   5.498   6.182
    1AU     LIG  171   6.783   5.601   6.169
    1AU     LIG  172   7.249   5.603   6.293
    1AU    AUSL  173   4.891   5.568   5.940
    1AU    AUSL  174   4.903   5.364   6.361
    1AU     AUL  175   4.765   5.624   6.002
    1AU       S  176   4.611   5.525   6.722
    1AU     LIG  177   4.244   5.775   6.813
    1AU     LIG  178   4.028   6.074   7.099
    1AU       S  179   4.510   6.092   6.051
    1AU     LIG  180   4.267   6.495   6.090
    1AU     LIG  181   3.859   6.613   5.940
    1AU    AUSL  182   4.813   5.323   5.826
    1AU    AUSL  183   4.859   5.797   5.791
    1AU     AUL  184   4.521   5.615   5.850
    1AU       S  185   4.257   5.240   5.589
    1AU     LIG  186   3.873   5.417   5.784
    1AU     LIG  187   3.571   5.754   5.639
    1AU       S  188   4.641   6.151   5.554
    1AU     LIG  189   4.449   6.486   5.286
    1AU     LIG  190   4.067   6.567   5.057
    1AU    AUSL  191   4.764   5.374   6.117
    1AU    AUSL  192   4.667   5.136   5.985
    1AU     AUL  193   4.687   5.383   5.839
    1AU       S  194   4.237   5.066   6.069
    1AU     LIG  195   3.876   4.887   5.748
    1AU     LIG  196   3.427   4.704   5.690
    1AU       S  197   4.327   5.502   6.328
    1AU     LIG  198   3.923   5.814   6.396
    1AU     LIG  199   3.440   5.997   6.369
    1AU    AUSL  200   5.638   4.958   6.059
    1AU    AUSL  201   5.574   5.148   6.250
    1AU     AUL  202   5.629   5.063   6.382
    1AU       S  203   6.069   4.678   6.117
    1AU     LIG  204   6.328   4.340   5.969
    1AU     LIG  205   6.567   4.220   5.573
    1AU       S  206   5.993   4.486   6.624
    1AU     LIG  207   6.339   4.300   6.803
    1AU     LIG  208   6.478   4.261   7.230
    1AU    AUSL  209   5.662   5.190   5.912
    1AU    AUSL  210   5.659   4.835   5.807
    1AU     AUL  211   5.859   5.140   5.836
    1AU       S  212   6.207   4.815   5.899
    1AU     LIG  213   6.626   4.705   5.745
    1AU     LIG  214   7.063   4.686   5.907
    1AU       S  215   5.851   4.491   5.650
    1AU     LIG  216   6.093   4.037   5.631
    1AU     LIG  217   6.188   3.836   5.215
    1AU    AUSL  218   4.919   5.041   5.937
    1AU    AUSL  219   4.747   5.075   5.720
    1AU     AUL  220   4.914   4.702   5.879
    1AU       S  221   4.479   4.827   5.428
    1AU     LIG  222   4.091   4.625   5.319
    1AU     LIG  223   3.933   4.252   5.097
    1AU       S  224   4.057   5.062   6.193
    1AU     LIG  225   4.085   4.566   6.076
    1AU     LIG  226   3.873   4.340   5.697
    1AU    AUSL  227   4.822   5.111   6.209
    1AU    AUSL  228   4.852   4.838   6.111
    1AU     AUL  229   4.685   4.863   5.919
    1AU       S  230   4.546   4.488   6.293
    1AU     LIG  231   4.169   4.162   6.417
    1AU     LIG  232   3.980   3.799   6.716
    1AU       S  233   4.309   4.987   6.341
    1AU     LIG  234   3.828   4.767   6.494
    1AU     LIG  235   3.356   4.905   6.385
    1AU    AUSL  236   5.178   5.857   6.298
    1AU    AUSL  237   4.951   5.589   6.207
    1AU     AUL  238   5.064   5.586   6.456
    1AU       S  239   4.668   5.941   6.482
    1AU     LIG  240   4.297   6.197   6.528
    1AU     LIG  241   4.116   6.500   6.817
    1AU       S  242   5.164   6.255   6.442
    1AU     LIG  243   5.376   6.662   6.645
    1AU     LIG  244   5.314   7.128   6.794
    1AU    AUSL  245   5.193   5.710   6.072
    1AU    AUSL  246   5.284   5.905   5.887
    1AU     AUL  247   4.978   5.823   6.053
    1AU       S  248   5.208   6.511   6.182
    1AU     LIG  249   5.157   6.975   6.288
    1AU     LIG  250   4.847   7.154   6.595
    1AU       S  251   5.457   6.328   5.735
    1AU     LIG  252   5.657   6.781   5.678
    1AU     LIG  253   5.591   7.218   5.498
    1AU    AUSL  254   5.403   5.877   6.140
    1AU    AUSL  255   5.425   5.732   6.380
    1AU     AUL  256   5.535   5.852   5.998
    1AU       S  257   5.601   6.057   6.686
    1AU     LIG  258   5.872   6.193   7.096
    1AU     LIG  259   6.312   6.328   7.243
    1AU       S  260   5.452   6.321   6.259
    1AU     LIG  261   5.676   6.726   6.205
    1AU     LIG  262   5.682   7.103   6.445
    1AU    AUSL  263   5.332   5.016   6.332
    1AU    AUSL  264   5.541   4.824   6.287
    1AU     AUL  265   5.289   4.644   6.304
    1AU       S  266   5.060   4.097   6.387
    1AU     LIG  267   5.054   3.755   6.676
    1AU     LIG  268   4.926   3.433   6.990
    1AU       S  269   5.767   4.442   6.448
    1AU     LIG  270   6.110   4.063   6.387
    1AU     LIG  271   6.448   3.782   6.592
    1AU    AUSL  272   5.095   4.681   6.099
    1AU    AUSL  273   5.085   4.937   6.214
    1AU     AUL  274   5.166   4.880   6.393
    1AU       S  275   4.969   4.217   6.128
    1AU     LIG  276   4.797   3.705   6.206
    1AU     LIG  277   4.920   3.305   6.482
    1AU       S  278   4.625   4.318   6.564
    1AU     LIG  279   4.383   4.060   6.902
    1AU     LIG  280   4.088   3.824   7.234
    1AU    AUSL  281   5.325   4.852   6.111
    1AU    AUSL  282   5.134   4.876   5.906
    1AU     AUL  283   5.501   4.719   6.029
    1AU       S  284   5.054   4.293   5.608
    1AU     LIG  285   4.861   3.876   5.703
    1AU     LIG  286   4.866   3.437   5.537
    1AU       S  287   5.210   3.985   6.149
    1AU     LIG  288   5.324   3.540   6.272
    1AU     LIG  289   5.381   3.327   6.707
    1AU    AUSL  290   5.303   5.786   5.634
    1AU    AUSL  291   5.397   5.661   5.861
    1AU     AUL  292   5.676   5.806   5.761
    1AU       S  293   5.356   6.176   5.423
    1AU     LIG  294   5.262   6.544   5.127
    1AU     LIG  295   5.267   7.009   5.136
    1AU       S  296   6.151   5.847   5.460
    1AU     LIG  297   6.276   6.314   5.368
    1AU     LIG  298   6.576   6.616   5.155
    1AU    AUSL  299   5.109   5.689   5.816
    1AU    AUSL  300   5.031   5.707   5.557
    1AU     AUL  301   5.035   6.024   5.851
    1AU       S  302   5.246   6.475   5.614
    1AU     LIG  303   5.133   6.903   5.639
    1AU     LIG  304   4.815   7.100   5.388
    1AU       S  305   4.810   6.004   5.296
    1AU     LIG  306   4.803   6.334   4.958
    1AU     LIG  307   4.481   6.624   4.754
    1AU    AUSL  308   5.232   4.996   5.665
    1AU    AUSL  309   4.954   4.891   5.687
    1AU     AUL  310   5.216   4.810   5.664
    1AU       S  311   4.672   4.608   5.404
    1AU     LIG  312   4.383   4.212   5.433
    1AU     LIG  313   4.024   3.884   5.443
    1AU       S  314   5.227   4.141   5.402
    1AU     LIG  315   5.106   3.738   5.208
    1AU     LIG  316   5.105   3.387   4.880
    1AU    AUSL  317   5.410   4.927   5.859
    1AU    AUSL  318   5.472   4.887   5.585
    1AU     AUL  319   5.282   4.646   5.881
    1AU       S  320   5.324   4.099   5.671
    1AU     LIG  321   5.327   3.638   5.671
    1AU     LIG  322   5.314   3.258   5.357
    1AU       S  323   5.638   4.568   5.349
    1AU     LIG  324   5.787   4.379   4.921
    1AU     LIG  325   6.095   4.046   4.740
    2POPC   NC3  326   3.407   8.787   8.013
    2POPC   PO4  327   3.944   8.322   8.198
    2POPC   GL1  328   3.865   8.777   7.760
    2POPC   GL2  329   3.496   8.785   7.523
    2POPC   C1A  330   3.902   8.748   7.273
    2POPC   D2A  331   3.747   8.455   6.981
    2POPC   C3A  332   3.488   8.454   6.625
    2POPC   C4A  333   3.580   8.567   6.225
    2POPC   C1B  334   3.290   8.597   7.225
    2POPC   C2B  335   3.181   8.772   6.907
    2POPC   C3B  336   3.075   8.738   6.535
    2POPC   C4B  337   3.194   8.878   6.146
    3POPC   NC3  338   1.124   5.046   8.128
    3POPC   PO4  339   0.576   4.650   8.142
    3POPC   GL1  340   0.912   4.788   7.735
    3POPC   GL2  341   1.089   5.110   7.644
    3POPC   C1A  342   1.111   4.717   7.323
    3POPC   D2A  343   0.914   4.819   6.933
    3POPC   C3A  344   1.050   4.621   6.561
    3POPC   C4A  345   1.165   4.764   6.140
    3POPC   C1B  346   1.355   5.180   7.310
    3POPC   C2B  347   1.458   5.057   6.924
    3POPC   C3B  348   1.280   5.062   6.562
    3POPC   C4B  349   1.402   5.202   6.192
    4POPC   NC3  350   9.447   1.823   8.158
    4POPC   PO4  351   8.899   2.108   7.931
    4POPC   GL1  352   9.083   1.917   7.619
    4POPC   GL2  353   9.343   1.696   7.683
    4POPC   C1A  354   9.255   1.986   7.236
    4POPC   D2A  355   9.277   1.792   6.834
    4POPC   C3A  356   9.453   2.043   6.493
    4POPC   C4A  357   9.646   2.251   6.159
    4POPC   C1B  358   9.372   1.492   7.293
    4POPC   C2B  359   9.708   1.635   7.034
    4POPC   C3B  360   9.756   1.627   6.569
    4POPC   C4B  361   9.929   1.416   6.212
    5POPC   NC3  362   0.171   7.821   8.377
    5POPC   PO4  363   0.028   7.356   8.056
    5POPC   GL1  364   0.208   7.636   7.641
    5POPC   GL2  365   0.269   8.015   7.521
    5POPC   C1A  366   0.380   7.631   7.195
    5POPC   D2A  367   0.596   7.783   6.817
    5POPC   C3A  368   0.569   7.668   6.350
    5POPC   C4A  369   0.239   7.726   5.987
    5POPC   C1B  370   0.347   8.346   7.270
    5POPC   C2B  371   0.441   8.268   6.869
    5POPC   C3B  372   0.279   8.057   6.524
    5POPC   C4B  373   0.403   8.156   6.152
    6POPC   NC3  374   3.004   1.467   8.153
    6POPC   PO4  375   3.664   1.712   8.288
    6POPC   GL1  376   3.673   1.518   7.882
    6POPC   GL2  377   3.576   1.153   7.856
    6POPC   C1A  378   3.518   1.497   7.454
    6POPC   D2A  379   3.569   1.680   7.051
    6POPC   C3A  380   3.687   1.505   6.633
    6POPC   C4A  381   3.469   1.423   6.240
    6POPC   C1B  382   3.378   1.016   7.431
    6POPC   C2B  383   3.513   1.181   7.015
    6POPC   C3B  384   3.360   1.080   6.598
    6POPC   C4B  385   3.513   0.926   6.196
    7POPC   NC3  386   8.564   9.182   8.108
    7POPC   PO4  387   9.011   9.618   8.358
    7POPC   GL1  388   8.894   9.467   7.825
    7POPC   GL2  389   8.786   9.209   7.631
    7POPC   C1A  390   8.782   9.673   7.415
    7POPC   D2A  391   8.718   9.684   6.975
    7POPC   C3A  392   8.734   9.379   6.682
    7POPC   C4A  393   8.697   9.502   6.266
    7POPC   C1B  394   8.567   9.213   7.234
    7POPC   C2B  395   8.371   9.035   6.868
    7POPC   C3B  396   8.235   9.228   6.497
    7POPC   C4B  397   8.284   9.322   6.065
    8POPC   NC3  398   6.483   0.307   8.472
    8POPC   PO4  399   6.852  10.473   8.078
    8POPC   GL1  400   6.661   0.161   7.650
    8POPC   GL2  401   6.382   0.410   7.741
    8POPC   C1A  402   6.540   0.437   7.249
    8POPC   D2A  403   6.352   0.713   6.922
    8POPC   C3A  404   6.509   0.698   6.504
    8POPC   C4A  405   6.746   0.552   6.127
    8POPC   C1B  406   6.228   0.055   7.436
    8POPC   C2B  407   6.373  10.452   7.018
    8POPC   C3B  408   6.430   0.212   6.647
    8POPC   C4B  409   6.309   0.294   6.219
    9POPC   NC3  410   8.956   4.744   8.170
    9POPC   PO4  411   8.589   5.242   7.977
    9POPC   GL1  412   8.922   5.102   7.726
    9POPC   GL2  413   8.780   4.780   7.678
    9POPC   C1A  414   8.910   5.171   7.277
    9POPC   D2A  415   8.688   5.064   6.901
    9POPC   C3A  416   8.761   4.876   6.534
    9POPC   C4A  417   8.859   4.978   6.129
    9POPC   C1B  418   8.553   4.791   7.300
    9POPC   C2B  419   8.317   4.718   6.903
    9POPC   C3B  420   8.360   4.559   6.476
    9POPC   C4B  421   8.430   4.639   6.024
   10POPC   NC3  422   4.270   9.460   8.034
   10POPC   PO4  423   3.609   9.263   8.181
   10POPC   GL1  424   3.865   9.496   7.728
   10POPC   GL2  425   4.219   9.530   7.542
   10POPC   C1A  426   3.848   9.671   7.264
   10POPC   D2A  427   4.021   9.486   6.875
   10POPC   C3A  428   3.781   9.542   6.491
   10POPC   C4A  429   3.926   9.516   6.034
   10POPC   C1B  430   4.432   9.299   7.157
   10POPC   C2B  431   4.624   9.088   6.800
   10POPC   C3B  432   4.447   8.904   6.459
   10POPC   C4B  433   4.185   9.261   6.396
   11POPC   NC3  434  10.039   5.697   8.463
   11POPC   PO4  435   9.833   5.340   7.919
   11POPC   GL1  436   9.913   5.390   7.528
   11POPC   GL2  437  10.243   5.520   7.680
   11POPC   C1A  438   9.778   5.207   7.136
   11POPC   D2A  439   9.696   5.496   6.835
   11POPC   C3A  440   9.643   5.420   6.413
   11POPC   C4A  441   9.823   5.666   6.087
   11POPC   C1B  442  10.254   5.728   7.312
   11POPC   C2B  443  10.077   5.905   6.941
   11POPC   C3B  444  10.080   5.754   6.532
   11POPC   C4B  445  10.304   5.856   6.137
   12POPC   NC3  446   6.291   1.570   8.288
   12POPC   PO4  447   5.976   2.147   8.302
   12POPC   GL1  448   6.175   1.802   7.869
   12POPC   GL2  449   6.461   1.904   7.716
   12POPC   C1A  450   6.154   1.629   7.407
   12POPC   D2A  451   6.436   1.659   6.990
   12POPC   C3A  452   6.244   1.568   6.564
   12POPC   C4A  453   6.273   1.686   6.132
   12POPC   C1B  454   6.424   2.097   7.293
   12POPC   C2B  455   6.638   2.131   6.896
   12POPC   C3B  456   6.576   1.945   6.500
   12POPC   C4B  457   6.616   2.032   6.057
   13POPC   NC3  458   1.441   0.933   8.052
   13POPC   PO4  459   2.092   0.851   8.046
   13POPC   GL1  460   1.913   1.085   7.688
   13POPC   GL2  461   2.238   1.230   7.641
   13POPC   C1A  462   1.717   1.097   7.288
   13POPC   D2A  463   1.683   0.780   6.934
   13POPC   C3A  464   1.867   0.859   6.504
   13POPC   C4A  465   1.661   0.835   6.084
   13POPC   C1B  466   2.129   1.415   7.251
   13POPC   C2B  467   1.942   1.273   6.853
   13POPC   C3B  468   1.768   1.345   6.441
   13POPC   C4B  469   2.004   1.188   6.093
   14POPC   NC3  470   7.167   2.022   8.122
   14POPC   PO4  471   6.702   1.484   8.121
   14POPC   GL1  472   6.929   1.708   7.748
   14POPC   GL2  473   7.285   1.818   7.680
   14POPC   C1A  474   6.886   1.859   7.310
   14POPC   D2A  475   6.996   1.751   6.893
   14POPC   C3A  476   7.059   2.069   6.577
   14POPC   C4A  477   7.030   1.832   6.251
   14POPC   C1B  478   7.381   1.674   7.265
   14POPC   C2B  479   7.585   1.570   6.875
   14POPC   C3B  480   7.477   1.756   6.493
   14POPC   C4B  481   7.490   2.082   6.193
   15POPC   NC3  482   6.482   9.239   8.077
   15POPC   PO4  483   6.976   9.646   8.236
   15POPC   GL1  484   6.657   9.604   7.762
   15POPC   GL2  485   6.360   9.392   7.618
   15POPC   C1A  486   6.535   9.736   7.307
   15POPC   D2A  487   6.541   9.574   6.866
   15POPC   C3A  488   6.528   9.816   6.485
   15POPC   C4A  489   6.474   9.763   6.031
   15POPC   C1B  490   6.270   9.263   7.193
   15POPC   C2B  491   6.068   9.377   6.801
   15POPC   C3B  492   6.275   9.341   6.415
   15POPC   C4B  493   6.171   9.330   5.985
   16POPC   NC3  494   9.460   3.180   8.236
   16POPC   PO4  495   9.765   3.815   8.128
   16POPC   GL1  496   9.694   3.514   7.768
   16POPC   GL2  497   9.375   3.438   7.716
   16POPC   C1A  498   9.682   3.349   7.326
   16POPC   D2A  499   9.565   3.551   6.931
   16POPC   C3A  500   9.789   3.542   6.524
   16POPC   C4A  501   9.598   3.541   6.104
   16POPC   C1B  502   9.186   3.312   7.297
   16POPC   C2B  503   9.057   3.466   6.897
   16POPC   C3B  504   9.264   3.479   6.506
   16POPC   C4B  505   9.172   3.241   6.122
   17POPC   NC3  506   0.519   5.803   8.293
   17POPC   PO4  507  10.408   5.555   8.219
   17POPC   GL1  508   0.235   5.561   7.837
   17POPC   GL2  509   0.565   5.765   7.775
   17POPC   C1A  510   0.304   5.488   7.346
   17POPC   D2A  511   0.120   5.698   6.947
   17POPC   C3A  512   0.169   5.817   6.511
   17POPC   C4A  513   0.169   5.485   6.209
   17POPC   C1B  514   0.640   5.919   7.343
   17POPC   C2B  515   0.651   5.724   6.931
   17POPC   C3B  516   0.602   5.565   6.510
   17POPC   C4B  517   0.566   5.772   6.101
   18POPC   NC3  518  10.194   0.446   8.259
   18POPC   PO4  519   9.644   0.123   8.028
   18POPC   GL1  520   9.998   0.152   7.733
   18POPC   GL2  521  10.215   0.410   7.700
   18POPC   C1A  522   9.924   0.185   7.274
   18POPC   D2A  523  10.057   0.500   7.027
   18POPC   C3A  524  10.095   0.532   6.607
   18POPC   C4A  525  10.251   0.388   6.220
   18POPC   C1B  526  10.477   0.462   7.311
   18POPC   C2B  527   0.073   0.606   6.870
   18POPC   C3B  528   0.020   0.783   6.452
   18POPC   C4B  529  10.485   0.730   5.949
   19POPC   NC3  530   1.507  10.438   8.051
   19POPC   PO4  531   2.201  10.321   8.011
   19POPC   GL1  532   1.856  10.269   7.679
   19POPC   GL2  533   1.772   9.918   7.546
   19POPC   C1A  534   1.681  10.334   7.260
   19POPC   D2A  535   1.536  10.211   6.896
   19POPC   C3A  536   1.790  10.431   6.562
   19POPC   C4A  537   1.636  10.475   6.155
   19POPC   C1B  538   2.058   9.969   7.209
   19POPC   C2B  539   1.960   9.994   6.791
   19POPC   C3B  540   1.611   9.980   6.460
   19POPC   C4B  541   1.909  10.018   6.147
   20POPC   NC3  542   0.513   6.714   8.184
   20POPC   PO4  543   0.835   6.097   8.102
   20POPC   GL1  544   0.660   6.385   7.779
   20POPC   GL2  545   0.303   6.419   7.732
   20POPC   C1A  546   0.602   6.461   7.321
   20POPC   D2A  547   0.696   6.270   6.933
   20POPC   C3A  548   0.632   6.501   6.554
   20POPC   C4A  549   0.442   6.266   6.221
   20POPC   C1B  550   0.086   6.630   7.343
   20POPC   C2B  551   0.062   6.850   6.969
   20POPC   C3B  552   0.116   6.669   6.590
   20POPC   C4B  553   0.305   6.771   6.210
   21POPC   NC3  554   2.470   2.049   8.028
   21POPC   PO4  555   2.505   1.386   8.073
   21POPC   GL1  556   2.705   1.632   7.729
   21POPC   GL2  557   2.776   2.009   7.617
   21POPC   C1A  558   2.602   1.638   7.305
   21POPC   D2A  559   2.761   1.861   6.982
   21POPC   C3A  560   2.662   1.731   6.585
   21POPC   C4A  561   2.551   1.522   6.233
   21POPC   C1B  562   2.444   2.116   7.336
   21POPC   C2B  563   2.343   2.133   6.876
   21POPC   C3B  564   2.486   2.185   6.448
   21POPC   C4B  565   2.910   2.113   6.286
   22POPC   NC3  566   9.237  10.398   8.142
   22POPC   PO4  567   9.251   9.825   7.890
   22POPC   GL1  568   9.393  10.243   7.668
   22POPC   GL2  569   9.731  10.279   7.520
   22POPC   C1A  570   9.380  10.428   7.215
   22POPC   D2A  571   9.544  10.379   6.814
   22POPC   C3A  572   9.175  10.384   6.542
   22POPC   C4A  573   9.022   0.070   6.153
   22POPC   C1B  574   9.609   9.949   7.286
   22POPC   C2B  575   9.664   9.832   6.880
   22POPC   C3B  576   9.501   9.963   6.539
   22POPC   C4B  577   9.688  10.311   6.282
   23POPC   NC3  578   9.640   8.519   8.080
   23POPC   PO4  579   9.161   8.261   7.749
   23POPC   GL1  580   9.474   8.527   7.597
   23POPC   GL2  581   9.464   8.862   7.724
   23POPC   C1A  582   9.694   8.464   7.231
   23POPC   D2A  583   9.531   8.528   6.859
   23POPC   C3A  584   9.800   8.452   6.566
   23POPC   C4A  585   9.687   8.358   6.181
   23POPC   C1B  586   9.641   8.967   7.351
   23POPC   C2B  587   9.471   9.021   6.950
   23POPC   C3B  588   9.630   8.945   6.534
   23POPC   C4B  589   9.369   8.774   6.226
   24POPC   NC3  590   5.515   2.200   8.319
   24POPC   PO4  591   6.012   2.263   7.791
   24POPC   GL1  592   5.790   2.556   7.539
   24POPC   GL2  593   5.454   2.732   7.665
   24POPC   C1A  594   5.824   2.525   7.099
   24POPC   D2A  595   5.716   2.349   6.733
   24POPC   C3A  596   5.768   2.566   6.395
   24POPC   C4A  597   5.570   2.721   6.011
   24POPC   C1B  598   5.521   2.915   7.230
   24POPC   C2B  599   5.533   2.835   6.778
   24POPC   C3B  600   5.771   3.078   6.456
   24POPC   C4B  601   5.949   3.070   6.058
   25POPC   NC3  602   7.450   4.195   8.058
   25POPC   PO4  603   7.007   3.789   7.948
   25POPC   GL1  604   7.261   3.901   7.588
   25POPC   GL2  605   7.183   4.235   7.624
   25POPC   C1A  606   7.456   4.188   7.216
   25POPC   D2A  607   7.458   4.368   6.761
   25POPC   C3A  608   7.372   4.083   6.392
   25POPC   C4A  609   7.310   4.076   5.906
   25POPC   C1B  610   6.953   4.071   7.231
   25POPC   C2B  611   6.828   4.158   6.792
   25POPC   C3B  612   6.620   4.216   6.387
   25POPC   C4B  613   6.830   4.237   6.013
   26POPC   NC3  614   2.636   9.963   7.974
   26POPC   PO4  615   3.175  10.473   8.183
   26POPC   GL1  616   3.033  10.383   7.774
   26POPC   GL2  617   2.675  10.426   7.760
   26POPC   C1A  618   2.990  10.300   7.325
   26POPC   D2A  619   3.104  10.241   6.884
   26POPC   C3A  620   2.801  10.306   6.562
   26POPC   C4A  621   2.738  10.094   6.158
   26POPC   C1B  622   2.468  10.262   7.367
   26POPC   C2B  623   2.506  10.088   6.932
   26POPC   C3B  624   2.352  10.076   6.500
   26POPC   C4B  625   2.341   9.761   6.249
   27POPC   NC3  626   1.060   0.246   8.129
   27POPC   PO4  627   0.957   0.952   8.051
   27POPC   GL1  628   1.139   0.621   7.748
   27POPC   GL2  629   1.237   0.290   7.674
   27POPC   C1A  630   0.964   0.488   7.322
   27POPC   D2A  631   1.108   0.484   6.884
   27POPC   C3A  632   0.932   0.300   6.491
   27POPC   C4A  633   0.833   0.505   6.089
   27POPC   C1B  634   1.475   0.325   7.298
   27POPC   C2B  635   1.519   0.201   6.912
   27POPC   C3B  636   1.444   0.333   6.520
   27POPC   C4B  637   1.374   0.410   6.111
   28POPC   NC3  638   4.402  10.301   8.056
   28POPC   PO4  639   3.896   9.869   8.071
   28POPC   GL1  640   3.946  10.014   7.638
   28POPC   GL2  641   4.107  10.322   7.633
   28POPC   C1A  642   3.913  10.169   7.173
   28POPC   D2A  643   3.930   9.971   6.751
   28POPC   C3A  644   4.175   9.892   6.351
   28POPC   C4A  645   4.117   9.950   5.862
   28POPC   C1B  646   4.389  10.139   7.352
   28POPC   C2B  647   4.492  10.288   6.924
   28POPC   C3B  648   4.242  10.384   6.566
   28POPC   C4B  649   4.228  10.368   6.137
   29POPC   NC3  650   8.512   1.837   8.005
   29POPC   PO4  651   8.286   2.473   7.890
   29POPC   GL1  652   8.515   2.182   7.599
   29POPC   GL2  653   8.559   1.886   7.524
   29POPC   C1A  654   8.392   2.211   7.148
   29POPC   D2A  655   8.332   2.295   6.731
   29POPC   C3A  656   8.483   2.014   6.425
   29POPC   C4A  657   8.514   1.989   5.964
   29POPC   C1B  658   8.774   1.872   7.197
   29POPC   C2B  659   8.807   2.033   6.823
   29POPC   C3B  660   8.938   1.803   6.463
   29POPC   C4B  661   9.013   2.141   6.248
   30POPC   NC3  662   3.308   4.265   7.962
   30POPC   PO4  663   3.762   3.839   8.058
   30POPC   GL1  664   3.579   3.883   7.618
   30POPC   GL2  665   3.326   4.123   7.486
   30POPC   C1A  666   3.576   3.870   7.143
   30POPC   D2A  667   3.394   4.172   6.856
   30POPC   C3A  668   3.664   4.148   6.490
   30POPC   C4A  669   3.744   4.015   6.066
   30POPC   C1B  670   3.132   4.474   7.242
   30POPC   C2B  671   3.127   4.640   6.799
   30POPC   C3B  672   3.233   4.411   6.428
   30POPC   C4B  673   3.585   4.510   6.131
   31POPC   NC3  674   3.702   1.263   8.429
   31POPC   PO4  675   4.250   1.452   8.151
   31POPC   GL1  676   4.111   1.238   7.779
   31POPC   GL2  677   4.259   0.904   7.711
   31POPC   C1A  678   3.871   1.112   7.408
   31POPC   D2A  679   3.900   0.828   7.041
   31POPC   C3A  680   3.864   1.001   6.611
   31POPC   C4A  681   3.929   1.254   6.213
   31POPC   C1B  682   4.370   1.130   7.325
   31POPC   C2B  683   4.440   1.057   6.906
   31POPC   C3B  684   4.331   1.198   6.526
   31POPC   C4B  685   4.269   0.888   6.250
   32POPC   NC3  686   1.970   9.189   8.165
   32POPC   PO4  687   2.201   8.543   8.184
   32POPC   GL1  688   1.861   8.657   7.856
   32POPC   GL2  689   1.602   8.928   7.883
   32POPC   C1A  690   1.822   8.553   7.401
   32POPC   D2A  691   2.002   8.342   7.027
   32POPC   C3A  692   1.974   8.572   6.649
   32POPC   C4A  693   2.285   8.829   6.432
   32POPC   C1B  694   1.602   9.015   7.425
   32POPC   C2B  695   1.659   8.859   7.002
   32POPC   C3B  696   1.496   8.793   6.580
   32POPC   C4B  697   1.748   8.710   6.209
   33POPC   NC3  698   0.151   5.032   8.035
   33POPC   PO4  699   0.747   5.417   8.127
   33POPC   GL1  700   0.606   5.229   7.727
   33POPC   GL2  701   0.437   4.919   7.654
   33POPC   C1A  702   0.722   5.139   7.295
   33POPC   D2A  703   0.535   5.211   6.888
   33POPC   C3A  704   0.759   5.070   6.510
   33POPC   C4A  705   0.655   4.991   6.085
   33POPC   C1B  706   0.263   4.904   7.255
   33POPC   C2B  707   0.117   4.943   6.844
   33POPC   C3B  708   0.229   4.984   6.396
   33POPC   C4B  709   0.269   4.633   6.070
   34POPC   NC3  710   9.920   4.949   8.135
   34POPC   PO4  711  10.487   4.593   7.999
   34POPC   GL1  712  10.184   4.664   7.739
   34POPC   GL2  713  10.205   5.002   7.707
   34POPC   C1A  714  10.292   4.672   7.305
   34POPC   D2A  715  10.123   4.874   6.956
   34POPC   C3A  716  10.237   4.807   6.531
   34POPC   C4A  717  10.315   4.882   6.094
   34POPC   C1B  718  10.340   5.189   7.315
   34POPC   C2B  719  10.221   5.380   6.948
   34POPC   C3B  720  10.387   5.337   6.597
   34POPC   C4B  721  10.120   5.295   6.297
   35POPC   NC3  722   7.849   0.766   8.065
   35POPC   PO4  723   8.077   0.215   7.999
   35POPC   GL1  724   8.143   0.487   7.626
   35POPC   GL2  725   7.799   0.643   7.557
   35POPC   C1A  726   8.105   0.487   7.149
   35POPC   D2A  727   8.239   0.735   6.799
   35POPC   C3A  728   8.065   0.650   6.384
   35POPC   C4A  729   8.303   0.599   5.998
   35POPC   C1B  730   7.754   0.206   7.385
   35POPC   C2B  731   7.765  10.492   6.978
   35POPC   C3B  732   7.694   0.008   6.552
   35POPC   C4B  733   7.748   0.279   6.178
   36POPC   NC3  734   8.139   5.796   8.595
   36POPC   PO4  735   8.013   5.417   8.067
   36POPC   GL1  736   8.091   5.515   7.648
   36POPC   GL2  737   8.119   5.857   7.716
   36POPC   C1A  738   7.932   5.521   7.206
   36POPC   D2A  739   7.656   5.288   6.884
   36POPC   C3A  740   7.738   5.343   6.438
   36POPC   C4A  741   8.081   5.572   6.355
   36POPC   C1B  742   8.028   6.008   7.342
   36POPC   C2B  743   7.751   5.998   6.997
   36POPC   C3B  744   7.917   6.001   6.595
   36POPC   C4B  745   7.777   5.984   6.186
   37POPC   NC3  746   8.539   0.340   8.135
   37POPC   PO4  747   9.066   0.794   8.010
   37POPC   GL1  748   8.684   0.691   7.738
   37POPC   GL2  749   8.681   0.332   7.664
   37POPC   C1A  750   8.590   0.608   7.272
   37POPC   D2A  751   8.768   0.506   6.874
   37POPC   C3A  752   8.585   0.525   6.458
   37POPC   C4A  753   8.814   0.557   6.072
   37POPC   C1B  754   8.443   0.075   7.403
   37POPC   C2B  755   8.313   0.016   6.978
   37POPC   C3B  756   8.150   0.232   6.663
   37POPC   C4B  757   8.232   0.183   6.250
   38POPC   NC3  758   3.171   7.222   7.945
   38POPC   PO4  759   2.602   7.054   8.124
   38POPC   GL1  760   2.723   7.016   7.697
   38POPC   GL2  761   2.742   7.373   7.671
   38POPC   C1A  762   2.760   6.875   7.254
   38POPC   D2A  763   2.622   6.850   6.817
   38POPC   C3A  764   2.864   6.885   6.440
   38POPC   C4A  765   2.907   7.195   6.104
   38POPC   C1B  766   2.702   7.377   7.241
   38POPC   C2B  767   2.560   7.449   6.849
   38POPC   C3B  768   2.496   7.241   6.489
   38POPC   C4B  769   2.501   7.523   6.195
   39POPC   NC3  770   4.590   8.705   7.941
   39POPC   PO4  771   5.287   8.769   7.962
   39POPC   GL1  772   5.145   8.885   7.589
   39POPC   GL2  773   5.108   8.542   7.510
   39POPC   C1A  774   4.880   8.925   7.225
   39POPC   D2A  775   4.987   8.719   6.852
   39POPC   C3A  776   5.034   8.992   6.519
   39POPC   C4A  777   5.247   9.082   6.156
   39POPC   C1B  778   4.730   8.444   7.243
   39POPC   C2B  779   4.568   8.456   6.797
   39POPC   C3B  780   4.796   8.495   6.400
   39POPC   C4B  781   4.714   8.419   5.963
   40POPC   NC3  782   5.719   1.936   7.956
   40POPC   PO4  783   5.191   2.424   8.060
   40POPC   GL1  784   5.406   2.226   7.633
   40POPC   GL2  785   5.577   1.903   7.501
   40POPC   C1A  786   5.432   2.183   7.150
   40POPC   D2A  787   5.547   1.898   6.858
   40POPC   C3A  788   5.421   2.027   6.473
   40POPC   C4A  789   5.497   1.743   6.170
   40POPC   C1B  790   5.915   2.021   7.194
   40POPC   C2B  791   6.118   2.028   6.789
   40POPC   C3B  792   5.930   1.977   6.377
   40POPC   C4B  793   5.695   2.190   6.048
   41POPC   NC3  794   0.493   2.096   8.057
   41POPC   PO4  795   0.472   1.478   8.067
   41POPC   GL1  796   0.509   1.729   7.667
   41POPC   GL2  797   0.690   2.046   7.594
   41POPC   C1A  798   0.536   1.760   7.212
   41POPC   D2A  799   0.712   2.025   6.955
   41POPC   C3A  800   0.564   2.063   6.578
   41POPC   C4A  801   0.679   1.834   6.227
   41POPC   C1B  802   0.323   2.204   7.334
   41POPC   C2B  803   0.154   2.461   6.963
   41POPC   C3B  804   0.010   2.335   6.554
   41POPC   C4B  805   0.183   2.059   6.243
   42POPC   NC3  806   6.005   0.979   8.001
   42POPC   PO4  807   6.568   0.677   8.203
   42POPC   GL1  808   6.504   0.952   7.834
   42POPC   GL2  809   6.342   1.311   7.793
   42POPC   C1A  810   6.368   0.942   7.405
   42POPC   D2A  811   6.233   1.201   7.079
   42POPC   C3A  812   6.083   1.088   6.655
   42POPC   C4A  813   6.311   1.112   6.240
   42POPC   C1B  814   6.609   1.425   7.430
   42POPC   C2B  815   6.805   1.268   7.070
   42POPC   C3B  816   6.606   1.212   6.692
   42POPC   C4B  817   6.681   1.472   6.326
   43POPC   NC3  818   1.479   1.936   8.106
   43POPC   PO4  819   1.476   2.618   8.216
   43POPC   GL1  820   1.486   2.382   7.771
   43POPC   GL2  821   1.270   2.060   7.666
   43POPC   C1A  822   1.467   2.268   7.274
   43POPC   D2A  823   1.513   2.000   6.881
   43POPC   C3A  824   1.460   2.253   6.489
   43POPC   C4A  825   1.448   2.189   6.006
   43POPC   C1B  826   1.063   1.803   7.362
   43POPC   C2B  827   1.111   1.688   6.963
   43POPC   C3B  828   1.067   1.890   6.578
   43POPC   C4B  829   1.313   1.753   6.245
   44POPC   NC3  830   2.564   4.150   8.017
   44POPC   PO4  831   3.124   3.843   7.898
   44POPC   GL1  832   2.870   3.892   7.577
   44POPC   GL2  833   2.812   4.247   7.574
   44POPC   C1A  834   2.995   3.928   7.163
   44POPC   D2A  835   2.869   4.217   6.892
   44POPC   C3A  836   2.779   4.060   6.564
   44POPC   C4A  837   2.839   4.190   6.179
   44POPC   C1B  838   2.505   4.093   7.241
   44POPC   C2B  839   2.348   4.264   6.826
   44POPC   C3B  840   2.344   4.272   6.365
   44POPC   C4B  841   2.480   4.447   5.966
   45POPC   NC3  842   8.464   7.852   8.100
   45POPC   PO4  843   9.013   8.081   8.281
   45POPC   GL1  844   8.794   7.967   7.757
   45POPC   GL2  845   8.516   8.102   7.664
   45POPC   C1A  846   8.946   7.774   7.341
   45POPC   D2A  847   9.113   7.855   6.926
   45POPC   C3A  848   8.981   7.805   6.524
   45POPC   C4A  849   8.999   7.539   6.181
   45POPC   C1B  850   8.589   8.148   7.244
   45POPC   C2B  851   8.645   8.010   6.857
   45POPC   C3B  852   8.618   8.179   6.480
   45POPC   C4B  853   8.682   7.960   6.133
   46POPC   NC3  854   9.894  10.216   7.976
   46POPC   PO4  855  10.472   0.082   8.133
   46POPC   GL1  856   0.034  10.428   7.753
   46POPC   GL2  857  10.388  10.086   7.772
   46POPC   C1A  858  10.356  10.455   7.371
   46POPC   D2A  859  10.365   0.117   6.952
   46POPC   C3A  860  10.279   0.005   6.539
   46POPC   C4A  861  10.332  10.361   6.101
   46POPC   C1B  862  10.138   9.992   7.389
   46POPC   C2B  863   9.987  10.218   7.036
   46POPC   C3B  864  10.015  10.084   6.615
   46POPC   C4B  865  10.111   9.948   6.233
   47POPC   NC3  866   0.977   4.418   8.046
   47POPC   PO4  867   1.482   4.398   8.480
   47POPC   GL1  868   1.377   4.143   7.942
   47POPC   GL2  869   1.116   3.967   7.747
   47POPC   C1A  870   1.384   4.271   7.417
   47POPC   D2A  871   1.411   4.490   6.965
   47POPC   C3A  872   1.382   4.235   6.558
   47POPC   C4A  873   1.472   4.300   6.094
   47POPC   C1B  874   0.905   4.099   7.370
   47POPC   C2B  875   0.923   4.298   6.978
   47POPC   C3B  876   0.843   4.156   6.569
   47POPC   C4B  877   1.021   4.056   6.180
   48POPC   NC3  878   2.179   0.361   8.039
   48POPC   PO4  879   1.494   0.411   8.093
   48POPC   GL1  880   1.748   0.363   7.731
   48POPC   GL2  881   1.624   0.684   7.605
   48POPC   C1A  882   2.035   0.179   7.394
   48POPC   D2A  883   2.122  10.450   6.996
   48POPC   C3A  884   2.322   0.072   6.607
   48POPC   C4A  885   2.174  10.490   6.185
   48POPC   C1B  886   2.042   0.695   7.383
   48POPC   C2B  887   2.235   0.489   7.023
   48POPC   C3B  888   1.951   0.393   6.710
   48POPC   C4B  889   1.880   0.404   6.284
   49POPC   NC3  890   6.907   0.442   7.975
   49POPC   PO4  891   7.412   0.922   8.009
   49POPC   GL1  892   7.283   0.747   7.647
   49POPC   GL2  893   7.336   0.379   7.658
   49POPC   C1A  894   7.391   0.660   7.216
   49POPC   D2A  895   7.347   0.323   6.912
   49POPC   C3A  896   7.543   0.496   6.584
   49POPC   C4A  897   7.572   0.786   6.245
   49POPC   C1B  898   7.020   0.335   7.334
   49POPC   C2B  899   6.848   0.173   6.950
   49POPC   C3B  900   6.929   0.358   6.568
   49POPC   C4B  901   7.219   0.366   6.203
   50POPC   NC3  902   6.928   2.897   8.115
   50POPC   PO4  903   7.652   3.106   8.087
   50POPC   GL1  904   7.472   2.861   7.763
   50POPC   GL2  905   7.318   2.528   7.837
   50POPC   C1A  906   7.486   2.669   7.353
   50POPC   D2A  907   7.201   2.654   6.986
   50POPC   C3A  908   7.288   2.901   6.587
   50POPC   C4A  909   6.932   2.960   6.275
   50POPC   C1B  910   7.192   2.265   7.462
   50POPC   C2B  911   7.308   2.156   7.020
   50POPC   C3B  912   7.452   2.387   6.622
   50POPC   C4B  913   7.282   2.554   6.226
   51POPC   NC3  914   7.136  10.056   8.378
   51POPC   PO4  915   7.359   9.856   7.795
   51POPC   GL1  916   7.156  10.033   7.480
   51POPC   GL2  917   7.121  10.383   7.645
   51POPC   C1A  918   7.041   9.751   7.171
   51POPC   D2A  919   7.244   9.639   6.820
   51POPC   C3A  920   7.074   9.931   6.568
   51POPC   C4A  921   6.918  10.044   6.193
   51POPC   C1B  922   7.327  10.453   7.278
   51POPC   C2B  923   7.164  10.287   6.937
   51POPC   C3B  924   7.188  10.428   6.525
   51POPC   C4B  925   7.400  10.222   6.226
   52POPC   NC3  926  10.248   1.277   8.161
   52POPC   PO4  927   9.823   0.744   8.234
   52POPC   GL1  928  10.058   0.880   7.857
   52POPC   GL2  929  10.071   1.239   7.697
   52POPC   C1A  930  10.104   0.827   7.404
   52POPC   D2A  931  10.180   0.977   6.951
   52POPC   C3A  932   9.944   1.058   6.595
   52POPC   C4A  933  10.091   0.914   6.231
   52POPC   C1B  934  10.224   1.378   7.298
   52POPC   C2B  935  10.161   1.477   6.870
   52POPC   C3B  936  10.396   1.277   6.554
   52POPC   C4B  937   0.009   1.223   6.144
   53POPC   NC3  938   8.475   7.094   7.909
   53POPC   PO4  939   8.917   7.556   7.996
   53POPC   GL1  940   8.595   7.517   7.655
   53POPC   GL2  941   8.756   7.220   7.499
   53POPC   C1A  942   8.496   7.584   7.214
   53POPC   D2A  943   8.755   7.494   6.872
   53POPC   C3A  944   8.527   7.597   6.496
   53POPC   C4A  945   8.523   7.401   6.093
   53POPC   C1B  946   8.390   7.086   7.254
   53POPC   C2B  947   8.323   7.233   6.850
   53POPC   C3B  948   8.513   7.078   6.517
   53POPC   C4B  949   8.743   6.944   6.205
   54POPC   NC3  950   8.917   4.005   8.080
   54POPC   PO4  951   8.518   4.554   8.066
   54POPC   GL1  952   8.549   4.306   7.654
   54POPC   GL2  953   8.822   4.138   7.611
   54POPC   C1A  954   8.456   3.972   7.326
   54POPC   D2A  955   8.437   3.782   6.926
   54POPC   C3A  956   8.463   4.050   6.621
   54POPC   C4A  957   8.485   3.776   6.271
   54POPC   C1B  958   8.937   4.442   7.329
   54POPC   C2B  959   8.784   4.517   6.929
   54POPC   C3B  960   8.892   4.391   6.550
   54POPC   C4B  961   8.725   4.214   6.214
   55POPC   NC3  962   9.213   7.193   8.040
   55POPC   PO4  963   9.095   6.639   8.351
   55POPC   GL1  964   9.350   6.747   7.838
   55POPC   GL2  965   9.555   7.016   7.692
   55POPC   C1A  966   9.174   6.961   7.359
   55POPC   D2A  967   8.912   6.998   6.957
   55POPC   C3A  968   9.046   7.191   6.558
   55POPC   C4A  969   9.227   7.092   6.137
   55POPC   C1B  970   9.669   7.012   7.268
   55POPC   C2B  971   9.443   6.900   6.905
   55POPC   C3B  972   9.545   7.079   6.546
   55POPC   C4B  973   9.795   7.018   6.224
   56POPC   NC3  974  10.104   7.634   8.050
   56POPC   PO4  975  10.448   8.195   8.263
   56POPC   GL1  976  10.382   8.003   7.820
   56POPC   GL2  977  10.123   7.933   7.662
   56POPC   C1A  978  10.395   7.793   7.304
   56POPC   D2A  979   0.050   7.925   6.962
   56POPC   C3A  980  10.303   7.768   6.693
   56POPC   C4A  981  10.363   7.788   6.299
   56POPC   C1B  982   9.940   8.004   7.290
   56POPC   C2B  983  10.037   8.140   6.912
   56POPC   C3B  984   9.884   7.958   6.495
   56POPC   C4B  985   9.801   7.878   6.090
   57POPC   NC3  986   1.626   3.033   8.375
   57POPC   PO4  987   0.945   3.093   8.094
   57POPC   GL1  988   0.988   3.366   7.724
   57POPC   GL2  989   1.351   3.474   7.696
   57POPC   C1A  990   1.083   3.298   7.289
   57POPC   D2A  991   1.303   3.211   6.924
   57POPC   C3A  992   1.047   3.280   6.575
   57POPC   C4A  993   1.164   3.401   6.164
   57POPC   C1B  994   1.299   3.754   7.330
   57POPC   C2B  995   1.089   3.808   6.952
   57POPC   C3B  996   1.207   3.756   6.545
   57POPC   C4B  997   1.490   3.799   6.201
   58POPC   NC3  998  10.134   3.564   8.006
   58POPC   PO4  999   9.873   2.999   8.161
   58POPC   GL1 1000   9.979   3.083   7.708
   58POPC   GL2 1001  10.140   3.377   7.531
   58POPC   C1A 1002   9.985   2.952   7.274
   58POPC   D2A 1003   9.791   3.083   6.882
   58POPC   C3A 1004  10.048   3.083   6.536
   58POPC   C4A 1005   9.988   3.200   6.117
   58POPC   C1B 1006  10.090   3.615   7.159
   58POPC   C2B 1007  10.267   3.457   6.803
   58POPC   C3B 1008  10.288   3.512   6.375
   58POPC   C4B 1009  10.070   3.694   6.028
   59POPC   NC3 1010   7.222   7.879   8.431
   59POPC   PO4 1011   7.259   7.984   7.877
   59POPC   GL1 1012   7.123   7.984   7.543
   59POPC   GL2 1013   7.018   8.333   7.494
   59POPC   C1A 1014   7.127   7.730   7.233
   59POPC   D2A 1015   7.370   7.610   6.905
   59POPC   C3A 1016   7.194   7.687   6.476
   59POPC   C4A 1017   7.301   7.678   5.995
   59POPC   C1B 1018   7.328   8.273   7.209
   59POPC   C2B 1019   7.174   8.086   6.869
   59POPC   C3B 1020   7.185   8.194   6.507
   59POPC   C4B 1021   7.022   8.055   6.135
   60POPC   NC3 1022   2.829   6.653   8.138
   60POPC   PO4 1023   3.014   5.955   7.977
   60POPC   GL1 1024   2.806   6.254   7.672
   60POPC   GL2 1025   2.522   6.454   7.771
   60POPC   C1A 1026   2.883   6.366   7.222
   60POPC   D2A 1027   3.175   6.249   6.861
   60POPC   C3A 1028   3.029   6.365   6.426
   60POPC   C4A 1029   3.035   6.127   6.002
   60POPC   C1B 1030   2.348   6.292   7.369
   60POPC   C2B 1031   2.257   6.222   6.928
   60POPC   C3B 1032   2.437   6.414   6.533
   60POPC   C4B 1033   2.584   6.367   6.109
   61POPC   NC3 1034   8.166   4.235   7.972
   61POPC   PO4 1035   7.705   3.813   8.226
   61POPC   GL1 1036   7.701   3.782   7.785
   61POPC   GL2 1037   7.766   4.079   7.635
   61POPC   C1A 1038   7.675   3.712   7.310
   61POPC   D2A 1039   7.662   3.907   6.865
   61POPC   C3A 1040   7.968   3.895   6.530
   61POPC   C4A 1041   8.177   4.159   6.208
   61POPC   C1B 1042   7.980   4.152   7.233
   61POPC   C2B 1043   8.012   4.317   6.798
   61POPC   C3B 1044   7.821   4.447   6.402
   61POPC   C4B 1045   7.501   4.511   6.104
   62POPC   NC3 1046   0.166   0.439   7.921
   62POPC   PO4 1047   0.654   0.064   8.019
   62POPC   GL1 1048   0.590   0.238   7.626
   62POPC   GL2 1049   0.637   0.586   7.776
   62POPC   C1A 1050   0.352   0.113   7.217
   62POPC   D2A 1051   0.308   0.172   6.721
   62POPC   C3A 1052   0.275  10.450   6.319
   62POPC   C4A 1053   0.583   0.067   6.019
   62POPC   C1B 1054   0.478   0.666   7.367
   62POPC   C2B 1055   0.594   0.528   6.971
   62POPC   C3B 1056   0.561   0.635   6.570
   62POPC   C4B 1057   0.333   0.435   6.266
   63POPC   NC3 1058   0.223   4.451   8.372
   63POPC   PO4 1059   0.407   3.900   8.103
   63POPC   GL1 1060   0.592   4.104   7.769
   63POPC   GL2 1061   0.472   4.413   7.719
   63POPC   C1A 1062   0.397   4.076   7.324
   63POPC   D2A 1063   0.503   3.962   6.912
   63POPC   C3A 1064   0.326   4.075   6.508
   63POPC   C4A 1065   0.507   4.055   6.102
   63POPC   C1B 1066   0.630   4.547   7.341
   63POPC   C2B 1067   0.447   4.502   6.943
   63POPC   C3B 1068   0.530   4.587   6.530
   63POPC   C4B 1069   0.748   4.486   6.164
   64POPC   NC3 1070   3.947   0.656   8.119
   64POPC   PO4 1071   3.940   0.018   8.072
   64POPC   GL1 1072   3.905   0.286   7.748
   64POPC   GL2 1073   4.267   0.361   7.733
   64POPC   C1A 1074   3.905   0.180   7.329
   64POPC   D2A 1075   3.712   0.335   6.965
   64POPC   C3A 1076   3.854   0.254   6.551
   64POPC   C4A 1077   3.859   0.590   6.287
   64POPC   C1B 1078   4.425   0.162   7.342
   64POPC   C2B 1079   4.228   0.245   6.947
   64POPC   C3B 1080   4.203   0.591   6.683
   64POPC   C4B 1081   4.326   0.368   6.306
   65POPC   NC3 1082   4.955   9.484   8.220
   65POPC   PO4 1083   4.464   9.066   8.248
   65POPC   GL1 1084   4.789   9.289   7.801
   65POPC   GL2 1085   5.005   9.664   7.755
   65POPC   C1A 1086   5.079   9.348   7.396
   65POPC   D2A 1087   4.917   9.462   6.997
   65POPC   C3A 1088   5.181   9.473   6.666
   65POPC   C4A 1089   5.135   9.553   6.281
   65POPC   C1B 1090   4.680   9.672   7.425
   65POPC   C2B 1091   4.484   9.776   7.007
   65POPC   C3B 1092   4.527   9.606   6.607
   65POPC   C4B 1093   4.700   9.322   6.330
   66POPC   NC3 1094   2.725   5.134   8.095
   66POPC   PO4 1095   2.965   4.558   8.013
   66POPC   GL1 1096   2.755   4.781   7.712
   66POPC   GL2 1097   2.419   4.767   7.810
   66POPC   C1A 1098   2.675   5.043   7.356
   66POPC   D2A 1099   2.785   5.368   7.081
   66POPC   C3A 1100   2.857   5.110   6.710
   66POPC   C4A 1101   2.761   5.158   6.293
   66POPC   C1B 1102   2.442   4.579   7.373
   66POPC   C2B 1103   2.633   4.678   6.971
   66POPC   C3B 1104   2.671   4.640   6.517
   66POPC   C4B 1105   2.924   4.694   6.159
   67POPC   NC3 1106   8.805   8.416   8.011
   67POPC   PO4 1107   9.023   9.061   8.082
   67POPC   GL1 1108   8.987   8.763   7.687
   67POPC   GL2 1109   8.770   8.527   7.531
   67POPC   C1A 1110   9.151   8.727   7.260
   67POPC   D2A 1111   9.057   8.363   7.015
   67POPC   C3A 1112   9.065   8.527   6.609
   67POPC   C4A 1113   9.000   8.381   6.214
   67POPC   C1B 1114   8.552   8.683   7.220
   67POPC   C2B 1115   8.587   8.557   6.823
   67POPC   C3B 1116   8.626   8.694   6.390
   67POPC   C4B 1117   8.495   8.434   6.030
   68POPC   NC3 1118   5.241   0.529   7.809
   68POPC   PO4 1119   4.908   0.034   8.071
   68POPC   GL1 1120   4.800   0.284   7.678
   68POPC   GL2 1121   4.727   0.626   7.731
   68POPC   C1A 1122   5.009   0.335   7.251
   68POPC   D2A 1123   5.210   0.528   6.908
   68POPC   C3A 1124   5.099   0.390   6.596
   68POPC   C4A 1125   5.056   0.369   6.207
   68POPC   C1B 1126   4.615   0.664   7.292
   68POPC   C2B 1127   4.678   0.465   6.888
   68POPC   C3B 1128   4.671   0.670   6.518
   68POPC   C4B 1129   4.715   0.724   6.131
   69POPC   NC3 1130   9.374   5.440   7.977
   69POPC   PO4 1131   9.784   5.976   8.196
   69POPC   GL1 1132   9.726   5.832   7.759
   69POPC   GL2 1133   9.377   5.779   7.603
   69POPC   C1A 1134   9.750   6.011   7.346
   69POPC   D2A 1135   9.424   5.916   7.051
   69POPC   C3A 1136   9.585   5.951   6.641
   69POPC   C4A 1137   9.442   5.959   6.254
   69POPC   C1B 1138   9.363   5.443   7.308
   69POPC   C2B 1139   9.188   5.386   6.905
   69POPC   C3B 1140   9.182   5.590   6.539
   69POPC   C4B 1141   9.197   5.377   6.152
   70POPC   NC3 1142   4.274   2.854   7.889
   70POPC   PO4 1143   3.830   2.351   8.032
   70POPC   GL1 1144   3.957   2.550   7.643
   70POPC   GL2 1145   3.858   2.888   7.586
   70POPC   C1A 1146   4.255   2.493   7.279
   70POPC   D2A 1147   4.472   2.674   6.893
   70POPC   C3A 1148   4.227   2.787   6.500
   70POPC   C4A 1149   4.189   2.630   6.077
   70POPC   C1B 1150   3.774   2.662   7.183
   70POPC   C2B 1151   3.769   2.636   6.699
   70POPC   C3B 1152   3.702   2.767   6.256
   70POPC   C4B 1153   3.827   2.898   5.809
   71POPC   NC3 1154   6.929   6.924   8.471
   71POPC   PO4 1155   7.487   6.799   8.136
   71POPC   GL1 1156   7.540   6.686   7.727
   71POPC   GL2 1157   7.352   6.413   7.689
   71POPC   C1A 1158   7.363   6.808   7.320
   71POPC   D2A 1159   7.118   6.774   6.956
   71POPC   C3A 1160   7.300   6.807   6.554
   71POPC   C4A 1161   7.118   6.554   6.232
   71POPC   C1B 1162   7.202   6.330   7.245
   71POPC   C2B 1163   7.139   6.271   6.800
   71POPC   C3B 1164   7.042   6.076   6.404
   71POPC   C4B 1165   7.290   6.058   6.037
   72POPC   NC3 1166   1.095   5.707   8.053
   72POPC   PO4 1167   1.547   6.171   8.065
   72POPC   GL1 1168   1.587   5.860   7.737
   72POPC   GL2 1169   1.379   5.536   7.680
   72POPC   C1A 1170   1.499   5.831   7.305
   72POPC   D2A 1171   1.462   5.591   6.972
   72POPC   C3A 1172   1.496   5.879   6.594
   72POPC   C4A 1173   1.355   5.782   6.181
   72POPC   C1B 1174   1.035   5.572   7.355
   72POPC   C2B 1175   1.020   5.362   6.943
   72POPC   C3B 1176   1.109   5.537   6.559
   72POPC   C4B 1177   0.948   5.420   6.155
   73POPC   NC3 1178   3.589  10.223   8.127
   73POPC   PO4 1179   3.080   9.857   7.901
   73POPC   GL1 1180   3.411  10.026   7.644
   73POPC   GL2 1181   3.570  10.366   7.641
   73POPC   C1A 1182   3.398   9.931   7.223
   73POPC   D2A 1183   3.488   9.642   6.914
   73POPC   C3A 1184   3.428   9.897   6.620
   73POPC   C4A 1185   3.206  10.086   6.350
   73POPC   C1B 1186   3.474  10.435   7.220
   73POPC   C2B 1187   3.596  10.370   6.799
   73POPC   C3B 1188   3.739  10.291   6.395
   73POPC   C4B 1189   3.708   9.955   6.197
   74POPC   NC3 1190   0.230   8.406   7.957
   74POPC   PO4 1191   0.785   8.739   8.081
   74POPC   GL1 1192   0.692   8.485   7.750
   74POPC   GL2 1193   0.478   8.757   7.612
   74POPC   C1A 1194   0.826   8.481   7.342
   74POPC   D2A 1195   0.643   8.719   7.003
   74POPC   C3A 1196   0.764   8.586   6.612
   74POPC   C4A 1197   0.644   8.588   6.210
   74POPC   C1B 1198   0.177   8.856   7.282
   74POPC   C2B 1199   0.169   8.845   6.848
   74POPC   C3B 1200   0.232   8.587   6.524
   74POPC   C4B 1201   0.079   8.537   6.140
   75POPC   NC3 1202   1.159   6.432   7.984
   75POPC   PO4 1203   0.951   6.967   8.177
   75POPC   GL1 1204   1.203   6.894   7.738
   75POPC   GL2 1205   1.044   6.615   7.523
   75POPC   C1A 1206   1.456   6.736   7.309
   75POPC   D2A 1207   1.207   6.539   6.949
   75POPC   C3A 1208   1.419   6.556   6.523
   75POPC   C4A 1209   1.308   6.481   6.089
   75POPC   C1B 1210   1.102   6.183   7.360
   75POPC   C2B 1211   1.114   5.966   6.970
   75POPC   C3B 1212   1.065   6.164   6.570
   75POPC   C4B 1213   0.958   6.111   6.161
   76POPC   NC3 1214   0.074   4.150   7.893
   76POPC   PO4 1215  10.068   4.425   8.248
   76POPC   GL1 1216  10.053   4.178   7.822
   76POPC   GL2 1217  10.082   3.886   7.632
   76POPC   C1A 1218   9.939   4.300   7.377
   76POPC   D2A 1219  10.125   4.341   6.952
   76POPC   C3A 1220   9.895   4.407   6.592
   76POPC   C4A 1221  10.080   4.431   6.203
   76POPC   C1B 1222  10.368   4.028   7.294
   76POPC   C2B 1223  10.460   3.937   6.859
   76POPC   C3B 1224  10.281   4.017   6.445
   76POPC   C4B 1225  10.463   4.027   6.025
   77POPC   NC3 1226   1.900   5.827   8.180
   77POPC   PO4 1227   1.484   5.340   8.143
   77POPC   GL1 1228   1.853   5.428   7.822
   77POPC   GL2 1229   2.102   5.692   7.744
   77POPC   C1A 1230   1.810   5.405   7.375
   77POPC   D2A 1231   1.921   5.333   6.943
   77POPC   C3A 1232   1.687   5.402   6.569
   77POPC   C4A 1233   1.829   5.475   6.166
   77POPC   C1B 1234   2.025   5.886   7.352
   77POPC   C2B 1235   1.865   5.895   6.945
   77POPC   C3B 1236   2.021   5.796   6.543
   77POPC   C4B 1237   2.221   6.025   6.245
   78POPC   NC3 1238   8.462   3.316   7.948
   78POPC   PO4 1239   9.096   3.087   7.977
   78POPC   GL1 1240   8.867   3.310   7.667
   78POPC   GL2 1241   8.906   3.640   7.724
   78POPC   C1A 1242   8.692   3.493   7.282
   78POPC   D2A 1243   8.575   3.270   6.910
   78POPC   C3A 1244   8.739   3.361   6.479
   78POPC   C4A 1245   8.477   3.301   6.090
   78POPC   C1B 1246   9.130   3.820   7.367
   78POPC   C2B 1247   8.916   3.973   6.996
   78POPC   C3B 1248   8.946   3.880   6.558
   78POPC   C4B 1249   8.977   3.704   6.158
   79POPC   NC3 1250   9.814   4.075   8.517
   79POPC   PO4 1251   9.248   4.365   8.158
   79POPC   GL1 1252   9.299   4.188   7.752
   79POPC   GL2 1253   9.557   4.011   7.723
   79POPC   C1A 1254   9.432   4.335   7.346
   79POPC   D2A 1255   9.262   4.340   6.935
   79POPC   C3A 1256   9.398   4.503   6.555
   79POPC   C4A 1257   9.254   4.241   6.207
   79POPC   C1B 1258   9.658   3.860   7.349
   79POPC   C2B 1259   9.691   4.055   6.968
   79POPC   C3B 1260   9.486   3.978   6.593
   79POPC   C4B 1261   9.757   4.027   6.256
   80POPC   NC3 1262   6.211   6.784   7.789
   80POPC   PO4 1263   6.749   7.151   8.092
   80POPC   GL1 1264   6.655   7.096   7.660
   80POPC   GL2 1265   6.395   7.340   7.647
   80POPC   C1A 1266   6.659   6.880   7.237
   80POPC   D2A 1267   6.666   6.954   6.782
   80POPC   C3A 1268   6.557   6.675   6.417
   80POPC   C4A 1269   6.226   6.749   6.091
   80POPC   C1B 1270   6.584   7.412   7.247
   80POPC   C2B 1271   6.390   7.365   6.872
   80POPC   C3B 1272   6.275   7.146   6.494
   80POPC   C4B 1273   6.043   7.357   6.198
   81POPC   NC3 1274   0.600   1.114   8.314
   81POPC   PO4 1275  10.487   0.799   8.147
   81POPC   GL1 1276   0.062   0.914   7.708
   81POPC   GL2 1277   0.409   1.060   7.731
   81POPC   C1A 1278   0.079   0.952   7.248
   81POPC   D2A 1279   0.442   1.021   6.971
   81POPC   C3A 1280   0.413   1.113   6.545
   81POPC   C4A 1281   0.410   0.904   6.150
   81POPC   C1B 1282   0.305   1.356   7.387
   81POPC   C2B 1283   0.184   1.486   6.936
   81POPC   C3B 1284   0.305   1.585   6.454
   81POPC   C4B 1285   0.542   1.368   6.100
   82POPC   NC3 1286   9.283   6.275   8.155
   82POPC   PO4 1287   8.878   6.851   7.907
   82POPC   GL1 1288   9.004   6.383   7.729
   82POPC   GL2 1289   9.383   6.275   7.662
   82POPC   C1A 1290   9.023   6.202   7.307
   82POPC   D2A 1291   9.017   6.452   6.938
   82POPC   C3A 1292   9.153   6.292   6.546
   82POPC   C4A 1293   9.179   6.671   6.379
   82POPC   C1B 1294   9.412   6.522   7.297
   82POPC   C2B 1295   9.559   6.407   6.898
   82POPC   C3B 1296   9.641   6.445   6.460
   82POPC   C4B 1297   9.946   6.183   6.289
   83POPC   NC3 1298   9.486   0.588   7.932
   83POPC   PO4 1299   8.993   0.273   8.220
   83POPC   GL1 1300   9.166   0.230   7.747
   83POPC   GL2 1301   9.504   0.253   7.564
   83POPC   C1A 1302   9.105   0.433   7.309
   83POPC   D2A 1303   9.322   0.345   6.900
   83POPC   C3A 1304   9.135   0.455   6.509
   83POPC   C4A 1305   9.010   0.854   6.422
   83POPC   C1B 1306   9.619   0.606   7.286
   83POPC   C2B 1307   9.655   0.744   6.863
   83POPC   C3B 1308   9.626   0.666   6.422
   83POPC   C4B 1309   9.499   0.289   6.182
   84POPC   NC3 1310   7.167   7.037   7.893
   84POPC   PO4 1311   7.486   7.496   8.304
   84POPC   GL1 1312   7.351   7.493   7.796
   84POPC   GL2 1313   7.020   7.458   7.640
   84POPC   C1A 1314   7.489   7.360   7.371
   84POPC   D2A 1315   7.545   7.118   6.967
   84POPC   C3A 1316   7.587   7.308   6.572
   84POPC   C4A 1317   7.326   7.244   6.259
   84POPC   C1B 1318   7.046   7.228   7.191
   84POPC   C2B 1319   7.065   7.248   6.720
   84POPC   C3B 1320   6.876   7.050   6.327
   84POPC   C4B 1321   6.770   6.784   5.928
   85POPC   NC3 1322   7.873   1.757   8.197
   85POPC   PO4 1323   8.383   2.068   8.378
   85POPC   GL1 1324   8.090   2.006   7.823
   85POPC   GL2 1325   7.791   1.770   7.700
   85POPC   C1A 1326   8.110   1.827   7.326
   85POPC   D2A 1327   8.211   1.803   6.854
   85POPC   C3A 1328   7.984   1.622   6.477
   85POPC   C4A 1329   8.112   1.577   6.007
   85POPC   C1B 1330   7.675   2.078   7.374
   85POPC   C2B 1331   7.827   2.149   6.964
   85POPC   C3B 1332   7.872   2.113   6.558
   85POPC   C4B 1333   8.039   2.046   6.197
   86POPC   NC3 1334   7.306   9.289   8.266
   86POPC   PO4 1335   7.574   9.900   8.288
   86POPC   GL1 1336   7.472   9.388   7.826
   86POPC   GL2 1337   7.106   9.375   7.784
   86POPC   C1A 1338   7.365   9.209   7.372
   86POPC   D2A 1339   7.343   8.957   6.981
   86POPC   C3A 1340   7.347   9.172   6.602
   86POPC   C4A 1341   7.474   9.045   6.182
   86POPC   C1B 1342   6.844   9.300   7.391
   86POPC   C2B 1343   6.910   9.242   6.941
   86POPC   C3B 1344   6.911   9.435   6.498
   86POPC   C4B 1345   7.323   9.586   6.290
   87POPC   NC3 1346   6.982   1.118   8.166
   87POPC   PO4 1347   7.466   1.554   8.138
   87POPC   GL1 1348   7.252   1.319   7.747
   87POPC   GL2 1349   6.940   1.168   7.681
   87POPC   C1A 1350   7.279   1.177   7.321
   87POPC   D2A 1351   7.299   1.109   6.905
   87POPC   C3A 1352   7.119   1.362   6.586
   87POPC   C4A 1353   7.165   1.351   6.138
   87POPC   C1B 1354   6.871   0.842   7.366
   87POPC   C2B 1355   6.945   0.706   6.943
   87POPC   C3B 1356   7.126   0.816   6.530
   87POPC   C4B 1357   6.847   1.008   6.301
   88POPC   NC3 1358   2.540   0.912   8.123
   88POPC   PO4 1359   3.168   0.972   8.138
   88POPC   GL1 1360   3.058   1.224   7.733
   88POPC   GL2 1361   2.743   1.116   7.688
   88POPC   C1A 1362   3.045   1.398   7.306
   88POPC   D2A 1363   3.004   1.149   6.957
   88POPC   C3A 1364   2.856   1.245   6.555
   88POPC   C4A 1365   3.017   1.094   6.201
   88POPC   C1B 1366   2.583   1.132   7.277
   88POPC   C2B 1367   2.482   1.333   6.886
   88POPC   C3B 1368   2.321   1.157   6.509
   88POPC   C4B 1369   2.476   1.043   6.103
   89POPC   NC3 1370   0.496   9.107   8.013
   89POPC   PO4 1371   0.436   9.774   7.965
   89POPC   GL1 1372   0.615   9.444   7.667
   89POPC   GL2 1373   0.307   9.312   7.578
   89POPC   C1A 1374   0.636   9.160   7.251
   89POPC   D2A 1375   0.407   9.279   6.842
   89POPC   C3A 1376   0.507   9.027   6.481
   89POPC   C4A 1377   0.533   9.035   6.003
   89POPC   C1B 1378   0.456   9.639   7.262
   89POPC   C2B 1379   0.342   9.779   6.914
   89POPC   C3B 1380   0.479   9.753   6.540
   89POPC   C4B 1381   0.333   9.455   6.260
   90POPC   NC3 1382   5.655   9.033   8.040
   90POPC   PO4 1383   5.396   9.677   8.122
   90POPC   GL1 1384   5.516   9.509   7.714
   90POPC   GL2 1385   5.865   9.484   7.765
   90POPC   C1A 1386   5.569   9.184   7.372
   90POPC   D2A 1387   5.326   9.090   6.980
   90POPC   C3A 1388   5.551   9.116   6.582
   90POPC   C4A 1389   5.726   9.340   6.234
   90POPC   C1B 1390   5.902   9.595   7.337
   90POPC   C2B 1391   5.604   9.545   7.001
   90POPC   C3B 1392   5.671   9.660   6.616
   90POPC   C4B 1393   6.029   9.777   6.333
   91POPC   NC3 1394   3.799   2.792   8.155
   91POPC   PO4 1395   3.127   3.094   8.264
   91POPC   GL1 1396   3.429   3.015   7.884
   91POPC   GL2 1397   3.450   2.637   7.800
   91POPC   C1A 1398   3.390   2.971   7.412
   91POPC   D2A 1399   3.071   2.884   7.111
   91POPC   C3A 1400   3.167   2.857   6.665
   91POPC   C4A 1401   3.202   2.964   6.261
   91POPC   C1B 1402   3.310   2.443   7.406
   91POPC   C2B 1403   3.347   2.477   6.963
   91POPC   C3B 1404   3.361   2.395   6.522
   91POPC   C4B 1405   3.300   2.474   6.121
   92POPC   NC3 1406   1.839   8.199   8.116
   92POPC   PO4 1407   1.754   7.562   8.187
   92POPC   GL1 1408   1.631   7.809   7.787
   92POPC   GL2 1409   1.719   8.111   7.623
   92POPC   C1A 1410   1.702   7.662   7.332
   92POPC   D2A 1411   1.685   7.910   6.956
   92POPC   C3A 1412   1.689   7.767   6.518
   92POPC   C4A 1413   1.677   8.198   6.304
   92POPC   C1B 1414   2.082   7.977   7.376
   92POPC   C2B 1415   2.160   7.768   6.964
   92POPC   C3B 1416   2.105   8.042   6.613
   92POPC   C4B 1417   2.110   7.849   6.231
   93POPC   NC3 1418   7.731   7.759   7.966
   93POPC   PO4 1419   8.182   8.218   8.146
   93POPC   GL1 1420   8.024   8.072   7.726
   93POPC   GL2 1421   7.689   8.168   7.633
   93POPC   C1A 1422   8.117   7.893   7.315
   93POPC   D2A 1423   8.168   8.116   6.915
   93POPC   C3A 1424   8.162   7.977   6.514
   93POPC   C4A 1425   8.071   8.183   6.164
   93POPC   C1B 1426   7.618   7.862   7.310
   93POPC   C2B 1427   7.676   8.016   6.914
   93POPC   C3B 1428   7.655   7.882   6.515
   93POPC   C4B 1429   7.545   8.109   6.180
   94POPC   NC3 1430   0.567   7.524   7.947
   94POPC   PO4 1431   0.337   6.921   7.830
   94POPC   GL1 1432   0.679   6.942   7.622
   94POPC   GL2 1433   0.574   7.264   7.503
   94POPC   C1A 1434   0.784   6.936   7.182
   94POPC   D2A 1435   0.486   7.173   6.975
   94POPC   C3A 1436   0.486   7.035   6.600
   94POPC   C4A 1437   0.712   7.148   6.249
   94POPC   C1B 1438   0.129   7.220   7.337
   94POPC   C2B 1439  10.438   7.379   7.006
   94POPC   C3B 1440   0.203   7.480   6.657
   94POPC   C4B 1441   0.219   7.303   6.252
   95POPC   NC3 1442   2.203   7.431   8.090
   95POPC   PO4 1443   1.650   6.923   8.011
   95POPC   GL1 1444   1.711   7.076   7.614
   95POPC   GL2 1445   1.866   7.366   7.704
   95POPC   C1A 1446   1.720   7.176   7.173
   95POPC   D2A 1447   1.670   6.893   6.849
   95POPC   C3A 1448   1.608   7.056   6.471
   95POPC   C4A 1449   1.677   6.831   6.120
   95POPC   C1B 1450   2.205   7.450   7.412
   95POPC   C2B 1451   2.244   7.153   7.092
   95POPC   C3B 1452   2.030   7.259   6.724
   95POPC   C4B 1453   2.020   7.323   6.279
   96POPC   NC3 1454   4.151   3.618   7.962
   96POPC   PO4 1455   4.622   3.153   7.915
   96POPC   GL1 1456   4.491   3.409   7.568
   96POPC   GL2 1457   4.187   3.309   7.553
   96POPC   C1A 1458   4.415   3.446   7.099
   96POPC   D2A 1459   4.530   3.155   6.770
   96POPC   C3A 1460   4.438   3.300   6.362
   96POPC   C4A 1461   4.195   3.664   6.259
   96POPC   C1B 1462   4.250   3.000   7.270
   96POPC   C2B 1463   4.072   2.988   6.931
   96POPC   C3B 1464   3.983   3.264   6.627
   96POPC   C4B 1465   3.974   3.196   6.200
   97POPC   NC3 1466   4.966   2.846   7.973
   97POPC   PO4 1467   4.424   2.421   7.973
   97POPC   GL1 1468   4.622   2.569   7.618
   97POPC   GL2 1469   4.942   2.466   7.622
   97POPC   C1A 1470   4.746   2.877   7.286
   97POPC   D2A 1471   5.031   2.941   6.912
   97POPC   C3A 1472   4.856   2.784   6.564
   97POPC   C4A 1473   4.639   2.823   6.216
   97POPC   C1B 1474   5.146   2.569   7.247
   97POPC   C2B 1475   5.169   2.418   6.803
   97POPC   C3B 1476   5.264   2.527   6.386
   97POPC   C4B 1477   5.280   2.982   6.339
   98POPC   NC3 1478   1.837   6.528   8.132
   98POPC   PO4 1479   2.241   6.122   8.100
   98POPC   GL1 1480   1.990   6.215   7.750
   98POPC   GL2 1481   2.017   6.588   7.671
   98POPC   C1A 1482   1.712   6.286   7.392
   98POPC   D2A 1483   1.696   6.394   6.956
   98POPC   C3A 1484   1.902   6.317   6.567
   98POPC   C4A 1485   1.714   6.186   6.195
   98POPC   C1B 1486   1.979   6.723   7.258
   98POPC   C2B 1487   2.134   6.711   6.851
   98POPC   C3B 1488   2.091   6.816   6.439
   98POPC   C4B 1489   2.096   6.534   6.092
   99POPC   NC3 1490   1.327   2.899   7.885
   99POPC   PO4 1491   0.945   2.237   8.000
   99POPC   GL1 1492   1.007   2.506   7.659
   99POPC   GL2 1493   0.889   2.848   7.636
   99POPC   C1A 1494   0.956   2.321   7.272
   99POPC   D2A 1495   1.133   2.321   6.880
   99POPC   C3A 1496   0.980   2.409   6.471
   99POPC   C4A 1497   1.097   2.525   6.010
   99POPC   C1B 1498   1.117   2.790   7.232
   99POPC   C2B 1499   1.049   2.808   6.787
   99POPC   C3B 1500   1.263   2.845   6.435
   99POPC   C4B 1501   0.892   2.913   6.235
  100POPC   NC3 1502   8.041  10.289   8.158
  100POPC   PO4 1503   8.305   9.743   7.944
  100POPC   GL1 1504   8.032  10.056   7.698
  100POPC   GL2 1505   7.678  10.226   7.665
  100POPC   C1A 1506   8.049  10.249   7.323
  100POPC   D2A 1507   8.064  10.028   6.920
  100POPC   C3A 1508   8.151  10.229   6.529
  100POPC   C4A 1509   7.910  10.292   6.156
  100POPC   C1B 1510   7.602  10.039   7.218
  100POPC   C2B 1511   7.568  10.042   6.773
  100POPC   C3B 1512   7.752   9.898   6.435
  100POPC   C4B 1513   7.667   9.863   6.005
  101POPC   NC3 1514   2.013   1.346   8.088
  101POPC   PO4 1515   1.929   2.052   8.094
  101POPC   GL1 1516   1.787   1.959   7.681
  101POPC   GL2 1517   1.965   2.272   7.626
  101POPC   C1A 1518   1.703   1.713   7.274
  101POPC   D2A 1519   1.981   1.784   6.874
  101POPC   C3A 1520   2.127   1.682   6.450
  101POPC   C4A 1521   1.881   1.651   5.994
  101POPC   C1B 1522   1.951   2.153   7.228
  101POPC   C2B 1523   1.867   2.353   6.891
  101POPC   C3B 1524   1.989   2.307   6.506
  101POPC   C4B 1525   1.851   2.057   6.256
  102POPC   NC3 1526   0.627   3.483   8.099
  102POPC   PO4 1527  10.495   3.321   7.881
  102POPC   GL1 1528   0.072   3.678   7.650
  102POPC   GL2 1529   0.423   3.637   7.651
  102POPC   C1A 1530   0.155   3.606   7.216
  102POPC   D2A 1531   0.230   3.250   6.978
  102POPC   C3A 1532   0.251   3.438   6.592
  102POPC   C4A 1533   0.249   3.632   6.216
  102POPC   C1B 1534   0.684   3.620   7.299
  102POPC   C2B 1535   0.693   3.505   6.873
  102POPC   C3B 1536   0.703   3.674   6.474
  102POPC   C4B 1537   0.671   3.358   6.215
  103POPC   NC3 1538   0.370  10.222   8.126
  103POPC   PO4 1539   1.091  10.235   8.145
  103POPC   GL1 1540   0.852  10.258   7.680
  103POPC   GL2 1541   0.510  10.214   7.648
  103POPC   C1A 1542   0.764  10.062   7.241
  103POPC   D2A 1543   0.524  10.243   6.904
  103POPC   C3A 1544   0.712  10.333   6.518
  103POPC   C4A 1545   0.643  10.085   6.189
  103POPC   C1B 1546   0.213  10.081   7.364
  103POPC   C2B 1547  10.487  10.123   7.008
  103POPC   C3B 1548   0.072  10.104   6.615
  103POPC   C4B 1549   0.131   9.950   6.223
  104POPC   NC3 1550   7.730   1.279   7.879
  104POPC   PO4 1551   8.268   0.956   8.124
  104POPC   GL1 1552   8.138   1.015   7.674
  104POPC   GL2 1553   7.995   1.338   7.461
  104POPC   C1A 1554   8.260   0.985   7.247
  104POPC   D2A 1555   8.154   1.269   6.881
  104POPC   C3A 1556   8.120   1.141   6.466
  104POPC   C4A 1557   8.001   1.063   6.074
  104POPC   C1B 1558   7.762   1.031   7.198
  104POPC   C2B 1559   7.750   0.935   6.754
  104POPC   C3B 1560   7.606   1.245   6.446
  104POPC   C4B 1561   7.635   1.500   6.077
  105POPC   NC3 1562   6.916   9.990   7.912
  105POPC   PO4 1563   6.247   9.678   8.045
  105POPC   GL1 1564   6.233   9.921   7.697
  105POPC   GL2 1565   6.469  10.187   7.745
  105POPC   C1A 1566   6.115  10.066   7.291
  105POPC   D2A 1567   6.124   9.892   6.883
  105POPC   C3A 1568   6.163  10.227   6.605
  105POPC   C4A 1569   6.322  10.241   6.221
  105POPC   C1B 1570   6.699  10.237   7.345
  105POPC   C2B 1571   6.694  10.062   6.936
  105POPC   C3B 1572   6.697  10.289   6.596
  105POPC   C4B 1573   6.735   0.032   6.252
  106POPC   NC3 1574   4.730   2.078   7.914
  106POPC   PO4 1575   5.280   1.744   8.073
  106POPC   GL1 1576   5.099   1.828   7.662
  106POPC   GL2 1577   5.188   1.495   7.581
  106POPC   C1A 1578   4.922   2.103   7.274
  106POPC   D2A 1579   4.650   2.206   6.896
  106POPC   C3A 1580   4.818   2.272   6.462
  106POPC   C4A 1581   4.686   2.351   6.013
  106POPC   C1B 1582   5.217   1.702   7.186
  106POPC   C2B 1583   5.042   1.892   6.814
  106POPC   C3B 1584   5.001   1.742   6.404
  106POPC   C4B 1585   5.065   2.024   6.090
  107POPC   NC3 1586  10.205   8.531   8.093
  107POPC   PO4 1587   9.748   8.985   8.111
  107POPC   GL1 1588   9.970   8.799   7.729
  107POPC   GL2 1589   9.985   8.434   7.648
  107POPC   C1A 1590  10.139   8.766   7.307
  107POPC   D2A 1591   9.962   8.837   6.933
  107POPC   C3A 1592  10.220   8.737   6.624
  107POPC   C4A 1593  10.077   8.732   6.224
  107POPC   C1B 1594  10.344   8.309   7.380
  107POPC   C2B 1595  10.446   8.416   6.952
  107POPC   C3B 1596  10.326   8.262   6.523
  107POPC   C4B 1597  10.173   8.226   6.130
  108POPC   NC3 1598   1.972   9.883   8.007
  108POPC   PO4 1599   1.547   9.366   8.243
  108POPC   GL1 1600   1.777   9.426   7.773
  108POPC   GL2 1601   2.020   9.140   7.681
  108POPC   C1A 1602   1.980   9.473   7.318
  108POPC   D2A 1603   1.766   9.535   6.921
  108POPC   C3A 1604   1.913   9.590   6.489
  108POPC   C4A 1605   1.644   9.588   6.146
  108POPC   C1B 1606   2.151   8.971   7.311
  108POPC   C2B 1607   2.115   9.119   6.921
  108POPC   C3B 1608   1.874   9.104   6.582
  108POPC   C4B 1609   1.951   9.172   6.174
  109POPC   NC3 1610   0.885   9.825   7.923
  109POPC   PO4 1611   1.530   9.983   8.013
  109POPC   GL1 1612   1.297  10.005   7.691
  109POPC   GL2 1613   1.344  10.308   7.611
  109POPC   C1A 1614   1.266   9.971   7.259
  109POPC   D2A 1615   1.287   9.762   6.903
  109POPC   C3A 1616   0.993   9.913   6.627
  109POPC   C4A 1617   1.156   9.811   6.256
  109POPC   C1B 1618   1.102  10.473   7.288
  109POPC   C2B 1619   1.059  10.371   6.883
  109POPC   C3B 1620   1.238  10.348   6.466
  109POPC   C4B 1621   1.080  10.498   6.066
  110POPC   NC3 1622   7.822   9.677   7.973
  110POPC   PO4 1623   8.112   9.132   8.297
  110POPC   GL1 1624   7.986   9.162   7.851
  110POPC   GL2 1625   8.282   9.299   7.681
  110POPC   C1A 1626   7.843   9.349   7.427
  110POPC   D2A 1627   7.687   9.566   7.062
  110POPC   C3A 1628   7.776   9.444   6.649
  110POPC   C4A 1629   7.818   9.417   6.225
  110POPC   C1B 1630   8.262   9.621   7.324
  110POPC   C2B 1631   8.214   9.529   6.920
  110POPC   C3B 1632   8.338   9.740   6.558
  110POPC   C4B 1633   8.178   9.821   6.155
  111POPC   NC3 1634   9.266   7.867   7.968
  111POPC   PO4 1635   9.919   8.149   8.061
  111POPC   GL1 1636   9.641   8.054   7.703
  111POPC   GL2 1637   9.675   7.689   7.686
  111POPC   C1A 1638   9.446   7.971   7.283
  111POPC   D2A 1639   9.571   8.019   6.885
  111POPC   C3A 1640   9.372   8.135   6.529
  111POPC   C4A 1641   9.276   7.963   6.133
  111POPC   C1B 1642   9.407   7.457   7.394
  111POPC   C2B 1643   9.340   7.400   6.954
  111POPC   C3B 1644   9.445   7.607   6.567
  111POPC   C4B 1645   9.545   7.469   6.176
  112POPC   NC3 1646   8.724   1.139   8.061
  112POPC   PO4 1647   8.148   1.483   7.932
  112POPC   GL1 1648   8.469   1.407   7.665
  112POPC   GL2 1649   8.825   1.481   7.694
  112POPC   C1A 1650   8.471   1.463   7.223
  112POPC   D2A 1651   8.646   1.540   6.813
  112POPC   C3A 1652   8.483   1.504   6.395
  112POPC   C4A 1653   8.579   1.456   5.962
  112POPC   C1B 1654   8.774   1.096   7.413
  112POPC   C2B 1655   8.689   1.029   6.991
  112POPC   C3B 1656   8.590   1.051   6.607
  112POPC   C4B 1657   8.541   0.999   6.190
  113POPC   NC3 1658   5.244   0.288   8.287
  113POPC   PO4 1659   5.583   0.796   7.973
  113POPC   GL1 1660   5.688   0.657   7.618
  113POPC   GL2 1661   5.825   0.338   7.684
  113POPC   C1A 1662   5.585   0.494   7.216
  113POPC   D2A 1663   5.703   0.654   6.781
  113POPC   C3A 1664   5.531   0.526   6.347
  113POPC   C4A 1665   5.425   0.757   5.954
  113POPC   C1B 1666   6.063   0.530   7.333
  113POPC   C2B 1667   6.029   0.306   6.968
  113POPC   C3B 1668   5.938   0.279   6.552
  113POPC   C4B 1669   6.010   0.693   6.323
  114POPC   NC3 1670   1.991   3.635   8.017
  114POPC   PO4 1671   2.111   3.017   8.286
  114POPC   GL1 1672   2.179   3.216   7.779
  114POPC   GL2 1673   1.925   3.453   7.574
  114POPC   C1A 1674   2.106   3.078   7.319
  114POPC   D2A 1675   1.906   3.046   6.943
  114POPC   C3A 1676   2.167   3.096   6.607
  114POPC   C4A 1677   2.174   3.394   6.326
  114POPC   C1B 1678   1.655   3.387   7.256
  114POPC   C2B 1679   1.600   3.623   6.870
  114POPC   C3B 1680   1.582   3.388   6.505
  114POPC   C4B 1681   1.727   3.156   6.184
  115POPC   NC3 1682   7.924   2.675   8.101
  115POPC   PO4 1683   7.610   2.108   8.036
  115POPC   GL1 1684   7.818   2.438   7.680
  115POPC   GL2 1685   7.984   2.831   7.646
  115POPC   C1A 1686   7.980   2.530   7.257
  115POPC   D2A 1687   7.748   2.682   6.924
  115POPC   C3A 1688   7.978   2.624   6.588
  115POPC   C4A 1689   7.792   2.525   6.228
  115POPC   C1B 1690   8.230   3.051   7.336
  115POPC   C2B 1691   8.113   3.039   6.936
  115POPC   C3B 1692   7.825   3.107   6.627
  115POPC   C4B 1693   8.032   2.999   6.241
  116POPC   NC3 1694   2.928   9.473   8.162
  116POPC   PO4 1695   2.257   9.523   7.993
  116POPC   GL1 1696   2.486   9.354   7.657
  116POPC   GL2 1697   2.743   9.558   7.657
  116POPC   C1A 1698   2.493   9.424   7.211
  116POPC   D2A 1699   2.295   9.608   6.855
  116POPC   C3A 1700   2.341   9.330   6.509
  116POPC   C4A 1701   2.439   9.275   6.085
  116POPC   C1B 1702   2.811   9.826   7.306
  116POPC   C2B 1703   2.969   9.762   6.927
  116POPC   C3B 1704   2.750   9.641   6.610
  116POPC   C4B 1705   2.832   9.606   6.225
  117POPC   NC3 1706   9.437   2.779   7.866
  117POPC   PO4 1707   9.556   2.259   8.299
  117POPC   GL1 1708   9.502   2.199   7.783
  117POPC   GL2 1709   9.273   2.409   7.556
  117POPC   C1A 1710   9.675   2.254   7.294
  117POPC   D2A 1711   9.454   2.315   6.915
  117POPC   C3A 1712   9.502   2.589   6.577
  117POPC   C4A 1713   9.261   2.614   6.192
  117POPC   C1B 1714   9.472   2.731   7.228
  117POPC   C2B 1715   9.262   2.965   6.936
  117POPC   C3B 1716   9.144   2.976   6.552
  117POPC   C4B 1717   9.558   3.079   6.390
  118POPC   NC3 1718   5.511   8.363   7.935
  118POPC   PO4 1719   5.997   8.726   8.166
  118POPC   GL1 1720   5.990   8.596   7.742
  118POPC   GL2 1721   5.669   8.733   7.621
  118POPC   C1A 1722   6.073   8.797   7.331
  118POPC   D2A 1723   5.848   8.949   6.977
  118POPC   C3A 1724   5.884   8.718   6.586
  118POPC   C4A 1725   6.006   8.895   6.202
  118POPC   C1B 1726   5.502   8.679   7.231
  118POPC   C2B 1727   5.452   8.527   6.819
  118POPC   C3B 1728   5.352   8.619   6.408
  118POPC   C4B 1729   5.654   8.531   6.124
  119POPC   NC3 1730   1.174   8.999   8.159
  119POPC   PO4 1731   1.443   8.448   8.131
  119POPC   GL1 1732   1.377   8.483   7.723
  119POPC   GL2 1733   1.152   8.713   7.720
  119POPC   C1A 1734   1.337   8.380   7.292
  119POPC   D2A 1735   1.510   8.371   6.881
  119POPC   C3A 1736   1.246   8.350   6.549
  119POPC   C4A 1737   1.242   8.556   6.208
  119POPC   C1B 1738   1.102   8.896   7.335
  119POPC   C2B 1739   1.149   8.733   6.960
  119POPC   C3B 1740   1.036   8.999   6.679
  119POPC   C4B 1741   0.963   8.972   6.270
  120POPC   NC3 1742   2.790  10.329   8.369
  120POPC   PO4 1743   2.627   0.445   8.203
  120POPC   GL1 1744   2.813   0.421   7.793
  120POPC   GL2 1745   3.032   0.691   7.710
  120POPC   C1A 1746   2.612   0.292   7.392
  120POPC   D2A 1747   2.673   0.077   7.006
  120POPC   C3A 1748   2.773   0.315   6.650
  120POPC   C4A 1749   2.788   0.210   6.225
  120POPC   C1B 1750   2.904   0.727   7.271
  120POPC   C2B 1751   2.651   0.796   6.889
  120POPC   C3B 1752   2.691   0.771   6.467
  120POPC   C4B 1753   2.373   0.519   6.322
  121POPC   NC3 1754   4.197   7.927   8.270
  121POPC   PO4 1755   4.551   7.378   8.132
  121POPC   GL1 1756   4.314   7.381   7.733
  121POPC   GL2 1757   4.037   7.136   7.690
  121POPC   C1A 1758   4.265   7.318   7.263
  121POPC   D2A 1759   4.476   7.411   6.861
  121POPC   C3A 1760   4.356   7.201   6.459
  121POPC   C4A 1761   4.616   6.908   6.194
  121POPC   C1B 1762   4.005   6.860   7.302
  121POPC   C2B 1763   4.087   7.001   6.868
  121POPC   C3B 1764   3.987   6.840   6.420
  121POPC   C4B 1765   4.150   7.011   6.017
  122POPC   NC3 1766   7.957   3.392   8.300
  122POPC   PO4 1767   8.486   3.782   7.992
  122POPC   GL1 1768   8.184   3.673   7.686
  122POPC   GL2 1769   7.967   3.343   7.729
  122POPC   C1A 1770   8.163   3.542   7.282
  122POPC   D2A 1771   7.980   3.522   6.911
  122POPC   C3A 1772   8.228   3.427   6.578
  122POPC   C4A 1773   8.053   3.501   6.237
  122POPC   C1B 1774   7.737   3.185   7.322
  122POPC   C2B 1775   7.490   3.371   6.971
  122POPC   C3B 1776   7.534   3.535   6.547
  122POPC   C4B 1777   7.612   3.276   6.204
  123POPC   NC3 1778   2.574   8.444   8.448
  123POPC   PO4 1779   2.266   7.988   8.006
  123POPC   GL1 1780   2.513   7.845   7.681
  123POPC   GL2 1781   2.839   7.876   7.810
  123POPC   C1A 1782   2.554   7.867   7.251
  123POPC   D2A 1783   2.546   8.113   6.921
  123POPC   C3A 1784   2.586   7.896   6.566
  123POPC   C4A 1785   2.593   8.035   6.170
  123POPC   C1B 1786   3.002   7.758   7.396
  123POPC   C2B 1787   2.967   7.749   6.934
  123POPC   C3B 1788   2.942   7.545   6.511
  123POPC   C4B 1789   2.993   7.704   6.110
  124POPC   NC3 1790   2.512   8.360   7.885
  124POPC   PO4 1791   2.999   8.299   8.354
  124POPC   GL1 1792   3.047   8.345   7.835
  124POPC   GL2 1793   3.006   8.681   7.655
  124POPC   C1A 1794   2.896   8.281   7.346
  124POPC   D2A 1795   2.699   8.590   7.000
  124POPC   C3A 1796   2.653   8.446   6.525
  124POPC   C4A 1797   2.965   8.418   6.169
  124POPC   C1B 1798   2.878   9.001   7.295
  124POPC   C2B 1799   2.649   9.086   6.862
  124POPC   C3B 1800   2.798   9.136   6.434
  124POPC   C4B 1801   2.689   8.845   6.119
  125POPC   NC3 1802   7.766   6.421   8.127
  125POPC   PO4 1803   8.234   6.839   8.209
  125POPC   GL1 1804   8.060   6.728   7.788
  125POPC   GL2 1805   8.016   6.364   7.707
  125POPC   C1A 1806   8.212   6.605   7.332
  125POPC   D2A 1807   8.100   6.361   6.973
  125POPC   C3A 1808   8.029   6.503   6.540
  125POPC   C4A 1809   8.279   6.665   6.193
  125POPC   C1B 1810   7.729   6.429   7.332
  125POPC   C2B 1811   7.594   6.525   6.905
  125POPC   C3B 1812   7.534   6.347   6.478
  125POPC   C4B 1813   7.615   6.459   6.048
  126POPC   NC3 1814   2.565   5.865   7.918
  126POPC   PO4 1815   2.285   5.284   8.115
  126POPC   GL1 1816   2.396   5.279   7.701
  126POPC   GL2 1817   2.709   5.483   7.619
  126POPC   C1A 1818   2.318   5.472   7.307
  126POPC   D2A 1819   2.327   5.688   6.952
  126POPC   C3A 1820   2.555   5.533   6.642
  126POPC   C4A 1821   2.411   5.539   6.259
  126POPC   C1B 1822   2.678   5.858   7.286
  126POPC   C2B 1823   2.713   6.026   6.849
  126POPC   C3B 1824   2.708   5.965   6.414
  126POPC   C4B 1825   2.927   5.640   6.219
  127POPC   NC3 1826   9.336   9.404   8.111
  127POPC   PO4 1827   9.926   9.758   7.980
  127POPC   GL1 1828   9.674   9.555   7.635
  127POPC   GL2 1829   9.347   9.352   7.612
  127POPC   C1A 1830   9.633   9.449   7.197
  127POPC   D2A 1831   9.833   9.338   6.805
  127POPC   C3A 1832   9.841   9.580   6.445
  127POPC   C4A 1833   9.654   9.801   6.101
  127POPC   C1B 1834   9.126   9.336   7.211
  127POPC   C2B 1835   9.286   9.494   6.800
  127POPC   C3B 1836   9.323   9.482   6.348
  127POPC   C4B 1837   9.071   9.215   6.092
  128POPC   NC3 1838   4.625   1.306   7.939
  128POPC   PO4 1839   5.054   0.864   8.065
  128POPC   GL1 1840   5.131   0.991   7.650
  128POPC   GL2 1841   4.830   1.086   7.534
  128POPC   C1A 1842   5.229   0.947   7.216
  128POPC   D2A 1843   4.937   0.925   6.854
  128POPC   C3A 1844   5.130   0.855   6.401
  128POPC   C4A 1845   5.026   1.060   5.951
  128POPC   C1B 1846   4.865   1.333   7.176
  128POPC   C2B 1847   5.105   1.386   6.790
  128POPC   C3B 1848   4.828   1.246   6.460
  128POPC   C4B 1849   4.643   1.400   6.127
  129POPC   NC3 1850   8.799   9.878   8.049
  129POPC   PO4 1851   8.494  10.392   8.216
  129POPC   GL1 1852   8.774  10.347   7.822
  129POPC   GL2 1853   8.544  10.112   7.656
  129POPC   C1A 1854   8.962  10.188   7.382
  129POPC   D2A 1855   9.176   9.990   6.983
  129POPC   C3A 1856   9.001   9.851   6.566
  129POPC   C4A 1857   8.751   9.999   6.256
  129POPC   C1B 1858   8.502  10.075   7.203
  129POPC   C2B 1859   8.685  10.187   6.801
  129POPC   C3B 1860   8.619  10.445   6.440
  129POPC   C4B 1861   8.397  10.260   6.032
  130POPC   NC3 1862   3.403   3.529   8.080
  130POPC   PO4 1863   3.958   3.191   7.995
  130POPC   GL1 1864   3.698   3.388   7.659
  130POPC   GL2 1865   3.313   3.441   7.584
  130POPC   C1A 1866   3.786   3.285   7.234
  130POPC   D2A 1867   3.562   3.041   6.918
  130POPC   C3A 1868   3.462   3.282   6.565
  130POPC   C4A 1869   3.671   3.610   6.359
  130POPC   C1B 1870   3.323   3.437   7.118
  130POPC   C2B 1871   3.228   3.709   6.760
  130POPC   C3B 1872   3.233   3.900   6.371
  130POPC   C4B 1873   3.308   3.698   6.006
  131POPC   NC3 1874   5.211  10.110   7.993
  131POPC   PO4 1875   4.649   9.819   8.072
  131POPC   GL1 1876   4.772  10.130   7.692
  131POPC   GL2 1877   5.074  10.366   7.595
  131POPC   C1A 1878   4.880  10.077   7.216
  131POPC   D2A 1879   5.198   9.928   6.912
  131POPC   C3A 1880   5.108  10.036   6.489
  131POPC   C4A 1881   4.660  10.066   6.354
  131POPC   C1B 1882   5.260  10.398   7.197
  131POPC   C2B 1883   4.993  10.460   6.845
  131POPC   C3B 1884   4.745   0.050   6.472
  131POPC   C4B 1885   4.996  10.374   6.112
  132POPC   NC3 1886   6.632   7.631   8.027
  132POPC   PO4 1887   6.787   8.133   8.325
  132POPC   GL1 1888   6.687   8.088   7.775
  132POPC   GL2 1889   6.640   7.795   7.578
  132POPC   C1A 1890   6.724   8.071   7.202
  132POPC   D2A 1891   6.789   7.724   6.868
  132POPC   C3A 1892   6.730   7.974   6.543
  132POPC   C4A 1893   6.525   8.033   6.161
  132POPC   C1B 1894   6.282   7.813   7.328
  132POPC   C2B 1895   6.302   7.889   6.892
  132POPC   C3B 1896   6.323   7.683   6.483
  132POPC   C4B 1897   6.045   7.868   6.214
  133POPC   NC3 1898   5.307   1.258   8.054
  133POPC   PO4 1899   5.900   1.417   8.117
  133POPC   GL1 1900   5.731   1.467   7.725
  133POPC   GL2 1901   5.617   1.168   7.637
  133POPC   C1A 1902   5.672   1.487   7.260
  133POPC   D2A 1903   5.914   1.561   6.940
  133POPC   C3A 1904   5.726   1.525   6.566
  133POPC   C4A 1905   5.880   1.389   6.207
  133POPC   C1B 1906   5.772   0.990   7.241
  133POPC   C2B 1907   5.590   1.130   6.863
  133POPC   C3B 1908   5.603   1.034   6.428
  133POPC   C4B 1909   5.301   1.318   6.316
  134POPC   NC3 1910   4.757   7.719   7.920
  134POPC   PO4 1911   5.402   7.915   7.984
  134POPC   GL1 1912   5.198   7.970   7.623
  134POPC   GL2 1913   4.861   8.115   7.618
  134POPC   C1A 1914   5.242   7.697   7.256
  134POPC   D2A 1915   4.976   7.545   6.922
  134POPC   C3A 1916   5.146   7.565   6.521
  134POPC   C4A 1917   5.193   7.698   6.103
  134POPC   C1B 1918   4.802   7.948   7.210
  134POPC   C2B 1919   4.639   7.930   6.789
  134POPC   C3B 1920   4.777   7.893   6.369
  134POPC   C4B 1921   4.691   7.911   5.938
  135POPC   NC3 1922   1.040   8.223   8.090
  135POPC   PO4 1923   0.399   7.961   8.006
  135POPC   GL1 1924   0.732   7.980   7.672
  135POPC   GL2 1925   1.084   8.068   7.624
  135POPC   C1A 1926   0.739   7.992   7.253
  135POPC   D2A 1927   0.954   8.197   6.930
  135POPC   C3A 1928   0.806   8.105   6.483
  135POPC   C4A 1929   0.896   8.177   6.051
  135POPC   C1B 1930   1.242   7.844   7.295
  135POPC   C2B 1931   1.327   7.562   6.962
  135POPC   C3B 1932   1.208   7.840   6.660
  135POPC   C4B 1933   1.266   7.889   6.231
  136POPC   NC3 1934   8.667   6.553   8.211
  136POPC   PO4 1935   8.144   6.082   8.210
  136POPC   GL1 1936   8.493   6.175   7.869
  136POPC   GL2 1937   8.520   6.534   7.731
  136POPC   C1A 1938   8.519   6.161   7.398
  136POPC   D2A 1939   8.440   5.948   7.019
  136POPC   C3A 1940   8.414   6.168   6.634
  136POPC   C4A 1941   8.305   6.100   6.215
  136POPC   C1B 1942   8.712   6.655   7.314
  136POPC   C2B 1943   8.503   6.690   6.902
  136POPC   C3B 1944   8.694   6.574   6.534
  136POPC   C4B 1945   8.773   6.331   6.166
  137POPC   NC3 1946   5.722   7.613   8.060
  137POPC   PO4 1947   6.268   7.951   8.007
  137POPC   GL1 1948   5.890   7.953   7.668
  137POPC   GL2 1949   5.706   8.227   7.489
  137POPC   C1A 1950   5.776   7.812   7.195
  137POPC   D2A 1951   5.895   7.573   6.772
  137POPC   C3A 1952   5.634   7.610   6.389
  137POPC   C4A 1953   5.578   7.368   5.990
  137POPC   C1B 1954   5.336   8.195   7.204
  137POPC   C2B 1955   5.150   8.043   6.820
  137POPC   C3B 1956   5.263   8.109   6.393
  137POPC   C4B 1957   5.594   8.015   6.079
  138POPC   NC3 1958   8.406   5.655   8.070
  138POPC   PO4 1959   9.024   5.918   8.028
  138POPC   GL1 1960   8.860   5.848   7.637
  138POPC   GL2 1961   8.582   5.666   7.600
  138POPC   C1A 1962   8.919   5.708   7.212
  138POPC   D2A 1963   8.948   5.949   6.854
  138POPC   C3A 1964   8.791   5.903   6.453
  138POPC   C4A 1965   8.969   5.824   6.085
  138POPC   C1B 1966   8.468   5.461   7.228
  138POPC   C2B 1967   8.640   5.537   6.796
  138POPC   C3B 1968   8.725   5.392   6.396
  138POPC   C4B 1969   8.508   5.619   6.119
  139POPC   NC3 1970   3.807   8.024   7.853
  139POPC   PO4 1971   4.497   8.104   7.977
  139POPC   GL1 1972   4.298   7.900   7.615
  139POPC   GL2 1973   3.969   7.690   7.517
  139POPC   C1A 1974   4.311   7.812   7.177
  139POPC   D2A 1975   4.016   7.627   6.895
  139POPC   C3A 1976   4.230   7.699   6.521
  139POPC   C4A 1977   4.351   7.585   6.112
  139POPC   C1B 1978   3.827   8.000   7.188
  139POPC   C2B 1979   3.676   8.000   6.744
  139POPC   C3B 1980   3.842   8.133   6.359
  139POPC   C4B 1981   3.883   7.756   6.167
  140POPC   NC3 1982   3.378   8.047   8.276
  140POPC   PO4 1983   3.564   8.399   7.800
  140POPC   GL1 1984   3.413   8.153   7.511
  140POPC   GL2 1985   3.346   7.881   7.717
  140POPC   C1A 1986   3.318   8.109   7.091
  140POPC   D2A 1987   3.043   8.266   6.827
  140POPC   C3A 1988   3.079   8.045   6.492
  140POPC   C4A 1989   3.357   8.076   6.165
  140POPC   C1B 1990   3.477   7.685   7.310
  140POPC   C2B 1991   3.445   7.559   6.870
  140POPC   C3B 1992   3.442   7.644   6.408
  140POPC   C4B 1993   3.467   7.600   5.923
  141POPC   NC3 1994   3.478   9.672   8.027
  141POPC   PO4 1995   3.038   9.062   8.006
  141POPC   GL1 1996   3.191   9.345   7.736
  141POPC   GL2 1997   3.448   9.235   7.712
  141POPC   C1A 1998   3.197   9.449   7.302
  141POPC   D2A 1999   3.112   9.269   6.894
  141POPC   C3A 2000   3.239   9.409   6.517
  141POPC   C4A 2001   3.343   9.622   6.169
  141POPC   C1B 2002   3.678   9.210   7.349
  141POPC   C2B 2003   3.613   9.131   6.945
  141POPC   C3B 2004   3.537   8.976   6.572
  141POPC   C4B 2005   3.592   9.168   6.217
  142POPC   NC3 2006   3.445   6.100   7.978
  142POPC   PO4 2007   3.357   6.808   8.059
  142POPC   GL1 2008   3.127   6.688   7.681
  142POPC   GL2 2009   3.296   6.384   7.563
  142POPC   C1A 2010   3.254   6.760   7.231
  142POPC   D2A 2011   3.163   6.743   6.814
  142POPC   C3A 2012   3.468   6.665   6.497
  142POPC   C4A 2013   3.413   6.451   6.091
  142POPC   C1B 2014   3.607   6.400   7.188
  142POPC   C2B 2015   3.680   6.254   6.759
  142POPC   C3B 2016   3.840   6.328   6.362
  142POPC   C4B 2017   3.785   6.096   5.971
  143POPC   NC3 2018   1.972   2.561   8.117
  143POPC   PO4 2019   1.702   3.183   7.948
  143POPC   GL1 2020   1.818   2.826   7.707
  143POPC   GL2 2021   2.168   2.728   7.665
  143POPC   C1A 2022   1.746   2.686   7.301
  143POPC   D2A 2023   1.518   2.706   6.911
  143POPC   C3A 2024   1.767   2.762   6.541
  143POPC   C4A 2025   1.632   2.623   6.163
  143POPC   C1B 2026   2.239   2.568   7.247
  143POPC   C2B 2027   2.273   2.623   6.795
  143POPC   C3B 2028   2.334   2.667   6.364
  143POPC   C4B 2029   2.174   2.937   6.092
  144POPC   NC3 2030   2.491   3.252   8.172
  144POPC   PO4 2031   2.305   3.861   8.292
  144POPC   GL1 2032   2.493   3.652   7.855
  144POPC   GL2 2033   2.802   3.416   7.776
  144POPC   C1A 2034   2.391   3.568   7.411
  144POPC   D2A 2035   2.405   3.359   6.995
  144POPC   C3A 2036   2.540   3.590   6.637
  144POPC   C4A 2037   2.476   3.797   6.256
  144POPC   C1B 2038   2.861   3.437   7.291
  144POPC   C2B 2039   2.924   3.310   6.831
  144POPC   C3B 2040   2.999   3.441   6.368
  144POPC   C4B 2041   2.996   3.276   5.918
  145POPC   NC3 2042   0.828   2.644   8.173
  145POPC   PO4 2043   0.188   2.436   8.118
  145POPC   GL1 2044   0.381   2.790   7.840
  145POPC   GL2 2045   0.515   2.507   7.723
  145POPC   C1A 2046   0.480   3.114   7.471
  145POPC   D2A 2047   0.702   3.047   7.062
  145POPC   C3A 2048   0.562   3.039   6.621
  145POPC   C4A 2049   0.279   3.057   6.222
  145POPC   C1B 2050   0.560   2.636   7.309
  145POPC   C2B 2051   0.642   2.536   6.880
  145POPC   C3B 2052   0.471   2.566   6.466
  145POPC   C4B 2053   0.634   2.362   6.131
  146POPC   NC3 2054   7.955   8.709   8.187
  146POPC   PO4 2055   8.506   8.764   7.898
  146POPC   GL1 2056   8.243   8.534   7.725
  146POPC   GL2 2057   7.919   8.658   7.699
  146POPC   C1A 2058   8.132   8.398   7.329
  146POPC   D2A 2059   8.079   8.616   6.950
  146POPC   C3A 2060   8.157   8.512   6.542
  146POPC   C4A 2061   8.174   8.813   6.209
  146POPC   C1B 2062   8.102   8.922   7.364
  146POPC   C2B 2063   7.867   9.073   6.987
  146POPC   C3B 2064   7.806   8.918   6.560
  146POPC   C4B 2065   7.729   8.587   6.225
  147POPC   NC3 2066   1.248   9.781   8.314
  147POPC   PO4 2067   0.885   9.352   8.068
  147POPC   GL1 2068   1.268   9.507   7.831
  147POPC   GL2 2069   1.219   9.232   7.680
  147POPC   C1A 2070   1.482   9.527   7.380
  147POPC   D2A 2071   1.329   9.259   7.023
  147POPC   C3A 2072   1.405   9.364   6.572
  147POPC   C4A 2073   1.426   9.129   6.185
  147POPC   C1B 2074   0.992   9.513   7.346
  147POPC   C2B 2075   0.840   9.521   6.928
  147POPC   C3B 2076   0.867   9.430   6.498
  147POPC   C4B 2077   0.811   9.461   6.084
  148POPC   NC3 2078   9.679   4.455   8.005
  148POPC   PO4 2079   9.455   5.031   8.197
  148POPC   GL1 2080   9.537   4.936   7.776
  148POPC   GL2 2081   9.285   4.695   7.739
  148POPC   C1A 2082   9.790   4.790   7.426
  148POPC   D2A 2083   9.676   4.639   7.009
  148POPC   C3A 2084   9.712   4.936   6.669
  148POPC   C4A 2085   9.814   4.877   6.251
  148POPC   C1B 2086   9.292   4.844   7.321
  148POPC   C2B 2087   9.175   4.859   6.903
  148POPC   C3B 2088   9.243   5.031   6.512
  148POPC   C4B 2089   9.330   4.802   6.145
  149POPC   NC3 2090   0.855   1.358   7.841
  149POPC   PO4 2091   1.506   1.409   8.027
  149POPC   GL1 2092   1.271   1.123   7.620
  149POPC   GL2 2093   0.879   0.985   7.516
  149POPC   C1A 2094   1.247   0.902   7.203
  149POPC   D2A 2095   1.000   0.974   6.815
  149POPC   C3A 2096   1.321   0.869   6.491
  149POPC   C4A 2097   1.341   1.225   6.208
  149POPC   C1B 2098   0.801   1.315   7.193
  149POPC   C2B 2099   0.681   1.502   6.791
  149POPC   C3B 2100   0.907   1.406   6.447
  149POPC   C4B 2101   0.876   0.995   6.293
  150POPC   NC3 2102   7.837   7.102   8.311
  150POPC   PO4 2103   8.152   7.538   7.937
  150POPC   GL1 2104   7.927   7.403   7.626
  150POPC   GL2 2105   7.736   7.152   7.798
  150POPC   C1A 2106   7.964   7.395   7.183
  150POPC   D2A 2107   7.981   7.621   6.832
  150POPC   C3A 2108   8.029   7.503   6.403
  150POPC   C4A 2109   7.804   7.684   6.057
  150POPC   C1B 2110   7.842   6.949   7.388
  150POPC   C2B 2111   7.991   6.868   6.957
  150POPC   C3B 2112   8.000   7.005   6.529
  150POPC   C4B 2113   7.721   6.931   6.213
  151POPC   NC3 2114   5.855   9.912   8.134
  151POPC   PO4 2115   5.494  10.466   8.071
  151POPC   GL1 2116   5.601  10.340   7.656
  151POPC   GL2 2117   5.714   9.996   7.663
  151POPC   C1A 2118   5.754  10.480   7.244
  151POPC   D2A 2119   5.527   0.144   6.840
  151POPC   C3A 2120   5.398   0.030   6.419
  151POPC   C4A 2121   5.735   0.070   6.142
  151POPC   C1B 2122   5.554   9.979   7.278
  151POPC   C2B 2123   5.670  10.137   6.877
  151POPC   C3B 2124   5.682  10.134   6.454
  151POPC   C4B 2125   5.510   9.855   6.173
  152POPC   NC3 2126   6.296   2.531   8.049
  152POPC   PO4 2127   6.927   2.421   8.162
  152POPC   GL1 2128   6.767   2.544   7.725
  152POPC   GL2 2129   6.392   2.568   7.564
  152POPC   C1A 2130   6.776   2.501   7.267
  152POPC   D2A 2131   6.448   2.595   6.980
  152POPC   C3A 2132   6.700   2.711   6.651
  152POPC   C4A 2133   6.794   2.451   6.293
  152POPC   C1B 2134   6.148   2.860   7.315
  152POPC   C2B 2135   6.064   2.924   6.861
  152POPC   C3B 2136   6.225   2.788   6.452
  152POPC   C4B 2137   6.294   2.342   6.355
  153POPC   NC3 2138  10.204   5.926   7.986
  153POPC   PO4 2139   0.071   6.492   8.201
  153POPC   GL1 2140  10.289   6.426   7.789
  153POPC   GL2 2141   9.919   6.319   7.757
  153POPC   C1A 2142  10.294   6.222   7.359
  153POPC   D2A 2143   0.064   6.218   6.984
  153POPC   C3A 2144  10.355   6.209   6.593
  153POPC   C4A 2145  10.446   6.395   6.198
  153POPC   C1B 2146   9.911   6.543   7.343
  153POPC   C2B 2147  10.131   6.547   6.938
  153POPC   C3B 2148  10.098   6.661   6.493
  153POPC   C4B 2149  10.003   6.621   6.023
  154POPC   NC3 2150   8.200   4.993   8.002
  154POPC   PO4 2151   7.774   4.482   7.936
  154POPC   GL1 2152   7.873   4.579   7.547
  154POPC   GL2 2153   8.187   4.663   7.605
  154POPC   C1A 2154   7.762   4.625   7.126
  154POPC   D2A 2155   7.850   4.832   6.754
  154POPC   C3A 2156   7.519   4.876   6.459
  154POPC   C4A 2157   7.507   5.035   6.024
  154POPC   C1B 2158   8.091   5.020   7.285
  154POPC   C2B 2159   8.188   5.228   6.876
  154POPC   C3B 2160   8.304   5.113   6.502
  154POPC   C4B 2161   8.024   4.913   6.285
  155POPC   NC3 2162   6.368   8.358   8.228
  155POPC   PO4 2163   6.771   8.845   8.020
  155POPC   GL1 2164   6.583   8.902   7.621
  155POPC   GL2 2165   6.539   8.557   7.638
  155POPC   C1A 2166   6.560   8.831   7.149
  155POPC   D2A 2167   6.330   8.926   6.753
  155POPC   C3A 2168   6.487   8.879   6.311
  155POPC   C4A 2169   6.413   8.931   5.837
  155POPC   C1B 2170   6.280   8.326   7.375
  155POPC   C2B 2171   6.173   8.434   6.945
  155POPC   C3B 2172   6.381   8.411   6.539
  155POPC   C4B 2173   6.781   8.457   6.328
  156POPC   NC3 2174   9.368   0.848   8.367
  156POPC   PO4 2175   9.106   1.412   8.165
  156POPC   GL1 2176   9.253   1.194   7.749
  156POPC   GL2 2177   9.594   1.048   7.696
  156POPC   C1A 2178   9.252   0.958   7.336
  156POPC   D2A 2179   9.160   0.864   6.914
  156POPC   C3A 2180   9.053   1.276   6.687
  156POPC   C4A 2181   8.973   1.331   6.250
  156POPC   C1B 2182   9.736   1.133   7.233
  156POPC   C2B 2183   9.526   1.226   6.827
  156POPC   C3B 2184   9.470   1.167   6.365
  156POPC   C4B 2185   9.687   1.052   5.974
  157POPC   NC3 2186   1.756   4.387   8.123
  157POPC   PO4 2187   2.144   4.031   7.827
  157POPC   GL1 2188   1.794   4.073   7.648
  157POPC   GL2 2189   1.800   4.447   7.634
  157POPC   C1A 2190   1.788   3.892   7.263
  157POPC   D2A 2191   2.140   3.804   7.007
  157POPC   C3A 2192   2.038   3.794   6.603
  157POPC   C4A 2193   1.975   3.937   6.223
  157POPC   C1B 2194   1.995   4.355   7.236
  157POPC   C2B 2195   1.837   4.216   6.840
  157POPC   C3B 2196   1.857   4.392   6.436
  157POPC   C4B 2197   1.969   4.387   5.973
  158POPC   NC3 2198   4.069   1.896   8.088
  158POPC   PO4 2199   4.615   1.688   7.706
  158POPC   GL1 2200   4.431   2.038   7.499
  158POPC   GL2 2201   4.095   2.071   7.611
  158POPC   C1A 2202   4.213   1.996   7.109
  158POPC   D2A 2203   4.124   2.310   6.824
  158POPC   C3A 2204   4.310   2.259   6.450
  158POPC   C4A 2205   4.518   1.874   6.313
  158POPC   C1B 2206   3.997   1.647   7.441
  158POPC   C2B 2207   4.040   1.433   7.031
  158POPC   C3B 2208   4.181   1.677   6.679
  158POPC   C4B 2209   3.988   1.844   6.335
  159POPC   NC3 2210   2.841   2.780   8.431
  159POPC   PO4 2211   2.434   2.508   8.040
  159POPC   GL1 2212   2.619   2.877   7.868
  159POPC   GL2 2213   2.961   2.881   7.755
  159POPC   C1A 2214   2.581   3.066   7.474
  159POPC   D2A 2215   2.572   2.896   7.088
  159POPC   C3A 2216   2.665   2.916   6.675
  159POPC   C4A 2217   2.618   3.120   6.311
  159POPC   C1B 2218   2.768   2.569   7.460
  159POPC   C2B 2219   2.761   2.405   7.058
  159POPC   C3B 2220   2.873   2.436   6.672
  159POPC   C4B 2221   2.833   2.628   6.267
  160POPC   NC3 2222   7.383   3.516   8.088
  160POPC   PO4 2223   6.806   3.300   8.310
  160POPC   GL1 2224   7.006   3.312   7.791
  160POPC   GL2 2225   7.368   3.367   7.622
  160POPC   C1A 2226   7.004   3.538   7.295
  160POPC   D2A 2227   7.159   3.768   6.862
  160POPC   C3A 2228   6.928   3.818   6.406
  160POPC   C4A 2229   6.922   3.736   5.915
  160POPC   C1B 2230   7.154   3.054   7.370
  160POPC   C2B 2231   7.042   3.132   6.957
  160POPC   C3B 2232   7.020   3.351   6.606
  160POPC   C4B 2233   7.145   3.410   6.223
  161POPC   NC3 2234   6.602   3.590   8.035
  161POPC   PO4 2235   6.493   2.931   7.957
  161POPC   GL1 2236   6.616   3.046   7.594
  161POPC   GL2 2237   6.556   3.408   7.547
  161POPC   C1A 2238   6.614   3.041   7.184
  161POPC   D2A 2239   6.609   3.399   6.922
  161POPC   C3A 2240   6.521   3.216   6.541
  161POPC   C4A 2241   6.631   3.414   6.201
  161POPC   C1B 2242   6.208   3.365   7.230
  161POPC   C2B 2243   6.100   3.420   6.775
  161POPC   C3B 2244   6.113   3.493   6.332
  161POPC   C4B 2245   5.898   3.744   6.010
  162POPC   NC3 2246   3.476   2.080   8.102
  162POPC   PO4 2247   2.922   1.939   8.107
  162POPC   GL1 2248   3.224   1.793   7.747
  162POPC   GL2 2249   3.574   1.982   7.622
  162POPC   C1A 2250   3.185   1.929   7.295
  162POPC   D2A 2251   3.216   2.007   6.845
  162POPC   C3A 2252   3.179   1.631   6.637
  162POPC   C4A 2253   3.031   1.618   6.209
  162POPC   C1B 2254   3.721   2.145   7.205
  162POPC   C2B 2255   3.709   2.045   6.740
  162POPC   C3B 2256   3.491   1.934   6.361
  162POPC   C4B 2257   3.710   2.186   6.058
  163POPC   NC3 2258   3.770   7.033   8.129
  163POPC   PO4 2259   3.606   7.663   8.090
  163POPC   GL1 2260   3.592   7.389   7.696
  163POPC   GL2 2261   3.515   7.028   7.612
  163POPC   C1A 2262   3.746   7.282   7.250
  163POPC   D2A 2263   3.578   7.058   6.912
  163POPC   C3A 2264   3.784   7.289   6.580
  163POPC   C4A 2265   3.752   7.266   6.178
  163POPC   C1B 2266   3.212   7.256   7.296
  163POPC   C2B 2267   3.046   7.221   6.882
  163POPC   C3B 2268   3.288   7.161   6.484
  163POPC   C4B 2269   3.361   6.968   6.073
  164POPC   NC3 2270   1.865   5.084   8.192
  164POPC   PO4 2271   1.385   4.655   8.011
  164POPC   GL1 2272   1.584   4.943   7.721
  164POPC   GL2 2273   1.951   4.945   7.707
  164POPC   C1A 2274   1.695   4.795   7.284
  164POPC   D2A 2275   1.970   4.753   6.902
  164POPC   C3A 2276   1.781   4.905   6.542
  164POPC   C4A 2277   1.682   4.774   6.145
  164POPC   C1B 2278   2.161   4.999   7.317
  164POPC   C2B 2279   2.372   5.118   6.927
  164POPC   C3B 2280   2.270   5.106   6.504
  164POPC   C4B 2281   2.192   4.756   6.255
  165POPC   NC3 2282   7.016   8.430   7.988
  165POPC   PO4 2283   7.538   8.919   8.095
  165POPC   GL1 2284   7.242   8.874   7.772
  165POPC   GL2 2285   7.410   8.600   7.653
  165POPC   C1A 2286   7.033   8.812   7.365
  165POPC   D2A 2287   6.971   8.555   6.988
  165POPC   C3A 2288   6.844   8.813   6.682
  165POPC   C4A 2289   6.980   8.959   6.302
  165POPC   C1B 2290   7.657   8.654   7.265
  165POPC   C2B 2291   7.592   8.521   6.832
  165POPC   C3B 2292   7.327   8.668   6.537
  165POPC   C4B 2293   7.236   8.546   6.125
  166POPC   NC3 2294   3.123   0.476   8.217
  166POPC   PO4 2295   3.661   0.812   8.426
  166POPC   GL1 2296   3.503   0.639   7.909
  166POPC   GL2 2297   3.366   0.299   7.811
  166POPC   C1A 2298   3.581   0.563   7.425
  166POPC   D2A 2299   3.361   0.706   7.023
  166POPC   C3A 2300   3.439   0.569   6.597
  166POPC   C4A 2301   3.158   0.572   6.263
  166POPC   C1B 2302   3.144   0.285   7.398
  166POPC   C2B 2303   3.183   0.239   6.935
  166POPC   C3B 2304   3.238   0.091   6.498
  166POPC   C4B 2305   3.501   0.173   6.151
  167POPC   NC3 2306   4.058   8.789   8.225
  167POPC   PO4 2307   4.359   9.065   7.738
  167POPC   GL1 2308   4.345   8.716   7.515
  167POPC   GL2 2309   4.200   8.411   7.697
  167POPC   C1A 2310   4.377   8.788   7.115
  167POPC   D2A 2311   4.101   8.974   6.848
  167POPC   C3A 2312   3.968   8.701   6.544
  167POPC   C4A 2313   3.990   8.891   6.122
  167POPC   C1B 2314   4.219   8.313   7.244
  167POPC   C2B 2315   4.160   8.148   6.816
  167POPC   C3B 2316   4.354   8.177   6.422
  167POPC   C4B 2317   4.282   8.492   6.206
  168POPC   NC3 2318   9.988   2.334   8.154
  168POPC   PO4 2319   9.994   1.668   8.152
  168POPC   GL1 2320  10.268   1.737   7.799
  168POPC   GL2 2321  10.161   2.085   7.717
  168POPC   C1A 2322   0.026   1.787   7.422
  168POPC   D2A 2323  10.446   2.006   7.037
  168POPC   C3A 2324  10.429   1.845   6.659
  168POPC   C4A 2325  10.328   1.701   6.277
  168POPC   C1B 2326  10.033   1.902   7.322
  168POPC   C2B 2327   9.938   2.059   6.886
  168POPC   C3B 2328  10.012   2.074   6.467
  168POPC   C4B 2329  10.193   2.324   6.145
  169POPC   NC3 2330   1.370   7.280   8.135
  169POPC   PO4 2331   0.939   7.767   8.062
  169POPC   GL1 2332   0.997   7.538   7.641
  169POPC   GL2 2333   1.332   7.432   7.643
  169POPC   C1A 2334   0.871   7.497   7.166
  169POPC   D2A 2335   0.870   7.381   6.714
  169POPC   C3A 2336   1.211   7.379   6.462
  169POPC   C4A 2337   1.142   7.411   6.041
  169POPC   C1B 2338   1.226   7.184   7.329
  169POPC   C2B 2339   1.208   7.063   6.924
  169POPC   C3B 2340   1.010   6.884   6.588
  169POPC   C4B 2341   1.181   6.941   6.195
  170POPC   NC3 2342  10.376   2.877   7.973
  170POPC   PO4 2343   9.835   2.575   7.793
  170POPC   GL1 2344  10.182   2.589   7.582
  170POPC   GL2 2345   0.005   2.474   7.638
  170POPC   C1A 2346  10.192   2.435   7.196
  170POPC   D2A 2347   9.898   2.577   6.929
  170POPC   C3A 2348  10.033   2.581   6.552
  170POPC   C4A 2349   9.831   2.715   6.185
  170POPC   C1B 2350   0.057   2.821   7.330
  170POPC   C2B 2351  10.352   2.892   6.939
  170POPC   C3B 2352   0.014   2.842   6.579
  170POPC   C4B 2353  10.323   2.831   6.187
  171POPC   NC3 2354  10.021   9.320   7.954
  171POPC   PO4 2355   0.022   8.865   7.934
  171POPC   GL1 2356  10.333   9.154   7.604
  171POPC   GL2 2357  10.357   9.553   7.663
  171POPC   C1A 2358  10.100   9.262   7.246
  171POPC   D2A 2359  10.331   9.227   6.868
  171POPC   C3A 2360  10.171   9.187   6.446
  171POPC   C4A 2361   0.039   9.030   6.231
  171POPC   C1B 2362  10.453   9.623   7.246
  171POPC   C2B 2363  10.182   9.715   6.926
  171POPC   C3B 2364  10.378   9.641   6.551
  171POPC   C4B 2365  10.346   9.524   6.126
  172POPC   NC3 2366  10.405   6.905   8.013
  172POPC   PO4 2367   9.758   7.319   8.039
  172POPC   GL1 2368  10.055   7.166   7.732
  172POPC   GL2 2369  10.255   7.413   7.619
  172POPC   C1A 2370  10.179   6.988   7.313
  172POPC   D2A 2371  10.020   7.064   6.888
  172POPC   C3A 2372  10.335   7.120   6.580
  172POPC   C4A 2373  10.329   6.997   6.195
  172POPC   C1B 2374   9.955   7.471   7.311
  172POPC   C2B 2375   9.854   7.595   6.917
  172POPC   C3B 2376   9.935   7.438   6.523
  172POPC   C4B 2377  10.072   7.428   6.129
  173POPC   NC3 2378   8.634   2.406   8.172
  173POPC   PO4 2379   8.218   3.022   8.198
  173POPC   GL1 2380   8.535   2.882   7.736
  173POPC   GL2 2381   8.448   2.636   7.447
  173POPC   C1A 2382   8.761   2.968   7.287
  173POPC   D2A 2383   8.526   2.735   6.935
  173POPC   C3A 2384   8.460   2.925   6.516
  173POPC   C4A 2385   8.786   2.914   6.172
  173POPC   C1B 2386   8.844   2.436   7.248
  173POPC   C2B 2387   8.995   2.523   6.820
  173POPC   C3B 2388   8.735   2.496   6.463
  173POPC   C4B 2389   8.335   2.467   6.233
  174POPC   NC3 2390   6.384   0.670   4.063
  174POPC   PO4 2391   6.808   0.177   3.972
  174POPC   GL1 2392   6.567   0.294   4.340
  174POPC   GL2 2393   6.218   0.183   4.266
  174POPC   C1A 2394   6.685   0.495   4.753
  174POPC   D2A 2395   6.784   0.227   5.120
  174POPC   C3A 2396   6.619   0.417   5.439
  174POPC   C4A 2397   6.610   0.211   5.792
  174POPC   C1B 2398   6.196   0.418   4.657
  174POPC   C2B 2399   6.270   0.293   5.064
  174POPC   C3B 2400   6.123   0.410   5.472
  174POPC   C4B 2401   6.322   0.651   5.852
  175POPC   NC3 2402   5.616   2.165   3.905
  175POPC   PO4 2403   6.085   1.559   3.837
  175POPC   GL1 2404   6.098   1.716   4.274
  175POPC   GL2 2405   5.736   1.825   4.293
  175POPC   C1A 2406   5.978   1.735   4.738
  175POPC   D2A 2407   5.661   1.778   5.069
  175POPC   C3A 2408   5.819   1.947   5.456
  175POPC   C4A 2409   5.865   1.698   5.814
  175POPC   C1B 2410   5.624   2.097   4.655
  175POPC   C2B 2411   5.319   2.158   4.993
  175POPC   C3B 2412   5.346   2.256   5.391
  175POPC   C4B 2413   5.297   2.351   5.801
  176POPC   NC3 2414  10.468   9.534   3.998
  176POPC   PO4 2415   0.579   9.857   3.768
  176POPC   GL1 2416   0.564   9.587   4.140
  176POPC   GL2 2417   0.439   9.246   4.098
  176POPC   C1A 2418   0.734   9.599   4.549
  176POPC   D2A 2419   0.882   9.613   4.956
  176POPC   C3A 2420   0.654   9.381   5.206
  176POPC   C4A 2421   0.632   9.362   5.622
  176POPC   C1B 2422   0.267   9.256   4.543
  176POPC   C2B 2423   0.157   9.385   4.969
  176POPC   C3B 2424   0.198   9.219   5.368
  176POPC   C4B 2425   0.144   9.343   5.780
  177POPC   NC3 2426   3.539   0.900   3.800
  177POPC   PO4 2427   3.227   0.277   3.885
  177POPC   GL1 2428   3.428   0.465   4.215
  177POPC   GL2 2429   3.643   0.202   4.298
  177POPC   C1A 2430   3.528   0.565   4.665
  177POPC   D2A 2431   3.668   0.499   5.079
  177POPC   C3A 2432   3.656   0.776   5.430
  177POPC   C4A 2433   3.571   0.555   5.830
  177POPC   C1B 2434   3.311   0.114   4.602
  177POPC   C2B 2435   3.228   0.245   5.023
  177POPC   C3B 2436   3.247   0.465   5.418
  177POPC   C4B 2437   3.119   0.317   5.824
  178POPC   NC3 2438   2.943   4.310   3.975
  178POPC   PO4 2439   2.354   4.116   4.038
  178POPC   GL1 2440   2.588   4.224   4.374
  178POPC   GL2 2441   2.937   4.122   4.430
  178POPC   C1A 2442   2.622   4.288   4.799
  178POPC   D2A 2443   2.435   4.117   5.122
  178POPC   C3A 2444   2.581   4.325   5.483
  178POPC   C4A 2445   2.920   4.564   5.679
  178POPC   C1B 2446   2.992   3.845   4.759
  178POPC   C2B 2447   2.930   3.949   5.153
  178POPC   C3B 2448   3.065   4.091   5.547
  178POPC   C4B 2449   3.268   4.198   5.916
  179POPC   NC3 2450   9.559   8.021   3.644
  179POPC   PO4 2451   8.958   8.112   3.908
  179POPC   GL1 2452   9.095   8.167   4.323
  179POPC   GL2 2453   9.394   7.937   4.345
  179POPC   C1A 2454   9.119   7.980   4.752
  179POPC   D2A 2455   9.444   7.986   5.043
  179POPC   C3A 2456   9.218   7.896   5.399
  179POPC   C4A 2457   9.493   7.938   5.693
  179POPC   C1B 2458   9.599   7.662   4.662
  179POPC   C2B 2459   9.922   7.623   4.959
  179POPC   C3B 2460   9.853   7.689   5.375
  179POPC   C4B 2461   9.790   7.513   5.726
  180POPC   NC3 2462   9.406   6.430   3.727
  180POPC   PO4 2463   9.809   6.876   3.848
  180POPC   GL1 2464   9.753   6.674   4.284
  180POPC   GL2 2465   9.398   6.581   4.352
  180POPC   C1A 2466   9.698   6.631   4.735
  180POPC   D2A 2467   9.664   6.374   5.131
  180POPC   C3A 2468   9.691   6.599   5.551
  180POPC   C4A 2469   9.499   6.629   5.987
  180POPC   C1B 2470   9.309   6.308   4.751
  180POPC   C2B 2471   9.159   6.233   5.146
  180POPC   C3B 2472   9.211   6.399   5.512
  180POPC   C4B 2473   9.201   6.222   5.899
  181POPC   NC3 2474   3.164   7.331   4.058
  181POPC   PO4 2475   3.792   7.535   3.943
  181POPC   GL1 2476   3.666   7.389   4.368
  181POPC   GL2 2477   3.301   7.380   4.539
  181POPC   C1A 2478   3.735   7.403   4.821
  181POPC   D2A 2479   3.433   7.234   5.066
  181POPC   C3A 2480   3.507   7.310   5.478
  181POPC   C4A 2481   3.715   7.038   5.717
  181POPC   C1B 2482   3.083   6.998   4.744
  181POPC   C2B 2483   3.125   6.826   5.180
  181POPC   C3B 2484   3.049   7.022   5.587
  181POPC   C4B 2485   3.057   7.463   5.672
  182POPC   NC3 2486   9.660   9.953   3.905
  182POPC   PO4 2487   9.009   9.822   4.171
  182POPC   GL1 2488   9.125  10.085   4.451
  182POPC   GL2 2489   9.352  10.242   4.210
  182POPC   C1A 2490   9.181   9.953   4.893
  182POPC   D2A 2491   9.484   9.927   5.225
  182POPC   C3A 2492   9.432   9.956   5.682
  182POPC   C4A 2493   9.252  10.105   6.118
  182POPC   C1B 2494   9.579  10.355   4.572
  182POPC   C2B 2495   9.508  10.409   4.996
  182POPC   C3B 2496   9.653  10.378   5.411
  182POPC   C4B 2497   9.463  10.448   5.814
  183POPC   NC3 2498   9.312   2.875   3.808
  183POPC   PO4 2499   9.683   2.538   4.105
  183POPC   GL1 2500   9.333   2.581   4.320
  183POPC   GL2 2501   9.063   2.800   4.236
  183POPC   C1A 2502   9.532   2.712   4.712
  183POPC   D2A 2503   9.577   2.507   5.053
  183POPC   C3A 2504   9.448   2.721   5.394
  183POPC   C4A 2505   9.588   2.572   5.766
  183POPC   C1B 2506   9.079   2.895   4.649
  183POPC   C2B 2507   9.241   3.031   5.014
  183POPC   C3B 2508   9.022   3.015   5.355
  183POPC   C4B 2509   9.114   2.842   5.767
  184POPC   NC3 2510   8.771   7.553   4.045
  184POPC   PO4 2511   8.362   8.077   4.123
  184POPC   GL1 2512   8.594   8.106   4.433
  184POPC   GL2 2513   8.745   7.820   4.460
  184POPC   C1A 2514   8.646   8.147   4.849
  184POPC   D2A 2515   8.522   7.910   5.223
  184POPC   C3A 2516   8.531   8.117   5.604
  184POPC   C4A 2517   8.928   8.184   5.750
  184POPC   C1B 2518   8.716   7.629   4.845
  184POPC   C2B 2519   8.491   7.388   5.113
  184POPC   C3B 2520   8.465   7.447   5.562
  184POPC   C4B 2521   8.796   7.693   5.727
  185POPC   NC3 2522   4.699   0.561   3.830
  185POPC   PO4 2523   5.311   0.166   3.917
  185POPC   GL1 2524   5.119   0.333   4.285
  185POPC   GL2 2525   4.812   0.304   4.236
  185POPC   C1A 2526   5.218   0.581   4.687
  185POPC   D2A 2527   5.048   0.702   5.085
  185POPC   C3A 2528   5.081   0.403   5.378
  185POPC   C4A 2529   4.947   0.518   5.746
  185POPC   C1B 2530   4.734   0.445   4.639
  185POPC   C2B 2531   4.619   0.393   5.072
  185POPC   C3B 2532   4.621   0.177   5.488
  185POPC   C4B 2533   4.628   0.158   5.954
  186POPC   NC3 2534   5.723  10.452   3.843
  186POPC   PO4 2535   5.333  10.048   3.584
  186POPC   GL1 2536   5.433  10.231   4.170
  186POPC   GL2 2537   5.747  10.171   4.302
  186POPC   C1A 2538   5.395  10.088   4.653
  186POPC   D2A 2539   5.531  10.100   5.085
  186POPC   C3A 2540   5.320  10.320   5.439
  186POPC   C4A 2541   5.409  10.240   5.867
  186POPC   C1B 2542   5.838  10.415   4.691
  186POPC   C2B 2543   5.876  10.490   5.142
  186POPC   C3B 2544   5.815  10.312   5.550
  186POPC   C4B 2545   5.888  10.137   5.988
  187POPC   NC3 2546  10.359   7.881   4.006
  187POPC   PO4 2547   9.933   8.265   3.747
  187POPC   GL1 2548   9.946   8.121   4.202
  187POPC   GL2 2549  10.012   7.743   4.354
  187POPC   C1A 2550   9.826   8.122   4.636
  187POPC   D2A 2551  10.052   8.121   4.988
  187POPC   C3A 2552   9.856   8.178   5.310
  187POPC   C4A 2553   9.887   8.236   5.717
  187POPC   C1B 2554  10.332   7.818   4.654
  187POPC   C2B 2555  10.493   7.842   5.056
  187POPC   C3B 2556  10.304   7.924   5.416
  187POPC   C4B 2557  10.208   7.804   5.803
  188POPC   NC3 2558   2.845   1.561   3.923
  188POPC   PO4 2559   2.663   0.959   3.821
  188POPC   GL1 2560   2.587   1.204   4.156
  188POPC   GL2 2561   2.957   1.182   4.253
  188POPC   C1A 2562   2.543   1.221   4.573
  188POPC   D2A 2563   2.727   0.969   4.871
  188POPC   C3A 2564   2.417   0.836   5.165
  188POPC   C4A 2565   2.369   0.994   5.591
  188POPC   C1B 2566   3.044   1.451   4.607
  188POPC   C2B 2567   2.969   1.428   5.044
  188POPC   C3B 2568   2.768   1.183   5.340
  188POPC   C4B 2569   2.802   1.238   5.772
  189POPC   NC3 2570   5.631   8.843   3.885
  189POPC   PO4 2571   6.155   8.311   3.870
  189POPC   GL1 2572   5.822   8.407   4.209
  189POPC   GL2 2573   5.711   8.735   4.363
  189POPC   C1A 2574   5.820   8.348   4.661
  189POPC   D2A 2575   6.020   8.436   5.045
  189POPC   C3A 2576   5.828   8.180   5.340
  189POPC   C4A 2577   5.603   8.304   5.676
  189POPC   C1B 2578   5.507   9.000   4.692
  189POPC   C2B 2579   5.693   9.029   5.083
  189POPC   C3B 2580   5.615   8.830   5.460
  189POPC   C4B 2581   5.639   8.988   5.868
  190POPC   NC3 2582   7.334   1.237   3.918
  190POPC   PO4 2583   6.774   0.836   3.886
  190POPC   GL1 2584   7.020   0.955   4.240
  190POPC   GL2 2585   7.029   1.264   4.319
  190POPC   C1A 2586   6.966   0.933   4.710
  190POPC   D2A 2587   7.056   1.113   5.142
  190POPC   C3A 2588   6.897   0.848   5.484
  190POPC   C4A 2589   7.117   0.837   5.921
  190POPC   C1B 2590   7.189   1.382   4.720
  190POPC   C2B 2591   7.083   1.653   4.988
  190POPC   C3B 2592   7.046   1.632   5.391
  190POPC   C4B 2593   7.094   1.273   5.651
  191POPC   NC3 2594   5.844   7.960   3.941
  191POPC   PO4 2595   5.206   8.096   3.944
  191POPC   GL1 2596   5.451   8.070   4.324
  191POPC   GL2 2597   5.785   7.889   4.430
  191POPC   C1A 2598   5.376   8.025   4.745
  191POPC   D2A 2599   5.114   8.185   5.044
  191POPC   C3A 2600   5.300   8.022   5.377
  191POPC   C4A 2601   5.421   7.740   5.663
  191POPC   C1B 2602   5.850   7.886   4.888
  191POPC   C2B 2603   5.750   7.665   5.264
  191POPC   C3B 2604   5.921   7.727   5.667
  191POPC   C4B 2605   6.119   8.115   5.773
  192POPC   NC3 2606   8.059   4.074   3.633
  192POPC   PO4 2607   7.906   4.661   4.053
  192POPC   GL1 2608   7.915   4.439   4.513
  192POPC   GL2 2609   8.125   4.042   4.536
  192POPC   C1A 2610   7.972   4.337   4.921
  192POPC   D2A 2611   8.154   4.013   5.085
  192POPC   C3A 2612   8.072   4.113   5.474
  192POPC   C4A 2613   7.847   4.247   5.839
  192POPC   C1B 2614   7.761   3.884   4.775
  192POPC   C2B 2615   7.677   3.887   5.206
  192POPC   C3B 2616   7.686   3.810   5.639
  192POPC   C4B 2617   7.679   3.794   6.097
  193POPC   NC3 2618   0.320   0.489   3.674
  193POPC   PO4 2619  10.084   0.418   3.814
  193POPC   GL1 2620   9.984   0.238   4.240
  193POPC   GL2 2621  10.157   0.537   4.325
  193POPC   C1A 2622  10.148  10.485   4.625
  193POPC   D2A 2623  10.324   0.039   5.031
  193POPC   C3A 2624  10.235   0.293   5.380
  193POPC   C4A 2625  10.112   0.168   5.778
  193POPC   C1B 2626   9.922   0.412   4.710
  193POPC   C2B 2627   9.766   0.330   5.133
  193POPC   C3B 2628   9.700   0.347   5.586
  193POPC   C4B 2629   9.847   0.578   5.940
  194POPC   NC3 2630   7.216   8.576   4.021
  194POPC   PO4 2631   6.816   8.998   3.688
  194POPC   GL1 2632   6.866   8.878   4.245
  194POPC   GL2 2633   7.160   8.681   4.492
  194POPC   C1A 2634   6.788   8.847   4.729
  194POPC   D2A 2635   7.133   8.765   5.047
  194POPC   C3A 2636   7.060   8.576   5.474
  194POPC   C4A 2637   6.836   8.678   5.858
  194POPC   C1B 2638   7.497   8.463   4.681
  194POPC   C2B 2639   7.750   8.501   5.038
  194POPC   C3B 2640   7.605   8.477   5.444
  194POPC   C4B 2641   7.485   8.765   5.746
  195POPC   NC3 2642   3.818   9.573   3.964
  195POPC   PO4 2643   4.445   9.700   3.885
  195POPC   GL1 2644   4.399   9.344   4.213
  195POPC   GL2 2645   4.121   9.170   4.237
  195POPC   C1A 2646   4.449   9.103   4.641
  195POPC   D2A 2647   4.219   9.182   5.059
  195POPC   C3A 2648   4.445   9.132   5.456
  195POPC   C4A 2649   4.395   9.236   5.916
  195POPC   C1B 2650   4.035   9.416   4.640
  195POPC   C2B 2651   4.083   9.666   5.080
  195POPC   C3B 2652   4.138   9.552   5.519
  195POPC   C4B 2653   3.968   9.150   5.661
  196POPC   NC3 2654   8.761   0.426   3.888
  196POPC   PO4 2655   9.144   0.991   3.980
  196POPC   GL1 2656   9.128   0.653   4.252
  196POPC   GL2 2657   8.970   0.344   4.330
  196POPC   C1A 2658   9.130   0.776   4.661
  196POPC   D2A 2659   8.927   0.850   5.016
  196POPC   C3A 2660   8.980   0.678   5.397
  196POPC   C4A 2661   8.614   0.603   5.599
  196POPC   C1B 2662   8.712   0.479   4.662
  196POPC   C2B 2663   8.671   0.383   5.096
  196POPC   C3B 2664   8.784   0.148   5.453
  196POPC   C4B 2665   8.600   0.164   5.854
  197POPC   NC3 2666  10.085   2.759   3.996
  197POPC   PO4 2667   9.892   2.201   3.702
  197POPC   GL1 2668  10.084   2.281   4.164
  197POPC   GL2 2669  10.313   2.483   4.404
  197POPC   C1A 2670   9.918   2.317   4.652
  197POPC   D2A 2671  10.048   2.660   4.940
  197POPC   C3A 2672   9.954   2.605   5.381
  197POPC   C4A 2673  10.057   2.834   5.745
  197POPC   C1B 2674  10.382   2.892   4.582
  197POPC   C2B 2675  10.408   3.043   5.001
  197POPC   C3B 2676  10.460   2.810   5.362
  197POPC   C4B 2677   0.072   2.917   5.754
  198POPC   NC3 2678   8.339   3.495   3.791
  198POPC   PO4 2679   8.986   3.215   3.872
  198POPC   GL1 2680   8.711   3.362   4.187
  198POPC   GL2 2681   8.813   3.687   4.194
  198POPC   C1A 2682   8.738   3.263   4.627
  198POPC   D2A 2683   8.558   3.160   5.033
  198POPC   C3A 2684   8.588   3.353   5.408
  198POPC   C4A 2685   8.842   3.265   5.755
  198POPC   C1B 2686   8.557   3.735   4.577
  198POPC   C2B 2687   8.543   3.699   5.001
  198POPC   C3B 2688   8.539   3.878   5.393
  198POPC   C4B 2689   8.633   3.712   5.786
  199POPC   NC3 2690   7.890   7.139   3.815
  199POPC   PO4 2691   8.530   7.213   3.814
  199POPC   GL1 2692   8.203   7.267   4.216
  199POPC   GL2 2693   7.838   7.195   4.324
  199POPC   C1A 2694   8.174   7.231   4.717
  199POPC   D2A 2695   7.953   7.063   5.109
  199POPC   C3A 2696   7.974   7.285   5.506
  199POPC   C4A 2697   8.062   7.256   5.963
  199POPC   C1B 2698   7.634   7.191   4.729
  199POPC   C2B 2699   7.562   7.429   5.127
  199POPC   C3B 2700   7.323   7.425   5.505
  199POPC   C4B 2701   7.576   7.287   5.834
  200POPC   NC3 2702   0.439   7.815   3.828
  200POPC   PO4 2703   0.052   8.310   3.987
  200POPC   GL1 2704   0.253   8.015   4.292
  200POPC   GL2 2705   0.229   7.663   4.275
  200POPC   C1A 2706   0.330   8.069   4.723
  200POPC   D2A 2707   0.505   8.022   5.140
  200POPC   C3A 2708   0.244   8.196   5.403
  200POPC   C4A 2709   0.053   8.178   5.785
  200POPC   C1B 2710   0.276   7.563   4.676
  200POPC   C2B 2711   0.372   7.502   5.087
  200POPC   C3B 2712   0.280   7.684   5.485
  200POPC   C4B 2713   0.578   7.977   5.703
  201POPC   NC3 2714   7.247   7.201   3.803
  201POPC   PO4 2715   7.647   6.806   4.048
  201POPC   GL1 2716   7.317   7.015   4.283
  201POPC   GL2 2717   7.345   7.379   4.272
  201POPC   C1A 2718   7.174   6.891   4.688
  201POPC   D2A 2719   7.450   6.805   5.043
  201POPC   C3A 2720   7.541   6.952   5.454
  201POPC   C4A 2721   7.333   6.848   5.873
  201POPC   C1B 2722   7.173   7.390   4.673
  201POPC   C2B 2723   7.113   7.199   5.090
  201POPC   C3B 2724   7.017   7.009   5.492
  201POPC   C4B 2725   7.006   7.240   5.872
  202POPC   NC3 2726   8.847  10.224   3.975
  202POPC   PO4 2727   8.405   9.724   3.883
  202POPC   GL1 2728   8.529  10.007   4.303
  202POPC   GL2 2729   8.605  10.395   4.389
  202POPC   C1A 2730   8.670  10.060   4.755
  202POPC   D2A 2731   8.498  10.400   5.044
  202POPC   C3A 2732   8.457  10.240   5.484
  202POPC   C4A 2733   8.492   9.838   5.744
  202POPC   C1B 2734   8.934  10.495   4.677
  202POPC   C2B 2735   9.007  10.392   5.071
  202POPC   C3B 2736   9.134  10.282   5.447
  202POPC   C4B 2737   8.873  10.222   5.801
  203POPC   NC3 2738   9.538   5.642   3.682
  203POPC   PO4 2739   9.605   6.219   4.095
  203POPC   GL1 2740   9.665   6.057   4.422
  203POPC   GL2 2741   9.565   5.738   4.316
  203POPC   C1A 2742   9.707   5.918   4.798
  203POPC   D2A 2743   9.517   5.840   5.141
  203POPC   C3A 2744   9.574   6.037   5.492
  203POPC   C4A 2745   9.713   6.178   5.858
  203POPC   C1B 2746   9.286   5.582   4.683
  203POPC   C2B 2747   9.422   5.357   5.059
  203POPC   C3B 2748   9.312   5.463   5.473
  203POPC   C4B 2749   9.394   5.701   5.818
  204POPC   NC3 2750   6.433   1.922   3.919
  204POPC   PO4 2751   6.061   2.436   3.859
  204POPC   GL1 2752   6.100   2.225   4.264
  204POPC   GL2 2753   6.441   2.105   4.375
  204POPC   C1A 2754   6.126   2.264   4.728
  204POPC   D2A 2755   6.173   2.048   5.102
  204POPC   C3A 2756   6.233   2.264   5.471
  204POPC   C4A 2757   6.156   2.105   5.869
  204POPC   C1B 2758   6.452   1.857   4.711
  204POPC   C2B 2759   6.605   1.787   5.139
  204POPC   C3B 2760   6.458   1.788   5.570
  204POPC   C4B 2761   6.759   1.602   5.848
  205POPC   NC3 2762   1.865   3.331   3.790
  205POPC   PO4 2763   1.581   2.806   3.794
  205POPC   GL1 2764   1.706   3.073   4.214
  205POPC   GL2 2765   1.632   3.457   4.273
  205POPC   C1A 2766   1.647   3.181   4.692
  205POPC   D2A 2767   1.841   3.032   5.075
  205POPC   C3A 2768   1.829   3.268   5.427
  205POPC   C4A 2769   2.198   3.138   5.630
  205POPC   C1B 2770   1.975   3.566   4.640
  205POPC   C2B 2771   2.005   3.774   5.073
  205POPC   C3B 2772   2.137   3.661   5.492
  205POPC   C4B 2773   2.002   3.540   5.889
  206POPC   NC3 2774   6.338   3.526   3.898
  206POPC   PO4 2775   6.817   3.843   3.852
  206POPC   GL1 2776   6.687   3.671   4.286
  206POPC   GL2 2777   6.400   3.456   4.386
  206POPC   C1A 2778   6.577   3.738   4.755
  206POPC   D2A 2779   6.567   3.498   5.130
  206POPC   C3A 2780   6.537   3.715   5.570
  206POPC   C4A 2781   6.435   3.854   6.030
  206POPC   C1B 2782   6.209   3.330   4.768
  206POPC   C2B 2783   6.172   3.169   5.193
  206POPC   C3B 2784   6.465   3.196   5.528
  206POPC   C4B 2785   6.265   3.403   5.852
  207POPC   NC3 2786   9.825   7.339   3.762
  207POPC   PO4 2787   0.072   7.507   3.817
  207POPC   GL1 2788  10.331   7.352   4.167
  207POPC   GL2 2789  10.111   7.063   4.204
  207POPC   C1A 2790  10.370   7.272   4.614
  207POPC   D2A 2791  10.365   7.116   5.050
  207POPC   C3A 2792  10.295   7.410   5.395
  207POPC   C4A 2793  10.459   7.357   5.807
  207POPC   C1B 2794   9.853   7.223   4.538
  207POPC   C2B 2795   9.712   7.143   4.960
  207POPC   C3B 2796   9.861   7.128   5.372
  207POPC   C4B 2797  10.054   7.066   5.761
  208POPC   NC3 2798   0.142  10.006   3.721
  208POPC   PO4 2799   0.468   0.097   3.908
  208POPC   GL1 2800   0.290  10.390   4.244
  208POPC   GL2 2801   0.395  10.073   4.198
  208POPC   C1A 2802   0.202  10.487   4.679
  208POPC   D2A 2803   0.470  10.473   5.043
  208POPC   C3A 2804   0.439  10.223   5.427
  208POPC   C4A 2805   0.265  10.239   5.826
  208POPC   C1B 2806   0.509  10.078   4.642
  208POPC   C2B 2807   0.428   9.835   5.015
  208POPC   C3B 2808   0.253   9.725   5.428
  208POPC   C4B 2809   0.411   9.759   5.851
  209POPC   NC3 2810   4.045   0.386   3.951
  209POPC   PO4 2811   4.367   0.843   3.694
  209POPC   GL1 2812   4.366   0.665   4.213
  209POPC   GL2 2813   4.318   0.320   4.372
  209POPC   C1A 2814   4.319   0.738   4.679
  209POPC   D2A 2815   4.128   0.692   5.105
  209POPC   C3A 2816   4.355   0.627   5.441
  209POPC   C4A 2817   4.369   0.551   5.823
  209POPC   C1B 2818   4.018   0.308   4.716
  209POPC   C2B 2819   4.129   0.183   5.144
  209POPC   C3B 2820   3.938   0.349   5.515
  209POPC   C4B 2821   3.975   0.261   5.943
  210POPC   NC3 2822   1.975   8.123   3.832
  210POPC   PO4 2823   2.078   7.440   3.777
  210POPC   GL1 2824   2.131   7.625   4.205
  210POPC   GL2 2825   2.061   8.003   4.319
  210POPC   C1A 2826   2.321   7.633   4.613
  210POPC   D2A 2827   2.441   7.770   5.033
  210POPC   C3A 2828   2.243   7.624   5.413
  210POPC   C4A 2829   2.100   7.535   5.820
  210POPC   C1B 2830   1.957   7.961   4.756
  210POPC   C2B 2831   2.021   8.019   5.188
  210POPC   C3B 2832   1.793   7.865   5.512
  210POPC   C4B 2833   1.688   7.844   5.935
  211POPC   NC3 2834   1.724   9.720   3.994
  211POPC   PO4 2835   1.986  10.354   3.774
  211POPC   GL1 2836   1.866  10.221   4.165
  211POPC   GL2 2837   1.502  10.307   4.178
  211POPC   C1A 2838   2.040  10.229   4.596
  211POPC   D2A 2839   2.172  10.387   5.021
  211POPC   C3A 2840   2.062  10.146   5.391
  211POPC   C4A 2841   1.872  10.301   5.748
  211POPC   C1B 2842   1.500  10.230   4.616
  211POPC   C2B 2843   1.721  10.095   4.983
  211POPC   C3B 2844   1.556  10.169   5.385
  211POPC   C4B 2845   1.712   9.837   5.686
  212POPC   NC3 2846   2.347   5.650   3.767
  212POPC   PO4 2847   1.714   5.362   3.692
  212POPC   GL1 2848   1.847   5.447   4.154
  212POPC   GL2 2849   1.521   5.472   4.314
  212POPC   C1A 2850   1.980   5.573   4.631
  212POPC   D2A 2851   2.182   5.861   4.986
  212POPC   C3A 2852   2.329   5.775   5.426
  212POPC   C4A 2853   2.183   5.634   5.836
  212POPC   C1B 2854   1.512   5.785   4.653
  212POPC   C2B 2855   1.704   5.768   5.063
  212POPC   C3B 2856   1.828   5.589   5.486
  212POPC   C4B 2857   1.728   5.840   5.835
  213POPC   NC3 2858   3.079   9.494   3.919
  213POPC   PO4 2859   3.753   9.130   3.866
  213POPC   GL1 2860   3.640   9.268   4.328
  213POPC   GL2 2861   3.589   9.641   4.403
  213POPC   C1A 2862   3.592   9.176   4.753
  213POPC   D2A 2863   3.719   9.113   5.160
  213POPC   C3A 2864   3.650   9.469   5.377
  213POPC   C4A 2865   3.513   9.375   5.777
  213POPC   C1B 2866   3.279   9.583   4.699
  213POPC   C2B 2867   3.192   9.332   5.065
  213POPC   C3B 2868   3.144   9.492   5.468
  213POPC   C4B 2869   3.045   9.800   5.793
  214POPC   NC3 2870   1.721   7.156   3.785
  214POPC   PO4 2871   2.213   6.765   3.912
  214POPC   GL1 2872   2.099   6.993   4.247
  214POPC   GL2 2873   1.790   7.131   4.289
  214POPC   C1A 2874   2.141   7.153   4.664
  214POPC   D2A 2875   2.340   7.272   5.024
  214POPC   C3A 2876   2.184   7.107   5.422
  214POPC   C4A 2877   2.056   7.016   5.849
  214POPC   C1B 2878   1.766   7.499   4.597
  214POPC   C2B 2879   1.866   7.536   5.062
  214POPC   C3B 2880   1.738   7.354   5.491
  214POPC   C4B 2881   1.628   7.323   5.946
  215POPC   NC3 2882   1.774   6.440   3.986
  215POPC   PO4 2883   2.369   6.082   3.918
  215POPC   GL1 2884   2.100   6.116   4.237
  215POPC   GL2 2885   2.188   6.448   4.308
  215POPC   C1A 2886   1.912   6.117   4.641
  215POPC   D2A 2887   1.833   6.307   5.044
  215POPC   C3A 2888   1.893   6.091   5.415
  215POPC   C4A 2889   2.116   6.142   5.774
  215POPC   C1B 2890   2.018   6.646   4.656
  215POPC   C2B 2891   2.148   6.733   5.077
  215POPC   C3B 2892   2.080   6.604   5.529
  215POPC   C4B 2893   1.707   6.470   5.757
  216POPC   NC3 2894   4.631   2.111   4.108
  216POPC   PO4 2895   5.262   1.854   4.008
  216POPC   GL1 2896   5.214   2.010   4.382
  216POPC   GL2 2897   4.901   2.113   4.531
  216POPC   C1A 2898   5.207   1.746   4.745
  216POPC   D2A 2899   4.986   1.772   5.121
  216POPC   C3A 2900   5.270   1.637   5.406
  216POPC   C4A 2901   5.401   1.871   5.711
  216POPC   C1B 2902   4.821   2.378   4.889
  216POPC   C2B 2903   4.848   2.428   5.334
  216POPC   C3B 2904   4.922   2.061   5.598
  216POPC   C4B 2905   4.645   1.822   5.824
  217POPC   NC3 2906   7.890   9.985   3.814
  217POPC   PO4 2907   7.591   0.201   3.868
  217POPC   GL1 2908   7.821   0.196   4.271
  217POPC   GL2 2909   8.091  10.442   4.235
  217POPC   C1A 2910   7.757   0.076   4.713
  217POPC   D2A 2911   7.977  10.444   5.089
  217POPC   C3A 2912   7.697  10.365   5.414
  217POPC   C4A 2913   7.570  10.475   5.810
  217POPC   C1B 2914   8.174  10.232   4.635
  217POPC   C2B 2915   8.218   9.966   4.983
  217POPC   C3B 2916   8.109   9.860   5.368
  217POPC   C4B 2917   8.017  10.088   5.714
  218POPC   NC3 2918   4.993   7.684   3.956
  218POPC   PO4 2919   4.595   7.973   4.237
  218POPC   GL1 2920   4.951   7.891   4.440
  218POPC   GL2 2921   4.958   8.229   4.511
  218POPC   C1A 2922   4.950   7.733   4.879
  218POPC   D2A 2923   4.703   7.576   5.243
  218POPC   C3A 2924   4.912   7.546   5.672
  218POPC   C4A 2925   4.817   7.386   6.137
  218POPC   C1B 2926   4.638   8.152   4.847
  218POPC   C2B 2927   4.600   8.073   5.261
  218POPC   C3B 2928   4.850   8.200   5.542
  218POPC   C4B 2929   5.147   8.150   5.875
  219POPC   NC3 2930   2.732   8.586   4.006
  219POPC   PO4 2931   3.199   9.127   4.169
  219POPC   GL1 2932   3.058   8.727   4.346
  219POPC   GL2 2933   2.712   8.798   4.457
  219POPC   C1A 2934   2.932   8.417   4.690
  219POPC   D2A 2935   2.853   8.573   5.062
  219POPC   C3A 2936   2.967   8.420   5.412
  219POPC   C4A 2937   2.961   8.715   5.723
  219POPC   C1B 2938   2.441   8.696   4.814
  219POPC   C2B 2939   2.321   8.838   5.174
  219POPC   C3B 2940   2.488   8.672   5.521
  219POPC   C4B 2941   2.547   8.426   5.865
  220POPC   NC3 2942   6.297   7.174   4.115
  220POPC   PO4 2943   6.886   7.451   3.969
  220POPC   GL1 2944   6.751   7.392   4.391
  220POPC   GL2 2945   6.714   7.055   4.474
  220POPC   C1A 2946   6.702   7.413   4.858
  220POPC   D2A 2947   6.616   7.133   5.200
  220POPC   C3A 2948   6.579   7.294   5.592
  220POPC   C4A 2949   6.491   7.184   6.023
  220POPC   C1B 2950   6.344   7.038   4.774
  220POPC   C2B 2951   6.150   6.905   5.166
  220POPC   C3B 2952   6.278   6.874   5.577
  220POPC   C4B 2953   6.064   7.227   5.722
  221POPC   NC3 2954   0.956   4.568   3.892
  221POPC   PO4 2955   1.154   5.247   4.000
  221POPC   GL1 2956   1.200   5.065   4.341
  221POPC   GL2 2957   1.244   4.739   4.281
  221POPC   C1A 2958   1.378   5.018   4.706
  221POPC   D2A 2959   1.535   5.314   4.939
  221POPC   C3A 2960   1.465   5.220   5.347
  221POPC   C4A 2961   1.519   4.959   5.719
  221POPC   C1B 2962   0.944   4.724   4.621
  221POPC   C2B 2963   0.973   4.955   5.016
  221POPC   C3B 2964   1.120   4.822   5.421
  221POPC   C4B 2965   1.031   5.100   5.762
  222POPC   NC3 2966   2.858   0.562   3.911
  222POPC   PO4 2967   2.257   0.220   4.094
  222POPC   GL1 2968   2.568   0.318   4.389
  222POPC   GL2 2969   2.935   0.281   4.309
  222POPC   C1A 2970   2.446   0.291   4.816
  222POPC   D2A 2971   2.371   0.316   5.232
  222POPC   C3A 2972   2.336   0.054   5.537
  222POPC   C4A 2973   2.426   0.301   5.866
  222POPC   C1B 2974   2.963   0.527   4.687
  222POPC   C2B 2975   2.820   0.513   5.116
  222POPC   C3B 2976   2.784   0.684   5.521
  222POPC   C4B 2977   2.760   0.667   5.961
  223POPC   NC3 2978   8.492   5.744   3.930
  223POPC   PO4 2979   9.187   5.618   4.000
  223POPC   GL1 2980   8.858   5.599   4.289
  223POPC   GL2 2981   8.708   5.908   4.375
  223POPC   C1A 2982   8.722   5.475   4.685
  223POPC   D2A 2983   8.907   5.270   5.012
  223POPC   C3A 2984   8.809   5.307   5.423
  223POPC   C4A 2985   8.833   5.418   5.807
  223POPC   C1B 2986   8.888   5.952   4.791
  223POPC   C2B 2987   9.030   5.739   5.143
  223POPC   C3B 2988   8.968   5.868   5.557
  223POPC   C4B 2989   8.581   5.974   5.782
  224POPC   NC3 2990   3.319  10.329   3.933
  224POPC   PO4 2991   2.762   9.892   3.847
  224POPC   GL1 2992   3.132   9.899   4.230
  224POPC   GL2 2993   3.430  10.141   4.394
  224POPC   C1A 2994   3.037  10.023   4.667
  224POPC   D2A 2995   3.213  10.243   5.002
  224POPC   C3A 2996   3.227  10.117   5.434
  224POPC   C4A 2997   3.246  10.273   5.886
  224POPC   C1B 2998   3.714  10.349   4.701
  224POPC   C2B 2999   3.659  10.482   5.126
  224POPC   C3B 3000   3.525   0.042   5.547
  224POPC   C4B 3001   3.753  10.323   5.862
  225POPC   NC3 3002   6.686  10.225   3.939
  225POPC   PO4 3003   6.039  10.036   3.901
  225POPC   GL1 3004   6.263  10.169   4.296
  225POPC   GL2 3005   6.609  10.300   4.416
  225POPC   C1A 3006   6.278  10.164   4.756
  225POPC   D2A 3007   6.162  10.071   5.165
  225POPC   C3A 3008   6.337  10.420   5.429
  225POPC   C4A 3009   6.154   0.036   5.826
  225POPC   C1B 3010   6.812  10.121   4.768
  225POPC   C2B 3011   6.682  10.126   5.158
  225POPC   C3B 3012   6.708   9.914   5.534
  225POPC   C4B 3013   6.630  10.214   5.830
  226POPC   NC3 3014   6.522   8.694   3.920
  226POPC   PO4 3015   6.874   8.179   3.996
  226POPC   GL1 3016   6.681   8.405   4.369
  226POPC   GL2 3017   6.320   8.490   4.341
  226POPC   C1A 3018   6.531   8.438   4.827
  226POPC   D2A 3019   6.631   8.683   5.203
  226POPC   C3A 3020   6.417   8.511   5.543
  226POPC   C4A 3021   6.370   8.475   6.019
  226POPC   C1B 3022   6.145   8.766   4.651
  226POPC   C2B 3023   6.213   8.942   5.053
  226POPC   C3B 3024   6.079   9.024   5.478
  226POPC   C4B 3025   5.982   8.642   5.747
  227POPC   NC3 3026   7.152   1.842   3.853
  227POPC   PO4 3027   6.708   2.340   3.984
  227POPC   GL1 3028   6.947   2.162   4.332
  227POPC   GL2 3029   6.960   1.810   4.390
  227POPC   C1A 3030   6.881   2.072   4.792
  227POPC   D2A 3031   7.078   2.144   5.136
  227POPC   C3A 3032   6.857   2.099   5.534
  227POPC   C4A 3033   7.061   2.213   5.911
  227POPC   C1B 3034   7.353   2.007   4.680
  227POPC   C2B 3035   7.551   1.904   5.077
  227POPC   C3B 3036   7.409   2.013   5.484
  227POPC   C4B 3037   7.268   1.762   5.827
  228POPC   NC3 3038   9.404   1.358   3.990
  228POPC   PO4 3039  10.032   1.454   3.896
  228POPC   GL1 3040   9.804   1.485   4.293
  228POPC   GL2 3041   9.716   1.122   4.319
  228POPC   C1A 3042   9.867   1.359   4.743
  228POPC   D2A 3043   9.818   1.088   5.086
  228POPC   C3A 3044   9.704   1.189   5.476
  228POPC   C4A 3045   9.765   1.512   5.728
  228POPC   C1B 3046   9.386   1.235   4.601
  228POPC   C2B 3047   9.305   1.210   4.995
  228POPC   C3B 3048   9.221   1.142   5.392
  228POPC   C4B 3049   9.295   1.317   5.836
  229POPC   NC3 3050   9.277   5.133   4.026
  229POPC   PO4 3051   9.822   5.284   3.815
  229POPC   GL1 3052   9.753   5.047   4.271
  229POPC   GL2 3053   9.495   4.774   4.306
  229POPC   C1A 3054   9.702   4.927   4.749
  229POPC   D2A 3055   9.674   4.752   5.185
  229POPC   C3A 3056   9.674   5.089   5.475
  229POPC   C4A 3057   9.623   5.222   5.920
  229POPC   C1B 3058   9.201   4.993   4.626
  229POPC   C2B 3059   9.235   4.908   4.989
  229POPC   C3B 3060   9.191   4.956   5.364
  229POPC   C4B 3061   9.187   5.057   5.747
  230POPC   NC3 3062   7.095   0.516   3.798
  230POPC   PO4 3063   7.662   0.826   3.957
  230POPC   GL1 3064   7.411   0.560   4.249
  230POPC   GL2 3065   7.033   0.469   4.322
  230POPC   C1A 3066   7.322   0.547   4.701
  230POPC   D2A 3067   7.132   0.603   5.095
  230POPC   C3A 3068   7.397   0.750   5.435
  230POPC   C4A 3069   7.519   0.532   5.814
  230POPC   C1B 3070   7.015   0.125   4.683
  230POPC   C2B 3071   7.303   0.116   5.035
  230POPC   C3B 3072   7.334   0.235   5.425
  230POPC   C4B 3073   7.056   0.407   5.682
  231POPC   NC3 3074   1.944   4.339   3.995
  231POPC   PO4 3075   1.936   3.726   3.976
  231POPC   GL1 3076   1.970   3.964   4.339
  231POPC   GL2 3077   1.616   4.017   4.287
  231POPC   C1A 3078   2.105   4.253   4.697
  231POPC   D2A 3079   2.095   4.494   5.107
  231POPC   C3A 3080   2.082   4.186   5.464
  231POPC   C4A 3081   2.291   4.002   5.832
  231POPC   C1B 3082   1.661   3.978   4.746
  231POPC   C2B 3083   1.648   4.279   5.095
  231POPC   C3B 3084   1.631   4.377   5.561
  231POPC   C4B 3085   1.747   3.968   5.775
  232POPC   NC3 3086   2.447   7.174   3.896
  232POPC   PO4 3087   2.896   7.595   3.800
  232POPC   GL1 3088   2.720   7.448   4.266
  232POPC   GL2 3089   2.580   7.115   4.381
  232POPC   C1A 3090   2.771   7.404   4.739
  232POPC   D2A 3091   2.939   7.333   5.135
  232POPC   C3A 3092   2.650   7.322   5.421
  232POPC   C4A 3093   2.517   7.240   5.785
  232POPC   C1B 3094   2.548   6.858   4.755
  232POPC   C2B 3095   2.624   6.872   5.198
  232POPC   C3B 3096   2.571   6.760   5.641
  232POPC   C4B 3097   2.484   6.865   6.108
  233POPC   NC3 3098   4.004   1.322   3.921
  233POPC   PO4 3099   3.284   1.275   3.855
  233POPC   GL1 3100   3.575   1.248   4.180
  233POPC   GL2 3101   3.534   0.952   4.318
  233POPC   C1A 3102   3.671   1.364   4.590
  233POPC   D2A 3103   3.483   1.317   5.003
  233POPC   C3A 3104   3.673   1.413   5.420
  233POPC   C4A 3105   3.622   1.202   5.788
  233POPC   C1B 3106   3.243   0.986   4.651
  233POPC   C2B 3107   3.208   0.865   5.066
  233POPC   C3B 3108   3.249   1.085   5.433
  233POPC   C4B 3109   3.194   0.876   5.789
  234POPC   NC3 3110   2.071   8.700   3.724
  234POPC   PO4 3111   2.244   8.849   4.272
  234POPC   GL1 3112   1.902   8.790   4.551
  234POPC   GL2 3113   1.742   8.428   4.554
  234POPC   C1A 3114   1.854   8.959   4.948
  234POPC   D2A 3115   1.777   8.964   5.349
  234POPC   C3A 3116   2.138   9.088   5.596
  234POPC   C4A 3117   2.209   8.811   5.926
  234POPC   C1B 3118   1.987   8.460   4.933
  234POPC   C2B 3119   1.984   8.494   5.386
  234POPC   C3B 3120   1.862   8.410   5.812
  234POPC   C4B 3121   2.152   8.366   6.196
  235POPC   NC3 3122   6.853   2.754   4.145
  235POPC   PO4 3123   7.419   3.046   3.891
  235POPC   GL1 3124   7.354   2.885   4.277
  235POPC   GL2 3125   7.321   2.524   4.239
  235POPC   C1A 3126   7.260   2.980   4.687
  235POPC   D2A 3127   7.454   2.934   5.070
  235POPC   C3A 3128   7.271   3.005   5.480
  235POPC   C4A 3129   7.362   2.960   5.920
  235POPC   C1B 3130   7.142   2.487   4.676
  235POPC   C2B 3131   7.021   2.659   5.062
  235POPC   C3B 3132   7.120   2.524   5.477
  235POPC   C4B 3133   6.953   2.698   5.841
  236POPC   NC3 3134   7.183   3.591   3.811
  236POPC   PO4 3135   7.805   3.688   3.845
  236POPC   GL1 3136   7.423   3.457   4.213
  236POPC   GL2 3137   7.048   3.289   4.201
  236POPC   C1A 3138   7.346   3.481   4.632
  236POPC   D2A 3139   7.573   3.417   4.987
  236POPC   C3A 3140   7.421   3.475   5.358
  236POPC   C4A 3141   7.359   3.458   5.782
  236POPC   C1B 3142   6.845   3.283   4.624
  236POPC   C2B 3143   7.029   3.260   5.052
  236POPC   C3B 3144   6.938   3.407   5.469
  236POPC   C4B 3145   6.892   3.202   5.826
  237POPC   NC3 3146   2.388   3.645   3.994
  237POPC   PO4 3147   3.025   3.843   3.975
  237POPC   GL1 3148   2.774   3.652   4.338
  237POPC   GL2 3149   2.576   3.341   4.343
  237POPC   C1A 3150   2.486   3.789   4.690
  237POPC   D2A 3151   2.497   3.628   5.127
  237POPC   C3A 3152   2.627   3.804   5.516
  237POPC   C4A 3153   2.835   3.786   5.894
  237POPC   C1B 3154   2.582   3.281   4.769
  237POPC   C2B 3155   2.418   3.138   5.161
  237POPC   C3B 3156   2.657   3.298   5.522
  237POPC   C4B 3157   2.497   3.419   5.919
  238POPC   NC3 3158   9.630   0.444   3.775
  238POPC   PO4 3159   9.136   0.098   3.893
  238POPC   GL1 3160   9.468   0.249   4.219
  238POPC   GL2 3161   9.634   0.610   4.274
  238POPC   C1A 3162   9.415   0.333   4.653
  238POPC   D2A 3163   9.152   0.371   4.965
  238POPC   C3A 3164   9.278   0.259   5.340
  238POPC   C4A 3165   9.155   0.346   5.752
  238POPC   C1B 3166   9.624   0.805   4.719
  238POPC   C2B 3167   9.453   0.738   5.157
  238POPC   C3B 3168   9.445   0.765   5.620
  238POPC   C4B 3169   9.300   0.743   6.035
  239POPC   NC3 3170   8.479   8.520   3.997
  239POPC   PO4 3171   9.013   8.931   3.916
  239POPC   GL1 3172   8.954   8.702   4.334
  239POPC   GL2 3173   8.643   8.604   4.457
  239POPC   C1A 3174   8.965   8.640   4.819
  239POPC   D2A 3175   9.039   8.346   5.140
  239POPC   C3A 3176   8.982   8.615   5.494
  239POPC   C4A 3177   8.861   8.772   5.913
  239POPC   C1B 3178   8.417   8.627   4.818
  239POPC   C2B 3179   8.539   8.478   5.207
  239POPC   C3B 3180   8.480   8.625   5.562
  239POPC   C4B 3181   8.382   8.936   5.775
  240POPC   NC3 3182   1.784   0.218   3.976
  240POPC   PO4 3183   1.766   0.887   3.775
  240POPC   GL1 3184   1.974   0.660   4.148
  240POPC   GL2 3185   1.727   0.579   4.381
  240POPC   C1A 3186   2.191   0.676   4.594
  240POPC   D2A 3187   1.966   0.544   5.006
  240POPC   C3A 3188   2.049   0.620   5.461
  240POPC   C4A 3189   2.121   0.718   5.922
  240POPC   C1B 3190   1.851   0.211   4.634
  240POPC   C2B 3191   1.661   0.092   5.011
  240POPC   C3B 3192   1.849   0.153   5.382
  240POPC   C4B 3193   1.920   0.277   5.812
  241POPC   NC3 3194   4.253   3.638   3.927
  241POPC   PO4 3195   4.686   3.263   3.943
  241POPC   GL1 3196   4.459   3.348   4.330
  241POPC   GL2 3197   4.143   3.211   4.377
  241POPC   C1A 3198   4.358   3.430   4.801
  241POPC   D2A 3199   4.453   3.311   5.264
  241POPC   C3A 3200   4.405   3.621   5.666
  241POPC   C4A 3201   4.248   4.021   5.898
  241POPC   C1B 3202   4.046   3.011   4.750
  241POPC   C2B 3203   3.940   3.062   5.190
  241POPC   C3B 3204   4.040   3.287   5.552
  241POPC   C4B 3205   3.897   3.577   5.854
  242POPC   NC3 3206   0.405   8.718   3.973
  242POPC   PO4 3207   0.784   8.179   3.804
  242POPC   GL1 3208   0.782   8.427   4.221
  242POPC   GL2 3209   0.459   8.459   4.403
  242POPC   C1A 3210   0.815   8.757   4.599
  242POPC   D2A 3211   0.565   8.932   4.984
  242POPC   C3A 3212   0.667   8.851   5.458
  242POPC   C4A 3213   0.487   8.488   5.742
  242POPC   C1B 3214   0.141   8.743   4.591
  242POPC   C2B 3215   0.041   8.878   4.987
  242POPC   C3B 3216   0.196   8.711   5.348
  242POPC   C4B 3217   0.149   8.851   5.746
  243POPC   NC3 3218   1.248   2.576   4.012
  243POPC   PO4 3219   1.351   3.303   3.817
  243POPC   GL1 3220   1.197   3.096   4.188
  243POPC   GL2 3221   1.109   3.406   4.316
  243POPC   C1A 3222   1.172   2.990   4.631
  243POPC   D2A 3223   0.896   3.215   4.918
  243POPC   C3A 3224   0.920   3.152   5.336
  243POPC   C4A 3225   0.903   3.176   5.774
  243POPC   C1B 3226   1.298   3.563   4.688
  243POPC   C2B 3227   1.352   3.400   5.107
  243POPC   C3B 3228   1.223   3.490   5.532
  243POPC   C4B 3229   1.519   3.456   5.815
  244POPC   NC3 3230   6.039   2.820   4.112
  244POPC   PO4 3231   5.475   2.824   3.891
  244POPC   GL1 3232   5.516   2.834   4.328
  244POPC   GL2 3233   5.661   2.497   4.308
  244POPC   C1A 3234   5.466   3.005   4.782
  244POPC   D2A 3235   5.713   2.868   5.190
  244POPC   C3A 3236   5.704   3.022   5.607
  244POPC   C4A 3237   5.372   3.175   5.880
  244POPC   C1B 3238   5.745   2.585   4.752
  244POPC   C2B 3239   5.775   2.363   5.144
  244POPC   C3B 3240   5.776   2.468   5.602
  244POPC   C4B 3241   6.046   2.576   5.986
  245POPC   NC3 3242   0.225   4.506   3.952
  245POPC   PO4 3243   0.751   4.948   3.737
  245POPC   GL1 3244   0.720   5.005   4.190
  245POPC   GL2 3245   0.507   4.790   4.393
  245POPC   C1A 3246   0.688   5.190   4.625
  245POPC   D2A 3247   0.472   5.063   4.999
  245POPC   C3A 3248   0.633   4.973   5.411
  245POPC   C4A 3249   0.645   4.654   5.693
  245POPC   C1B 3250   0.123   4.871   4.685
  245POPC   C2B 3251   0.054   4.776   5.126
  245POPC   C3B 3252   0.149   4.812   5.561
  245POPC   C4B 3253   0.196   5.111   5.875
  246POPC   NC3 3254   4.317  10.141   3.917
  246POPC   PO4 3255   3.639   9.999   3.953
  246POPC   GL1 3256   3.938  10.049   4.259
  246POPC   GL2 3257   4.044  10.399   4.258
  246POPC   C1A 3258   3.955   9.911   4.657
  246POPC   D2A 3259   3.621   9.899   4.969
  246POPC   C3A 3260   3.768  10.019   5.384
  246POPC   C4A 3261   3.569   9.863   5.733
  246POPC   C1B 3262   4.226  10.339   4.659
  246POPC   C2B 3263   4.425  10.058   4.970
  246POPC   C3B 3264   4.307  10.047   5.389
  246POPC   C4B 3265   4.196  10.417   5.621
  247POPC   NC3 3266   6.222   9.600   4.001
  247POPC   PO4 3267   6.809   9.824   4.107
  247POPC   GL1 3268   6.530   9.777   4.467
  247POPC   GL2 3269   6.265   9.536   4.502
  247POPC   C1A 3270   6.466   9.724   4.926
  247POPC   D2A 3271   6.342   9.409   5.198
  247POPC   C3A 3272   6.252   9.578   5.548
  247POPC   C4A 3273   6.214   9.988   5.659
  247POPC   C1B 3274   6.537   9.266   4.732
  247POPC   C2B 3275   6.792   9.193   5.126
  247POPC   C3B 3276   6.698   9.294   5.581
  247POPC   C4B 3277   6.668   9.292   6.068
  248POPC   NC3 3278   0.825   7.015   4.142
  248POPC   PO4 3279   1.444   6.810   3.950
  248POPC   GL1 3280   1.289   7.050   4.329
  248POPC   GL2 3281   1.103   7.402   4.339
  248POPC   C1A 3282   1.151   7.033   4.751
  248POPC   D2A 3283   1.270   6.974   5.166
  248POPC   C3A 3284   0.907   6.932   5.389
  248POPC   C4A 3285   0.879   7.020   5.794
  248POPC   C1B 3286   1.235   7.548   4.757
  248POPC   C2B 3287   1.356   7.599   5.194
  248POPC   C3B 3288   1.218   7.343   5.540
  248POPC   C4B 3289   1.373   6.920   5.704
  249POPC   NC3 3290   4.110   7.213   3.960
  249POPC   PO4 3291   4.622   7.482   3.785
  249POPC   GL1 3292   4.493   7.465   4.245
  249POPC   GL2 3293   4.176   7.326   4.437
  249POPC   C1A 3294   4.577   7.404   4.717
  249POPC   D2A 3295   4.439   7.080   5.022
  249POPC   C3A 3296   4.314   7.259   5.387
  249POPC   C4A 3297   4.504   7.251   5.766
  249POPC   C1B 3298   4.025   6.998   4.733
  249POPC   C2B 3299   3.904   7.029   5.195
  249POPC   C3B 3300   4.143   6.810   5.543
  249POPC   C4B 3301   4.576   6.739   5.712
  250POPC   NC3 3302   4.787   8.315   3.987
  250POPC   PO4 3303   4.732   8.961   3.977
  250POPC   GL1 3304   4.904   8.716   4.315
  250POPC   GL2 3305   5.230   8.551   4.196
  250POPC   C1A 3306   4.906   8.767   4.768
  250POPC   D2A 3307   4.816   8.571   5.157
  250POPC   C3A 3308   4.806   8.784   5.586
  250POPC   C4A 3309   4.777   8.905   6.047
  250POPC   C1B 3310   5.339   8.520   4.636
  250POPC   C2B 3311   5.482   8.532   5.061
  250POPC   C3B 3312   5.224   8.530   5.447
  250POPC   C4B 3313   5.211   8.651   5.888
  251POPC   NC3 3314   7.766   5.056   4.264
  251POPC   PO4 3315   8.242   5.308   3.893
  251POPC   GL1 3316   8.273   5.183   4.315
  251POPC   GL2 3317   8.279   4.841   4.353
  251POPC   C1A 3318   8.177   5.313   4.729
  251POPC   D2A 3319   7.883   5.117   5.074
  251POPC   C3A 3320   7.865   5.228   5.516
  251POPC   C4A 3321   7.951   5.278   5.942
  251POPC   C1B 3322   8.111   4.817   4.746
  251POPC   C2B 3323   8.234   4.724   5.111
  251POPC   C3B 3324   7.973   4.628   5.433
  251POPC   C4B 3325   7.926   4.757   5.834
  252POPC   NC3 3326   7.560   9.043   3.752
  252POPC   PO4 3327   8.096   8.580   3.714
  252POPC   GL1 3328   7.882   8.777   4.111
  252POPC   GL2 3329   8.149   8.702   4.324
  252POPC   C1A 3330   7.792   8.856   4.614
  252POPC   D2A 3331   8.030   9.035   4.969
  252POPC   C3A 3332   8.000   8.880   5.406
  252POPC   C4A 3333   7.890   9.054   5.852
  252POPC   C1B 3334   8.028   8.381   4.605
  252POPC   C2B 3335   8.145   8.171   4.987
  252POPC   C3B 3336   8.093   8.314   5.402
  252POPC   C4B 3337   8.021   8.553   5.795
  253POPC   NC3 3338   8.793   1.322   3.957
  253POPC   PO4 3339   8.369   0.766   3.831
  253POPC   GL1 3340   8.408   1.082   4.199
  253POPC   GL2 3341   8.722   0.965   4.354
  253POPC   C1A 3342   8.410   1.407   4.575
  253POPC   D2A 3343   8.453   1.677   4.972
  253POPC   C3A 3344   8.396   1.473   5.422
  253POPC   C4A 3345   8.419   1.061   5.685
  253POPC   C1B 3346   8.882   1.260   4.680
  253POPC   C2B 3347   8.799   1.328   5.124
  253POPC   C3B 3348   8.866   1.413   5.566
  253POPC   C4B 3349   8.906   1.006   5.826
  254POPC   NC3 3350   1.349   5.627   3.822
  254POPC   PO4 3351   0.730   5.945   3.782
  254POPC   GL1 3352   0.982   5.985   4.136
  254POPC   GL2 3353   0.991   5.650   4.243
  254POPC   C1A 3354   1.053   6.019   4.596
  254POPC   D2A 3355   0.811   6.033   4.983
  254POPC   C3A 3356   0.964   6.006   5.386
  254POPC   C4A 3357   0.970   5.735   5.764
  254POPC   C1B 3358   1.105   5.480   4.651
  254POPC   C2B 3359   1.145   5.633   5.060
  254POPC   C3B 3360   1.362   5.726   5.432
  254POPC   C4B 3361   1.404   5.467   5.783
  255POPC   NC3 3362   7.221   9.575   3.986
  255POPC   PO4 3363   7.357   8.992   4.148
  255POPC   GL1 3364   7.221   9.277   4.395
  255POPC   GL2 3365   6.880   9.378   4.344
  255POPC   C1A 3366   7.172   9.186   4.769
  255POPC   D2A 3367   7.315   9.319   5.109
  255POPC   C3A 3368   7.194   9.086   5.449
  255POPC   C4A 3369   7.094   9.114   5.847
  255POPC   C1B 3370   6.927   9.614   4.716
  255POPC   C2B 3371   6.953   9.691   5.119
  255POPC   C3B 3372   7.125   9.599   5.494
  255POPC   C4B 3373   6.988   9.632   5.906
  256POPC   NC3 3374   0.425   3.756   4.134
  256POPC   PO4 3375   0.726   3.255   3.954
  256POPC   GL1 3376   0.433   3.247   4.264
  256POPC   GL2 3377   0.636   3.437   4.466
  256POPC   C1A 3378   0.221   3.268   4.655
  256POPC   D2A 3379   0.383   3.476   5.019
  256POPC   C3A 3380   0.207   3.330   5.406
  256POPC   C4A 3381   0.418   3.283   5.787
  256POPC   C1B 3382   0.797   3.687   4.756
  256POPC   C2B 3383   0.903   3.659   5.162
  256POPC   C3B 3384   0.695   3.594   5.486
  256POPC   C4B 3385   0.808   3.698   5.882
  257POPC   NC3 3386   7.237   0.067   4.114
  257POPC   PO4 3387   7.445   9.971   3.963
  257POPC   GL1 3388   7.263   9.849   4.392
  257POPC   GL2 3389   7.097  10.152   4.358
  257POPC   C1A 3390   7.404   9.742   4.822
  257POPC   D2A 3391   7.697   9.982   5.066
  257POPC   C3A 3392   7.597   9.848   5.485
  257POPC   C4A 3393   7.264  10.031   5.741
  257POPC   C1B 3394   7.336  10.222   4.737
  257POPC   C2B 3395   7.215  10.133   5.190
  257POPC   C3B 3396   6.973  10.387   5.488
  257POPC   C4B 3397   7.077  10.467   5.911
  258POPC   NC3 3398   0.229   3.793   3.636
  258POPC   PO4 3399   0.709   4.113   3.961
  258POPC   GL1 3400   0.507   4.233   4.347
  258POPC   GL2 3401   0.194   4.404   4.450
  258POPC   C1A 3402   0.369   4.006   4.715
  258POPC   D2A 3403   0.537   4.002   5.087
  258POPC   C3A 3404   0.255   3.858   5.348
  258POPC   C4A 3405   0.291   3.761   5.742
  258POPC   C1B 3406   0.477   4.519   4.823
  258POPC   C2B 3407   0.737   4.472   5.193
  258POPC   C3B 3408   0.702   4.149   5.549
  258POPC   C4B 3409   0.304   4.265   5.688
  259POPC   NC3 3410   9.184   7.404   3.745
  259POPC   PO4 3411   9.683   7.720   3.983
  259POPC   GL1 3412   9.410   7.440   4.213
  259POPC   GL2 3413   9.493   7.103   4.192
  259POPC   C1A 3414   9.142   7.472   4.580
  259POPC   D2A 3415   9.194   7.540   5.005
  259POPC   C3A 3416   9.430   7.406   5.338
  259POPC   C4A 3417   9.276   7.494   5.752
  259POPC   C1B 3418   9.339   7.001   4.642
  259POPC   C2B 3419   9.327   6.763   5.063
  259POPC   C3B 3420   9.297   6.927   5.485
  259POPC   C4B 3421   9.556   7.075   5.773
  260POPC   NC3 3422   2.769   2.553   3.854
  260POPC   PO4 3423   2.299   3.131   3.904
  260POPC   GL1 3424   2.418   2.855   4.266
  260POPC   GL2 3425   2.570   2.528   4.320
  260POPC   C1A 3426   2.503   2.786   4.734
  260POPC   D2A 3427   2.838   2.881   5.023
  260POPC   C3A 3428   2.675   2.792   5.438
  260POPC   C4A 3429   2.623   2.886   5.861
  260POPC   C1B 3430   2.944   2.539   4.596
  260POPC   C2B 3431   3.239   2.496   4.928
  260POPC   C3B 3432   3.116   2.554   5.332
  260POPC   C4B 3433   2.967   2.511   5.754
  261POPC   NC3 3434   8.889   4.323   3.877
  261POPC   PO4 3435   9.531   3.979   3.908
  261POPC   GL1 3436   9.244   3.991   4.252
  261POPC   GL2 3437   9.202   4.336   4.308
  261POPC   C1A 3438   9.390   3.988   4.685
  261POPC   D2A 3439   9.452   3.756   5.062
  261POPC   C3A 3440   9.372   4.007   5.414
  261POPC   C4A 3441   9.510   3.996   5.822
  261POPC   C1B 3442   9.350   4.494   4.712
  261POPC   C2B 3443   9.218   4.458   5.173
  261POPC   C3B 3444   9.361   4.524   5.603
  261POPC   C4B 3445   9.640   4.456   5.962
  262POPC   NC3 3446   5.058   2.995   3.917
  262POPC   PO4 3447   4.523   2.518   3.892
  262POPC   GL1 3448   4.769   2.605   4.288
  262POPC   GL2 3449   5.118   2.502   4.189
  262POPC   C1A 3450   4.925   2.869   4.684
  262POPC   D2A 3451   4.892   3.012   5.149
  262POPC   C3A 3452   4.765   2.942   5.584
  262POPC   C4A 3453   4.862   3.219   5.987
  262POPC   C1B 3454   5.256   2.491   4.620
  262POPC   C2B 3455   5.251   2.651   5.068
  262POPC   C3B 3456   5.258   2.768   5.517
  262POPC   C4B 3457   5.056   2.748   5.950
  263POPC   NC3 3458   0.275   6.106   3.887
  263POPC   PO4 3459   0.637   6.705   3.873
  263POPC   GL1 3460   0.602   6.370   4.167
  263POPC   GL2 3461   0.242   6.410   4.281
  263POPC   C1A 3462   0.571   6.216   4.584
  263POPC   D2A 3463   0.499   6.475   4.958
  263POPC   C3A 3464   0.550   6.286   5.356
  263POPC   C4A 3465   0.667   6.136   5.762
  263POPC   C1B 3466   0.066   6.330   4.690
  263POPC   C2B 3467  10.471   6.519   5.046
  263POPC   C3B 3468   0.198   6.640   5.375
  263POPC   C4B 3469   0.407   6.554   5.766
  264POPC   NC3 3470   0.625   1.446   3.805
  264POPC   PO4 3471   0.923   0.823   3.747
  264POPC   GL1 3472   0.717   1.044   4.134
  264POPC   GL2 3473   0.392   1.227   4.191
  264POPC   C1A 3474   0.669   1.181   4.607
  264POPC   D2A 3475   0.566   1.005   4.996
  264POPC   C3A 3476   0.675   1.126   5.399
  264POPC   C4A 3477   0.750   1.011   5.787
  264POPC   C1B 3478   0.159   1.100   4.573
  264POPC   C2B 3479   0.099   0.867   4.938
  264POPC   C3B 3480   0.048   0.841   5.394
  264POPC   C4B 3481   0.238   1.115   5.705
  265POPC   NC3 3482   6.488   7.957   3.860
  265POPC   PO4 3483   6.028   7.532   4.021
  265POPC   GL1 3484   6.310   7.664   4.312
  265POPC   GL2 3485   6.610   7.888   4.348
  265POPC   C1A 3486   6.244   7.579   4.742
  265POPC   D2A 3487   6.242   7.485   5.186
  265POPC   C3A 3488   6.411   7.772   5.486
  265POPC   C4A 3489   6.367   7.649   5.898
  265POPC   C1B 3490   6.260   8.068   4.603
  265POPC   C2B 3491   6.324   8.021   5.047
  265POPC   C3B 3492   6.701   8.159   5.276
  265POPC   C4B 3493   6.766   8.197   5.723
  266POPC   NC3 3494   8.022   1.098   3.834
  266POPC   PO4 3495   7.570   1.593   3.707
  266POPC   GL1 3496   7.767   1.338   4.170
  266POPC   GL2 3497   7.515   1.090   4.372
  266POPC   C1A 3498   7.989   1.115   4.519
  266POPC   D2A 3499   8.088   0.925   4.913
  266POPC   C3A 3500   7.824   0.991   5.267
  266POPC   C4A 3501   7.970   1.249   5.610
  266POPC   C1B 3502   7.539   1.019   4.826
  266POPC   C2B 3503   7.504   1.380   5.124
  266POPC   C3B 3504   7.532   1.455   5.533
  266POPC   C4B 3505   7.546   1.075   5.817
  267POPC   NC3 3506   0.606   5.426   3.865
  267POPC   PO4 3507   0.200   4.951   4.049
  267POPC   GL1 3508   0.315   5.321   4.276
  267POPC   GL2 3509   0.377   5.714   4.225
  267POPC   C1A 3510   0.181   5.447   4.662
  267POPC   D2A 3511   0.025   5.303   5.030
  267POPC   C3A 3512   0.257   5.307   5.404
  267POPC   C4A 3513   0.582   5.403   5.733
  267POPC   C1B 3514   0.624   5.702   4.611
  267POPC   C2B 3515   0.515   5.604   5.059
  267POPC   C3B 3516   0.368   5.817   5.461
  267POPC   C4B 3517   0.183   6.045   5.839
  268POPC   NC3 3518   9.181   6.060   4.184
  268POPC   PO4 3519   8.645   6.219   3.817
  268POPC   GL1 3520   8.730   6.390   4.212
  268POPC   GL2 3521   8.962   6.614   4.101
  268POPC   C1A 3522   8.571   6.328   4.639
  268POPC   D2A 3523   8.432   6.246   5.037
  268POPC   C3A 3524   8.670   6.269   5.381
  268POPC   C4A 3525   8.503   6.474   5.755
  268POPC   C1B 3526   8.957   6.658   4.579
  268POPC   C2B 3527   8.832   6.609   5.014
  268POPC   C3B 3528   8.830   6.748   5.459
  268POPC   C4B 3529   9.003   6.694   5.869
  269POPC   NC3 3530   5.587   9.842   3.893
  269POPC   PO4 3531   5.889   9.238   3.978
  269POPC   GL1 3532   5.808   9.621   4.288
  269POPC   GL2 3533   5.480   9.688   4.362
  269POPC   C1A 3534   5.875   9.846   4.689
  269POPC   D2A 3535   5.888   9.631   5.086
  269POPC   C3A 3536   5.756   9.824   5.456
  269POPC   C4A 3537   5.852   9.672   5.849
  269POPC   C1B 3538   5.447   9.550   4.770
  269POPC   C2B 3539   5.405   9.450   5.180
  269POPC   C3B 3540   5.639   9.343   5.507
  269POPC   C4B 3541   5.404   9.470   5.859
  270POPC   NC3 3542   4.343   2.956   3.943
  270POPC   PO4 3543   3.938   2.404   4.008
  270POPC   GL1 3544   4.224   2.411   4.285
  270POPC   GL2 3545   4.228   2.708   4.358
  270POPC   C1A 3546   4.214   2.244   4.671
  270POPC   D2A 3547   4.331   2.305   5.070
  270POPC   C3A 3548   4.003   2.307   5.316
  270POPC   C4A 3549   3.945   2.425   5.688
  270POPC   C1B 3550   4.450   2.694   4.719
  270POPC   C2B 3551   4.415   2.800   5.146
  270POPC   C3B 3552   4.272   2.798   5.560
  270POPC   C4B 3553   4.364   3.103   5.889
  271POPC   NC3 3554   3.465   2.160   4.002
  271POPC   PO4 3555   3.961   1.747   3.742
  271POPC   GL1 3556   3.706   1.743   4.232
  271POPC   GL2 3557   3.342   1.702   4.293
  271POPC   C1A 3558   3.531   1.808   4.743
  271POPC   D2A 3559   3.618   2.033   5.136
  271POPC   C3A 3560   3.477   1.862   5.495
  271POPC   C4A 3561   3.222   1.534   5.720
  271POPC   C1B 3562   3.076   1.989   4.634
  271POPC   C2B 3563   3.090   2.015   5.081
  271POPC   C3B 3564   3.033   2.073   5.512
  271POPC   C4B 3565   3.237   2.004   5.922
  272POPC   NC3 3566   7.824   3.259   4.023
  272POPC   PO4 3567   8.264   3.895   4.005
  272POPC   GL1 3568   8.203   3.519   4.272
  272POPC   GL2 3569   7.879   3.551   4.427
  272POPC   C1A 3570   8.244   3.299   4.659
  272POPC   D2A 3571   8.060   3.508   4.993
  272POPC   C3A 3572   8.121   3.592   5.418
  272POPC   C4A 3573   8.147   3.789   5.846
  272POPC   C1B 3574   7.769   3.122   4.628
  272POPC   C2B 3575   7.955   2.991   4.999
  272POPC   C3B 3576   7.808   3.144   5.392
  272POPC   C4B 3577   7.874   3.347   5.786
  273POPC   NC3 3578   2.209   1.005   3.856
  273POPC   PO4 3579   2.369   1.676   3.896
  273POPC   GL1 3580   2.152   1.474   4.273
  273POPC   GL2 3581   2.037   1.131   4.320
  273POPC   C1A 3582   2.091   1.432   4.723
  273POPC   D2A 3583   2.373   1.356   5.055
  273POPC   C3A 3584   2.177   1.436   5.417
  273POPC   C4A 3585   2.327   1.459   5.804
  273POPC   C1B 3586   1.820   0.994   4.713
  273POPC   C2B 3587   1.943   1.050   5.148
  273POPC   C3B 3588   1.837   1.052   5.586
  273POPC   C4B 3589   1.600   1.299   5.792
  274POPC   NC3 3590   7.173   7.810   4.004
  274POPC   PO4 3591   7.589   8.327   4.037
  274POPC   GL1 3592   7.271   8.173   4.340
  274POPC   GL2 3593   7.328   7.849   4.495
  274POPC   C1A 3594   7.029   8.224   4.717
  274POPC   D2A 3595   7.254   8.280   5.090
  274POPC   C3A 3596   7.183   8.043   5.422
  274POPC   C4A 3597   7.300   8.209   5.757
  274POPC   C1B 3598   7.224   7.790   4.965
  274POPC   C2B 3599   6.899   7.640   5.286
  274POPC   C3B 3600   6.863   7.707   5.741
  274POPC   C4B 3601   6.785   7.576   6.196
  275POPC   NC3 3602   4.228   2.130   3.766
  275POPC   PO4 3603   4.578   1.639   4.082
  275POPC   GL1 3604   4.471   1.777   4.451
  275POPC   GL2 3605   4.176   1.910   4.272
  275POPC   C1A 3606   4.536   1.878   4.869
  275POPC   D2A 3607   4.532   1.903   5.317
  275POPC   C3A 3608   4.420   2.230   5.588
  275POPC   C4A 3609   4.222   2.113   5.969
  275POPC   C1B 3610   4.030   1.764   4.700
  275POPC   C2B 3611   4.064   1.748   5.148
  275POPC   C3B 3612   3.986   1.868   5.577
  275POPC   C4B 3613   3.717   1.701   5.910
  276POPC   NC3 3614   2.439   9.250   4.190
  276POPC   PO4 3615   1.923   9.356   3.756
  276POPC   GL1 3616   1.911   9.268   4.233
  276POPC   GL2 3617   1.591   9.097   4.270
  276POPC   C1A 3618   2.096   9.333   4.710
  276POPC   D2A 3619   2.339   9.352   5.103
  276POPC   C3A 3620   2.138   9.602   5.438
  276POPC   C4A 3621   2.074   9.561   5.874
  276POPC   C1B 3622   1.592   9.271   4.644
  276POPC   C2B 3623   1.713   9.505   4.999
  276POPC   C3B 3624   1.621   9.447   5.392
  276POPC   C4B 3625   1.676   9.248   5.759
  277POPC   NC3 3626   5.016   1.493   4.177
  277POPC   PO4 3627   5.006   0.911   3.795
  277POPC   GL1 3628   4.807   0.864   4.238
  277POPC   GL2 3629   4.618   1.191   4.342
  277POPC   C1A 3630   4.807   0.929   4.710
  277POPC   D2A 3631   4.575   0.927   5.081
  277POPC   C3A 3632   4.766   0.913   5.483
  277POPC   C4A 3633   4.492   1.051   5.805
  277POPC   C1B 3634   4.800   1.426   4.755
  277POPC   C2B 3635   4.958   1.263   5.149
  277POPC   C3B 3636   4.848   1.404   5.572
  277POPC   C4B 3637   5.072   1.558   5.916
  278POPC   NC3 3638   0.818   0.503   4.073
  278POPC   PO4 3639   0.201   0.809   3.970
  278POPC   GL1 3640   0.385   0.679   4.343
  278POPC   GL2 3641   0.178   0.393   4.319
  278POPC   C1A 3642   0.525   0.410   4.704
  278POPC   D2A 3643   0.751   0.411   5.094
  278POPC   C3A 3644   0.557   0.640   5.380
  278POPC   C4A 3645   0.443   0.584   5.769
  278POPC   C1B 3646  10.463   0.435   4.714
  278POPC   C2B 3647   0.181   0.401   5.107
  278POPC   C3B 3648   0.257   0.195   5.478
  278POPC   C4B 3649   0.104   0.220   5.877
  279POPC   NC3 3650   0.444   2.251   3.927
  279POPC   PO4 3651   0.687   1.694   4.179
  279POPC   GL1 3652   0.389   1.747   4.424
  279POPC   GL2 3653   0.500   2.124   4.422
  279POPC   C1A 3654   0.342   1.525   4.818
  279POPC   D2A 3655   0.261   1.362   5.231
  279POPC   C3A 3656   0.487   1.552   5.598
  279POPC   C4A 3657   0.197   1.662   5.929
  279POPC   C1B 3658   0.550   2.017   4.822
  279POPC   C2B 3659   0.432   1.874   5.175
  279POPC   C3B 3660   0.230   1.980   5.495
  279POPC   C4B 3661   0.465   2.047   5.810
  280POPC   NC3 3662   9.861   4.332   3.894
  280POPC   PO4 3663   0.026   3.967   4.005
  280POPC   GL1 3664  10.279   4.163   4.260
  280POPC   GL2 3665  10.056   3.947   4.345
  280POPC   C1A 3666  10.338   4.174   4.710
  280POPC   D2A 3667   0.084   4.260   5.067
  280POPC   C3A 3668  10.357   4.200   5.436
  280POPC   C4A 3669  10.363   4.471   5.801
  280POPC   C1B 3670   9.835   4.232   4.629
  280POPC   C2B 3671   9.646   4.257   5.041
  280POPC   C3B 3672   9.797   4.294   5.458
  280POPC   C4B 3673  10.002   4.122   5.793
  281POPC   NC3 3674   2.580   6.485   3.919
  281POPC   PO4 3675   2.913   6.953   4.035
  281POPC   GL1 3676   2.791   6.627   4.368
  281POPC   GL2 3677   2.660   6.255   4.367
  281POPC   C1A 3678   2.908   6.494   4.792
  281POPC   D2A 3679   2.819   6.405   5.211
  281POPC   C3A 3680   3.033   6.485   5.595
  281POPC   C4A 3681   2.959   6.677   5.985
  281POPC   C1B 3682   2.405   6.315   4.775
  281POPC   C2B 3683   2.333   6.281   5.232
  281POPC   C3B 3684   2.564   6.246   5.614
  281POPC   C4B 3685   2.599   5.900   5.900
  282POPC   NC3 3686   2.398  10.289   3.985
  282POPC   PO4 3687   2.241   9.688   4.175
  282POPC   GL1 3688   2.605   9.943   4.341
  282POPC   GL2 3689   2.803  10.282   4.286
  282POPC   C1A 3690   2.530  10.105   4.737
  282POPC   D2A 3691   2.405   9.908   5.096
  282POPC   C3A 3692   2.576  10.094   5.469
  282POPC   C4A 3693   2.335  10.133   5.857
  282POPC   C1B 3694   2.838  10.493   4.698
  282POPC   C2B 3695   2.724  10.444   5.093
  282POPC   C3B 3696   2.926   0.047   5.428
  282POPC   C4B 3697   2.773  10.435   5.800
  283POPC   NC3 3698   5.367   0.690   4.042
  283POPC   PO4 3699   5.998   0.893   3.925
  283POPC   GL1 3700   5.857   0.555   4.282
  283POPC   GL2 3701   5.662   0.220   4.288
  283POPC   C1A 3702   5.712   0.463   4.743
  283POPC   D2A 3703   5.549   0.698   5.112
  283POPC   C3A 3704   5.743   0.751   5.505
  283POPC   C4A 3705   5.844   0.481   5.885
  283POPC   C1B 3706   5.364   0.085   4.628
  283POPC   C2B 3707   5.409   0.175   5.053
  283POPC   C3B 3708   5.583   0.271   5.461
  283POPC   C4B 3709   5.374   0.247   5.842
  284POPC   NC3 3710   4.612   1.201   3.832
  284POPC   PO4 3711   3.954   0.862   4.005
  284POPC   GL1 3712   4.038   1.042   4.377
  284POPC   GL2 3713   4.138   1.390   4.382
  284POPC   C1A 3714   3.857   0.950   4.777
  284POPC   D2A 3715   3.993   1.206   5.107
  284POPC   C3A 3716   4.079   1.059   5.496
  284POPC   C4A 3717   3.972   0.847   5.854
  284POPC   C1B 3718   4.326   1.274   4.748
  284POPC   C2B 3719   4.472   1.421   5.153
  284POPC   C3B 3720   4.338   1.490   5.556
  284POPC   C4B 3721   4.211   1.586   5.959
  285POPC   NC3 3722   3.264   5.169   3.906
  285POPC   PO4 3723   2.698   5.352   3.773
  285POPC   GL1 3724   2.425   5.321   4.165
  285POPC   GL2 3725   2.332   5.653   4.271
  285POPC   C1A 3726   2.401   5.262   4.634
  285POPC   D2A 3727   2.508   5.464   5.025
  285POPC   C3A 3728   2.731   5.414   5.401
  285POPC   C4A 3729   2.640   5.403   5.825
  285POPC   C1B 3730   2.543   5.812   4.632
  285POPC   C2B 3731   2.685   5.941   5.064
  285POPC   C3B 3732   2.903   5.907   5.470
  285POPC   C4B 3733   3.096   5.605   5.745
  286POPC   NC3 3734   4.801   9.402   3.907
  286POPC   PO4 3735   5.124   9.877   4.064
  286POPC   GL1 3736   4.778   9.707   4.313
  286POPC   GL2 3737   4.874   9.347   4.415
  286POPC   C1A 3738   4.520   9.625   4.697
  286POPC   D2A 3739   4.598   9.525   5.145
  286POPC   C3A 3740   4.647   9.705   5.571
  286POPC   C4A 3741   4.540   9.699   6.029
  286POPC   C1B 3742   4.995   9.281   4.852
  286POPC   C2B 3743   5.177   8.980   5.168
  286POPC   C3B 3744   5.195   9.091   5.602
  286POPC   C4B 3745   4.907   9.360   5.848
  287POPC   NC3 3746   7.830   5.409   3.716
  287POPC   PO4 3747   7.721   5.886   4.005
  287POPC   GL1 3748   7.910   5.584   4.281
  287POPC   GL2 3749   8.236   5.695   4.375
  287POPC   C1A 3750   7.855   5.683   4.737
  287POPC   D2A 3751   8.043   5.584   5.169
  287POPC   C3A 3752   7.763   5.737   5.497
  287POPC   C4A 3753   7.574   5.606   5.901
  287POPC   C1B 3754   8.363   5.809   4.797
  287POPC   C2B 3755   8.533   5.726   5.215
  287POPC   C3B 3756   8.356   5.538   5.593
  287POPC   C4B 3757   8.096   5.757   5.873
  288POPC   NC3 3758   9.796   9.062   3.750
  288POPC   PO4 3759  10.479   9.071   3.863
  288POPC   GL1 3760  10.178   9.150   4.196
  288POPC   GL2 3761  10.024   9.504   4.239
  288POPC   C1A 3762  10.184   9.043   4.637
  288POPC   D2A 3763  10.140   9.197   5.055
  288POPC   C3A 3764  10.253   8.987   5.428
  288POPC   C4A 3765  10.195   9.096   5.864
  288POPC   C1B 3766  10.279   9.558   4.625
  288POPC   C2B 3767  10.239   9.693   5.050
  288POPC   C3B 3768  10.258   9.517   5.462
  288POPC   C4B 3769   9.972   9.579   5.797
  289POPC   NC3 3770   9.220   9.188   4.229
  289POPC   PO4 3771   9.362   9.633   3.760
  289POPC   GL1 3772   9.525   9.621   4.266
  289POPC   GL2 3773   9.302   9.602   4.521
  289POPC   C1A 3774   9.774   9.479   4.726
  289POPC   D2A 3775   9.768   9.506   5.229
  289POPC   C3A 3776   9.780   9.174   5.569
  289POPC   C4A 3777   9.746   9.181   6.086
  289POPC   C1B 3778   9.305   9.389   4.889
  289POPC   C2B 3779   9.062   9.124   5.089
  289POPC   C3B 3780   9.187   9.351   5.472
  289POPC   C4B 3781   9.436   9.459   5.805
  290POPC   NC3 3782   8.896   9.474   3.891
  290POPC   PO4 3783   8.535   8.984   4.150
  290POPC   GL1 3784   8.757   9.301   4.359
  290POPC   GL2 3785   8.518   9.499   4.369
  290POPC   C1A 3786   8.829   9.548   4.768
  290POPC   D2A 3787   8.779   9.532   5.220
  290POPC   C3A 3788   8.958   9.807   5.495
  290POPC   C4A 3789   9.022   9.717   5.927
  290POPC   C1B 3790   8.489   9.151   4.751
  290POPC   C2B 3791   8.523   8.995   5.171
  290POPC   C3B 3792   8.768   9.072   5.496
  290POPC   C4B 3793   8.701   9.371   5.761
  291POPC   NC3 3794   2.496   4.944   3.814
  291POPC   PO4 3795   3.129   4.742   3.951
  291POPC   GL1 3796   2.854   5.012   4.180
  291POPC   GL2 3797   2.561   4.821   4.312
  291POPC   C1A 3798   2.898   5.195   4.586
  291POPC   D2A 3799   2.822   5.050   5.021
  291POPC   C3A 3800   3.099   5.034   5.404
  291POPC   C4A 3801   3.048   5.079   5.851
  291POPC   C1B 3802   2.340   4.737   4.704
  291POPC   C2B 3803   2.342   4.937   5.117
  291POPC   C3B 3804   2.608   4.919   5.486
  291POPC   C4B 3805   2.528   4.932   5.912
  292POPC   NC3 3806  10.244   8.598   3.782
  292POPC   PO4 3807   9.602   8.667   3.670
  292POPC   GL1 3808   9.897   8.686   4.116
  292POPC   GL2 3809  10.231   8.634   4.276
  292POPC   C1A 3810   9.862   8.637   4.619
  292POPC   D2A 3811  10.063   8.667   5.013
  292POPC   C3A 3812   9.856   8.680   5.417
  292POPC   C4A 3813   9.751   8.733   5.836
  292POPC   C1B 3814  10.312   8.337   4.598
  292POPC   C2B 3815  10.495   8.364   4.996
  292POPC   C3B 3816  10.292   8.424   5.394
  292POPC   C4B 3817  10.232   8.591   5.769
  293POPC   NC3 3818   8.263   9.291   3.958
  293POPC   PO4 3819   7.683   9.491   3.754
  293POPC   GL1 3820   7.759   9.305   4.204
  293POPC   GL2 3821   8.077   9.208   4.405
  293POPC   C1A 3822   7.665   9.340   4.676
  293POPC   D2A 3823   7.804   9.492   5.097
  293POPC   C3A 3824   7.677   9.291   5.455
  293POPC   C4A 3825   7.483   9.426   5.823
  293POPC   C1B 3826   8.142   9.534   4.702
  293POPC   C2B 3827   8.308   9.469   5.097
  293POPC   C3B 3828   8.239   9.346   5.496
  293POPC   C4B 3829   7.979   9.566   5.756
  294POPC   NC3 3830   1.084   8.546   3.784
  294POPC   PO4 3831   1.524   8.172   3.971
  294POPC   GL1 3832   1.290   8.377   4.279
  294POPC   GL2 3833   1.218   8.732   4.242
  294POPC   C1A 3834   1.135   8.367   4.704
  294POPC   D2A 3835   0.978   8.569   5.075
  294POPC   C3A 3836   0.902   8.336   5.454
  294POPC   C4A 3837   0.974   8.599   5.796
  294POPC   C1B 3838   1.384   8.802   4.639
  294POPC   C2B 3839   1.499   8.603   5.006
  294POPC   C3B 3840   1.421   8.581   5.424
  294POPC   C4B 3841   1.461   8.786   5.796
  295POPC   NC3 3842   1.442   0.957   4.111
  295POPC   PO4 3843   1.113   1.433   3.743
  295POPC   GL1 3844   1.126   1.405   4.236
  295POPC   GL2 3845   1.125   1.105   4.445
  295POPC   C1A 3846   1.060   1.533   4.701
  295POPC   D2A 3847   0.794   1.515   5.082
  295POPC   C3A 3848   1.029   1.470   5.485
  295POPC   C4A 3849   1.000   1.473   5.921
  295POPC   C1B 3850   1.346   1.121   4.833
  295POPC   C2B 3851   1.443   1.248   5.261
  295POPC   C3B 3852   1.245   1.028   5.590
  295POPC   C4B 3853   1.188   0.828   5.930
  296POPC   NC3 3854   7.922   1.796   3.925
  296POPC   PO4 3855   7.364   1.612   4.183
  296POPC   GL1 3856   7.689   1.801   4.373
  296POPC   GL2 3857   7.690   2.152   4.251
  296POPC   C1A 3858   7.962   1.641   4.682
  296POPC   D2A 3859   8.008   1.442   5.085
  296POPC   C3A 3860   7.951   1.718   5.448
  296POPC   C4A 3861   7.769   1.906   5.805
  296POPC   C1B 3862   7.867   2.163   4.679
  296POPC   C2B 3863   8.050   2.001   5.042
  296POPC   C3B 3864   7.929   2.211   5.428
  296POPC   C4B 3865   8.021   2.368   5.819
  297POPC   NC3 3866   2.532   2.043   3.661
  297POPC   PO4 3867   3.040   1.965   4.006
  297POPC   GL1 3868   2.705   2.026   4.249
  297POPC   GL2 3869   2.610   1.704   4.349
  297POPC   C1A 3870   2.578   2.183   4.680
  297POPC   D2A 3871   2.711   2.386   5.057
  297POPC   C3A 3872   2.585   2.293   5.479
  297POPC   C4A 3873   2.548   2.349   5.948
  297POPC   C1B 3874   2.623   1.693   4.759
  297POPC   C2B 3875   2.592   1.861   5.139
  297POPC   C3B 3876   2.725   1.667   5.487
  297POPC   C4B 3877   2.744   1.846   5.869
  298POPC   NC3 3878  10.395   0.125   3.996
  298POPC   PO4 3879  10.221   9.932   3.900
  298POPC   GL1 3880  10.315  10.142   4.265
  298POPC   GL2 3881   9.955  10.211   4.253
  298POPC   C1A 3882  10.431  10.059   4.715
  298POPC   D2A 3883   0.028  10.105   5.153
  298POPC   C3A 3884  10.360  10.284   5.515
  298POPC   C4A 3885  10.369   9.919   5.786
  298POPC   C1B 3886   9.931   9.970   4.623
  298POPC   C2B 3887   9.969  10.134   5.038
  298POPC   C3B 3888   9.962   9.961   5.445
  298POPC   C4B 3889   9.910  10.182   5.828
  299POPC   NC3 3890   0.952   9.537   3.817
  299POPC   PO4 3891   0.846   8.906   3.927
  299POPC   GL1 3892   0.926   9.175   4.285
  299POPC   GL2 3893   1.170   9.426   4.292
  299POPC   C1A 3894   1.065   9.196   4.728
  299POPC   D2A 3895   1.344   9.115   5.070
  299POPC   C3A 3896   1.130   9.267   5.414
  299POPC   C4A 3897   1.031   9.092   5.794
  299POPC   C1B 3898   1.318   9.684   4.649
  299POPC   C2B 3899   1.313   9.822   5.083
  299POPC   C3B 3900   1.250   9.777   5.486
  299POPC   C4B 3901   1.265   9.535   5.837
  300POPC   NC3 3902   7.984   0.479   3.870
  300POPC   PO4 3903   8.498   0.051   3.920
  300POPC   GL1 3904   8.400   0.356   4.252
  300POPC   GL2 3905   8.171   0.636   4.317
  300POPC   C1A 3906   8.253   0.241   4.660
  300POPC   D2A 3907   8.169   0.431   5.040
  300POPC   C3A 3908   8.286   0.227   5.418
  300POPC   C4A 3909   8.073   0.103   5.775
  300POPC   C1B 3910   7.828   0.590   4.618
  300POPC   C2B 3911   7.667   0.482   5.049
  300POPC   C3B 3912   7.813   0.401   5.428
  300POPC   C4B 3913   7.958   0.734   5.680
  301POPC   NC3 3914   4.148   8.839   3.841
  301POPC   PO4 3915   4.420   8.270   3.690
  301POPC   GL1 3916   4.335   8.437   4.158
  301POPC   GL2 3917   4.080   8.658   4.300
  301POPC   C1A 3918   4.460   8.560   4.604
  301POPC   D2A 3919   4.348   8.711   5.023
  301POPC   C3A 3920   4.404   8.521   5.438
  301POPC   C4A 3921   4.340   8.750   5.787
  301POPC   C1B 3922   3.976   8.838   4.678
  301POPC   C2B 3923   3.783   8.622   5.016
  301POPC   C3B 3924   3.924   8.692   5.435
  301POPC   C4B 3925   3.906   8.486   5.837
  302POPC   NC3 3926  10.086   3.629   3.962
  302POPC   PO4 3927   0.169   3.381   3.825
  302POPC   GL1 3928  10.478   3.530   4.279
  302POPC   GL2 3929  10.136   3.397   4.421
  302POPC   C1A 3930  10.437   3.680   4.742
  302POPC   D2A 3931  10.274   3.512   5.149
  302POPC   C3A 3932  10.322   3.686   5.566
  302POPC   C4A 3933  10.435   3.381   5.897
  302POPC   C1B 3934   9.907   3.683   4.741
  302POPC   C2B 3935   9.998   3.926   5.118
  302POPC   C3B 3936   9.816   3.739   5.485
  302POPC   C4B 3937   9.956   3.335   5.632
  303POPC   NC3 3938   0.923   6.367   3.748
  303POPC   PO4 3939   1.477   6.088   3.895
  303POPC   GL1 3940   1.379   6.288   4.272
  303POPC   GL2 3941   1.102   6.517   4.237
  303POPC   C1A 3942   1.449   6.357   4.690
  303POPC   D2A 3943   1.332   6.112   5.023
  303POPC   C3A 3944   1.411   6.268   5.398
  303POPC   C4A 3945   1.311   6.104   5.778
  303POPC   C1B 3946   0.962   6.536   4.691
  303POPC   C2B 3947   0.999   6.488   5.160
  303POPC   C3B 3948   0.998   6.504   5.648
  303POPC   C4B 3949   0.806   6.607   6.078
  304POPC   NC3 3950   9.992   5.936   4.004
  304POPC   PO4 3951   0.119   5.591   3.792
  304POPC   GL1 3952  10.353   5.527   4.239
  304POPC   GL2 3953  10.017   5.486   4.246
  304POPC   C1A 3954  10.222   5.711   4.680
  304POPC   D2A 3955   0.018   5.856   4.988
  304POPC   C3A 3956  10.375   5.655   5.348
  304POPC   C4A 3957   0.004   5.580   5.748
  304POPC   C1B 3958   9.776   5.431   4.644
  304POPC   C2B 3959   9.925   5.491   5.059
  304POPC   C3B 3960   9.826   5.571   5.463
  304POPC   C4B 3961  10.044   5.831   5.679
  305POPC   NC3 3962   8.359   4.777   3.854
  305POPC   PO4 3963   9.046   4.726   4.013
  305POPC   GL1 3964   8.802   4.682   4.362
  305POPC   GL2 3965   8.770   5.051   4.346
  305POPC   C1A 3966   8.872   4.607   4.811
  305POPC   D2A 3967   8.730   4.810   5.197
  305POPC   C3A 3968   8.772   4.802   5.634
  305POPC   C4A 3969   8.952   4.538   5.906
  305POPC   C1B 3970   8.571   4.999   4.749
  305POPC   C2B 3971   8.399   5.199   5.155
  305POPC   C3B 3972   8.322   5.015   5.561
  305POPC   C4B 3973   8.420   5.143   5.982
  306POPC   NC3 3974   1.017   2.955   3.739
  306POPC   PO4 3975   0.884   2.314   4.111
  306POPC   GL1 3976   0.961   2.465   4.446
  306POPC   GL2 3977   1.284   2.394   4.493
  306POPC   C1A 3978   0.772   2.480   4.784
  306POPC   D2A 3979   0.865   2.727   5.085
  306POPC   C3A 3980   1.077   2.596   5.440
  306POPC   C4A 3981   0.777   2.406   5.632
  306POPC   C1B 3982   1.279   2.459   4.940
  306POPC   C2B 3983   1.357   2.869   5.104
  306POPC   C3B 3984   1.386   3.019   5.500
  306POPC   C4B 3985   1.326   2.968   5.934
  307POPC   NC3 3986   7.982   8.146   3.887
  307POPC   PO4 3987   7.581   7.526   3.829
  307POPC   GL1 3988   7.874   7.695   4.209
  307POPC   GL2 3989   7.811   8.004   4.353
  307POPC   C1A 3990   8.146   7.744   4.645
  307POPC   D2A 3991   8.036   7.618   5.078
  307POPC   C3A 3992   8.107   7.802   5.482
  307POPC   C4A 3993   8.266   7.790   5.903
  307POPC   C1B 3994   7.703   8.004   4.786
  307POPC   C2B 3995   7.670   7.982   5.204
  307POPC   C3B 3996   7.614   7.815   5.580
  307POPC   C4B 3997   7.803   8.105   5.760
  308POPC   NC3 3998   4.344   7.862   3.868
  308POPC   PO4 3999   3.878   8.449   3.889
  308POPC   GL1 4000   3.904   8.159   4.243
  308POPC   GL2 4001   4.072   7.819   4.283
  308POPC   C1A 4002   3.995   8.288   4.660
  308POPC   D2A 4003   4.175   8.248   5.050
  308POPC   C3A 4004   4.061   8.162   5.469
  308POPC   C4A 4005   4.204   8.078   5.924
  308POPC   C1B 4006   4.216   7.799   4.733
  308POPC   C2B 4007   4.209   7.742   5.167
  308POPC   C3B 4008   4.317   7.719   5.590
  308POPC   C4B 4009   3.998   7.455   5.768
  309POPC   NC3 4010   0.814  10.244   3.887
  309POPC   PO4 4011   1.266   9.812   3.990
  309POPC   GL1 4012   0.989   9.981   4.298
  309POPC   GL2 4013   1.003  10.376   4.345
  309POPC   C1A 4014   1.008  10.060   4.738
  309POPC   D2A 4015   0.851  10.138   5.119
  309POPC   C3A 4016   0.761   9.834   5.422
  309POPC   C4A 4017   0.897   9.883   5.823
  309POPC   C1B 4018   0.939   0.063   4.777
  309POPC   C2B 4019   1.140   0.064   5.207
  309POPC   C3B 4020   1.084  10.277   5.569
  309POPC   C4B 4021   1.368  10.113   5.907
  310POPC   NC3 4022   3.417   8.814   3.917
  310POPC   PO4 4023   3.229   8.294   3.617
  310POPC   GL1 4024   3.440   8.387   4.164
  310POPC   GL2 4025   3.577   8.716   4.374
  310POPC   C1A 4026   3.468   8.288   4.615
  310POPC   D2A 4027   3.313   8.286   5.037
  310POPC   C3A 4028   3.536   8.369   5.406
  310POPC   C4A 4029   3.355   8.419   5.798
  310POPC   C1B 4030   3.317   8.755   4.765
  310POPC   C2B 4031   3.284   8.804   5.172
  310POPC   C3B 4032   3.313   9.005   5.505
  310POPC   C4B 4033   3.576   8.869   5.804
  311POPC   NC3 4034   8.643   2.897   3.975
  311POPC   PO4 4035   9.047   2.462   3.810
  311POPC   GL1 4036   8.845   2.343   4.196
  311POPC   GL2 4037   8.527   2.514   4.299
  311POPC   C1A 4038   8.884   2.358   4.652
  311POPC   D2A 4039   9.073   2.529   5.040
  311POPC   C3A 4040   8.925   2.468   5.469
  311POPC   C4A 4041   8.796   2.465   5.927
  311POPC   C1B 4042   8.592   2.771   4.687
  311POPC   C2B 4043   8.574   2.668   5.140
  311POPC   C3B 4044   8.596   2.849   5.558
  311POPC   C4B 4045   8.355   2.831   5.894
  312POPC   NC3 4046   8.874   1.981   3.714
  312POPC   PO4 4047   8.330   1.569   3.928
  312POPC   GL1 4048   8.324   1.845   4.294
  312POPC   GL2 4049   8.698   1.868   4.338
  312POPC   C1A 4050   8.391   2.131   4.662
  312POPC   D2A 4051   8.611   2.164   5.049
  312POPC   C3A 4052   8.414   1.995   5.401
  312POPC   C4A 4053   8.445   2.359   5.588
  312POPC   C1B 4054   8.932   1.837   4.741
  312POPC   C2B 4055   8.928   1.801   5.200
  312POPC   C3B 4056   8.881   1.958   5.589
  312POPC   C4B 4057   8.988   1.744   5.946
  313POPC   NC3 4058   7.927   4.187   4.113
  313POPC   PO4 4059   8.448   4.351   3.689
  313POPC   GL1 4060   8.403   4.374   4.166
  313POPC   GL2 4061   8.629   4.156   4.281
  313POPC   C1A 4062   8.423   4.437   4.646
  313POPC   D2A 4063   8.561   4.303   5.061
  313POPC   C3A 4064   8.452   4.448   5.469
  313POPC   C4A 4065   8.470   4.192   5.794
  313POPC   C1B 4066   8.887   4.120   4.639
  313POPC   C2B 4067   8.982   4.014   5.050
  313POPC   C3B 4068   8.902   4.214   5.460
  313POPC   C4B 4069   9.005   4.049   5.804
  314POPC   NC3 4070   3.587   8.060   3.817
  314POPC   PO4 4071   2.990   8.197   4.103
  314POPC   GL1 4072   3.140   7.830   4.292
  314POPC   GL2 4073   3.475   7.845   4.259
  314POPC   C1A 4074   3.245   7.828   4.764
  314POPC   D2A 4075   3.303   7.708   5.191
  314POPC   C3A 4076   3.264   7.960   5.551
  314POPC   C4A 4077   2.943   8.098   5.794
  314POPC   C1B 4078   3.721   7.858   4.623
  314POPC   C2B 4079   3.737   7.971   5.048
  314POPC   C3B 4080   3.742   7.778   5.454
  314POPC   C4B 4081   3.700   8.035   5.805
  315POPC   NC3 4082   2.821   8.040   3.704
  315POPC   PO4 4083   2.312   8.391   3.978
  315POPC   GL1 4084   2.520   8.263   4.335
  315POPC   GL2 4085   2.570   7.930   4.207
  315POPC   C1A 4086   2.400   8.195   4.743
  315POPC   D2A 4087   2.433   8.324   5.147
  315POPC   C3A 4088   2.458   8.123   5.464
  315POPC   C4A 4089   2.199   8.037   5.778
  315POPC   C1B 4090   2.768   7.894   4.623
  315POPC   C2B 4091   2.864   8.042   5.039
  315POPC   C3B 4092   2.823   7.799   5.375
  315POPC   C4B 4093   2.608   7.728   5.754
  316POPC   NC3 4094   0.307   2.940   3.888
  316POPC   PO4 4095   0.727   2.564   3.676
  316POPC   GL1 4096   0.715   2.780   4.130
  316POPC   GL2 4097   0.421   2.617   4.297
  316POPC   C1A 4098   0.666   2.928   4.583
  316POPC   D2A 4099   0.409   2.931   4.985
  316POPC   C3A 4100   0.503   2.891   5.433
  316POPC   C4A 4101   0.565   2.800   5.876
  316POPC   C1B 4102   0.265   2.492   4.721
  316POPC   C2B 4103   0.419   2.417   5.173
  316POPC   C3B 4104   0.277   2.472   5.602
  316POPC   C4B 4105   0.165   2.508   6.036
  317POPC   NC3 4106   2.018   2.720   3.904
  317POPC   PO4 4107   1.538   2.204   4.070
  317POPC   GL1 4108   1.707   2.556   4.277
  317POPC   GL2 4109   2.039   2.546   4.375
  317POPC   C1A 4110   1.674   2.686   4.715
  317POPC   D2A 4111   1.765   2.517   5.149
  317POPC   C3A 4112   1.596   2.542   5.565
  317POPC   C4A 4113   1.794   2.873   5.764
  317POPC   C1B 4114   2.135   2.437   4.787
  317POPC   C2B 4115   2.264   2.639   5.176
  317POPC   C3B 4116   2.213   2.614   5.621
  317POPC   C4B 4117   2.060   2.439   5.996
  318POPC   NC3 4118  10.232   1.895   3.830
  318POPC   PO4 4119   0.046   2.521   3.965
  318POPC   GL1 4120   0.027   2.056   4.227
  318POPC   GL2 4121  10.169   1.858   4.378
  318POPC   C1A 4122   0.038   1.998   4.709
  318POPC   D2A 4123  10.439   1.754   5.110
  318POPC   C3A 4124  10.230   1.930   5.487
  318POPC   C4A 4125  10.290   2.347   5.660
  318POPC   C1B 4126  10.004   1.846   4.830
  318POPC   C2B 4127   9.834   2.086   5.194
  318POPC   C3B 4128   9.771   2.091   5.655
  318POPC   C4B 4129   9.974   1.897   5.983
  319POPC   NC3 4130   7.719   6.350   4.036
  319POPC   PO4 4131   8.096   6.750   3.670
  319POPC   GL1 4132   8.098   6.760   4.207
  319POPC   GL2 4133   8.214   6.444   4.279
  319POPC   C1A 4134   7.949   6.770   4.642
  319POPC   D2A 4135   7.879   6.543   5.015
  319POPC   C3A 4136   8.091   6.574   5.406
  319POPC   C4A 4137   7.947   6.792   5.776
  319POPC   C1B 4138   8.057   6.203   4.638
  319POPC   C2B 4139   7.967   6.058   5.065
  319POPC   C3B 4140   8.180   6.052   5.455
  319POPC   C4B 4141   8.036   6.271   5.826
  320POPC   NC3 4142   5.029  10.270   3.846
  320POPC   PO4 4143   4.437   0.097   3.912
  320POPC   GL1 4144   4.594  10.353   4.302
  320POPC   GL2 4145   4.963  10.305   4.356
  320POPC   C1A 4146   4.697  10.465   4.754
  320POPC   D2A 4147   4.952  10.447   5.104
  320POPC   C3A 4148   4.818  10.178   5.441
  320POPC   C4A 4149   4.596  10.165   5.832
  320POPC   C1B 4150   4.893  10.000   4.714
  320POPC   C2B 4151   5.052   9.826   5.096
  320POPC   C3B 4152   5.212   9.815   5.523
  320POPC   C4B 4153   5.024   9.891   5.929
  321POPC   NC3 4154   7.696   2.741   3.691
  321POPC   PO4 4155   8.220   3.046   3.882
  321POPC   GL1 4156   8.143   2.932   4.293
  321POPC   GL2 4157   7.837   2.731   4.222
  321POPC   C1A 4158   8.125   2.630   4.636
  321POPC   D2A 4159   8.085   2.496   5.046
  321POPC   C3A 4160   8.109   2.727   5.435
  321POPC   C4A 4161   7.840   2.838   5.804
  321POPC   C1B 4162   7.629   2.623   4.637
  321POPC   C2B 4163   7.540   2.422   5.024
  321POPC   C3B 4164   7.612   2.598   5.415
  321POPC   C4B 4165   7.518   2.418   5.798
  322POPC   NC3 4166   3.769   2.828   3.953
  322POPC   PO4 4167   3.222   2.581   3.994
  322POPC   GL1 4168   3.413   2.457   4.394
  322POPC   GL2 4169   3.717   2.692   4.428
  322POPC   C1A 4170   3.680   2.288   4.701
  322POPC   D2A 4171   3.835   2.607   4.955
  322POPC   C3A 4172   3.619   2.684   5.356
  322POPC   C4A 4173   3.457   2.363   5.639
  322POPC   C1B 4174   3.373   2.898   4.636
  322POPC   C2B 4175   3.326   3.025   5.065
  322POPC   C3B 4176   3.113   3.049   5.451
  322POPC   C4B 4177   3.320   2.857   5.775
  323POPC   NC3 4178   1.186   3.730   3.930
  323POPC   PO4 4179   1.414   4.431   3.904
  323POPC   GL1 4180   1.155   4.229   4.222
  323POPC   GL2 4181   0.966   3.935   4.351
  323POPC   C1A 4182   1.329   4.340   4.607
  323POPC   D2A 4183   1.219   4.521   4.992
  323POPC   C3A 4184   1.173   4.303   5.375
  323POPC   C4A 4185   1.089   4.420   5.780
  323POPC   C1B 4186   0.875   4.184   4.730
  323POPC   C2B 4187   1.210   4.000   4.975
  323POPC   C3B 4188   1.465   3.879   5.338
  323POPC   C4B 4189   1.251   3.937   5.749
  324POPC   NC3 4190   9.243   8.527   3.913
  324POPC   PO4 4191   9.663   9.128   4.173
  324POPC   GL1 4192   9.456   8.767   4.347
  324POPC   GL2 4193   9.534   8.416   4.297
  324POPC   C1A 4194   9.414   8.888   4.763
  324POPC   D2A 4195   9.653   9.021   5.070
  324POPC   C3A 4196   9.402   8.887   5.376
  324POPC   C4A 4197   9.309   8.950   5.753
  324POPC   C1B 4198   9.394   8.388   4.689
  324POPC   C2B 4199   9.547   8.494   5.056
  324POPC   C3B 4200   9.434   8.385   5.461
  324POPC   C4B 4201   9.336   8.442   5.844
  325POPC   NC3 4202   5.688   1.278   3.859
  325POPC   PO4 4203   5.232   1.092   4.243
  325POPC   GL1 4204   5.651   1.011   4.343
  325POPC   GL2 4205   5.929   1.244   4.323
  325POPC   C1A 4206   5.826   0.970   4.757
  325POPC   D2A 4207   5.998   1.289   5.053
  325POPC   C3A 4208   5.825   1.268   5.483
  325POPC   C4A 4209   5.915   0.994   5.903
  325POPC   C1B 4210   5.608   1.419   4.654
  325POPC   C2B 4211   5.465   1.252   5.068
  325POPC   C3B 4212   5.322   1.102   5.492
  325POPC   C4B 4213   5.499   1.292   5.865
  326POPC   NC3 4214  10.364   1.117   3.872
  326POPC   PO4 4215   0.198   1.723   3.791
  326POPC   GL1 4216  10.472   1.510   4.194
  326POPC   GL2 4217  10.224   1.203   4.326
  326POPC   C1A 4218  10.367   1.512   4.666
  326POPC   D2A 4219  10.299   1.255   5.018
  326POPC   C3A 4220  10.137   1.428   5.371
  326POPC   C4A 4221  10.255   1.511   5.796
  326POPC   C1B 4222  10.141   0.914   4.664
  326POPC   C2B 4223  10.143   0.693   5.061
  326POPC   C3B 4224   9.982   0.748   5.454
  326POPC   C4B 4225  10.139   1.032   5.736
  327POPC   NC3 4226   1.095   1.893   4.069
  327POPC   PO4 4227   1.641   1.395   4.143
  327POPC   GL1 4228   1.660   1.616   4.477
  327POPC   GL2 4229   1.400   1.865   4.469
  327POPC   C1A 4230   1.567   1.591   4.893
  327POPC   D2A 4231   1.232   1.785   5.141
  327POPC   C3A 4232   1.325   2.082   5.477
  327POPC   C4A 4233   1.409   1.756   5.751
  327POPC   C1B 4234   1.052   2.039   4.740
  327POPC   C2B 4235   0.897   2.172   5.160
  327POPC   C3B 4236   0.835   1.926   5.491
  327POPC   C4B 4237   0.991   2.015   5.895
  328POPC   NC3 4238   9.327   3.558   3.934
  328POPC   PO4 4239   9.889   3.198   3.947
  328POPC   GL1 4240   9.538   3.083   4.256
  328POPC   GL2 4241   9.215   3.279   4.333
  328POPC   C1A 4242   9.575   3.250   4.694
  328POPC   D2A 4243   9.758   3.340   5.113
  328POPC   C3A 4244   9.482   3.239   5.451
  328POPC   C4A 4245   9.569   3.066   5.863
  328POPC   C1B 4246   9.107   3.588   4.637
  328POPC   C2B 4247   8.994   3.481   5.046
  328POPC   C3B 4248   9.003   3.654   5.425
  328POPC   C4B 4249   9.249   3.578   5.744
  329POPC   NC3 4250   9.455   2.220   3.871
  329POPC   PO4 4251   9.081   1.687   4.025
  329POPC   GL1 4252   9.255   2.026   4.292
  329POPC   GL2 4253   9.646   2.005   4.304
  329POPC   C1A 4254   9.369   2.220   4.677
  329POPC   D2A 4255   9.339   2.036   5.050
  329POPC   C3A 4256   9.351   2.223   5.411
  329POPC   C4A 4257   9.258   2.200   5.825
  329POPC   C1B 4258   9.517   1.727   4.678
  329POPC   C2B 4259   9.597   1.605   5.153
  329POPC   C3B 4260   9.357   1.736   5.556
  329POPC   C4B 4261   9.475   1.768   6.052
  330POPC   NC3 4262   0.320   7.104   3.833
  330POPC   PO4 4263   0.014   6.518   3.822
  330POPC   GL1 4264   0.098   6.886   4.221
  330POPC   GL2 4265   0.347   7.164   4.341
  330POPC   C1A 4266   0.194   6.846   4.698
  330POPC   D2A 4267   0.447   6.986   5.068
  330POPC   C3A 4268   0.234   7.139   5.427
  330POPC   C4A 4269   0.381   7.077   5.823
  330POPC   C1B 4270   0.679   7.257   4.697
  330POPC   C2B 4271   0.882   7.357   5.090
  330POPC   C3B 4272   0.688   7.376   5.480
  330POPC   C4B 4273   0.672   7.502   5.878
  331POPC   NC3 4274   1.499   4.976   3.868
  331POPC   PO4 4275   2.131   4.759   3.998
  331POPC   GL1 4276   2.050   5.002   4.348
  331POPC   GL2 4277   1.716   4.967   4.330
  331POPC   C1A 4278   1.955   5.071   4.792
  331POPC   D2A 4279   2.029   5.356   5.103
  331POPC   C3A 4280   2.235   5.261   5.503
  331POPC   C4A 4281   2.032   5.094   5.886
  331POPC   C1B 4282   1.730   4.640   4.670
  331POPC   C2B 4283   1.633   4.791   5.096
  331POPC   C3B 4284   1.896   4.906   5.388
  331POPC   C4B 4285   2.186   4.673   5.610
  332POPC   NC3 4286   1.128   7.936   3.989
  332POPC   PO4 4287   0.647   7.426   4.002
  332POPC   GL1 4288   0.724   7.770   4.317
  332POPC   GL2 4289   1.045   7.938   4.461
  332POPC   C1A 4290   0.737   7.754   4.776
  332POPC   D2A 4291   1.021   7.968   5.012
  332POPC   C3A 4292   0.922   7.807   5.374
  332POPC   C4A 4293   1.082   7.810   5.755
  332POPC   C1B 4294   1.463   7.982   4.622
  332POPC   C2B 4295   1.543   8.091   5.035
  332POPC   C3B 4296   1.351   8.082   5.418
  332POPC   C4B 4297   1.367   8.243   5.834
  333POPC   NC3 4298  10.038   6.483   3.887
  333POPC   PO4 4299  10.419   6.008   4.160
  333POPC   GL1 4300  10.135   6.262   4.368
  333POPC   GL2 4301  10.249   6.555   4.336
  333POPC   C1A 4302  10.062   6.281   4.797
  333POPC   D2A 4303  10.052   6.018   5.164
  333POPC   C3A 4304  10.395   6.159   5.414
  333POPC   C4A 4305  10.237   6.270   5.776
  333POPC   C1B 4306  10.171   6.795   4.676
  333POPC   C2B 4307  10.020   6.737   5.097
  333POPC   C3B 4308  10.188   6.670   5.468
  333POPC   C4B 4309  10.457   6.756   5.796
  334POPC   NC3 4310   3.376   3.601   3.843
  334POPC   PO4 4311   3.932   3.283   3.936
  334POPC   GL1 4312   3.625   3.212   4.284
  334POPC   GL2 4313   3.310   3.423   4.316
  334POPC   C1A 4314   3.632   3.321   4.746
  334POPC   D2A 4315   3.494   3.506   5.153
  334POPC   C3A 4316   3.546   3.278   5.549
  334POPC   C4A 4317   3.520   3.255   6.008
  334POPC   C1B 4318   3.092   3.336   4.704
  334POPC   C2B 4319   2.961   3.418   5.123
  334POPC   C3B 4320   3.125   3.581   5.514
  334POPC   C4B 4321   3.529   3.832   5.584
  335POPC   NC3 4322  10.365   5.195   3.856
  335POPC   PO4 4323  10.284   4.467   3.822
  335POPC   GL1 4324  10.296   4.676   4.231
  335POPC   GL2 4325  10.274   5.016   4.308
  335POPC   C1A 4326  10.143   4.661   4.657
  335POPC   D2A 4327  10.105   4.464   5.051
  335POPC   C3A 4328  10.136   4.672   5.411
  335POPC   C4A 4329   9.948   4.792   5.765
  335POPC   C1B 4330  10.203   5.182   4.661
  335POPC   C2B 4331  10.105   5.019   5.049
  335POPC   C3B 4332  10.246   5.161   5.444
  335POPC   C4B 4333  10.102   5.294   5.805
  336POPC   NC3 4334   6.346   1.179   3.775
  336POPC   PO4 4335   6.738   1.742   3.614
  336POPC   GL1 4336   6.632   1.505   4.111
  336POPC   GL2 4337   6.516   1.150   4.245
  336POPC   C1A 4338   6.682   1.427   4.626
  336POPC   D2A 4339   6.562   1.200   5.010
  336POPC   C3A 4340   6.639   1.312   5.428
  336POPC   C4A 4341   6.650   1.086   5.850
  336POPC   C1B 4342   6.323   0.959   4.631
  336POPC   C2B 4343   6.214   0.801   5.062
  336POPC   C3B 4344   6.248   0.976   5.475
  336POPC   C4B 4345   6.242   1.356   5.760
  337POPC   NC3 4346   2.346   9.621   3.737
  337POPC   PO4 4347   2.753   9.138   3.864
  337POPC   GL1 4348   2.848   9.453   4.344
  337POPC   GL2 4349   2.963   9.218   4.586
  337POPC   C1A 4350   2.727   9.624   4.756
  337POPC   D2A 4351   2.910   9.805   5.120
  337POPC   C3A 4352   2.666   9.594   5.417
  337POPC   C4A 4353   2.557   9.677   5.800
  337POPC   C1B 4354   2.761   9.074   4.904
  337POPC   C2B 4355   2.809   9.026   5.306
  337POPC   C3B 4356   2.675   9.143   5.665
  337POPC   C4B 4357   3.002   9.269   5.911
  338POPC   NC3 4358   6.464   2.538   3.648
  338POPC   PO4 4359   6.430   3.086   4.031
  338POPC   GL1 4360   6.481   2.947   4.441
  338POPC   GL2 4361   6.418   2.613   4.358
  338POPC   C1A 4362   6.519   2.920   4.899
  338POPC   D2A 4363   6.200   2.660   5.131
  338POPC   C3A 4364   6.173   2.801   5.574
  338POPC   C4A 4365   6.452   2.941   5.988
  338POPC   C1B 4366   6.606   2.467   4.701
  338POPC   C2B 4367   6.604   2.347   5.113
  338POPC   C3B 4368   6.625   2.612   5.446
  338POPC   C4B 4369   6.519   2.466   5.846
  339POPC   NC3 4370   1.331   1.034   3.616
  339POPC   PO4 4371   1.296   0.495   4.087
  339POPC   GL1 4372   1.200   0.557   4.458
  339POPC   GL2 4373   1.353   0.238   4.554
  339POPC   C1A 4374   0.935   0.744   4.746
  339POPC   D2A 4375   1.037   0.873   5.159
  339POPC   C3A 4376   1.073   0.553   5.478
  339POPC   C4A 4377   0.806   0.217   5.596
  339POPC   C1B 4378   1.338   0.492   4.945
  339POPC   C2B 4379   1.540   0.741   5.251
  339POPC   C3B 4380   1.559   0.582   5.644
  339POPC   C4B 4381   1.432   0.126   5.689
  340POPC   NC3 4382   1.866   1.790   4.014
  340POPC   PO4 4383   2.322   2.349   3.932
  340POPC   GL1 4384   2.206   2.051   4.316
  340POPC   GL2 4385   1.886   2.074   4.414
  340POPC   C1A 4386   2.154   1.926   4.806
  340POPC   D2A 4387   2.153   2.136   5.222
  340POPC   C3A 4388   2.286   1.911   5.586
  340POPC   C4A 4389   2.286   1.937   6.038
  340POPC   C1B 4390   1.680   2.180   4.743
  340POPC   C2B 4391   1.667   2.031   5.101
  340POPC   C3B 4392   1.786   1.778   5.410
  340POPC   C4B 4393   1.839   2.083   5.717
  341POPC   NC3 4394   8.484   6.744   3.926
  341POPC   PO4 4395   9.003   7.123   4.051
  341POPC   GL1 4396   8.680   7.037   4.286
  341POPC   GL2 4397   8.627   7.316   4.469
  341POPC   C1A 4398   8.457   6.821   4.580
  341POPC   D2A 4399   8.346   6.747   4.987
  341POPC   C3A 4400   8.397   6.975   5.366
  341POPC   C4A 4401   8.434   6.969   5.796
  341POPC   C1B 4402   8.824   7.110   4.772
  341POPC   C2B 4403   8.961   7.102   5.111
  341POPC   C3B 4404   8.931   7.320   5.408
  341POPC   C4B 4405   8.882   7.187   5.784
  342W        W 4406   1.298   4.691  10.445
  343W        W 4407   6.560   2.884   1.428
  344W        W 4408   6.577   8.599   9.116
  345W        W 4409   2.639   8.755  11.382
  346W        W 4410   6.238   6.138   1.324
  347W        W 4411   8.631   1.937   1.234
  348W        W 4412   3.768   7.522  11.546
  349W        W 4413   3.838   1.814   1.719
  350W        W 4414   6.949   3.252   0.073
  351W        W 4415   3.745   7.467   2.320
  352W        W 4416   7.537   7.482   3.088
  353W        W 4417   7.260   2.886  10.903
  354W        W 4418   6.623   6.025   2.547
  355W        W 4419  10.421   4.062   2.345
  356W        W 4420   0.732   2.879  11.585
  357W        W 4421   2.103   0.952  11.402
  358W        W 4422   0.801   2.627   8.763
  359W        W 4423   3.840   2.367  10.516
  360W        W 4424   7.596   0.747  11.926
  361W        W 4425   7.996   6.271  10.364
  362W        W 4426   9.576   5.051   1.959
  363W        W 4427   2.648   7.867   2.268
  364W        W 4428   3.760   6.444  10.491
  365W        W 4429   3.676   8.975   2.266
  366W        W 4430   5.596   9.700   1.318
  367W        W 4431   2.555   8.915   9.204
  368W        W 4432   4.951   4.830   1.666
  369W        W 4433   6.096   8.008   0.894
  370W        W 4434   9.185   3.294   9.402
  371W        W 4435  10.274   4.671   1.617
  372W        W 4436   8.552   9.372   3.219
  373W        W 4437   9.809   1.695  10.508
  374W        W 4438   4.632   4.389  10.885
  375W        W 4439   2.854   9.517   0.862
  376W        W 4440   3.921   8.621  11.471
  377W        W 4441  10.435   0.158   9.920
  378W        W 4442   8.508   8.400  10.442
  379W        W 4443   2.380   4.454   3.647
  380W        W 4444   3.337   9.673   0.990
  381W        W 4445   1.140   4.480   1.784
  382W        W 4446   6.129   8.580  10.961
  383W        W 4447   1.662   6.018   3.406
  384W        W 4448   1.539   9.239   0.402
  385W        W 4449   0.450   1.156   3.137
  386W        W 4450   2.180   7.853  11.035
  387W        W 4451   6.783   9.041  10.318
  388W        W 4452   3.056   7.702  11.935
  389W        W 4453   6.100   7.774  10.642
  390W        W 4454   2.587   5.269   2.817
  391W        W 4455   6.637   8.449  11.088
  392W        W 4456   9.023   9.496   3.044
  393W        W 4457   4.651  10.246   0.044
  394W        W 4458   7.394   6.199   3.702
  395W        W 4459   3.548   4.085   2.665
  396W        W 4460   1.512   9.663   3.532
  397W        W 4461  10.205   9.574   0.155
  398W        W 4462   3.755   7.716   9.975
  399W        W 4463   7.531  10.486   1.354
  400W        W 4464   5.207   4.654   8.250
  401W        W 4465   0.311   9.557  10.122
  402W        W 4466   9.695   9.456   2.465
  403W        W 4467   6.029   3.984   1.262
  404W        W 4468   7.213   1.318  10.337
  405W        W 4469   8.391   7.645   0.767
  406W        W 4470   3.793   0.262  10.066
  407W        W 4471   9.297   4.415   3.081
  408W        W 4472   2.357   3.236   9.362
  409W        W 4473   7.869   4.463  10.860
  410W        W 4474   8.010   7.600   3.265
  411W        W 4475   5.635   6.993   0.428
  412W        W 4476   9.093   9.158   2.162
  413W        W 4477   5.614   7.292   1.869
  414W        W 4478   8.441   6.259   8.600
  415W        W 4479   1.086   9.217   9.642
  416W        W 4480   8.064  10.153  10.162
  417W        W 4481   1.925  10.425   3.264
  418W        W 4482   7.899   0.960   2.294
  419W        W 4483   6.836   4.662   0.046
  420W        W 4484   8.872   3.466   2.345
  421W        W 4485   1.689   2.023   2.307
  422W        W 4486   9.668   8.352   0.797
  423W        W 4487   5.482   7.498  10.016
  424W        W 4488   1.331   7.451  10.938
  425W        W 4489   6.045   4.754  11.458
  426W        W 4490   0.921   9.552   0.419
  427W        W 4491   1.346   9.883   2.399
  428W        W 4492   4.131   4.503   0.206
  429W        W 4493   4.060   9.467   9.913
  430W        W 4494   4.808   3.210  10.294
  431W        W 4495   5.197   7.945   8.939
  432W        W 4496   6.037  10.024   2.761
  433W        W 4497   8.864   4.823  11.817
  434W        W 4498   0.847   7.550   3.114
  435W        W 4499   0.858   4.950   2.636
  436W        W 4500   4.401  10.399  10.013
  437W        W 4501   3.849   0.439  11.450
  438W        W 4502  10.498   6.982  11.328
  439W        W 4503   8.443   3.141   8.847
  440W        W 4504   3.613   6.443   3.663
  441W        W 4505   4.264   8.473   0.753
  442W        W 4506   4.263   8.841  11.102
  443W        W 4507   1.929   5.598   3.289
  444W        W 4508   7.605   8.586   1.263
  445W        W 4509   4.973   7.215   4.140
  446W        W 4510   6.443   9.802  11.490
  447W        W 4511   7.144   0.870   9.173
  448W        W 4512   4.785  10.455  10.591
  449W        W 4513   9.005   5.507   3.516
  450W        W 4514   1.665   6.642   9.329
  451W        W 4515   8.438   4.035   2.217
  452W        W 4516   8.985   6.618   1.473
  453W        W 4517   7.460   7.728   2.655
  454W        W 4518   7.020   5.987   3.071
  455W        W 4519   1.845   6.625  10.833
  456W        W 4520   8.711   3.410   0.051
  457W        W 4521   7.162   0.809   1.004
  458W        W 4522   1.900   5.284   9.108
  459W        W 4523   9.077   5.452  10.105
  460W        W 4524  10.252   5.014   0.723
  461W        W 4525   2.843   4.704   3.532
  462W        W 4526   1.000   7.015   1.312
  463W        W 4527   0.888   4.439  10.292
  464W        W 4528   6.950   4.920   0.909
  465W        W 4529   6.426   2.054   9.541
  466W        W 4530   7.502   0.508  11.294
  467W        W 4531   5.628   8.492  10.869
  468W        W 4532   3.758   7.074   9.141
  469W        W 4533  10.132   7.593  10.406
  470W        W 4534   9.338   1.838  10.363
  471W        W 4535   1.603   1.938   1.781
  472W        W 4536   7.036   3.140   3.081
  473W        W 4537   3.990   0.353   8.729
  474W        W 4538   4.747   4.871   8.417
  475W        W 4539   5.040   2.585   0.348
  476W        W 4540   6.663   6.691  11.891
  477W        W 4541   7.739   0.481   2.302
  478W        W 4542   4.519   9.635   8.522
  479W        W 4543   8.420   0.822   2.279
  480W        W 4544   5.274   9.144  11.963
  481W        W 4545   4.723   6.604  10.725
  482W        W 4546   6.732   3.099   0.989
  483W        W 4547   0.852   2.113   0.704
  484W        W 4548   8.490   7.437   3.369
  485W        W 4549   1.285  10.280   3.244
  486W        W 4550   6.509   6.905   3.264
  487W        W 4551   3.776   8.504   0.899
  488W        W 4552   5.709   8.442   2.696
  489W        W 4553   2.701   6.167   8.311
  490W        W 4554   3.754   8.769   3.524
  491W        W 4555   2.164   8.526   1.636
  492W        W 4556   7.280   6.502  10.729
  493W        W 4557   1.183   5.633   9.010
  494W        W 4558   7.730   6.841   9.340
  495W        W 4559   4.570   7.112  10.737
  496W        W 4560   5.527   3.747   8.180
  497W        W 4561   3.152   4.098   9.755
  498W        W 4562   8.960   1.321   9.720
  499W        W 4563   0.046   3.162   2.685
  500W        W 4564   6.005   4.753   2.475
  501W        W 4565   7.709   8.980  11.493
  502W        W 4566   4.128   2.572   9.447
  503W        W 4567  10.011   0.189  10.214
  504W        W 4568   7.562   0.105   3.364
  505W        W 4569   0.741   2.511  10.744
  506W        W 4570   3.203   6.735   2.469
  507W        W 4571   1.145   2.375   9.701
  508W        W 4572   4.086   6.244   1.976
  509W        W 4573   3.814   5.022  10.618
  510W        W 4574   9.242   2.767  11.362
  511W        W 4575   5.501   4.950   3.665
  512W        W 4576   8.568   9.872   1.678
  513W        W 4577   2.438   9.181   1.228
  514W        W 4578   4.506   4.541   9.989
  515W        W 4579   6.748   7.551   1.338
  516W        W 4580   4.636   9.285  11.567
  517W        W 4581   5.147   3.626   3.273
  518W        W 4582   8.939   5.996   0.857
  519W        W 4583   2.838   3.719   3.152
  520W        W 4584   6.977   4.518   3.878
  521W        W 4585   4.816   9.848  10.306
  522W        W 4586  10.345   6.101   8.855
  523W        W 4587   5.274   4.060   0.193
  524W        W 4588   9.470   4.257   0.733
  525W        W 4589   5.310   4.129  10.327
  526W        W 4590  10.247   4.268  10.107
  527W        W 4591   4.298  10.118   2.726
  528W        W 4592   2.494   1.471   3.055
  529W        W 4593   6.171   3.476   3.113
  530W        W 4594   6.948   0.364   1.996
  531W        W 4595   2.774   1.420   1.009
  532W        W 4596   5.972   3.138   8.854
  533W        W 4597   3.138   2.251   9.537
  534W        W 4598   9.109   4.185   9.584
  535W        W 4599   8.463   2.446   0.400
  536W        W 4600   5.689   5.458   9.486
  537W        W 4601   2.640   1.564   9.052
  538W        W 4602   8.908   4.280  10.513
  539W        W 4603   2.219   9.930   9.020
  540W        W 4604   5.761   7.172  11.937
  541W        W 4605   8.467   3.869   2.742
  542W        W 4606  10.202   9.558   2.410
  543W        W 4607   9.318   5.090  11.015
  544W        W 4608   7.925   6.472   2.273
  545W        W 4609   6.947   4.756   9.811
  546W        W 4610   1.273   5.120   2.348
  547W        W 4611   9.634   0.437  10.446
  548W        W 4612   9.803   0.380   1.239
  549W        W 4613   4.794   1.774   1.950
  550W        W 4614   5.327   7.375   0.305
  551W        W 4615   0.532   4.008  11.396
  552W        W 4616   8.062   5.757   3.435
  553W        W 4617   4.244   8.278  11.179
  554W        W 4618   4.743   9.859   2.690
  555W        W 4619   1.339   9.772   1.402
  556W        W 4620  10.383   1.205   1.413
  557W        W 4621   7.966   5.478   9.374
  558W        W 4622   3.867   0.687   9.750
  559W        W 4623   0.498   0.837   2.747
  560W        W 4624   3.796   9.522   0.640
  561W        W 4625   1.592   1.982  10.978
  562W        W 4626   5.466   2.629   9.251
  563W        W 4627   3.491   3.376   0.370
  564W        W 4628   4.052   8.238  10.290
  565W        W 4629   9.081   1.479   8.708
  566W        W 4630   8.049   6.267  11.719
  567W        W 4631   8.109   4.613  10.445
  568W        W 4632   3.260   0.895   8.751
  569W        W 4633   2.338   8.193   1.310
  570W        W 4634   0.671   6.045   3.272
  571W        W 4635   3.559   6.768   3.234
  572W        W 4636   8.245   3.406   0.261
  573W        W 4637   3.039   0.109   0.951
  574W        W 4638   2.621  10.229   8.839
  575W        W 4639   3.737   1.402   1.404
  576W        W 4640   2.068   5.090   9.755
  577W        W 4641   4.252   0.233  11.753
  578W        W 4642   9.936   4.877  10.089
  579W        W 4643   5.439   1.286  10.033
  580W        W 4644   9.954   8.550   9.509
  581W        W 4645   0.756   4.045   9.975
  582W        W 4646   9.330   0.482   9.528
  583W        W 4647   3.959   5.955   3.233
  584W        W 4648  10.281   7.465   8.502
  585W        W 4649   5.186   8.246   1.448
  586W        W 4650   7.046   1.535  10.836
  587W        W 4651  10.366   1.585   2.928
  588W        W 4652   2.281   2.683   0.663
  589W        W 4653  10.337   9.401   8.994
  590W        W 4654   1.743   3.327  11.491
  591W        W 4655   7.866   9.360   2.121
  592W        W 4656   9.951   3.765   1.142
  593W        W 4657   1.256   0.043  10.321
  594W        W 4658   1.464   9.002   9.357
  595W        W 4659   7.983   8.571  10.730
  596W        W 4660  10.098   4.367   3.317
  597W        W 4661   5.554   4.997  11.359
  598W        W 4662   1.738   2.721   2.925
  599W        W 4663   0.101   4.282   3.487
  600W        W 4664   8.375   0.499  11.261
  601W        W 4665  10.349  10.377   1.251
  602W        W 4666   1.046   4.820   3.106
  603W        W 4667   4.523   6.198   8.558
  604W        W 4668  10.230   3.438   3.486
  605W        W 4669  10.394   5.159  10.089
  606W        W 4670   8.942   5.172   2.532
  607W        W 4671   9.406   6.130   3.241
  608W        W 4672  10.295   0.629  10.064
  609W        W 4673   4.291   3.748   2.705
  610W        W 4674  10.352  10.082  10.772
  611W        W 4675   7.119   3.298  10.598
  612W        W 4676   4.956   2.126   9.695
  613W        W 4677   6.379   3.530   8.516
  614W        W 4678  10.388   3.759   1.452
  615W        W 4679   9.565   5.995   2.360
  616W        W 4680   5.076   2.598   9.578
  617W        W 4681   1.769  10.286  11.657
  618W        W 4682   3.616   1.326  10.418
  619W        W 4683   8.342  10.051  10.917
  620W        W 4684   2.886   1.277   0.231
  621W        W 4685   2.410   8.397   9.184
  622W        W 4686  10.245  10.200   1.756
  623W        W 4687   9.727   2.671   0.453
  624W        W 4688   0.396   1.170   1.747
  625W        W 4689   2.107   5.542   9.525
  626W        W 4690   8.072   6.946   1.402
  627W        W 4691   0.314   9.525   9.608
  628W        W 4692   5.328   5.060   1.410
  629W        W 4693   5.341   0.201   1.187
  630W        W 4694   9.503   7.949   9.936
  631W        W 4695   9.757   7.831  11.872
  632W        W 4696   3.744   2.245   3.576
  633W        W 4697   9.851   3.850   9.330
  634W        W 4698   6.671   7.442   9.999
  635W        W 4699   7.683   3.192   9.261
  636W        W 4700   3.174   0.600   3.496
  637W        W 4701   0.818   3.989   8.951
  638W        W 4702   8.453   0.356  11.732
  639W        W 4703   0.848   0.472   8.974
  640W        W 4704   7.064   4.068   2.591
  641W        W 4705   9.520   0.081   8.536
  642W        W 4706   5.157   7.240   1.662
  643W        W 4707   6.053   2.061   2.152
  644W        W 4708   9.561   7.037  11.510
  645W        W 4709   5.178   7.677   2.603
  646W        W 4710   7.497   7.649   8.841
  647W        W 4711   3.583   5.155   1.213
  648W        W 4712   7.890   3.958  11.002
  649W        W 4713   6.122   5.978   2.766
  650W        W 4714   6.163   1.888   9.129
  651W        W 4715   7.911   4.344   0.456
  652W        W 4716   5.793   8.384  10.044
  653W        W 4717   7.141   5.959  11.852
  654W        W 4718   0.914   1.417   9.792
  655W        W 4719   9.935   6.237   0.898
  656W        W 4720   8.158   5.645   0.595
  657W        W 4721   2.808   5.036   9.550
  658W        W 4722   0.389   1.249  11.847
  659W        W 4723   8.032   5.411   1.345
  660W        W 4724   4.542   9.857   2.207
  661W        W 4725   2.597   1.985  11.799
  662W        W 4726   1.884   4.697   8.537
  663W        W 4727   6.028   3.237   0.738
  664W        W 4728   0.160   9.298   2.509
  665W        W 4729   6.545   1.374   1.334
  666W        W 4730   7.176   0.376   9.388
  667W        W 4731   2.111   6.582   9.024
  668W        W 4732   7.009   3.191   0.571
  669W        W 4733   2.467   9.642   0.212
  670W        W 4734   4.015   3.266  10.035
  671W        W 4735   5.072   3.537   2.786
  672W        W 4736   8.812   8.414  11.872
  673W        W 4737   4.580   0.601  10.493
  674W        W 4738   4.251   0.920   9.982
  675W        W 4739   5.178   0.868   8.921
  676W        W 4740   9.971   0.305   0.216
  677W        W 4741   6.052   9.654   0.030
  678W        W 4742   6.518   4.732  11.660
  679W        W 4743   2.329   1.341   8.534
  680W        W 4744   1.764   4.672  10.614
  681W        W 4745   4.216   7.988   1.639
  682W        W 4746   4.637   0.528   1.018
  683W        W 4747   7.481   0.148  10.872
  684W        W 4748   0.108   4.943  11.270
  685W        W 4749   4.042   2.878  10.385
  686W        W 4750   7.977   6.775   0.923
  687W        W 4751   7.878   9.033   1.344
  688W        W 4752   5.679   4.524  10.290
  689W        W 4753   2.090   8.591  11.429
  690W        W 4754   5.680   7.565   2.308
  691W        W 4755   7.720   1.872  11.383
  692W        W 4756   0.507   6.986  11.126
  693W        W 4757   2.827   4.515   1.501
  694W        W 4758   9.841   1.210  10.662
  695W        W 4759   6.016   0.658   1.472
  696W        W 4760   0.708   0.676  10.350
  697W        W 4761   9.569   2.603  10.007
  698W        W 4762   3.549   9.172   1.808
  699W        W 4763   1.471   5.597   2.366
  700W        W 4764   5.022   6.607   8.990
  701W        W 4765   6.406   0.723   9.431
  702W        W 4766   2.371   3.067  10.969
  703W        W 4767   4.623   6.023   2.851
  704W        W 4768   5.198   2.224   0.022
  705W        W 4769   3.765   9.877   2.733
  706W        W 4770   3.035   7.970  10.067
  707W        W 4771   3.849   8.221   1.894
  708W        W 4772   2.477   0.939   2.187
  709W        W 4773   3.006   1.114  11.362
  710W        W 4774   0.362   2.398   9.159
  711W        W 4775   8.559   7.127   1.594
  712W        W 4776   2.309   1.201   1.706
  713W        W 4777   4.152   1.769   0.206
  714W        W 4778   5.662   7.910   2.852
  715W        W 4779   2.779   7.017  11.336
  716W        W 4780   7.156   1.719   2.327
  717W        W 4781   7.322   8.568  11.512
  718W        W 4782   1.348   3.327   8.738
  719W        W 4783   0.938   3.695  11.251
  720W        W 4784   1.880   4.135   1.276
  721W        W 4785   8.004   8.369   9.722
  722W        W 4786   2.069   7.614  10.053
  723W        W 4787   6.181   3.054   2.236
  724W        W 4788   1.203  10.012  11.688
  725W        W 4789   6.493   6.956  10.539
  726W        W 4790   5.720   6.609   8.405
  727W        W 4791   0.900   2.613   0.597
  728W        W 4792   9.962   6.127  11.972
  729W        W 4793   9.448   8.667  11.307
  730W        W 4794   9.233   5.213  10.522
  731W        W 4795   8.900   2.728   3.039
  732W        W 4796   0.588   9.500   3.405
  733W        W 4797   1.416   6.702   1.413
  734W        W 4798   6.554   8.004  11.343
  735W        W 4799   6.109   8.383   8.721
  736W        W 4800   0.997  10.192   2.247
  737W        W 4801   2.787   2.196   1.258
  738W        W 4802   5.136   3.598   0.033
  739W        W 4803   7.479   4.581   3.689
  740W        W 4804   6.002   0.569  10.629
  741W        W 4805   0.784   0.140   2.295
  742W        W 4806  10.166  10.236   9.993
  743W        W 4807   3.520   8.854  11.688
  744W        W 4808   2.820   5.091   1.832
  745W        W 4809   1.472   0.962   2.548
  746W        W 4810   6.589   6.517   2.189
  747W        W 4811   2.590   6.997   9.724
  748W        W 4812   4.758   7.514   2.295
  749W        W 4813   0.006   3.453  11.953
  750W        W 4814   3.240   8.939   1.472
  751W        W 4815   4.628  10.241   3.505
  752W        W 4816   9.128   8.806   1.812
  753W        W 4817   6.200  10.492   2.660
  754W        W 4818   6.436   3.385   2.662
  755W        W 4819   4.509   3.080   8.959
  756W        W 4820   4.741   0.767   3.361
  757W        W 4821   2.159   8.009   2.432
  758W        W 4822   8.685   1.772   2.014
  759W        W 4823   9.508   6.968   8.791
  760W        W 4824   7.428   2.281   8.736
  761W        W 4825   2.753   1.672   0.558
  762W        W 4826   7.678   8.628   8.903
  763W        W 4827   3.267   4.515   1.762
  764W        W 4828   9.865   8.759   1.017
  765W        W 4829   0.232   9.862  10.541
  766W        W 4830   9.463   5.128  10.016
  767W        W 4831   7.898   4.579   1.537
  768W        W 4832   3.366   9.452   1.434
  769W        W 4833   0.686   5.632   9.571
  770W        W 4834   4.044   6.625   9.204
  771W        W 4835   5.850   1.652   1.926
  772W        W 4836   7.284  10.000   9.211
  773W        W 4837   6.729   4.668   9.081
  774W        W 4838   2.308   8.216  10.681
  775W        W 4839   4.466   8.320   8.475
  776W        W 4840   5.588   8.814   9.713
  777W        W 4841   8.324   9.470  11.779
  778W        W 4842   7.360   7.852  11.033
  779W        W 4843   6.830   9.803   1.672
  780W        W 4844   7.711   2.655  10.917
  781W        W 4845   7.098   6.906   0.867
  782W        W 4846   0.468  10.300  10.479
  783W        W 4847   1.269   7.923   9.125
  784W        W 4848   1.847   8.389   0.256
  785W        W 4849   1.692   3.819   0.433
  786W        W 4850   8.321   9.046   9.239
  787W        W 4851   2.370   5.722  11.884
  788W        W 4852   6.401   4.007   9.735
  789W        W 4853   9.790   2.825   1.459
  790W        W 4854   3.187   7.491   0.384
  791W        W 4855   1.825   5.718   0.518
  792W        W 4856   6.226   5.540   3.051
  793W        W 4857   9.969   9.970   0.371
  794W        W 4858   4.580  10.408   9.177
  795W        W 4859  10.480   7.901   1.795
  796W        W 4860   3.718   7.063  11.845
  797W        W 4861   8.374   1.287   9.062
  798W        W 4862   9.129   8.043   0.621
  799W        W 4863   1.262   5.523   0.596
  800W        W 4864   2.281  10.021   2.502
  801W        W 4865   3.749   8.441  11.939
  802W        W 4866   0.791   0.180  10.473
  803W        W 4867   9.565   8.950   0.194
  804W        W 4868   4.918   1.628   3.686
  805W        W 4869   3.413  10.363  10.370
  806W        W 4870   3.105   8.522  10.371
  807W        W 4871   4.911   4.170  11.271
  808W        W 4872   6.198   1.410   0.267
  809W        W 4873   9.082   5.528  10.933
  810W        W 4874   0.361   6.037   8.864
  811W        W 4875   7.018   2.735   1.717
  812W        W 4876   2.687   3.221   1.971
  813W        W 4877   1.887   7.959   1.449
  814W        W 4878   1.933  10.383   2.667
  815W        W 4879   8.599   4.673  10.555
  816W        W 4880   9.948   8.372   3.259
  817W        W 4881   3.901   3.399   0.698
  818W        W 4882   5.097   4.644   3.712
  819W        W 4883   3.572   7.866   9.458
  820W        W 4884   5.112   8.472   8.923
  821W        W 4885   4.613   6.851   3.480
  822W        W 4886   6.955   8.048   2.539
  823W        W 4887  10.495   3.708   8.853
  824W        W 4888   8.505   9.970   2.177
  825W        W 4889   0.359   9.892   1.708
  826W        W 4890   6.881  10.467   9.670
  827W        W 4891   6.560   6.524   9.731
  828W        W 4892  10.252   6.121   3.597
  829W        W 4893   7.674   8.890   1.978
  830W        W 4894   9.101   7.560  11.951
  831W        W 4895  10.013   3.283  10.981
  832W        W 4896   6.115   0.048   0.707
  833W        W 4897   1.232   3.634  10.086
  834W        W 4898   9.829   1.922   8.576
  835W        W 4899   0.280   2.698   1.505
  836W        W 4900   9.369   8.367   1.981
  837W        W 4901   2.824   7.403   3.330
  838W        W 4902   0.043   6.597   0.712
  839W        W 4903   8.152   9.418   8.701
  840W        W 4904   2.911   1.624  10.515
  841W        W 4905   2.369   6.986   8.802
  842W        W 4906   3.262   8.443  10.927
  843W        W 4907   4.023   6.126   8.418
  844W        W 4908   5.503   3.857   3.564
  845W        W 4909   1.685   8.058   9.401
  846W        W 4910   7.550   8.390   1.830
  847W        W 4911  10.439   4.194   1.181
  848W        W 4912   7.775   6.418  10.785
  849W        W 4913   7.020   7.453   3.178
  850W        W 4914   9.679   6.467  10.734
  851W        W 4915   3.154   2.633   0.988
  852W        W 4916   2.988   1.773   0.060
  853W        W 4917   3.286   4.884  11.519
  854W        W 4918   5.177   5.754  11.851
  855W        W 4919   1.348   3.316   1.193
  856W        W 4920   9.026   3.563  10.836
  857W        W 4921   8.182   8.815   0.398
  858W        W 4922   2.743   6.974   1.451
  859W        W 4923   9.866   7.361   1.743
  860W        W 4924   5.161  10.478  11.347
  861W        W 4925   5.706   8.063   3.392
  862W        W 4926   3.346   9.392   3.467
  863W        W 4927  10.449   0.857   1.805
  864W        W 4928   7.367   6.714   3.646
  865W        W 4929   7.516   4.887  11.795
  866W        W 4930   6.475   8.846   2.539
  867W        W 4931   6.987   7.505   1.799
  868W        W 4932   1.930   4.781   2.507
  869W        W 4933   7.627   9.138   9.999
  870W        W 4934   0.259   4.263   0.470
  871W        W 4935   7.129   2.705   8.845
  872W        W 4936   8.146   3.238   1.510
  873W        W 4937   1.306   6.214   1.528
  874W        W 4938   4.249   4.683  11.728
  875W        W 4939  10.441   7.525  10.011
  876W        W 4940   9.599   0.658   9.938
  877W        W 4941   9.924   0.729  10.786
  878W        W 4942   4.170   4.622   3.702
  879W        W 4943   3.590   9.064   9.102
  880W        W 4944   3.309   9.248   2.471
  881W        W 4945   5.004   7.640   0.034
  882W        W 4946   8.614   5.061  11.385
  883W        W 4947   0.424   0.499   9.269
  884W        W 4948   0.941   8.534  10.228
  885W        W 4949   4.214   2.376   3.049
  886W        W 4950   0.471   8.315   1.245
  887W        W 4951   1.836   8.848   1.882
  888W        W 4952   5.625   3.234   8.084
  889W        W 4953   3.818   0.378   0.445
  890W        W 4954   1.181   5.168   9.704
  891W        W 4955   9.096   9.271   3.483
  892W        W 4956   1.626   0.946   1.097
  893W        W 4957   7.623   1.050   1.151
  894W        W 4958   9.987  10.031   1.248
  895W        W 4959   1.246   5.014   0.388
  896W        W 4960   1.744   0.714   9.481
  897W        W 4961   1.824   6.679   2.275
  898W        W 4962   7.819   9.000  10.447
  899W        W 4963  10.402   3.199   8.736
  900W        W 4964  10.290   7.964   8.718
  901W        W 4965   9.126   9.560  10.957
  902W        W 4966  10.115   9.963   8.990
  903W        W 4967   2.402   7.268   0.942
  904W        W 4968  10.056   9.087   0.351
  905W        W 4969   0.285   0.696  10.680
  906W        W 4970   4.786   0.815   2.176
  907W        W 4971   4.561   8.730   3.554
  908W        W 4972  10.378   8.570   0.232
  909W        W 4973   3.268   2.094  10.806
  910W        W 4974   6.511   0.749  11.282
  911W        W 4975   0.052   3.259   2.168
  912W        W 4976   5.127   7.164   2.201
  913W        W 4977   1.136   3.790   2.388
  914W        W 4978   7.619   9.274  11.932
  915W        W 4979   9.832   1.224   0.494
  916W        W 4980   5.625   7.706  10.457
  917W        W 4981   2.832   7.438   0.736
  918W        W 4982   8.474   3.613   3.296
  919W        W 4983   0.648   5.615  11.863
  920W        W 4984   2.179   9.560   1.470
  921W        W 4985   5.456   7.705   3.716
  922W        W 4986   0.470   8.464   0.391
  923W        W 4987   5.983   7.526  11.614
  924W        W 4988   6.528   7.189   0.814
  925W        W 4989   8.768   7.322   0.890
  926W        W 4990   4.973   0.769   2.678
  927W        W 4991   4.415   6.930  11.205
  928W        W 4992   7.500   5.088   3.535
  929W        W 4993   3.080   3.021   1.730
  930W        W 4994   8.619   3.290   1.744
  931W        W 4995   1.351   2.795   3.318
  932W        W 4996   7.537   8.550  10.292
  933W        W 4997   4.854   3.092   2.236
  934W        W 4998   5.813   2.257   9.224
  935W        W 4999   6.489   9.352  10.727
  936W        W 5000   7.064   7.415   0.908
  937W        W 5001   4.992   5.499   2.125
  938W        W 5002   4.646   7.605   9.041
  939W        W 5003   0.528   9.906   0.270
  940W        W 5004   3.090   2.826  10.313
  941W        W 5005   0.275   5.557   1.863
  942W        W 5006  10.335   9.953   2.766
  943W        W 5007   9.926   9.572   9.284
  944W        W 5008   7.106   9.885   2.148
  945W        W 5009   5.642   6.032   2.970
  946W        W 5010  10.073   2.535   2.879
  947W        W 5011   8.384   2.937   0.306
  948W        W 5012   3.815   7.057  11.331
  949W        W 5013   6.102   6.599  10.038
  950W        W 5014   8.022   5.538   2.431
  951W        W 5015   5.211   7.636   2.073
  952W        W 5016   6.006   9.564   0.525
  953W        W 5017   9.781  10.463   3.848
  954W        W 5018   6.069   0.022  11.267
  955W        W 5019   6.529   4.011   0.013
  956W        W 5020   7.734   2.474   0.655
  957W        W 5021   1.888   4.869   3.562
  958W        W 5022   6.564   9.131   9.856
  959W        W 5023   1.379   0.543   2.940
  960W        W 5024   9.535   6.966  10.758
  961W        W 5025   9.120   3.039   2.306
  962W        W 5026   9.878   0.901   3.882
  963W        W 5027   0.591   4.723   8.658
  964W        W 5028   3.311   6.152  10.507
  965W        W 5029   6.241   7.225   3.598
  966W        W 5030   2.761   3.715   2.124
  967W        W 5031   3.583   6.490   2.210
  968W        W 5032   5.248   2.098   1.227
  969W        W 5033   3.394   4.997   0.778
  970W        W 5034   2.658   0.200   9.301
  971W        W 5035   4.598   4.588   1.937
  972W        W 5036  10.100   7.233   2.410
  973W        W 5037   7.111   8.352   8.618
  974W        W 5038   5.221   2.218   2.108
  975W        W 5039   1.203   5.262   2.898
  976W        W 5040   8.128   1.788   9.007
  977W        W 5041   6.643   5.401   9.520
  978W        W 5042   6.499   4.132   0.926
  979W        W 5043   4.980   1.435  10.198
  980W        W 5044   2.213   5.996   8.598
  981W        W 5045   0.892   6.820   2.824
  982W        W 5046   7.154   3.127   2.055
  983W        W 5047   7.487   6.588   0.970
  984W        W 5048   2.917   9.549  11.804
  985W        W 5049   0.742   2.349   2.148
  986W        W 5050   4.609   8.190   9.932
  987W        W 5051   2.453   9.367   3.168
  988W        W 5052   4.563   1.228   9.437
  989W        W 5053   3.877   3.623   3.561
  990W        W 5054   6.265   1.548   9.468
  991W        W 5055   4.724   6.582   4.237
  992W        W 5056   6.240   1.413   3.275
  993W        W 5057   9.511   4.132  11.348
  994W        W 5058   2.195   7.843   3.491
  995W        W 5059   1.632   5.536   1.869
  996W        W 5060   8.729   1.523   1.548
  997W        W 5061   1.292   9.496   9.258
  998W        W 5062   0.866   6.888   8.703
  999W        W 5063   2.917   1.462   2.776
 1000W        W 5064   5.583   9.499   9.953
 1001W        W 5065   0.547   1.790   1.358
 1002W        W 5066   5.514   6.925   0.926
 1003W        W 5067   5.512   4.861  10.852
 1004W        W 5068   1.751   9.973  10.830
 1005W        W 5069   3.793   4.939  11.613
 1006W        W 5070   0.031   6.214  10.886
 1007W        W 5071   8.371   2.782  11.429
 1008W        W 5072   6.799   8.505  11.556
 1009W        W 5073   1.330   0.538   1.159
 1010W        W 5074   0.922   7.316   2.662
 1011W        W 5075   1.236   0.601   1.677
 1012W        W 5076   5.197   5.592   9.444
 1013W        W 5077   7.663   4.792   8.750
 1014W        W 5078   3.753   4.557   2.453
 1015W        W 5079   9.538   9.752   9.636
 1016W        W 5080   5.848   3.239   3.927
 1017W        W 5081   9.085   3.105  11.012
 1018W        W 5082   8.164   1.742   1.294
 1019W        W 5083   0.707   9.906  11.784
 1020W        W 5084   8.685   8.983   0.497
 1021W        W 5085   6.950   7.943   9.365
 1022W        W 5086   9.084   2.610  10.888
 1023W        W 5087   7.562   0.989   8.890
 1024W        W 5088   4.099   4.711  10.275
 1025W        W 5089   4.503   8.962   1.647
 1026W        W 5090   3.554   0.014   0.189
 1027W        W 5091   6.768   6.153   1.302
 1028W        W 5092   7.657   1.740   2.302
 1029W        W 5093   8.001   1.926  10.048
 1030W        W 5094   6.029   4.561   3.797
 1031W        W 5095   2.811   6.033   0.561
 1032W        W 5096   4.916  10.495   0.417
 1033W        W 5097   1.890   6.115   8.998
 1034W        W 5098   8.946   9.396   0.813
 1035W        W 5099   6.530   8.925  11.565
 1036W        W 5100   8.656   0.211  10.390
 1037W        W 5101  10.047   2.640  10.122
 1038W        W 5102   1.345   2.387   2.963
 1039W        W 5103   1.981   7.564   2.668
 1040W        W 5104   4.232   9.957   0.154
 1041W        W 5105   0.237   8.612   9.939
 1042W        W 5106   9.418   6.563  11.668
 1043W        W 5107   2.077   7.638   8.704
 1044W        W 5108   7.494   3.144  11.817
 1045W        W 5109   4.072   6.611   0.442
 1046W        W 5110   4.105   6.605   0.954
 1047W        W 5111   8.422  10.019   0.755
 1048W        W 5112   5.022   6.733   3.850
 1049W        W 5113   6.506   3.503   0.070
 1050W        W 5114   0.278   3.717   2.228
 1051W        W 5115   0.688   6.447   8.978
 1052W        W 5116   9.073   5.019   0.361
 1053W        W 5117   9.612   3.134   2.290
 1054W        W 5118   3.430   4.666   9.126
 1055W        W 5119   9.727   7.288  10.393
 1056W        W 5120   6.700   3.925   8.450
 1057W        W 5121   1.279   4.154  10.000
 1058W        W 5122   4.260   4.701  10.763
 1059W        W 5123   8.110   9.528  10.860
 1060W        W 5124   4.523   6.946   9.351
 1061W        W 5125   9.778   9.875   2.179
 1062W        W 5126   7.430   4.673   0.283
 1063W        W 5127   8.558   3.777   0.917
 1064W        W 5128   0.073   1.952  10.704
 1065W        W 5129   4.380   5.248   1.006
 1066W        W 5130   9.294   8.839   9.897
 1067W        W 5131   5.876   0.490   9.118
 1068W        W 5132   9.937   2.215   9.302
 1069W        W 5133   4.081   7.879   9.321
 1070W        W 5134   6.562   2.809   1.944
 1071W        W 5135   3.638   1.436   3.507
 1072W        W 5136   1.732   1.659   9.098
 1073W        W 5137   5.997  10.415   1.170
 1074W        W 5138   9.998   6.127   9.620
 1075W        W 5139   2.780   4.731   3.021
 1076W        W 5140   9.000   0.962   1.695
 1077W        W 5141   2.734   5.505   0.257
 1078W        W 5142   5.931   4.862   1.988
 1079W        W 5143   2.660  10.226   0.212
 1080W        W 5144   5.588   9.747   3.252
 1081W        W 5145   0.018   2.324   0.431
 1082W        W 5146   5.697   1.911   2.534
 1083W        W 5147   5.996  10.080   0.451
 1084W        W 5148   2.645   2.692  11.270
 1085W        W 5149   4.816   8.598   1.479
 1086W        W 5150   8.117   8.093   3.411
 1087W        W 5151   0.775  10.318   3.346
 1088W        W 5152   5.596   5.940   9.471
 1089W        W 5153   2.859   7.885   0.986
 1090W        W 5154   0.313   2.648   3.327
 1091W        W 5155   6.574   1.200  11.517
 1092W        W 5156   5.982   0.833   0.936
 1093W        W 5157   7.899   7.785   0.687
 1094W        W 5158   1.829   5.517   1.383
 1095W        W 5159   2.700   3.392  11.751
 1096W        W 5160   1.395   6.447   3.532
 1097W        W 5161   3.295   8.394   2.146
 1098W        W 5162   6.636   6.704   0.862
 1099W        W 5163   3.310   8.664   1.048
 1100W        W 5164   7.413   0.274   2.886
 1101W        W 5165   0.508   3.378  11.828
 1102W        W 5166   3.827   8.826   2.734
 1103W        W 5167   2.758   4.326   1.026
 1104W        W 5168   6.010   3.671   0.469
 1105W        W 5169   2.317   8.116   0.375
 1106W        W 5170   9.948   6.329  10.314
 1107W        W 5171   9.812   8.958   9.945
 1108W        W 5172   1.651   3.869   2.355
 1109W        W 5173   2.793   9.498   3.513
 1110W        W 5174   9.909   5.445   1.912
 1111W        W 5175   2.168   7.361   9.144
 1112W        W 5176  10.492   1.124   9.856
 1113W        W 5177   3.150  10.255   1.949
 1114W        W 5178   7.019  10.352   1.235
 1115W        W 5179   0.404   9.328   0.998
 1116W        W 5180   4.506   0.478   3.006
 1117W        W 5181   3.402   3.550   0.855
 1118W        W 5182   7.245  10.336  10.528
 1119W        W 5183   5.084  10.480  11.916
 1120W        W 5184   4.789   9.971   9.326
 1121W        W 5185   7.232   8.846   0.802
 1122W        W 5186   5.390   5.775   9.893
 1123W        W 5187   9.337   9.081   3.049
 1124W        W 5188   3.525   3.102  10.086
 1125W        W 5189   1.320   8.154  10.171
 1126W        W 5190   4.119   4.190  10.895
 1127W        W 5191   9.423   3.251   2.761
 1128W        W 5192   5.689  10.032   9.825
 1129W        W 5193   4.610   9.456   1.495
 1130W        W 5194   9.240   8.644   8.883
 1131W        W 5195   3.422   1.805  11.757
 1132W        W 5196   3.522   6.234   3.205
 1133W        W 5197   0.034   4.060  11.310
 1134W        W 5198   6.496   6.154  10.988
 1135W        W 5199   5.617   8.751   1.501
 1136W        W 5200   1.315   6.926  10.527
 1137W        W 5201   4.757   1.680   9.570
 1138W        W 5202   4.567   9.577   9.538
 1139W        W 5203   6.039   1.063   9.496
 1140W        W 5204   9.599   6.741   2.769
 1141W        W 5205   6.701   7.935  10.378
 1142W        W 5206   9.920   2.614   9.622
 1143W        W 5207  10.351   4.696   1.127
 1144W        W 5208   4.319   2.256   2.530
 1145W        W 5209   3.842   9.829  10.872
 1146W        W 5210   7.758   7.051   2.845
 1147W        W 5211   9.020   7.900  10.094
 1148W        W 5212   3.228   7.283  11.688
 1149W        W 5213   7.507   7.376  10.907
 1150W        W 5214  10.451   3.284   9.240
 1151W        W 5215   4.049   6.535   2.438
 1152W        W 5216   3.273   6.225   1.373
 1153W        W 5217   5.542   5.348  11.754
 1154W        W 5218   3.723   4.580   9.889
 1155W        W 5219  10.246   9.369   1.591
 1156W        W 5220   1.279   7.607   1.198
 1157W        W 5221   0.678   1.969  10.873
 1158W        W 5222   9.043   0.373   3.482
 1159W        W 5223  10.351   6.161   9.969
 1160W        W 5224   0.809  10.269   9.580
 1161W        W 5225   9.878   8.594   0.415
 1162W        W 5226   6.063   9.450   1.451
 1163W        W 5227   0.854   1.640   0.976
 1164W        W 5228   0.357   3.691  11.035
 1165W        W 5229   8.124   8.729  11.244
 1166W        W 5230   0.378   7.837   1.443
 1167W        W 5231   4.750   8.598   0.976
 1168W        W 5232   4.700   5.155   0.272
 1169W        W 5233   5.652   2.132   1.851
 1170W        W 5234   5.438   6.511   0.456
 1171W        W 5235   9.289   9.639   0.542
 1172W        W 5236   2.778   8.108   8.962
 1173W        W 5237   3.556   9.393  10.816
 1174W        W 5238   7.633   2.692   9.037
 1175W        W 5239   0.391   6.677  10.410
 1176W        W 5240   9.396   3.918  10.875
 1177W        W 5241   9.720   0.910   2.244
 1178W        W 5242   9.096   4.448   1.263
 1179W        W 5243   8.452  10.016   9.857
 1180W        W 5244   3.778   4.569  10.863
 1181W        W 5245   7.236   0.327   2.409
 1182W        W 5246   2.108   0.280   0.131
 1183W        W 5247   7.593   5.178   0.232
 1184W        W 5248   8.069   0.842   0.946
 1185W        W 5249   6.405  10.296  11.574
 1186W        W 5250   4.978   5.705   8.980
 1187W        W 5251   8.170   0.734  10.862
 1188W        W 5252   0.670   2.402   1.644
 1189W        W 5253   6.519   5.104   9.950
 1190W        W 5254   5.628   3.125  11.405
 1191W        W 5255   9.781   2.580  10.557
 1192W        W 5256   8.388   2.665   3.045
 1193W        W 5257   3.155   8.824  11.267
 1194W        W 5258   4.156   7.973   9.819
 1195W        W 5259   6.026   2.784  11.470
 1196W        W 5260   9.919   5.244   2.370
 1197W        W 5261   2.634   2.383   9.740
 1198W        W 5262   3.637   0.365   2.476
 1199W        W 5263   4.579   3.265   3.111
 1200W        W 5264   0.312   7.970   2.408
 1201W        W 5265   4.229   5.454   3.244
 1202W        W 5266   3.389   5.476   2.701
 1203W        W 5267   3.830   7.448   9.516
 1204W        W 5268   3.916   5.830   7.997
 1205W        W 5269   0.791   3.573   9.759
 1206W        W 5270   9.970   6.290   2.419
 1207W        W 5271   1.674   0.314  11.376
 1208W        W 5272   9.565   3.664  11.943
 1209W        W 5273   2.623   8.872   3.192
 1210W        W 5274   5.153   8.591   2.390
 1211W        W 5275   8.816   4.556   8.636
 1212W        W 5276   2.162   4.165   9.553
 1213W        W 5277   9.837   3.066  10.359
 1214W        W 5278   9.694   2.658   9.164
 1215W        W 5279   8.472   8.591   0.761
 1216W        W 5280   2.176   3.956   3.565
 1217W        W 5281   2.412   7.488   9.592
 1218W        W 5282   3.625   9.021  11.204
 1219W        W 5283   4.357   4.008   2.268
 1220W        W 5284   5.237   7.165  11.835
 1221W        W 5285   0.766   3.265   1.073
 1222W        W 5286   1.439   2.592  11.095
 1223W        W 5287   2.260   7.003  11.470
 1224W        W 5288   5.703   6.398   9.345
 1225W        W 5289   4.321   3.136  10.963
 1226W        W 5290   7.625   5.776  11.795
 1227W        W 5291   1.643   5.362   9.604
 1228W        W 5292   4.232   3.163   9.432
 1229W        W 5293   0.420   2.269   2.949
 1230W        W 5294   0.361   6.414   1.648
 1231W        W 5295   1.392  10.224   8.977
 1232W        W 5296   7.077   4.736  11.067
 1233W        W 5297   9.712   3.651  11.448
 1234W        W 5298   4.457   5.736   8.799
 1235W        W 5299   8.833   8.924   9.093
 1236W        W 5300   4.975   1.332   8.699
 1237W        W 5301   5.505  10.355  11.685
 1238W        W 5302   8.042   2.793   1.217
 1239W        W 5303   9.383  10.481   0.015
 1240W        W 5304   4.167   8.912   9.102
 1241W        W 5305   2.142   1.793   2.496
 1242W        W 5306  10.017   0.477   2.033
 1243W        W 5307   3.478   8.116   9.885
 1244W        W 5308   6.502   6.768   1.729
 1245W        W 5309   6.181   3.262  10.218
 1246W        W 5310   3.290   8.568   0.137
 1247W        W 5311   0.564   9.877   8.454
 1248W        W 5312   8.819   2.722   8.590
 1249W        W 5313   5.492   6.491   3.995
 1250W        W 5314   9.539   1.691   8.986
 1251W        W 5315   9.601   4.266   9.547
 1252W        W 5316   4.543   4.211   2.728
 1253W        W 5317   5.611   5.172   0.230
 1254W        W 5318   1.593   9.116  11.282
 1255W        W 5319   9.273   7.688  11.453
 1256W        W 5320   9.931   0.799   0.757
 1257W        W 5321   3.729   6.002   1.672
 1258W        W 5322   0.387   2.101   3.436
 1259W        W 5323   5.608  10.279  11.182
 1260W        W 5324   6.066  10.406   8.970
 1261W        W 5325   7.831   2.309   9.462
 1262W        W 5326   4.609   1.197   2.482
 1263W        W 5327   6.489   4.411   9.445
 1264W        W 5328   9.607   4.745  10.799
 1265W        W 5329   3.344   5.205  10.766
 1266W        W 5330   4.553   6.432   3.194
 1267W        W 5331   2.188  10.410   0.463
 1268W        W 5332   9.826   5.659   9.424
 1269W        W 5333   4.274   2.188   2.019
 1270W        W 5334  10.339   6.872   3.201
 1271W        W 5335   7.041   1.251  11.257
 1272W        W 5336   7.423   8.289  10.744
 1273W        W 5337   9.696  10.091   9.266
 1274W        W 5338   6.590   2.792   8.949
 1275W        W 5339   0.013  10.384   2.580
 1276W        W 5340   4.505   2.312   9.842
 1277W        W 5341   6.614   2.178   3.304
 1278W        W 5342   9.848   1.305   2.550
 1279W        W 5343   2.398   5.951   9.493
 1280W        W 5344   5.747   3.784   3.132
 1281W        W 5345   8.162   1.774   3.449
 1282W        W 5346   2.731   1.484   2.306
 1283W        W 5347   1.851   2.578  10.051
 1284W        W 5348   8.964   3.634   2.864
 1285W        W 5349   1.213   5.601  11.869
 1286W        W 5350   0.918   1.294  11.227
 1287W        W 5351   0.335   4.485   0.958
 1288W        W 5352   1.213   3.128  10.326
 1289W        W 5353  10.478   4.608   3.068
 1290W        W 5354   6.985   3.615   3.345
 1291W        W 5355   3.670   1.009   9.399
 1292W        W 5356   4.857   1.860  10.573
 1293W        W 5357   5.591  10.386   0.797
 1294W        W 5358   3.628   6.197  10.937
 1295W        W 5359  10.360   8.182   2.207
 1296W        W 5360   4.081   4.697  11.250
 1297W        W 5361  10.275   3.489   2.959
 1298W        W 5362   1.567  10.149  10.376
 1299W        W 5363   8.050  10.369   1.312
 1300W        W 5364   4.737   2.045   2.761
 1301W        W 5365   7.457   4.550   1.818
 1302W        W 5366   3.147   3.803  10.601
 1303W        W 5367   5.173   5.164   0.491
 1304W        W 5368   4.749   4.515  11.624
 1305W        W 5369   8.286   1.326   2.277
 1306W        W 5370   4.680   8.468   0.461
 1307W        W 5371   5.178   1.584   1.287
 1308W        W 5372  10.492   4.795   3.528
 1309W        W 5373   1.355   9.396  10.084
 1310W        W 5374   5.495   3.823  10.719
 1311W        W 5375   3.806  10.300   9.840
 1312W        W 5376   9.225   4.481   0.113
 1313W        W 5377   5.049   4.086   1.162
 1314W        W 5378   4.914   5.581   1.195
 1315W        W 5379   7.512   1.777  10.873
 1316W        W 5380   2.319   9.413   9.145
 1317W        W 5381   2.629   7.935   3.220
 1318W        W 5382   7.523   7.158   8.996
 1319W        W 5383   3.782   6.265   0.718
 1320W        W 5384   0.565   0.338   0.258
 1321W        W 5385   3.151   3.289   2.202
 1322W        W 5386   4.908   2.073   0.409
 1323W        W 5387   6.910   2.225   8.890
 1324W        W 5388   6.510  10.188   2.394
 1325W        W 5389  10.349   6.587   9.577
 1326W        W 5390   4.560   5.020  10.112
 1327W        W 5391   9.500   0.547   0.880
 1328W        W 5392   7.481   3.315   3.210
 1329W        W 5393   3.392   6.004   4.068
 1330W        W 5394   0.025   1.834   0.592
 1331W        W 5395   8.101   1.720  11.050
 1332W        W 5396   7.892   3.444  11.140
 1333W        W 5397   4.788   2.008  11.075
 1334W        W 5398   4.487   5.716   0.214
 1335W        W 5399   8.785   6.073   2.772
 1336W        W 5400   4.023   3.628   0.268
 1337W        W 5401   4.169   2.724   0.706
 1338W        W 5402   7.448   9.840  10.592
 1339W        W 5403  10.307   7.016   3.725
 1340W        W 5404   8.554   1.873   9.263
 1341W        W 5405   3.130   7.866   3.330
 1342W        W 5406   7.491   6.095  10.478
 1343W        W 5407   0.260   2.212   1.876
 1344W        W 5408   3.118   8.486   9.833
 1345W        W 5409   9.806   9.837  10.109
 1346W        W 5410   5.922   1.068   3.440
 1347W        W 5411   3.859   2.681   1.207
 1348W        W 5412   7.283   8.990  10.339
 1349W        W 5413   9.780  10.358   1.931
 1350W        W 5414   9.786   0.362   9.240
 1351W        W 5415   5.974   2.189   9.685
 1352W        W 5416   5.688   0.802   8.721
 1353W        W 5417   0.434   6.779   9.921
 1354W        W 5418   2.558   5.606   0.730
 1355W        W 5419   1.219   3.235   9.778
 1356W        W 5420   0.777   5.691  10.923
 1357W        W 5421   0.353   3.411   0.779
 1358W        W 5422   7.909   4.610   2.833
 1359W        W 5423   7.045   6.974   8.989
 1360W        W 5424   5.565   9.323   0.421
 1361W        W 5425   2.698   3.877   0.739
 1362W        W 5426   8.326   8.536  11.699
 1363W        W 5427   2.456   6.892   0.097
 1364W        W 5428   7.741   8.636   0.770
 1365W        W 5429   1.769   9.888   2.671
 1366W        W 5430   5.074   4.183  10.765
 1367W        W 5431   0.417   5.561   3.274
 1368W        W 5432   7.265   0.302   1.060
 1369W        W 5433   7.551   2.199   2.755
 1370W        W 5434   5.691   2.474  10.013
 1371W        W 5435   0.338   4.180  10.917
 1372W        W 5436   6.973   3.724   1.728
 1373W        W 5437   3.833   9.648   0.165
 1374W        W 5438   3.263   9.291   9.480
 1375W        W 5439   8.157  10.481  11.891
 1376W        W 5440   3.873   5.764   0.670
 1377W        W 5441   8.379   0.209   1.528
 1378W        W 5442   8.863   2.298   9.342
 1379W        W 5443   1.908   2.812  10.895
 1380W        W 5444   7.115   6.536   9.901
 1381W        W 5445   2.446   3.761   1.164
 1382W        W 5446   6.080   7.027   1.506
 1383W        W 5447   1.815   7.456   1.296
 1384W        W 5448   5.961   6.199  10.345
 1385W        W 5449   9.314   1.484   9.385
 1386W        W 5450   9.470   4.211   1.734
 1387W        W 5451   8.954   8.584  11.091
 1388W        W 5452   8.997   4.167   3.404
 1389W        W 5453   3.705   7.206   3.508
 1390W        W 5454   3.141   4.026   1.830
 1391W        W 5455   2.810   7.897  11.513
 1392W        W 5456   3.402   8.024   0.201
 1393W        W 5457   3.814   5.094   8.583
 1394W        W 5458   0.465   7.354   0.555
 1395W        W 5459   2.849   7.616  10.404
 1396W        W 5460   5.939   3.556  10.826
 1397W        W 5461   2.185   6.920   9.402
 1398W        W 5462   5.025   5.507   2.637
 1399W        W 5463   9.348   0.999   0.428
 1400W        W 5464   4.974   8.101  10.828
 1401W        W 5465   0.395   8.182   3.406
 1402W        W 5466   4.637   0.826   0.156
 1403W        W 5467   6.591   4.232   2.799
 1404W        W 5468   0.022   7.065   9.772
 1405W        W 5469   1.297   3.553  10.598
 1406W        W 5470   2.619   5.541   1.726
 1407W        W 5471   0.683   9.846  10.318
 1408W        W 5472   3.114   9.672   2.268
 1409W        W 5473   1.725   8.027   8.849
 1410W        W 5474   8.542   9.491  11.317
 1411W        W 5475   5.917   3.081  10.625
 1412W        W 5476   7.003  10.435   9.177
 1413W        W 5477   0.683   2.258  10.008
 1414W        W 5478   5.973   7.330   3.082
 1415W        W 5479   5.479   6.078  10.282
 1416W        W 5480   5.475   9.410  11.442
 1417W        W 5481   4.254   4.529   3.214
 1418W        W 5482   7.194   5.182   2.384
 1419W        W 5483   3.419   7.016   2.816
 1420W        W 5484   1.898   5.842   3.819
 1421W        W 5485   8.792   6.875  10.252
 1422W        W 5486   1.274   7.627  10.032
 1423W        W 5487   3.974   8.754  10.286
 1424W        W 5488   5.080  10.061   1.370
 1425W        W 5489   6.900   5.593   8.732
 1426W        W 5490   2.892  10.382   9.660
 1427W        W 5491   6.770   2.960  10.802
 1428W        W 5492   3.003  10.327   9.166
 1429W        W 5493   8.091   2.904   9.965
 1430W        W 5494   0.928   5.610   3.458
 1431W        W 5495   3.423   9.754   9.363
 1432W        W 5496   1.606   1.698   8.582
 1433W        W 5497   9.865   4.707   9.618
 1434W        W 5498   1.178   3.446   0.741
 1435W        W 5499   9.833   5.378   3.312
 1436W        W 5500   7.865   2.438  11.400
 1437W        W 5501   7.100   5.784   9.596
 1438W        W 5502   4.189   5.276   1.967
 1439W        W 5503   5.977   4.789  10.657
 1440W        W 5504   8.489   2.864   0.939
 1441W        W 5505   0.914   6.536   3.264
 1442W        W 5506   9.517   1.346  10.258
 1443W        W 5507   3.384   4.342   0.292
 1444W        W 5508   9.410   4.981   2.436
 1445W        W 5509   9.323   3.272  11.449
 1446W        W 5510   9.496   4.714  10.297
 1447W        W 5511   2.793   8.354   2.294
 1448W        W 5512   0.436   5.892   1.519
 1449W        W 5513   8.574   8.277   3.566
 1450W        W 5514   5.339   1.844   3.510
 1451W        W 5515   7.637   5.810   9.613
 1452W        W 5516   3.529   8.004  10.917
 1453W        W 5517   3.186   6.240   2.394
 1454W        W 5518   1.382   0.944  10.377
 1455W        W 5519   5.165   5.187  11.059
 1456W        W 5520   5.702   4.388  11.962
 1457W        W 5521   6.957   6.459   8.973
 1458W        W 5522   7.012   2.816  10.333
 1459W        W 5523   7.960   8.609   1.630
 1460W        W 5524   9.775   9.788  11.919
 1461W        W 5525   1.731   1.139  11.690
 1462W        W 5526  10.356   4.498   0.678
 1463W        W 5527   5.648   4.225   0.469
 1464W        W 5528   9.727   3.032   3.504
 1465W        W 5529   6.039   1.253   1.206
 1466W        W 5530   0.250   0.961   2.262
 1467W        W 5531   3.626   0.735  10.219
 1468W        W 5532   4.422  10.486   1.518
 1469W        W 5533   8.813   3.249   3.222
 1470W        W 5534   4.261   0.825   9.454
 1471W        W 5535   6.468   2.475   0.402
 1472W        W 5536   6.587   0.314  10.920
 1473W        W 5537   2.730  10.321  11.157
 1474W        W 5538   5.307   9.773   1.741
 1475W        W 5539   3.260   1.377   1.181
 1476W        W 5540   2.281   0.035  11.038
 1477W        W 5541   1.357   5.719   1.471
 1478W        W 5542   7.950   0.296  11.547
 1479W        W 5543   9.082   3.737   0.163
 1480W        W 5544   1.731   1.181   9.272
 1481W        W 5545   7.152   1.286   1.219
 1482W        W 5546   9.795   3.310   1.289
 1483W        W 5547   3.572   5.131   3.086
 1484W        W 5548   8.530   5.191   1.249
 1485W        W 5549   8.346   3.653   9.427
 1486W        W 5550   2.679   8.168  10.349
 1487W        W 5551   3.616   7.495   0.707
 1488W        W 5552   5.989   5.096   9.318
 1489W        W 5553   8.356   9.264   0.238
 1490W        W 5554   7.062   9.408   1.454
 1491W        W 5555   6.171   7.501   9.307
 1492W        W 5556   8.101   4.027   0.834
 1493W        W 5557   8.179   9.934   9.445
 1494W        W 5558   0.826   0.580   1.015
 1495W        W 5559   7.350   5.094   0.664
 1496W        W 5560  10.462   1.344  11.376
 1497W        W 5561   3.819   9.291  10.372
 1498W        W 5562   2.763   7.382   2.289
 1499W        W 5563   8.974   3.162   0.929
 1500W        W 5564   4.029   7.458  11.979
 1501W        W 5565   6.651   7.701  10.920
 1502W        W 5566   9.533   4.079   3.407
 1503W        W 5567   1.632   5.147   3.213
 1504W        W 5568   4.685   9.974   9.835
 1505W        W 5569   0.938   8.193   0.402
 1506W        W 5570   9.934   3.637   1.681
 1507W        W 5571   8.819   6.107  11.363
 1508W        W 5572   5.169   7.993   3.201
 1509W        W 5573   1.275   2.105  11.392
 1510W        W 5574   6.468   6.487   2.692
 1511W        W 5575   0.658   5.661   9.055
 1512W        W 5576   1.798   4.391   9.271
 1513W        W 5577   8.540   4.709   0.995
 1514W        W 5578   0.906   9.013  10.848
 1515W        W 5579   6.224   7.908   8.544
 1516W        W 5580   6.010   9.023   1.716
 1517W        W 5581   8.169   5.005   9.550
 1518W        W 5582   2.742   4.196   8.875
 1519W        W 5583   9.500   9.409  10.598
 1520W        W 5584   3.744   7.659   3.249
 1521W        W 5585   0.851   6.005  11.351
 1522W        W 5586   9.953   2.435   1.146
 1523W        W 5587   8.594   1.454   1.078
 1524W        W 5588   3.259   2.910   0.500
 1525W        W 5589   4.015   4.980   3.326
 1526W        W 5590   0.273   7.815   8.869
 1527W        W 5591   3.783   0.884   2.226
 1528W        W 5592  10.267   0.818  11.427
 1529W        W 5593  10.228   0.951   2.251
 1530W        W 5594   3.403   4.246   2.207
 1531W        W 5595   0.800   7.381   9.433
 1532W        W 5596   5.734   6.369  11.635
 1533W        W 5597   1.941   1.544   0.222
 1534W        W 5598   2.821   1.012   3.013
 1535W        W 5599   1.940   2.194   1.439
 1536W        W 5600   2.590   7.976   9.429
 1537W        W 5601   4.199   2.755   9.920
 1538W        W 5602   6.964   7.927   1.051
 1539W        W 5603   6.855  10.039   8.890
 1540W        W 5604   3.200   6.659   1.047
 1541W        W 5605   4.274   7.507   2.060
 1542W        W 5606   5.994   5.730   2.211
 1543W        W 5607   8.810   7.428  11.491
 1544W        W 5608   3.337   0.418   0.661
 1545W        W 5609  10.218   0.458  11.800
 1546W        W 5610   2.450  10.417  10.021
 1547W        W 5611   7.732   6.527   3.310
 1548W        W 5612   9.026   9.863   1.468
 1549W        W 5613   5.138   9.576  10.755
 1550W        W 5614   7.881   5.718  11.221
 1551W        W 5615  10.316   1.705   1.650
 1552W        W 5616   1.759   3.562   0.864
 1553W        W 5617   4.974   5.095   3.406
 1554W        W 5618   3.767   3.628   2.626
 1555W        W 5619   4.187   4.209   0.909
 1556W        W 5620   3.668   0.306  10.551
 1557W        W 5621   6.700   0.645   3.241
 1558W        W 5622   0.761   4.775   0.318
 1559W        W 5623   6.817   2.681   3.277
 1560W        W 5624   0.954   1.749   9.393
 1561W        W 5625   7.682   9.038   8.566
 1562W        W 5626   8.180   3.197   9.282
 1563W        W 5627   5.470   8.015  10.836
 1564W        W 5628   3.590   3.666  10.881
 1565W        W 5629   5.054   7.839   9.920
 1566W        W 5630   3.259   6.191   0.820
 1567W        W 5631   1.134   9.434   2.263
 1568W        W 5632   2.576   8.099   2.724
 1569W        W 5633   5.105  10.401   9.276
 1570W        W 5634   8.395   4.403   2.864
 1571W        W 5635   9.983   4.150   1.478
 1572W        W 5636   2.141   2.723   2.578
 1573W        W 5637   9.240   0.304  11.509
 1574W        W 5638   9.842   7.965  10.618
 1575W        W 5639   5.194   7.552   8.288
 1576W        W 5640   1.626   9.866   9.949
 1577W        W 5641   1.228   5.671   9.543
 1578W        W 5642   6.542   5.988  11.493
 1579W        W 5643   4.511   4.489   0.574
 1580W        W 5644   1.212   4.747   9.365
 1581W        W 5645   8.688   6.268   1.238
 1582W        W 5646   3.582   9.962   1.393
 1583W        W 5647  10.490   2.826  11.135
 1584W        W 5648   6.139   4.667   2.935
 1585W        W 5649  10.380   9.482   1.096
 1586W        W 5650   9.834   9.285  11.930
 1587W        W 5651   5.078   3.788   8.493
 1588W        W 5652   2.669   0.683   9.478
 1589W        W 5653   7.937   5.412  10.775
 1590W        W 5654   5.141   2.350   0.788
 1591W        W 5655   8.309   7.849   2.262
 1592W        W 5656   1.897   2.361  11.172
 1593W        W 5657   3.213   3.781   2.383
 1594W        W 5658   7.070   8.523   2.732
 1595W        W 5659   7.519   3.331   2.694
 1596W        W 5660   1.426   4.672   3.431
 1597W        W 5661   3.129   1.944   2.958
 1598W        W 5662   8.303  10.316   1.845
 1599W        W 5663   2.390   2.454   1.413
 1600W        W 5664   3.471   6.910   1.958
 1601W        W 5665   7.664   0.022   2.516
 1602W        W 5666   1.353   6.962   9.005
 1603W        W 5667   7.199  10.335   2.641
 1604W        W 5668   6.552   2.251   2.322
 1605W        W 5669   1.817   9.150   2.315
 1606W        W 5670   3.679   7.227  10.063
 1607W        W 5671   2.837   2.607   1.910
 1608W        W 5672   4.905   0.252   2.589
 1609W        W 5673   7.716   1.910   3.213
 1610W        W 5674   2.943   3.603   1.102
 1611W        W 5675   3.567   2.619   0.199
 1612W        W 5676   6.742   0.136   1.565
 1613W        W 5677   8.467   4.600   1.999
 1614W        W 5678   8.081   6.122   3.057
 1615W        W 5679   1.047   9.968   9.259
 1616W        W 5680   8.584   9.252  10.384
 1617W        W 5681   8.077   0.518   9.683
 1618W        W 5682   0.219  10.389   1.598
 1619W        W 5683   8.406   0.729   9.072
 1620W        W 5684   4.766   6.479   9.432
 1621W        W 5685   3.204   9.113  11.989
 1622W        W 5686  10.055   9.948   9.584
 1623W        W 5687  10.085   4.743  10.955
 1624W        W 5688   2.162   1.674  11.720
 1625W        W 5689   1.075   0.786  11.162
 1626W        W 5690   8.883   8.006   0.155
 1627W        W 5691   3.902   5.144   0.803
 1628W        W 5692   5.572   5.884   1.012
 1629W        W 5693  10.289   8.860   9.749
 1630W        W 5694   0.242   7.898   9.366
 1631W        W 5695   6.224   6.484   3.163
 1632W        W 5696   3.178   6.098   3.583
 1633W        W 5697   9.491   2.941   9.605
 1634W        W 5698   6.454   1.857   0.473
 1635W        W 5699   0.853   1.272   2.862
 1636W        W 5700   1.707   1.499   2.367
 1637W        W 5701   5.299   7.547   9.292
 1638W        W 5702   8.808   9.949  10.729
 1639W        W 5703   8.230   7.859   0.296
 1640W        W 5704   1.404   1.984   9.527
 1641W        W 5705   4.178   9.950   9.998
 1642W        W 5706   4.935   6.491   1.460
 1643W        W 5707   2.023   8.009   0.940
 1644W        W 5708   1.312   0.764   9.042
 1645W        W 5709   6.954   0.404  10.007
 1646W        W 5710   7.210   1.853   3.337
 1647W        W 5711   3.644   1.745   0.212
 1648W        W 5712   3.296   3.651   2.878
 1649W        W 5713   2.118   3.852   0.162
 1650W        W 5714   9.456   3.294  10.009
 1651W        W 5715   8.291   6.278  10.808
 1652W        W 5716   6.648   4.985   0.449
 1653W        W 5717   1.086   5.152  11.408
 1654W        W 5718   0.457   1.317  10.012
 1655W        W 5719   9.872   7.659   2.682
 1656W        W 5720   0.065   7.102   2.218
 1657W        W 5721   4.230   5.136  11.034
 1658W        W 5722   3.096   8.205  11.827
 1659W        W 5723   1.030   9.997   0.176
 1660W        W 5724   9.612   6.234   9.947
 1661W        W 5725   8.662   6.016   2.277
 1662W        W 5726   7.537   2.418   3.237
 1663W        W 5727   4.105   0.321   2.277
 1664W        W 5728   1.933   1.714  10.641
 1665W        W 5729   1.744   4.056  11.814
 1666W        W 5730   0.496   2.691  10.199
 1667W        W 5731   6.910   2.567   9.293
 1668W        W 5732   6.952   5.866   0.846
 1669W        W 5733   6.212   0.913  11.935
 1670W        W 5734   2.960   5.578   2.966
 1671W        W 5735  10.341   3.709   1.966
 1672W        W 5736   9.194   3.755  11.345
 1673W        W 5737   6.211   4.025   3.091
 1674W        W 5738   6.281  10.094   0.867
 1675W        W 5739   0.693   0.860   1.419
 1676W        W 5740   8.765   4.629   0.304
 1677W        W 5741   4.584   4.772  11.228
 1678W        W 5742   1.427   1.876  10.492
 1679W        W 5743   5.808   9.868   1.759
 1680W        W 5744   5.159   8.513  11.617
 1681W        W 5745   4.056   7.518   0.980
 1682W        W 5746   4.693   5.531   3.019
 1683W        W 5747   4.561   0.340   2.059
 1684W        W 5748   9.431   1.195   8.969
 1685W        W 5749  10.218   1.862  11.064
 1686W        W 5750   6.688   7.669   8.535
 1687W        W 5751   7.877   6.087   2.599
 1688W        W 5752   5.029   3.345   8.964
 1689W        W 5753   3.666   6.345  11.779
 1690W        W 5754   7.892   5.929  10.737
 1691W        W 5755   3.843   5.955   2.665
 1692W        W 5756   4.228   5.183  11.560
 1693W        W 5757   6.585   5.705   3.376
 1694W        W 5758   2.981   4.680   8.899
 1695W        W 5759   2.702   3.733   2.649
 1696W        W 5760   0.827   2.827   3.265
 1697W        W 5761   5.988   9.159   0.190
 1698W        W 5762   5.535   8.929   1.974
 1699W        W 5763   7.026   6.078  11.343
 1700W        W 5764   1.350   9.127  11.751
 1701W        W 5765   3.436   7.963   2.929
 1702W        W 5766   2.627   4.083   9.370
 1703W        W 5767   5.031   3.626   3.777
 1704W        W 5768   7.081   2.833  11.835
 1705W        W 5769   8.171   4.156   1.340
 1706W        W 5770   5.170   3.287  11.237
 1707W        W 5771   5.660   1.871   1.400
 1708W        W 5772   4.035   3.229   1.886
 1709W        W 5773   7.390   0.805   2.121
 1710W        W 5774   7.028   1.434  11.722
 1711W        W 5775   7.998   4.072   2.901
 1712W        W 5776   5.247   1.690   0.508
 1713W        W 5777   9.362   0.812   3.583
 1714W        W 5778   8.376   8.848   1.397
 1715W        W 5779  10.126   7.126  10.086
 1716W        W 5780   0.415   2.250  10.463
 1717W        W 5781   4.068   1.949   3.306
 1718W        W 5782   3.048   1.696   1.971
 1719W        W 5783   8.430   5.976  10.405
 1720W        W 5784   2.209   0.955   9.462
 1721W        W 5785   0.425   3.884  11.892
 1722W        W 5786  10.022   1.779   2.346
 1723W        W 5787   4.205   9.619  10.400
 1724W        W 5788   5.260   6.611   9.447
 1725W        W 5789   9.132   1.311   3.561
 1726W        W 5790   5.405   5.582   1.384
 1727W        W 5791   7.435   6.217   9.355
 1728W        W 5792   5.195   4.805   0.855
 1729W        W 5793   1.703   9.437  11.944
 1730W        W 5794   2.832   8.826   0.203
 1731W        W 5795   0.274   5.035   3.121
 1732W        W 5796   8.913   4.594   1.703
 1733W        W 5797   4.756  10.337   2.958
 1734W        W 5798   5.696   4.518  11.189
 1735W        W 5799   7.743  10.437  10.463
 1736W        W 5800   8.140   6.772  11.547
 1737W        W 5801   0.456   7.231   0.043
 1738W        W 5802   7.416   4.821   9.483
 1739W        W 5803   5.949   7.881  10.096
 1740W        W 5804   0.124   7.508  10.497
 1741W        W 5805   7.963   9.247   9.612
 1742W        W 5806   6.298   7.060  10.078
 1743W        W 5807   8.597   5.143   0.365
 1744W        W 5808   9.407   4.701   0.528
 1745W        W 5809   5.529   4.799   2.327
 1746W        W 5810   5.588   3.627  11.243
 1747W        W 5811   8.005   8.823   9.914
 1748W        W 5812   9.464   0.340   0.413
 1749W        W 5813   8.987   7.174   9.402
 1750W        W 5814   8.898   8.038   9.596
 1751W        W 5815   7.647   5.601  10.408
 1752W        W 5816   5.080   1.269   2.848
 1753W        W 5817   2.197   0.764   0.307
 1754W        W 5818   3.610   3.530   9.832
 1755W        W 5819  10.319   6.148   2.044
 1756W        W 5820   4.253   3.692   0.970
 1757W        W 5821   9.342   7.432   9.098
 1758W        W 5822   2.179   3.785   1.608
 1759W        W 5823   9.047   6.220  11.825
 1760W        W 5824   4.727   1.307   3.327
 1761W        W 5825  10.489   1.847   2.149
 1762W        W 5826   9.739   5.127  10.494
 1763W        W 5827   1.497   1.715   9.996
 1764W        W 5828   1.099   3.280   3.327
 1765W        W 5829   4.688   9.820   0.315
 1766W        W 5830  10.018   8.520   1.433
 1767W        W 5831   2.187   5.046  10.722
 1768W        W 5832   9.589   2.206   8.934
 1769W        W 5833   4.780   7.627  10.755
 1770W        W 5834   8.211   5.389  11.435
 1771W        W 5835   6.917   0.362   2.853
 1772W        W 5836   7.080   9.837   1.189
 1773W        W 5837   2.948   8.362  11.352
 1774W        W 5838   3.324   1.051   3.351
 1775W        W 5839   6.536   5.698   9.089
 1776W        W 5840   7.869   4.539   9.564
 1777W        W 5841   4.280   4.058   0.410
 1778W        W 5842   9.603   0.331   1.723
 1779W        W 5843   9.672   7.946   3.154
 1780W        W 5844   2.224   6.414   2.056
 1781W        W 5845   9.985   6.849  10.500
 1782W        W 5846   2.649   0.786   1.694
 1783W        W 5847   8.342   2.323   9.222
 1784W        W 5848  10.115   7.459  11.799
 1785W        W 5849   7.536   4.391   9.207
 1786W        W 5850   0.449   3.663   3.200
 1787W        W 5851   7.940   7.376   8.743
 1788W        W 5852   1.060   8.350   0.937
 1789W        W 5853   0.859   1.615   2.474
 1790W        W 5854   0.391   1.392   0.731
 1791W        W 5855   9.388   0.774   1.395
 1792W        W 5856   0.487   4.800  11.884
 1793W        W 5857   6.146   2.745   9.982
 1794W        W 5858   6.656   0.898   8.993
 1795W        W 5859   7.227   8.314   9.563
 1796W        W 5860   4.560   9.494  10.047
 1797W        W 5861   7.049   3.694   8.768
 1798W        W 5862   0.848   7.079   0.344
 1799W        W 5863   6.410   8.739   3.438
 1800W        W 5864   8.045  10.379   3.289
 1801W        W 5865   8.330   3.716  11.023
 1802W        W 5866  10.111   6.583   2.822
 1803W        W 5867   7.385   5.697  11.372
 1804W        W 5868   6.003   5.616  10.840
 1805W        W 5869   1.657   7.347   9.879
 1806W        W 5870   3.847   2.713   1.748
 1807W        W 5871   2.112   0.085   1.383
 1808W        W 5872   8.389   7.443   1.956
 1809W        W 5873   4.198   4.992   2.369
 1810W        W 5874   8.853   2.103  10.358
 1811W        W 5875   4.699   5.508   0.702
 1812W        W 5876   4.669   7.887   0.436
 1813W        W 5877   7.448   2.716  11.481
 1814W        W 5878   9.109   7.073  11.725
 1815W        W 5879  10.460   6.983   2.708
 1816W        W 5880   6.471   4.909   9.497
 1817W        W 5881   6.043   5.247  10.432
 1818W        W 5882   1.621   9.640  10.454
 1819W        W 5883   0.211   9.001  10.370
 1820W        W 5884   9.954   9.466   9.783
 1821W        W 5885   2.853   4.719  11.171
 1822W        W 5886   5.410   4.091  11.161
 1823W        W 5887  10.401   0.227   3.449
 1824W        W 5888   3.696   2.825   2.816
 1825W        W 5889   2.375   3.648  11.152
 1826W        W 5890   4.166   7.058   1.228
 1827W        W 5891   7.163   5.446   1.652
 1828W        W 5892   5.934   9.430   9.154
 1829W        W 5893   1.174   6.506   9.159
 1830W        W 5894   4.665   4.054   0.788
 1831W        W 5895  10.225   8.811  11.244
 1832W        W 5896   1.205   1.843   2.152
 1833W        W 5897  10.001   0.958   9.823
 1834W        W 5898   7.092   0.844   2.966
 1835W        W 5899   0.202   0.787   1.380
 1836W        W 5900   2.901   5.782   9.856
 1837W        W 5901   8.051   7.753   1.769
 1838W        W 5902   2.177   9.820   2.964
 1839W        W 5903   0.264   2.598  11.537
 1840W        W 5904   2.970   5.228  11.335
 1841W        W 5905   0.270   5.231  11.695
 1842W        W 5906   2.769   3.182   1.343
 1843W        W 5907   6.765   6.503   3.114
 1844W        W 5908   7.859   5.764   0.984
 1845W        W 5909   7.557   4.646  11.282
 1846W        W 5910   0.257   0.928  11.467
 1847W        W 5911   1.492   1.824   3.660
 1848W        W 5912   8.557   6.368   9.424
 1849W        W 5913   5.145   4.272   0.668
 1850W        W 5914   5.753  10.448   2.898
 1851W        W 5915   5.687   2.881   1.429
 1852W        W 5916   0.194  10.054  11.871
 1853W        W 5917   2.723   2.337   0.784
 1854W        W 5918   4.491   0.269  10.908
 1855W        W 5919   3.391   9.482   2.933
 1856W        W 5920   9.979   9.378  10.280
 1857W        W 5921   9.020   9.366   9.979
 1858W        W 5922   3.633   4.523  11.397
 1859W        W 5923   1.823   1.227   1.919
 1860W        W 5924   6.732   5.130   8.348
 1861W        W 5925   8.535   9.532   9.970
 1862W        W 5926   9.420   1.464   0.221
 1863W        W 5927   6.101   5.457   0.822
 1864W        W 5928   9.207   0.441   2.658
 1865W        W 5929   2.915   5.504  10.832
 1866W        W 5930   4.136   3.607  10.865
 1867W        W 5931   1.464  10.382   2.372
 1868W        W 5932   4.993   2.714  10.559
 1869W        W 5933   4.072   1.258   9.638
 1870W        W 5934   1.784   4.784  11.106
 1871W        W 5935   9.367  10.175   2.266
 1872W        W 5936   3.243   7.535   1.038
 1873W        W 5937   5.631   0.757  10.240
 1874W        W 5938   3.283   2.721   9.817
 1875W        W 5939   3.170   9.155   8.527
 1876W        W 5940   9.951   0.226  10.792
 1877W        W 5941   5.614   5.512   0.652
 1878W        W 5942   2.273   6.903  10.449
 1879W        W 5943   5.801   4.011  10.345
 1880W        W 5944   8.586  10.282  11.685
 1881W        W 5945   3.747   5.046  10.100
 1882W        W 5946   1.929   3.362   0.365
 1883W        W 5947   6.478   3.846   0.494
 1884W        W 5948   8.911   0.194  11.903
 1885W        W 5949   6.487   6.318   9.228
 1886W        W 5950   8.300   4.703   0.496
 1887W        W 5951   6.138   2.298   3.119
 1888W        W 5952   4.526   6.643  11.668
 1889W        W 5953   9.168   1.922  11.999
 1890W        W 5954   1.478   0.758  10.828
 1891W        W 5955   1.637   8.861   8.394
 1892W        W 5956   3.796   5.192   1.661
 1893W        W 5957   2.509   6.219   2.866
 1894W        W 5958  10.235   0.325   8.969
 1895W        W 5959  10.012   2.763  10.985
 1896W        W 5960   6.185   7.421   8.797
 1897W        W 5961   5.492   4.299   9.881
 1898W        W 5962   8.801   8.901  10.080
 1899W        W 5963   8.354   2.690  10.541
 1900W        W 5964   5.446   9.184   1.282
 1901W        W 5965   3.295   2.618  10.863
 1902W        W 5966   9.204   0.972   9.392
 1903W        W 5967   7.264   3.129   8.398
 1904W        W 5968   6.051   6.997   0.992
 1905W        W 5969   5.696   0.234  10.412
 1906W        W 5970   9.715   8.439   9.945
 1907W        W 5971   0.432   7.007   9.469
 1908W        W 5972   2.587   3.352   0.826
 1909W        W 5973   0.739   6.500   9.517
 1910W        W 5974   1.689   8.186   2.297
 1911W        W 5975   7.895   2.890  10.433
 1912W        W 5976   4.702   0.817   9.720
 1913W        W 5977   9.808   1.016   8.671
 1914W        W 5978   5.725   2.958  10.176
 1915W        W 5979   4.279   8.998   9.971
 1916W        W 5980   5.518   8.357   0.211
 1917W        W 5981   1.446   0.452   0.655
 1918W        W 5982   4.155   9.758   1.287
 1919W        W 5983   2.033   5.541  10.511
 1920W        W 5984   7.985   7.518   9.723
 1921W        W 5985   2.304   8.780  11.861
 1922W        W 5986   3.040   1.719   8.724
 1923W        W 5987   5.208   8.911   3.303
 1924W        W 5988   6.059   0.930  10.020
 1925W        W 5989   6.183   7.595   2.171
 1926W        W 5990   2.151   7.757   0.067
 1927W        W 5991   7.521   9.940   2.493
 1928W        W 5992   8.393   2.646   3.574
 1929W        W 5993  10.469   5.180   1.707
 1930W        W 5994   9.826   4.568   1.818
 1931W        W 5995   7.893   7.182  10.600
 1932W        W 5996   8.130   8.149   1.469
 1933W        W 5997   4.685   3.434  11.172
 1934W        W 5998   9.241   0.266   2.180
 1935W        W 5999   7.451   0.831  10.442
 1936W        W 6000   0.068   0.338   1.155
 1937W        W 6001   1.378   3.684  11.592
 1938W        W 6002   9.989   5.460   0.518
 1939W        W 6003  10.131   9.302   3.310
 1940W        W 6004   3.630   4.054  11.232
 1941W        W 6005   4.967   9.069   1.420
 1942W        W 6006   4.635   8.408  11.958
 1943W        W 6007   1.570   5.274  11.300
 1944W        W 6008   1.667   0.748   2.105
 1945W        W 6009   3.813   9.575   1.648
 1946W        W 6010   2.622   1.955   3.160
 1947W        W 6011   1.931   4.015   3.099
 1948W        W 6012   9.852   2.129   2.666
 1949W        W 6013   6.440   8.007   2.358
 1950W        W 6014   2.855   6.436  10.595
 1951W        W 6015   3.099   5.090   2.851
 1952W        W 6016   1.243   9.066  10.458
 1953W        W 6017   2.200   7.034   3.436
 1954W        W 6018   5.118   4.687   9.229
 1955W        W 6019   8.737   6.199   9.916
 1956W        W 6020   2.239   7.351   0.422
 1957W        W 6021   6.873   4.250   9.884
 1958W        W 6022   4.667   6.096  10.974
 1959W        W 6023   7.448   4.461   4.195
 1960W        W 6024   2.759   0.994  11.812
 1961W        W 6025   9.007   8.050  11.086
 1962W        W 6026   8.894   6.338   9.033
 1963W        W 6027   7.635   4.122  11.443
 1964W        W 6028   9.702   6.241   2.852
 1965W        W 6029   9.306   2.355  10.490
 1966W        W 6030   8.226   4.626   2.440
 1967W        W 6031   0.443   6.919   2.536
 1968W        W 6032  10.456   2.244  11.355
 1969W        W 6033   2.699   6.897   3.554
 1970W        W 6034   8.021   9.061   3.547
 1971W        W 6035   5.482   8.847   0.317
 1972W        W 6036   2.525   9.888  11.781
 1973W        W 6037   4.500   3.178   9.885
 1974W        W 6038   2.213  10.287   0.967
 1975W        W 6039   0.855   9.001  11.787
 1976W        W 6040   3.566  10.496   1.205
 1977W        W 6041   8.304   5.129   0.792
 1978W        W 6042   7.534   0.703   8.471
 1979W        W 6043   0.740   1.121   2.376
 1980W        W 6044   9.531   0.164   9.978
 1981W        W 6045   8.877   2.846   3.523
 1982W        W 6046   6.616   7.158  10.993
 1983W        W 6047   5.606   7.954   9.265
 1984W        W 6048   1.973   6.973   0.217
 1985W        W 6049   5.988   4.086   3.573
 1986W        W 6050   2.779  10.012   0.974
 1987W        W 6051   9.680   3.424   9.549
 1988W        W 6052   0.750   8.548   2.498
 1989W        W 6053   0.666   8.656   0.832
 1990W        W 6054   5.871   9.916   8.957
 1991W        W 6055   7.628   3.207  10.753
 1992W        W 6056   3.564   0.302   9.079
 1993W        W 6057   2.890   2.129  10.468
 1994W        W 6058   3.906   1.319   0.323
 1995W        W 6059   0.365   5.855  10.657
 1996W        W 6060   8.318   4.735  10.995
 1997W        W 6061   3.324   9.453  10.358
 1998W        W 6062   5.074   6.217   3.772
 1999W        W 6063   7.164   4.294  11.343
 2000W        W 6064   5.475   0.921   2.648
 2001W        W 6065   7.935   2.769   3.255
 2002W        W 6066   0.362   2.518   9.666
 2003W        W 6067  10.305   7.420   3.394
 2004W        W 6068   5.765   2.708   0.938
 2005W        W 6069   7.460   2.655  10.476
 2006W        W 6070   2.248   2.878   8.966
 2007W        W 6071   6.876   8.060   1.521
 2008W        W 6072   6.538   0.618   1.679
 2009W        W 6073  10.024   8.336   9.048
 2010W        W 6074   7.326   8.727   9.250
 2011W        W 6075   3.355   3.092   3.802
 2012W        W 6076   8.344   1.316   2.800
 2013W        W 6077   9.485   1.544   3.203
 2014W        W 6078   7.236   7.635   1.379
 2015W        W 6079   0.771   1.893   2.894
 2016W        W 6080   1.286   8.059   2.020
 2017W        W 6081   5.768   3.906   2.268
 2018W        W 6082   5.020   0.413   9.691
 2019W        W 6083  10.342   7.472   9.510
 2020W        W 6084   9.644  10.283   3.126
 2021W        W 6085   5.117   8.008   9.446
 2022W        W 6086   0.468   4.547  10.013
 2023W        W 6087   5.202   8.999  11.479
 2024W        W 6088   9.145   8.329  11.492
 2025W        W 6089   2.837   9.223   2.257
 2026W        W 6090   7.741   9.399   3.235
 2027W        W 6091  10.242   8.411   9.989
 2028W        W 6092   2.723   0.722   0.249
 2029W        W 6093   1.491   7.609   0.734
 2030W        W 6094   8.075   1.414  10.356
 2031W        W 6095   3.816   7.591  11.027
 2032W        W 6096   4.215   4.495   2.257
 2033W        W 6097   7.413   7.964   0.756
 2034W        W 6098   9.042   1.596  11.583
 2035W        W 6099   1.271   8.559   3.260
 2036W        W 6100   0.463   1.396  11.361
 2037W        W 6101   9.867   8.409  11.011
 2038W        W 6102   3.791   0.385   0.946
 2039W        W 6103   8.550   1.376   0.579
 2040W        W 6104   5.725   2.884   2.346
 2041W        W 6105   3.377   5.727   3.239
 2042W        W 6106   8.391   2.796   9.526
 2043W        W 6107   8.870   6.233   1.754
 2044W        W 6108   2.362   0.301   3.242
 2045W        W 6109   8.666   9.033   1.797
 2046W        W 6110   6.712   1.812   9.187
 2047W        W 6111   1.500   9.951   9.456
 2048W        W 6112   1.874   8.077  11.454
 2049W        W 6113   1.729   6.165   8.527
 2050W        W 6114   1.336   1.067   1.842
 2051W        W 6115  10.063   6.979  11.613
 2052W        W 6116   3.610   2.311   9.099
 2053W        W 6117   2.284   5.691   2.744
 2054W        W 6118   7.403   2.629   9.483
 2055W        W 6119   2.384   9.673  11.324
 2056W        W 6120   1.234   9.398  11.036
 2057W        W 6121  10.424   5.708  10.867
 2058W        W 6122   9.963   1.370  11.529
 2059W        W 6123   0.311   1.460   9.517
 2060W        W 6124  10.384   2.419   9.531
 2061W        W 6125   6.191   6.541   0.719
 2062W        W 6126   2.360   9.634  10.106
 2063W        W 6127   1.082   7.383  10.447
 2064W        W 6128   4.600   5.141   8.829
 2065W        W 6129   5.142   9.536   2.654
 2066W        W 6130   2.361   2.107   0.515
 2067W        W 6131   3.968   4.199   4.040
 2068W        W 6132   4.726   2.412   3.155
 2069W        W 6133   2.751   4.521   8.468
 2070W        W 6134   5.549   4.396   3.569
 2071W        W 6135   5.235   0.885  11.432
 2072W        W 6136   4.525   4.662   1.428
 2073W        W 6137   5.681   0.749   3.101
 2074W        W 6138   1.482   8.930   1.534
 2075W        W 6139   1.109   8.976  11.319
 2076W        W 6140   2.345   6.031   2.370
 2077W        W 6141   0.802   2.640   9.274
 2078W        W 6142   3.898   1.912  10.250
 2079W        W 6143   0.877   7.676   1.864
 2080W        W 6144   5.290   4.448  11.508
 2081W        W 6145   5.261   0.001  10.831
 2082W        W 6146   2.861   4.004   1.400
 2083W        W 6147   7.461   6.115  11.043
 2084W        W 6148   5.923   3.185   9.774
 2085W        W 6149   8.485   9.498   9.477
 2086W        W 6150   9.617  10.166  11.590
 2087W        W 6151   8.303   5.091  10.513
 2088W        W 6152   2.649   7.119   9.208
 2089W        W 6153   6.338   9.422   8.837
 2090W        W 6154   0.822   5.255   0.528
 2091W        W 6155  10.102   1.424   9.687
 2092W        W 6156   6.514   1.131   1.855
 2093W        W 6157   0.060   9.562   2.990
 2094W        W 6158   9.482   2.889  11.793
 2095W        W 6159   3.669   9.345  11.781
 2096W        W 6160   9.845   5.192   2.852
 2097W        W 6161   6.570   4.330   0.423
 2098W        W 6162   8.294  10.474  11.271
 2099W        W 6163   9.132   6.133   2.166
 2100W        W 6164   0.451   2.059   0.390
 2101W        W 6165   3.025   8.708  11.733
 2102W        W 6166   5.481   2.148   0.450
 2103W        W 6167   8.976   7.542  11.019
 2104W        W 6168   8.745   3.559  11.266
 2105W        W 6169   5.046   5.197   9.099
 2106W        W 6170   8.968   8.349  10.629
 2107W        W 6171   2.345   4.830   8.336
 2108W        W 6172   3.694   0.864   0.181
 2109W        W 6173   4.196   9.311   3.680
 2110W        W 6174   9.126   2.412   8.903
 2111W        W 6175   2.637   0.514   2.458
 2112W        W 6176   8.506   7.958  10.964
 2113W        W 6177   7.025   3.590   2.289
 2114W        W 6178   3.655  10.392   8.772
 2115W        W 6179   6.274   6.764  11.055
 2116W        W 6180   3.543   1.730   2.165
 2117W        W 6181   9.821   1.533  11.044
 2118W        W 6182   3.758   0.401   1.461
 2119W        W 6183  10.094  10.261   3.487
 2120W        W 6184   8.375   8.108   1.021
 2121W        W 6185   8.840   9.243  11.863
 2122W        W 6186   2.948   7.670   2.894
 2123W        W 6187   9.970   9.280  10.758
 2124W        W 6188   5.666   6.706   9.733
 2125W        W 6189   7.953   6.229  11.214
 2126W        W 6190   7.471   0.333   1.901
 2127W        W 6191   6.828   9.403  11.581
 2128W        W 6192   8.148   1.331   0.874
 2129W        W 6193   1.182   2.625  11.557
 2130W        W 6194   8.910   9.956   2.493
 2131W        W 6195   4.973   6.006  10.080
 2132W        W 6196   1.017   4.685   2.225
 2133W        W 6197   2.799   8.904  10.899
 2134W        W 6198   4.263   0.326   0.717
 2135W        W 6199  10.388   0.395  10.507
 2136W        W 6200   4.035   9.842   2.285
 2137W        W 6201   9.109   3.833  10.421
 2138W        W 6202   5.743   0.215   1.480
 2139W        W 6203   3.226   3.462   8.633
 2140W        W 6204   3.639   9.043   0.795
 2141W        W 6205   0.848   0.774   9.389
 2142W        W 6206   2.387   1.238   0.343
 2143W        W 6207   0.861   6.953   9.749
 2144W        W 6208   1.768   2.150   8.780
 2145W        W 6209   3.422   1.414  11.371
 2146W        W 6210   5.772   7.404   1.250
 2147W        W 6211   0.795   5.860   0.773
 2148W        W 6212   6.069   7.970   9.053
 2149W        W 6213   1.950  10.413  10.151
 2150W        W 6214   6.144   1.677   2.468
 2151W        W 6215   1.822   6.720   3.581
 2152W        W 6216   1.387   5.928  10.963
 2153W        W 6217   1.493   2.642   1.775
 2154W        W 6218   7.882   1.692   0.583
 2155W        W 6219   9.751   1.822   0.371
 2156W        W 6220   2.078   5.423   0.914
 2157W        W 6221   4.003   6.508   3.317
 2158W        W 6222   4.263   9.554   1.859
 2159W        W 6223   2.865   5.561  11.728
 2160W        W 6224   9.283   9.872   3.302
 2161W        W 6225   8.024   2.282   3.018
 2162W        W 6226   2.227   2.270   3.318
 2163W        W 6227   7.991  10.143   2.333
 2164W        W 6228   6.916  10.340  11.452
 2165W        W 6229   2.740   3.633   8.764
 2166W        W 6230   7.831   8.504  11.617
 2167W        W 6231   9.109  10.298  11.552
 2168W        W 6232   6.969   2.715   0.335
 2169W        W 6233   3.125   0.887   1.449
 2170W        W 6234   1.042   4.981   8.886
 2171W        W 6235   0.694  10.342   1.418
 2172W        W 6236   7.091   2.304   0.054
 2173W        W 6237   6.513   4.678   2.571
 2174W        W 6238   8.573   2.762  10.029
 2175W        W 6239   3.618   7.966  10.400
 2176W        W 6240   9.067   7.005   1.175
 2177W        W 6241   8.069   4.414   3.272
 2178W        W 6242   1.405   4.658  11.468
 2179W        W 6243   4.714   8.930  10.739
 2180W        W 6244   6.738   7.207  11.931
 2181W        W 6245   8.021   9.903   8.530
 2182W        W 6246   9.486   4.099   2.246
 2183W        W 6247   9.367   8.034  10.452
 2184W        W 6248   5.004   3.287  10.755
 2185W        W 6249   5.654   5.842  11.671
 2186W        W 6250   3.685   9.549   8.948
 2187W        W 6251   4.078  10.449   9.065
 2188W        W 6252   5.648   8.480   2.194
 2189W        W 6253   3.317   6.640  10.860
 2190W        W 6254   1.650   6.618   0.059
 2191W        W 6255   8.068   1.234  10.871
 2192W        W 6256   3.267   6.640  10.333
 2193W        W 6257   9.535   1.738   2.509
 2194W        W 6258   8.903   0.871   3.364
 2195W        W 6259   7.359   4.367  11.841
 2196W        W 6260   1.185   2.741  10.672
 2197W        W 6261   1.169   4.504   0.507
 2198W        W 6262   3.375   2.044   1.810
 2199W        W 6263   2.180   7.023  10.948
 2200W        W 6264   4.505   3.186   0.808
 2201W        W 6265   5.654   6.043   0.553
 2202W        W 6266   5.363   6.820   1.901
 2203W        W 6267   1.757   3.625   1.366
 2204W        W 6268   7.616   4.059   9.593
 2205W        W 6269   9.382   7.581   1.803
 2206W        W 6270   6.976   1.943  11.706
 2207W        W 6271   1.708   5.218  10.802
 2208W        W 6272   2.840   0.570   0.804
 2209W        W 6273   9.528   6.977   9.313
 2210W        W 6274   2.637   4.154   1.848
 2211W        W 6275   2.436   6.266  11.942
 2212W        W 6276   6.175   4.782   1.548
 2213W        W 6277   0.607   8.150   0.795
 2214W        W 6278   8.958   8.351   9.197
 2215W        W 6279   9.567   1.459   8.508
 2216W        W 6280   6.439   5.203   9.090
 2217W        W 6281   3.689   5.718  11.210
 2218W        W 6282   2.555   5.584  10.444
 2219W        W 6283   5.353   1.748  10.394
 2220W        W 6284   5.271   1.283   0.160
 2221W        W 6285   8.836   7.834   1.010
 2222W        W 6286   8.776   5.090  10.329
 2223W        W 6287   6.709   5.627   2.890
 2224W        W 6288   3.179   5.295   0.421
 2225W        W 6289   8.655   2.247   0.821
 2226W        W 6290   0.669   7.914  10.979
 2227W        W 6291   8.558   9.071   8.618
 2228W        W 6292   3.352   3.036   3.189
 2229W        W 6293   2.291   0.258   2.741
 2230W        W 6294   5.232   2.142   2.630
 2231W        W 6295   6.930   8.046   9.882
 2232W        W 6296   1.887   0.129   2.219
 2233W        W 6297   2.877   9.893  10.882
 2234W        W 6298   4.031   9.117  11.479
 2235W        W 6299   1.887   2.219   3.717
 2236W        W 6300   7.118   4.119   3.568
 2237W        W 6301   0.281   0.520   9.774
 2238W        W 6302   9.004   2.275   2.826
 2239W        W 6303   2.858   2.683   1.411
 2240W        W 6304   7.139   7.930   3.010
 2241W        W 6305   3.205   1.814   9.209
 2242W        W 6306   4.618   1.292   2.000
 2243W        W 6307   9.418   9.252   9.580
 2244W        W 6308   0.430   0.735   8.752
 2245W        W 6309  10.304   8.312  11.251
 2246W        W 6310   5.420   0.366   8.865
 2247W        W 6311   0.820  10.326  11.481
 2248W        W 6312   8.463   9.496   0.697
 2249W        W 6313   7.994   2.304   3.525
 2250W        W 6314   3.487   8.900  10.326
 2251W        W 6315   4.205   6.051   0.963
 2252W        W 6316   5.283  10.488   9.767
 2253W        W 6317   7.349   8.390   3.149
 2254W        W 6318   6.646   0.206   2.461
 2255W        W 6319   1.610   9.581   2.093
 2256W        W 6320   4.364   1.961  10.467
 2257W        W 6321   1.527   4.688   2.235
 2258W        W 6322   3.174   9.465   8.992
 2259W        W 6323   8.957   1.116  11.368
 2260W        W 6324   3.072   2.201  11.739
 2261W        W 6325   3.374   8.335   9.349
 2262W        W 6326   1.383   7.550   9.488
 2263W        W 6327   0.923   7.389  11.913
 2264W        W 6328   5.155   9.042   2.813
 2265W        W 6329   6.944   6.987   1.824
 2266W        W 6330   1.870   2.146  10.352
 2267W        W 6331   9.003   0.538   0.304
 2268W        W 6332   7.550   6.820   9.824
 2269W        W 6333   6.662   1.167   0.007
 2270W        W 6334   1.411   5.135  11.794
 2271W        W 6335   4.561   9.300  11.059
 2272W        W 6336   4.645   9.350   3.432
 2273W        W 6337   3.369   7.876  11.553
 2274W        W 6338   1.052  10.474  11.929
 2275W        W 6339   8.914   1.531   0.267
 2276W        W 6340   3.649   5.550   1.979
 2277W        W 6341   6.184   1.863  10.460
 2278W        W 6342   3.039   6.947   3.147
 2279W        W 6343   1.083   1.882   1.376
 2280W        W 6344   7.347   9.657  11.062
 2281W        W 6345   8.149   9.459   2.910
 2282W        W 6346   3.297   4.260   8.810
 2283W        W 6347   2.276   9.086  11.444
 2284W        W 6348   1.530   6.174   2.904
 2285W        W 6349   8.201   2.552  11.012
 2286W        W 6350   5.664   2.042  11.990
 2287W        W 6351   1.575   1.777   1.272
 2288W        W 6352   0.425   7.128  10.644
 2289W        W 6353   0.448   2.124  11.462
 2290W        W 6354   1.193   4.014   8.617
 2291W        W 6355   1.961   7.017   0.964
 2292W        W 6356   0.962   0.272   0.627
 2293W        W 6357   3.721   2.206   3.043
 2294W        W 6358   8.977   4.163   0.426
 2295W        W 6359   2.381   8.613   0.343
 2296W        W 6360   1.776   4.250  10.980
 2297W        W 6361   1.903   8.441   8.580
 2298W        W 6362   4.244   7.050   0.192
 2299W        W 6363   9.213   7.449   2.281
 2300W        W 6364   0.696   4.001   2.900
 2301W        W 6365   2.158   7.981   9.685
 2302W        W 6366   7.204   6.501   4.082
 2303W        W 6367   9.427   6.173   0.702
 2304W        W 6368   7.689   9.717   0.844
 2305W        W 6369   1.060   9.439   2.794
 2306W        W 6370   6.892   1.292   2.201
 2307W        W 6371   2.298   4.772   3.246
 2308W        W 6372   3.826   8.472   1.413
 2309W        W 6373   8.876   8.372   0.966
 2310W        W 6374   3.967   6.727   1.976
 2311W        W 6375   9.148   3.581   8.962
 2312W        W 6376   5.553   9.851   2.194
 2313W        W 6377   0.467   6.139  11.661
 2314W        W 6378   8.803   6.689   0.548
 2315W        W 6379   6.129   1.850  11.557
 2316W        W 6380  10.450   1.332   1.952
 2317W        W 6381   9.862   1.745   9.994
 2318W        W 6382   9.989   1.167   0.007
 2319W        W 6383   8.974   1.975   1.620
 2320W        W 6384   7.976   2.716   1.723
 2321W        W 6385   1.572   5.372   0.216
 2322W        W 6386   0.860   8.095  10.558
 2323W        W 6387   6.688   8.014   0.241
 2324W        W 6388   5.459   5.213   2.661
 2325W        W 6389   0.004   8.402   2.639
 2326W        W 6390   9.944   2.601   3.376
 2327W        W 6391   3.178   3.531   1.762
 2328W        W 6392   9.853   3.241  11.837
 2329W        W 6393   7.192   3.052   9.288
 2330W        W 6394   1.343   0.483   8.580
 2331W        W 6395   3.447   4.194  10.775
 2332W        W 6396   7.657   5.981   8.370
 2333W        W 6397   4.827   2.791   0.931
 2334W        W 6398   1.734   5.857   9.711
 2335W        W 6399   7.353   6.061   1.804
 2336W        W 6400   4.163   8.822   2.357
 2337W        W 6401   4.538   3.633  10.126
 2338W        W 6402   0.748   1.661   0.472
 2339W        W 6403   1.603   6.455   1.873
 2340W        W 6404   4.330   1.001  11.408
 2341W        W 6405   7.103   7.653  10.182
 2342W        W 6406   1.691   0.061   0.364
 2343W        W 6407   4.388   2.639  11.061
 2344W        W 6408   4.232   3.399  11.422
 2345W        W 6409   3.541   1.721   0.868
 2346W        W 6410   6.462   0.206   1.986
 2347W        W 6411   5.174   4.146   8.145
 2348W        W 6412   3.212   4.641  10.047
 2349W        W 6413   1.448   0.765  11.880
 2350W        W 6414   8.930   8.401  10.111
 2351W        W 6415   8.978   7.927   1.534
 2352W        W 6416   2.917   0.269   0.405
 2353W        W 6417   9.970   8.784  11.946
 2354W        W 6418   2.214   6.042  10.995
 2355W        W 6419   3.628   2.597   0.745
 2356W        W 6420  10.150   8.724  10.735
 2357W        W 6421   1.867   7.431  11.144
 2358W        W 6422   0.231   0.251   8.860
 2359W        W 6423   7.492   7.530  11.422
 2360W        W 6424   8.525   6.573  11.792
 2361W        W 6425   9.611   6.629   0.901
 2362W        W 6426   7.243   3.193   1.025
 2363W        W 6427   7.730   9.120   9.066
 2364W        W 6428   8.910   7.843  10.605
 2365W        W 6429   3.369   6.982   8.549
 2366W        W 6430   6.705   1.668  10.252
 2367W        W 6431   3.280   7.891   0.681
 2368W        W 6432   4.563   9.853   3.166
 2369W        W 6433   9.696  10.219   9.796
 2370W        W 6434   9.870   5.443  11.518
 2371W        W 6435   7.932  10.189   0.852
 2372W        W 6436   6.636   8.738   2.999
 2373W        W 6437   0.309   1.336   2.705
 2374W        W 6438   0.139   6.740  10.883
 2375W        W 6439   7.623   5.622   1.710
 2376W        W 6440   6.709   1.654   9.708
 2377W        W 6441   6.396   5.717   1.613
 2378W        W 6442   3.375   9.762  11.631
 2379W        W 6443   4.774   1.245  11.893
 2380W        W 6444   1.170   6.065   3.262
 2381W        W 6445   6.277   3.658   0.942
 2382W        W 6446   8.140   3.070  10.840
 2383W        W 6447   7.174   5.451   2.811
 2384W        W 6448   5.679  10.266   2.439
 2385W        W 6449   1.378   6.562  10.190
 2386W        W 6450   8.089   7.558  10.303
 2387W        W 6451   8.017   2.242   2.500
 2388W        W 6452   7.060   3.347  11.589
 2389W        W 6453   2.748   8.803  10.052
 2390W        W 6454  10.075   0.155   1.612
 2391W        W 6455   1.846   6.431   3.189
 2392W        W 6456   1.657   9.235  10.765
 2393W        W 6457   2.709   4.466   0.043
 2394W        W 6458   4.496   6.611   2.708
 2395W        W 6459   1.414   7.224   1.519
 2396W        W 6460   2.235   6.016  10.455
 2397W        W 6461   7.406   4.546   1.316
 2398W        W 6462   4.693   9.353   0.069
 2399W        W 6463   8.737   5.052   3.551
 2400W        W 6464   9.855   6.962   0.600
 2401W        W 6465   4.855   5.036   1.209
 2402W        W 6466   3.188   6.359   8.336
 2403W        W 6467   2.590   3.867  11.938
 2404W        W 6468   7.539   7.529   1.873
 2405W        W 6469   6.947   0.870   1.902
 2406W        W 6470   9.509   1.520   0.747
 2407W        W 6471   7.522   5.455   1.237
 2408W        W 6472   5.035   9.649   2.170
 2409W        W 6473   2.002   2.862   9.421
 2410W        W 6474   6.908   5.611  11.540
 2411W        W 6475   9.823   5.609   0.039
 2412W        W 6476   4.248   8.364   9.184
 2413W        W 6477   2.355   2.294   2.810
 2414W        W 6478   6.997   4.186   0.177
 2415W        W 6479   0.402   7.629   3.365
 2416W        W 6480   7.022   9.859  11.768
 2417W        W 6481   5.109   5.394  11.505
 2418W        W 6482   3.817   6.478   9.631
 2419W        W 6483   2.946   9.897   9.451
 2420W        W 6484   7.942   3.326  11.630
 2421W        W 6485   3.524   4.326   9.502
 2422W        W 6486   0.803   1.139   0.985
 2423W        W 6487   7.181   5.906   4.060
 2424W        W 6488   3.772   9.920   8.587
 2425W        W 6489   4.208   7.944   0.681
 2426W        W 6490   9.062   2.364   0.551
 2427W        W 6491   8.456   2.841   1.552
 2428W        W 6492   9.393   4.585   2.092
 2429W        W 6493   8.234   1.034   1.848
 2430W        W 6494   2.979   9.231   3.133
 2431W        W 6495   5.000   0.371   3.071
 2432W        W 6496   8.534   8.015   1.842
 2433W        W 6497   8.115   6.575   9.533
 2434W        W 6498   5.211   4.637  10.512
 2435W        W 6499   6.034  10.123   9.433
 2436W        W 6500   8.331   1.710   0.271
 2437W        W 6501   1.930   7.369   1.803
 2438W        W 6502   3.284   9.400   0.577
 2439W        W 6503   3.943   1.035   3.511
 2440W        W 6504   9.872   1.288   9.225
 2441W        W 6505   5.903   4.088  11.405
 2442W        W 6506   8.065   5.583   1.925
 2443W        W 6507   7.568   8.208   2.730
 2444W        W 6508  10.320   7.912   2.625
 2445W        W 6509  10.130   6.726   0.976
 2446W        W 6510   5.734  10.292  10.664
 2447W        W 6511   5.655   0.725  11.698
 2448W        W 6512   4.213  10.328  10.844
 2449W        W 6513   3.720   6.948   2.413
 2450W        W 6514   7.008   9.933   3.660
 2451W        W 6515   3.265   3.814  11.502
 2452W        W 6516   1.198   5.647  11.358
 2453W        W 6517   2.116   3.167   0.782
 2454W        W 6518  10.485   7.007  10.419
 2455W        W 6519   4.007   2.258   9.868
 2456W        W 6520   5.922   2.665   9.535
 2457W        W 6521   3.577   6.566  11.328
 2458W        W 6522   4.746   3.204   9.402
 2459W        W 6523   3.833   2.381   2.581
 2460W        W 6524   6.344   6.678   3.684
 2461W        W 6525   0.097   6.480   2.678
 2462W        W 6526   8.560   6.689   3.446
 2463W        W 6527   4.569   7.947   9.461
 2464W        W 6528   3.660   1.361  11.842
 2465W        W 6529   5.687   7.977   8.713
 2466W        W 6530   0.791   5.019   1.239
 2467W        W 6531   0.978   3.291  10.916
 2468W        W 6532   6.491   4.361   1.379
 2469W        W 6533   6.995   2.013  10.965
 2470W        W 6534   7.576   6.603  10.310
 2471W        W 6535   4.117   9.618   9.239
 2472W        W 6536   5.036   7.763   1.623
 2473W        W 6537   1.145   8.985   3.528
 2474W        W 6538   4.083   3.111   1.053
 2475W        W 6539   1.336   1.473   3.285
 2476W        W 6540   3.847   9.848   9.619
 2477W        W 6541   3.277   1.356   1.681
 2478W        W 6542   8.460  10.262   0.261
 2479W        W 6543   3.283   8.927   2.872
 2480W        W 6544   8.043   8.230   1.978
 2481W        W 6545   0.732   9.013  10.355
 2482W        W 6546   7.280   2.848   3.425
 2483W        W 6547   9.239  10.335   0.548
 2484W        W 6548   5.968   0.348   1.910
 2485W        W 6549   7.193   4.168   1.599
 2486W        W 6550   6.138   9.102   3.210
 2487W        W 6551   8.634   3.617   9.003
 2488W        W 6552  10.473   5.321   0.382
 2489W        W 6553   8.972   2.495   1.498
 2490W        W 6554   6.484   1.942   8.714
 2491W        W 6555   6.172   7.814   3.157
 2492W        W 6556   9.996   9.223   0.851
 2493W        W 6557  10.462   8.003  10.245
 2494W        W 6558   7.982   7.296   0.827
 2495W        W 6559   3.313   9.988   8.910
 2496W        W 6560   5.978   9.113   9.546
 2497W        W 6561   8.833   0.420   3.026
 2498W        W 6562   4.365   7.015   8.437
 2499W        W 6563   1.198   8.518   2.271
 2500W        W 6564   8.613   7.073  11.797
 2501W        W 6565   5.235   8.688   1.163
 2502W        W 6566   3.741   3.845   3.105
 2503W        W 6567   6.036   1.215   1.714
 2504W        W 6568  10.370   5.712   3.160
 2505W        W 6569   3.285   0.248   2.122
 2506W        W 6570  10.406   5.764   0.697
 2507W        W 6571   9.353   2.673   3.343
 2508W        W 6572  10.071   3.041   0.362
 2509W        W 6573   1.674   7.072   3.251
 2510W        W 6574   3.636   6.747   0.701
 2511W        W 6575   8.155   7.050   9.695
 2512W        W 6576   4.220   7.029   2.340
 2513W        W 6577   5.621   8.908   9.200
 2514W        W 6578   9.307   3.311   1.403
 2515W        W 6579   8.807   7.156   2.213
 2516W        W 6580   3.529   7.519   0.016
 2517W        W 6581   2.788   6.453   1.356
 2518W        W 6582   3.066   3.140   0.909
 2519W        W 6583   8.588   3.306   0.631
 2520W        W 6584   7.475   1.391   9.179
 2521W        W 6585   0.477   9.419  10.583
 2522W        W 6586   7.345   6.784   1.538
 2523W        W 6587   5.171   3.921   4.203
 2524W        W 6588   1.268   9.423   1.756
 2525W        W 6589   8.023   3.811   9.819
 2526W        W 6590   8.144   7.078   9.147
 2527W        W 6591   1.277   0.484   9.473
 2528W        W 6592   5.590   3.175   1.008
 2529W        W 6593   1.693   2.200   0.952
 2530W        W 6594   8.524   0.202   3.437
 2531W        W 6595   2.854   8.351   1.210
 2532W        W 6596   5.482   9.881   8.595
 2533W        W 6597   0.762   6.116  10.378
 2534W        W 6598   6.695   0.138   3.344
 2535W        W 6599   2.311   6.256   1.259
 2536W        W 6600   8.470   2.192   3.306
 2537W        W 6601   2.256   0.435  10.730
 2538W        W 6602   3.130   2.782   2.827
 2539W        W 6603   0.354   0.184   2.017
 2540W        W 6604   7.554   7.653   9.935
 2541W        W 6605   7.015   8.362   9.104
 2542W        W 6606   7.276   9.555   3.421
 2543W        W 6607   2.376   0.803  10.403
 2544W        W 6608   4.702   8.366   1.933
 2545W        W 6609   5.571   8.126  11.760
 2546W        W 6610   0.193   3.617  11.508
 2547W        W 6611   8.848   9.104  11.104
 2548W        W 6612  10.371   6.507  10.523
 2549W        W 6613   0.310   2.826   8.826
 2550W        W 6614   0.034   1.652   9.896
 2551W        W 6615   1.413  10.043  11.222
 2552W        W 6616   4.481   5.172   1.540
 2553W        W 6617   6.132   2.557   2.165
 2554W        W 6618   3.253   0.905  11.927
 2555W        W 6619   2.147   6.624   9.845
 2556W        W 6620   8.077   4.128   1.838
 2557W        W 6621   8.023   8.190   2.484
 2558W        W 6622   7.029   8.574  10.524
 2559W        W 6623   7.600   2.299   1.702
 2560W        W 6624   9.339   4.035   2.730
 2561W        W 6625   9.985   4.235   0.956
 2562W        W 6626   7.465   9.453   0.431
 2563W        W 6627   9.057   0.779   0.793
 2564W        W 6628   3.078   5.625  10.347
 2565W        W 6629   6.420   5.428   8.637
 2566W        W 6630   5.681   3.025  11.944
 2567W        W 6631   4.274   0.806   1.412
 2568W        W 6632   2.753   9.287  11.266
 2569W        W 6633   3.612   2.728  11.260
 2570W        W 6634   7.181   9.358   0.930
 2571W        W 6635   5.708   1.878   9.988
 2572W        W 6636   3.676   2.131   0.546
 2573W        W 6637   0.019   5.191   9.061
 2574W        W 6638   4.653   9.837  11.271
 2575W        W 6639  10.102   4.981   1.971
 2576W        W 6640   7.463   9.315   1.773
 2577W        W 6641   4.280   7.592  10.791
 2578W        W 6642   3.181   4.588  11.901
 2579W        W 6643  10.222   4.967  10.513
 2580W        W 6644   5.597   5.514  11.235
 2581W        W 6645   0.504   4.627   2.896
 2582W        W 6646   8.121   3.883   0.336
 2583W        W 6647   2.426   8.612   2.515
 2584W        W 6648   1.278   4.218   9.300
 2585W        W 6649   7.962   0.797  11.373
 2586W        W 6650   3.367   0.895   1.913
 2587W        W 6651   5.656   5.007   0.716
 2588W        W 6652   1.976   1.621   1.572
 2589W        W 6653   4.063   5.757   9.191
 2590W        W 6654   6.575   8.450   1.279
 2591W        W 6655   3.672   6.672   8.847
 2592W        W 6656   1.800   1.056   0.173
 2593W        W 6657   5.102   7.360   3.010
 2594W        W 6658   6.144   8.657   2.912
 2595W        W 6659   1.385   5.886   0.257
 2596W        W 6660   3.059   6.525  11.355
 2597W        W 6661   0.881   9.297   8.994
 2598W        W 6662   3.115   9.941  10.255
 2599W        W 6663   2.514   7.193   1.895
 2600W        W 6664   0.398   7.746  10.130
 2601W        W 6665   7.261   3.647   0.772
 2602W        W 6666   2.923   1.727   1.441
 2603W        W 6667   1.946   3.096   3.238
 2604W        W 6668   3.726   1.876  10.748
 2605W        W 6669   9.358   2.865  10.400
 2606W        W 6670   0.840   1.377   1.460
 2607W        W 6671   1.294   3.480   2.007
 2608W        W 6672   3.063   8.781   2.433
 2609W        W 6673  10.276   9.867  10.315
 2610W        W 6674   3.786  10.433  11.699
 2611W        W 6675   1.406   5.203   9.183
 2612W        W 6676   1.319   8.299   0.062
 2613W        W 6677   6.077   4.806  10.144
 2614W        W 6678   1.367   2.331   3.567
 2615W        W 6679   3.554   4.949   3.566
 2616W        W 6680   3.983   5.724   0.172
 2617W        W 6681   6.693   3.654  10.519
 2618W        W 6682   8.488   1.869   9.872
 2619W        W 6683   2.735   6.688   2.730
 2620W        W 6684   4.238   9.881   0.707
 2621W        W 6685   8.217   6.445   1.285
 2622W        W 6686   8.949   0.106   9.519
 2623W        W 6687   5.065   9.413  10.247
 2624W        W 6688   6.517  10.315  11.097
 2625W        W 6689   7.235   7.283  11.790
 2626W        W 6690   6.588   1.247  11.015
 2627W        W 6691   2.021   1.844  11.221
 2628W        W 6692   9.560   5.514  10.779
 2629W        W 6693   0.515   4.639   2.355
 2630W        W 6694   9.408   4.737   1.565
 2631W        W 6695   8.480   4.269   8.988
 2632W        W 6696   8.296   8.843  10.367
 2633W        W 6697   6.751   8.464   9.609
 2634W        W 6698   6.474   8.119   9.365
 2635W        W 6699   2.252   3.402  11.973
 2636W        W 6700   6.442   7.919   9.918
 2637W        W 6701   0.692   5.389   2.832
 2638W        W 6702   2.795   0.733   8.572
 2639W        W 6703   8.613   0.480  10.812
 2640W        W 6704   7.507   6.210  11.547
 2641W        W 6705   1.976   0.828  10.918
 2642W        W 6706   6.080   9.960   3.323
 2643W        W 6707   8.898  10.395   2.190
 2644W        W 6708   6.419   5.496  11.660
 2645W        W 6709   7.050   4.430   9.416
 2646W        W 6710   8.593   5.927   0.480
 2647W        W 6711   5.807   9.919   0.886
 2648W        W 6712   2.097   3.874   2.642
 2649W        W 6713   7.383   2.250  11.231
 2650W        W 6714   5.638   7.810   1.851
 2651W        W 6715  10.276   0.772   8.632
 2652W        W 6716   1.406   8.472   8.654
 2653W        W 6717   9.826   3.863   0.652
 2654W        W 6718   0.878   2.216  11.729
 2655W        W 6719   9.716   0.270  11.746
 2656W        W 6720   2.160   0.855   3.335
 2657W        W 6721   4.848   6.873   1.871
 2658W        W 6722   0.262  10.374   0.311
 2659W        W 6723   1.620   0.743   9.971
 2660W        W 6724   9.238   2.718   0.205
 2661W        W 6725   8.875   0.665   2.115
 2662W        W 6726   4.393   6.537   8.185
 2663W        W 6727   4.016   2.885   9.051
 2664W        W 6728   8.571   3.345  10.765
 2665W        W 6729   9.959   3.525  10.539
 2666W        W 6730   8.892   4.561   9.152
 2667W        W 6731   0.500   9.054   1.650
 2668W        W 6732   5.153   0.407   0.210
 2669W        W 6733   8.333   8.029   8.609
 2670W        W 6734   4.426   1.647   3.610
 2671W        W 6735   7.696   0.322   9.403
 2672W        W 6736   8.802   4.589   3.139
 2673W        W 6737   3.821   5.364  11.864
 2674W        W 6738   2.843   2.122   1.755
 2675W        W 6739   7.512  10.490   9.037
 2676W        W 6740   2.526  10.182   9.349
 2677W        W 6741   7.820   5.302   0.789
 2678W        W 6742   6.567   7.702  11.839
 2679W        W 6743   3.073   4.303   9.272
 2680W        W 6744   4.787   7.342   0.381
 2681W        W 6745   7.929   8.046  11.806
 2682W        W 6746   3.800   3.311  10.550
 2683W        W 6747   2.199   5.700   9.047
 2684W        W 6748   0.015   6.107  11.889
 2685W        W 6749  10.193   0.329   2.562
 2686W        W 6750   3.209   9.110   9.952
 2687W        W 6751   9.434   4.745   1.041
 2688W        W 6752   5.989   1.248   2.238
 2689W        W 6753   8.723   6.695   8.703
 2690W        W 6754   2.852   2.877  10.811
 2691W        W 6755   5.103   8.118  11.933
 2692W        W 6756   9.310   2.881   0.669
 2693W        W 6757   1.375   4.182   1.439
 2694W        W 6758   7.347   9.492  10.228
 2695W        W 6759   4.081   0.587  10.377
 2696W        W 6760   4.211   1.877   8.887
 2697W        W 6761   8.912   5.553   2.898
 2698W        W 6762   4.503   2.837  10.585
 2699W        W 6763   2.831   4.618   2.022
 2700W        W 6764   7.665   8.515  11.140
 2701W        W 6765  10.264   2.345   1.969
 2702W        W 6766  10.255  10.396   0.335
 2703W        W 6767  10.171   2.669  11.502
 2704W        W 6768   7.899   2.251   8.957
 2705W        W 6769   8.097   0.915  11.898
 2706W        W 6770   4.059   5.144   2.837
 2707W        W 6771   3.285   4.632   8.446
 2708W        W 6772   8.481  10.235  10.435
 2709W        W 6773   8.148   5.680   9.818
 2710W        W 6774   3.169   3.933   3.487
 2711W        W 6775   9.497   6.233   1.224
 2712W        W 6776   5.002   1.250   9.726
 2713W        W 6777   3.166   8.336   3.119
 2714W        W 6778   0.411  10.010  11.389
 2715W        W 6779   0.713   4.803   9.258
 2716W        W 6780   1.812   4.715   3.014
 2717W        W 6781   8.415  10.155   3.587
 2718W        W 6782   2.441   8.229  11.288
 2719W        W 6783   7.173  10.459   1.732
 2720W        W 6784   2.866   1.856  10.993
 2721W        W 6785   1.164   5.097   0.894
 2722W        W 6786   6.382   5.270  10.814
 2723W        W 6787   5.668   6.503   2.202
 2724W        W 6788   4.543   1.477  10.444
 2725W        W 6789   2.433   1.224   2.618
 2726W        W 6790   4.140   7.405   9.923
 2727W        W 6791   5.444   1.349   8.922
 2728W        W 6792   3.693   6.007   2.191
 2729W        W 6793   6.147   0.806   2.002
 2730W        W 6794   0.280   6.343   9.751
 2731W        W 6795   6.260   8.496  11.454
 2732W        W 6796  10.328   8.972   1.172
 2733W        W 6797   4.117   2.619   3.573
 2734W        W 6798   7.668   1.160  10.075
 2735W        W 6799  10.186   2.629   0.680
 2736W        W 6800   3.663   6.506   1.183
 2737W        W 6801   6.258   6.931   2.840
 2738W        W 6802   9.042   1.309   0.745
 2739W        W 6803   9.113   7.936   2.049
 2740W        W 6804   2.776   8.999   1.640
 2741W        W 6805   2.642   1.482  11.806
 2742W        W 6806   0.306   9.456   1.990
 2743W        W 6807   1.310   6.849   0.432
 2744W        W 6808   4.748   2.121   3.612
 2745W        W 6809  10.223   3.061   1.210
 2746W        W 6810   5.512   3.798   9.978
 2747W        W 6811   7.816   4.232  10.043
 2748W        W 6812   4.871   1.681  11.472
 2749W        W 6813   6.469  10.333   0.400
 2750W        W 6814   2.532   1.878   0.975
 2751W        W 6815   7.011   7.885   8.877
 2752W        W 6816   0.307  10.210  10.943
 2753W        W 6817  10.455   6.110   9.372
 2754W        W 6818   3.797   7.939  11.867
 2755W        W 6819   1.207   0.890   0.829
 2756W        W 6820   5.248   1.319   3.439
 2757W        W 6821   2.288   5.238   1.399
 2758W        W 6822   2.735   4.990   1.335
 2759W        W 6823   0.780   9.572   9.413
 2760W        W 6824   3.363   4.438   4.291
 2761W        W 6825   4.048   9.310  10.961
 2762W        W 6826   3.037   7.119  10.881
 2763W        W 6827   0.890   2.075   3.647
 2764W        W 6828   9.619   5.152   9.526
 2765W        W 6829   8.610   3.788   0.389
 2766W        W 6830   0.420  10.476   9.264
 2767W        W 6831   4.530   5.716  10.057
 2768W        W 6832   3.152  10.467   8.705
 2769W        W 6833   7.090   8.821   3.217
 2770W        W 6834   7.883   2.809   9.512
 2771W        W 6835   9.330   9.061  11.720
 2772W        W 6836   5.607   0.912   9.734
 2773W        W 6837   8.279   4.199  11.752
 2774W        W 6838   8.815   5.502   9.156
 2775W        W 6839   5.072   3.401   4.260
 2776W        W 6840   4.395   4.299  11.342
 2777W        W 6841   9.506   5.934  11.797
 2778W        W 6842   2.777   4.427   9.753
 2779W        W 6843   2.187   6.042   3.251
 2780W        W 6844   5.153   1.080   1.411
 2781W        W 6845   7.753  10.430   9.866
 2782W        W 6846   4.642   2.181   8.843
 2783W        W 6847   0.409   0.022   9.780
 2784W        W 6848   8.485   0.794   2.796
 2785W        W 6849   6.596   7.483  11.387
 2786W        W 6850   4.380   8.776  11.642
 2787W        W 6851   3.774   9.957   0.931
 2788W        W 6852   8.407   2.636   2.018
 2789W        W 6853   9.571   8.659   1.608
 2790W        W 6854   2.089   9.399  10.511
 2791W        W 6855   0.052   4.514   2.575
 2792W        W 6856   8.375   4.796   3.286
 2793W        W 6857   8.511   9.724   8.472
 2794W        W 6858   2.663   7.839  10.842
 2795W        W 6859   4.426   2.001   1.014
 2796W        W 6860   6.092   7.673   2.680
 2797W        W 6861   1.696   6.346   9.864
 2798W        W 6862   7.966   0.331   1.103
 2799W        W 6863   1.836   0.486   1.214
 2800W        W 6864   8.061   1.445   9.848
 2801W        W 6865   7.449   2.652   9.981
 2802W        W 6866   8.922   3.949   2.434
 2803W        W 6867   3.134   0.215   3.159
 2804W        W 6868   9.964   5.659  11.053
 2805W        W 6869   2.883   5.685   3.447
 2806W        W 6870   8.783   4.236   9.982
 2807W        W 6871   9.901   7.087  11.139
 2808W        W 6872   8.332   5.875   2.675
 2809W        W 6873   8.371   3.527   2.339
 2810W        W 6874   4.594   2.760   9.594
 2811W        W 6875   4.556   6.172   9.822
 2812W        W 6876   0.412   9.781   0.764
 2813W        W 6877   0.503   4.636  11.049
 2814W        W 6878   1.725   4.616   1.466
 2815W        W 6879   5.258   8.413   9.905
 2816W        W 6880   5.518   4.641   1.744
 2817W        W 6881   0.943   4.470   8.949
 2818W        W 6882   2.795   8.611   8.870
 2819W        W 6883   0.979   0.990  10.711
 2820W        W 6884   0.342   7.485   9.685
 2821W        W 6885   4.762   4.598   2.956
 2822W        W 6886   5.106   5.911   1.824
 2823W        W 6887   8.418   4.225  10.326
 2824W        W 6888   6.976   9.405   1.960
 2825W        W 6889   2.278   6.481   3.500
 2826W        W 6890   5.243   1.394  11.178
 2827W        W 6891   7.410   4.199   0.494
 2828W        W 6892   0.311   8.819   2.651
 2829W        W 6893   2.453   0.255   1.025
 2830W        W 6894   7.880   1.382   2.593
 2831W        W 6895   8.167   6.000   2.209
 2832W        W 6896  10.209   8.881  10.264
 2833W        W 6897   1.384   8.828  10.898
 2834W        W 6898   4.256   1.249  10.967
 2835W        W 6899   1.889   8.446   1.204
 2836W        W 6900   3.929   8.801   9.538
 2837W        W 6901   5.199   2.341   3.698
 2838W        W 6902   0.824   9.026   1.149
 2839W        W 6903   7.396   1.824   1.851
 2840W        W 6904   7.666   9.556   8.741
 2841W        W 6905   5.953   0.318   8.642
 2842W        W 6906   8.046   3.820  11.468
 2843W        W 6907   1.320   4.461  10.952
 2844W        W 6908   0.423   4.980   0.696
 2845W        W 6909   8.883   5.807   0.079
 2846W        W 6910   6.981   1.363   9.033
 2847W        W 6911   7.821   9.855  11.146
 2848W        W 6912   6.870   8.586   0.407
 2849W        W 6913   5.165   0.826   9.972
 2850W        W 6914   5.590   5.021  10.331
 2851W        W 6915   3.649   8.575   9.943
 2852W        W 6916   8.785  10.367   1.679
 2853W        W 6917   2.569   3.562   0.334
 2854W        W 6918   8.483   1.459   9.552
 2855W        W 6919   5.028   5.692  10.908
 2856W        W 6920   8.583   9.114   1.022
 2857W        W 6921   3.356   2.648  11.693
 2858W        W 6922   0.145   7.502   2.503
 2859W        W 6923   5.690   2.160  10.422
 2860W        W 6924   5.869   6.045   9.019
 2861W        W 6925   9.473   6.659   9.715
 2862W        W 6926   1.153   4.703   9.940
 2863W        W 6927   9.388   2.250   2.493
 2864W        W 6928   4.699   4.632   8.895
 2865W        W 6929   4.200   2.747   2.683
 2866W        W 6930   3.118   5.312   1.391
 2867W        W 6931   0.850   7.039   2.238
 2868W        W 6932   8.409   0.270   0.255
 2869W        W 6933   1.744   1.240  10.745
 2870W        W 6934  10.420   8.105   0.534
 2871W        W 6935   7.193   9.976   9.739
 2872W        W 6936   3.562   2.857  10.523
 2873W        W 6937   4.079   4.698   4.199
 2874W        W 6938   3.939  10.319  10.344
 2875W        W 6939   0.438   9.973   9.353
 2876W        W 6940   6.088  10.434   2.180
 2877W        W 6941   6.512   8.623  10.590
 2878W        W 6942   2.447   0.569   8.963
 2879W        W 6943   5.615   5.994   1.980
 2880W        W 6944   7.592   4.032   1.936
 2881W        W 6945   9.485   8.560  11.828
 2882W        W 6946   1.896   0.329   9.820
 2883W        W 6947   8.867   7.538   1.860
 2884W        W 6948   7.631   4.177   3.308
 2885W        W 6949   3.222   7.866   9.084
 2886W        W 6950   3.706   8.707   0.397
 2887W        W 6951   1.292   2.401   8.673
 2888W        W 6952   1.218   2.419   0.950
 2889W        W 6953   3.738   9.071   9.914
 2890W        W 6954   0.363   3.247   0.301
 2891W        W 6955   4.367   2.625  11.729
 2892W        W 6956   0.273   7.408   9.184
 2893W        W 6957   8.508   7.536  10.589
 2894W        W 6958   5.257   6.175   2.274
 2895W        W 6959  10.405   0.467   0.687
 2896W        W 6960   1.344   1.215   9.961
 2897W        W 6961   7.016   5.633   8.245
 2898W        W 6962   4.204   8.281  11.712
 2899W        W 6963  10.367   5.434   2.179
 2900W        W 6964   4.503   6.557   9.004
 2901W        W 6965   4.222   4.906   9.101
 2902W        W 6966   1.394   8.500   1.279
 2903W        W 6967   3.461   5.360  11.509
 2904W        W 6968   3.244   3.325  10.455
 2905W        W 6969   3.644   4.036   9.912
 2906W        W 6970   1.789   9.862   1.700
 2907W        W 6971   4.021   2.076   9.354
 2908W        W 6972   9.355   7.496  10.093
 2909W        W 6973   7.550   0.586   3.558
 2910W        W 6974   2.055   9.602   2.353
 2911W        W 6975   0.616   5.401   0.968
 2912W        W 6976   0.408   3.327   8.977
 2913W        W 6977   6.624   5.962   8.318
 2914W        W 6978   2.432   1.683  10.791
 2915W        W 6979   9.226   7.529   0.780
 2916W        W 6980   8.966   1.183  11.890
 2917W        W 6981   6.047   4.619   9.553
 2918W        W 6982   3.105   5.672   9.402
 2919W        W 6983   6.736   6.413   0.427
 2920W        W 6984   0.037   0.758   9.075
 2921W        W 6985   5.521   1.803   3.007
 2922W        W 6986   3.768   5.471   9.806
 2923W        W 6987   7.047   9.438   9.490
 2924W        W 6988   5.648   7.477   8.567
 2925W        W 6989   8.442   9.365   1.459
 2926W        W 6990   2.139   8.870  10.555
 2927W        W 6991   1.703   9.384   1.478
 2928W        W 6992   9.891   5.890   3.213
 2929W        W 6993   1.082   9.452   3.317
 2930W        W 6994   6.524   4.246   3.738
 2931W        W 6995   6.513   8.928  11.008
 2932W        W 6996   6.770   3.636   0.862
 2933W        W 6997   1.750   3.567  11.938
 2934W        W 6998   1.512   8.052   1.019
 2935W        W 6999   0.754   5.684   1.955
 2936W        W 7000   1.672   1.788   2.830
 2937W        W 7001   7.227   6.714   9.419
 2938W        W 7002   2.164   5.691  11.384
 2939W        W 7003   4.775   9.955  10.786
 2940W        W 7004   7.827   5.114  10.345
 2941W        W 7005   9.765   5.027   0.429
 2942W        W 7006   3.418   8.811   9.540
 2943W        W 7007  10.403   8.852  11.720
 2944W        W 7008   6.417   5.622   9.927
 2945W        W 7009   1.189   4.045   2.824
 2946W        W 7010   9.518   9.133   1.832
 2947W        W 7011   1.865  10.237   9.240
 2948W        W 7012   8.373   4.664  11.942
 2949W        W 7013   4.060  10.466   0.139
 2950W        W 7014   2.576   1.605   1.810
 2951W        W 7015   0.342   9.096   9.862
 2952W        W 7016   8.495   1.219   0.079
 2953W        W 7017   5.066  10.382   0.914
 2954W        W 7018   7.431   0.348   9.832
 2955W        W 7019   6.042   9.559   2.997
 2956W        W 7020   8.774   4.516  11.002
 2957W        W 7021   8.505   4.707  10.044
 2958W        W 7022   0.975   2.612   0.054
 2959W        W 7023   6.672   2.408   1.306
 2960W        W 7024   3.842   2.209   0.059
 2961W        W 7025   7.045   4.660   2.421
 2962W        W 7026   5.995   6.130  10.852
 2963W        W 7027   2.431   3.210   3.399
 2964W        W 7028   6.652   7.276   9.118
 2965W        W 7029  10.268   8.783   0.697
 2966W        W 7030   4.141   0.021  11.314
 2967W        W 7031   2.649  10.418   0.690
 2968W        W 7032   7.933   6.336   8.617
 2969W        W 7033   2.718   9.029   2.714
 2970W        W 7034   0.713   2.181   9.505
 2971W        W 7035   5.988   3.793   1.806
 2972W        W 7036   2.148   2.861  10.396
 2973W        W 7037   7.652   6.003   7.843
 2974W        W 7038  10.460   3.860   3.227
 2975W        W 7039   1.359   1.202  11.046
 2976W        W 7040   2.627   8.399  11.762
 2977W        W 7041   2.912   4.194   2.297
 2978W        W 7042   1.345   7.168   2.296
 2979W        W 7043   9.535   4.224   9.042
 2980W        W 7044   8.761   7.082   8.355
 2981W        W 7045   9.943   5.728   0.942
 2982W        W 7046   7.529   6.787   2.429
 2983W        W 7047   7.127   5.205   7.975
 2984W        W 7048   4.082   3.670   9.357
 2985W        W 7049   2.163   7.962   2.989
 2986W        W 7050   8.574   0.248   8.886
 2987W        W 7051   0.334   8.446   2.230
 2988W        W 7052   9.608   8.095  11.427
 2989W        W 7053   2.819   9.530  10.307
 2990W        W 7054   3.855   2.670  11.772
 2991W        W 7055   8.842   7.295   2.721
 2992W        W 7056   2.346   2.542   0.189
 2993W        W 7057   8.377   8.800   3.301
 2994W        W 7058   1.789   3.322  10.542
 2995W        W 7059  10.370   0.588  10.975
 2996W        W 7060   1.125   0.704   9.982
 2997W        W 7061   9.437   1.304  11.330
 2998W        W 7062   9.505   6.039   9.495
 2999W        W 7063   6.081   4.292   1.699
 3000W        W 7064   5.442   7.087   8.228
 3001W        W 7065   5.582   9.348   2.842
 3002W        W 7066   0.893   8.156   1.697
 3003W        W 7067   4.636   7.525   0.825
 3004W        W 7068   4.135   3.801  10.387
 3005W        W 7069   0.274   0.727   0.442
 3006W        W 7070   3.680   7.469   1.398
 3007W        W 7071   3.901   5.199   8.086
 3008W        W 7072   1.247   8.533   1.769
 3009W        W 7073   4.751   2.252   1.737
 3010W        W 7074   6.524   2.207  10.975
 3011W        W 7075   8.967   8.199   2.466
 3012W        W 7076   9.082   3.648   3.438
 3013W        W 7077  10.379   3.820   9.337
 3014W        W 7078   6.596   8.182   0.774
 3015W        W 7079   8.855   9.472   0.309
 3016W        W 7080   5.648   8.404   9.017
 3017W        W 7081   2.210   3.729   9.289
 3018W        W 7082   9.118   6.513  10.055
 3019W        W 7083   3.353   3.152   9.590
 3020W        W 7084   5.244   1.803   9.343
 3021W        W 7085   3.991   8.028  10.768
 3022W        W 7086   6.962   4.297  10.839
 3023W        W 7087   0.843   8.071   3.223
 3024W        W 7088   8.339   9.729  10.417
 3025W        W 7089   5.014   7.077  10.437
 3026W        W 7090   0.963   0.921   0.013
 3027W        W 7091   0.898  10.420   9.077
 3028W        W 7092   7.812   4.028   8.968
 3029W        W 7093   3.702   5.490   3.984
 3030W        W 7094   6.531   2.646  11.399
 3031W        W 7095   8.825   7.737   3.592
 3032W        W 7096   6.928   1.778   0.215
 3033W        W 7097   1.245   3.962  10.921
 3034W        W 7098   4.048   3.032   8.538
 3035W        W 7099  10.378   9.729   1.938
 3036W        W 7100   3.059   2.620   0.092
 3037W        W 7101   0.478   0.981   3.597
 3038W        W 7102   0.058   2.641   2.827
 3039W        W 7103   7.589   2.244   2.221
 3040W        W 7104   1.309   8.090   3.040
 3041W        W 7105   9.441   7.339  11.097
 3042W        W 7106   1.908   4.393   3.428
 3043W        W 7107   3.117   1.810   2.459
 3044W        W 7108   4.401   2.008  11.400
 3045W        W 7109   4.512   1.273   8.933
 3046W        W 7110   2.209   0.675   0.892
 3047W        W 7111   9.952   5.852  10.072
 3048W        W 7112   9.356   3.799   9.365
 3049W        W 7113   3.412   4.238   3.138
 3050W        W 7114   6.654   1.137   3.131
 3051W        W 7115   9.362   2.021   9.361
 3052W        W 7116   5.647   0.322   0.472
 3053W        W 7117   8.376   7.353   0.345
 3054W        W 7118   3.666   4.591   3.900
 3055W        W 7119   0.808   6.165   1.776
 3056W        W 7120   0.157   5.586   8.731
 3057W        W 7121   9.011   6.233   0.374
 3058W        W 7122   8.736   3.520  10.233
 3059W        W 7123   8.569   6.949  11.268
 3060W        W 7124   9.860   6.617  11.940
 3061W        W 7125   3.798   4.684   2.939
 3062W        W 7126   4.962   9.020   0.357
 3063W        W 7127   6.704  10.029   9.904
 3064W        W 7128   6.195   5.893   8.653
 3065W        W 7129   8.933   7.448   1.363
 3066W        W 7130   5.567   7.945   0.797
 3067W        W 7131   5.302   3.101  10.396
 3068W        W 7132   5.947   1.381   0.718
 3069W        W 7133   5.783   3.634   0.946
 3070W        W 7134   1.391   6.355   0.446
 3071W        W 7135   3.641   3.106  11.576
 3072W        W 7136   0.571   6.386   2.898
 3073W        W 7137   4.614   6.997   0.929
 3074W        W 7138   0.823   6.899  11.850
 3075W        W 7139   9.429   3.793   0.949
 3076W        W 7140   7.506   1.183   2.938
 3077W        W 7141   7.026   2.148   1.024
 3078W        W 7142   8.909   4.030  10.981
 3079W        W 7143   3.541   7.541   8.786
 3080W        W 7144   3.260   0.745   9.289
 3081W        W 7145   3.689   4.162   1.080
 3082W        W 7146  10.387   7.402   1.750
 3083W        W 7147   6.056   9.943   1.318
 3084W        W 7148  10.444  10.342   9.094
 3085W        W 7149   8.611   8.077   0.585
 3086W        W 7150   7.569   7.548   1.005
 3087W        W 7151   5.158   7.441   8.811
 3088W        W 7152   2.238   1.420   2.165
 3089W        W 7153   6.489   4.082  10.772
 3090W        W 7154   9.904   8.432  10.414
 3091W        W 7155   1.638   4.271   2.756
 3092W        W 7156   2.395   8.134   1.905
 3093W        W 7157   8.366   3.124  11.816
 3094W        W 7158   6.732  10.233  11.942
 3095W        W 7159   9.931   3.535  10.030
 3096W        W 7160   5.235   4.570   1.291
 3097W        W 7161   2.973   1.787   3.483
 3098W        W 7162   0.750   4.266   8.474
 3099W        W 7163   7.187   8.066   3.537
 3100W        W 7164   6.848   8.316   3.186
 3101W        W 7165   5.546   6.374  10.708
 3102W        W 7166   2.134   8.987   3.313
 3103W        W 7167   6.070   8.510   1.372
 3104W        W 7168   1.860   4.535  11.985
 3105W        W 7169   9.974   0.377   9.725
 3106W        W 7170   6.118   8.161   2.798
 3107W        W 7171   3.928   5.939   4.100
 3108W        W 7172   5.029   5.139   9.606
 3109W        W 7173   7.000   9.018  10.781
 3110W        W 7174   8.926   1.701  10.067
 3111W        W 7175   7.328   0.963   1.573
 3112W        W 7176   9.852   4.828   9.124
 3113W        W 7177   2.744   2.838   3.193
 3114W        W 7178   7.898   2.432  10.008
 3115W        W 7179   4.699   1.070  10.708
 3116W        W 7180   7.132   5.703  10.524
 3117W        W 7181   2.723   3.233   2.476
 3118W        W 7182   6.000   5.245   9.877
 3119W        W 7183   1.323   6.668   2.509
 3120W        W 7184   7.818   5.053   3.106
 3121W        W 7185   9.756   1.726   9.473
 3122W        W 7186   6.535   3.157  11.225
 3123W        W 7187   7.084   0.922   3.477
 3124W        W 7188   5.978   0.024   0.234
 3125W        W 7189   7.423   8.537   0.385
 3126W        W 7190   8.451   4.797   8.923
 3127W        W 7191   8.630   5.745   1.254
 3128W        W 7192   8.849   6.467   2.463
 3129W        W 7193   7.458   2.664   2.491
 3130W        W 7194   3.714   5.077  11.128
 3131W        W 7195   3.003   9.390  10.792
 3132W        W 7196   4.052   0.426   9.242
 3133W        W 7197   4.003   1.863   2.339
 3134W        W 7198   8.137   0.536   1.952
 3135W        W 7199   8.152   5.561  10.327
 3136W        W 7200   3.788  10.385   3.229
 3137W        W 7201   5.123   8.985   9.449
 3138W        W 7202   0.179   3.100  11.538
 3139W        W 7203   8.814   5.064  10.886
 3140W        W 7204   0.887   9.983   0.672
 3141W        W 7205   5.453   5.128   3.173
 3142W        W 7206   7.901   0.767   9.210
 3143W        W 7207   9.564   1.229   9.755
 3144W        W 7208   2.277   4.344   9.071
 3145W        W 7209   9.305   8.037  11.866
 3146W        W 7210   5.109   9.954   3.074
 3147W        W 7211   5.577   5.352  10.742
 3148W        W 7212   2.269   6.568   2.530
 3149W        W 7213   5.694   2.145  11.489
 3150W        W 7214   5.909   1.402   9.128
 3151W        W 7215   7.720   5.199   8.428
 3152W        W 7216   9.878   0.216   3.370
 3153W        W 7217   0.385   4.242   8.808
 3154W        W 7218  10.395   2.332  10.378
 3155W        W 7219   4.826   6.919   3.016
 3156W        W 7220   9.436   1.012  10.899
 3157W        W 7221   9.917   9.391   2.000
 3158W        W 7222   3.687   2.655   8.701
 3159W        W 7223   7.869   6.824   8.780
 3160W        W 7224   4.668   5.263  11.296
 3161W        W 7225   1.875   7.555  11.651
 3162W        W 7226   4.612   7.308   3.284
 3163W        W 7227   6.213   6.402  11.887
 3164W        W 7228   8.537   5.545   2.144
 3165W        W 7229   0.800   0.325  11.309
 3166W        W 7230   5.177   2.312  11.509
 3167W        W 7231   5.011   8.458   3.486
 3168W        W 7232   2.649   0.809   9.977
 3169W        W 7233   8.769   7.683   2.359
 3170W        W 7234   1.045   1.916   9.895
 3171W        W 7235   8.394  10.363   9.197
 3172W        W 7236   6.029   3.745   2.695
 3173W        W 7237   9.819  10.002   2.692
 3174W        W 7238   7.439   9.790   2.987
 3175W        W 7239   6.890   5.223  10.734
 3176W        W 7240   9.448   3.686   3.073
 3177W        W 7241   4.183   7.249  10.410
 3178W        W 7242   8.538   7.939  10.246
 3179W        W 7243   9.344   1.072   3.162
 3180W        W 7244   1.372   2.767   9.965
 3181W        W 7245   2.177   3.986  10.811
 3182W        W 7246   2.217   5.436   0.358
 3183W        W 7247   4.761   2.750   1.474
 3184W        W 7248   6.180   5.575   9.482
 3185W        W 7249   6.923   0.237  11.764
 3186W        W 7250   0.566   6.302   8.478
 3187W        W 7251   1.820   3.369   9.329
 3188W        W 7252   5.098   6.102   9.575
 3189W        W 7253   6.407   5.090  11.307
 3190W        W 7254   2.333   5.553  10.905
 3191W        W 7255   8.684   5.526  10.573
 3192W        W 7256   0.809   7.444  11.031
 3193W        W 7257   4.531   1.753   0.556
 3194W        W 7258   1.947   2.729   1.561
 3195W        W 7259   0.734   5.165   3.284
 3196W        W 7260   8.595   7.585  11.949
 3197W        W 7261   9.665   1.237   3.560
 3198W        W 7262   2.425   9.116   0.273
 3199W        W 7263   6.073   6.515   9.011
 3200W        W 7264   4.699   2.440  11.392
 3201W        W 7265   2.310   9.146  10.956
 3202W        W 7266   9.091   0.231  10.990
 3203W        W 7267   1.040   1.254   0.521
 3204W        W 7268   7.219   6.123   8.103
 3205W        W 7269   0.527   0.303   3.237
 3206W        W 7270   9.127   8.407   1.509
 3207W        W 7271   6.970   5.963   3.582
 3208W        W 7272   8.316   7.096  10.224
 3209W        W 7273   1.425   3.534  11.113
 3210W        W 7274   3.722   3.587  11.441
 3211W        W 7275   8.104   1.871   9.530
 3212W        W 7276   1.238   2.357   2.293
 3213W        W 7277   5.239   2.403   1.633
 3214W        W 7278   1.228   1.972   2.656
 3215W        W 7279   8.921   9.801   9.724
 3216W        W 7280   9.893  10.443   2.416
 3217W        W 7281   3.423   9.893   0.522
 3218W        W 7282   4.527   5.549  10.881
 3219W        W 7283   3.815   4.378   0.593
 3220W        W 7284   5.307   2.851   0.712
 3221W        W 7285   7.939   7.897   8.922
 3222W        W 7286   0.183   6.449   0.227
 3223W        W 7287   5.215   6.718  10.912
 3224W        W 7288   3.276   5.518   4.281
 3225W        W 7289   7.839   4.441   1.023
 3226W        W 7290   4.690   5.530   3.526
 3227W        W 7291   9.824   3.643   2.209
 3228W        W 7292   7.997   1.320  11.367
 3229W        W 7293   2.167   5.237   2.494
 3230W        W 7294   5.783   0.344   0.960
 3231W        W 7295   0.247   9.119   3.129
 3232W        W 7296   0.919   8.251   9.343
 3233W        W 7297   3.855   8.286   2.806
 3234W        W 7298   2.752  10.480   2.710
 3235W        W 7299   8.680   5.041   1.765
 3236W        W 7300   3.576   3.064   0.954
 3237W        W 7301  10.019   0.810   2.687
 3238W        W 7302   6.148   4.353  10.493
 3239W        W 7303   8.497   4.108   3.254
 3240W        W 7304   0.016  10.335   8.583
 3241W        W 7305   7.360   3.527   9.478
 3242W        W 7306   9.274   8.117   1.121
 3243W        W 7307   5.528   5.213   8.909
 3244W        W 7308   4.173   8.519  10.713
 3245W        W 7309   1.943   0.231   0.786
 3246W        W 7310   1.004   0.793   2.687
 3247W        W 7311   2.691   0.219   8.685
 3248W        W 7312   8.437   9.045   9.747
 3249W        W 7313   9.942   7.560   0.269
 3250W        W 7314  10.297   9.335  11.724
 3251W        W 7315   0.263   4.723   9.041
 3252W        W 7316   3.771   9.443   1.133
 3253W        W 7317   4.711  10.341  11.105
 3254W        W 7318   2.699   6.007   1.057
 3255W        W 7319   2.429   0.366   0.524
 3256W        W 7320   9.349   0.865  10.390
 3257W        W 7321   5.977   9.534  11.497
 3258W        W 7322   0.741   1.466  10.780
 3259W        W 7323   6.917   7.228  10.412
 3260W        W 7324   6.173   7.496   9.834
 3261W        W 7325  10.058   1.777   0.795
 3262W        W 7326   6.229   3.956   9.271
 3263W        W 7327   8.516   6.659   9.853
 3264W        W 7328   2.136   0.564   2.355
 3265W        W 7329   4.091   8.451   3.277
 3266W        W 7330   4.135   5.662   3.699
 3267W        W 7331   1.295   3.289   9.260
 3268W        W 7332   8.899   3.132   2.739
 3269W        W 7333   9.181   2.268  11.300
 3270W        W 7334   8.969   5.406   1.504
 3271W        W 7335   6.205   4.481  11.030
 3272W        W 7336   0.419   3.225  10.815
 3273W        W 7337   5.642   6.017   3.819
 3274W        W 7338   1.707   8.941   2.812
 3275W        W 7339   8.048   5.521   2.949
 3276W        W 7340   5.655   1.203  11.444
 3277W        W 7341   2.908   5.452   2.469
 3278W        W 7342   0.508  10.250   2.439
 3279W        W 7343   1.915   8.418   9.107
 3280W        W 7344   3.107   6.144  10.984
 3281W        W 7345   3.248   5.323   9.763
 3282W        W 7346   7.832   3.660   1.631
 3283W        W 7347   6.778  10.082   0.790
 3284W        W 7348   1.171   0.510  10.513
 3285W        W 7349   0.246  10.101  10.061
 3286W        W 7350   0.973  10.350   2.761
 3287W        W 7351   3.313   8.939  10.801
 3288W        W 7352   8.120   8.874   8.794
 3289W        W 7353  10.364   8.350  11.760
 3290W        W 7354   2.160   2.765  11.377
 3291W        W 7355   6.396   0.873   1.235
 3292W        W 7356   0.757   9.467   1.404
 3293W        W 7357   6.600   8.205   8.792
 3294W        W 7358   7.538   8.673   9.763
 3295W        W 7359   6.243  10.116   0.005
 3296W        W 7360   9.533   1.957   0.998
 3297W        W 7361   0.904   6.504   1.389
 3298W        W 7362  10.374   2.415  10.872
 3299W        W 7363   6.951  10.386   2.199
 3300W        W 7364   1.882   2.355   1.920
 3301W        W 7365   1.960   4.604   9.935
 3302W        W 7366   5.160   9.436   3.174
 3303W        W 7367   5.479   0.870   3.576
 3304W        W 7368   8.950   3.213   9.865
 3305W        W 7369  10.197   4.912   0.212
 3306W        W 7370   3.863   7.777   2.750
 3307W        W 7371   3.842   8.234   0.451
 3308W        W 7372   8.681   9.954   9.304
 3309W        W 7373   4.597   6.876   1.423
 3310W        W 7374   3.789   5.937  10.521
 3311W        W 7375   9.276   4.424  11.019
 3312W        W 7376   8.453   7.589   9.906
 3313W        W 7377   9.867   4.613   1.287
 3314W        W 7378   9.398   7.659   1.255
 3315W        W 7379   3.170   4.015   0.873
 3316W        W 7380   2.897   4.391   0.539
 3317W        W 7381   0.486   2.807  11.123
 3318W        W 7382   8.814   2.585  11.586
 3319W        W 7383   8.147   6.030   0.195
 3320W        W 7384   3.407   0.276  11.687
 3321W        W 7385   6.446   7.964   1.268
 3322W        W 7386   0.797   3.505   1.536
 3323W        W 7387   9.500   6.656  11.170
 3324W        W 7388   6.494   5.713   0.627
 3325W        W 7389   7.469   9.800   0.025
 3326W        W 7390   4.290   0.858   2.050
 3327W        W 7391   3.679   2.295  11.030
 3328W        W 7392   7.817   4.822   0.642
 3329W        W 7393  10.385   1.367   0.801
 3330W        W 7394   4.622   3.211   1.303
 3331W        W 7395   8.014   0.806   8.693
 3332W        W 7396   2.080   1.800   3.492
 3333W        W 7397   5.961   4.051  10.890
 3334W        W 7398   4.003   8.385   8.704
 3335W        W 7399   8.788   4.309  11.886
 3336W        W 7400   6.013   5.106   8.766
 3337W        W 7401   1.517   9.444   2.577
 3338W        W 7402   2.224   8.958   2.815
 3339W        W 7403   8.028   8.415  10.235
 3340W        W 7404   1.042   0.219   3.135
 3341W        W 7405   7.320   4.012  10.008
 3342W        W 7406   1.725   2.119   3.237
 3343W        W 7407   0.920   5.278   9.285
 3344W        W 7408   8.162   5.042   1.694
 3345W        W 7409   2.523   9.883   3.323
 3346W        W 7410   5.453   4.828  11.835
 3347W        W 7411  10.313   9.824   3.350
 3348W        W 7412  10.469   6.130   1.502
 3349W        W 7413   4.224   7.489   2.552
 3350W        W 7414   6.606   9.745   2.129
 3351W        W 7415  10.412   1.424  11.891
 3352W        W 7416   9.041   7.069   1.726
 3353W        W 7417   0.239   9.451   1.471
 3354W        W 7418   7.880   3.575   2.150
 3355W        W 7419   2.970   5.121  11.989
 3356W        W 7420   5.547   6.540   8.884
 3357W        W 7421   6.043   2.237   8.782
 3358W        W 7422   3.860   7.132   8.631
 3359W        W 7423   3.823   8.903  10.747
 3360W        W 7424   8.122   8.978   0.875
 3361W        W 7425   5.209   2.656  10.104
 3362W        W 7426   0.975   9.479  10.567
 3363W        W 7427   3.144   1.368  11.796
 3364W        W 7428   7.505   5.562   8.116
 3365W        W 7429   6.694  10.483  10.139
 3366W        W 7430   6.718   5.014   2.249
 3367W        W 7431   0.313   0.282   2.508
 3368W        W 7432   6.890   9.426  11.050
 3369W        W 7433   5.991   8.953   2.223
 3370W        W 7434  10.029   4.339   9.300
 3371W        W 7435   9.182   6.427   2.868
 3372W        W 7436   7.158   1.869  10.464
 3373W        W 7437   5.942   5.122  11.036
 3374W        W 7438   2.686   5.519   1.224
 3375W        W 7439   6.930   2.513  11.037
 3376W        W 7440   9.517   1.139   1.731
 3377W        W 7441   1.767   0.344  10.880
 3378W        W 7442   4.961  10.069  11.597
 3379W        W 7443   6.476   3.100   9.825
 3380W        W 7444   1.192   3.956   0.576
 3381W        W 7445   0.463   6.266   1.174
 3382W        W 7446   5.155   5.731   0.741
 3383W        W 7447   2.595   8.646  10.503
 3384W        W 7448   9.524   9.572   2.930
 3385W        W 7449   1.322   7.039  11.948
 3386W        W 7450   2.286   8.135   8.744
 3387W        W 7451   6.442   8.844   1.971
 3388W        W 7452   9.351   8.659   0.560
 3389W        W 7453  10.341   5.063   2.870
 3390W        W 7454   4.619   7.803   3.218
 3391W        W 7455   7.574   8.078  11.436
 3392W        W 7456   4.710   7.062  11.958
 3393W        W 7457   3.352   2.167   0.131
 3394W        W 7458   4.656   9.402   2.450
 3395W        W 7459   4.978   9.057   0.898
 3396W        W 7460   1.116  10.469   1.833
 3397W        W 7461   6.321   9.301  11.801
 3398W        W 7462   4.521   0.848   8.144
 3399W        W 7463   8.103   6.722  11.043
 3400W        W 7464  10.382   2.326   3.498
 3401W        W 7465   8.791   8.032   8.806
 3402W        W 7466   4.668   3.634  10.624
 3403W        W 7467   7.221   4.726   9.004
 3404W        W 7468   4.142   8.151   1.151
 3405W        W 7469   3.528   5.595   1.467
 3406W        W 7470   8.488   2.180   2.780
 3407W        W 7471  10.413   1.817   3.370
 3408W        W 7472   6.522   6.099  10.414
 3409W        W 7473   8.981   2.305   3.329
 3410W        W 7474   4.252   4.915   0.477
 3411W        W 7475   5.068   7.577  11.536
 3412W        W 7476   8.877   0.628  11.243
 3413W        W 7477   5.132   0.473   3.551
 3414W        W 7478   2.043   8.888   9.312
 3415W        W 7479   5.575   1.415   2.543
 3416W        W 7480   5.052   4.314   1.687
 3417W        W 7481   7.115  10.459   3.632
 3418W        W 7482   9.390   4.538  11.641
 3419W        W 7483   4.600   1.508   1.017
 3420W        W 7484   6.591  10.369  10.610
 3421W        W 7485   6.484   3.531   9.495
 3422W        W 7486   6.097   5.113   0.427
 3423W        W 7487   2.886   1.275   3.470
 3424W        W 7488   4.464   8.586  10.301
 3425W        W 7489   3.462   1.898   3.367
 3426W        W 7490   5.735   5.573   3.198
 3427W        W 7491   7.048   7.410  11.145
 3428W        W 7492   7.399   3.389   0.281
 3429W        W 7493   3.668   5.970   1.130
 3430W        W 7494   6.296   6.403   8.558
 3431W        W 7495   5.380   1.727   2.157
 3432W        W 7496   4.747   2.168   2.263
 3433W        W 7497   1.064   7.873   0.772
 3434W        W 7498   7.211   8.372   2.242
 3435W        W 7499   5.905   5.629   1.727
 3436W        W 7500   7.980   0.898   3.364
 3437W        W 7501   5.431   4.316   8.952
 3438W        W 7502   7.740   6.497   1.412
 3439W        W 7503   6.063   6.004   3.288
 3440W        W 7504  10.181   3.178  11.453
 3441W        W 7505   9.889   7.030   1.335
 3442W        W 7506   8.021   6.686  10.036
 3443W        W 7507   9.833   1.870  11.422
 3444W        W 7508   6.416   5.148   0.024
 3445W        W 7509   9.424   5.428  11.768
 3446W        W 7510   4.052   0.431   2.787
 3447W        W 7511  10.304   4.427   0.189
 3448W        W 7512   1.822   2.119   9.287
 3449W        W 7513   0.258   0.413  11.708
 3450W        W 7514   1.305   1.384   1.012
 3451W        W 7515  10.345   5.206  10.920
 3452W        W 7516   4.374   2.583   1.143
 3453W        W 7517   1.753   8.431  10.007
 3454W        W 7518   4.792   4.519   1.006
 3455W        W 7519   1.258   6.761  11.536
 3456W        W 7520   3.318   7.389   3.168
 3457W        W 7521   1.254   1.401  10.547
 3458W        W 7522   1.405  10.380  10.814
 3459W        W 7523   0.426   3.768   0.398
 3460W        W 7524   3.785   7.924   8.545
 3461W        W 7525   2.519   1.227  11.394
 3462W        W 7526   5.115   4.612   2.104
 3463W        W 7527   2.873   9.346   0.294
 3464W        W 7528   3.919   1.870  11.234
 3465W        W 7529   9.338   4.671   8.776
 3466W        W 7530   2.876   8.447   9.368
 3467W        W 7531  10.280   5.187   1.235
 3468W        W 7532   6.076   0.935  11.453
 3469W        W 7533  10.373   7.734  10.867
 3470W        W 7534   3.217   0.349  10.276
 3471W        W 7535   4.726   0.461   0.508
 3472W        W 7536   6.912   5.666  10.072
 3473W        W 7537   7.206   9.032  11.699
 3474W        W 7538   6.510   7.781   1.750
 3475W        W 7539   1.606   9.419   9.640
 3476W        W 7540   4.297   6.102   2.451
 3477W        W 7541   8.506   6.862   2.530
 3478W        W 7542   5.191   0.344   0.716
 3479W        W 7543   8.511   0.415   9.941
 3480W        W 7544   1.421   7.243  11.441
 3481W        W 7545   9.982   6.998   9.055
 3482W        W 7546   7.100   7.385   8.659
 3483W        W 7547   4.173   9.338   8.797
 3484W        W 7548   2.609   6.651   1.820
 3485W        W 7549   6.195   2.316  11.780
 3486W        W 7550   5.012   3.337   1.794
 3487W        W 7551   9.322   6.634   0.482
 3488W        W 7552   8.865   2.836   1.907
 3489W        W 7553  10.275   7.439   9.006
 3490W        W 7554   4.900   6.340   8.209
 3491W        W 7555   9.747   5.714   2.755
 3492W        W 7556   7.934   1.412   3.128
 3493W        W 7557   5.528   6.086   8.636
 3494W        W 7558   0.283   8.122   9.808
 3495W        W 7559   1.017   2.709   1.924
 3496W        W 7560   8.426   8.564   1.817
 3497W        W 7561   6.830   6.428   8.454
 3498W        W 7562   1.062   2.608   1.414
 3499W        W 7563   7.430   0.011  11.390
 3500W        W 7564   9.548   2.026  10.813
 3501W        W 7565   8.337   5.203  10.008
 3502W        W 7566   2.072   7.375  10.561
 3503W        W 7567   0.263   2.727  10.661
 3504W        W 7568   5.740   3.876   0.090
 3505W        W 7569   2.828   7.864   0.444
 3506W        W 7570   7.474   0.498   8.973
 3507W        W 7571   3.272   1.493   3.136
 3508W        W 7572   2.397   0.628  11.834
 3509W        W 7573   4.659   6.354  10.290
 3510W        W 7574   2.138  10.377   1.859
 3511W        W 7575   3.326   5.045   8.771
 3512W        W 7576   9.144   8.669   2.823
 3513W        W 7577   8.445   7.411   9.419
 3514W        W 7578   4.262   0.781   8.934
 3515W        W 7579  10.462   9.785   9.323
 3516W        W 7580   1.384   8.912   9.937
 3517W        W 7581   7.410   3.553   1.933
 3518W        W 7582   1.652   5.718   9.219
 3519W        W 7583   5.642   2.196   0.928
 3520W        W 7584   6.829   9.116   0.606
 3521W        W 7585   6.064   7.485   0.792
 3522W        W 7586   4.193   2.225   0.452
 3523W        W 7587   5.149   5.154  10.563
 3524W        W 7588   9.653  10.400   1.427
 3525W        W 7589   4.050   1.202   9.123
 3526W        W 7590   0.496   1.813   9.159
 3527W        W 7591   3.016   7.390   8.882
 3528W        W 7592   1.451   7.602   1.856
 3529W        W 7593   6.525   4.104   8.004
 3530W        W 7594   7.649   5.991   1.376
 3531W        W 7595   6.897   2.188   0.523
 3532W        W 7596   8.431   4.639   1.490
 3533W        W 7597   9.005   3.641   0.675
 3534W        W 7598   3.292   6.976  11.295
 3535W        W 7599   7.386   7.053  11.305
 3536W        W 7600   5.536   1.249   2.042
 3537W        W 7601  10.422   8.729   2.223
 3538W        W 7602  10.253   1.518  10.698
 3539W        W 7603   0.345   8.849   1.197
 3540W        W 7604   2.898   1.146   1.969
 3541W        W 7605   2.658   3.598   1.625
 3542W        W 7606   3.152   5.771   1.139
 3543W        W 7607   8.434   8.407   0.241
 3544W        W 7608   0.343   0.523  11.179
 3545W        W 7609   9.840   3.731   2.722
 3546W        W 7610   2.359   8.634  10.972
 3547W        W 7611   0.332   6.760  11.728
 3548W        W 7612  10.389   7.040   1.394
 3549W        W 7613   4.125   6.184   3.684
 3550W        W 7614   3.880  10.430   2.704
 3551W        W 7615  10.034  10.472  11.518
 3552W        W 7616   6.036   9.117   2.700
 3553W        W 7617   0.019   9.910   0.395
 3554W        W 7618   8.577   1.892  11.199
 3555W        W 7619   9.092   6.512   0.962
 3556W        W 7620  10.445   5.665  10.109
 3557W        W 7621   4.533   6.432   0.699
 3558W        W 7622   8.124   4.884  11.467
 3559W        W 7623   9.545   5.024  11.471
 3560W        W 7624   9.463   3.572   0.458
 3561W        W 7625   7.638   6.010   3.299
 3562W        W 7626  10.380   1.172   9.347
 3563W        W 7627  10.479   4.782  11.788
 3564W        W 7628   5.293   9.495   3.670
 3565W        W 7629   8.361   9.864   3.158
 3566W        W 7630   5.063   9.522   9.754
 3567W        W 7631   4.680   8.412   2.511
 3568W        W 7632   5.839   4.031   9.615
 3569W        W 7633   6.528   6.224   3.511
 3570W        W 7634   8.669   8.571   2.705
 3571W        W 7635   1.695   6.530  11.551
 3572W        W 7636   5.467   7.841   1.323
 3573W        W 7637   8.894  10.323   3.456
 3574W        W 7638   0.863   3.192   1.945
 3575W        W 7639   2.839  10.284   3.178
 3576W        W 7640  10.319   9.131   2.839
 3577W        W 7641   4.242   3.176   0.371
 3578W        W 7642   5.447   9.891  11.531
 3579W        W 7643   9.828   0.474   8.689
 3580W        W 7644   6.887   0.091   0.260
 3581W        W 7645   3.766   4.511   3.403
 3582W        W 7646   8.551   6.878   9.382
 3583W        W 7647   7.526   6.107   8.856
 3584W        W 7648   8.831   0.069   0.409
 3585W        W 7649   4.450   5.943   3.336
 3586W        W 7650   2.067   5.214  11.200
 3587W        W 7651   7.678   4.117   1.430
 3588W        W 7652   1.598   1.300   1.453
 3589W        W 7653   7.681   8.526   2.338
 3590W        W 7654   6.882   5.104   8.860
 3591W        W 7655   1.796   6.036   1.265
 3592W        W 7656   0.977   2.829  11.112
 3593W        W 7657   5.909   5.140   2.921
 3594W        W 7658   5.514  10.342   8.883
 3595W        W 7659   2.183   3.349  10.215
 3596W        W 7660   9.753   0.374   2.900
 3597W        W 7661   6.163   8.480   2.386
 3598W        W 7662   2.148   1.862   2.995
 3599W        W 7663   6.045   7.940   9.574
 3600W        W 7664   7.634   3.116   2.262
 3601W        W 7665   7.421  10.099   3.427
 3602W        W 7666   4.492   3.612   0.529
 3603W        W 7667   3.848   6.685  10.934
 3604W        W 7668   6.986   1.279   2.713
 3605W        W 7669   1.464   8.317  10.814
 3606W        W 7670   8.275   9.922  11.404
 3607W        W 7671  10.411   0.272  11.368
 3608W        W 7672   9.347   9.145   9.087
 3609W        W 7673   6.453   2.608   9.556
 3610W        W 7674   3.574   1.282   8.938
 3611W        W 7675   5.961   9.030   0.673
 3612W        W 7676   9.312   9.873  11.307
 3613W        W 7677   4.168   6.707   3.766
 3614W        W 7678   4.663   9.173   8.714
 3615W        W 7679   0.199   1.850   2.633
 3616W        W 7680   7.173   9.659   8.726
 3617W        W 7681   6.679   4.458  11.250
 3618W        W 7682   0.933   6.569  10.551
 3619W        W 7683   8.996   4.269  11.421
 3620W        W 7684   6.541   7.683   0.856
 3621W        W 7685   9.757   2.667   2.511
 3622W        W 7686   8.086  10.418   2.774
 3623W        W 7687  10.022  10.492   8.419
 3624W        W 7688   6.398   9.275   2.304
 3625W        W 7689   4.059   4.271   8.550
 3626W        W 7690   1.138   6.432   2.063
 3627W        W 7691   1.990   8.949   1.377
 3628W        W 7692   4.244   7.017   8.941
 3629W        W 7693   2.118   0.780   1.875
 3630W        W 7694  10.031   0.802   9.084
 3631W        W 7695   7.002   5.048   3.562
 3632W        W 7696   5.258   5.293   0.968
 3633W        W 7697   8.786   9.954  11.271
 3634W        W 7698   8.616   5.661  10.036
 3635W        W 7699   4.719   0.822   9.170
 3636W        W 7700   4.280   9.490   0.373
 3637W        W 7701   0.352   9.452   9.110
 3638W        W 7702   5.661   8.281   1.686
 3639W        W 7703   7.044   4.489   2.891
 3640W        W 7704   4.699   8.142   8.991
 3641W        W 7705   2.125   5.566   1.811
 3642W        W 7706  10.278   3.578   2.460
 3643W        W 7707   5.561   2.257  10.982
 3644W        W 7708   7.427   5.621   8.643
 3645W        W 7709   5.138   3.528   2.276
 3646W        W 7710   0.690   9.434  11.984
 3647W        W 7711   0.892   5.999   8.745
 3648W        W 7712   7.338   8.914   2.398
 3649W        W 7713   3.739   7.963   0.896
 3650W        W 7714   1.775   3.382   2.154
 3651W        W 7715   0.816   0.751   0.502
 3652W        W 7716   6.936   3.475   1.296
 3653W        W 7717   3.845   3.205   0.024
 3654W        W 7718   8.022   7.948   9.436
 3655W        W 7719   4.319   0.149  10.444
 3656W        W 7720   0.961   4.689  11.231
 3657W        W 7721   5.323   6.618   8.012
 3658W        W 7722   3.724   4.839   0.412
 3659W        W 7723   2.866   5.953   1.550
 3660W        W 7724   7.191   8.102   0.297
 3661W        W 7725   3.167   1.377   0.687
 3662W        W 7726   5.018   6.675  11.822
 3663W        W 7727   8.035   1.243   1.405
 3664W        W 7728   7.090   3.591   2.812
 3665W        W 7729   1.180   9.840  10.246
 3666W        W 7730   5.085   0.874   0.466
 3667W        W 7731  10.464   6.650  10.061
 3668W        W 7732   6.075   6.000   0.836
 3669W        W 7733   7.124   0.483   1.534
 3670W        W 7734   4.292  10.445   3.139
 3671W        W 7735   4.030   1.773   0.707
 3672W        W 7736   0.467   9.519  11.502
 3673W        W 7737   6.055   3.640   8.915
 3674W        W 7738   0.516   2.801   1.952
 3675W        W 7739   8.879   7.141  10.701
 3676W        W 7740   9.076   2.162   1.103
 3677W        W 7741   6.848   8.035   2.036
 3678W        W 7742   5.716   7.552  10.930
 3679W        W 7743   0.763   0.533  10.845
 3680W        W 7744   5.602   6.907  11.516
 3681W        W 7745   1.971   9.492   3.288
 3682W        W 7746   5.051   8.788   1.884
 3683W        W 7747   2.271   3.316   1.342
 3684W        W 7748   0.729   0.361   2.768
 3685W        W 7749   1.212   6.925   3.506
 3686W        W 7750   5.111   4.138   3.741
 3687W        W 7751   6.277   3.306   1.793
 3688W        W 7752   8.825   7.610   0.461
 3689W        W 7753   5.868   3.050   3.198
 3690W        W 7754   3.087   9.908   1.399
 3691W        W 7755  10.461   8.402   9.512
 3692W        W 7756   7.471   8.152   8.923
 3693W        W 7757   5.945   4.927  11.929
 3694W        W 7758   1.927   3.418   2.816
 3695W        W 7759   0.838   8.569   3.004
 3696W        W 7760   0.074   7.674  11.695
 3697W        W 7761   4.085   3.382   8.929
 3698W        W 7762   8.385   4.569   9.410
 3699W        W 7763   4.539   2.123   9.358
 3700W        W 7764   2.613   4.289  11.017
 3701W        W 7765   2.857   6.666  10.011
 3702W        W 7766   4.984   2.821   9.111
 3703W        W 7767   9.124   4.689   3.509
 3704W        W 7768   3.271  10.160   0.968
 3705W        W 7769   1.875   2.839   0.367
 3706W        W 7770   7.411  10.158  10.995
 3707W        W 7771  10.114   7.835   0.891
 3708W        W 7772   1.481   4.133  11.366
 3709W        W 7773   6.813   5.516   2.414
 3710W        W 7774   9.469   6.325   0.116
 3711W        W 7775   2.379   1.331   3.519
 3712W        W 7776   2.253   2.218  10.022
 3713W        W 7777   8.555   4.558  11.468
 3714W        W 7778   8.500   8.063   9.232
 3715W        W 7779   5.012   6.187   8.694
 3716W        W 7780   5.172  10.042   2.477
 3717W        W 7781   1.105   4.134   3.628
 3718W        W 7782   7.495   1.674   2.795
 3719W        W 7783   7.436   4.769   2.709
 3720W        W 7784   0.660   0.867   9.861
 3721W        W 7785   5.066   2.446  11.027
 3722W        W 7786   7.579   2.191   0.233
 3723W        W 7787   1.391   2.422   0.432
 3724W        W 7788   1.234   8.470   9.773
 3725W        W 7789   8.174   0.969  10.038
 3726W        W 7790   5.969   8.656  10.467
 3727W        W 7791   8.894   8.483   0.443
 3728W        W 7792   3.176   2.241   3.608
 3729W        W 7793   0.945   6.048  11.881
 3730W        W 7794  10.142   7.933  11.560
 3731W        W 7795   5.621   3.879   8.664
 3732W        W 7796   6.962   7.557   2.671
 3733W        W 7797   6.830   5.134  11.744
 3734W        W 7798   9.821   6.471   0.448
 3735W        W 7799   0.992   2.595  10.242
 3736W        W 7800   3.599   0.298   2.974
 3737W        W 7801   8.627   9.719   1.139
 3738W        W 7802   6.158   6.043   3.808
 3739W        W 7803   6.690   7.567   2.210
 3740W        W 7804   5.297   4.077   9.449
 3741W        W 7805   9.487   2.268   0.286
 3742W        W 7806   0.511   7.675   0.964
 3743W        W 7807   6.994   1.787   2.813
 3744W        W 7808   8.215   0.124  10.676
 3745W        W 7809   3.749   1.380  10.932
 3746W        W 7810   7.816   3.592   0.037
 3747W        W 7811   4.136   0.853   3.077
 3748W        W 7812   3.599   5.537   9.331
 3749W        W 7813   2.700   6.611   9.017
 3750W        W 7814   8.914   2.999   1.411
 3751W        W 7815   5.502   2.638  10.536
 3752W        W 7816   5.189   3.061   0.223
 3753W        W 7817   4.274   1.629   9.330
 3754W        W 7818   4.292   5.152  10.527
 3755W        W 7819   1.318   7.642   3.317
 3756W        W 7820  10.202   2.986   3.090
 3757W        W 7821   5.729   7.371   9.071
 3758W        W 7822   4.810   8.013   2.807
 3759W        W 7823   3.751   4.192   9.063
 3760W        W 7824   4.791   2.869  11.910
 3761W        W 7825   4.669   5.097   2.039
 3762W        W 7826   1.403   5.298   8.661
 3763W        W 7827   3.826   3.231  11.079
 3764W        W 7828   5.637   4.202   7.934
 3765W        W 7829   1.472   3.096  10.870
 3766W        W 7830  10.477   4.263   9.082
 3767W        W 7831   2.409   8.878   9.683
 3768W        W 7832   9.922   1.350   1.012
 3769W        W 7833   3.147   1.164  10.596
 3770W        W 7834   6.777   0.440   1.153
 3771W        W 7835   7.874   7.439   0.310
 3772W        W 7836   7.929   1.861  10.563
 3773W        W 7837   1.504   7.731  11.361
 3774W        W 7838  10.486  10.268   3.129
 3775W        W 7839   4.168   1.352   2.760
 3776W        W 7840   0.959   4.960   1.701
 3777W        W 7841   5.559   5.676   0.168
 3778W        W 7842   2.771   7.451   1.274
 3779W        W 7843  10.278   1.831  10.296
 3780W        W 7844   1.527   4.473   9.687
 3781W        W 7845   8.626   8.322   1.417
 3782W        W 7846   7.820   0.455  10.571
 3783W        W 7847   5.158   3.619  10.357
 3784W        W 7848   4.972   5.487   9.962
 3785W        W 7849   1.596   5.647   0.964
 3786W        W 7850   1.957   2.886   2.058
 3787W        W 7851  10.221  10.075   2.284
 3788W        W 7852   1.813   4.098   9.910
 3789W        W 7853   6.120   5.569   3.565
 3790W        W 7854   5.554   6.971   1.442
 3791W        W 7855   7.619   5.063   1.669
 3792W        W 7856   5.670   5.573  10.289
 3793W        W 7857   1.909   4.304   2.314
 3794W        W 7858   7.678   3.768   0.511
 3795W        W 7859   3.010   9.035  10.414
 3796W        W 7860   0.045   4.629  10.818
 3797W        W 7861   3.522   9.975   2.290
 3798W        W 7862   3.280   0.443   1.659
 3799W        W 7863   9.789   7.412   8.812
 3800W        W 7864   2.476   4.771   8.838
 3801W        W 7865   0.217   1.362  10.880
 3802W        W 7866   6.942   5.425   0.545
 3803W        W 7867   0.864   9.929   1.180
 3804W        W 7868   6.404   8.855   0.443
 3805W        W 7869   7.112   7.599   9.684
 3806W        W 7870   7.455   3.197  11.286
 3807W        W 7871   9.854   1.834   1.850
 3808W        W 7872   3.083   7.953  11.096
 3809W        W 7873   0.431   7.312   2.896
 3810W        W 7874   4.497   6.420   1.212
 3811W        W 7875   4.998   3.024   9.830
 3812W        W 7876   0.901   3.937   1.255
 3813W        W 7877   1.999   9.553  10.983
 3814W        W 7878   1.162   2.234   1.802
 3815W        W 7879   7.935   2.381  10.524
 3816W        W 7880   5.713   1.604  11.757
 3817W        W 7881   5.575   1.259   3.051
 3818W        W 7882  10.247   7.661   2.183
 3819W        W 7883   9.496   5.499   2.245
 3820W        W 7884   0.882   4.136   0.198
 3821W        W 7885   0.358   7.229  10.138
 3822W        W 7886   4.712   5.049  10.819
 3823W        W 7887  10.362   3.473   9.724
 3824W        W 7888   9.379   2.644   2.175
 3825W        W 7889   4.969   6.453   2.863
 3826W        W 7890   7.439   6.617   8.966
 3827W        W 7891   8.960   5.599   9.639
 3828W        W 7892   7.349   5.204  10.500
 3829W        W 7893   8.358   4.230  10.846
 3830W        W 7894   8.195   1.812  11.570
 3831W        W 7895  10.459   7.089  11.946
 3832W        W 7896   3.265   7.211   2.309
 3833W        W 7897   6.012   0.377   3.299
 3834W        W 7898   9.396   3.380  10.517
 3835W        W 7899   0.825   0.258   9.463
 3836W        W 7900   8.315   9.877   8.950
 3837W        W 7901   5.910   0.415   2.797
 3838W        W 7902   0.376   0.204  10.775
 3839W        W 7903   9.367   9.172  11.208
 3840W        W 7904   2.027   9.380   1.904
 3841W        W 7905   0.868   6.516  10.043
 3842W        W 7906   7.017   5.627  11.035
 3843W        W 7907   2.107   5.200   3.003
 3844W        W 7908   8.681   7.181   8.990
 3845W        W 7909   4.740  10.297   2.427
 3846W        W 7910   7.587   9.968  10.102
 3847W        W 7911   2.354   8.473   3.001
 3848W        W 7912   8.742   2.002   0.354
 3849W        W 7913   0.173   5.618   0.026
 3850W        W 7914   6.418   8.934   1.422
 3851W        W 7915   9.154   5.761  10.494
 3852W        W 7916   7.821   4.107  11.982
 3853W        W 7917   2.390   6.021   1.786
 3854W        W 7918   4.198   1.860   2.823
 3855W        W 7919   5.907   6.878   3.862
 3856W        W 7920   2.112   7.135   9.870
 3857W        W 7921   4.008   7.908   2.274
 3858W        W 7922   4.673   0.895   8.638
 3859W        W 7923   7.307   9.981   1.634
 3860W        W 7924   7.060   2.250   3.049
 3861W        W 7925   1.931   3.338  11.028
 3862W        W 7926   1.197   9.724   8.825
 3863W        W 7927   7.453   3.691  11.113
 3864W        W 7928   5.956   3.487   1.409
 3865W        W 7929   2.386   3.179   2.879
 3866W        W 7930   7.384  10.491   0.310
 3867W        W 7931   7.834   6.550   2.776
 3868W        W 7932   2.880   6.950  11.849
 3869W        W 7933   4.973   4.686   0.423
 3870W        W 7934   2.380   4.825   2.729
 3871W        W 7935   0.650   0.624   2.299
 3872W        W 7936   9.964   4.529  10.485
 3873W        W 7937   7.151   0.423   3.302
 3874W        W 7938   1.660   1.628  11.798
 3875W        W 7939  10.214   0.629   1.406
 3876W        W 7940   9.371   4.660   9.797
 3877W        W 7941   2.825   7.033   0.421
 3878W        W 7942   8.420   6.485   0.807
 3879W        W 7943   1.452   4.179   3.243
 3880W        W 7944   3.609   6.479   1.703
 3881W        W 7945   1.305   0.233   9.023
 3882W        W 7946  10.247   6.722   0.302
 3883W        W 7947   6.944   3.674   0.355
 3884W        W 7948   4.406   0.101   2.655
 3885W        W 7949   7.477   8.797  10.762
 3886W        W 7950   3.395   1.030  11.027
 3887W        W 7951   4.649   2.348  10.720
 3888W        W 7952   4.941   8.465  10.440
 3889W        W 7953   9.431   8.380   3.296
 3890W        W 7954   4.699   9.407   2.938
 3891W        W 7955   6.135   4.039   8.611
 3892W        W 7956   9.260   7.938   8.956
 3893W        W 7957   8.097   8.354   9.083
 3894W        W 7958   7.133   2.271   1.503
 3895W        W 7959   3.373   0.585   9.790
 3896W        W 7960   2.311   7.805  11.569
 3897W        W 7961   0.441   5.209   0.193
 3898W        W 7962   1.961   4.568   0.886
 3899W        W 7963   2.815   5.961   0.056
 3900W        W 7964   6.205   1.899   3.455
 3901W        W 7965   2.600   2.537  10.274
 3902W        W 7966   6.665   0.292   9.338
 3903W        W 7967   2.906  10.349  10.660
 3904W        W 7968   8.645   4.237   1.228
 3905W        W 7969  10.357   4.637   8.735
 3906W        W 7970   6.745   1.240  10.530
 3907W        W 7971   7.574   5.501   3.165
 3908W        W 7972   5.290   6.161   9.114
 3909W        W 7973   2.366   6.762   1.159
 3910W        W 7974   4.729   3.289   0.210
 3911W        W 7975   6.040   7.531   1.691
 3912W        W 7976   7.004   6.465   1.777
 3913W        W 7977   9.774   3.343   8.585
 3914W        W 7978   4.157   1.252  11.831
 3915W        W 7979   7.933   7.516   2.728
 3916W        W 7980   7.818   9.938   9.079
 3917W        W 7981  10.218   3.662  11.319
 3918W        W 7982   2.620   5.069   2.317
 3919W        W 7983   1.287   1.881   9.011
 3920W        W 7984   5.081   4.632  11.037
 3921W        W 7985   9.342   6.511   1.848
 3922W        W 7986   5.156   8.552  11.094
 3923W        W 7987   3.705  10.440   2.211
 3924W        W 7988   9.441   7.215   1.472
 3925W        W 7989   7.425   2.081   0.699
 3926W        W 7990   5.182   7.681  11.061
 3927W        W 7991  10.342   0.702   9.546
 3928W        W 7992   4.059  10.388   0.885
 3929W        W 7993   7.549   3.572   9.943
 3930W        W 7994   4.718   1.723   9.066
 3931W        W 7995   0.225   8.643  11.397
 3932W        W 7996   0.894   5.696   0.287
 3933W        W 7997   7.074   6.680   2.237
 3934W        W 7998  10.082   3.730  11.808
 3935W        W 7999   5.672   0.775   2.188
 3936W        W 8000   4.273   9.090  10.534
 3937W        W 8001   1.273  10.439   9.444
 3938W        W 8002   6.981   9.949  10.768
 3939W        W 8003   7.930   4.114   2.367
 3940W        W 8004   2.668   0.693   3.395
 3941W        W 8005   1.714   8.327   1.791
 3942W        W 8006   9.001   0.874   2.844
 3943W        W 8007   6.951   9.025   2.736
 3944W        W 8008   2.632   2.782   2.700
 3945W        W 8009   4.616   3.659   1.564
 3946W        W 8010   0.472   0.774  11.983
 3947W        W 8011   0.352   5.354   9.878
 3948W        W 8012   2.304   8.988   1.775
 3949W        W 8013   3.718   8.968   1.336
 3950W        W 8014   8.481   0.332   9.400
 3951W        W 8015   7.021   0.310  11.248
 3952W        W 8016  10.368   4.946   2.385
 3953W        W 8017   4.591   6.876  10.276
 3954W        W 8018   7.211   9.003   0.276
 3955W        W 8019   6.201   4.329  11.757
 3956W        W 8020   4.152   0.975   8.482
 3957W        W 8021   1.920  10.423  10.653
 3958W        W 8022   7.960   0.002   0.375
 3959W        W 8023   4.368   5.761   8.290
 3960W        W 8024   9.892  10.325  11.983
 3961W        W 8025   6.116   2.332  11.270
 3962W        W 8026   8.939   4.783   2.186
 3963W        W 8027   5.213   6.645   8.505
 3964W        W 8028   6.955   2.351  10.548
 3965W        W 8029   1.069   9.106   0.239
 3966W        W 8030   5.476   4.686   0.350
 3967W        W 8031   6.956   7.768   0.579
 3968W        W 8032   9.986   3.177   2.642
 3969W        W 8033   2.403   2.930  11.831
 3970W        W 8034   2.649   6.124   3.508
 3971W        W 8035   9.422   9.022   2.545
 3972W        W 8036   6.852   9.047   1.153
 3973W        W 8037   2.353   7.658   1.727
 3974W        W 8038   9.515   8.302   9.245
 3975W        W 8039   3.689  10.332  10.809
 3976W        W 8040   9.766   4.283  10.914
 3977W        W 8041   6.507   1.450   2.749
 3978W        W 8042   5.671   2.374   2.341
 3979W        W 8043   1.202   9.561  11.981
 3980W        W 8044   6.269   7.466   1.249
 3981W        W 8045   5.574   7.375   2.759
 3982W        W 8046   8.200   0.202   8.520
 3983W        W 8047   1.676   0.458   2.543
 3984W        W 8048   7.390   5.206   8.971
 3985W        W 8049   2.718   3.589   9.273
 3986W        W 8050   2.719   0.289  10.894
 3987W        W 8051   5.048   2.261   9.182
 3988W        W 8052   2.345  10.303   2.974
 3989W        W 8053   4.289   1.691   1.925
 3990W        W 8054   4.348   6.617   9.691
 3991W        W 8055   0.784   8.844   9.854
 3992W        W 8056   6.925   9.875  11.272
 3993W        W 8057   7.233   1.724  11.321
 3994W        W 8058   9.332   5.583   9.284
 3995W        W 8059   6.200   3.122   3.579
 3996W        W 8060   0.771   8.559   1.971
 3997W        W 8061   9.306   1.935   8.620
 3998W        W 8062   4.759   8.869  11.273
 3999W        W 8063   5.266   9.870  10.093
 4000W        W 8064   1.359   8.024   1.513
 4001W        W 8065   1.242   2.930   0.391
 4002W        W 8066   1.752   5.965  10.210
 4003W        W 8067   9.363   0.706   1.946
 4004W        W 8068   2.259   2.243  11.520
 4005W        W 8069   4.544   3.908  11.022
 4006W        W 8070   0.895   7.027  10.781
 4007W        W 8071   1.513   0.225   3.390
 4008W        W 8072   0.553   1.793   9.825
 4009W        W 8073   9.527   7.129   0.983
 4010W        W 8074   0.325   7.316   1.422
 4011W        W 8075   3.213   4.816   1.267
 4012W        W 8076   2.816   5.914   2.083
 4013W        W 8077   4.242   7.944   8.823
 4014W        W 8078   6.064   4.326   8.179
 4015W        W 8079   6.492   3.341   0.571
 4016W        W 8080   3.040   7.834   8.606
 4017W        W 8081   7.109   0.931  11.873
 4018W        W 8082   3.177   0.251   9.421
 4019W        W 8083   2.679   9.937   2.810
 4020W        W 8084   8.604   7.929   3.190
 4021W        W 8085   6.978   9.500   2.962
 4022W        W 8086   6.075   7.106   2.006
 4023W        W 8087   6.491   7.406   3.144
 4024W        W 8088   1.161   0.711   2.206
 4025W        W 8089   4.551   9.774  11.783
 4026W        W 8090   0.026   4.636  10.293
 4027W        W 8091  10.433   7.587   1.255
 4028W        W 8092   2.646   4.333  11.535
 4029W        W 8093   5.227   1.712   9.844
 4030W        W 8094   4.552   0.390   9.459
 4031W        W 8095   5.120   1.180   2.333
 4032W        W 8096   6.139   7.265  10.803
 4033W        W 8097   0.408   0.669   1.847
 4034W        W 8098   5.758   5.166   1.639
 4035W        W 8099   4.937   0.471   8.658
 4036W        W 8100   7.982   9.386   0.579
 4037W        W 8101   4.222   5.657  10.481
 4038W        W 8102   9.716   8.935  10.467
 4039W        W 8103   4.247   6.194  10.530
 4040W        W 8104   8.617   9.100   3.641
 4041W        W 8105   0.747   3.591  10.286
 4042W        W 8106   2.303   7.688   1.220
 4043W        W 8107   1.016   8.750   9.406
 4044W        W 8108   4.632   4.012   8.787
 4045W        W 8109   3.354   3.819   1.339
 4046W        W 8110   7.535   2.770   1.468
 4047W        W 8111   9.578   5.565  10.272
 4048W        W 8112   3.172   6.504   2.935
 4049W        W 8113   9.521   9.362  10.072
 4050W        W 8114   2.558   7.641   8.970
 4051W        W 8115   7.505   3.638  11.620
 4052W        W 8116  10.372   5.704   1.220
 4053W        W 8117   4.675   4.679   3.443
 4054W        W 8118   2.774   1.317  10.933
 4055W        W 8119   7.883   0.254   1.612
 4056W        W 8120   1.544   5.656  10.549
 4057W        W 8121   7.533   7.069   0.162
 4058W        W 8122   0.404   9.020  10.880
 4059W        W 8123   2.870   7.499  11.170
 4060W        W 8124   6.567   9.444   1.328
 4061W        W 8125   5.639  10.425   1.924
 4062W        W 8126   7.450   5.326   9.497
 4063W        W 8127   8.018   2.272   1.400
 4064W        W 8128   6.028   3.684   9.946
 4065W        W 8129   5.825   7.486   0.344
 4066W        W 8130   3.422   7.965   1.893
 4067W        W 8131   5.706   6.884   9.217
 4068W        W 8132   6.055   9.084  10.843
 4069W        W 8133   8.428   6.441   2.133
 4070W        W 8134   0.364   8.553   1.683
 4071W        W 8135   6.890   5.007   2.751
 4072W        W 8136   4.145   3.897   8.910
 4073W        W 8137   9.042   4.013   1.524
 4074W        W 8138   4.820   6.835   8.073
 4075W        W 8139   6.127   1.397  11.258
 4076W        W 8140   7.969   8.989   3.016
 4077W        W 8141   3.266   7.120   0.733
 4078W        W 8142   4.960   0.418  10.784
 4079W        W 8143   4.066   3.951   1.383
 4080W        W 8144   6.538   2.969   0.250
 4081W        W 8145   2.309   3.624   3.110
 4082W        W 8146   1.682   7.168   0.576
 4083W        W 8147   6.044   3.146  11.113
 4084W        W 8148   4.695   3.788   3.015
 4085W        W 8149  10.271   4.138   2.848
 4086W        W 8150   7.965   3.691   3.282
 4087W        W 8151   8.437   0.679   3.303
 4088W        W 8152   8.518   1.729   3.059
 4089W        W 8153   1.366   6.466  10.824
 4090W        W 8154   4.061   5.626   1.632
 4091W        W 8155   3.272   2.408   3.151
 4092W        W 8156   2.664   9.292   9.851
 4093W        W 8157   6.233   1.762   9.945
 4094W        W 8158   0.758   4.116   1.713
 4095W        W 8159   5.465   7.026   8.731
 4096W        W 8160   6.162   8.547   0.826
 4097W        W 8161   9.174   5.956   9.995
 4098W        W 8162   3.786   3.586   1.157
 4099W        W 8163   9.068   4.681   2.696
 4100W        W 8164   9.847   0.935   1.271
 4101W        W 8165   5.033   9.492   9.252
 4102W        W 8166   2.392   2.594  10.772
 4103W        W 8167   1.375   6.572   0.912
 4104W        W 8168   2.911   8.912   9.585
 4105W        W 8169   0.956   3.804   3.269
 4106W        W 8170   4.197   1.240   1.700
 4107W        W 8171   0.652   7.374   8.833
 4108W        W 8172   5.558   3.821   1.411
 4109W        W 8173   9.047   0.344   9.983
 4110W        W 8174   0.990   3.047   2.854
 4111W        W 8175   2.939   7.181   2.710
 4112W        W 8176   3.147   3.826   9.083
 4113W        W 8177   8.352   0.316   2.940
 4114W        W 8178   9.787   8.990  11.517
 4115W        W 8179   5.021   6.687   0.773
 4116W        W 8180  10.496   2.817   1.934
 4117W        W 8181   8.651   6.657  10.807
 4118W        W 8182   4.270   9.117   2.783
 4119W        W 8183   9.975   3.064   9.330
 4120W        W 8184   7.460   9.318  10.692
 4121W        W 8185   5.979   5.270  11.516
 4122W        W 8186   9.431   4.289  10.541
 4123W        W 8187   6.698   4.287   2.306
 4124W        W 8188   3.725   9.835  10.296
 4125W        W 8189   7.303   2.207   9.240
 4126W        W 8190   9.743   0.765   0.230
 4127W        W 8191   5.066   3.734  10.998
 4128W        W 8192   0.485   8.257  10.245
 4129W        W 8193   0.807   7.856   2.709
 4130W        W 8194   5.107   3.097   3.058
 4131W        W 8195   9.931   0.280   0.735
 4132W        W 8196   7.592   6.208   0.070
 4133W        W 8197   3.585   1.120   9.890
 4134W        W 8198   8.278   4.288   9.833
 4135W        W 8199   2.255   3.267  11.467
 4136W        W 8200   4.172   6.167   8.912
 4137W        W 8201   4.600   4.654   0.101
 4138W        W 8202   7.900   1.361   8.835
 4139W        W 8203   9.526   0.847   2.739
 4140W        W 8204   6.655   2.303   1.808
 4141W        W 8205   4.770   1.876   1.398
 4142W        W 8206   5.708  10.299   3.365
 4143W        W 8207   4.346   7.443   9.445
 4144W        W 8208   5.796   3.178   1.883
 4145W        W 8209  10.414   3.292  10.609
 4146W        W 8210   5.162   9.072  10.968
 4147W        W 8211   8.619   2.877  10.974
 4148W        W 8212   5.544   0.678   1.244
 4149W        W 8213   4.224   7.758  10.305
 4150W        W 8214   2.533   5.651   8.394
 4151W        W 8215   1.363   6.116   2.423
 4152W        W 8216   4.706   4.969   0.736
 4153W        W 8217   0.295   7.982  10.625
 4154W        W 8218   7.424   6.071   0.930
 4155W        W 8219   4.588   5.220   2.609
 4156W        W 8220   5.235  10.060  10.569
 4157W        W 8221   5.767   6.234   9.863
 4158W        W 8222  10.399   1.079   2.980
 4159W        W 8223   7.548   1.134   3.458
 4160W        W 8224   5.668   9.018  10.176
 4161W        W 8225   2.715   5.711   9.049
 4162W        W 8226   3.633   1.633   9.913
 4163W        W 8227   5.707   2.384   1.400
 4164W        W 8228   3.403   5.776   9.969
 4165W        W 8229   8.026   2.930   0.682
 4166W        W 8230   3.404   6.105  11.398
 4167W        W 8231   2.432   6.494   8.594
 4168W        W 8232   2.392   1.948   1.490
 4169W        W 8233   4.565   5.597   1.816
 4170W        W 8234   6.926   2.143   9.594
 4171W        W 8235   0.367   0.034  11.345
 4172W        W 8236   8.383   6.938   2.039
 4173W        W 8237   6.455   3.374   1.320
 4174W        W 8238   9.405   6.200  10.403
 4175W        W 8239   9.076   6.829   9.048
 4176W        W 8240   2.439   2.892   1.664
 4177W        W 8241   0.757   8.320   9.818
 4178W        W 8242   1.960   8.440   2.674
 4179W        W 8243   2.732   9.233   8.836
 4180W        W 8244   8.916   9.101   9.565
 4181W        W 8245   6.067   6.723  11.530
 4182W        W 8246   8.657   4.992   9.337
 4183W        W 8247   5.058   2.735   3.417
 4184W        W 8248   1.708   3.196   1.686
 4185W        W 8249   4.298   6.445  11.007
 4186W        W 8250   2.692   9.102  11.781
 4187W        W 8251   0.788   9.405   1.900
 4188W        W 8252   7.458  10.290   2.119
 4189W        W 8253   9.760   4.354  10.028
 4190W        W 8254   4.084   0.385   3.325
 4191W        W 8255   4.527   8.928   0.657
 4192W        W 8256   7.192   5.674   2.114
 4193W        W 8257   0.780   3.742  10.773
 4194W        W 8258   3.110   2.245   2.182
 4195W        W 8259  10.418   9.854   1.437
 4196W        W 8260   5.929   9.565   3.589
 4197W        W 8261   6.939   8.125  10.802
 4198W        W 8262   0.784   5.140   2.148
 4199W        W 8263   0.518   1.911   2.232
 4200W        W 8264   1.124   6.442   8.615
 4201W        W 8265   4.491   1.714   2.399
 4202W        W 8266   0.887   3.093   8.974
 4203W        W 8267   2.735   6.480   0.840
 4204W        W 8268   0.501   7.720  11.410
 4205W        W 8269   3.714   0.438   1.966
 4206W        W 8270   0.835   1.794  11.394
 4207W        W 8271   4.935   4.230   9.121
 4208W        W 8272   7.761   0.848   1.794
 4209W        W 8273   5.483   6.736   3.560
 4210W        W 8274   1.258   6.069   9.921
 4211W        W 8275  10.000   4.032   0.218
 4212W        W 8276   8.395   1.192   3.292
 4213W        W 8277  10.212   5.527   2.700
 4214W        W 8278   5.769   7.070  10.046
 4215W        W 8279   7.471   2.712   1.977
 4216W        W 8280   9.185  10.270   9.864
 4217W        W 8281   0.314   5.448  11.059
 4218W        W 8282   4.779   7.929  10.335
 4219W        W 8283   8.857   1.457   9.178
 4220W        W 8284   1.214   3.992   1.929
 4221W        W 8285   3.734   5.834  11.723
 4222W        W 8286   6.574   8.344   2.720
 4223W        W 8287   3.231   6.963   9.055
 4224W        W 8288   1.363   2.270  11.882
 4225W        W 8289   7.829   9.545  10.392
 4226W        W 8290   6.743   4.005   9.326
 4227W        W 8291   8.393   2.608  11.909
 4228W        W 8292   8.044   9.992   0.397
 4229W        W 8293   7.560   6.631   0.460
 4230W        W 8294   8.753   9.518   2.270
 4231W        W 8295   4.693   4.167   3.381
 4232W        W 8296   6.114   8.457   9.237
 4233W        W 8297   3.725   1.315   1.930
 4234W        W 8298   0.866   6.915   9.215
 4235W        W 8299   7.868   1.807   0.061
 4236W        W 8300   6.617   6.511  11.390
 4237W        W 8301  10.448   8.303   3.141
 4238W        W 8302   9.620   3.742   8.875
 4239W        W 8303   4.226   7.412  11.273
 4240W        W 8304  10.412   9.410   0.595
 4241W        W 8305   4.686   8.933   3.116
 4242W        W 8306   3.186   3.722  10.087
 4243W        W 8307   6.064   9.579  10.987
 4244W        W 8308  10.481   9.702  11.428
 4245W        W 8309   1.536   3.715   2.972
 4246W        W 8310   7.628   1.327  10.620
 4247W        W 8311   8.362   7.083  10.781
 4248W        W 8312   4.304   5.246   8.416
 4249W        W 8313   2.291   3.901   8.812
 4250W        W 8314   4.746   6.023   1.012
 4251W        W 8315   1.896   3.058  11.902
 4252W        W 8316   3.313   7.143  10.463
 4253W        W 8317   9.334   2.820   1.694
 4254W        W 8318   3.527   2.710   2.327
 4255W        W 8319   4.731   7.030   2.499
 4256W        W 8320   6.129   2.241  10.142
 4257W        W 8321   1.842   6.001   1.775
 4258W        W 8322   7.825   9.742  11.652
 4259W        W 8323   6.665   6.167  11.952
 4260W        W 8324   9.377   9.065   1.331
 4261W        W 8325   9.457  10.497   2.663
 4262W        W 8326   1.936   9.751   0.703
 4263W        W 8327   2.063   9.950  10.405
 4264W        W 8328   0.379   2.898   0.715
 4265W        W 8329   2.175   4.512  10.847
 4266W        W 8330   3.282   4.421   3.597
 4267W        W 8331   0.037   2.828   0.338
 4268W        W 8332  10.286   8.213  10.736
 4269W        W 8333   5.224   9.479   0.781
 4270W        W 8334   4.809   2.333   1.189
 4271W        W 8335   1.710   8.477  11.773
 4272W        W 8336   3.221   7.211   1.420
 4273W        W 8337   0.309   5.161   3.591
 4274W        W 8338   8.940   6.184   8.529
 4275W        W 8339   6.949   4.071   0.674
 4276W        W 8340   1.347   7.853   0.307
 4277W        W 8341   2.861   9.834   1.874
 4278W        W 8342   2.114   6.645  11.803
 4279W        W 8343   1.928   9.440  11.477
 4280W        W 8344   5.947   4.320   9.075
 4281W        W 8345   8.007   9.705   9.894
 4282W        W 8346   8.146   8.630   2.694
 4283W        W 8347   9.380   1.712   9.840
 4284W        W 8348   3.611   3.551   2.145
 4285W        W 8349   3.547   9.545   9.904
 4286W        W 8350   1.387   3.196  11.851
 4287W        W 8351   2.194   3.715   9.814
 4288W        W 8352   3.231   8.833   3.404
 4289W        W 8353   8.357   5.245  10.983
 4290W        W 8354   3.234   0.686   2.978
 4291W        W 8355   3.816   4.667   8.303
 4292W        W 8356  10.204   6.066   2.828
 4293W        W 8357   6.568   4.874   1.244
 4294W        W 8358   3.745   4.533   1.959
 4295W        W 8359   2.612   2.026   8.841
 4296W        W 8360   4.407  10.103  10.440
 4297W        W 8361   7.085   2.304  10.055
 4298W        W 8362   9.575   2.985  10.836
 4299W        W 8363   1.676   7.551   9.053
 4300W        W 8364   6.763   6.237   3.972
 4301W        W 8365   1.792   7.051  11.749
 4302W        W 8366   0.021  10.230   9.597
 4303W        W 8367   0.261   3.109   1.197
 4304W        W 8368   9.489   5.649   0.717
 4305W        W 8369   8.965   5.031   8.917
 4306W        W 8370   8.513   6.605   1.655
 4307W        W 8371   0.882   4.770  10.723
 4308W        W 8372   2.337   4.763  11.250
 4309W        W 8373   3.851   8.292   9.535
 4310W        W 8374   2.088   1.005   1.295
 4311W        W 8375   6.338   9.768   9.234
 4312W        W 8376   5.044   4.309   8.620
 4313W        W 8377   6.142   2.270   1.678
 4314W        W 8378   4.668   5.884  10.511
 4315W        W 8379  10.319   2.985  11.903
 4316W        W 8380   8.423   4.257   0.239
 4317W        W 8381   7.842   9.012   2.503
 4318W        W 8382   2.836   8.537   2.814
 4319W        W 8383   3.381  10.339   2.921
 4320W        W 8384   0.012  10.476   0.769
 4321W        W 8385   2.753  10.322  11.680
 4322W        W 8386   8.196   6.629   3.111
 4323W        W 8387   0.264   6.544   9.271
 4324W        W 8388   4.146   9.247   1.413
 4325W        W 8389   3.471   0.360   8.578
 4326W        W 8390   6.558   3.688   1.993
 4327W        W 8391   8.949  10.196   0.055
 4328W        W 8392   0.378   8.964   2.145
 4329W        W 8393   1.334   1.296   0.038
 4330W        W 8394   8.851   9.979   3.010
 4331W        W 8395   0.560   0.983  11.030
 4332W        W 8396   5.894   6.422   3.577
 4333W        W 8397   6.163   0.967  10.950
 4334W        W 8398   7.874   0.840   0.366
 4335W        W 8399   9.571   7.370  11.890
 4336W        W 8400   2.383   1.105   8.981
 4337W        W 8401   2.018   9.829  11.813
 4338W        W 8402   3.365   7.483  11.236
 4339W        W 8403   0.034   2.663   1.055
 4340W        W 8404   2.750   2.193  11.366
 4341W        W 8405   5.233   9.988   0.013
 4342W        W 8406   6.509   8.346   1.775
 4343W        W 8407   4.726   5.508  11.824
 4344W        W 8408   1.685   7.912   9.897
 4345W        W 8409   1.311   2.764   2.604
 4346W        W 8410  10.171   7.247   0.973
 4347W        W 8411   6.513  10.282   9.322
 4348W        W 8412   4.184   8.497   9.871
 4349W        W 8413   5.976   0.004  11.752
 4350W        W 8414   0.114   5.345   0.883
 4351W        W 8415  10.280   6.558   9.072
 4352W        W 8416   8.109   4.117   9.377
 4353W        W 8417   3.353   2.393  10.412
 4354W        W 8418   7.692   5.254  11.402
 4355W        W 8419   6.616   6.912   0.364
 4356W        W 8420   6.130   1.864   0.065
 4357W        W 8421   9.296   0.290   1.295
 4358W        W 8422   5.912   5.754   9.878
 4359W        W 8423   9.021   5.664   2.397
 4360W        W 8424   9.537   0.004   0.933
 4361W        W 8425   0.481   6.077   9.355
 4362W        W 8426   7.455   6.187   2.868
 4363W        W 8427   6.096   6.090   9.478
 4364W        W 8428   6.710   3.050   9.375
 4365W        W 8429   0.792   9.011   2.707
 4366W        W 8430   4.944   2.668   1.967
 4367W        W 8431   3.068   0.214  11.305
 4368W        W 8432   4.238   1.066  10.472
 4369W        W 8433  10.419   6.978   8.750
 4370W        W 8434   3.735   3.311   3.016
 4371W        W 8435   7.536   3.939   4.316
 4372W        W 8436   9.343   6.157  11.371
 4373W        W 8437   2.688   7.416  11.658
 4374W        W 8438   0.522   7.741  11.943
 4375W        W 8439   7.142   5.006   1.906
 4376W        W 8440   0.331   5.029   2.631
 4377W        W 8441   4.155   6.282   2.897
 4378W        W 8442   3.616   3.750  10.356
 4379W        W 8443   5.557   1.669   0.925
 4380W        W 8444   3.742   0.774   8.938
 4381W        W 8445   7.539   1.339  11.121
 4382W        W 8446   2.727   9.751   9.007
 4383W        W 8447   4.703  10.057   0.792
 4384W        W 8448   6.696   8.476   2.244
 4385W        W 8449   5.047   4.000   9.884
 4386W        W 8450   6.894   0.749   9.606
 4387W        W 8451   2.122   6.890   1.904
 4388W        W 8452   8.814   2.913   0.004
 4389W        W 8453   5.081   6.666   2.332
 4390W        W 8454   0.774   2.228   1.179
 4391W        W 8455   9.008   8.872   0.867
 4392W        W 8456   9.903   8.190   2.776
 4393W        W 8457   3.325   7.586  10.230
 4394W        W 8458   4.912   6.213  11.532
 4395W        W 8459   7.049   5.399   1.043
 4396W        W 8460   7.897   6.270   0.937
 4397W        W 8461   8.340   5.927  11.357
 4398W        W 8462   6.330   2.703  10.923
 4399W        W 8463   8.324   6.380   2.643
 4400W        W 8464  10.025   6.171  10.975
 4401W        W 8465   2.101   8.480   2.148
 4402W        W 8466   8.949   2.642   0.999
 4403W        W 8467   9.439   5.511   1.714
 4404W        W 8468   4.090   8.912   0.979
 4405W        W 8469   2.595   9.987  10.436
 4406W        W 8470   5.096   9.555   1.315
 4407W        W 8471   7.140   7.480   9.177
 4408W        W 8472  10.128   6.674  10.961
 4409W        W 8473   4.127   3.761  11.796
 4410W        W 8474   9.957   2.939   8.825
 4411W        W 8475   2.899   9.899  11.416
 4412W        W 8476   5.525   0.743   0.728
 4413W        W 8477   0.228   7.160   3.350
 4414W        W 8478   5.602  10.367   9.389
 4415W        W 8479   7.927   3.311   9.705
 4416W        W 8480   7.390   1.404   8.641
 4417W        W 8481   5.438   5.533   1.875
 4418W        W 8482   9.523   4.495   2.608
 4419W        W 8483   9.949   4.080   1.975
 4420W        W 8484   9.291   8.852  10.808
 4421W        W 8485   5.975   3.533   9.407
 4422W        W 8486   2.826   8.328   0.257
 4423W        W 8487   1.475   4.701   0.897
 4424W        W 8488   9.766   8.913  11.010
 4425W        W 8489   9.829   5.196   0.970
 4426W        W 8490   1.462   6.166   9.422
 4427W        W 8491   8.064   6.068   9.484
 4428W        W 8492   5.195   0.277  10.331
 4429W        W 8493   4.985   3.756   0.515
 4430W        W 8494   2.710   1.189  10.322
 4431W        W 8495   8.539   1.716   2.519
 4432W        W 8496   4.574   3.843  11.531
 4433W        W 8497   5.188  10.016   9.620
 4434W        W 8498   1.369   6.670   3.051
 4435W        W 8499   0.470   8.249   2.820
 4436W        W 8500   6.103   4.257   2.614
 4437W        W 8501   8.080   0.199  10.163
 4438W        W 8502   3.526   9.912   3.194
 4439W        W 8503   5.454   8.563  10.375
 4440W        W 8504   9.479   7.260   0.389
 4441W        W 8505   2.364   7.093   2.507
 4442W        W 8506   2.784   1.829   9.501
 4443W        W 8507   2.358   7.765  10.451
 4444W        W 8508   6.113   4.177   0.255
 4445W        W 8509   4.296   8.048   2.883
 4446W        W 8510   2.664   4.618   9.292
 4447W        W 8511  10.377   8.430   1.783
 4448W        W 8512   1.805   0.325   8.883
 4449W        W 8513   2.232   4.138  11.298
 4450W        W 8514   4.789   6.061  11.996
 4451W        W 8515   6.027   0.851   2.560
 4452W        W 8516   4.660   9.130   9.225
 4453W        W 8517   8.527   1.067   1.415
 4454W        W 8518   8.369   2.633   2.531
 4455W        W 8519   4.675  10.345   1.929
 4456W        W 8520   9.070   0.692  10.784
 4457W        W 8521   0.676   8.612   3.508
 4458W        W 8522   6.118   1.668   1.474
 4459W        W 8523   5.261   8.201   2.727
 4460W        W 8524   0.315   1.682   1.785
 4461W        W 8525   7.414   7.088  10.461
 4462W        W 8526   8.550   5.233   3.081
 4463W        W 8527   6.996   5.476   3.824
 4464W        W 8528  10.311   4.192  11.751
 4465W        W 8529   0.353   7.546   1.895
 4466W        W 8530   9.927   5.519   1.415
 4467W        W 8531   5.652   3.510  11.749
 4468W        W 8532   4.064   2.390  11.373
 4469W        W 8533   6.023   4.087   0.763
 4470W        W 8534   8.006   3.557  10.665
 4471W        W 8535   3.133   0.325   2.627
 4472W        W 8536   5.755   9.145  11.747
 4473W        W 8537   2.837   0.736  10.579
 4474W        W 8538   6.690   1.398   0.461
 4475W        W 8539   7.404   5.538   9.981
 4476W        W 8540   4.183   3.442   1.437
 4477W        W 8541   3.578  10.054  11.998
 4478W        W 8542   4.262   9.625   2.709
 4479W        W 8543   5.630   6.597  10.248
 4480W        W 8544   9.380   1.511  10.771
 4481W        W 8545   8.261   3.719  10.264
 4482W        W 8546   0.697   5.493  11.388
 4483W        W 8547   0.423   1.891   0.885
 4484W        W 8548   4.134   7.052   0.712
 4485W        W 8549   4.226   0.740  11.840
 4486W        W 8550   5.299   8.508   9.394
 4487W        W 8551   1.801   2.115   9.827
 4488W        W 8552   3.315   6.120   9.571
 4489W        W 8553   7.050  10.082   0.306
 4490W        W 8554   1.657   7.736   3.692
 4491W        W 8555   8.434   3.282   9.810
 4492W        W 8556   6.563   2.134  11.485
 4493W        W 8557   1.781   6.970  10.277
 4494W        W 8558   0.331   6.041   1.997
 4495W        W 8559   5.963   7.107   9.587
 4496W        W 8560   2.678   5.144   3.306
 4497W        W 8561   1.882   0.351   1.762
 4498W        W 8562   1.698   7.970  11.936
 4499W        W 8563   6.272   8.260  10.280
 4500W        W 8564   7.055   2.222   2.522
 4501W        W 8565   6.165   8.949   9.071
 4502W        W 8566   8.896   6.201  10.411
 4503W        W 8567   6.302   2.768   3.223
 4504W        W 8568   7.087   2.724   1.205
 4505W        W 8569   9.919   6.498  11.436
 4506W        W 8570   9.513   3.773   1.440
 4507W        W 8571   0.878   6.040   2.298
 4508W        W 8572   7.796   8.149   1.038
 4509W        W 8573   4.276   3.255   3.550
 4510W        W 8574   0.543   8.958   0.209
 4511W        W 8575   5.685   0.275   2.338
 4512W        W 8576   2.164   0.359  10.248
 4513W        W 8577   9.867   6.574   9.393
 4514W        W 8578   3.786   2.975   0.470
 4515W        W 8579   8.856   4.627   9.654
 4516W        W 8580   0.966   9.426  11.530
 4517W        W 8581   1.323   1.437   2.746
 4518W        W 8582   1.837   5.737  11.996
 4519W        W 8583   7.895   7.178  11.175
 4520W        W 8584   9.208   0.060   3.107
 4521W        W 8585   1.501   9.506   0.875
 4522W        W 8586   8.567   0.251   2.015
 4523W        W 8587  10.425   4.188   1.736
 4524W        W 8588   7.162   5.023   1.377
 4525W        W 8589   8.437  10.433   2.396
 4526W        W 8590   3.185   3.323  11.557
 4527W        W 8591   4.637   6.856   0.441
 4528W        W 8592   3.397   5.722  10.776
 4529W        W 8593   9.711   5.634   8.917
 4530W        W 8594   7.850   9.075  10.971
 4531W        W 8595   2.937   0.498  11.775
 4532W        W 8596   9.083   3.748   9.913
 4533W        W 8597   5.729   5.279   2.213
 4534W        W 8598   4.245  10.310   2.249
 4535W        W 8599   0.439   8.073   1.901
 4536W        W 8600   0.902   6.617  11.085
 4537W        W 8601   0.926   3.884   8.198
 4538W        W 8602   5.758   6.894   2.773
 4539W        W 8603   8.364   2.127  10.762
 4540W        W 8604   6.761   0.795  10.854
 4541W        W 8605   5.811   1.516  10.335
 4542W        W 8606   8.253   7.281  11.510
 4543W        W 8607   5.061   9.105   2.300
 4544W        W 8608   7.028   5.261   9.794
 4545W        W 8609   9.828   5.953   0.457
 4546W        W 8610   6.965   3.287   9.762
 4547W        W 8611   4.771   3.814   2.490
 4548W        W 8612   8.654   7.140   9.816
 4549W        W 8613   5.519   7.580   3.226
 4550W        W 8614   3.557   7.148  10.901
 4551W        W 8615   3.020   0.677  11.051
 4552W        W 8616   8.058   8.969  11.897
 4553W        W 8617   9.824   5.104  11.911
 4554W        W 8618   8.940   1.828   9.577
 4555W        W 8619   6.137   3.778  11.785
 4556W        W 8620   7.389   0.321  10.340
 4557W        W 8621   1.133   2.217  10.902
 4558W        W 8622   3.303   3.306   1.328
 4559W        W 8623   8.944   7.795   2.828
 4560W        W 8624   4.729   9.397   0.593
 4561W        W 8625   7.065   1.766   1.407
 4562W        W 8626   2.242   8.628  10.108
 4563W        W 8627   4.337   9.731  10.875
 4564W        W 8628   3.134   5.561   1.837
 4565W        W 8629   5.724   3.080   9.306
 4566W        W 8630   7.193   8.134  10.315
 4567W        W 8631   6.717   5.339   1.422
 4568W        W 8632   9.826   0.771  11.699
 4569W        W 8633   3.928   9.813  11.694
 4570W        W 8634   3.686   6.951   1.501
 4571W        W 8635   1.490   0.196   1.489
 4572W        W 8636   6.058   5.752  11.332
 4573W        W 8637   3.858   4.026   2.193
 4574W        W 8638   4.040   4.201   2.668
 4575W        W 8639   3.261   4.740   3.204
 4576W        W 8640   9.117   6.886   2.590
 4577W        W 8641   2.745   8.426   3.390
 4578W        W 8642   3.842   0.865   1.700
 4579W        W 8643   4.836   6.634   9.908
 4580W        W 8644   2.567   0.228  11.451
 4581W        W 8645   3.357   3.126  10.912
 4582W        W 8646   9.603   9.358   3.381
 4583W        W 8647   6.978   2.914  11.340
 4584W        W 8648   1.249   1.558   1.731
 4585W        W 8649   5.069   6.933   1.230
 4586W        W 8650   7.044   7.193   2.303
 4587W        W 8651   7.991   7.001   2.377
 4588W        W 8652   5.490   3.800   2.684
 4589W        W 8653   8.780   9.769   3.483
 4590W        W 8654   3.657   4.715   1.497
 4591W        W 8655   5.992   8.339  11.940
 4592W        W 8656   1.246   8.079   2.537
 4593W        W 8657   7.879   0.420   2.806
 4594W        W 8658   1.890   8.827  10.994
 4595W        W 8659   1.885   9.452  10.051
 4596W        W 8660   4.688   2.856   2.827
 4597W        W 8661   9.929   1.388   1.545
 4598W        W 8662   6.183   0.413   2.370
 4599W        W 8663   6.571   7.064   1.303
 4600W        W 8664   3.827   4.091   0.154
 4601W        W 8665   3.669   0.695   3.269
 4602W        W 8666   7.835   5.279   9.850
 4603W        W 8667   7.089   8.560  10.008
 4604W        W 8668   4.710   9.037  10.238
 4605W        W 8669   0.841   0.939   1.894
 4606W        W 8670   4.255   7.481   0.477
 4607W        W 8671   2.755   1.047   0.666
 4608W        W 8672   2.752   0.466   2.948
 4609W        W 8673   7.652   3.299   0.724
 4610W        W 8674   4.173   5.349  10.067
 4611W        W 8675   0.548   2.770   2.832
 4612W        W 8676   4.250   4.393   9.013
 4613W        W 8677   7.382   3.867   0.087
 4614W        W 8678   1.931   6.463  10.323
 4615W        W 8679   3.706   4.580  11.953
 4616W        W 8680   8.445   9.033   2.824
 4617W        W 8681   6.406   8.142  10.774
 4618W        W 8682  10.426   6.466  11.323
 4619W        W 8683   6.025   5.547   9.015
 4620W        W 8684   0.727   5.892   2.778
 4621W        W 8685   0.074   6.599   1.250
 4622W        W 8686   8.674  10.454  10.869
 4623W        W 8687   0.030   2.661  10.019
 4624W        W 8688   9.827   5.167  11.049
 4625W        W 8689   5.062   2.817  11.421
 4626W        W 8690   0.606   9.010  11.336
 4627W        W 8691   2.723   2.288   8.427
 4628W        W 8692   8.702   1.024   9.366
 4629W        W 8693   3.502   4.165  11.765
 4630W        W 8694   8.787   8.835  10.623
 4631W        W 8695   8.508   5.043   2.265
 4632W        W 8696   1.143   2.932   0.923
 4633W        W 8697   9.379   6.468   9.252
 4634W        W 8698   7.097   8.351   0.792
 4635W        W 8699   9.855   2.323   1.655
 4636W        W 8700   5.608   4.741   2.844
 4637W        W 8701   2.937  10.417  10.163
 4638W        W 8702   4.517   0.571   2.512
 4639W        W 8703   6.791   6.131   9.943
 4640W        W 8704   5.913   8.576   3.387
 4641W        W 8705   3.064   8.068   2.600
 4642W        W 8706   5.107   9.039   8.941
 4643W        W 8707   6.555   3.608  10.007
 4644W        W 8708   2.541   3.294   9.857
 4645W        W 8709   0.956   6.156  10.862
 4646W        W 8710   9.016   7.420   3.215
 4647W        W 8711   6.866   6.612   3.617
 4648W        W 8712  10.341   4.710   9.823
 4649W        W 8713   5.476   0.441   1.845
 4650W        W 8714   5.502   3.609   1.916
 4651W        W 8715   8.502   7.738   1.419
 4652W        W 8716   6.484   4.601   4.106
 4653W        W 8717   1.805   9.799   1.183
 4654W        W 8718   8.621   4.131   9.470
 4655W        W 8719   0.371   2.878  11.950
 4656W        W 8720   4.976   8.562   2.930
 4657W        W 8721   8.179   5.251   3.398
 4658W        W 8722   8.018  10.329   8.828
 4659W        W 8723  10.433   2.492  11.943
 4660W        W 8724   4.305   8.595   2.824
 4661W        W 8725   9.607  10.064  10.955
 4662W        W 8726   3.891   4.638   9.362
 4663W        W 8727   1.134   7.420   9.047
 4664W        W 8728   4.781   2.095  11.765
 4665W        W 8729   8.764   0.145  11.370
 4666W        W 8730   3.910   5.590   8.453
 4667W        W 8731   3.730   2.278   1.504
 4668W        W 8732   2.226   2.363   8.987
 4669W        W 8733   7.388   4.596   0.816
 4670W        W 8734   5.168   0.848   9.443
 4671W        W 8735   7.026   8.476   1.774
 4672W        W 8736   9.316   3.199   3.263
 4673W        W 8737   0.849   0.999   8.901
 4674W        W 8738   1.165   7.977  11.066
 4675W        W 8739   0.009   0.523   2.181
 4676W        W 8740   5.651   7.028  10.937
 4677W        W 8741   6.570  10.137   3.450
 4678W        W 8742   8.507   1.491  10.836
 4679W        W 8743   7.449   4.728  10.734
 4680W        W 8744   4.696   4.680  10.463
 4681W        W 8745   3.763   0.896  11.675
 4682W        W 8746   9.602   3.837  10.334
 4683W        W 8747   8.682   3.208   9.340
 4684W        W 8748   3.332   5.522  11.988
 4685W        W 8749   5.681   4.811   9.844
 4686W        W 8750   0.247   0.831  10.182
 4687W        W 8751   3.206   5.871   8.511
 4688W        W 8752   1.818   7.905  10.421
 4689W        W 8753   6.589  10.223   1.866
 4690W        W 8754   8.082   9.865   1.905
 4691W        W 8755   4.599   7.849  11.197
 4692W        W 8756   2.610   0.899   1.159
 4693W        W 8757   6.231   7.397   0.055
 4694W        W 8758   9.304   2.476   9.569
 4695W        W 8759   1.802   6.710   2.773
 4696W        W 8760   1.669   6.845   9.795
 4697W        W 8761   0.218   2.023   9.513
 4698W        W 8762   8.530   6.071  11.822
 4699W        W 8763   3.175   2.868   8.828
 4700W        W 8764   9.955   0.908   1.774
 4701W        W 8765   5.476   8.986   0.813
 4702W        W 8766   6.118   3.257  11.663
 4703W        W 8767   9.988   1.720  11.922
 4704W        W 8768   3.013   4.102  11.834
 4705W        W 8769   1.736   1.317  10.255
 4706W        W 8770   3.577   0.064  11.243
 4707W        W 8771   0.402   6.932   8.959
 4708W        W 8772   7.164   5.819   1.311
 4709W        W 8773   5.496   2.852   9.722
 4710W        W 8774   8.428   2.075   1.690
 4711W        W 8775   8.461   9.757   0.251
 4712W        W 8776   6.434   9.347   0.338
 4713W        W 8777   6.995   4.689   4.361
 4714W        W 8778   8.550   3.808   9.860
 4715W        W 8779   3.225   2.330   1.435
 4716W        W 8780   1.386   5.210   1.372
 4717W        W 8781   0.208   0.705   3.195
 4718W        W 8782   7.860   4.965  10.996
 4719W        W 8783   0.706   4.976   9.770
 4720W        W 8784  10.290   5.657   9.616
 4721W        W 8785  10.136   3.678   8.504
 4722W        W 8786   9.114   4.732  10.650
 4723W        W 8787   7.612   0.420   0.361
 4724W        W 8788   5.265   4.049   2.279
 4725W        W 8789   9.809   9.825   3.292
 4726W        W 8790   1.940   8.317  11.014
 4727W        W 8791   9.252   4.056  11.801
 4728W        W 8792   1.395   5.562  10.040
 4729W        W 8793   2.141   8.467   9.618
 4730W        W 8794   8.446   6.437  11.291
 4731W        W 8795   8.385   8.362   3.067
 4732W        W 8796   7.691   9.977   1.300
 4733W        W 8797   7.080   3.585  10.176
 4734W        W 8798   9.379   6.002  10.889
 4735W        W 8799   7.782  10.237   1.734
 4736W        W 8800   4.731   5.763   9.562
 4737W        W 8801   6.181   6.223   2.305
 4738W        W 8802   7.543   2.161  10.255
 4739W        W 8803   6.614   0.210   0.698
 4740W        W 8804   6.178   0.776   8.522
 4741W        W 8805   7.378   0.882   0.399
 4742W        W 8806   9.578   3.849   9.827
 4743W        W 8807  10.386   9.208   2.069
 4744W        W 8808   6.103   8.043   1.882
 4745W        W 8809  10.201   1.548   0.342
 4746W        W 8810   7.100   5.069   0.193
 4747W        W 8811   8.591   3.041   2.309
 4748W        W 8812   2.794   5.172   9.025
 4749W        W 8813   8.237   6.209   9.928
 4750W        W 8814   4.219   6.714  10.567
 4751W        W 8815   3.639   3.677   8.929
 4752W        W 8816   0.872   3.550   8.686
 4753W        W 8817   4.315   3.305  10.458
 4754W        W 8818   3.684   6.723  10.057
 4755W        W 8819   0.806   0.723   3.169
 4756W        W 8820   2.773   8.338  10.868
 4757W        W 8821   4.662   4.926   9.337
 4758W        W 8822   5.516   5.861  10.764
 4759W        W 8823   5.316   5.063   1.940
 4760W        W 8824   7.506   0.784   9.542
 4761W        W 8825   5.159   6.226  11.049
 4762W        W 8826   6.519   6.075   3.036
 4763W        W 8827   5.474   1.352   9.491
 4764W        W 8828  10.433   3.511   0.462
 4765W        W 8829   2.479   5.247  11.501
 4766W        W 8830  10.182   3.993   3.639
 4767W        W 8831   9.408   6.496   2.374
 4768W        W 8832   2.655   1.222   9.437
 4769W        W 8833  10.421   9.116  10.878
 4770W        W 8834   0.874   3.110   0.065
 4771W        W 8835   4.603   6.414   3.720
 4772W        W 8836   2.446   5.153  11.997
 4773W        W 8837   7.769   0.637  10.083
 4774W        W 8838   0.870   0.271   3.621
 4775W        W 8839   3.106  10.437   1.441
 4776W        W 8840   8.367   7.347   2.446
 4777W        W 8841   8.426   7.569   2.887
 4778W        W 8842   0.849   7.656   0.354
 4779W        W 8843   0.921   9.508   0.919
 4780W        W 8844   0.921   9.864  11.273
 4781W        W 8845   8.725   9.787  11.783
 4782W        W 8846   1.055   6.305   2.792
 4783W        W 8847  10.442   9.972   0.912
 4784W        W 8848   4.577   2.984  11.429
 4785W        W 8849   1.846   0.864   2.874
 4786W        W 8850   1.705   2.550   2.355
 4787W        W 8851   5.982   0.520   0.127
 4788W        W 8852   8.089   4.898   1.185
 4789W        W 8853   2.679   2.387   2.402
 4790W        W 8854   0.288   3.643  10.523
 4791W        W 8855   3.626   6.219  10.049
 4792W        W 8856   6.564   5.256   0.893
 4793W        W 8857   6.583   5.919   9.541
 4794W        W 8858   6.678   8.685   0.853
 4795W        W 8859   2.350   0.766   2.832
 4796W        W 8860   6.759   9.097   0.024
 4797W        W 8861   1.793   3.100   8.880
 4798W        W 8862   4.998   7.332   9.972
 4799W        W 8863   1.916  10.018   0.277
 4800W        W 8864   8.873   1.838   8.372
 4801W        W 8865   6.590   0.662   2.206
 4802W        W 8866   9.502   6.626   3.246
 4803W        W 8867   2.265   3.390   8.883
 4804W        W 8868   1.767   7.453   0.168
 4805W        W 8869   1.301   6.119  10.451
 4806W        W 8870   3.825   4.644   8.828
 4807W        W 8871   3.756   8.580   9.108
 4808W        W 8872   4.097   2.382   8.934
 4809W        W 8873   1.205   7.983   9.669
 4810W        W 8874   4.292   4.808   8.119
 4811W        W 8875   3.935   2.750  10.870
 4812W        W 8876   4.034   0.002   1.834
 4813W        W 8877   6.574   9.956   1.261
 4814W        W 8878   6.953   6.148   2.167
 4815W        W 8879   4.299  10.047   9.460
 4816W        W 8880   3.666   0.813   0.684
 4817W        W 8881  10.409   3.566   0.984
 4818W        W 8882   1.235   1.075  11.557
 4819W        W 8883   9.581   7.875   0.802
 4820W        W 8884   5.568   3.455   9.003
 4821W        W 8885   7.001   2.425  11.542
 4822W        W 8886   0.991   4.200  11.326
 4823W        W 8887   9.484   0.004  10.713
 4824W        W 8888   1.244  10.218   9.906
 4825W        W 8889   4.334   0.505  11.332
 4826W        W 8890   2.712   9.979   9.928
 4827W        W 8891   4.124   2.946   3.154
 4828W        W 8892  10.451   9.434  10.500
 4829W        W 8893   3.250   8.412   1.597
 4830W        W 8894   3.384   3.197   2.644
 4831W        W 8895   3.254   5.135  10.245
 4832W        W 8896   5.241   0.014   2.285
 4833W        W 8897   9.464   1.885   1.516
 4834W        W 8898   4.181   8.948   3.271
 4835W        W 8899   2.310   5.265   8.755
 4836W        W 8900   7.932   8.459   0.127
 4837W        W 8901   0.463   4.320   9.305
 4838W        W 8902   4.565   6.987   3.959
 4839W        W 8903   9.867   4.679   0.771
 4840W        W 8904   8.148   9.045   1.811
 4841W        W 8905   0.687   9.885  10.821
 4842W        W 8906   5.179   0.417  11.664
 4843W        W 8907   4.963   6.999   9.585
 4844W        W 8908   9.750   4.164  11.804
 4845W        W 8909   1.339   5.802   8.492
 4846W        W 8910   5.718   9.882  10.331
 4847W        W 8911   2.363   4.617   2.255
 4848W        W 8912   4.137   6.905  10.059
 4849W        W 8913   6.922   4.431   1.017
 4850W        W 8914   5.740  10.063   0.011
 4851W        W 8915   9.424   2.881   8.697
 4852W        W 8916   8.105   4.345  11.289
 4853W        W 8917   6.620   9.917  10.401
 4854W        W 8918   5.487   3.577   3.985
 4855W        W 8919   2.947   6.427  11.868
 4856W        W 8920   6.767   7.210   3.555
 4857W        W 8921   2.358  10.478   2.324
 4858W        W 8922   9.735   2.169  10.252
 4859W        W 8923   6.986   4.591   0.522
 4860W        W 8924   3.671   9.498   2.174
 4861W        W 8925   0.261   4.197   3.013
 4862W        W 8926   3.069   0.432   8.937
 4863W        W 8927   0.698   6.674   1.900
 4864W        W 8928   6.644   2.586  11.906
 4865W        W 8929   6.321   9.173   3.699
 4866W        W 8930   4.688   1.840  10.060
 4867W        W 8931   0.671   3.681   2.527
 4868W        W 8932   4.519   0.353   8.950
 4869W        W 8933   0.881   6.357   0.882
 4870W        W 8934   0.341   2.322  11.007
 4871W        W 8935  10.379   0.890   0.988
 4872W        W 8936   3.605   3.673  11.942
 4873W        W 8937   7.567   8.774  11.952
 4874W        W 8938   8.520   1.377  10.071
 4875W        W 8939   7.096   7.625  10.675
 4876W        W 8940   0.349  10.023   1.216
 4877W        W 8941   5.127   6.918   0.290
 4878W        W 8942   4.918   0.033   1.419
 4879W        W 8943   4.350   7.011   1.836
 4880W        W 8944   6.462   0.338   9.810
 4881W        W 8945   0.767  10.383   0.359
 4882W        W 8946   8.369   3.162  10.330
 4883W        W 8947   2.990   5.308   0.887
 4884W        W 8948   5.964   3.210   2.700
 4885W        W 8949   2.434   6.483   9.438
 4886W        W 8950   4.902   3.228   3.493
 4887W        W 8951   6.942   0.776  10.383
 4888W        W 8952   6.367   4.597   2.059
 4889W        W 8953   1.885   8.431  10.506
 4890W        W 8954   2.639   0.724  11.393
 4891W        W 8955   7.780   1.176   8.373
 4892W        W 8956   9.463   6.720   1.368
 4893W        W 8957   0.994   0.241   1.381
 4894W        W 8958   7.195   7.692   2.229
 4895W        W 8959   5.143   7.573  10.411
 4896W        W 8960   9.411   9.530   1.551
 4897W        W 8961   0.004   8.496   1.299
 4898W        W 8962   7.364   6.691   2.905
 4899W        W 8963   8.655   2.231   8.800
 4900W        W 8964   8.202   9.984  11.893
 4901W        W 8965   2.350   2.637   8.527
 4902W        W 8966   6.646   4.923   1.750
 4903W        W 8967   0.175   8.482   0.815
 4904W        W 8968   9.279   2.746   2.696
 4905W        W 8969   4.411   6.175  11.447
 4906W        W 8970   3.128  10.311   0.477
 4907W        W 8971   8.946   1.170  10.758
 4908W        W 8972   2.827   1.242   8.649
 4909W        W 8973   8.837   2.591  10.449
 4910W        W 8974   7.802   4.997   9.203
 4911W        W 8975   0.826   4.471   9.642
 4912W        W 8976   6.414   2.867  10.440
 4913W        W 8977   0.236   8.970   0.649
 4914W        W 8978   6.451   1.117   2.379
 4915W        W 8979   5.947   3.680   4.197
 4916W        W 8980   6.496   7.353   2.633
 4917W        W 8981   7.574   3.769   2.948
 4918W        W 8982   9.638   3.230   1.788
 4919W        W 8983   9.372   1.800  11.234
 4920W        W 8984   9.447   7.757   0.303
 4921W        W 8985   1.464   8.784   0.129
 4922W        W 8986   7.026   5.472   9.205
 4923W        W 8987   0.037   4.160  10.519
 4924W        W 8988   7.699   8.053  10.395
 4925W        W 8989   0.735   7.048   3.277
 4926W        W 8990   0.625   9.840   2.138
 4927W        W 8991   2.202   1.292  11.005
 4928W        W 8992   3.281   6.008  11.872
 4929W        W 8993   0.022   3.326  11.104
 4930W        W 8994   8.550   3.313   1.190
 4931W        W 8995   4.485   6.475   1.725
 4932W        W 8996   5.989   2.611  10.450
 4933W        W 8997   1.713   7.988   2.766
 4934W        W 8998   6.918   9.554   9.967
 4935W        W 8999   7.181   6.570  11.218
 4936W        W 9000   2.491   7.570   2.695
 4937W        W 9001   7.283   1.688   0.956
 4938W        W 9002   6.259   4.457   3.359
 4939W        W 9003   6.041   0.429  10.107
 4940W        W 9004   0.148   4.725   1.973
 4941W        W 9005   0.581   4.118   3.447
 4942W        W 9006   9.948   3.525   0.268
 4943W        W 9007   7.943   7.163   1.880
 4944W        W 9008   4.657   3.955   3.905
 4945W        W 9009  10.018   9.041   2.393
 4946W        W 9010   8.535   4.954   8.419
 4947W        W 9011   7.465   4.191  10.457
 4948W        W 9012   2.233   1.145  11.864
 4949W        W 9013   0.772   3.692   2.021
 4950W        W 9014   9.084   1.669   1.210
 4951W        W 9015   4.433   4.204  11.892
 4952W        W 9016   5.577   1.397   1.550
 4953W        W 9017   7.483   0.764   2.621
 4954W        W 9018   6.588   4.753   3.610
 4955W        W 9019   0.996   8.989   1.668
 4956W        W 9020   1.986   6.255   9.465
 4957W        W 9021   3.685   2.662   3.302
 4958W        W 9022   2.357   4.280  10.014
 4959W        W 9023   7.633   7.970   3.209
 4960W        W 9024   8.837   8.959   3.127
 4961W        W 9025   0.180   4.764   0.306
 4962W        W 9026   2.765   4.821  11.651
 4963W        W 9027   6.238   8.364   9.763
 4964W        W 9028   1.050   3.547   2.852
 4965W        W 9029   6.865   8.974   2.218
 4966W        W 9030   2.690   8.489   1.668
 4967W        W 9031   6.979   3.820  11.331
 4968W        W 9032  10.364   8.830   3.331
 4969W        W 9033   1.971   2.549  11.835
 4970W        W 9034   5.625   0.934   9.214
 4971W        W 9035   7.561   8.715   2.810
 4972W        W 9036   0.948   4.340   3.182
 4973W        W 9037   5.425   3.303   9.937
 4974W        W 9038   3.047   4.096   2.791
 4975W        W 9039   7.857   4.517  11.694
 4976W        W 9040   1.400   2.996   2.142
 4977W        W 9041   7.597   9.782   1.997
 4978W        W 9042   0.799   3.144   0.573
 4979W        W 9043   3.622   6.430   2.718
 4980W        W 9044   2.727   9.039   0.692
 4981W        W 9045   9.014   6.451   3.376
 4982W        W 9046   5.472   0.603  10.695
 4983W        W 9047   0.846   9.849   2.591
 4984W        W 9048   7.481  10.084   8.745
 4985W        W 9049   4.218   7.782  11.617
 4986W        W 9050   1.979   1.044   2.400
 4987W        W 9051   2.163  10.086   1.440
 4988W        W 9052   3.580   1.945   2.628
 4989W        W 9053   7.448   4.195  10.954
 4990W        W 9054   7.235   1.808   8.930
 4991W        W 9055   8.582   6.814   1.176
 4992W        W 9056   7.931   2.695   2.236
 4993W        W 9057   9.469   5.593   9.779
 4994W        W 9058   4.624   7.867   1.925
 4995W        W 9059   4.818   0.335  11.296
 4996W        W 9060   6.404   0.866  10.485
 4997W        W 9061   1.631   2.833  10.442
 4998W        W 9062   0.801   1.668   3.359
 4999W        W 9063   4.545   7.128   9.833
 5000W        W 9064   1.847   2.637   8.602
 5001W        W 9065   9.801   5.919  10.587
 5002W        W 9066   4.853   7.506   9.512
 5003W        W 9067   3.411   6.552   9.287
 5004W        W 9068   0.486   2.570   0.328
 5005W        W 9069   1.847   4.195   8.797
 5006W        W 9070   2.168   1.735   8.834
 5007W        W 9071   2.711   3.784   9.789
 5008W        W 9072   4.818   1.175  11.396
 5009W        W 9073   1.646   5.187   0.700
 5010W        W 9074   9.890   6.093   9.123
 5011W        W 9075   9.018   4.228   2.028
 5012W        W 9076   9.190  10.062   9.371
 5013W        W 9077   6.493   9.475  10.229
 5014W        W 9078   8.283   4.495   8.534
 5015W        W 9079   8.823   2.077  11.632
 5016W        W 9080   8.136   9.262  10.119
 5017W        W 9081   9.956   2.128   3.179
 5018W        W 9082  10.220   5.657   9.072
 5019W        W 9083   7.051   6.753  10.360
 5020W        W 9084   9.958  10.276  10.517
 5021W        W 9085   2.256   0.822   8.551
 5022W        W 9086   4.758   6.011   0.514
 5023W        W 9087   8.092   6.731  10.538
 5024W        W 9088   1.220   1.954   3.205
 5025W        W 9089   8.471   5.493   1.649
 5026W        W 9090   5.536   3.355   2.947
 5027W        W 9091  10.320   7.446   2.882
 5028W        W 9092   8.871   4.158   2.894
 5029W        W 9093   0.192   5.647   9.271
 5030W        W 9094   7.628   4.640  10.278
 5031W        W 9095   6.257   0.214   1.513
 5032W        W 9096   4.298  10.045   1.755
 5033W        W 9097   7.959   9.584   0.120
 5034W        W 9098   6.484   4.571   9.957
 5035W        W 9099   9.282   8.342   9.706
 5036W        W 9100   4.162   2.225  10.881
 5037W        W 9101   0.284   4.957   1.194
 5038W        W 9102   3.878   7.209   1.903
 5039W        W 9103   1.634  10.366   1.833
 5040W        W 9104   4.673   7.509   2.794
 5041W        W 9105   8.887   9.842   8.844
 5042W        W 9106   2.067   7.128   2.925
 5043W        W 9107   1.778   1.213   3.252
 5044W        W 9108   8.067   2.135   0.423
 5045W        W 9109   7.018   6.248  10.364
 5046W        W 9110   0.719   4.342  11.749
 5047W        W 9111   5.951   7.844   0.008
 5048W        W 9112  10.336   0.921  10.507
 5049W        W 9113   9.971   6.022   1.371
 5050W        W 9114   7.512   3.657  10.480
 5051W        W 9115   1.435   0.060   0.982
 5052W        W 9116   5.927   6.585   0.290
 5053W        W 9117   2.671   7.449   0.173
 5054W        W 9118   0.221   4.091  10.061
 5055W        W 9119   5.948  10.043  11.543
 5056W        W 9120   9.355   7.853   9.448
 5057W        W 9121   4.422   0.451   8.454
 5058W        W 9122   7.946   7.701  11.329
 5059W        W 9123   6.139   5.915  11.810
 5060W        W 9124   1.841   8.974  11.710
 5061W        W 9125   6.436   7.042  11.546
 5062W        W 9126   4.740   3.380  11.701
 5063W        W 9127   8.470   2.189   2.266
 5064W        W 9128   6.899   5.177  11.248
 5065W        W 9129   5.593   7.869  11.328
 5066W        W 9130   9.387   3.718   1.922
 5067W        W 9131   2.943   0.632   2.076
 5068W        W 9132   5.290   0.455  11.155
 5069W        W 9133   2.891   8.555   0.726
 5070W        W 9134   4.064   1.545  10.582
 5071W        W 9135   1.823   4.919  11.600
 5072W        W 9136   2.825   0.105   2.221
 5073W        W 9137   4.154   0.794   0.911
 5074W        W 9138   6.134   6.742   2.361
 5075W        W 9139   3.676   6.110   0.238
 5076W        W 9140   8.805   5.971  10.860
 5077W        W 9141   7.859   9.896   3.304
 5078W        W 9142   4.159   7.486   3.546
 5079W        W 9143   2.562   7.062   3.039
 5080W        W 9144   2.776   1.251   1.489
 5081W        W 9145   1.974   7.518   0.821
 5082W        W 9146   1.226   5.774   2.807
 5083W        W 9147   8.475   7.457  11.092
 5084W        W 9148   3.959   6.780   2.877
 5085W        W 9149   7.012   7.637   0.086
 5086W        W 9150   7.944   0.078   2.088
 5087W        W 9151   0.322   2.326   2.451
 5088W        W 9152   7.974   0.933   2.832
 5089W        W 9153   5.868   3.474   8.475
 5090W        W 9154   5.231   4.662   3.201
 5091W        W 9155   6.506   1.967   2.771
 5092W        W 9156   6.638   0.675  11.774
 5093W        W 9157   1.901   9.916  11.322
 5094W        W 9158   4.719   0.910   1.676
 5095W        W 9159   9.879   8.359   1.911
 5096W        W 9160   7.581   5.705   2.665
 5097W        W 9161   0.303  10.421   3.478
 5098W        W 9162   8.144   1.808   2.193
 5099W        W 9163   9.026   1.160   1.229
 5100W        W 9164   3.850   6.453   4.111
 5101W        W 9165   6.913   3.186   8.815
 5102W        W 9166   8.715   0.383   2.516
 5103W        W 9167   1.137   6.893   1.809
 5104W        W 9168   7.936   0.944  10.474
 5105W        W 9169   9.037   9.477  11.466
 5106W        W 9170   5.061   1.274   0.908
 5107W        W 9171   9.927   0.445  11.284
 5108W        W 9172   5.939   1.062  10.509
 5109W        W 9173   9.953   6.528   1.423
 5110W        W 9174   5.579  10.215   1.416
 5111W        W 9175   7.460   2.899   0.455
 5112W        W 9176   8.589   1.696   8.776
 5113W        W 9177   6.099   9.934   2.197
 5114W        W 9178   2.288   4.663   0.246
 5115W        W 9179   1.690   8.765   0.602
 5116W        W 9180   0.327   1.206   9.032
 5117W        W 9181  10.298   5.278  11.873
 5118W        W 9182   4.039   6.661  11.935
 5119W        W 9183   8.228   1.002   9.532
 5120W        W 9184   4.328   1.762  10.950
 5121W        W 9185   5.736   5.291   1.134
 5122W        W 9186   1.656   3.182  10.074
 5123W        W 9187  10.174   7.881   3.108
 5124W        W 9188   5.606   8.892  11.195
 5125W        W 9189   4.734   0.287  10.108
 5126W        W 9190   3.642   2.467   9.578
 5127W        W 9191   3.631   2.230  11.579
 5128W        W 9192   0.504   6.360  10.784
 5129W        W 9193   9.001   0.373   1.707
 5130W        W 9194   7.107   6.686   0.198
 5131W        W 9195   7.547   9.489   1.284
 5132W        W 9196   1.632   2.520   9.579
 5133W        W 9197   1.383   6.090   8.919
 5134W        W 9198   2.478   4.147   0.373
 5135W        W 9199   0.888   8.985   2.198
 5136W        W 9200   2.298   0.551   1.432
 5137W        W 9201   6.428   9.353  11.264
 5138W        W 9202   1.616   8.511   3.611
 5139W        W 9203  10.158   6.984   1.926
 5140W        W 9204  10.355   9.314   9.498
 5141W        W 9205   0.723   9.430  11.058
 5142W        W 9206   2.497   5.121   0.910
 5143W        W 9207   0.813   2.381  11.251
 5144W        W 9208   4.170   1.241   1.189
 5145W        W 9209   6.017   5.725   0.399
 5146W        W 9210   2.253   4.243  11.859
 5147W        W 9211   9.078   8.797   0.080
 5148W        W 9212   9.458  10.008   0.237
 5149W        W 9213   4.802   6.592  11.224
 5150W        W 9214   9.350   2.299   1.821
 5151W        W 9215   1.740   7.151   9.378
 5152W        W 9216   3.890   5.480  10.817
 5153W        W 9217   4.626   3.759   0.046
 5154W        W 9218   4.360   4.283  10.446
 5155W        W 9219   2.833   0.891   9.052
 5156W        W 9220   5.300   6.248  11.865
 5157W        W 9221   4.205   0.329   1.228
 5158W        W 9222   3.189   2.381   0.555
 5159W        W 9223   8.912   1.636  10.568
 5160W        W 9224  10.364   3.728  10.237
 5161W        W 9225   6.279   9.035  10.371
 5162W        W 9226   9.565   3.236   9.060
 5163W        W 9227   1.737   9.026  10.298
 5164W        W 9228   6.120   3.626  11.294
 5165W        W 9229   0.901   1.176   3.368
 5166W        W 9230   3.542  10.487   1.716
 5167W        W 9231   5.007   9.563   8.734
 5168W        W 9232   0.347   9.098  11.766
 5169W        W 9233   2.256   8.727   8.817
 5170W        W 9234   0.365   1.295   1.239
 5171W        W 9235   6.435   3.834   1.513
 5172W        W 9236   2.831   5.934   2.603
 5173W        W 9237   0.196   5.489   2.812
 5174W        W 9238   0.907   4.432   2.662
 5175W        W 9239   3.521   2.166   9.993
 5176W        W 9240   4.677   6.088   9.118
 5177W        W 9241   7.020   6.380   0.894
 5178W        W 9242   8.127   8.713   2.193
 5179W        W 9243   5.181   7.225  10.882
 5180W        W 9244   8.953   1.556  11.084
 5181W        W 9245   9.861   4.512   8.743
 5182W        W 9246   0.357   1.446   2.227
 5183W        W 9247   1.317   7.629   2.802
 5184W        W 9248   0.474   6.002   0.176
 5185W        W 9249   6.263   6.498  10.619
 5186W        W 9250   8.295   3.666   1.852
 5187W        W 9251   9.008   6.098   9.474
 5188W        W 9252   0.639   5.371  10.525
 5189W        W 9253   2.207   0.299   8.556
 5190W        W 9254   1.664   8.684   2.337
 5191W        W 9255   5.629   8.499   0.704
 5192W        W 9256   5.224   6.030   0.310
 5193W        W 9257   4.555   1.908   3.204
 5194W        W 9258   4.086   3.754   9.867
 5195W        W 9259   2.906   6.054  11.514
 5196W        W 9260   0.874   1.385  11.742
 5197W        W 9261   6.281   1.677   0.962
 5198W        W 9262   8.215   0.379   2.435
 5199W        W 9263   9.492   7.141   3.094
 5200W        W 9264   3.128   8.047  10.580
 5201W        W 9265  10.162   2.180   9.930
 5202W        W 9266   7.710   8.993   0.391
 5203W        W 9267   5.838   6.528   1.403
 5204W        W 9268   4.574  10.053   1.301
 5205W        W 9269   7.125   8.570  11.040
 5206W        W 9270   1.460   6.138  11.806
 5207W        W 9271   8.679   5.573  11.206
 5208W        W 9272   2.135   7.900   9.171
 5209W        W 9273   4.223   4.082   3.617
 5210W        W 9274   1.702   9.972   3.165
 5211W        W 9275   7.189   4.098   8.480
 5212W        W 9276   8.055   9.499   9.186
 5213W        W 9277   1.943   5.029   0.112
 5214W        W 9278   4.269   8.338   2.226
 5215W        W 9279   0.410   4.154   2.523
 5216W        W 9280   5.385   6.360   1.706
 5217W        W 9281   7.347   9.015   1.314
 5218W        W 9282   7.703   3.751   1.023
 5219W        W 9283   1.360   4.731   2.710
 5220W        W 9284   4.241   6.189   9.420
 5221W        W 9285   6.093   3.054   1.203
 5222W        W 9286   6.157   9.990  10.571
 5223W        W 9287   7.670   1.855   9.247
 5224W        W 9288   8.083   7.580  11.871
 5225W        W 9289  10.241   1.878   9.523
 5226W        W 9290   5.061   5.058   2.381
 5227W        W 9291   5.814   8.177  10.507
 5228W        W 9292   9.182   5.544   8.785
 5229W        W 9293   1.714  10.275   1.297
 5230W        W 9294   2.691   2.278   9.266
 5231W        W 9295   7.737   5.994   0.524
 5232W        W 9296   4.337   8.599   1.290
 5233W        W 9297   6.867   3.980   1.258
 5234W        W 9298   9.392   5.619   3.187
 5235W        W 9299   5.083   8.588   0.127
 5236W        W 9300   4.826   2.287  10.249
 5237W        W 9301   9.400   1.952   2.933
 5238W        W 9302   2.464   2.813   2.194
 5239W        W 9303   8.738   1.164   2.515
 5240W        W 9304   1.517   9.467   3.068
 5241W        W 9305   7.219   0.566  10.831
 5242W        W 9306   0.818   4.189   2.215
 5243W        W 9307  10.239   4.486   2.132
 5244W        W 9308   5.425   6.206   3.402
 5245W        W 9309   8.635   0.489   0.665
 5246W        W 9310   4.494   4.040   9.318
 5247W        W 9311   6.620   7.442   0.378
 5248W        W 9312   1.482  10.204   0.072
 5249W        W 9313   0.808   2.196   8.489
 5250W        W 9314   2.938   8.086   1.894
 5251W        W 9315   8.475   6.479  10.327
 5252W        W 9316   2.129   4.226   1.861
 5253W        W 9317   5.002   9.969   8.419
 5254W        W 9318   2.042   1.840   1.090
 5255W        W 9319   0.370   3.424   9.488
 5256W        W 9320   9.467   3.299   0.894
 5257W        W 9321   4.960   7.799   1.132
 5258W        W 9322   6.454   3.780   3.474
 5259W        W 9323   9.917   3.065   9.849
 5260W        W 9324   0.466   5.062   1.679
 5261W        W 9325   2.221   2.146   8.503
 5262W        W 9326   9.115   8.671   2.317
 5263W        W 9327   9.468   0.004   9.466
 5264W        W 9328   6.456   8.186  11.815
 5265W        W 9329  10.429   9.761   9.843
 5266W        W 9330   9.683   2.162   9.741
 5267W        W 9331   8.903   0.666   1.274
 5268W        W 9332   9.430   7.382   9.605
 5269W        W 9333   4.863   1.357   0.454
 5270W        W 9334   2.016   6.167   2.762
 5271W        W 9335   6.103   2.232   2.616
 5272W        W 9336   9.754   9.492   0.416
 5273W        W 9337   9.831   1.171   3.036
 5274W        W 9338   3.404   2.802   1.402
 5275W        W 9339   1.772   5.157   2.172
 5276W        W 9340   4.580   3.656   3.495
 5277W        W 9341   4.614   0.943   0.668
 5278W        W 9342   7.598   8.823   3.308
 5279W        W 9343   1.671   5.747  11.508
 5280W        W 9344   4.846   4.379   9.593
 5281W        W 9345   5.552   7.423   0.769
 5282W        W 9346   7.826   8.054  10.948
 5283W        W 9347   3.200   5.531   8.920
 5284W        W 9348   3.917   6.149  11.365
 5285W        W 9349   9.270  10.443   1.786
 5286W        W 9350   7.005   0.831   2.443
 5287W        W 9351   5.239   6.973   2.697
 5288W        W 9352   0.527   6.840   1.406
 5289W        W 9353   2.961   3.254   3.466
 5290W        W 9354   0.871   2.373   2.674
 5291W        W 9355  10.006   4.116  11.358
 5292W        W 9356   0.062   6.020   8.405
 5293W        W 9357   5.086   7.076   3.484
 5294W        W 9358   9.697   2.888   2.995
 5295W        W 9359   7.417  10.007  11.483
 5296W        W 9360  10.417   3.097   0.754
 5297W        W 9361   9.412   9.500   1.027
 5298W        W 9362   4.632   8.113   0.905
 5299W        W 9363   8.874   9.956   0.495
 5300W        W 9364   4.276   0.409   9.912
 5301W        W 9365   8.477   5.405   9.547
 5302W        W 9366  10.412   2.144   9.095
 5303W        W 9367   2.576   9.656   2.261
 5304W        W 9368   5.268   7.395   1.191
 5305W        W 9369   1.743   6.168   0.764
 5306W        W 9370   9.516   0.497  10.977
 5307W        W 9371  10.042   8.854   1.887
 5308W        W 9372   9.692   0.833   9.449
 5309W        W 9373   9.274   5.920   2.780
 5310W        W 9374   5.216   8.301   1.948
 5311W        W 9375   2.166   0.446   9.364
 5312W        W 9376   3.991  10.259   1.378
 5313W        W 9377   0.331   0.292  10.251
 5314W        W 9378   4.063   4.990   1.301
 5315W        W 9379   3.187   0.867   0.440
 5316W        W 9380  10.046   2.416   8.826
 5317W        W 9381  10.353   5.252   3.348
 5318W        W 9382   9.058   3.227   0.399
 5319W        W 9383   6.983  10.431  10.941
 5320W        W 9384   4.064   4.459   1.343
 5321W        W 9385   6.073   8.996  11.355
 5322W        W 9386   1.976   4.253  10.390
 5323W        W 9387   7.573   1.450  11.637
 5324W        W 9388   2.909   9.835   0.461
 5325W        W 9389   7.650   5.214   2.647
 5326W        W 9390   0.933   8.411   8.854
 5327W        W 9391  10.306   4.530  11.359
 5328W        W 9392   0.757   4.503   1.344
 5329W        W 9393   3.045   0.994   9.694
 5330W        W 9394   1.180   8.872   8.929
 5331W        W 9395   7.493   3.817   2.425
 5332W        W 9396   5.229   5.852  11.363
 5333W        W 9397   4.362   7.095   2.856
 5334W        W 9398   7.480   3.741   3.452
 5335W        W 9399   0.151   3.202   3.213
 5336W        W 9400   7.437   7.033   1.978
 5337W        W 9401   2.722   6.530   3.212
 5338W        W 9402   5.138   2.609   2.885
 5339W        W 9403   2.365   6.873   0.619
 5340W        W 9404   9.065   6.892   3.094
 5341W        W 9405   8.354   0.886   0.495
 5342W        W 9406   5.364   6.516   1.208
 5343W        W 9407   2.256   7.532   2.219
 5344W        W 9408   5.014   9.479  11.245
 5345W        W 9409   9.801   0.749   3.340
 5346W        W 9410   9.365   2.867   1.176
 5347W        W 9411   0.802   7.423   9.962
 5348W        W 9412   5.189   4.802   8.748
 5349W        W 9413   6.421   1.413   8.989
 5350W        W 9414   1.508   2.768   1.266
 5351W        W 9415   9.378   8.551  10.354
 5352W        W 9416   0.641   6.454   0.015
 5353W        W 9417   1.369   8.436   9.159
 5354W        W 9418   7.589   7.051   1.170
 5355W        W 9419   4.225   6.785   4.289
 5356W        W 9420   0.495   0.344   1.445
 5357W        W 9421   8.172   8.033  10.575
 5358W        W 9422   4.131   6.152  11.903
 5359W        W 9423   7.953   5.884   9.043
 5360W        W 9424   9.955   7.862   1.777
 5361W        W 9425   5.603   8.952  10.676
 5362W        W 9426   7.846   1.374   1.980
 5363W        W 9427   0.082   0.246   2.957
 5364W        W 9428   1.274   3.678   1.539
 5365W        W 9429   8.404   7.003   0.725
 5366W        W 9430   1.275   7.050   9.504
 5367W        W 9431   4.118   5.360   8.888
 5368W        W 9432   6.142   3.551   2.245
 5369W        W 9433   9.863   2.746   1.980
 5370W        W 9434   6.542   6.185   0.847
 5371W        W 9435   9.387   4.686   9.292
 5372W        W 9436   1.560   1.307   0.558
 5373W        W 9437   9.462   5.630  11.276
 5374W        W 9438   0.761   2.983  10.542
 5375W        W 9439   2.445   5.596   3.220
 5376W        W 9440   0.642   9.398   2.396
 5377W        W 9441   2.418   0.374   9.803
 5378W        W 9442   9.938   1.843   1.297
 5379W        W 9443   2.239   7.296  11.891
 5380W        W 9444   6.946   3.769  11.847
 5381W        W 9445   4.597   8.328   3.197
 5382W        W 9446   5.614   9.845  10.860
 5383W        W 9447   8.321   6.592   9.004
 5384W        W 9448   8.802   9.906  10.213
 5385W        W 9449   4.544   9.070   1.146
 5386W        W 9450   3.202   9.173   1.021
 5387W        W 9451   3.711   8.075   9.019
 5388W        W 9452   5.947   3.582   3.566
 5389W        W 9453   8.359   0.052   0.845
 5390W        W 9454   2.014   9.415   0.344
 5391W        W 9455   4.730   1.488  11.014
 5392W        W 9456   2.327   9.134   2.296
 5393W        W 9457   6.596   4.812  10.904
 5394W        W 9458   0.288   7.469  11.009
 5395W        W 9459   9.249   1.882   0.510
 5396W        W 9460   4.175   0.464   1.754
 5397W        W 9461   2.273   4.344   8.534
 5398W        W 9462   4.127   3.538   2.284
 5399W        W 9463   7.388   6.442   8.488
 5400W        W 9464   2.918   0.370   9.849
 5401W        W 9465   4.760   7.066   8.918
 5402W        W 9466   0.793   3.126   9.489
 5403W        W 9467   0.048   1.170   0.344
 5404W        W 9468   7.491   5.690   9.146
 5405W        W 9469   1.281   1.901   0.871
 5406W        W 9470   5.151   8.963  10.469
 5407W        W 9471  10.420   0.064  10.908
 5408W        W 9472   3.152   7.710   2.240
 5409W        W 9473   2.849   6.143   9.326
 5410W        W 9474   7.090   6.977  10.860
 5411W        W 9475   0.346   5.026  10.771
 5412W        W 9476   3.754   1.272   0.870
 5413W        W 9477   9.086   0.264   0.812
 5414W        W 9478   7.907   3.349  10.215
 5415W        W 9479   8.147   2.747   9.043
 5416W        W 9480   9.874   9.776  10.625
 5417W        W 9481   4.325   8.785   8.649
 5418W        W 9482   6.317  10.344   9.802
 5419W        W 9483  10.329   4.751   9.303
 5420W        W 9484   3.187   6.262   0.288
 5421W        W 9485   5.043   3.838   1.873
 5422W        W 9486  10.213   5.747  11.725
 5423W        W 9487   3.303   5.250   2.230
 5424W        W 9488   1.240   6.562   9.681
 5425W        W 9489   1.685   7.863  10.913
 5426W        W 9490   7.237   7.194   9.991
 5427W        W 9491   5.749   1.785  10.762
 5428W        W 9492   3.039   3.255   9.984
 5429W        W 9493   7.311   6.057   9.977
 5430W        W 9494   6.427   1.202   0.849
 5431W        W 9495   7.555   0.220  11.869
 5432W        W 9496   1.951   9.384   2.803
 5433W        W 9497   8.898   7.036   3.539
 5434W        W 9498   0.332   6.796   3.029
 5435W        W 9499   6.164   0.156   9.405
 5436W        W 9500   1.903   7.596   9.522
 5437W        W 9501   7.126   4.550  10.273
 5438W        W 9502   5.240   2.649   2.383
 5439W        W 9503   5.690   3.910   9.162
 5440W        W 9504   4.241   9.976   8.885
 5441W        W 9505   3.399   7.433   1.857
 5442W        W 9506   5.665   0.284  11.446
 5443W        W 9507   1.261   7.078  10.043
 5444W        W 9508   7.473   8.271  11.908
 5445W        W 9509   2.883   1.002   2.492
 5446W        W 9510   0.074   7.541   0.201
 5447W        W 9511   5.032   7.570   3.459
 5448W        W 9512   1.249   3.724   9.564
 5449W        W 9513   4.674   4.733   2.436
 5450W        W 9514   4.238   9.391   0.883
 5451W        W 9515   3.268   1.436   9.585
 5452W        W 9516   3.187   7.114   3.599
 5453W        W 9517   1.160   5.386   1.887
 5454W        W 9518  10.025   7.042   9.576
 5455W        W 9519   9.856   7.795   8.470
 5456W        W 9520   7.556   8.171   9.913
 5457W        W 9521   9.975   6.453   3.323
 5458W        W 9522   6.536   0.255  11.424
 5459W        W 9523   2.000   4.789   9.016
 5460W        W 9524   5.638   0.906   1.679
 5461W        W 9525   2.411  10.461  10.537
 5462W        W 9526   0.161   9.788   2.364
 5463W        W 9527   2.633   4.377   2.681
 5464W        W 9528   6.119   8.812  11.846
 5465W        W 9529   4.704   6.031   1.528
 5466W        W 9530   7.519   4.262   2.805
 5467W        W 9531   5.273   3.588   0.940
 5468W        W 9532   4.567   5.920   3.846
 5469W        W 9533   9.947   9.550   3.723
 5470W        W 9534   3.425   1.825   1.366
 5471W        W 9535   4.425   5.678   1.281
 5472W        W 9536   7.682   9.985   9.578
 5473W        W 9537   6.033   9.487  10.486
 5474W        W 9538   8.325   7.030   8.664
 5475W        W 9539   8.520   8.046   2.689
 5476W        W 9540   2.870   7.569   1.818
 5477W        W 9541   1.895   1.383   3.711
 5478W        W 9542   3.624   9.187   0.269
 5479W        W 9543   1.430   7.099   1.016
 5480W        W 9544   1.705   0.207   9.366
 5481W        W 9545   6.757   6.571  10.779
 5482W        W 9546   5.578   9.829   9.358
 5483W        W 9547   0.328   0.951   9.485
 5484W        W 9548  10.442   6.177   0.992
 5485W        W 9549   5.081   6.134  10.578
 5486W        W 9550   0.106   9.186  11.331
 5487W        W 9551   7.076   7.153   1.344
 5488W        W 9552   4.990  10.479   8.783
 5489W        W 9553   3.746   6.191   9.172
 5490W        W 9554   3.337   0.479   1.162
 5491W        W 9555   4.808   2.902  10.994
 5492W        W 9556   2.746   3.238  11.266
 5493W        W 9557   6.486   9.919   3.003
 5494W        W 9558   4.247   9.554  11.383
 5495W        W 9559   0.720   9.125   0.643
 5496W        W 9560   9.066   2.315   8.400
 5497W        W 9561   9.961   6.642   9.912
 5498W        W 9562   5.164  10.003  11.108
 5499W        W 9563   7.028   2.681   2.787
 5500W        W 9564   3.810   2.949   9.661
 5501W        W 9565   3.217   2.368  11.282
 5502W        W 9566   6.562   3.783   8.919
 5503W        W 9567   1.031   7.896  11.910
 5504W        W 9568  10.340   3.144  10.122
 5505W        W 9569   3.015   2.804   2.334
 5506W        W 9570   0.457   5.631   2.377
 5507W        W 9571   7.746   1.547   1.065
 5508W        W 9572   1.145   9.727   9.739
 5509W        W 9573   2.164   6.118   9.940
 5510W        W 9574   9.318   6.460   8.752
 5511W        W 9575   0.198   5.985   3.421
 5512W        W 9576   8.045   6.451   0.460
 5513W        W 9577   7.551   1.922   1.350
 5514W        W 9578   9.822   3.352   3.113
 5515W        W 9579   5.436   2.980   8.880
 5516W        W 9580   6.047   6.599   1.869
 5517W        W 9581   6.197   0.840   3.057
 5518W        W 9582   7.584   1.565   9.694
 5519W        W 9583   0.429   6.495  11.276
 5520W        W 9584   6.289   6.154   0.351
 5521W        W 9585   3.823   3.123   2.368
 5522W        W 9586   2.841   0.459   1.301
 5523W        W 9587   3.731   9.531  11.304
 5524W        W 9588   0.722   3.679   3.693
 5525W        W 9589   8.024   6.649   1.811
 5526W        W 9590   9.221   2.823   9.182
 5527W        W 9591   1.298   0.988   9.516
 5528W        W 9592   1.379   1.486   9.531
 5529W        W 9593   1.847   3.793  11.272
 5530W        W 9594   9.070   5.282  11.425
 5531W        W 9595   4.236   8.028   0.158
 5532W        W 9596   5.067   4.116   2.762
 5533W        W 9597   3.728   3.313   9.298
 5534W        W 9598   6.079   3.253   0.192
 5535W        W 9599   3.537   8.008   2.414
 5536W        W 9600   3.332   0.693  10.630
 5537W        W 9601   0.133   7.079   0.898
 5538W        W 9602   4.497   7.603   0.055
 5539W        W 9603   1.876   0.831  10.416
 5540W        W 9604   7.450   5.434   4.076
 5541W        W 9605   1.792   6.663   0.600
 5542W        W 9606   3.945   5.528   1.139
 5543W        W 9607   8.642   8.834   2.264
 5544W        W 9608   5.058   4.897  11.482
 5545W        W 9609   9.074   5.753  11.599
 5546W        W 9610   5.287   6.398   9.927
 5547W        W 9611   5.734   6.414   0.890
 5548W        W 9612   2.407  10.350   3.481
 5549W        W 9613   2.490   0.863  10.932
 5550W        W 9614   1.037   5.679  10.456
 5551W        W 9615   7.133   2.258   2.008
 5552W        W 9616   3.985   0.315  10.938
 5553W        W 9617   7.423   6.281   2.371
 5554W        W 9618   2.308   1.944   9.281
 5555W        W 9619   5.939   7.635   3.543
 5556W        W 9620   4.410  10.360   0.496
 5557W        W 9621   4.139   6.599   8.639
 5558W        W 9622   5.741   2.526  11.834
 5559W        W 9623   6.976   7.144   9.525
 5560W        W 9624   7.412   2.246  10.739
 5561W        W 9625   6.448   5.683   0.131
 5562W        W 9626   3.317   9.652   8.510
 5563W        W 9627   2.175   5.918   0.878
 5564W        W 9628   5.992   2.812   0.440
 5565W        W 9629   6.484   2.457   8.559
 5566W        W 9630   0.818   2.812   2.388
 5567W        W 9631   2.070   8.455   0.716
 5568W        W 9632   4.212   6.104   0.438
 5569W        W 9633   5.715   1.278  10.933
 5570W        W 9634   6.401   9.123   0.915
 5571W        W 9635  10.481   6.379   3.174
 5572W        W 9636   5.161   1.827   8.830
 5573W        W 9637   5.903   0.960   0.434
 5574W        W 9638   1.981   9.907   3.571
 5575W        W 9639   4.665   9.438  10.577
 5576W        W 9640   7.066   8.582   1.256
 5577W        W 9641   1.664   8.575   9.530
 5578W        W 9642   8.066   7.971   2.924
 5579W        W 9643   6.115   0.491  11.122
 5580W        W 9644   1.163   0.429   0.176
 5581W        W 9645   1.518   4.253   0.251
 5582W        W 9646   9.631   4.597   3.452
 5583W        W 9647   3.143   3.609   9.572
 5584W        W 9648   8.915   8.809  11.557
 5585W        W 9649   9.802   7.454   0.728
 5586W        W 9650   3.282   1.569  10.874
 5587W        W 9651   7.402   1.634   0.459
 5588W        W 9652   5.928   8.029   2.350
 5589W        W 9653   6.995   2.782   9.756
 5590W        W 9654   2.670   2.833   0.961
 5591W        W 9655   3.023   9.779   3.165
 5592W        W 9656   9.568   7.219   2.576
 5593W        W 9657   8.167   6.260   3.551
 5594W        W 9658   4.717   0.331  11.964
 5595W        W 9659   0.277   5.432   1.366
 5596W        W 9660   5.956   7.954   1.396
 5597W        W 9661   6.578   3.653  11.038
 5598W        W 9662   7.107   1.373   3.209
 5599W        W 9663   9.971   7.069   2.871
 5600W        W 9664   9.824   0.977  11.222
 5601W        W 9665   5.243   3.158   9.397
 5602W        W 9666   9.325   6.011   9.003
 5603W        W 9667   1.327   9.971   1.897
 5604W        W 9668   6.980   8.115  11.831
 5605W        W 9669   3.146   6.671   0.549
 5606W        W 9670   7.246  10.407  10.029
 5607W        W 9671   7.513   2.375   1.142
 5608W        W 9672   6.613   2.106  10.019
 5609W        W 9673   9.476   1.049   0.931
 5610W        W 9674   2.262   9.125  10.110
 5611W        W 9675   8.088   1.413  11.855
 5612W        W 9676   5.640   3.406   2.368
 5613W        W 9677   3.793   5.952   9.617
 5614W        W 9678  10.452   1.958   0.048
 5615W        W 9679   4.132   1.324   2.248
 5616W        W 9680   4.688   9.305   1.970
 5617W        W 9681   7.855   5.609   0.203
 5618W        W 9682   5.555   8.913   2.503
 5619W        W 9683   0.790   5.180  10.991
 5620W        W 9684   8.987   4.577   0.775
 5621W        W 9685   5.205   9.951   9.030
 5622W        W 9686   0.230   6.936   0.382
 5623W        W 9687   8.016   4.526   9.047
 5624W        W 9688   0.266   2.818   2.386
 5625W        W 9689   7.439   3.130  10.241
 5626W        W 9690   1.406   9.286   3.847
 5627W        W 9691   2.263  10.037  10.923
 5628W        W 9692   8.888   8.833   1.358
 5629W        W 9693   6.580   7.849   2.853
 5630W        W 9694   0.932   8.630   0.133
 5631W        W 9695   4.191   6.105   1.483
 5632W        W 9696   6.566   8.634  11.999
 5633W        W 9697   2.424   1.720   0.187
 5634W        W 9698   0.181   9.917   8.879
 5635W        W 9699   7.617   8.001   2.209
 5636W        W 9700   2.275   5.111   1.966
 5637W        W 9701   2.722   3.573  10.280
 5638W        W 9702   5.285   2.641   1.182
 5639W        W 9703   5.947   9.010   1.187
 5640W        W 9704   7.866   3.233   3.526
 5641W        W 9705   4.692   7.936  11.706
 5642W        W 9706   1.956   8.922   0.205
 5643W        W 9707  10.498   0.237   9.415
 5644W        W 9708   4.991   4.456  10.097
 5645W        W 9709   0.466  10.398   2.933
 5646W        W 9710   4.559   2.837   3.446
 5647W        W 9711   7.259   3.189   1.552
 5648W        W 9712   8.430   8.092   9.748
 5649W        W 9713   1.562   8.557  11.294
 5650W        W 9714   0.869   7.979   1.229
 5651W        W 9715   8.149   3.654   1.225
 5652W        W 9716   1.921   7.865   1.970
 5653W        W 9717   2.867   9.423   1.366
 5654W        W 9718   8.506   2.431   1.272
 5655W        W 9719   1.825   1.181   9.766
 5656W        W 9720   3.329   5.028   1.765
 5657W        W 9721   7.052   5.963   9.093
 5658W        W 9722   0.120   5.399  10.505
 5659W        W 9723   6.086  10.287   1.694
 5660W        W 9724   4.082   2.907  11.381
 5661W        W 9725   6.458   9.272   9.347
 5662W        W 9726   6.929   8.957  11.289
 5663W        W 9727   3.478   2.205   1.020
 5664W        W 9728   3.337   6.737  11.753
 5665W        W 9729   0.599   4.976  11.422
 5666W        W 9730  10.366   5.427  11.361
 5667W        W 9731   5.535   4.120   1.834
 5668W        W 9732   0.864   2.324   3.202
 5669W        W 9733   5.217   7.054   9.158
 5670W        W 9734   3.243   5.149   9.276
 5671W        W 9735   0.492   8.249   9.068
 5672W        W 9736   1.022   7.369   0.783
 5673W        W 9737   1.000   2.131   0.230
 5674W        W 9738   7.837   6.653   0.002
 5675W        W 9739   9.342   0.567   3.133
 5676W        W 9740   4.618   4.462   3.898
 5677W        W 9741   6.424   0.157  11.957
 5678W        W 9742  10.491   3.930   0.158
 5679W        W 9743   6.070   9.327  10.000
 5680W        W 9744   4.540   5.294   9.698
 5681W        W 9745   8.539   5.892   9.562
 5682W        W 9746   9.907   8.290  11.994
 5683W        W 9747   5.646   1.829   8.999
 5684W        W 9748   1.247   0.320  11.029
 5685W        W 9749   3.247   8.317   8.832
 5686W        W 9750   9.473   7.842  10.979
 5687W        W 9751   9.927   9.799   1.693
 5688W        W 9752   5.705   3.480  10.352
 5689W        W 9753   7.424   3.122   8.851
 5690W        W 9754   1.841   7.902   0.465
 5691W        W 9755   1.364   3.827   1.052
 5692W        W 9756   5.138   8.637   0.641
 5693W        W 9757   0.751   0.883  11.541
 5694W        W 9758   1.400   0.238   9.887
 5695W        W 9759   8.152   5.923   1.385
 5696W        W 9760   9.508   5.721   1.231
 5697W        W 9761   0.871   5.439  10.020
 5698W        W 9762   3.674   5.927   3.643
 5699W        W 9763   3.470  10.313   9.385
 5700W        W 9764   7.702   1.829   8.694
 5701W        W 9765   1.304   4.957  10.959
 5702W        W 9766   7.716   6.337   9.779
 5703W        W 9767   5.084   3.637   1.399
 5704W        W 9768   1.213  10.260   1.390
 5705W        W 9769   6.597   3.280   3.306
 5706W        W 9770   0.838   4.000   9.460
 5707W        W 9771   1.305   7.835  10.568
 5708W        W 9772   3.394   7.529   2.680
 5709W        W 9773   2.819   4.081  10.191
 5710W        W 9774   1.670   2.798  11.504
 5711W        W 9775   0.854   6.467  11.566
 5712W        W 9776   5.436   8.441   3.158
 5713W        W 9777   2.194   3.311   1.851
 5714W        W 9778   5.994   5.445  11.987
 5715W        W 9779   7.640   0.110   0.767
 5716W        W 9780   2.153   9.318   9.627
 5717W        W 9781   7.664   1.217   0.665
 5718W        W 9782   3.717   3.626   1.659
 5719W        W 9783   7.125  10.441   3.130
 5720W        W 9784   5.685   0.783  11.136
 5721W        W 9785   7.989   2.616   0.250
 5722W        W 9786   3.325   0.723  11.462
 5723W        W 9787   8.779   2.303   9.859
 5724W        W 9788   2.771   1.467   9.876
 5725W        W 9789   6.936   5.032  10.251
 5726W        W 9790   4.434   5.093   3.608
 5727W        W 9791   1.238   9.289   1.262
 5728W        W 9792   2.403   5.668   9.958
 5729W        W 9793   3.211   3.307   9.127
 5730W        W 9794   9.114   3.293   1.872
 5731W        W 9795   5.499   3.717   0.509
 5732W        W 9796   0.191   9.561  11.954
 5733W        W 9797   5.107   3.148   1.170
 5734W        W 9798   5.669   6.537   3.124
 5735W        W 9799  10.333   7.197  10.860
 5736W        W 9800   9.882   9.041   1.443
 5737W        W 9801   6.883   9.924   2.637
 5738W        W 9802   4.612   2.382   0.702
 5739W        W 9803   1.343   0.879   0.356
 5740W        W 9804   6.155   0.073  10.765
 5741W        W 9805   3.754   5.017   2.125
 5742W        W 9806   1.293   1.021   3.062
 5743W        W 9807   3.883   0.890  11.182
 5744W        W 9808   7.491   9.560   9.760
 5745W        W 9809   7.059   8.144  11.314
 5746W        W 9810  10.075  10.458   2.907
 5747W        W 9811   1.847   1.672   9.598
 5748W        W 9812   4.764  10.453   9.658
 5749W        W 9813   6.354   9.990   8.766
 5750W        W 9814   2.890   7.564   9.364
 5751W        W 9815   2.410   6.115  11.465
 5752W        W 9816   7.606   5.369   2.148
 5753W        W 9817   4.550   3.141   1.810
 5754W        W 9818   8.960   0.505   9.137
 5755W        W 9819   8.372   2.273  10.230
 5756W        W 9820   9.150  10.310   1.272
 5757W        W 9821   6.984   6.098  10.839
 5758W        W 9822   4.440   7.743   1.233
 5759W        W 9823   9.476   2.154   3.381
 5760W        W 9824   4.148   7.019   3.316
 5761W        W 9825   4.606   8.821   2.129
 5762W        W 9826   2.167   2.389   9.535
 5763W        W 9827   4.678   8.386  11.446
 5764W        W 9828   4.520   5.452   9.220
 5765W        W 9829   5.178   0.950  10.933
 5766W        W 9830   9.492   4.870   2.989
 5767W        W 9831  10.379   2.887   3.575
 5768W        W 9832   4.628   0.440   1.530
 5769W        W 9833   3.472   5.599   8.150
 5770W        W 9834   8.610   0.973   0.918
 5771W        W 9835   1.462   9.286   8.774
 5772W        W 9836   2.222   6.410   0.781
 5773W        W 9837   2.911   4.800   0.858
 5774W        W 9838   8.106   8.533   1.124
 5775W        W 9839   8.857   7.408  10.232
 5776W        W 9840   0.978  10.202  10.551
 5777W        W 9841   7.334   4.110   1.033
 5778W        W 9842   1.151   6.525   0.010
 5779W        W 9843   2.488   9.593  10.782
 5780W        W 9844   7.092   9.948  10.242
 5781W        W 9845   3.077   7.991   9.570
 5782W        W 9846   0.432   5.210   9.385
 5783W        W 9847   9.166   7.931   3.287
 5784W        W 9848   0.303   8.605  11.919
 5785W        W 9849   7.420   5.690   3.630
 5786W        W 9850   0.526   8.603  10.609
 5787W        W 9851   8.379   9.471   1.949
 5788W        W 9852   8.935   6.614  11.493
 5789W        W 9853   0.853   2.168   9.012
 5790W        W 9854   7.528   6.523   1.935
 5791W        W 9855   4.542   4.140   1.305
 5792W        W 9856   0.460   4.558  10.538
 5793W        W 9857   3.696   0.791   2.750
 5794W        W 9858   5.503   3.321  10.830
 5795W        W 9859   2.500   1.733  11.334
 5796W        W 9860   2.378   0.344   1.957
 5797W        W 9861   3.171   5.254   3.382
 5798W        W 9862   4.248  10.210  11.718
 5799W        W 9863   0.487   4.641   3.415
 5800W        W 9864   9.146   6.634  10.574
 5801W        W 9865  10.293   7.206   0.472
 5802W        W 9866   0.724   6.065   9.841
 5803W        W 9867   0.189   8.133   0.092
 5804W        W 9868   2.128   2.099   0.026
 5805W        W 9869   3.630   4.998   4.216
 5806W        W 9870   4.611   5.702   2.391
 5807W        W 9871   7.522   2.644   0.008
 5808W        W 9872   9.008   9.515  10.464
 5809W        W 9873  10.015  10.298  11.060
 5810W        W 9874   3.363   8.382   0.614
 5811W        W 9875   0.950  10.400   0.970
 5812W        W 9876   8.438   1.777  10.387
 5813W        W 9877   3.159   4.792   0.372
 5814W        W 9878   5.656   2.312   2.884
 5815W        W 9879   0.498   1.127  10.508
 5816W        W 9880   3.664   8.162   3.333
 5817W        W 9881   9.352   9.435   0.069
 5818W        W 9882   1.707   3.766  10.279
 5819W        W 9883   6.179   7.661  11.148
 5820W        W 9884   2.606  10.368   1.319
 5821W        W 9885   9.085   9.887   0.956
 5822W        W 9886   0.670   8.233  11.968
 5823W        W 9887   9.988   4.618  11.791
 5824W        W 9888   1.465   3.439   2.550
 5825W        W 9889   3.806   9.344   2.665
 5826W        W 9890   3.055   9.601   9.849
 5827W        W 9891   0.366   3.911   9.628
 5828W        W 9892   1.294   3.759   9.049
 5829W        W 9893   0.878   8.572   1.390
 5830W        W 9894   4.034   7.489   9.000
 5831W        W 9895   3.335   0.466   0.156
 5832W        W 9896   9.460   9.986   1.769
 5833W        W 9897   2.312   5.973   0.366
 5834W        W 9898   3.821   0.420  11.951
 5835W        W 9899   1.061   9.935   3.534
 5836W        W 9900   9.511   3.447  11.018
 5837W        W 9901   2.130   4.386   2.767
 5838W        W 9902   4.973   7.115   8.461
 5839W        W 9903   4.210   1.789   9.816
 5840W        W 9904   0.484  10.293   0.789
 5841W        W 9905   2.670   5.955  10.786
 5842W        W 9906   0.783   0.326   9.970
 5843W        W 9907   6.566   1.650  11.831
 5844W        W 9908   4.506   5.031   3.094
 5845W        W 9909   3.975   5.086   3.836
 5846W        W 9910   1.945   4.703   1.961
 5847W        W 9911   1.857   7.022   8.898
 5848W        W 9912   8.292   2.329   9.722
 5849W        W 9913   4.657   5.015  11.761
 5850W        W 9914   5.072   4.976  10.106
 5851W        W 9915   0.224   6.945   1.781
 5852W        W 9916  10.309   0.063   2.109
 5853W        W 9917   6.788   6.940   9.959
 5854W        W 9918   1.057   3.980  10.426
 5855W        W 9919   6.968   4.535   1.961
 5856W        W 9920   5.957   6.441   2.723
 5857W        W 9921   1.967   9.759   9.446
 5858W        W 9922   3.058  10.013  11.980
 5859W        W 9923   2.576   6.602  11.565
 5860W        W 9924   4.716   0.725  11.631
 5861W        W 9925   7.144   1.736   9.964
 5862W        W 9926   2.632  10.280   1.837
 5863W        W 9927  10.036   9.574   2.893
 5864W        W 9928   2.168   2.275   2.338
 5865W        W 9929   1.302   3.107  11.353
 5866W        W 9930   3.760   9.351   9.480
 5867W        W 9931   0.508  10.472  11.867
 5868W        W 9932   0.967   3.359  11.628
 5869W        W 9933  10.317   7.940   9.739
 5870W        W 9934   6.127   6.626   9.511
 5871W        W 9935   0.479   5.732  10.185
 5872W        W 9936   6.783   5.021   4.026
 5873W        W 9937   7.849   3.102   0.196
 5874W        W 9938   3.761   7.152   0.358
 5875W        W 9939   6.482   4.081  10.219
 5876W        W 9940   7.655   8.363   3.546
 5877W        W 9941   6.629   2.610  10.058
 5878W        W 9942   5.996   5.708   1.245
 5879W        W 9943   4.145   4.268   1.803
 5880W        W 9944  10.467  10.401  10.388
 5881W        W 9945   5.552   9.579  11.950
 5882W        W 9946   5.498   0.269   3.233
 5883W        W 9947   6.439   4.030  11.393
 5884W        W 9948   9.468   1.355   2.187
 5885W        W 9949   8.333   5.749  10.873
 5886W        W 9950   5.731   2.134   3.384
 5887W        W 9951   3.076   9.363   1.841
 5888W        W 9952   5.008   5.054   2.896
 5889W        W 9953   2.524   2.754   9.391
 5890W        W 9954   0.341   3.033   9.823
 5891W        W 9955   4.109   3.880  11.298
 5892W        W 9956   1.280   8.984   2.528
 5893W        W 9957   1.985   0.417   3.562
 5894W        W 9958   7.883   8.440   3.097
 5895W        W 9959   6.503   7.282   1.765
 5896W        W 9960   7.246   0.853   9.976
 5897W        W 9961   1.261   8.117   3.537
 5898W        W 9962   6.576   5.759   3.881
 5899W        W 9963   2.321   5.198  10.210
 5900W        W 9964   5.109   3.393   8.086
 5901W        W 9965   1.143   4.308   0.992
 5902W        W 9966   1.586   4.963   9.927
 5903W        W 9967   8.647   1.557   3.528
 5904W        W 9968   3.540   3.087   1.922
 5905W        W 9969   2.214   5.238   3.513
 5906W        W 9970   5.548   2.624   3.311
 5907W        W 9971   7.254   6.214   0.461
 5908W        W 9972   5.228   1.349  11.676
 5909W        W 9973   9.128   7.043   0.677
 5910W        W 9974   2.292   2.779   9.880
 5911W        W 9975  10.032   4.029  10.519
 5912W        W 9976  10.074   1.329  10.206
 5913W        W 9977   7.706   9.476   2.669
 5914W        W 9978   0.853   1.631  10.281
 5915W        W 9979   3.767   8.459  11.026
 5916W        W 9980   3.083   0.029  11.997
 5917W        W 9981   1.991   9.344   1.022
 5918W        W 9982   5.477   7.041   3.154
 5919W        W 9983   9.722  10.410   0.443
 5920W        W 9984   4.307   2.436  10.311
 5921W        W 9985   7.707   8.019   0.291
 5922W        W 9986   4.707   1.391   1.508
 5923W        W 9987   6.589   9.703  11.979
 5924W        W 9988   3.271   5.757   2.297
 5925W        W 9989   6.040   4.306   9.986
 5926W        W 9990   5.019   1.320   9.216
 5927W        W 9991   6.944   9.496  10.527
 5928W        W 9992   0.641   6.624   0.476
 5929W        W 9993   8.907  10.373   9.056
 5930W        W 9994   9.142   7.028   9.865
 5931W        W 9995   9.357   5.164   0.760
 5932W        W 9996   9.899   7.545   9.853
 5933W        W 9997   9.672   0.429   2.408
 5934W        W 9998   2.318   9.780   1.046
 5935W        W 9999   8.179   3.132   2.007
 5936W        W10000   3.283   1.298   2.273
 5937W        W10001   6.041   1.804   2.965
 5938W        W10002   6.006   7.403  10.320
 5939W        W10003   2.425   9.459   2.684
 5940W        W10004   7.189   1.211   9.576
 5941W        W10005   2.704   1.973  10.020
 5942W        W10006   8.622   9.493  10.821
 5943W        W10007   9.325   6.968   2.139
 5944W        W10008   5.714   6.069   2.475
 5945W        W10009   3.921   1.353  11.398
 5946W        W10010   3.254   4.317   1.289
 5947W        W10011   4.531   4.057   9.841
 5948W        W10012   5.213   5.595   3.108
 5949W        W10013   7.977   3.617   2.662
 5950W        W10014   2.790   3.368  10.748
 5951W        W10015   4.736  10.036   8.830
 5952W        W10016   1.868  10.318   8.733
 5953W        W10017   7.415   4.996   9.989
 5954W        W10018   1.908   2.331   0.480
 5955W        W10019   1.091   5.560   1.075
 5956W        W10020  10.255   8.052   1.378
 5957W        W10021   0.831   8.095  11.473
 5958W        W10022   0.941   0.133   8.608
 5959W        W10023   5.435   7.555   4.203
 5960W        W10024   0.005   5.875   2.448
 5961W        W10025   5.461   0.384   9.402
 5962W        W10026  10.456   7.004   9.266
 5963W        W10027   4.597   7.419  11.614
 5964W        W10028   1.292   2.374   9.200
 5965W        W10029   7.026   7.695  11.565
 5966W        W10030   5.289   2.157  10.087
 5967W        W10031   5.478   3.997  11.675
 5968W        W10032   3.279   5.629   3.740
 5969W        W10033   1.810   7.583   3.159
 5970W        W10034   9.019   1.533   2.318
 5971W        W10035   4.371   4.525   9.493
 5972W        W10036   6.590   2.112   0.043
 5973W        W10037   4.659  10.474  11.591
 5974W        W10038   3.197   7.050   9.993
 5975W        W10039   4.560   4.391   8.437
 5976W        W10040   3.212   9.919   2.707
 5977W        W10041   3.410   3.507   3.352
 5978W        W10042   5.758   5.581   8.589
 5979W        W10043   6.062  10.077  11.048
 5980W        W10044   2.553   9.431   1.803
 5981W        W10045   2.963   6.074   3.109
 5982W        W10046  10.002   9.730   0.818
 5983W        W10047   9.870   1.683   2.910
 5984W        W10048   5.582   4.342   8.447
 5985W        W10049   2.549   9.163  10.517
 5986W        W10050   1.259  10.328   0.535
 5987W        W10051   9.197   0.959   2.368
 5988W        W10052   5.098   8.166   0.441
 5989W        W10053  10.214   8.859   9.125
 5990W        W10054   9.302   1.331   2.723
 5991W        W10055  10.034   1.777   9.035
 5992W        W10056   2.514   8.234   0.831
 5993W        W10057   8.468   1.075  10.511
 5994W        W10058   3.698   7.115   1.027
 5995W        W10059   6.597   6.555  10.231
 5996W        W10060   3.036   2.704   9.315
 5997W        W10061   8.951   5.934   3.224
 5998W        W10062   8.687   3.874   3.710
 5999W        W10063   9.130  10.235  10.999
 6000W        W10064   9.838   8.874   3.280
 6001W        W10065   5.704   4.755   8.996
 6002W        W10066   0.274   2.227   1.285
 6003W        W10067   2.664   3.858  10.738
 6004W        W10068  10.261   2.657   1.519
 6005W        W10069   3.385   8.457   2.660
 6006W        W10070   5.467   2.284   8.839
 6007W        W10071   3.654   4.068   3.625
 6008W        W10072   5.632   4.871   8.491
 6009W        W10073   3.342   7.505   9.736
 6010W        W10074   4.678   8.122   1.451
 6011W        W10075   8.968   1.736   2.803
 6012W        W10076   9.500   9.939   1.261
 6013W        W10077   8.684   2.719   9.091
 6014W        W10078   2.627   3.065  10.339
 6015W        W10079   2.280   3.847  10.305
 6016W        W10080   0.638   7.596  10.558
 6017W        W10081   6.696   1.672  11.294
 6018W        W10082   8.562   8.851   0.012
 6019W        W10083   2.275   9.872   1.910
 6020W        W10084   6.363   0.464   8.957
 6021W        W10085   7.350   5.705   0.246
 6022W        W10086   9.845   9.216   8.933
 6023W        W10087   6.699   7.844   3.370
 6024W        W10088   1.849   6.539   1.120
 6025W        W10089   8.079   9.446   1.088
 6026W        W10090   7.411   5.605   0.738
 6027W        W10091   0.290   4.734   9.564
 6028W        W10092   1.648   1.983   0.181
 6029W        W10093   2.222  10.297  11.951
 6030W        W10094   5.702   1.584   0.276
 6031W        W10095   0.756   1.273   9.332
 6032W        W10096   2.626   5.498   9.513
 6033W        W10097   2.888   4.282   3.242
 6034W        W10098   8.905  10.436   2.711
 6035W        W10099   1.808   3.682   8.927
 6036W        W10100   7.909  10.372   9.348
 6037W        W10101   5.220   1.890   1.695
 6038W        W10102   6.604   3.066  11.732
 6039W        W10103   6.380   3.295  10.722
 6040W        W10104   8.121   5.742  11.775
 6041W        W10105   8.953   5.315  11.963
 6042W        W10106   1.895   1.272   8.791
 6043W        W10107   8.791   0.171   1.234
 6044W        W10108   3.316   8.147   1.131
 6045W        W10109   0.693   9.808   8.941
 6046W        W10110   4.217   7.554   3.053
 6047W        W10111   5.482   5.008   9.397
 6048W        W10112   2.404   9.968   0.588
 6049W        W10113   1.756   5.695   2.807
 6050W        W10114   6.521  10.457   1.131
 6051W        W10115   5.069   0.790  10.460
 6052W        W10116   6.038   2.247  10.779
 6053W        W10117   8.151   9.669   2.415
 6054W        W10118   7.288   7.960   1.798
 6055W        W10119   4.160   1.426   3.254
 6056W        W10120   4.057   2.652   2.208
 6057W        W10121   0.266   9.644  11.011
 6058W        W10122   6.932   1.349   1.673
 6059W        W10123   5.164   9.289   1.823
 6060W        W10124   8.191   2.441   0.857
 6061W        W10125   3.793   0.903  10.685
 6062W        W10126   6.022   7.222   2.496
 6063W        W10127   3.295   5.792   0.445
 6064W        W10128   6.876   8.941   9.420
 6065W        W10129   7.578   7.569  10.440
 6066W        W10130   3.479   5.503   0.849
 6067W        W10131   2.021   5.356  11.727
 6068W        W10132   8.562   0.715   0.066
 6069W        W10133   0.397   2.388   0.802
 6070W        W10134   9.767   7.880   9.042
 6071W        W10135   1.808   2.686   0.863
 6072W        W10136   7.889  10.343  10.985
 6073W        W10137   9.149   0.311  10.474
 6074W        W10138   5.873   8.202   8.267
 6075W        W10139   5.113   5.178  11.975
 6076W        W10140   4.698   7.378   1.804
 6077W        W10141   4.278   4.672   2.743
 6078W        W10142   0.967   5.540   2.418
 6079W        W10143   6.131   0.472  11.641
 6080W        W10144   7.931   5.231  11.849
 6081W        W10145   7.163   1.718   9.435
 6082W        W10146   5.728   7.558   9.572
 6083W        W10147   9.273   8.749   9.392
 6084W        W10148   7.596   4.966   1.110
 6085W        W10149   8.826   0.709  10.318
 6086W        W10150   1.735   1.787   0.653
 6087W        W10151   1.697   0.808   1.586
 6088W        W10152   1.203   5.165   3.493
 6089W        W10153  10.245   2.791   2.393
 6090W        W10154   0.002   8.918   1.651
 6091W        W10155   5.673   1.693  11.255
 6092W        W10156   8.078   1.290   0.357
 6093W        W10157   2.181  10.476   9.573
 6094W        W10158   2.649   6.358  11.099
 6095W        W10159   4.188   9.449   3.179
 6096W        W10160   8.848   5.085   0.822
 6097W        W10161   9.513   9.060   0.817
 6098W        W10162   9.288   9.813  10.090
 6099W        W10163   2.860   3.152   9.489
 6100W        W10164   3.119   6.213  10.045
 6101W        W10165   6.655   3.236   2.224
 6102W        W10166   7.046   6.923   3.232
 6103W        W10167   8.690   2.385  11.120
 6104W        W10168   3.151   4.382  11.425
 6105W        W10169   4.192   0.035   9.563
 6106W        W10170   6.610   7.617   9.525
 6107W        W10171   2.456   1.642  10.283
 6108W        W10172   0.240   5.709  11.539
 6109W        W10173   8.412   7.775  11.476
 6110W        W10174   0.212   1.795  11.172
 6111W        W10175   4.578   9.592   9.027
 6112W        W10176   3.530   2.828   9.217
 6113W        W10177   0.065   1.343  10.335
 6114W        W10178   7.614   0.642   0.817
 6115W        W10179   2.181   8.141  10.160
 6116W        W10180   8.979   1.217  10.247
 6117W        W10181   3.829   8.030  11.349
 6118W        W10182   9.003   5.520   0.494
 6119W        W10183   6.501   4.404   8.442
 6120W        W10184   7.940   2.814  11.766
 6121W        W10185   6.395   0.973   0.394
 6122W        W10186   7.072   5.523   3.308
 6123W        W10187   3.464   5.027   0.011
 6124W        W10188   4.644   0.242   3.434
 6125W        W10189   1.526  10.155   3.683
 6126W        W10190   3.616   3.160   8.814
 6127W        W10191   2.920   4.742   2.519
 6128W        W10192   7.106   4.052   2.090
 6129W        W10193   9.871   7.473   3.156
 6130W        W10194   2.679   5.002   0.433
 6131W        W10195   8.872   7.669   9.221
 6132W        W10196   6.871   1.231   9.982
 6133W        W10197   5.893   8.134   0.442
 6134W        W10198   7.297   4.942   3.998
 6135W        W10199   4.565   0.008   1.010
 6136W        W10200   8.535   4.056  11.333
 6137W        W10201   3.170   5.688  11.244
 6138W        W10202   5.626   2.653   1.892
 6139W        W10203   6.373   8.796   9.533
 6140W        W10204   2.588   1.955   2.169
 6141W        W10205   3.371   9.783   1.832
 6142W        W10206   0.668   7.841   8.508
 6143W        W10207   5.630   8.316   1.174
 6144W        W10208   2.474   4.821   9.885
 6145W        W10209   0.254   4.355  11.972
 6146W        W10210   3.706   0.868   1.203
 6147W        W10211   0.384   3.825   9.141
 6148W        W10212   5.897   9.570   2.497
 6149W        W10213   1.699   3.799   1.842
 6150W        W10214   4.786   6.249   2.432
 6151W        W10215   1.759   8.091   3.321
 6152W        W10216   1.716   3.905   9.390
 6153W        W10217   4.720   0.775  11.104
 6154W        W10218   9.913   8.494  11.521
 6155W        W10219   0.423   6.162   2.468
 6156W        W10220   2.340   1.739   9.744
 6157W        W10221   8.010   5.066   2.189
 6158W        W10222   5.486  10.330  10.203
 6159W        W10223   3.296   2.352   2.638
 6160W        W10224   1.866   3.584   3.354
 6161W        W10225   5.128   9.545   0.273
 6162W        W10226   6.025   1.294   2.807
 6163W        W10227   8.944   2.036   2.377
 6164W        W10228   9.082   5.260   2.028
 6165W        W10229   0.704   7.180   1.761
 6166W        W10230   2.268   4.160   0.888
 6167W        W10231   7.133   1.251   0.711
 6168W        W10232   7.597   2.848   0.966
 6169W        W10233   6.794   6.907   2.730
 6170W        W10234   9.512   8.374   2.462
 6171W        W10235   1.232   2.827   9.469
 6172W        W10236   2.221   9.341  11.875
 6173W        W10237   7.495   5.635  10.880
 6174W        W10238   0.393   0.853   0.913
 6175W        W10239   5.583   4.301   2.595
 6176W        W10240   1.420   3.399   0.309
 6177W        W10241   8.913   9.477   1.792
 6178W        W10242   4.712   5.760  11.366
 6179W        W10243   7.239   2.546   0.740
 6180W        W10244   3.706   7.979   1.432
 6181W        W10245   7.732  10.225  11.999
 6182W        W10246   0.391   5.982  11.148
 6183W        W10247   0.790   0.418  11.807
 6184W        W10248   3.110   3.566   0.013
 6185W        W10249   0.334   8.630   3.135
 6186W        W10250   4.239   9.205   9.511
 6187W        W10251   2.370   3.068   0.340
 6188W        W10252   3.119   2.736   3.516
 6189W        W10253   5.216   3.835   8.977
 6190W        W10254   2.834   8.855   1.159
 6191W        W10255  10.303   5.712   1.738
 6192W        W10256   0.959   2.118  10.428
 6193W        W10257   5.542   2.643   0.298
 6194W        W10258   6.444   4.282   8.934
 6195W        W10259   3.242   9.280  11.487
 6196W        W10260   3.762   4.692   0.995
 6197W        W10261   0.801   1.447   1.975
 6198W        W10262   9.527   1.604  11.738
 6199W        W10263   8.084   8.272   0.606
 6200W        W10264   1.841   5.089  10.332
 6201W        W10265   9.902   6.458   1.942
 6202W        W10266   4.947   6.449   0.311
 6203W        W10267   3.372   9.901  10.684
 6204W        W10268   6.565   2.458   2.863
 6205W        W10269   5.372   3.374   8.538
 6206W        W10270   8.953   3.127   8.892
 6207W        W10271   3.199   1.380  10.123
 6208W        W10272   9.797   6.545   8.886
 6209W        W10273   9.966   7.030   8.499
 6210W        W10274   4.625   1.534   2.868
 6211W        W10275   4.604   2.648   2.355
 6212W        W10276   3.985   4.245  11.649
 6213W        W10277   4.443   8.744   9.509
 6214W        W10278   6.209   6.901  11.998
 6215W        W10279   6.118   4.955   0.934
 6216W        W10280   2.791  10.107   2.327
 6217W        W10281   2.137  10.026   9.854
 6218W        W10282   4.703   1.006  10.197
 6219W        W10283   6.570   1.906   1.360
 6220W        W10284   6.115  10.419  10.273
 6221W        W10285   9.359   9.585   2.076
 6222W        W10286   8.659   5.758   8.541
 6223W        W10287   5.477   1.230   0.600
 6224W        W10288   0.642   9.860   9.820
 6225W        W10289   6.856   0.912   1.400
 6226W        W10290   5.224   3.199  11.731
 6227W        W10291   6.079   2.678   9.049
 6228W        W10292   0.438   9.064   3.610
 6229W        W10293   8.111   3.579   8.935
 6230W        W10294   0.688   1.810  11.982
 6231W        W10295   0.977   6.041   9.278
 6232W        W10296   8.043   7.598  10.834
 6233W        W10297   7.942   9.474   1.614
 6234W        W10298   6.967   3.783   9.708
 6235W        W10299   6.079   2.081   1.179
 6236W        W10300   9.310   7.511  10.614
 6237W        W10301   6.608   2.975   2.886
 6238W        W10302   5.637   9.374   1.718
 6239W        W10303   7.085   8.607  11.964
 6240W        W10304   2.844   2.377  10.904
 6241W        W10305   8.569   9.436   8.985
 6242W        W10306   1.295   6.059   1.002
 6243W        W10307   5.255   1.844  10.935
 6244W        W10308   9.083   6.984  11.164
 6245W        W10309   0.002   1.732   1.160
 6246W        W10310   6.577   0.792  10.011
 6247W        W10311   6.105   3.807   8.151
 6248W        W10312   9.245   2.185  10.002
 6249W        W10313   4.075   6.617   1.480
 6250W        W10314   5.182   9.000   9.960
 6251W        W10315   6.111   2.806   1.702
 6252W        W10316   5.218   4.690   9.717
 6253W        W10317   1.654   4.033   3.695
 6254W        W10318   7.361   5.165  11.020
 6255W        W10319   4.514   3.604   9.610
 6256W        W10320   1.986   1.381   2.806
 6257W        W10321   3.107   2.279   8.969
 6258W        W10322   9.473   8.267   0.283
 6259W        W10323   0.855   1.558   8.903
 6260W        W10324   3.844   7.701   1.841
 6261W        W10325   5.604   9.356  10.965
 6262W        W10326   0.716   2.981   1.508
 6263W        W10327   6.878   5.875   1.732
 6264W        W10328   3.057   4.036  11.071
 6265W        W10329   3.087   8.954   9.111
 6266W        W10330   9.866   2.224   0.687
 6267W        W10331   7.902   6.147   1.794
 6268W        W10332  10.237   0.762   0.314
 6269W        W10333   7.518   3.602   8.970
 6270W        W10334   5.943   0.555   9.626
 6271W        W10335   7.915   4.558   2.051
 6272W        W10336   6.927   0.261  10.531
 6273W        W10337   2.171   0.486  11.238
 6274W        W10338   3.315   0.755   2.407
 6275W        W10339   5.833   0.033   9.830
 6276W        W10340  10.157   1.266   3.410
 6277W        W10341   1.234   4.265  11.796
 6278W        W10342   6.646   6.094   8.802
 6279W        W10343   7.995   0.392   3.330
 6280W        W10344   1.430   0.298   2.055
 6281W        W10345   0.328   3.806   1.732
 6282W        W10346   7.931   9.983  10.631
 6283W        W10347   4.142   2.689   0.194
 6284W        W10348   9.476   5.158   9.017
 6285W        W10349   4.186   3.759   1.842
 6286W        W10350   6.591   3.824   2.481
 6287W        W10351   7.714   3.162   1.771
 6288W        W10352   5.394   0.421   2.749
 6289W        W10353   4.884   9.801   3.578
 6290W        W10354   3.821   2.148   8.539
 6291W        W10355   5.450   5.268   9.896
 6292W        W10356   3.121   4.767  10.574
 6293W        W10357   6.966   4.064  10.372
 6294W        W10358   0.343   1.685   3.112
 6295W        W10359   5.576   0.270  11.961
 6296W        W10360   3.291  10.312   3.430
 6297W        W10361   3.389   7.597   3.655
 6298W        W10362   1.263   1.704   0.383
 6299W        W10363   1.723   8.639   4.092
 6300W        W10364   3.734   1.175   3.066
 6301W        W10365   6.054   8.025  11.523
 6302W        W10366   2.861   3.136   0.176
 6303W        W10367   4.237   5.704   9.652
 6304W        W10368   3.643   8.679   1.843
 6305W        W10369   5.556   9.826   0.435
 6306W        W10370   2.273   4.742  11.746
 6307W        W10371   4.160   0.899   2.560
 6308W        W10372   6.777   3.244   1.726
 6309W        W10373   2.473   7.317  10.197
 6310W        W10374   7.925   0.343  11.053
 6311W        W10375   7.372   3.699   1.407
 6312W        W10376   9.851   5.981  11.434
 6313W        W10377   6.228   6.998   9.165
 6314W        W10378   9.163   0.884   9.905
 6315W        W10379   2.777   5.132  10.488
 6316W        W10380   7.484   2.876   2.956
 6317W        W10381   2.269   5.763   1.357
 6318W        W10382   1.222   0.484  11.544
 6319W        W10383   9.470   1.092  11.854
 6320W        W10384   6.080   8.807   9.957
 6321W        W10385   1.390   3.680   3.464
 6322W        W10386   4.842   8.893  11.815
 6323W        W10387   3.346   5.975   2.789
 6324W        W10388   9.080   2.701  10.014
 6325W        W10389   5.253   3.115   2.574
 6326W        W10390   8.971   4.932   1.300
 6327W        W10391   3.767   3.148   1.454
 6328W        W10392   3.209   7.764   1.481
 6329W        W10393  10.091   3.952   9.757
 6330W        W10394   0.028   0.359   1.684
 6331W        W10395   7.086   3.800  10.795
 6332W        W10396   7.922   3.120   8.764
 6333W        W10397   0.209   7.820   2.939
 6334W        W10398   8.437   5.150  11.866
 6335W        W10399   9.074   5.520   1.020
 6336W        W10400   5.770   1.582   3.417
 6337W        W10401   4.035   1.386  10.116
 6338W        W10402   3.160   8.856   1.956
 6339W        W10403   3.344   0.049   9.874
 6340W        W10404   2.449   6.460  10.235
 6341W        W10405   9.351   5.857   0.274
 6342W        W10406   3.144   6.593   3.491
 6343W        W10407   3.802  10.049   1.862
 6344W        W10408   3.340  10.034   9.802
 6345W        W10409   5.015   0.250   1.880
 6346W        W10410   5.297   8.075  10.323
 6347W        W10411   1.374   9.001   2.033
 6348W        W10412   1.398   2.253  10.124
 6349W        W10413   1.855   2.615   3.408
 6350W        W10414   0.189   3.738   2.751
 6351W        W10415   5.767   6.574  11.134
 6352W        W10416   8.032   9.369  11.363
 6353W        W10417   6.165   1.857  11.060
 6354W        W10418   5.092   8.075  11.366
 6355W        W10419   4.514   1.377   9.918
 6356W        W10420   6.140   7.073   0.479
 6357W        W10421   3.058   1.869   0.970
 6358W        W10422   6.927   4.593   1.481
 6359W        W10423   0.979  10.131   8.638
 6360W        W10424   6.344   8.280   3.240
 6361W        W10425   2.471   4.272  10.513
 6362W        W10426   2.126   0.779   9.940
 6363W        W10427   7.197   9.802   0.704
 6364W        W10428   9.345   1.866   2.062
 6365W        W10429   1.808   9.330   9.173
 6366W        W10430   5.599   8.674  11.825
 6367W        W10431   9.772   4.591  11.316
 6368W        W10432   7.122   5.902   2.577
 6369W        W10433   1.830   5.673  10.996
 6370W        W10434   9.349   4.949  11.949
 6371W        W10435   3.094   1.313   9.116
 6372W        W10436   7.879  10.257  11.504
 6373W        W10437   1.550   0.215  11.876
 6374W        W10438   6.336   5.587   2.548
 6375W        W10439   8.555   1.000  11.049
 6376W        W10440   0.642   4.601   1.860
 6377W        W10441   7.518   7.132   0.668
 6378W        W10442   6.627   4.707   3.090
 6379W        W10443   8.522  10.355   3.068
 6380W        W10444   8.074   1.813   2.788
 6381W        W10445   7.057   0.479   0.618
 6382W        W10446   2.215   3.240   2.382
 6383W        W10447   3.189   4.713   9.559
 6384W        W10448   9.305   9.905  10.595
 6385W        W10449   5.341   3.075   2.076
 6386W        W10450   4.152   7.962   3.378
 6387W        W10451   2.410   4.113   2.317
 6388W        W10452   0.724   4.217   0.696
 6389W        W10453   9.444   9.664   9.109
 6390W        W10454   5.742   1.149  11.976
 6391W        W10455   8.846   2.324   1.962
 6392W        W10456   6.927   0.424   8.918
 6393W        W10457   8.937   5.744   1.878
 6394W        W10458   1.721   3.779  10.779
 6395W        W10459   9.660   3.565   3.552
 6396W        W10460   8.470   8.490  10.944
 6397W        W10461   8.085   0.442   0.615
 6398W        W10462   0.781   3.145  10.051
 6399W        W10463   6.216   9.597   0.981
 6400W        W10464   5.317   9.940   0.952
 6401W        W10465  10.069   3.215   2.075
 6402W        W10466  10.394   9.284  10.011
 6403W        W10467   6.002   7.162  11.277
 6404W        W10468   2.348   1.468   1.267
 6405W        W10469   6.726   3.215  10.263
 6406W        W10470   3.698   9.125   3.151
 6407W        W10471   2.849   6.138   8.788
 6408W        W10472   3.323   4.744   2.217
 6409W        W10473   3.579  10.467   0.697
 6410W        W10474   8.955   7.532   8.720
 6411W        W10475   9.703   8.752   9.097
 6412W        W10476  10.426   2.144   2.976
 6413W        W10477   2.373   2.114  10.509
 6414W        W10478   2.043   3.222   9.759
 6415W        W10479   6.890   1.821   1.886
 6416W        W10480   9.956   1.354   2.051
 6417W        W10481   9.809   9.126   2.854
 6418W        W10482   2.961   4.297  10.639
 6419W        W10483   5.582   4.489   9.413
 6420W        W10484   5.497   3.305   3.503
 6421W        W10485   0.392   7.248  11.544
 6422W        W10486   2.182   3.768  11.643
 6423W        W10487  10.043   3.485   9.009
 6424W        W10488   2.726   3.125   8.987
 6425W        W10489   8.617   3.842  10.613
 6426W        W10490   3.769   3.122   3.490
 6427W        W10491   7.249   7.165   2.800
 6428W        W10492   1.860   5.014   1.142
 6429W        W10493   6.814   9.894   9.416
 6430W        W10494   3.572   5.009   2.601
 6431W        W10495   0.386   7.856   0.462
 6432W        W10496   8.961   9.356   1.311
 6433W        W10497   5.778   1.770   9.485
 6434W        W10498   2.179   6.513   0.294
 6435W        W10499   5.327   2.872  10.959
 6436W        W10500   8.987   9.520   9.278
 6437W        W10501   7.214   5.190   8.484
 6438W        W10502   5.127   6.588  10.386
 6439W        W10503   9.487   4.059   0.267
 6440W        W10504   8.334   1.834   0.790
 6441W        W10505   9.135   6.007   3.679
 6442W        W10506   8.901   8.385   3.172
 6443W        W10507   1.714   0.552   0.239
 6444W        W10508   1.304  10.480  11.460
 6445W        W10509  10.001   8.519   2.399
 6446W        W10510   8.439   5.991   1.791
 6447W        W10511   1.203   7.179   3.065
 6448W        W10512   5.747   8.358   9.549
 6449W        W10513   4.266   4.771   8.621
 6450W        W10514   9.971   7.923  11.101
 6451W        W10515   7.248   5.053   3.104
 6452W        W10516   8.043   2.269   1.971
 6453W        W10517   6.447   9.833   0.461
 6454W        W10518   4.971   3.678   9.389
 6455W        W10519   6.138   6.260  11.343
 6456W        W10520   1.880   0.376   3.026
 6457W        W10521   2.193   4.665   9.480
 6458W        W10522   6.470   9.618   9.720
 6459W        W10523   4.947   8.036   2.294
 6460W        W10524   4.429   2.642   1.859
 6461W        W10525  10.261   9.638  10.954
 6462W        W10526   6.228   5.165   2.303
 6463W        W10527   5.473   3.329   1.493
 6464W        W10528   0.749   7.802   9.103
 6465W        W10529   6.228  10.415   3.160
 6466W        W10530   6.329   2.838   0.807
 6467W        W10531   5.446   1.135  10.517
 6468W        W10532   4.680   2.745  10.111
 6469W        W10533   1.840   6.163   2.272
 6470W        W10534   6.248   5.033   3.302
 6471W        W10535   1.610   6.550   8.831
 6472W        W10536   6.079   6.090   1.820
 6473W        W10537   5.667   4.317   1.369
 6474W        W10538   3.838   7.749   0.350
 6475W        W10539   0.423   6.462   3.466
 6476W        W10540   0.878   4.980  10.263
 6477W        W10541   0.164  10.198   2.070
 6478W        W10542   5.271   2.699  11.861
 6479W        W10543   9.567   3.122   0.261
 6480W        W10544  10.197   6.528   8.555
 6481W        W10545   5.248  10.423   2.828
 6482W        W10546   7.468   9.119   9.512
 6483W        W10547   4.470   6.458   0.150
 6484W        W10548   8.618   9.559   2.745
 6485W        W10549   2.386   4.234   1.399
 6486W        W10550  10.368   2.190   0.927
 6487W        W10551   8.020   7.948  10.005
 6488W        W10552   1.446   9.595  11.492
 6489W        W10553   5.652   7.231   3.588
 6490W        W10554   2.860   6.906   8.622
 6491W        W10555   3.018   3.492   0.542
 6492W        W10556   0.351   9.936   3.283
 6493W        W10557   5.501   9.358   2.248
 6494W        W10558   7.699   3.281   1.259
 6495W        W10559   6.171   4.128   4.078
 6496W        W10560   8.102   0.714   1.450
 6497W        W10561   0.421   4.108   1.327
 6498W        W10562   3.540   0.531  11.049
 6499W        W10563   4.792   9.856   1.753
 6500W        W10564   5.039   6.564   3.361
 6501W        W10565   1.847   1.390   0.994
 6502W        W10566   6.249   5.251   1.814
 6503W        W10567  10.017   5.778   2.307
 6504W        W10568   8.613   1.651  11.844
 6505W        W10569   6.042   8.550   1.886
 6506W        W10570   7.388   9.175   2.954
 6507W        W10571   8.869   8.383   1.958
 6508W        W10572   7.416   1.246   2.442
 6509W        W10573   9.558   9.497  11.561
 6510W        W10574   0.965   6.862   0.815
 6511W        W10575   7.001   0.777  11.402
 6512W        W10576   1.218   1.312   2.259
 6513W        W10577   1.634   9.060   3.382
 6514W        W10578   4.021   5.878  10.072
 6515W        W10579   2.647   2.488  11.780
 6516W        W10580   1.591   7.437  10.387
 6517W        W10581   1.179   1.001   1.348
 6518W        W10582   6.092   4.473   1.093
 6519W        W10583   3.357   2.577   1.865
 6520W        W10584   5.824   2.699  10.955
 6521W        W10585   8.352   7.304   1.171
 6522W        W10586   6.263   7.796   0.425
 6523W        W10587   0.551   4.068  10.447
 6524W        W10588   6.538   2.756   2.446
 6525W        W10589   2.212   2.835   1.151
 6526W        W10590   0.640  10.295   1.911
 6527W        W10591   6.298   1.355  10.281
 6528W        W10592   8.977   4.053   9.094
 6529W        W10593   8.813   2.805   0.531
 6530W        W10594   3.196   6.722   1.543
 6531W        W10595   5.193   0.883   1.897
 6532W        W10596   8.066   7.726   1.156
 6533W        W10597   8.258  10.484   9.717
 6534W        W10598   1.751   3.032   2.526
 6535W        W10599   1.784   6.122  10.697
 6536W        W10600   9.465   2.396   1.348
 6537W        W10601   4.934   6.379   1.947
 6538W        W10602   9.364   5.376   2.744
 6539W        W10603   4.794   8.657   9.900
 6540W        W10604   2.158   6.533  11.248
 6541W        W10605   4.631   3.347   2.609
 6542W        W10606   5.708   0.233  10.941
 6543W        W10607   1.427   8.511   2.762
 6544W        W10608   2.723   6.028  10.283
 6545W        W10609   2.787   2.212   0.245
 6546W        W10610   3.734   5.428   3.473
 6547W        W10611   4.557   6.055   2.017
 6548W        W10612   6.453   2.317   9.103
 6549W        W10613   1.852   2.255   2.752
 6550W        W10614   8.875   1.324   3.092
 6551W        W10615   7.197   1.067  10.805
 6552W        W10616   2.397   2.357   1.900
 6553W        W10617   0.919   1.129  10.222
 6554W        W10618   6.595   0.781   2.737
 6555W        W10619   0.372   9.917   2.792
 6556W        W10620   4.524   2.595   9.123
 6557W        W10621   2.188   1.447   9.302
 6558W        W10622   3.688   5.360   0.376
 6559W        W10623   8.529   6.369   0.254
 6560W        W10624   7.235  10.317  11.859
 6561W        W10625   3.623   8.452  10.537
 6562W        W10626   4.702   8.909   2.615
 6563W        W10627   7.912   2.701   2.750
 6564W        W10628   3.210   0.924   0.943
 6565W        W10629   1.587   3.116   0.718
 6566W        W10630   5.445   8.022   2.304
 6567W        W10631   9.354   3.620   2.429
 6568W        W10632   4.257   5.684  11.746
 6569W        W10633   1.149   2.894   8.507
 6570W        W10634   9.059   6.415  11.023
 6571W        W10635   3.777   6.953  10.490
 6572W        W10636   8.821   3.752   1.925
 6573W        W10637  10.000   7.782   3.578
 6574W        W10638   6.612   0.518   0.265
 6575W        W10639   3.307   6.590   9.779
 6576W        W10640  10.081   9.304  11.268
 6577W        W10641   5.767   4.299   3.094
 6578W        W10642   5.614   3.203   0.457
 6579W        W10643   0.751   9.045   3.208
 6580W        W10644   7.788   7.187  10.088
 6581W        W10645   8.477   6.012   9.053
 6582W        W10646   1.493   0.046   2.871
 6583W        W10647   0.429   0.326   0.760
 6584W        W10648   3.641   5.482  10.347
 6585W        W10649   8.829  10.320   0.859
 6586W        W10650   8.538   8.530   8.900
 6587W        W10651   5.835   4.395   2.149
 6588W        W10652   0.182   6.510   8.743
 6589W        W10653   6.554   6.771   8.823
 6590W        W10654   0.108   8.599  10.911
 6591W        W10655   7.840   3.671   9.358
 6592W        W10656   3.008   7.080   1.876
 6593W        W10657   7.922   7.548   2.218
 6594W        W10658   5.167  10.250   1.841
 6595W        W10659   5.650   4.092   3.991
 6596W        W10660   5.505   7.614  11.821
 6597W        W10661   6.167   2.798  11.956
 6598W        W10662   4.821   8.719   8.506
 6599W        W10663   5.518   0.750   0.203
 6600W        W10664   8.341   6.000   0.918
 6601W        W10665   5.167   5.992   2.749
 6602W        W10666   8.581   4.182   1.735
 6603W        W10667   6.203   3.726  10.440
 6604W        W10668   2.201   2.303   0.972
 6605W        W10669   9.437   5.362   0.270
 6606W        W10670   7.461   3.091   9.728
 6607W        W10671   5.816   4.760   3.319
 6608W        W10672   1.976   6.139  11.720
 6609W        W10673   4.147   4.898   9.781
 6610W        W10674   5.892   1.400   9.836
 6611W        W10675   1.857   6.951   1.456
 6612W        W10676   4.998   1.667   2.504
 6613W        W10677   3.748   2.257   2.076
 6614W        W10678   6.942   6.289   9.474
 6615W        W10679   3.407   1.901  11.248
 6616W        W10680   1.798   0.851   0.643
 6617W        W10681   3.336   4.489   0.797
 6618W        W10682   9.762   4.218   2.960
 6619W        W10683   4.432  10.433   8.658
 6620W        W10684   0.253   6.200  10.279
 6621W        W10685   3.310   1.138   2.768
 6622W        W10686   1.797   5.667   8.709
 6623W        W10687   8.439   8.616   8.385
 6624W        W10688   5.087   1.416  10.688
 6625W        W10689   0.792   5.473   1.490
 6626W        W10690   9.296   8.173   2.865
 6627W        W10691   6.526   5.583  11.182
 6628W        W10692  10.365   5.961  11.302
 6629W        W10693   9.448   6.885   0.057
 6630W        W10694   9.675   2.496  11.518
 6631W        W10695   7.537   8.512   8.410
 6632W        W10696   7.960   1.408   9.347
 6633W        W10697   0.806   7.500   1.374
 6634W        W10698   0.902   3.588   0.291
 6635W        W10699   1.607   0.810  11.318
 6636W        W10700  10.270   7.466  11.301
 6637W        W10701   8.431   8.069  11.876
 6638W        W10702   7.044   2.295   3.579
 6639W        W10703   3.126   3.541  11.089
 6640W        W10704   0.325   5.812   1.008
 6641W        W10705   4.264   0.743  10.871
 6642W        W10706   7.967   6.955   0.437
 6643W        W10707   1.397   7.557  11.844
 6644W        W10708   4.960   3.512   9.874
 6645W        W10709   1.878   7.197   2.304
 6646W        W10710   1.278   6.293  11.313
 6647W        W10711   4.202   8.572   1.784
 6648W        W10712   4.961  10.310  10.130
 6649W        W10713   7.965   4.072  10.513
 6650W        W10714   8.893   2.790   9.563
 6651W        W10715   2.411   6.170   9.034
 6652W        W10716   1.016   8.539  10.718
 6653W        W10717   8.989   9.945   1.979
 6654W        W10718   1.239   9.017   3.028
 6655W        W10719   7.246   3.958   9.237
 6656W        W10720   7.168   0.494   0.121
 6657W        W10721   8.717  10.430   9.977
 6658W        W10722   2.757   6.880   2.262
 6659W        W10723   4.757   7.332  11.157
 6660W        W10724   2.204   3.706   0.659
 6661W        W10725   4.763   3.601   0.999
 6662W        W10726   9.469   1.746   3.686
 6663W        W10727   9.884   3.797  10.966
 6664W        W10728   6.415   9.565   3.372
 6665W        W10729   3.326   4.551   2.733
 6666W        W10730   3.286   7.042   0.174
 6667W        W10731   6.714   9.573   0.862
 6668W        W10732   5.631   9.231   3.354
 6669W        W10733   4.248   1.300   0.705
 6670W        W10734   8.804   3.817  11.716
 6671W        W10735  10.042   2.231   0.219
 6672W        W10736   6.131   0.938   9.012
 6673W        W10737   6.313   0.720   3.551
 6674W        W10738   9.163   1.491   1.776
 6675W        W10739   2.290  10.223  11.445
 6676W        W10740   0.698   7.852   9.617
 6677W        W10741   4.339   3.076   2.279
 6678W        W10742   2.471   9.713   9.562
 6679W        W10743   0.779   1.917   1.797
 6680W        W10744   5.550   9.864   2.757
 6681W        W10745   0.024   0.697   2.667
 6682W        W10746   0.371   5.007  10.250
 6683W        W10747   2.865   7.437   9.886
 6684W        W10748   8.701   1.237   1.992
 6685W        W10749  10.015   4.875   3.240
 6686W        W10750  10.138   8.665   2.882
 6687W        W10751   2.664   6.239   9.813
 6688W        W10752   6.634   5.726  10.720
 6689W        W10753   2.161   8.238  11.862
 6690W        W10754   5.276   6.910  10.020
 6691W        W10755   0.230   5.996   2.913
 6692W        W10756   1.022   7.618  11.463
 6693W        W10757   8.116   3.513   0.737
 6694W        W10758  10.448  10.224  11.320
 6695W        W10759   0.558   9.446   2.894
 6696W        W10760   6.456   2.359  10.496
 6697W        W10761   4.218   7.076  11.673
 6698W        W10762   6.397   5.125   2.786
 6699W        W10763   2.223   1.628   0.655
 6700W        W10764   9.008   1.911   9.018
 6701W        W10765   2.253   2.720   3.072
 6702W        W10766   0.374   3.602   1.259
 6703W        W10767   8.848   8.601   9.643
 6704W        W10768   5.985   2.331   0.256
 6705W        W10769   6.318   9.807   1.722
 6706W        W10770   2.567   7.326  10.734
 6707W        W10771   3.224   8.898   0.531
 6708W        W10772   3.321   4.194  10.274
 6709W        W10773   0.034   8.456   9.005
 6710W        W10774   7.413  10.187   0.946
 6711W        W10775   3.160   1.841   9.867
 6712W        W10776   8.095   3.120   2.512
 6713W        W10777   6.028   4.561   8.630
 6714W        W10778   4.610   4.088   1.832
 6715W        W10779   0.178   8.998   8.899
 6716W        W10780   4.151   3.253   2.735
 6717W        W10781   2.661   5.681  11.260
 6718W        W10782   7.074  10.476   0.717
 6719W        W10783   2.292   1.170   0.846
 6720W        W10784   3.851   5.439   2.449
 6721W        W10785   4.015   4.150   9.512
 6722W        W10786   9.840   5.951   1.865
 6723W        W10787   3.229  10.228  11.064
 6724W        W10788   0.031   7.580   0.733
 6725W        W10789   4.113   5.949  10.935
 6726W        W10790   7.002   3.361  11.081
 6727W        W10791   1.278   9.904   2.896
 6728W        W10792   7.383  10.412   9.524
 6729W        W10793   2.328   7.487   3.177
 6730W        W10794  10.258   1.242   8.857
 6731W        W10795   5.177   6.041   1.315
 6732W        W10796   8.335   3.112   3.354
 6733W        W10797   9.886   6.994   3.371
 6734W        W10798   6.975   9.968   3.153
 6735W        W10799   4.289   1.680   1.417
 6736W        W10800   6.571   3.556  11.558
 6737W        W10801   1.335  10.005   0.944
 6738W        W10802   3.669   5.749   8.866
 6739W        W10803   9.970   3.374   0.773
 6740W        W10804   4.480   7.915   2.429
 6741W        W10805   6.516   5.724   1.126
 6742W        W10806   0.914   6.197   0.384
 6743W        W10807   0.884   5.977   1.293
 6744W        W10808  10.325   3.982   0.651
 6745W        W10809   6.554   7.035   2.224
 6746W        W10810   9.513  10.245  10.274
 6747W        W10811   9.565   2.418   2.958
 6748W        W10812   6.389   1.826   1.865
 6749W        W10813   2.172   8.965   0.708
 6750W        W10814   5.083   7.191   0.761
 6751W        W10815   3.270   6.084   1.885
 6752W        W10816   7.560  10.054   0.469
 6753W        W10817   0.387   9.420   0.405
 6754W        W10818   6.957   4.237   8.914
 6755W        W10819   5.690   6.036   1.475
 6756W        W10820   9.194   3.289  11.925
 6757W        W10821   6.566   8.644  10.065
 6758W        W10822   4.652   8.481  10.942
 6759W        W10823   9.954   3.831   3.218
 6760W        W10824   5.111   0.857  11.928
 6761W        W10825   0.245   5.845   9.745
 6762W        W10826   5.550   1.162   1.090
 6763W        W10827   4.166   3.546   3.155
 6764W        W10828   2.263   6.658   3.024
 6765W        W10829   7.667   0.857  10.929
 6766W        W10830   6.857   9.444   2.462
 6767W        W10831  10.250   7.910   9.231
 6768W        W10832   2.647   8.785   2.089
 6769W        W10833   8.969   6.671   0.051
 6770W        W10834   1.608   8.994   1.043
 6771W        W10835   7.999   0.443   0.040
 6772W        W10836   2.319   4.719   1.212
 6773W        W10837   2.597   9.854   1.458
 6774W        W10838   6.578   5.405  10.352
 6775W        W10839   7.598   2.742   8.511
 6776W        W10840   8.845   1.775   0.783
 6777W        W10841   1.230   5.445  10.894
 6778W        W10842   5.303   6.524  11.415
 6779W        W10843   2.360   8.667   1.114
 6780W        W10844   5.504   0.416   9.912
 6781W        W10845   8.874   2.581   2.408
 6782W        W10846   6.715   9.052   8.932
 6783W        W10847   5.445   7.149   9.606
 6784W        W10848   0.340   8.269   8.580
 6785W        W10849   8.558   4.267   0.721
 6786W        W10850   8.903   3.092  10.433
 6787W        W10851   5.187   0.862   3.145
 6788W        W10852   7.634   1.255   0.113
 6789W        W10853   7.644   9.157   0.890
 6790W        W10854   5.570   4.339  10.736
 6791W        W10855   9.809   2.895   0.918
 6792W        W10856   1.753  10.224   0.746
 6793W        W10857   2.401   4.672   1.724
 6794W        W10858   6.344   8.350   0.360
 6795W        W10859   0.256   4.549   1.502
 6796W        W10860   5.222   2.909   1.617
 6797W        W10861   6.789   9.547   9.050
 6798W        W10862   3.591   8.598   3.102
 6799W        W10863   1.426   8.607  10.382
 6800W        W10864   8.881   6.683   2.013
 6801W        W10865   1.842   8.579   3.157
 6802W        W10866   5.221   4.145   3.241
 6803W        W10867   8.158   9.539   3.496
 6804W        W10868   6.174   9.888  10.055
 6805W        W10869   7.801   5.927  10.073
 6806W        W10870   4.163   0.873   0.397
 6807W        W10871   9.852   7.465   9.329
 6808W        W10872   4.291   0.412   0.226
 6809W        W10873   7.109   6.025   8.585
 6810W        W10874   1.253   9.849  10.778
 6811W        W10875   9.373   0.572  11.947
 6812W        W10876  10.256   5.788   0.225
 6813W        W10877   1.638   0.725   3.324
 6814W        W10878   2.454   4.607   0.717
 6815W        W10879   5.532   7.977   9.805
 6816W        W10880   5.178   5.654  10.407
 6817W        W10881   4.722   9.129   9.730
 6818W        W10882   8.344   3.259  11.284
 6819W        W10883  10.050  10.446   9.443
 6820W        W10884   6.877   8.968   1.673
 6821W        W10885   3.240   0.197  10.807
 6822W        W10886   4.475   8.074  10.702
 6823W        W10887   6.814   4.274  11.702
 6824W        W10888   9.845   4.737   2.319
 6825W        W10889   5.772   6.144   0.083
 6826W        W10890   5.110   1.394   1.821
 6827W        W10891   3.578   4.642  10.390
 6828W        W10892   5.736   8.423  11.375
 6829W        W10893   4.595   1.002   2.935
 6830W        W10894   0.537   3.299   2.846
 6831W        W10895   0.144   8.904   9.397
 6832W        W10896   4.974   1.700   0.045
 6833W        W10897  10.374   3.273   1.655
 6834W        W10898   8.960   0.991   8.921
 6835W        W10899   6.441   0.352  10.408
 6836W        W10900   3.326   9.595   0.112
 6837W        W10901   9.935   4.208   2.469
 6838W        W10902  10.311   2.254   2.478
 6839W        W10903   1.224   3.070   1.615
 6840W        W10904   2.981   1.740  11.494
 6841W        W10905   5.419   5.676   2.364
 6842W        W10906   8.864   3.682   9.460
 6843W        W10907   0.593   3.231   3.464
 6844W        W10908   3.961   8.923  11.960
 6845W        W10909   9.397   6.981   3.585
 6846W        W10910   6.729   5.415   1.927
 6847W        W10911   7.592   0.579   1.350
 6848W        W10912   5.603   7.014   2.309
 6849W        W10913   7.132   1.310   0.198
 6850W        W10914   5.443  10.383   0.291
 6851W        W10915   8.536  10.253   8.702
 6852W        W10916   8.891   7.152   0.230
 6853W        W10917   4.067   7.134  10.882
 6854W        W10918   8.814   5.110   9.824
 6855W        W10919   3.729   5.087   9.094
 6856W        W10920   0.392   2.264  11.935
 6857W        W10921   7.231   8.832   8.728
 6858W        W10922   0.093   9.440   3.510
 6859W        W10923   0.284   1.726  11.708
 6860W        W10924   1.772   2.095  11.619
 6861W        W10925   7.890   2.263   8.436
 6862W        W10926   4.237   4.040   3.117
 6863W        W10927   3.270  10.281  11.580
 6864W        W10928   7.595   1.652  10.217
 6865W        W10929   9.386   5.147   3.463
 6866W        W10930   9.576  10.007   0.757
 6867W        W10931   0.585   3.300  11.293
 6868W        W10932   1.760   2.583   9.086
 6869W        W10933   4.950   6.055   3.249
 6870W        W10934   9.804   6.825   2.302
 6871W        W10935   2.466   5.555   2.219
 6872W        W10936   5.027   1.719   3.118
 6873W        W10937   6.755   2.593   0.826
 6874W        W10938   5.459   2.227   9.601
 6875W        W10939   6.399   1.234   9.819
 6876W        W10940   7.958   2.282  11.871
 6877W        W10941   1.338   2.842   8.968
 6878W        W10942   1.273   7.361   0.329
 6879W        W10943   4.936   1.872   0.890
 6880W        W10944   0.841   4.273  10.825
 6881W        W10945   7.368   9.141  11.158
 6882W        W10946  10.071   5.233   9.324
 6883W        W10947   4.321   3.119  11.864
 6884W        W10948   3.395   1.298   0.256
 6885W        W10949   9.943   5.364   9.891
 6886W        W10950   7.534   4.101   3.823
 6887W        W10951   6.254   4.075   2.153
 6888W        W10952   2.115   1.896   1.973
 6889W        W10953   0.630   7.554   2.318
 6890W        W10954   6.446   3.297   8.990
 6891W        W10955   9.682   6.888   1.790
 6892W        W10956   5.675   8.866   3.002
 6893W        W10957  10.366   1.405   2.450
 6894W        W10958   0.329   4.233   2.032
 6895W        W10959   3.959   1.769  11.731
 6896W        W10960   0.356   1.760  10.311
 6897W        W10961   6.632   3.741   2.992
 6898W        W10962   8.603   5.534   0.802
 6899W        W10963   7.930   4.815   3.561
 6900W        W10964   7.138   9.427  11.999
 6901W        W10965   1.776   6.164  11.214
 6902W        W10966   2.611   7.940  11.980
 6903W        W10967   8.501   0.914  11.570
 6904W        W10968  10.099   5.497  10.485
 6905W        W10969   8.484   5.742   3.143
 6906W        W10970   3.704   0.237   9.564
 6907W        W10971   6.030   9.460   2.010
 6908W        W10972   0.862   0.641   8.463
 6909W        W10973   0.505  10.309   8.764
 6910W        W10974   9.001   9.308   8.759
 6911W        W10975   6.154   1.374  11.760
 6912W        W10976   0.045   8.502  10.406
 6913W        W10977   6.516   9.819  10.942
 6914W        W10978   2.704   2.611   8.896
 6915W        W10979   7.906   2.946  11.278
 6916W        W10980   0.834   3.551   9.222
 6917W        W10981   6.659   4.480  10.472
 6918W        W10982   2.598   5.140  11.006
 6919W        W10983   8.609   5.588  11.692
 6920W        W10984   4.419   1.322   0.241
 6921W        W10985   5.207   6.220   0.811
 6922W        W10986   6.569  10.044   8.279
 6923W        W10987   4.255   5.650   2.755
 6924W        W10988   9.967   7.995  10.115
 6925W        W10989   2.416   7.741   0.716
 6926W        W10990   8.989   3.623   1.181
 6927W        W10991   7.324   5.362  11.788
 6928W        W10992   8.323   3.702  11.870
 6929W        W10993   6.468   7.128   9.599
 6930W        W10994   9.936   7.083   0.108
 6931W        W10995   3.798   5.562   2.975
 6932W        W10996  10.476   0.906  11.893
 6933W        W10997   7.611  10.282   2.972
 6934W        W10998   5.099  10.445   3.352
 6935W        W10999   9.541   4.229   1.227
 6936W        W11000   7.535   4.646   3.192
 6937W        W11001   3.227  10.361   2.445
 6938W        W11002   6.926   3.142   3.690
 6939W        W11003   9.391   8.346  10.891
 6940W        W11004   8.072   7.095   3.290
 6941W        W11005   7.483   7.847   9.383
 6942W        W11006   8.438   3.348   2.841
 6943W        W11007   4.618   3.565   2.083
 6944W        W11008   6.456   4.929  10.436
 6945W        W11009   7.560   1.435   1.526
 6946W        W11010   6.020   4.597   0.563
 6947W        W11011   3.842   7.278   2.862
 6948W        W11012   8.569   0.656   1.695
 6949W        W11013   8.516   1.412  11.383
 6950W        W11014   1.224   4.715   1.332
 6951W        W11015   7.485   7.748  11.898
 6952W        W11016  10.360   2.755   9.124
 6953W        W11017   7.937   9.922   2.809
 6954W        W11018   4.516   6.627   2.199
 6955W        W11019   0.832   4.701   0.846
 6956W        W11020   7.068   4.729  11.578
 6957W        W11021   5.205   2.229  10.591
 6958W        W11022   1.696   4.713   0.444
 6959W        W11023   8.536  10.218   1.261
 6960W        W11024   0.114   8.015   1.010
 6961W        W11025   4.640   7.414  10.319
 6962W        W11026   8.445   9.027  11.519
 6963W        W11027   7.206   9.220   9.053
 6964W        W11028   6.283   6.122   9.952
 6965W        W11029   9.862  10.453   8.930
 6966W        W11030   5.946   1.903   0.604
 6967W        W11031   2.757   2.732   0.471
 6968W        W11032   0.288   5.163   2.160
 6969W        W11033   4.042   9.057   1.885
 6970W        W11034   1.873   5.102   1.654
 6971W        W11035   9.013   4.078   0.930
 6972W        W11036   0.400   5.615   0.522
 6973W        W11037   6.709   4.199   3.277
 6974W        W11038  10.485   7.920   3.514
 6975W        W11039   1.994   1.720  10.108
 6976W        W11040   7.580   0.711   3.099
 6977W        W11041   7.543   2.122   3.679
 6978W        W11042   1.211   8.635  11.689
 6979W        W11043   2.784   5.298  10.002
 6980W        W11044   2.380   2.719   3.559
 6981W        W11045  10.304   2.164   1.452
 6982W        W11046   6.022   1.703   8.684
 6983W        W11047   9.371   8.615   1.109
 6984W        W11048   0.760   3.720   0.806
 6985W        W11049   4.197   7.443   1.559
 6986W        W11050   6.320   4.662   0.147
 6987W        W11051   3.562   1.968   9.529
 6988W        W11052   3.093   6.431   3.978
 6989W        W11053   8.596   4.856   2.742
 6990W        W11054   9.348   0.178   9.011
 6991W        W11055   3.645   4.161   1.620
 6992W        W11056   1.614   4.198   0.787
 6993W        W11057   3.389   7.411   9.250
 6994W        W11058   9.888   9.076   9.451
 6995W        W11059   5.618   4.529   0.876
 6996W        W11060   2.240   4.703  10.349
 6997W        W11061  10.028   2.122  10.667
 6998W        W11062   9.242   9.852  11.803
 6999W        W11063   5.110  10.035   0.502
 7000W        W11064   1.188   0.303   2.535
 7001W        W11065   7.469   0.981  11.477
 7002W        W11066   9.980   2.289  11.175
 7003W        W11067   3.371   1.824  10.362
 7004W        W11068   8.004   4.790   9.978
 7005W        W11069   9.402   7.598   2.909
 7006W        W11070   6.405   0.353   2.941
 7007W        W11071   1.720   4.880   9.433
 7008W        W11072   3.734   1.525   9.381
 7009W        W11073   9.914   8.045   0.448
 7010W        W11074   8.843   1.010   0.382
 7011W        W11075   5.516   7.195  10.467
 7012W        W11076   2.388   9.435   0.686
 7013W        W11077   3.840   4.217  10.447
 7014W        W11078   4.803   4.266   2.285
 7015W        W11079   4.602   2.416   0.156
 7016W        W11080   8.412   5.574   0.160
 7017W        W11081   3.655  10.058  11.311
 7018W        W11082   9.055   4.781  11.333
 7019W        W11083   9.647   7.076   9.939
 7020W        W11084   4.648   8.669   9.015
 7021W        W11085   4.795   4.042  10.336
 7022W        W11086   1.969   0.795   9.013
 7023W        W11087   8.425  10.024   2.682
 7024W        W11088  10.136   5.633   3.626
 7025W        W11089   5.218   2.212   3.183
 7026W        W11090   6.911   5.525   0.042
 7027W        W11091   2.244   0.045   9.033
 7028W        W11092   8.137   5.068   2.699
 7029W        W11093   8.308   0.596  10.386
 7030W        W11094  10.039   5.230   8.806
 7031W        W11095   9.206   9.052  10.354
 7032W        W11096  10.044   4.627   2.778
 7033W        W11097   9.005   4.668  10.155
 7034W        W11098   5.743   4.807   1.275
 7035W        W11099   7.223   6.395   3.283
 7036W        W11100   1.684   3.598   9.793
 7037W        W11101   7.540   4.862   2.215
 7038W        W11102   3.689   1.820   8.963
 7039W        W11103   8.500   5.412   2.623
 7040W        W11104   4.057   9.951   3.155
 7041W        W11105   4.232   2.923   1.491
 7042W        W11106   7.053   4.587   3.378
 7043W        W11107   6.924   6.952  11.478
 7044W        W11108   9.787   4.510   0.254
 7045W        W11109   6.670   4.163   1.810
 7046W        W11110   2.635   6.817  10.880
 7047W        W11111   6.887   9.583   0.386
 7048W        W11112   1.932   3.449   8.490
 7049W        W11113  10.381   4.132   8.544
 7050W        W11114   5.463   9.490   8.967
 7051W        W11115   8.959   7.549   9.735
 7052W        W11116   1.307   3.831   0.073
 7053W        W11117   1.067   4.678   8.477
 7054W        W11118   4.548   3.580   9.089
 7055W        W11119   5.556   1.702   8.494
 7056W        W11120   0.871   7.917  10.095
 7057W        W11121  10.444  10.487  11.823
 7058W        W11122   1.442   2.265   1.390
 7059W        W11123   7.361   9.430   2.299
 7060W        W11124   5.517   6.710  11.983
 7061W        W11125   8.847   2.401   0.070
 7062W        W11126   6.416   3.007   8.501
 7063W        W11127   8.941   0.692  11.733
 7064W        W11128   0.300   4.489  11.483
 7065W        W11129   4.716   6.673   8.567
 7066W        W11130   6.701   6.771   9.313
 7067W        W11131   0.578   1.165   0.312
 7068W        W11132   9.260   2.408  11.791
 7069W        W11133   5.296   1.856  11.664
 7070W        W11134   1.182   1.794  11.866
 7071W        W11135  10.494   4.276   9.599
 7072W        W11136   1.017   3.285   2.408
 7073W        W11137   2.717   7.923   1.477
 7074W        W11138   3.274   6.036   9.053
 7075W        W11139   9.781   2.251   2.166
 7076W        W11140   4.267   2.200   1.485
 7077W        W11141   6.538   6.259   1.747
 7078W        W11142   3.090   6.556   2.002
 7079W        W11143   5.440   6.473   2.668
 7080W        W11144   0.814   9.858   3.095
 7081W        W11145   2.804   0.190   3.548
 7082W        W11146   7.877   2.044   0.953
 7083W        W11147   0.482   6.700   0.933
 7084W        W11148   2.194   1.267  10.492
 7085W        W11149   8.438   0.528   1.127
 7086W        W11150   7.890   1.846   1.728
 7087W        W11151   6.493   5.852   2.094
 7088W        W11152   6.682  10.378   2.870
 7089W        W11153   6.993   6.394   2.667
 7090W        W11154   4.287   2.146  11.868
 7091W        W11155   6.488   9.324   1.804
 7092W        W11156   6.106   2.724   2.739
 7093W        W11157   0.699   8.571  11.591
 7094W        W11158   2.285   7.219   1.437
 7095W        W11159   4.159  10.024  11.253
 7096W        W11160  10.292   6.664   2.302
 7097W        W11161  10.319   1.797  11.551
 7098W        W11162   9.278   4.211  10.072
 7099W        W11163   1.312   6.928  11.053
 7100W        W11164   3.745   7.483  10.528
 7101W        W11165   1.314   1.569  11.427
 7102W        W11166   9.572   0.031  11.224
 7103W        W11167   1.152   1.706  10.961
 7104W        W11168   0.381   3.287   1.768
 7105W        W11169   6.501   4.645   0.803
 7106W        W11170   0.032   9.097   0.172
 7107W        W11171   1.819   3.147   1.187
 7108W        W11172   9.871   7.495  10.846
 7109W        W11173   1.439   9.807   0.446
 7110W        W11174   1.615   4.310   1.889
 7111W        W11175   4.668   1.018   1.168
 7112W        W11176   6.875   6.662   1.323
 7113W        W11177   2.819   6.976  10.417
 7114W        W11178   3.550   7.005   9.604
 7115W        W11179   5.111   0.569   1.483
 7116W        W11180   1.994   4.278   0.442
 7117W        W11181   2.786   9.364   9.350
 7118W        W11182   9.162   8.771   3.448
 7119W        W11183   8.396   7.621   8.946
 7120W        W11184   4.060   7.007   9.563
 7121W        W11185   4.328   6.278   4.145
 7122W        W11186   0.822   0.387   1.857
 7123W        W11187   9.457   2.449   0.856
 7124W        W11188   9.859   5.042   1.532
 7125W        W11189   2.551   7.824   9.971
 7126W        W11190  10.206   0.556   3.088
 7127W        W11191   2.824   0.244   1.744
 7128W        W11192   3.334   4.727  11.030
 7129W        W11193   3.576   6.209   8.658
 7130W        W11194   9.555   2.505  11.016
 7131W        W11195   9.635   8.628   2.885
 7132W        W11196   5.504   9.334   9.477
 7133W        W11197   8.442   8.556   9.955
 7134W        W11198   7.852   5.411   8.870
 7135W        W11199   6.997   2.683   2.251
 7136W        W11200   2.641   1.886   2.665
 7137W        W11201   9.773   7.556  11.419
 7138W        W11202   6.917   3.512   9.230
 7139W        W11203   2.284   3.490  10.680
 7140W        W11204   9.178   9.129   0.451
 7141W        W11205   6.586  10.497   8.870
 7142W        W11206   9.018   2.052  10.859
 7143W        W11207   0.919   7.109  11.394
 7144W        W11208   1.408   5.597   3.271
 7145W        W11209   0.336   2.915   9.326
 7146W        W11210  10.304   5.995  10.470
 7147W        W11211   9.130   5.129   9.421
 7148W        W11212   0.523   3.247   2.316
 7149W        W11213   7.472   2.205  11.720
 7150W        W11214   0.144   1.345   3.476
 7151W        W11215  10.257   4.239  10.931
 7152W        W11216  10.376   2.937   9.621
 7153W        W11217   5.473   7.859   0.270
 7154W        W11218   4.762   7.347   1.300
 7155W        W11219   4.618   2.843   0.444
 7156W        W11220   2.379   7.423  11.219
 7157W        W11221   9.313  10.020   2.794
 7158W        W11222   6.537   5.278   3.660
 7159W        W11223   3.575   0.256   3.510
 7160W        W11224   6.168   5.735  10.361
 7161W        W11225   2.587   0.190   0.007
 7162W        W11226   1.439   4.927   1.813
 7163W        W11227   1.889   8.926   9.816
 7164W        W11228  10.261   1.095  10.981
 7165W        W11229   4.298   4.724   0.958
 7166W        W11230   1.809  10.385  11.154
 7167W        W11231   0.376   6.192   0.655
 7168W        W11232   6.784   1.691   0.881
 7169W        W11233   0.910   3.856  11.745
 7170W        W11234   6.172   3.293   8.102
 7171W        W11235   3.589   6.627   0.207
 7172W        W11236   6.962   5.004   9.363
 7173W        W11237   7.363   9.501  11.545
 7174W        W11238   4.675   9.617   1.032
 7175W        W11239   2.616   4.716  10.725
 7176W        W11240   5.427   7.032   3.996
 7177W        W11241   9.725   7.537   2.197
 7178W        W11242   9.725   2.983  11.339
 7179W        W11243   6.225   5.267   1.314
 7180W        W11244   0.320   3.154  10.322
 7181W        W11245   0.483   8.549   9.480
 7182W        W11246   3.779   8.472   2.330
 7183W        W11247   9.618   8.768   2.155
 7184W        W11248   8.353   2.284  11.491
 7185W        W11249   0.179   2.148  10.001
 7186W        W11250   4.994   0.390   9.169
 7187W        W11251   5.114   7.699   0.651
 7188W        W11252  10.034  10.275   0.811
 7189W        W11253   2.310   6.458  10.723
 7190W        W11254   4.983   5.352   1.642
 7191W        W11255   9.494   1.405   1.293
 7192W        W11256   1.883   4.436  11.481
 7193W        W11257   7.685   6.647  11.353
 7194W        W11258   6.706   5.211   3.180
 7195W        W11259   1.257   5.905   1.956
 7196W        W11260   7.156   4.025   3.085
 7197W        W11261   1.824   6.170   0.243
 7198W        W11262   7.539   7.297   2.404
 7199W        W11263   5.524   9.423  10.462
 7200W        W11264   2.703   6.378   2.304
 7201W        W11265   4.069   9.044   0.478
 7202W        W11266   6.095   2.379   0.749
 7203W        W11267   0.816   8.087   2.240
 7204W        W11268   3.179   6.519   8.820
 7205W        W11269   1.706   8.842   8.914
 7206W        W11270   1.317   5.206  10.430
 7207W        W11271   5.594   2.829   2.829
 7208W        W11272   3.226   1.856   0.498
 7209W        W11273   1.620   6.972   1.911
 7210W        W11274   6.217   3.059   9.373
 7211W        W11275   4.829   7.999   3.607
 7212W        W11276   7.533   9.559   9.255
 7213W        W11277   6.636   1.729   2.327
 7214W        W11278   2.794   2.830   9.882
 7215W        W11279  10.270   2.812  10.541
 7216W        W11280   1.786   6.926  11.255
 7217W        W11281   5.946   8.099  11.017
 7218W        W11282   4.137   5.746   2.134
 7219W        W11283   9.904   7.574   1.282
 7220W        W11284   0.818   9.419  10.040
 7221W        W11285   4.192   5.590  11.264
 7222W        W11286   1.339   8.158  11.559
 7223W        W11287   8.587   3.763   1.450
 7224W        W11288   6.887   0.914   0.404
 7225W        W11289   4.726   5.393  10.414
 7226W        W11290   9.877   8.018   2.292
 7227W        W11291   7.085  10.473   8.676
 7228W        W11292   8.133   8.200  11.329
 7229W        W11293   3.035   2.352  10.034
 7230W        W11294   7.603   6.869  10.885
 7231W        W11295   4.093   4.252  10.008
 7232W        W11296  10.280   6.226   0.481
 7233W        W11297   6.387   9.696   2.576
 7234W        W11298   5.054   9.570  11.749
 7235W        W11299   8.702   4.414   2.449
 7236W        W11300   1.597   7.199   2.741
 7237W        W11301   7.553   7.032   3.315
 7238W        W11302   9.419   5.207   1.292
 7239W        W11303   8.307   9.195   2.369
 7240W        W11304   0.323   8.170  11.597
 7241W        W11305   9.912   1.710   3.452
 7242W        W11306   8.475   8.340   2.279
 7243W        W11307   6.932   4.664   8.582
 7244W        W11308   0.614   7.181   1.019
 7245W        W11309   0.785  10.436  10.964
 7246W        W11310   4.167   9.329   2.301
 7247W        W11311   6.517   2.143   0.892
 7248W        W11312   0.796   6.987  10.270
 7249W        W11313   2.843   5.864   3.938
 7250W        W11314   4.072   6.623  11.432
 7251W        W11315   5.964   6.898  10.494
 7252W        W11316   8.393   8.564   9.433
 7253W        W11317   9.454   0.688   9.006
 7254W        W11318   8.096   5.184   0.338
 7255W        W11319   4.786   4.187   0.280
 7256W        W11320   9.871   0.865  10.300
 7257W        W11321   2.913   6.631   9.479
 7258W        W11322   6.863   5.920   0.347
 7259W        W11323  10.378   6.569   1.748
 7260W        W11324   7.397   4.476   9.837
 7261W        W11325   7.944   3.218   3.000
 7262W        W11326   1.386   4.691   0.029
 7263W        W11327   6.271   0.405   1.060
 7264W        W11328   3.128   0.858  10.174
 7265W        W11329   9.484   8.044   1.618
 7266W        W11330   2.111   4.987   0.610
 7267W        W11331   4.202   9.384  11.881
 7268W        W11332   2.814   6.973   0.945
 7269W        W11333   2.756   3.815  11.444
 7270W        W11334   1.707  10.335   9.723
 7271W        W11335   0.902   5.493   8.606
 7272W        W11336   5.964   6.888   3.335
 7273W        W11337   7.404   7.580   0.416
 7274W        W11338   5.216   0.541   2.282
 7275W        W11339   3.274   9.686  11.138
 7276W        W11340   9.255   7.074  10.348
 7277W        W11341   4.982   5.587   0.278
 7278W        W11342   1.778   1.396  11.263
 7279W        W11343   0.549   5.182   8.890
 7280W        W11344   5.728   9.417   0.922
 7281W        W11345   5.102   7.007  11.363
 7282W        W11346   0.881   9.891   1.686
 7283W        W11347   1.689   9.798   8.995
 7284W        W11348   8.978   6.637   9.551
 7285W        W11349   9.913   2.664  11.966
 7286W        W11350   8.008   8.410   8.593
 7287W        W11351   1.967   5.666   2.297
 7288W        W11352   7.852   7.494   9.233
 7289W        W11353   5.501   5.696   9.032
 7290W        W11354   0.311   3.552   9.998
 7291W        W11355  10.351   6.590  11.813
 7292W        W11356   3.337   3.064  11.994
 7293W        W11357   4.568   7.672   9.898
 7294W        W11358   8.418   2.107  11.975
 7295W        W11359   6.487   7.477  10.485
 7296W        W11360   2.837   2.360   2.906
 7297W        W11361   7.463   2.085   9.740
 7298W        W11362   3.633   5.012   9.596
 7299W        W11363   9.413   7.871   2.474
 7300W        W11364   5.944   8.657   0.325
 7301W        W11365   3.586   3.828   9.417
 7302W        W11366   0.269   6.558   2.158
 7303W        W11367   2.351   5.111   9.284
 7304W        W11368   9.783   8.092   1.220
 7305W        W11369   9.359  10.166   8.879
 7306W        W11370   7.370   1.764  11.971
 7307W        W11371   1.486   3.177   2.985
 7308W        W11372   0.778  10.312  10.087
 7309W        W11373   0.883   7.700   3.602
 7310W        W11374   1.260   1.297   9.077
 7311W        W11375   8.079   0.296   9.055
 7312W        W11376   5.089   0.769   0.993
 7313ION    NA+11377   6.452   4.857   8.697
 7314ION    NA+11378   1.850  10.065   2.191
 7315ION    NA+11379   7.745   7.060  11.691
 7316ION    NA+11380   9.074   5.942   1.371
 7317ION    NA+11381   5.478   3.594   9.508
 7318ION    NA+11382   7.910   4.762   0.132
 7319ION    NA+11383   5.516   4.049   0.946
 7320ION    NA+11384   6.188   1.450  10.757
 7321ION    NA+11385   2.607   8.333   9.835
 7322ION    NA+11386   2.750   4.603  10.248
 7323ION    NA+11387   1.511   2.372  10.615
 7324ION    NA+11388  10.104   4.990  11.453
 7325ION    NA+11389   2.672   0.345  10.304
 7326ION    NA+11390   0.617   9.089   9.413
 7327ION    NA+11391   5.153   4.607   2.629
 7328ION    NA+11392   4.195   8.546   0.230
 7329ION    NA+11393   7.456   4.361   2.311
 7330ION    NA+11394   1.142   7.639   2.305
 7331ION    NA+11395   8.844   0.618   9.614
 7332ION    NA+11396   3.717   2.628  10.079
 7333ION    NA+11397   7.337   1.304   1.959
 7334ION    NA+11398   4.987   3.249   0.663
 7335ION    NA+11399   4.222   5.414   0.513
 7336ION    NA+11400   0.611   8.400  11.110
 7337ION    NA+11401   0.684   2.723   1.075
 7338ION    NA+11402   8.291   1.537   1.774
 7339ION    NA+11403   0.805   2.723   9.784
 7340ION    NA+11404   1.507   2.729   0.004
 7341ION    NA+11405   7.093   9.076   9.877
 7342ION    NA+11406   8.561   6.261   3.202
 7343ION    NA+11407   2.923   9.499   2.706
 7344ION    NA+11408   8.924   9.137   2.647
 7345ION    NA+11409   2.394   2.143  11.025
 7346ION    NA+11410   0.912   5.168  11.973
 7347ION    NA+11411   9.663   2.099  11.850
 7348ION    NA+11412   7.064   7.178   0.381
 7349ION    NA+11413   2.302   1.259   9.964
 7350ION    NA+11414   4.986   4.084  11.778
 7351ION    NA+11415   6.523   7.758   9.013
 7352ION    NA+11416   8.644   8.246  11.401
 7353ION    NA+11417   2.703   6.498   0.326
 7354ION    NA+11418   1.673   5.187   2.690
 7355ION    NA+11419   5.155   8.226   0.941
 7356ION    NA+11420   5.648   6.082  11.213
 7357ION    NA+11421   3.058   7.113   9.516
 7358ION    NA+11422   6.705   9.157   3.246
 7359ION    NA+11423   1.702   7.116  10.779
 7360ION    NA+11424   0.009   1.629   9.144
 7361ION    NA+11425   1.427   8.290   0.563
 7362ION    NA+11426   7.893   8.743   9.377
 7363ION    NA+11427   8.358   9.036  10.858
 7364ION    NA+11428   4.397   1.504  11.419
 7365ION    NA+11429   3.119   2.880  11.292
 7366ION    NA+11430   3.810   3.883   0.665
 7367ION    NA+11431   7.670   7.849   1.447
 7368ION    NA+11432   9.021   5.058   3.055
 7369ION    NA+11433   6.651   1.682   3.166
 7370ION    NA+11434   3.449   8.392  11.452
 7371ION    NA+11435   9.865   9.522   1.269
 7372ION    NA+11436   7.036   3.133   2.560
 7373ION    NA+11437   6.183   2.565   1.238
 7374ION    NA+11438   3.997   2.268   0.938
 7375ION    NA+11439   5.971   9.641   9.617
 7376ION    NA+11440   9.940   9.814  11.362
 7377ION    NA+11441   9.017  10.322  10.432
 7378ION    NA+11442   1.197   9.102   0.759
 7379ION    NA+11443   8.547   7.036   3.068
 7380ION    NA+11444   3.754   1.668   3.016
 7381ION    NA+11445   5.962   6.926   8.747
 7382ION    NA+11446   6.574   0.708   0.772
 7383ION    NA+11447   8.435   6.864   0.225
 7384ION    NA+11448   7.064   6.445  11.700
 7385ION    NA+11449   1.456   4.529   8.917
 7386ION    NA+11450   1.660   0.361  10.352
 7387ION    NA+11451   2.982   3.950   0.316
 7388ION    NA+11452   2.091   0.193  11.640
 7389ION    NA+11453   3.861  10.123   0.450
 7390ION    CL-11454   5.818   5.583   2.679
 7391ION    CL-11455   8.174   9.866   1.368
 7392ION    CL-11456   6.205   0.537   0.581
 7393ION    CL-11457   6.562   1.699  10.765
 7394ION    CL-11458   7.498   7.273   9.539
 7395ION    CL-11459  10.168   8.343   0.948
 7396ION    CL-11460   4.071   5.274   9.430
 7397ION    CL-11461   1.585   7.670   2.351
 7398ION    CL-11462   1.914   5.499  10.023
 7399ION    CL-11463   9.492   7.565   3.462
 7400ION    CL-11464   5.541   2.626  11.369
 7401ION    CL-11465   2.846   9.876   8.388
 7402ION    CL-11466   4.116   6.393  10.084
 7403ION    CL-11467   2.440   4.103   3.042
 7404ION    CL-11468   1.197   8.684   0.581
 7405ION    CL-11469  10.479   5.162   9.592
 7406ION    CL-11470   9.174   9.497   2.559
 7407ION    CL-11471   2.234   8.356   3.468
 7408ION    CL-11472  10.245   7.906   0.052
 7409ION    CL-11473   0.287   1.598   0.224
 7410ION    CL-11474   7.816   7.416   1.454
 7411ION    CL-11475   7.674   8.353   9.349
 7412ION    CL-11476   2.907   2.916  11.684
 7413ION    CL-11477   4.253   5.267   0.090
 7414ION    CL-11478   0.636   8.807   9.067
 7415ION    CL-11479   2.025   6.480   1.597
 7416ION    CL-11480   7.869   6.384   9.122
 7417ION    CL-11481   7.349   6.798  11.759
 7418ION    CL-11482   5.499   7.365  11.352
 7419ION    CL-11483   2.734   2.372   3.421
 7420ION    CL-11484   0.979   4.786  11.751
 7421ION    CL-11485   0.286   3.935   0.869
 7422ION    CL-11486   8.682   6.616   2.933
 7423ION    CL-11487   1.050   8.482  11.211
 7424ION    CL-11488  10.180  10.004  11.703
 7425ION    CL-11489   7.261   6.316   1.356
 7426ION    CL-11490   9.697   6.076   3.634
 7427ION    CL-11491   3.904   1.911   1.189
 7428ION    CL-11492   2.943   3.245   2.938
 7429ION    CL-11493   6.232   4.734   9.066
 7430ION    CL-11494   4.484   1.667  11.825
 7431ION    CL-11495   1.906   0.591  11.736
 7432ION    CL-11496   7.859   2.160  10.978
 7433ION    CL-11497   9.846   8.027   9.554
 7434ION    CL-11498   9.682   9.574  11.070
 7435ION    CL-11499   6.506   9.279   2.856
 7436ION    CL-11500  10.071   2.212  11.712
 7437ION    CL-11501   3.412   3.870   0.443
 7438ION    CL-11502   2.135   3.742   2.130
 7439ION    CL-11503   8.862   7.931  11.633
 7440ION    CL-11504   3.692   1.456   2.623
 7441ION    CL-11505  10.380   3.756  10.825
 7442ION    CL-11506   7.353   8.152   1.322
 7443ION    CL-11507   6.687   1.201   9.414
 7444ION    CL-11508   4.146   4.798   1.780
 7445ION    CL-11509   9.363   6.020   1.700
 7446ION    CL-11510   0.238   8.137  11.098
 7447ION    CL-11511   6.317   6.627   1.253
 7448ION    CL-11512   8.650   0.923   9.874
 7449ION    CL-11513   8.819   3.099  11.507
 7450ION    CL-11514   9.373   0.789  11.410
 7451ION    CL-11515   4.803   8.407   9.437
 7452ION    CL-11516   0.037   0.337   0.196
 7453ION    CL-11517   5.097   4.481  11.981
 7454ION    CL-11518   3.798  10.020   9.127
 7455ION    CL-11519   1.309   4.265   2.361
 7456ION    CL-11520   8.127   7.074  11.963
 7457ION    CL-11521   9.067   1.772   3.360
 7458ION    CL-11522   3.259   7.579  10.748
 7459ION    CL-11523   9.565   6.677  10.255
 7460ION    CL-11524   4.458   8.898   0.150
 7461ION    CL-11525   7.672   5.876   2.173
 7462ION    CL-11526   1.495   4.205  10.528
 7463ION    CL-11527   0.770   6.539   2.408
 7464ION    CL-11528   8.354   5.538   8.903
 7465ION    CL-11529  10.053   4.023   8.905
 7466ION    CL-11530   5.076   3.719  11.518
  10.50000  10.50000  12.00000
