Protein in INSANE! Membrane UpperLeaflet>POPC=1.0 LowerLeaflet>POPC=1.0
12914
    1AU     AUC    1   5.764   5.798   6.005
    1AU     AUC    2   5.902   5.789   5.926
    1AU     AUC    3   5.877   5.788   6.089
    1AU     AUC    4   5.619   5.825   5.897
    1AU     AUC    5   5.594   5.834   6.087
    1AU     AUC    6   5.652   5.934   5.985
    1AU     AUC    7   5.848   5.949   5.997
    1AU     AUC    8   5.644   5.662   5.990
    1AU     AUC    9   5.842   5.674   6.010
    1AU     AUC   10   5.726   5.720   6.142
    1AU     AUC   11   5.766   5.910   6.138
    1AU     AUC   12   5.772   5.726   5.832
    1AU     AUC   13   5.738   5.901   5.860
    1AU     AUC   14   6.034   5.817   5.834
    1AU     AUC   15   6.087   5.816   5.983
    1AU     AUC   16   6.018   5.790   6.186
    1AU     AUC   17   5.474   5.796   5.811
    1AU     AUC   18   5.410   5.806   6.038
    1AU     AUC   19   5.480   5.836   6.186
    1AU     AUC   20   5.598   6.100   6.008
    1AU     AUC   21   5.719   6.154   6.016
    1AU     AUC   22   5.926   6.071   5.976
    1AU     AUC   23   5.589   5.546   5.970
    1AU     AUC   24   5.748   5.496   5.982
    1AU     AUC   25   5.886   5.516   6.000
    1AU     AUC   26   5.710   5.642   6.265
    1AU     AUC   27   5.718   5.783   6.327
    1AU     AUC   28   5.785   5.977   6.269
    1AU     AUC   29   5.761   5.645   5.725
    1AU     AUC   30   5.789   5.788   5.675
    1AU     AUC   31   5.783   5.989   5.728
    1AU     AUC   32   5.881   5.698   6.280
    1AU     AUC   33   5.913   5.869   6.272
    1AU     AUC   34   5.921   5.695   5.755
    1AU     AUC   35   5.957   5.904   5.732
    1AU     AUC   36   5.587   5.743   6.259
    1AU     AUC   37   5.646   5.970   6.259
    1AU     AUC   38   5.640   5.697   5.703
    1AU     AUC   39   5.595   5.898   5.706
    1AU     AUC   40   6.015   5.940   5.897
    1AU     AUC   41   6.045   5.906   6.130
    1AU     AUC   42   5.431   5.932   5.885
    1AU     AUC   43   5.500   5.964   6.102
    1AU     AUC   44   6.029   5.646   5.908
    1AU     AUC   45   5.978   5.609   6.143
    1AU     AUC   46   5.515   5.660   5.881
    1AU     AUC   47   5.468   5.649   6.051
    1AU     AUC   48   5.706   6.083   6.188
    1AU     AUC   49   5.870   6.065   6.103
    1AU     AUC   50   5.628   5.561   6.138
    1AU     AUC   51   5.808   5.543   6.200
    1AU     AUC   52   5.635   6.098   5.882
    1AU     AUC   53   5.833   6.032   5.808
    1AU     AUC   54   5.665   5.562   5.826
    1AU     AUC   55   5.851   5.527   5.844
    1AU    AUSL   56   5.967   5.715   6.403
    1AU    AUSL   57   6.010   5.445   6.428
    1AU     AUL   58   6.014   5.774   6.528
    1AU       S   59   6.213   5.154   6.656
    1AU     LIG   60   6.251   4.909   6.992
    1AU     LIG   61   6.381   4.499   7.117
    1AU     LIG   62   6.627   4.174   7.319
    1AU     LIG   63   6.868   4.008   7.694
    1AU     LIG   64   6.885   3.747   8.088
    1AU       S   65   6.045   5.507   6.961
    1AU     LIG   66   6.372   5.338   7.284
    1AU     LIG   67   6.616   5.323   7.714
    1AU     LIG   68   6.880   5.349   8.122
    1AU     LIG   69   7.206   5.562   8.422
    1AU     LIG   70   7.533   5.579   8.775
    1AU    AUSL   71   5.755   5.541   6.500
    1AU    AUSL   72   5.720   5.818   6.488
    1AU     AUL   73   5.761   5.906   6.593
    1AU       S   74   5.782   5.304   6.888
    1AU     LIG   75   5.893   5.149   7.316
    1AU     LIG   76   6.160   5.082   7.709
    1AU     LIG   77   6.406   5.028   8.131
    1AU     LIG   78   6.443   4.860   8.593
    1AU     LIG   79   6.495   4.860   9.072
    1AU       S   80   5.615   5.769   7.069
    1AU     LIG   81   5.452   5.772   7.513
    1AU     LIG   82   5.215   5.728   7.927
    1AU     LIG   83   5.056   5.733   8.370
    1AU     LIG   84   5.091   5.975   8.791
    1AU     LIG   85   5.019   6.021   9.260
    1AU    AUSL   86   5.906   5.984   6.373
    1AU    AUSL   87   6.188   5.946   6.370
    1AU     AUL   88   6.018   6.016   6.670
    1AU       S   89   5.998   6.429   6.940
    1AU     LIG   90   6.191   6.546   7.377
    1AU     LIG   91   6.321   6.567   7.848
    1AU     LIG   92   6.292   6.570   8.343
    1AU     LIG   93   6.358   6.682   8.806
    1AU     LIG   94   6.679   6.693   9.144
    1AU       S   95   6.538   6.183   6.600
    1AU     LIG   96   6.906   6.315   6.862
    1AU     LIG   97   7.167   6.543   7.199
    1AU     LIG   98   7.449   6.645   7.577
    1AU     LIG   99   7.805   6.687   7.901
    1AU     LIG  100   8.215   6.888   8.045
    1AU    AUSL  101   6.093   5.821   5.453
    1AU    AUSL  102   5.998   6.096   5.505
    1AU     AUL  103   6.309   6.089   5.747
    1AU       S  104   6.232   5.786   5.072
    1AU     LIG  105   6.566   5.619   4.811
    1AU     LIG  106   6.705   5.584   4.360
    1AU     LIG  107   6.836   5.558   3.896
    1AU     LIG  108   7.182   5.449   3.571
    1AU     LIG  109   7.596   5.464   3.318
    1AU       S  110   6.195   6.313   5.192
    1AU     LIG  111   6.410   6.555   4.825
    1AU     LIG  112   6.789   6.668   4.517
    1AU     LIG  113   7.155   6.860   4.248
    1AU     LIG  114   7.394   7.050   3.868
    1AU     LIG  115   7.561   7.390   3.572
    1AU    AUSL  116   5.854   5.633   5.451
    1AU    AUSL  117   6.033   5.644   5.664
    1AU     AUL  118   6.174   5.625   5.647
    1AU       S  119   6.455   5.359   5.292
    1AU     LIG  120   6.645   4.953   5.086
    1AU     LIG  121   6.847   4.576   4.860
    1AU     LIG  122   7.160   4.318   4.618
    1AU     LIG  123   7.499   4.298   4.278
    1AU     LIG  124   7.948   4.371   4.117
    1AU       S  125   5.990   5.598   4.986
    1AU     LIG  126   6.199   5.276   4.722
    1AU     LIG  127   6.319   5.258   4.253
    1AU     LIG  128   6.427   5.260   3.773
    1AU     LIG  129   6.576   5.159   3.311
    1AU     LIG  130   6.782   5.085   2.871
    1AU    AUSL  131   5.847   5.875   5.572
    1AU    AUSL  132   5.646   5.810   5.397
    1AU     AUL  133   5.746   5.440   5.432
    1AU       S  134   5.496   5.870   4.973
    1AU     LIG  135   5.454   5.641   4.569
    1AU     LIG  136   5.232   5.388   4.214
    1AU     LIG  137   5.000   5.239   3.815
    1AU     LIG  138   4.980   5.066   3.358
    1AU     LIG  139   4.912   4.958   2.889
    1AU       S  140   5.982   5.913   4.969
    1AU     LIG  141   6.165   5.762   4.518
    1AU     LIG  142   6.328   5.732   4.041
    1AU     LIG  143   6.439   5.735   3.567
    1AU     LIG  144   6.437   5.847   3.100
    1AU     LIG  145   6.502   6.162   2.746
    1AU    AUSL  146   5.483   5.942   6.568
    1AU    AUSL  147   5.619   6.043   6.342
    1AU     AUL  148   5.813   6.180   6.551
    1AU       S  149   5.303   5.908   6.984
    1AU     LIG  150   5.003   5.664   7.298
    1AU     LIG  151   4.811   5.502   7.713
    1AU     LIG  152   4.613   5.513   8.149
    1AU     LIG  153   4.259   5.407   8.455
    1AU     LIG  154   3.905   5.500   8.758
    1AU       S  155   5.152   6.500   6.598
    1AU     LIG  156   5.236   6.579   7.058
    1AU     LIG  157   5.103   6.864   7.420
    1AU     LIG  158   4.814   7.156   7.681
    1AU     LIG  159   4.696   7.340   8.120
    1AU     LIG  160   4.579   7.456   8.580
    1AU    AUSL  161   5.515   5.660   6.573
    1AU    AUSL  162   5.435   5.811   6.332
    1AU     AUL  163   5.282   5.787   6.398
    1AU       S  164   5.022   5.402   6.637
    1AU     LIG  165   4.668   5.085   6.741
    1AU     LIG  166   4.303   4.839   6.930
    1AU     LIG  167   3.994   4.612   7.208
    1AU     LIG  168   3.800   4.393   7.575
    1AU     LIG  169   3.473   4.345   7.922
    1AU       S  170   5.379   5.598   6.955
    1AU     LIG  171   5.393   5.309   7.289
    1AU     LIG  172   5.271   5.255   7.735
    1AU     LIG  173   5.044   5.226   8.156
    1AU     LIG  174   4.909   4.989   8.561
    1AU     LIG  175   4.931   4.897   9.030
    1AU    AUSL  176   5.396   5.790   5.511
    1AU    AUSL  177   5.592   5.612   5.586
    1AU     AUL  178   5.507   5.460   5.290
    1AU       S  179   5.212   5.837   5.071
    1AU     LIG  180   4.956   5.695   4.686
    1AU     LIG  181   4.753   5.567   4.261
    1AU     LIG  182   4.572   5.568   3.824
    1AU     LIG  183   4.263   5.649   3.468
    1AU     LIG  184   3.928   5.661   3.110
    1AU       S  185   5.026   5.427   5.326
    1AU     LIG  186   4.836   5.007   5.104
    1AU     LIG  187   4.593   4.623   4.915
    1AU     LIG  188   4.408   4.321   4.583
    1AU     LIG  189   4.249   4.091   4.182
    1AU     LIG  190   4.294   3.867   3.750
    1AU    AUSL  191   5.588   5.970   5.631
    1AU    AUSL  192   5.330   6.050   5.588
    1AU     AUL  193   5.715   6.082   5.448
    1AU       S  194   5.028   6.208   5.319
    1AU     LIG  195   4.896   6.383   4.916
    1AU     LIG  196   4.684   6.587   4.543
    1AU     LIG  197   4.368   6.756   4.219
    1AU     LIG  198   3.973   6.863   3.954
    1AU     LIG  199   3.653   7.131   3.724
    1AU       S  200   5.422   6.110   5.036
    1AU     LIG  201   5.235   6.131   4.612
    1AU     LIG  202   5.149   5.897   4.214
    1AU     LIG  203   5.045   5.771   3.763
    1AU     LIG  204   5.017   5.870   3.279
    1AU     LIG  205   4.944   6.014   2.810
    1AU    AUSL  206   6.300   6.054   6.050
    1AU    AUSL  207   6.091   5.918   5.705
    1AU     AUL  208   6.242   6.327   5.903
    1AU       S  209   6.440   6.222   5.270
    1AU     LIG  210   6.818   6.455   5.115
    1AU     LIG  211   7.181   6.550   4.837
    1AU     LIG  212   7.508   6.593   4.512
    1AU     LIG  213   7.735   6.835   4.187
    1AU     LIG  214   7.914   7.152   3.885
    1AU       S  215   6.740   6.129   6.104
    1AU     LIG  216   7.145   6.389   6.183
    1AU     LIG  217   7.631   6.482   6.077
    1AU     LIG  218   8.131   6.558   6.024
    1AU     LIG  219   8.539   6.798   6.178
    1AU     LIG  220   8.669   7.148   6.482
    1AU    AUSL  221   6.296   5.841   5.877
    1AU    AUSL  222   6.353   5.643   6.072
    1AU     AUL  223   6.351   5.836   5.623
    1AU       S  224   6.822   5.903   5.950
    1AU     LIG  225   7.323   6.008   5.885
    1AU     LIG  226   7.819   6.079   5.816
    1AU     LIG  227   8.287   6.140   5.712
    1AU     LIG  228   8.735   6.272   5.544
    1AU     LIG  229   9.093   6.350   5.248
    1AU       S  230   6.735   5.408   6.163
    1AU     LIG  231   7.079   5.159   6.371
    1AU     LIG  232   7.519   4.950   6.320
    1AU     LIG  233   7.987   4.822   6.278
    1AU     LIG  234   8.470   4.801   6.249
    1AU     LIG  235   8.926   4.862   6.426
    1AU    AUSL  236   6.155   5.831   6.119
    1AU    AUSL  237   6.041   6.084   6.161
    1AU     AUL  238   6.103   6.234   6.145
    1AU       S  239   6.511   6.443   6.391
    1AU     LIG  240   6.817   6.748   6.603
    1AU     LIG  241   7.004   6.995   6.993
    1AU     LIG  242   7.244   7.385   7.207
    1AU     LIG  243   7.466   7.845   7.277
    1AU     LIG  244   7.839   8.070   7.501
    1AU       S  245   6.746   5.897   6.267
    1AU     LIG  246   7.202   5.916   6.375
    1AU     LIG  247   7.682   6.023   6.308
    1AU     LIG  248   8.183   6.129   6.290
    1AU     LIG  249   8.551   6.393   6.528
    1AU     LIG  250   8.980   6.575   6.674
    1AU    AUSL  251   5.443   6.100   6.096
    1AU    AUSL  252   5.350   6.085   6.366
    1AU     AUL  253   5.313   6.171   6.048
    1AU       S  254   5.001   6.245   6.614
    1AU     LIG  255   4.744   6.533   6.919
    1AU     LIG  256   4.610   6.756   7.328
    1AU     LIG  257   4.405   6.820   7.761
    1AU     LIG  258   4.072   6.812   8.115
    1AU     LIG  259   3.722   6.990   8.387
    1AU       S  260   4.939   6.474   6.153
    1AU     LIG  261   4.595   6.792   6.044
    1AU     LIG  262   4.216   7.103   5.999
    1AU     LIG  263   3.794   7.356   5.961
    1AU     LIG  264   3.357   7.579   5.898
    1AU     LIG  265   2.908   7.751   5.954
    1AU    AUSL  266   5.369   5.968   5.853
    1AU    AUSL  267   5.330   6.249   5.783
    1AU     AUL  268   5.118   6.010   5.910
    1AU       S  269   4.707   5.978   5.644
    1AU     LIG  270   4.202   5.984   5.613
    1AU     LIG  271   3.840   6.197   5.335
    1AU     LIG  272   3.342   6.248   5.386
    1AU     LIG  273   2.937   6.522   5.408
    1AU     LIG  274   2.587   6.699   5.150
    1AU       S  275   5.097   6.597   5.586
    1AU     LIG  276   4.998   6.892   5.177
    1AU     LIG  277   4.939   7.310   4.907
    1AU     LIG  278   4.788   7.784   4.795
    1AU     LIG  279   4.527   8.165   4.623
    1AU     LIG  280   4.202   8.538   4.656
    1AU    AUSL  281   5.268   5.896   6.120
    1AU    AUSL  282   5.175   5.727   5.917
    1AU     AUL  283   5.196   5.945   6.183
    1AU       S  284   4.737   5.545   5.929
    1AU     LIG  285   4.325   5.388   5.721
    1AU     LIG  286   3.872   5.205   5.703
    1AU     LIG  287   3.406   5.104   5.643
    1AU     LIG  288   2.949   5.139   5.744
    1AU     LIG  289   2.552   5.142   5.520
    1AU       S  290   4.710   5.963   6.266
    1AU     LIG  291   4.293   6.065   6.493
    1AU     LIG  292   3.826   6.199   6.585
    1AU     LIG  293   3.383   6.383   6.680
    1AU     LIG  294   2.891   6.390   6.710
    1AU     LIG  295   2.437   6.568   6.584
    1AU    AUSL  296   6.220   5.390   6.029
    1AU    AUSL  297   6.085   5.571   6.188
    1AU     AUL  298   6.230   5.664   6.349
    1AU       S  299   6.533   5.114   6.036
    1AU     LIG  300   6.776   4.777   6.221
    1AU     LIG  301   7.212   4.575   6.150
    1AU     LIG  302   7.679   4.431   6.145
    1AU     LIG  303   8.142   4.284   6.199
    1AU     LIG  304   8.459   3.928   6.318
    1AU       S  305   6.454   5.210   6.516
    1AU     LIG  306   6.733   4.925   6.740
    1AU     LIG  307   6.886   4.573   7.030
    1AU     LIG  308   7.126   4.301   7.339
    1AU     LIG  309   7.405   4.194   7.706
    1AU     LIG  310   7.813   4.192   7.961
    1AU    AUSL  311   6.132   5.625   5.920
    1AU    AUSL  312   6.097   5.389   5.778
    1AU     AUL  313   6.418   5.604   5.784
    1AU       S  314   6.710   5.242   5.938
    1AU     LIG  315   7.139   5.015   5.883
    1AU     LIG  316   7.603   4.825   5.827
    1AU     LIG  317   8.070   4.631   5.811
    1AU     LIG  318   8.561   4.652   5.742
    1AU     LIG  319   8.961   4.728   5.482
    1AU       S  320   6.406   5.099   5.534
    1AU     LIG  321   6.415   4.639   5.448
    1AU     LIG  322   6.674   4.298   5.260
    1AU     LIG  323   6.817   3.943   4.980
    1AU     LIG  324   7.065   3.548   4.861
    1AU     LIG  325   7.416   3.237   4.691
    1AU    AUSL  326   5.286   5.462   5.910
    1AU    AUSL  327   5.403   5.676   5.772
    1AU     AUL  328   5.189   5.827   5.696
    1AU       S  329   4.935   5.437   5.501
    1AU     LIG  330   4.529   5.384   5.259
    1AU     LIG  331   4.293   5.015   5.095
    1AU     LIG  332   4.090   4.697   4.791
    1AU     LIG  333   3.898   4.351   4.516
    1AU     LIG  334   3.693   4.045   4.218
    1AU       S  335   4.843   5.278   5.974
    1AU     LIG  336   4.438   5.042   6.078
    1AU     LIG  337   3.996   4.856   6.063
    1AU     LIG  338   3.507   4.833   6.086
    1AU     LIG  339   3.111   4.595   6.269
    1AU     LIG  340   2.660   4.407   6.376
    1AU    AUSL  341   5.360   5.642   6.107
    1AU    AUSL  342   5.371   5.359   6.166
    1AU     AUL  343   5.194   5.634   6.187
    1AU       S  344   5.079   5.147   6.425
    1AU     LIG  345   4.818   4.808   6.333
    1AU     LIG  346   4.501   4.555   6.545
    1AU     LIG  347   4.239   4.312   6.862
    1AU     LIG  348   3.946   4.077   7.169
    1AU     LIG  349   3.602   3.726   7.196
    1AU       S  350   4.743   5.459   6.125
    1AU     LIG  351   4.295   5.716   6.096
    1AU     LIG  352   3.859   5.667   5.916
    1AU     LIG  353   3.436   5.437   6.013
    1AU     LIG  354   3.105   5.136   6.233
    1AU     LIG  355   2.736   4.938   6.460
    1AU    AUSL  356   5.818   6.235   6.275
    1AU    AUSL  357   5.539   6.296   6.254
    1AU     AUL  358   5.540   6.215   6.580
    1AU       S  359   5.347   6.687   6.482
    1AU     LIG  360   5.039   6.960   6.780
    1AU     LIG  361   4.829   7.207   7.146
    1AU     LIG  362   4.713   7.616   7.386
    1AU     LIG  363   4.422   8.012   7.412
    1AU     LIG  364   4.102   8.377   7.472
    1AU       S  365   5.917   6.702   6.522
    1AU     LIG  366   6.097   6.937   6.872
    1AU     LIG  367   6.096   7.392   7.006
    1AU     LIG  368   6.030   7.781   7.305
    1AU     LIG  369   6.083   8.093   7.695
    1AU     LIG  370   6.079   8.519   7.935
    1AU    AUSL  371   5.730   6.446   6.112
    1AU    AUSL  372   5.729   6.389   5.805
    1AU     AUL  373   5.459   6.641   5.957
    1AU       S  374   5.825   6.827   6.291
    1AU     LIG  375   5.717   7.176   6.600
    1AU     LIG  376   5.768   7.640   6.691
    1AU     LIG  377   5.571   8.071   6.747
    1AU     LIG  378   5.444   8.513   6.854
    1AU     LIG  379   5.418   8.972   6.716
    1AU       S  380   5.880   6.754   5.588
    1AU     LIG  381   6.133   7.158   5.470
    1AU     LIG  382   6.238   7.618   5.333
    1AU     LIG  383   6.521   8.017   5.259
    1AU     LIG  384   6.721   8.457   5.206
    1AU     LIG  385   6.629   8.899   5.083
    1AU    AUSL  386   5.855   6.232   5.998
    1AU    AUSL  387   6.059   6.201   6.414
    1AU     AUL  388   5.962   6.370   5.956
    1AU       S  389   6.353   6.448   6.592
    1AU     LIG  390   6.497   6.616   6.974
    1AU     LIG  391   6.711   6.733   7.353
    1AU     LIG  392   7.059   6.991   7.531
    1AU     LIG  393   7.196   7.252   7.908
    1AU     LIG  394   7.199   7.547   8.292
    1AU       S  395   6.109   6.765   6.256
    1AU     LIG  396   6.211   7.207   6.455
    1AU     LIG  397   6.363   7.653   6.619
    1AU     LIG  398   6.691   8.042   6.653
    1AU     LIG  399   6.850   8.499   6.756
    1AU     LIG  400   6.892   8.888   7.006
    1AU    AUSL  401   5.794   5.428   6.253
    1AU    AUSL  402   6.026   5.290   6.197
    1AU     AUL  403   5.644   5.316   6.322
    1AU       S  404   5.756   4.896   6.547
    1AU     LIG  405   5.562   4.539   6.738
    1AU     LIG  406   5.451   4.093   6.787
    1AU     LIG  407   5.579   3.660   6.939
    1AU     LIG  408   5.582   3.388   7.342
    1AU     LIG  409   5.594   3.280   7.820
    1AU       S  410   6.243   4.970   6.411
    1AU     LIG  411   6.403   4.567   6.594
    1AU     LIG  412   6.648   4.187   6.785
    1AU     LIG  413   6.955   3.900   7.029
    1AU     LIG  414   7.080   3.456   7.186
    1AU     LIG  415   7.390   3.093   7.336
    1AU    AUSL  416   5.612   5.395   6.049
    1AU    AUSL  417   5.545   5.564   6.302
    1AU     AUL  418   5.424   5.527   6.349
    1AU       S  419   5.477   4.836   6.316
    1AU     LIG  420   5.211   4.465   6.372
    1AU     LIG  421   5.245   4.004   6.328
    1AU     LIG  422   5.245   3.581   6.544
    1AU     LIG  423   5.063   3.134   6.646
    1AU     LIG  424   4.994   2.673   6.785
    1AU       S  425   5.268   5.175   6.678
    1AU     LIG  426   5.065   4.756   6.791
    1AU     LIG  427   4.702   4.523   7.027
    1AU     LIG  428   4.393   4.320   7.357
    1AU     LIG  429   4.204   4.123   7.756
    1AU     LIG  430   4.166   3.987   8.223
    1AU    AUSL  431   5.781   5.186   6.108
    1AU    AUSL  432   5.714   5.230   5.837
    1AU     AUL  433   5.411   5.205   5.924
    1AU       S  434   5.748   4.784   5.737
    1AU     LIG  435   5.565   4.324   5.711
    1AU     LIG  436   5.402   3.866   5.590
    1AU     LIG  437   5.162   3.445   5.448
    1AU     LIG  438   4.911   2.999   5.406
    1AU     LIG  439   4.786   2.605   5.135
    1AU       S  440   5.774   4.785   6.252
    1AU     LIG  441   5.694   4.308   6.264
    1AU     LIG  442   5.746   3.846   6.441
    1AU     LIG  443   6.028   3.493   6.652
    1AU     LIG  444   6.147   3.026   6.761
    1AU     LIG  445   6.136   2.520   6.707
    1AU    AUSL  446   5.810   6.142   5.715
    1AU    AUSL  447   6.072   6.105   5.893
    1AU     AUL  448   6.044   6.202   5.743
    1AU       S  449   5.822   6.591   5.329
    1AU     LIG  450   6.023   6.882   5.057
    1AU     LIG  451   6.005   7.348   4.955
    1AU     LIG  452   5.996   7.704   4.625
    1AU     LIG  453   6.033   8.017   4.261
    1AU     LIG  454   5.934   8.430   4.069
    1AU       S  455   6.322   6.506   5.423
    1AU     LIG  456   6.525   6.874   5.210
    1AU     LIG  457   6.890   6.982   4.911
    1AU     LIG  458   7.225   7.244   4.664
    1AU     LIG  459   7.483   7.676   4.658
    1AU     LIG  460   7.657   8.139   4.621
    1AU    AUSL  461   5.579   6.164   5.861
    1AU    AUSL  462   5.553   6.245   5.604
    1AU     AUL  463   5.507   6.362   5.976
    1AU       S  464   5.622   6.742   5.467
    1AU     LIG  465   5.644   7.192   5.302
    1AU     LIG  466   5.692   7.687   5.265
    1AU     LIG  467   5.500   8.149   5.203
    1AU     LIG  468   5.315   8.584   5.356
    1AU     LIG  469   5.358   9.085   5.381
    1AU       S  470   5.254   6.477   5.310
    1AU     LIG  471   5.340   6.633   4.882
    1AU     LIG  472   5.101   6.899   4.553
    1AU     LIG  473   4.978   7.044   4.091
    1AU     LIG  474   4.877   7.316   3.690
    1AU     LIG  475   4.594   7.672   3.525
    1AU    AUSL  476   5.805   5.453   5.703
    1AU    AUSL  477   5.531   5.431   5.784
    1AU     AUL  478   5.547   5.250   5.501
    1AU       S  479   5.042   5.206   5.531
    1AU     LIG  480   4.626   4.982   5.577
    1AU     LIG  481   4.381   4.607   5.393
    1AU     LIG  482   4.194   4.284   5.075
    1AU     LIG  483   3.846   3.993   4.891
    1AU     LIG  484   3.447   3.705   4.863
    1AU       S  485   5.943   4.879   5.531
    1AU     LIG  486   5.940   4.446   5.353
    1AU     LIG  487   5.673   4.098   5.213
    1AU     LIG  488   5.499   3.681   5.095
    1AU     LIG  489   5.536   3.350   4.754
    1AU     LIG  490   5.633   3.066   4.375
    1AU    AUSL  491   5.892   5.404   5.970
    1AU    AUSL  492   6.007   5.410   5.522
    1AU     AUL  493   5.986   5.261   5.918
    1AU       S  494   6.060   4.796   5.807
    1AU     LIG  495   6.064   4.342   5.839
    1AU     LIG  496   5.928   3.943   5.629
    1AU     LIG  497   5.951   3.576   5.323
    1AU     LIG  498   6.209   3.203   5.148
    1AU     LIG  499   6.529   2.845   5.215
    1AU       S  500   6.222   5.197   5.263
    1AU     LIG  501   6.158   4.804   5.031
    1AU     LIG  502   6.360   4.401   4.865
    1AU     LIG  503   6.659   4.176   4.543
    1AU     LIG  504   6.974   4.142   4.171
    1AU     LIG  505   7.173   4.024   3.755
    2POPC   NC3  506   1.900   8.071   8.251
    2POPC   PO4  507   2.381   8.475   8.065
    2POPC   GL1  508   2.166   8.179   7.723
    2POPC   GL2  509   1.989   7.878   7.777
    2POPC   C1A  510   2.122   8.081   7.270
    2POPC   D2A  511   2.190   8.351   6.907
    2POPC   C3A  512   2.207   8.252   6.454
    2POPC   C4A  513   2.377   8.447   6.065
    2POPC   C1B  514   1.672   7.877   7.427
    2POPC   C2B  515   1.724   7.783   6.998
    2POPC   C3B  516   1.823   7.855   6.560
    2POPC   C4B  517   1.718   8.158   6.272
    3POPC   NC3  518   1.963   2.826   8.294
    3POPC   PO4  519   1.615   3.254   7.973
    3POPC   GL1  520   1.717   3.061   7.635
    3POPC   GL2  521   1.971   2.967   7.702
    3POPC   C1A  522   1.657   2.761   7.269
    3POPC   D2A  523   1.779   2.545   6.890
    3POPC   C3A  524   1.753   2.831   6.584
    3POPC   C4A  525   1.661   2.878   6.194
    3POPC   C1B  526   2.177   2.790   7.350
    3POPC   C2B  527   2.360   2.771   6.949
    3POPC   C3B  528   2.241   2.593   6.599
    3POPC   C4B  529   2.152   2.802   6.239
    4POPC   NC3  530   8.037   9.802   7.983
    4POPC   PO4  531   8.270   9.187   8.163
    4POPC   GL1  532   8.371   9.376   7.762
    4POPC   GL2  533   8.074   9.535   7.558
    4POPC   C1A  534   8.493   9.329   7.337
    4POPC   D2A  535   8.245   9.528   7.014
    4POPC   C3A  536   8.396   9.643   6.613
    4POPC   C4A  537   8.438   9.421   6.181
    4POPC   C1B  538   7.799   9.817   7.303
    4POPC   C2B  539   7.756   9.928   6.871
    4POPC   C3B  540   7.674   9.740   6.500
    4POPC   C4B  541   7.995   9.639   6.311
    5POPC   NC3  542   1.945   0.556   7.909
    5POPC   PO4  543   1.550   0.036   8.052
    5POPC   GL1  544   1.660   0.117   7.616
    5POPC   GL2  545   1.974   0.295   7.494
    5POPC   C1A  546   1.736   0.040   7.165
    5POPC   D2A  547   1.794   0.338   6.841
    5POPC   C3A  548   1.892   0.176   6.457
    5POPC   C4A  549   1.709   0.149   6.060
    5POPC   C1B  550   1.921   0.684   7.247
    5POPC   C2B  551   1.878   0.852   6.819
    5POPC   C3B  552   2.045   0.684   6.403
    5POPC   C4B  553   1.920   0.576   5.932
    6POPC   NC3  554   7.231   9.213   8.043
    6POPC   PO4  555   7.477   9.822   8.042
    6POPC   GL1  556   7.346   9.584   7.691
    6POPC   GL2  557   7.093   9.843   7.634
    6POPC   C1A  558   7.587   9.350   7.350
    6POPC   D2A  559   7.760   9.388   6.905
    6POPC   C3A  560   7.570   9.264   6.486
    6POPC   C4A  561   7.663   9.394   6.014
    6POPC   C1B  562   7.285   9.758   7.225
    6POPC   C2B  563   7.291   9.688   6.823
    6POPC   C3B  564   7.178   9.580   6.406
    6POPC   C4B  565   7.206   9.664   5.953
    7POPC   NC3  566  10.963   0.452   8.127
    7POPC   PO4  567   0.130   0.738   8.168
    7POPC   GL1  568   0.139   0.548   7.766
    7POPC   GL2  569  11.293   0.492   7.663
    7POPC   C1A  570   0.160   0.664   7.328
    7POPC   D2A  571  11.311   0.694   7.048
    7POPC   C3A  572  11.421   0.534   6.644
    7POPC   C4A  573  11.197   0.513   6.255
    7POPC   C1B  574  10.937   0.456   7.363
    7POPC   C2B  575  10.847   0.530   6.915
    7POPC   C3B  576  10.845   0.266   6.538
    7POPC   C4B  577  10.612   0.053   6.216
    8POPC   NC3  578  10.552   7.246   8.073
    8POPC   PO4  579  10.545   7.918   8.061
    8POPC   GL1  580  10.643   7.636   7.709
    8POPC   GL2  581  10.352   7.416   7.654
    8POPC   C1A  582  10.695   7.491   7.263
    8POPC   D2A  583  10.638   7.677   6.849
    8POPC   C3A  584  10.478   7.407   6.511
    8POPC   C4A  585  10.580   7.418   6.076
    8POPC   C1B  586  10.172   7.537   7.288
    8POPC   C2B  587  10.256   7.285   6.955
    8POPC   C3B  588  10.108   7.048   6.621
    8POPC   C4B  589  10.038   7.283   6.246
    9POPC   NC3  590   2.038   8.878   8.009
    9POPC   PO4  591   1.697   8.300   7.915
    9POPC   GL1  592   1.885   8.570   7.593
    9POPC   GL2  593   2.253   8.679   7.590
    9POPC   C1A  594   1.729   8.418   7.211
    9POPC   D2A  595   1.713   8.300   6.783
    9POPC   C3A  596   1.822   8.611   6.472
    9POPC   C4A  597   1.867   8.590   6.011
    9POPC   C1B  598   2.122   8.797   7.156
    9POPC   C2B  599   2.219   8.855   6.707
    9POPC   C3B  600   2.133   8.974   6.264
    9POPC   C4B  601   1.910   9.314   6.026
   10POPC   NC3  602   9.375   1.766   8.132
   10POPC   PO4  603   8.736   1.977   8.014
   10POPC   GL1  604   8.873   1.963   7.587
   10POPC   GL2  605   8.999   2.322   7.625
   10POPC   C1A  606   8.903   1.755   7.138
   10POPC   D2A  607   9.184   2.006   6.791
   10POPC   C3A  608   9.339   1.861   6.418
   10POPC   C4A  609   9.009   1.980   6.132
   10POPC   C1B  610   8.981   2.253   7.193
   10POPC   C2B  611   8.715   2.122   6.852
   10POPC   C3B  612   8.592   1.967   6.467
   10POPC   C4B  613   8.523   2.239   6.105
   11POPC   NC3  614  11.266   5.936   8.055
   11POPC   PO4  615  10.669   6.292   8.060
   11POPC   GL1  616  10.932   6.147   7.692
   11POPC   GL2  617  11.005   5.767   7.658
   11POPC   C1A  618  11.058   6.028   7.241
   11POPC   D2A  619  11.344   5.810   6.928
   11POPC   C3A  620  11.175   5.829   6.503
   11POPC   C4A  621  11.070   6.237   6.328
   11POPC   C1B  622  11.249   5.529   7.360
   11POPC   C2B  623  11.463   5.306   7.028
   11POPC   C3B  624  11.474   5.409   6.594
   11POPC   C4B  625  11.260   5.409   6.186
   12POPC   NC3  626   0.441   0.308   8.143
   12POPC   PO4  627   0.863   0.793   7.954
   12POPC   GL1  628   0.644   0.586   7.671
   12POPC   GL2  629   0.778   0.281   7.629
   12POPC   C1A  630   0.686   0.711   7.253
   12POPC   D2A  631   0.478   0.594   6.868
   12POPC   C3A  632   0.650   0.756   6.480
   12POPC   C4A  633   0.812   0.625   6.061
   12POPC   C1B  634   0.481   0.239   7.280
   12POPC   C2B  635   0.268   0.116   6.880
   12POPC   C3B  636   0.389   0.258   6.463
   12POPC   C4B  637   0.277   0.589   6.178
   13POPC   NC3  638   2.799   2.842   8.077
   13POPC   PO4  639   2.228   3.181   8.169
   13POPC   GL1  640   2.456   2.976   7.748
   13POPC   GL2  641   2.604   2.655   7.655
   13POPC   C1A  642   2.627   3.022   7.309
   13POPC   D2A  643   2.664   3.219   6.904
   13POPC   C3A  644   2.606   2.984   6.519
   13POPC   C4A  645   2.815   2.657   6.362
   13POPC   C1B  646   2.594   2.446   7.270
   13POPC   C2B  647   2.750   2.438   6.850
   13POPC   C3B  648   2.601   2.221   6.498
   13POPC   C4B  649   2.428   2.385   6.163
   14POPC   NC3  650  11.155   8.824   8.102
   14POPC   PO4  651  10.755   8.647   7.644
   14POPC   GL1  652  10.904   9.041   7.624
   14POPC   GL2  653  11.270   9.018   7.640
   14POPC   C1A  654  10.903   9.141   7.194
   14POPC   D2A  655  10.940   8.742   6.950
   14POPC   C3A  656  11.019   8.769   6.517
   14POPC   C4A  657  10.945   8.666   6.089
   14POPC   C1B  658  11.397   9.245   7.262
   14POPC   C2B  659  11.246   9.321   6.853
   14POPC   C3B  660  11.479   9.212   6.510
   14POPC   C4B  661  11.338   8.964   6.150
   15POPC   NC3  662   8.545  11.387   8.051
   15POPC   PO4  663   9.138  10.974   8.221
   15POPC   GL1  664   8.873  10.977   7.774
   15POPC   GL2  665   8.822  11.307   7.627
   15POPC   C1A  666   8.820  10.936   7.279
   15POPC   D2A  667   8.981  11.168   6.862
   15POPC   C3A  668   8.974  10.949   6.413
   15POPC   C4A  669   8.861  10.903   5.959
   15POPC   C1B  670   8.540  11.397   7.256
   15POPC   C2B  671   8.518   0.062   6.823
   15POPC   C3B  672   8.788  11.479   6.460
   15POPC   C4B  673   9.236  11.401   6.420
   16POPC   NC3  674   6.991  11.219   7.849
   16POPC   PO4  675   6.881  10.621   8.119
   16POPC   GL1  676   6.718  10.782   7.713
   16POPC   GL2  677   6.688  11.088   7.482
   16POPC   C1A  678   6.866  10.675   7.265
   16POPC   D2A  679   6.749  10.964   6.886
   16POPC   C3A  680   6.730  10.806   6.425
   16POPC   C4A  681   6.492  11.040   6.062
   16POPC   C1B  682   6.463  11.341   7.202
   16POPC   C2B  683   6.298  11.231   6.798
   16POPC   C3B  684   6.611  11.307   6.501
   16POPC   C4B  685   6.535   0.074   6.196
   17POPC   NC3  686   0.541   8.046   8.083
   17POPC   PO4  687   0.003   7.657   7.846
   17POPC   GL1  688   0.115   7.938   7.561
   17POPC   GL2  689   0.458   8.073   7.576
   17POPC   C1A  690   0.123   7.961   7.123
   17POPC   D2A  691   0.372   8.181   6.827
   17POPC   C3A  692   0.221   8.075   6.444
   17POPC   C4A  693   0.215   8.099   6.025
   17POPC   C1B  694   0.706   8.354   7.317
   17POPC   C2B  695   0.767   8.516   6.887
   17POPC   C3B  696   0.882   8.209   6.604
   17POPC   C4B  697   0.708   8.009   6.260
   18POPC   NC3  698   4.064  11.070   8.144
   18POPC   PO4  699   4.678  11.427   8.004
   18POPC   GL1  700   4.432  11.432   7.635
   18POPC   GL2  701   4.163  11.193   7.659
   18POPC   C1A  702   4.436  11.457   7.163
   18POPC   D2A  703   4.186   0.040   6.779
   18POPC   C3A  704   4.214  11.304   6.403
   18POPC   C4A  705   4.204  11.378   5.948
   18POPC   C1B  706   4.337  10.969   7.292
   18POPC   C2B  707   4.360  11.055   6.843
   18POPC   C3B  708   4.632  10.935   6.491
   18POPC   C4B  709   4.425  10.907   6.111
   19POPC   NC3  710   5.835  11.127   7.998
   19POPC   PO4  711   6.555  11.151   8.036
   19POPC   GL1  712   6.260  11.020   7.715
   19POPC   GL2  713   6.123  11.326   7.613
   19POPC   C1A  714   6.151  10.941   7.227
   19POPC   D2A  715   5.800  10.744   6.986
   19POPC   C3A  716   5.771  10.827   6.539
   19POPC   C4A  717   6.012  11.066   6.235
   19POPC   C1B  718   5.814  11.336   7.302
   19POPC   C2B  719   5.752  11.236   6.890
   19POPC   C3B  720   5.644  11.321   6.504
   19POPC   C4B  721   5.470   0.105   6.271
   20POPC   NC3  722   6.387   1.007   8.148
   20POPC   PO4  723   6.196   1.634   8.011
   20POPC   GL1  724   6.451   1.334   7.720
   20POPC   GL2  725   6.604   0.993   7.694
   20POPC   C1A  726   6.580   1.388   7.275
   20POPC   D2A  727   6.545   1.640   6.896
   20POPC   C3A  728   6.466   1.422   6.539
   20POPC   C4A  729   6.300   1.358   6.139
   20POPC   C1B  730   6.817   0.935   7.323
   20POPC   C2B  731   6.672   1.009   6.923
   20POPC   C3B  732   6.848   0.968   6.544
   20POPC   C4B  733   6.781   1.176   6.193
   21POPC   NC3  734   0.378   6.288   8.179
   21POPC   PO4  735   0.573   6.962   8.064
   21POPC   GL1  736   0.279   6.784   7.734
   21POPC   GL2  737   0.416   6.459   7.674
   21POPC   C1A  738   0.114   6.727   7.285
   21POPC   D2A  739   0.243   6.526   6.898
   21POPC   C3A  740   0.106   6.740   6.546
   21POPC   C4A  741   0.233   6.899   6.146
   21POPC   C1B  742   0.602   6.586   7.268
   21POPC   C2B  743   0.739   6.386   6.859
   21POPC   C3B  744   0.595   6.569   6.470
   21POPC   C4B  745   0.544   6.498   6.039
   22POPC   NC3  746   2.372   6.251   8.157
   22POPC   PO4  747   2.212   6.852   8.083
   22POPC   GL1  748   1.883   6.861   7.776
   22POPC   GL2  749   1.874   6.508   7.711
   22POPC   C1A  750   1.858   6.921   7.339
   22POPC   D2A  751   1.978   6.761   6.928
   22POPC   C3A  752   2.100   6.984   6.557
   22POPC   C4A  753   2.235   6.845   6.135
   22POPC   C1B  754   2.044   6.273   7.321
   22POPC   C2B  755   1.895   6.259   6.868
   22POPC   C3B  756   1.902   6.485   6.453
   22POPC   C4B  757   1.776   6.324   6.040
   23POPC   NC3  758  11.107   7.689   8.069
   23POPC   PO4  759  10.964   8.400   8.240
   23POPC   GL1  760  10.961   8.155   7.819
   23POPC   GL2  761  11.224   8.339   7.641
   23POPC   C1A  762  11.038   7.905   7.397
   23POPC   D2A  763  11.153   7.643   7.006
   23POPC   C3A  764  11.058   7.825   6.568
   23POPC   C4A  765  11.019   7.981   6.122
   23POPC   C1B  766  11.257   8.345   7.180
   23POPC   C2B  767  11.303   8.252   6.735
   23POPC   C3B  768  11.319   8.374   6.292
   23POPC   C4B  769  11.282   8.302   5.831
   24POPC   NC3  770   0.127   4.254   8.274
   24POPC   PO4  771   0.762   4.422   8.233
   24POPC   GL1  772   0.420   4.285   7.851
   24POPC   GL2  773   0.292   4.541   7.658
   24POPC   C1A  774   0.333   4.109   7.378
   24POPC   D2A  775   0.477   4.179   6.936
   24POPC   C3A  776   0.310   3.986   6.566
   24POPC   C4A  777   0.400   4.040   6.104
   24POPC   C1B  778   0.571   4.552   7.304
   24POPC   C2B  779   0.614   4.662   6.861
   24POPC   C3B  780   0.431   4.503   6.476
   24POPC   C4B  781   0.123   4.513   6.153
   25POPC   NC3  782   1.159   1.158   8.047
   25POPC   PO4  783   1.584   1.670   8.061
   25POPC   GL1  784   1.261   1.558   7.712
   25POPC   GL2  785   1.247   1.184   7.570
   25POPC   C1A  786   1.270   1.564   7.238
   25POPC   D2A  787   1.036   1.481   6.844
   25POPC   C3A  788   1.282   1.567   6.508
   25POPC   C4A  789   1.408   1.438   6.129
   25POPC   C1B  790   1.157   1.027   7.177
   25POPC   C2B  791   1.189   0.982   6.766
   25POPC   C3B  792   1.075   1.090   6.372
   25POPC   C4B  793   1.245   0.987   5.968
   26POPC   NC3  794   1.306   9.616   8.116
   26POPC   PO4  795   1.830   9.290   7.887
   26POPC   GL1  796   1.620   9.649   7.611
   26POPC   GL2  797   1.304   9.823   7.671
   26POPC   C1A  798   1.439   9.738   7.193
   26POPC   D2A  799   1.220   9.436   6.964
   26POPC   C3A  800   1.327   9.375   6.551
   26POPC   C4A  801   1.255   9.517   6.178
   26POPC   C1B  802   0.963   9.734   7.392
   26POPC   C2B  803   0.964   9.890   6.989
   26POPC   C3B  804   1.144   9.844   6.603
   26POPC   C4B  805   0.857   9.802   6.262
   27POPC   NC3  806   5.327   2.697   8.227
   27POPC   PO4  807   5.438   2.017   8.155
   27POPC   GL1  808   5.415   1.808   7.707
   27POPC   GL2  809   5.791   1.735   7.607
   27POPC   C1A  810   5.413   1.934   7.241
   27POPC   D2A  811   5.692   2.086   6.897
   27POPC   C3A  812   5.551   1.990   6.469
   27POPC   C4A  813   5.684   2.201   6.098
   27POPC   C1B  814   5.693   1.514   7.248
   27POPC   C2B  815   5.637   1.587   6.829
   27POPC   C3B  816   5.975   1.726   6.581
   27POPC   C4B  817   5.876   1.619   6.199
   28POPC   NC3  818   7.639   0.296   7.940
   28POPC   PO4  819   7.136  11.426   8.246
   28POPC   GL1  820   7.049   0.231   7.819
   28POPC   GL2  821   7.184   0.586   7.851
   28POPC   C1A  822   7.089   0.137   7.310
   28POPC   D2A  823   6.905  11.479   6.915
   28POPC   C3A  824   7.124   0.010   6.515
   28POPC   C4A  825   7.020   0.169   6.097
   28POPC   C1B  826   7.233   0.623   7.400
   28POPC   C2B  827   7.401   0.466   7.010
   28POPC   C3B  828   7.427   0.423   6.557
   28POPC   C4B  829   7.267   0.620   6.175
   29POPC   NC3  830   7.981   8.825   8.189
   29POPC   PO4  831   8.530   8.585   8.135
   29POPC   GL1  832   8.279   8.816   7.761
   29POPC   GL2  833   7.955   9.055   7.739
   29POPC   C1A  834   7.955   8.647   7.422
   29POPC   D2A  835   7.850   8.796   6.960
   29POPC   C3A  836   8.110   8.682   6.610
   29POPC   C4A  837   7.990   8.516   6.220
   29POPC   C1B  838   8.039   9.120   7.296
   29POPC   C2B  839   8.337   8.996   6.986
   29POPC   C3B  840   8.350   9.137   6.599
   29POPC   C4B  841   8.017   9.122   6.333
   30POPC   NC3  842   6.343   9.596   8.220
   30POPC   PO4  843   6.778   9.108   8.061
   30POPC   GL1  844   6.806   9.431   7.722
   30POPC   GL2  845   6.600   9.755   7.748
   30POPC   C1A  846   6.794   9.621   7.278
   30POPC   D2A  847   6.829   9.485   6.863
   30POPC   C3A  848   6.694   9.725   6.504
   30POPC   C4A  849   6.764   9.439   6.130
   30POPC   C1B  850   6.316   9.721   7.408
   30POPC   C2B  851   6.366   9.823   6.973
   30POPC   C3B  852   6.167   9.695   6.587
   30POPC   C4B  853   6.069   9.878   6.212
   31POPC   NC3  854   2.312   5.395   8.233
   31POPC   PO4  855   3.026   5.328   8.153
   31POPC   GL1  856   2.687   5.508   7.846
   31POPC   GL2  857   2.560   5.856   7.842
   31POPC   C1A  858   2.630   5.532   7.368
   31POPC   D2A  859   2.816   5.367   6.953
   31POPC   C3A  860   2.720   5.464   6.521
   31POPC   C4A  861   2.953   5.615   6.168
   31POPC   C1B  862   2.597   6.032   7.402
   31POPC   C2B  863   2.716   5.887   6.968
   31POPC   C3B  864   2.656   5.972   6.514
   31POPC   C4B  865   2.278   6.150   6.307
   32POPC   NC3  866   8.080   2.058   8.208
   32POPC   PO4  867   7.864   1.566   7.836
   32POPC   GL1  868   8.100   1.800   7.558
   32POPC   GL2  869   8.323   2.028   7.744
   32POPC   C1A  870   8.413   1.620   7.274
   32POPC   D2A  871   8.476   1.540   6.821
   32POPC   C3A  872   8.049   1.622   6.627
   32POPC   C4A  873   7.758   1.579   6.246
   32POPC   C1B  874   8.454   2.127   7.335
   32POPC   C2B  875   8.248   1.992   6.955
   32POPC   C3B  876   8.121   2.164   6.582
   32POPC   C4B  877   8.149   1.894   6.213
   33POPC   NC3  878   4.544  10.955   7.970
   33POPC   PO4  879   4.346  10.340   8.262
   33POPC   GL1  880   4.563  10.351   7.791
   33POPC   GL2  881   4.281  10.332   7.517
   33POPC   C1A  882   4.714  10.465   7.350
   33POPC   D2A  883   4.697  10.703   6.967
   33POPC   C3A  884   4.668  10.428   6.585
   33POPC   C4A  885   4.729  10.490   6.144
   33POPC   C1B  886   3.995  10.154   7.244
   33POPC   C2B  887   3.927   9.956   6.858
   33POPC   C3B  888   3.893  10.131   6.428
   33POPC   C4B  889   4.236  10.392   6.278
   34POPC   NC3  890   7.424   8.232   8.060
   34POPC   PO4  891   6.833   8.202   8.002
   34POPC   GL1  892   7.112   8.418   7.676
   34POPC   GL2  893   7.472   8.427   7.590
   34POPC   C1A  894   7.107   8.439   7.215
   34POPC   D2A  895   7.252   8.178   6.836
   34POPC   C3A  896   7.112   8.250   6.398
   34POPC   C4A  897   6.786   8.085   6.120
   34POPC   C1B  898   7.612   8.367   7.157
   34POPC   C2B  899   7.737   8.331   6.729
   34POPC   C3B  900   7.616   8.188   6.325
   34POPC   C4B  901   7.646   8.298   5.873
   35POPC   NC3  902   0.939   6.748   7.872
   35POPC   PO4  903   0.928   6.126   8.131
   35POPC   GL1  904   0.991   6.286   7.675
   35POPC   GL2  905   1.340   6.447   7.701
   35POPC   C1A  906   1.085   6.489   7.243
   35POPC   D2A  907   0.987   6.820   6.923
   35POPC   C3A  908   1.112   6.616   6.516
   35POPC   C4A  909   1.051   6.482   6.082
   35POPC   C1B  910   1.579   6.472   7.294
   35POPC   C2B  911   1.486   6.623   6.891
   35POPC   C3B  912   1.577   6.873   6.567
   35POPC   C4B  913   1.491   6.746   6.162
   36POPC   NC3  914   3.230   5.741   8.104
   36POPC   PO4  915   3.035   6.316   8.268
   36POPC   GL1  916   3.052   6.187   7.750
   36POPC   GL2  917   3.028   5.849   7.639
   36POPC   C1A  918   3.105   6.156   7.211
   36POPC   D2A  919   3.170   5.926   6.746
   36POPC   C3A  920   3.109   6.135   6.304
   36POPC   C4A  921   3.158   6.378   5.877
   36POPC   C1B  922   3.120   5.650   7.256
   36POPC   C2B  923   3.331   5.457   6.913
   36POPC   C3B  924   3.469   5.559   6.505
   36POPC   C4B  925   3.563   5.911   6.253
   37POPC   NC3  926   8.340   0.624   7.992
   37POPC   PO4  927   8.090   0.054   7.998
   37POPC   GL1  928   8.338   0.204   7.654
   37POPC   GL2  929   8.055   0.451   7.601
   37POPC   C1A  930   8.390   0.388   7.215
   37POPC   D2A  931   8.071   0.339   6.849
   37POPC   C3A  932   8.246   0.381   6.428
   37POPC   C4A  933   8.307   0.075   6.029
   37POPC   C1B  934   7.827   0.656   7.252
   37POPC   C2B  935   7.772   0.774   6.804
   37POPC   C3B  936   7.793   0.693   6.323
   37POPC   C4B  937   7.687   0.720   5.862
   38POPC   NC3  938   1.661   2.635   7.908
   38POPC   PO4  939   1.088   2.983   8.050
   38POPC   GL1  940   1.056   2.739   7.704
   38POPC   GL2  941   1.227   2.982   7.533
   38POPC   C1A  942   1.187   2.524   7.305
   38POPC   D2A  943   1.271   2.690   6.880
   38POPC   C3A  944   1.413   2.455   6.497
   38POPC   C4A  945   1.394   2.478   6.047
   38POPC   C1B  946   1.014   3.125   7.175
   38POPC   C2B  947   0.782   3.012   6.797
   38POPC   C3B  948   0.805   3.099   6.347
   38POPC   C4B  949   0.874   3.148   5.875
   39POPC   NC3  950   0.685   2.760   8.089
   39POPC   PO4  951   0.779   2.145   8.134
   39POPC   GL1  952   0.643   2.384   7.725
   39POPC   GL2  953   0.348   2.615   7.724
   39POPC   C1A  954   0.695   2.668   7.343
   39POPC   D2A  955   0.801   2.484   6.942
   39POPC   C3A  956   0.914   2.608   6.506
   39POPC   C4A  957   0.895   2.341   6.153
   39POPC   C1B  958   0.167   2.729   7.313
   39POPC   C2B  959   0.332   2.690   6.915
   39POPC   C3B  960   0.398   2.785   6.491
   39POPC   C4B  961   0.068   2.773   6.184
   40POPC   NC3  962   4.993   1.882   8.047
   40POPC   PO4  963   4.906   2.611   8.032
   40POPC   GL1  964   4.969   2.268   7.688
   40POPC   GL2  965   4.707   2.017   7.636
   40POPC   C1A  966   4.951   2.192   7.213
   40POPC   D2A  967   5.188   2.189   6.803
   40POPC   C3A  968   5.073   2.332   6.355
   40POPC   C4A  969   5.261   2.416   5.898
   40POPC   C1B  970   4.981   1.700   7.396
   40POPC   C2B  971   4.957   1.739   6.921
   40POPC   C3B  972   5.038   1.827   6.475
   40POPC   C4B  973   4.861   1.660   6.085
   41POPC   NC3  974   8.967  10.559   8.052
   41POPC   PO4  975   8.396  10.179   8.163
   41POPC   GL1  976   8.533  10.450   7.764
   41POPC   GL2  977   8.872  10.376   7.596
   41POPC   C1A  978   8.490  10.470   7.279
   41POPC   D2A  979   8.580  10.296   6.832
   41POPC   C3A  980   8.565  10.593   6.442
   41POPC   C4A  981   8.450  10.615   5.985
   41POPC   C1B  982   8.980  10.195   7.200
   41POPC   C2B  983   9.105  10.263   6.765
   41POPC   C3B  984   8.873  10.192   6.396
   41POPC   C4B  985   8.903  10.374   6.017
   42POPC   NC3  986   7.488   2.230   8.044
   42POPC   PO4  987   7.796   1.716   8.339
   42POPC   GL1  988   7.419   1.742   7.866
   42POPC   GL2  989   7.591   1.969   7.624
   42POPC   C1A  990   7.494   1.604   7.320
   42POPC   D2A  991   7.757   1.863   6.971
   42POPC   C3A  992   7.651   1.994   6.486
   42POPC   C4A  993   7.326   1.880   6.144
   42POPC   C1B  994   7.359   2.079   7.235
   42POPC   C2B  995   7.275   1.898   6.817
   42POPC   C3B  996   7.184   2.207   6.495
   42POPC   C4B  997   6.928   2.210   6.131
   43POPC   NC3  998   7.556   1.240   7.971
   43POPC   PO4  999   6.848   1.253   8.081
   43POPC   GL1 1000   6.977   1.376   7.669
   43POPC   GL2 1001   7.188   1.089   7.654
   43POPC   C1A 1002   7.077   1.356   7.213
   43POPC   D2A 1003   6.988   1.413   6.789
   43POPC   C3A 1004   7.261   1.461   6.436
   43POPC   C4A 1005   7.142   1.455   5.970
   43POPC   C1B 1006   7.475   1.058   7.305
   43POPC   C2B 1007   7.249   0.954   6.937
   43POPC   C3B 1008   7.362   0.958   6.534
   43POPC   C4B 1009   7.476   1.103   6.129
   44POPC   NC3 1010   2.021   9.710   7.912
   44POPC   PO4 1011   2.406   9.148   8.115
   44POPC   GL1 1012   2.338   9.360   7.701
   44POPC   GL2 1013   2.110   9.168   7.492
   44POPC   C1A 1014   2.330   9.582   7.271
   44POPC   D2A 1015   2.339   9.355   6.866
   44POPC   C3A 1016   2.120   9.453   6.487
   44POPC   C4A 1017   2.132   9.758   6.166
   44POPC   C1B 1018   1.881   9.281   7.102
   44POPC   C2B 1019   1.726   9.591   6.799
   44POPC   C3B 1020   1.666   9.739   6.391
   44POPC   C4B 1021   1.686   9.938   6.009
   45POPC   NC3 1022  11.087   3.464   7.984
   45POPC   PO4 1023   0.131   3.250   7.701
   45POPC   GL1 1024  11.207   3.461   7.495
   45POPC   GL2 1025  10.991   3.800   7.619
   45POPC   C1A 1026  10.949   3.646   7.138
   45POPC   D2A 1027  10.762   3.388   6.835
   45POPC   C3A 1028  11.085   3.186   6.603
   45POPC   C4A 1029  11.019   3.168   6.172
   45POPC   C1B 1030  11.338   3.935   7.362
   45POPC   C2B 1031   0.070   3.756   7.014
   45POPC   C3B 1032  11.303   3.803   6.656
   45POPC   C4B 1033  11.060   3.701   6.280
   46POPC   NC3 1034   8.814   8.227   8.073
   46POPC   PO4 1035   8.507   7.740   7.863
   46POPC   GL1 1036   8.869   7.843   7.630
   46POPC   GL2 1037   8.959   8.188   7.588
   46POPC   C1A 1038   8.929   7.757   7.182
   46POPC   D2A 1039   9.086   7.953   6.770
   46POPC   C3A 1040   8.947   7.770   6.348
   46POPC   C4A 1041   8.668   7.765   5.937
   46POPC   C1B 1042   9.052   8.498   7.299
   46POPC   C2B 1043   9.204   8.479   6.872
   46POPC   C3B 1044   9.012   8.332   6.444
   46POPC   C4B 1045   8.945   8.173   6.016
   47POPC   NC3 1046   1.251   8.293   8.065
   47POPC   PO4 1047   0.913   7.769   8.110
   47POPC   GL1 1048   0.963   8.047   7.717
   47POPC   GL2 1049   0.949   7.780   7.511
   47POPC   C1A 1050   1.217   8.201   7.308
   47POPC   D2A 1051   1.271   8.498   6.938
   47POPC   C3A 1052   1.326   8.444   6.473
   47POPC   C4A 1053   1.058   8.356   6.114
   47POPC   C1B 1054   1.221   7.698   7.151
   47POPC   C2B 1055   1.304   7.989   6.805
   47POPC   C3B 1056   1.263   7.948   6.369
   47POPC   C4B 1057   1.491   7.705   6.123
   48POPC   NC3 1058   0.676  10.412   7.908
   48POPC   PO4 1059   0.135  10.030   8.155
   48POPC   GL1 1060   0.290  10.128   7.688
   48POPC   GL2 1061   0.298  10.490   7.580
   48POPC   C1A 1062   0.622  10.164   7.302
   48POPC   D2A 1063   0.485  10.010   6.872
   48POPC   C3A 1064   0.765  10.201   6.598
   48POPC   C4A 1065   0.676  10.428   6.252
   48POPC   C1B 1066   0.143  10.311   7.206
   48POPC   C2B 1067   0.327  10.503   6.843
   48POPC   C3B 1068   0.231  10.582   6.432
   48POPC   C4B 1069   0.084  10.840   6.122
   49POPC   NC3 1070   1.203   3.429   8.053
   49POPC   PO4 1071   0.758   3.912   7.885
   49POPC   GL1 1072   1.134   3.784   7.606
   49POPC   GL2 1073   1.383   3.511   7.595
   49POPC   C1A 1074   1.206   3.665   7.141
   49POPC   D2A 1075   1.057   3.455   6.749
   49POPC   C3A 1076   1.160   3.704   6.374
   49POPC   C4A 1077   1.128   3.596   5.944
   49POPC   C1B 1078   1.532   3.290   7.252
   49POPC   C2B 1079   1.465   3.153   6.888
   49POPC   C3B 1080   1.514   3.322   6.517
   49POPC   C4B 1081   1.274   3.202   6.207
   50POPC   NC3 1082   1.859   7.107   8.217
   50POPC   PO4 1083   1.242   6.950   8.141
   50POPC   GL1 1084   1.362   7.022   7.718
   50POPC   GL2 1085   1.220   7.376   7.734
   50POPC   C1A 1086   1.347   6.942   7.273
   50POPC   D2A 1087   1.329   7.229   6.916
   50POPC   C3A 1088   1.128   7.133   6.536
   50POPC   C4A 1089   1.337   7.231   6.192
   50POPC   C1B 1090   0.977   7.276   7.381
   50POPC   C2B 1091   0.824   7.354   6.970
   50POPC   C3B 1092   0.991   7.609   6.645
   50POPC   C4B 1093   0.951   7.559   6.207
   51POPC   NC3 1094   3.511   9.524   8.341
   51POPC   PO4 1095   3.373  10.146   8.144
   51POPC   GL1 1096   3.603   9.974   7.793
   51POPC   GL2 1097   3.582   9.614   7.740
   51POPC   C1A 1098   3.546   9.943   7.352
   51POPC   D2A 1099   3.246   9.818   7.043
   51POPC   C3A 1100   3.470   9.786   6.679
   51POPC   C4A 1101   3.424   9.948   6.307
   51POPC   C1B 1102   3.505   9.437   7.310
   51POPC   C2B 1103   3.334   9.328   6.883
   51POPC   C3B 1104   3.508   9.330   6.436
   51POPC   C4B 1105   3.818   9.310   6.097
   52POPC   NC3 1106   8.862   3.309   8.214
   52POPC   PO4 1107   9.144   3.840   8.134
   52POPC   GL1 1108   9.243   3.621   7.733
   52POPC   GL2 1109   8.996   3.345   7.723
   52POPC   C1A 1110   9.126   3.601   7.272
   52POPC   D2A 1111   8.862   3.574   6.883
   52POPC   C3A 1112   8.991   3.690   6.452
   52POPC   C4A 1113   8.869   3.832   6.031
   52POPC   C1B 1114   8.863   3.159   7.335
   52POPC   C2B 1115   9.041   3.105   6.942
   52POPC   C3B 1116   8.790   3.141   6.586
   52POPC   C4B 1117   8.671   3.369   6.193
   53POPC   NC3 1118   1.710   5.305   7.997
   53POPC   PO4 1119   2.164   5.834   8.179
   53POPC   GL1 1120   2.114   5.594   7.766
   53POPC   GL2 1121   1.766   5.681   7.651
   53POPC   C1A 1122   2.122   5.713   7.294
   53POPC   D2A 1123   1.892   5.739   6.891
   53POPC   C3A 1124   2.133   5.688   6.513
   53POPC   C4A 1125   2.016   5.471   6.108
   53POPC   C1B 1126   1.617   5.950   7.285
   53POPC   C2B 1127   1.392   6.122   6.910
   53POPC   C3B 1128   1.468   6.198   6.483
   53POPC   C4B 1129   1.728   5.881   6.276
   54POPC   NC3 1130  11.137   9.778   8.034
   54POPC   PO4 1131   0.067   9.182   8.080
   54POPC   GL1 1132  11.469   9.504   7.697
   54POPC   GL2 1133  11.091   9.505   7.624
   54POPC   C1A 1134  11.338   9.776   7.290
   54POPC   D2A 1135  11.406   9.997   6.882
   54POPC   C3A 1136  11.354   9.735   6.549
   54POPC   C4A 1137  11.471   9.671   6.137
   54POPC   C1B 1138  10.830   9.778   7.372
   54POPC   C2B 1139  10.931   9.755   6.950
   54POPC   C3B 1140  10.859   9.559   6.582
   54POPC   C4B 1141  11.073   9.394   6.271
   55POPC   NC3 1142  10.770   5.068   8.037
   55POPC   PO4 1143  10.167   5.426   8.126
   55POPC   GL1 1144  10.220   5.262   7.707
   55POPC   GL2 1145  10.429   4.962   7.658
   55POPC   C1A 1146  10.364   5.390   7.296
   55POPC   D2A 1147  10.487   5.246   6.872
   55POPC   C3A 1148  10.184   5.271   6.547
   55POPC   C4A 1149  10.211   4.940   6.256
   55POPC   C1B 1150  10.663   4.800   7.301
   55POPC   C2B 1151  10.642   4.756   6.867
   55POPC   C3B 1152  10.684   4.896   6.440
   55POPC   C4B 1153  10.594   4.685   6.039
   56POPC   NC3 1154   5.898   0.496   8.149
   56POPC   PO4 1155   5.260   0.318   8.257
   56POPC   GL1 1156   5.453   0.488   7.800
   56POPC   GL2 1157   5.684   0.754   7.763
   56POPC   C1A 1158   5.751   0.407   7.400
   56POPC   D2A 1159   5.665   0.247   6.969
   56POPC   C3A 1160   5.988   0.180   6.654
   56POPC   C4A 1161   6.000   0.074   6.218
   56POPC   C1B 1162   6.107   0.768   7.526
   56POPC   C2B 1163   6.142   0.834   7.056
   56POPC   C3B 1164   5.872   0.695   6.699
   56POPC   C4B 1165   5.784   0.528   6.291
   57POPC   NC3 1166   9.522  11.172   8.049
   57POPC   PO4 1167   9.298  10.649   7.738
   57POPC   GL1 1168   9.514  10.960   7.553
   57POPC   GL2 1169   9.402  11.309   7.570
   57POPC   C1A 1170   9.519  11.028   7.120
   57POPC   D2A 1171   9.787  10.973   6.780
   57POPC   C3A 1172   9.536  10.982   6.439
   57POPC   C4A 1173   9.715  11.010   6.063
   57POPC   C1B 1174   9.687  11.487   7.257
   57POPC   C2B 1175   9.623  11.476   6.820
   57POPC   C3B 1176   9.767  11.447   6.407
   57POPC   C4B 1177   9.726  11.492   5.951
   58POPC   NC3 1178  10.529   8.289   8.344
   58POPC   PO4 1179  10.000   8.394   7.904
   58POPC   GL1 1180  10.035   8.253   7.538
   58POPC   GL2 1181  10.198   7.929   7.612
   58POPC   C1A 1182  10.105   8.183   7.124
   58POPC   D2A 1183  10.323   8.071   6.786
   58POPC   C3A 1184  10.223   8.300   6.460
   58POPC   C4A 1185  10.315   8.181   6.067
   58POPC   C1B 1186  10.536   7.970   7.278
   58POPC   C2B 1187  10.806   8.201   6.966
   58POPC   C3B 1188  10.761   8.263   6.513
   58POPC   C4B 1189  10.576   7.872   6.346
   59POPC   NC3 1190   4.695   1.243   7.996
   59POPC   PO4 1191   4.151   0.776   8.044
   59POPC   GL1 1192   3.998   1.054   7.719
   59POPC   GL2 1193   4.342   1.054   7.621
   59POPC   C1A 1194   3.901   0.961   7.278
   59POPC   D2A 1195   4.160   0.921   6.908
   59POPC   C3A 1196   4.003   0.942   6.540
   59POPC   C4A 1197   4.278   1.182   6.405
   59POPC   C1B 1198   4.297   1.279   7.242
   59POPC   C2B 1199   4.538   1.376   6.865
   59POPC   C3B 1200   4.584   1.558   6.498
   59POPC   C4B 1201   4.152   1.697   6.404
   60POPC   NC3 1202   1.349   4.834   8.199
   60POPC   PO4 1203   2.041   5.028   8.171
   60POPC   GL1 1204   2.041   4.932   7.735
   60POPC   GL2 1205   1.879   5.182   7.541
   60POPC   C1A 1206   2.004   4.735   7.322
   60POPC   D2A 1207   1.899   5.024   6.972
   60POPC   C3A 1208   1.868   4.811   6.571
   60POPC   C4A 1209   1.840   4.996   6.179
   60POPC   C1B 1210   2.239   5.213   7.319
   60POPC   C2B 1211   2.303   5.375   6.895
   60POPC   C3B 1212   2.276   5.200   6.461
   60POPC   C4B 1213   2.533   5.206   6.066
   61POPC   NC3 1214   9.797   5.124   8.201
   61POPC   PO4 1215   9.760   4.458   8.017
   61POPC   GL1 1216   9.926   4.820   7.741
   61POPC   GL2 1217   9.718   5.132   7.703
   61POPC   C1A 1218  10.044   4.973   7.294
   61POPC   D2A 1219  10.132   4.848   6.847
   61POPC   C3A 1220   9.799   4.941   6.522
   61POPC   C4A 1221   9.648   4.816   6.124
   61POPC   C1B 1222   9.536   5.070   7.302
   61POPC   C2B 1223   9.539   5.204   6.865
   61POPC   C3B 1224   9.353   5.177   6.440
   61POPC   C4B 1225   9.414   5.256   6.013
   62POPC   NC3 1226  11.321  11.192   7.932
   62POPC   PO4 1227  10.764   0.034   8.087
   62POPC   GL1 1228  10.995   0.078   7.733
   62POPC   GL2 1229  10.743  11.479   7.500
   62POPC   C1A 1230  11.265   0.068   7.360
   62POPC   D2A 1231  11.026   0.052   6.984
   62POPC   C3A 1232  11.298   0.006   6.642
   62POPC   C4A 1233  11.306  11.423   6.214
   62POPC   C1B 1234  10.999  11.132   7.324
   62POPC   C2B 1235  11.157  11.060   6.922
   62POPC   C3B 1236  11.295  10.991   6.527
   62POPC   C4B 1237  11.098  10.956   6.158
   63POPC   NC3 1238  10.235   3.406   8.247
   63POPC   PO4 1239  10.696   3.323   7.747
   63POPC   GL1 1240  10.312   3.299   7.563
   63POPC   GL2 1241  10.201   3.593   7.758
   63POPC   C1A 1242  10.321   3.270   7.103
   63POPC   D2A 1243  10.258   3.348   6.665
   63POPC   C3A 1244  10.601   3.494   6.348
   63POPC   C4A 1245  10.615   3.323   5.892
   63POPC   C1B 1246  10.170   3.756   7.344
   63POPC   C2B 1247  10.384   3.756   6.933
   63POPC   C3B 1248  10.208   3.857   6.537
   63POPC   C4B 1249  10.223   3.699   6.107
   64POPC   NC3 1250   6.708   0.062   8.219
   64POPC   PO4 1251   6.356   0.551   8.196
   64POPC   GL1 1252   6.299   0.324   7.760
   64POPC   GL2 1253   6.574   0.063   7.688
   64POPC   C1A 1254   6.244   0.307   7.272
   64POPC   D2A 1255   6.467   0.249   6.855
   64POPC   C3A 1256   6.366   0.541   6.516
   64POPC   C4A 1257   6.257   0.486   6.087
   64POPC   C1B 1258   6.713   0.445   7.440
   64POPC   C2B 1259   6.889   0.530   6.997
   64POPC   C3B 1260   6.882   0.454   6.537
   64POPC   C4B 1261   6.756   0.646   6.130
   65POPC   NC3 1262   4.816  10.237   8.234
   65POPC   PO4 1263   4.947  10.960   8.206
   65POPC   GL1 1264   5.035  10.594   7.861
   65POPC   GL2 1265   5.376  10.688   7.770
   65POPC   C1A 1266   5.192  10.379   7.421
   65POPC   D2A 1267   5.072  10.381   6.939
   65POPC   C3A 1268   5.089  10.137   6.530
   65POPC   C4A 1269   5.062  10.112   6.092
   65POPC   C1B 1270   5.369  10.845   7.290
   65POPC   C2B 1271   5.295  10.868   6.816
   65POPC   C3B 1272   5.143  10.662   6.410
   65POPC   C4B 1273   5.226  10.579   5.928
   66POPC   NC3 1274  11.493   5.422   8.114
   66POPC   PO4 1275   0.020   4.690   8.094
   66POPC   GL1 1276  11.191   4.808   7.822
   66POPC   GL2 1277  11.176   5.194   7.759
   66POPC   C1A 1278  11.163   4.861   7.385
   66POPC   D2A 1279  11.130   4.658   7.000
   66POPC   C3A 1280  11.156   4.886   6.644
   66POPC   C4A 1281  11.154   4.737   6.250
   66POPC   C1B 1282  10.839   5.263   7.434
   66POPC   C2B 1283  10.963   5.167   7.020
   66POPC   C3B 1284  10.939   5.361   6.613
   66POPC   C4B 1285  10.612   5.396   6.313
   67POPC   NC3 1286   8.075  10.505   8.056
   67POPC   PO4 1287   8.336   9.970   7.665
   67POPC   GL1 1288   8.016  10.257   7.593
   67POPC   GL2 1289   8.093  10.631   7.576
   67POPC   C1A 1290   7.799  10.335   7.201
   67POPC   D2A 1291   8.075  10.455   6.855
   67POPC   C3A 1292   8.148  10.127   6.552
   67POPC   C4A 1293   7.763  10.200   6.376
   67POPC   C1B 1294   7.836  10.825   7.313
   67POPC   C2B 1295   7.750  10.887   6.869
   67POPC   C3B 1296   8.053  10.898   6.569
   67POPC   C4B 1297   8.075  10.580   6.311
   68POPC   NC3 1298   4.482   2.734   7.936
   68POPC   PO4 1299   3.914   2.445   8.032
   68POPC   GL1 1300   4.087   2.503   7.635
   68POPC   GL2 1301   4.015   2.837   7.642
   68POPC   C1A 1302   4.430   2.544   7.296
   68POPC   D2A 1303   4.589   2.351   6.890
   68POPC   C3A 1304   4.580   2.570   6.491
   68POPC   C4A 1305   4.450   2.427   6.095
   68POPC   C1B 1306   3.919   2.742   7.203
   68POPC   C2B 1307   4.132   2.752   6.782
   68POPC   C3B 1308   4.121   2.749   6.322
   68POPC   C4B 1309   4.390   2.936   5.994
   69POPC   NC3 1310   1.375   6.218   8.226
   69POPC   PO4 1311   1.234   5.557   8.003
   69POPC   GL1 1312   1.261   5.855   7.672
   69POPC   GL2 1313   1.301   5.582   7.468
   69POPC   C1A 1314   1.053   5.972   7.245
   69POPC   D2A 1315   0.894   5.865   6.803
   69POPC   C3A 1316   0.953   6.109   6.414
   69POPC   C4A 1317   0.788   6.057   5.960
   69POPC   C1B 1318   1.596   5.429   7.190
   69POPC   C2B 1319   1.372   5.593   6.836
   69POPC   C3B 1320   1.264   5.693   6.418
   69POPC   C4B 1321   1.511   5.405   6.195
   70POPC   NC3 1322   3.551   0.185   8.174
   70POPC   PO4 1323   3.604  10.980   8.229
   70POPC   GL1 1324   3.682  10.947   7.805
   70POPC   GL2 1325   3.654  11.307   7.743
   70POPC   C1A 1326   3.808  10.942   7.378
   70POPC   D2A 1327   3.876  11.253   7.061
   70POPC   C3A 1328   3.780  11.120   6.628
   70POPC   C4A 1329   3.774  11.187   6.171
   70POPC   C1B 1330   3.379  11.266   7.360
   70POPC   C2B 1331   3.231  11.258   6.917
   70POPC   C3B 1332   3.333  11.321   6.458
   70POPC   C4B 1333   3.335  10.896   6.277
   71POPC   NC3 1334  11.137   4.447   8.240
   71POPC   PO4 1335  11.439   3.896   8.018
   71POPC   GL1 1336  11.369   4.277   7.786
   71POPC   GL2 1337  11.022   4.300   7.768
   71POPC   C1A 1338  11.432   4.436   7.356
   71POPC   D2A 1339  11.492   4.256   6.975
   71POPC   C3A 1340  11.392   4.339   6.572
   71POPC   C4A 1341  11.417   4.058   6.222
   71POPC   C1B 1342  10.948   4.342   7.362
   71POPC   C2B 1343  11.000   4.161   6.952
   71POPC   C3B 1344  10.900   4.426   6.580
   71POPC   C4B 1345  10.963   4.266   6.185
   72POPC   NC3 1346   9.373   4.227   8.074
   72POPC   PO4 1347  10.007   3.856   8.192
   72POPC   GL1 1348   9.824   3.947   7.769
   72POPC   GL2 1349   9.991   4.193   7.567
   72POPC   C1A 1350   9.626   3.809   7.367
   72POPC   D2A 1351   9.383   3.905   6.961
   72POPC   C3A 1352   9.478   3.906   6.518
   72POPC   C4A 1353   9.823   4.041   6.264
   72POPC   C1B 1354   9.750   4.534   7.350
   72POPC   C2B 1355   9.663   4.673   6.938
   72POPC   C3B 1356   9.642   4.455   6.528
   72POPC   C4B 1357   9.301   4.410   6.251
   73POPC   NC3 1358   2.581   8.040   7.958
   73POPC   PO4 1359   2.087   7.532   8.222
   73POPC   GL1 1360   2.041   7.376   7.790
   73POPC   GL2 1361   1.732   7.383   7.765
   73POPC   C1A 1362   2.083   7.557   7.341
   73POPC   D2A 1363   2.210   7.697   6.882
   73POPC   C3A 1364   2.202   7.499   6.472
   73POPC   C4A 1365   2.000   7.616   6.111
   73POPC   C1B 1366   1.610   7.372   7.335
   73POPC   C2B 1367   1.843   7.283   6.941
   73POPC   C3B 1368   1.709   7.361   6.526
   73POPC   C4B 1369   1.824   7.139   6.154
   74POPC   NC3 1370  10.581   1.344   8.368
   74POPC   PO4 1371  10.144   0.870   8.136
   74POPC   GL1 1372  10.289   0.955   7.738
   74POPC   GL2 1373  10.319   1.331   7.747
   74POPC   C1A 1374  10.316   1.015   7.320
   74POPC   D2A 1375   9.976   1.019   7.037
   74POPC   C3A 1376  10.159   1.015   6.628
   74POPC   C4A 1377  10.554   1.120   6.380
   74POPC   C1B 1378  10.162   1.480   7.312
   74POPC   C2B 1379  10.313   1.399   6.920
   74POPC   C3B 1380  10.258   1.523   6.504
   74POPC   C4B 1381  10.399   1.542   6.056
   75POPC   NC3 1382   0.557   4.762   8.005
   75POPC   PO4 1383   0.453   5.479   7.934
   75POPC   GL1 1384   0.517   5.136   7.658
   75POPC   GL2 1385   0.168   5.032   7.702
   75POPC   C1A 1386   0.640   5.064   7.232
   75POPC   D2A 1387   0.413   5.136   6.832
   75POPC   C3A 1388   0.604   5.028   6.462
   75POPC   C4A 1389   0.896   4.742   6.394
   75POPC   C1B 1390   0.166   4.879   7.260
   75POPC   C2B 1391   0.109   4.735   6.830
   75POPC   C3B 1392   0.111   4.948   6.419
   75POPC   C4B 1393   0.280   5.327   6.185
   76POPC   NC3 1394   0.881   7.310   8.175
   76POPC   PO4 1395   0.338   7.713   8.327
   76POPC   GL1 1396   0.517   7.607   7.834
   76POPC   GL2 1397   0.424   7.290   7.699
   76POPC   C1A 1398   0.504   7.621   7.351
   76POPC   D2A 1399   0.318   7.479   7.005
   76POPC   C3A 1400   0.487   7.681   6.650
   76POPC   C4A 1401   0.434   7.581   6.228
   76POPC   C1B 1402   0.513   7.080   7.342
   76POPC   C2B 1403   0.455   6.978   6.933
   76POPC   C3B 1404   0.387   7.174   6.565
   76POPC   C4B 1405   0.679   7.114   6.262
   77POPC   NC3 1406   2.080   4.447   8.016
   77POPC   PO4 1407   1.548   3.909   8.082
   77POPC   GL1 1408   1.621   4.189   7.708
   77POPC   GL2 1409   1.969   4.221   7.560
   77POPC   C1A 1410   1.580   4.348   7.258
   77POPC   D2A 1411   1.793   4.095   6.913
   77POPC   C3A 1412   1.666   4.126   6.476
   77POPC   C4A 1413   1.673   4.475   6.201
   77POPC   C1B 1414   2.222   4.001   7.204
   77POPC   C2B 1415   2.296   4.070   6.743
   77POPC   C3B 1416   2.137   4.361   6.409
   77POPC   C4B 1417   2.279   4.754   6.215
   78POPC   NC3 1418   7.123  10.200   8.056
   78POPC   PO4 1419   7.579  10.745   8.060
   78POPC   GL1 1420   7.573  10.520   7.630
   78POPC   GL2 1421   7.498  10.164   7.652
   78POPC   C1A 1422   7.381  10.673   7.180
   78POPC   D2A 1423   7.107  10.620   6.810
   78POPC   C3A 1424   7.419  10.560   6.516
   78POPC   C4A 1425   7.640  10.851   6.286
   78POPC   C1B 1426   7.184  10.244   7.335
   78POPC   C2B 1427   7.343  10.201   6.926
   78POPC   C3B 1428   7.283  10.072   6.506
   78POPC   C4B 1429   7.188  10.186   6.114
   79POPC   NC3 1430   1.975   1.133   8.058
   79POPC   PO4 1431   2.294   1.613   7.869
   79POPC   GL1 1432   2.070   1.359   7.602
   79POPC   GL2 1433   1.731   1.358   7.675
   79POPC   C1A 1434   2.172   1.143   7.223
   79POPC   D2A 1435   2.369   1.007   6.841
   79POPC   C3A 1436   2.158   1.176   6.466
   79POPC   C4A 1437   2.222   1.396   6.091
   79POPC   C1B 1438   1.660   1.134   7.291
   79POPC   C2B 1439   1.562   1.294   6.898
   79POPC   C3B 1440   1.599   1.143   6.498
   79POPC   C4B 1441   1.744   1.005   6.133
   80POPC   NC3 1442  10.232   9.210   8.093
   80POPC   PO4 1443  10.780   9.512   8.145
   80POPC   GL1 1444  10.583   9.516   7.740
   80POPC   GL2 1445  10.251   9.644   7.732
   80POPC   C1A 1446  10.487   9.416   7.297
   80POPC   D2A 1447  10.427   9.601   6.889
   80POPC   C3A 1448  10.349   9.493   6.452
   80POPC   C4A 1449  10.588   9.837   6.256
   80POPC   C1B 1450  10.273   9.890   7.323
   80POPC   C2B 1451  10.161  10.046   6.892
   80POPC   C3B 1452  10.090   9.951   6.445
   80POPC   C4B 1453  10.162   9.835   5.994
   81POPC   NC3 1454   1.912   3.591   8.060
   81POPC   PO4 1455   2.432   4.047   8.038
   81POPC   GL1 1456   2.205   3.783   7.684
   81POPC   GL2 1457   2.211   3.423   7.702
   81POPC   C1A 1458   1.818   3.741   7.367
   81POPC   D2A 1459   1.776   3.576   6.897
   81POPC   C3A 1460   2.009   3.739   6.489
   81POPC   C4A 1461   2.376   3.937   6.234
   81POPC   C1B 1462   2.055   3.297   7.321
   81POPC   C2B 1463   1.961   3.086   6.986
   81POPC   C3B 1464   2.143   3.150   6.626
   81POPC   C4B 1465   1.959   3.281   6.288
   82POPC   NC3 1466  10.277   2.167   7.967
   82POPC   PO4 1467   9.795   1.788   8.323
   82POPC   GL1 1468   9.755   1.685   7.785
   82POPC   GL2 1469   9.382   1.689   7.629
   82POPC   C1A 1470   9.879   1.907   7.348
   82POPC   D2A 1471  10.106   1.880   6.924
   82POPC   C3A 1472   9.850   1.839   6.511
   82POPC   C4A 1473   9.917   1.688   6.122
   82POPC   C1B 1474   9.391   1.875   7.233
   82POPC   C2B 1475   9.656   2.082   6.904
   82POPC   C3B 1476   9.601   2.328   6.494
   82POPC   C4B 1477   9.381   2.352   6.078
   83POPC   NC3 1478   0.808   5.675   8.204
   83POPC   PO4 1479   0.172   5.843   8.252
   83POPC   GL1 1480   0.216   5.941   7.787
   83POPC   GL2 1481   0.574   5.975   7.766
   83POPC   C1A 1482   0.209   5.737   7.353
   83POPC   D2A 1483   0.541   5.569   7.073
   83POPC   C3A 1484   0.468   5.587   6.613
   83POPC   C4A 1485   0.728   5.650   6.262
   83POPC   C1B 1486   0.558   6.091   7.313
   83POPC   C2B 1487   0.379   6.027   6.890
   83POPC   C3B 1488   0.450   6.061   6.424
   83POPC   C4B 1489   0.127   5.821   6.213
   84POPC   NC3 1490  10.436  10.189   8.084
   84POPC   PO4 1491  10.103  10.786   8.041
   84POPC   GL1 1492  10.251  10.460   7.677
   84POPC   GL2 1493  10.566  10.186   7.607
   84POPC   C1A 1494  10.327  10.447   7.226
   84POPC   D2A 1495  10.326  10.765   6.918
   84POPC   C3A 1496  10.320  10.569   6.539
   84POPC   C4A 1497  10.137  10.749   6.209
   84POPC   C1B 1498  10.780  10.556   7.466
   84POPC   C2B 1499  10.824  10.699   7.050
   84POPC   C3B 1500  10.812  10.729   6.599
   84POPC   C4B 1501  10.786  10.562   6.159
   85POPC   NC3 1502   4.467   0.448   7.883
   85POPC   PO4 1503   4.061   0.040   8.198
   85POPC   GL1 1504   3.985   0.207   7.730
   85POPC   GL2 1505   4.036   0.552   7.612
   85POPC   C1A 1506   4.013   0.232   7.227
   85POPC   D2A 1507   3.902   0.492   6.825
   85POPC   C3A 1508   4.040   0.342   6.391
   85POPC   C4A 1509   4.140   0.379   5.941
   85POPC   C1B 1510   4.330   0.649   7.293
   85POPC   C2B 1511   4.416   0.473   6.899
   85POPC   C3B 1512   4.432   0.663   6.487
   85POPC   C4B 1513   4.645   0.558   6.138
   86POPC   NC3 1514   1.993   1.890   8.108
   86POPC   PO4 1515   2.129   2.559   7.950
   86POPC   GL1 1516   2.020   2.271   7.651
   86POPC   GL2 1517   1.940   1.889   7.604
   86POPC   C1A 1518   2.070   2.309   7.229
   86POPC   D2A 1519   1.951   2.033   6.930
   86POPC   C3A 1520   2.074   2.097   6.490
   86POPC   C4A 1521   1.895   2.370   6.184
   86POPC   C1B 1522   1.839   1.631   7.235
   86POPC   C2B 1523   2.008   1.526   6.817
   86POPC   C3B 1524   1.845   1.597   6.393
   86POPC   C4B 1525   1.938   1.816   6.013
   87POPC   NC3 1526   9.578   3.691   8.140
   87POPC   PO4 1527   9.855   3.148   8.260
   87POPC   GL1 1528   9.770   3.324   7.817
   87POPC   GL2 1529   9.465   3.171   7.831
   87POPC   C1A 1530   9.858   3.354   7.319
   87POPC   D2A 1531   9.873   3.688   6.914
   87POPC   C3A 1532   9.815   3.533   6.469
   87POPC   C4A 1533   9.808   3.120   6.490
   87POPC   C1B 1534   9.382   3.186   7.398
   87POPC   C2B 1535   9.483   3.349   6.961
   87POPC   C3B 1536   9.321   3.302   6.545
   87POPC   C4B 1537   9.361   3.461   6.150
   88POPC   NC3 1538   8.717   9.016   8.113
   88POPC   PO4 1539   9.230   8.469   8.036
   88POPC   GL1 1540   8.913   8.688   7.769
   88POPC   GL2 1541   9.033   9.032   7.667
   88POPC   C1A 1542   8.660   8.835   7.389
   88POPC   D2A 1543   8.830   8.831   6.960
   88POPC   C3A 1544   8.655   8.719   6.557
   88POPC   C4A 1545   8.409   8.837   6.187
   88POPC   C1B 1546   8.996   9.259   7.233
   88POPC   C2B 1547   8.777   9.313   6.807
   88POPC   C3B 1548   8.863   9.159   6.338
   88POPC   C4B 1549   9.171   9.066   5.942
   89POPC   NC3 1550   2.656   1.342   8.018
   89POPC   PO4 1551   2.296   0.794   8.083
   89POPC   GL1 1552   2.458   1.001   7.671
   89POPC   GL2 1553   2.580   1.345   7.524
   89POPC   C1A 1554   2.703   0.911   7.279
   89POPC   D2A 1555   2.917   0.969   6.878
   89POPC   C3A 1556   2.707   0.943   6.462
   89POPC   C4A 1557   2.439   0.883   6.138
   89POPC   C1B 1558   3.007   1.378   7.366
   89POPC   C2B 1559   3.041   1.460   6.938
   89POPC   C3B 1560   3.041   1.310   6.515
   89POPC   C4B 1561   2.711   1.427   6.220
   90POPC   NC3 1562   9.617   8.198   8.043
   90POPC   PO4 1563   9.443   7.674   8.208
   90POPC   GL1 1564   9.385   7.906   7.696
   90POPC   GL2 1565   9.520   8.270   7.583
   90POPC   C1A 1566   9.307   8.072   7.214
   90POPC   D2A 1567   9.604   8.119   6.900
   90POPC   C3A 1568   9.509   8.245   6.535
   90POPC   C4A 1569   9.390   8.035   6.220
   90POPC   C1B 1570   9.759   7.882   7.333
   90POPC   C2B 1571   9.925   7.734   6.878
   90POPC   C3B 1572   9.903   7.909   6.419
   90POPC   C4B 1573   9.822   8.279   6.117
   91POPC   NC3 1574   6.657   1.674   8.040
   91POPC   PO4 1575   7.026   2.227   7.957
   91POPC   GL1 1576   6.972   1.896   7.635
   91POPC   GL2 1577   6.600   1.805   7.567
   91POPC   C1A 1578   6.917   1.834   7.187
   91POPC   D2A 1579   6.805   2.073   6.835
   91POPC   C3A 1580   6.861   1.807   6.478
   91POPC   C4A 1581   6.602   1.773   6.148
   91POPC   C1B 1582   6.225   1.763   7.307
   91POPC   C2B 1583   6.204   2.018   6.946
   91POPC   C3B 1584   6.385   2.037   6.547
   91POPC   C4B 1585   6.158   2.049   6.189
   92POPC   NC3 1586   6.306   3.421   8.297
   92POPC   PO4 1587   6.613   3.024   8.142
   92POPC   GL1 1588   6.450   3.261   7.743
   92POPC   GL2 1589   6.478   3.614   7.811
   92POPC   C1A 1590   6.399   3.247   7.234
   92POPC   D2A 1591   6.629   3.256   6.808
   92POPC   C3A 1592   6.429   3.251   6.379
   92POPC   C4A 1593   6.496   3.143   5.931
   92POPC   C1B 1594   6.642   3.661   7.390
   92POPC   C2B 1595   6.477   3.721   6.968
   92POPC   C3B 1596   6.600   3.717   6.523
   92POPC   C4B 1597   6.509   3.665   6.057
   93POPC   NC3 1598   8.086   1.356   8.183
   93POPC   PO4 1599   7.726   0.787   7.977
   93POPC   GL1 1600   7.918   1.073   7.646
   93POPC   GL2 1601   8.249   1.259   7.666
   93POPC   C1A 1602   7.931   1.294   7.223
   93POPC   D2A 1603   7.625   1.347   6.860
   93POPC   C3A 1604   7.826   1.172   6.497
   93POPC   C4A 1605   7.975   1.113   6.040
   93POPC   C1B 1606   8.279   0.880   7.358
   93POPC   C2B 1607   8.302   0.794   6.899
   93POPC   C3B 1608   8.243   0.909   6.474
   93POPC   C4B 1609   8.336   1.354   6.300
   94POPC   NC3 1610   6.410  10.702   8.154
   94POPC   PO4 1611   6.502  10.027   8.159
   94POPC   GL1 1612   6.480  10.308   7.806
   94POPC   GL2 1613   6.798  10.286   7.680
   94POPC   C1A 1614   6.406  10.549   7.407
   94POPC   D2A 1615   6.534  10.482   6.927
   94POPC   C3A 1616   6.271  10.672   6.580
   94POPC   C4A 1617   6.244  10.610   6.087
   94POPC   C1B 1618   6.660  10.112   7.311
   94POPC   C2B 1619   6.865  10.029   6.918
   94POPC   C3B 1620   6.818  10.263   6.534
   94POPC   C4B 1621   6.441  10.199   6.360
   95POPC   NC3 1622   6.863   2.652   8.045
   95POPC   PO4 1623   7.552   2.685   8.198
   95POPC   GL1 1624   7.335   2.716   7.769
   95POPC   GL2 1625   7.360   2.425   7.602
   95POPC   C1A 1626   7.040   2.715   7.356
   95POPC   D2A 1627   7.084   2.499   6.915
   95POPC   C3A 1628   7.055   2.705   6.470
   95POPC   C4A 1629   6.941   3.097   6.204
   95POPC   C1B 1630   7.508   2.572   7.204
   95POPC   C2B 1631   7.571   2.342   6.841
   95POPC   C3B 1632   7.592   2.533   6.464
   95POPC   C4B 1633   7.445   2.859   6.164
   96POPC   NC3 1634  11.099   2.155   8.096
   96POPC   PO4 1635  11.317   1.477   8.070
   96POPC   GL1 1636  11.249   1.792   7.762
   96POPC   GL2 1637  11.414   1.589   7.544
   96POPC   C1A 1638  11.079   1.961   7.369
   96POPC   D2A 1639  11.075   1.752   6.963
   96POPC   C3A 1640  11.154   2.004   6.589
   96POPC   C4A 1641  11.212   1.810   6.189
   96POPC   C1B 1642   0.059   1.830   7.211
   96POPC   C2B 1643   0.049   1.762   6.789
   96POPC   C3B 1644   0.164   1.926   6.433
   96POPC   C4B 1645   0.254   1.569   6.258
   97POPC   NC3 1646   5.276   0.782   8.179
   97POPC   PO4 1647   5.146   1.435   8.016
   97POPC   GL1 1648   5.049   1.172   7.657
   97POPC   GL2 1649   5.238   0.893   7.537
   97POPC   C1A 1650   4.778   1.120   7.270
   97POPC   D2A 1651   4.683   0.907   6.854
   97POPC   C3A 1652   4.938   0.863   6.503
   97POPC   C4A 1653   4.745   1.063   6.166
   97POPC   C1B 1654   5.257   1.264   7.225
   97POPC   C2B 1655   5.076   1.252   6.832
   97POPC   C3B 1656   5.089   1.337   6.412
   97POPC   C4B 1657   5.391   1.445   6.122
   98POPC   NC3 1658   0.329   3.660   7.841
   98POPC   PO4 1659   0.351   3.048   8.182
   98POPC   GL1 1660   0.607   3.070   7.698
   98POPC   GL2 1661   0.859   3.337   7.647
   98POPC   C1A 1662   0.494   3.119   7.205
   98POPC   D2A 1663   0.103   3.213   6.940
   98POPC   C3A 1664   0.125   3.402   6.512
   98POPC   C4A 1665   0.361   3.241   6.167
   98POPC   C1B 1666   0.710   3.578   7.253
   98POPC   C2B 1667   0.539   3.548   6.810
   98POPC   C3B 1668   0.648   3.635   6.351
   98POPC   C4B 1669   0.613   3.602   5.873
   99POPC   NC3 1670  10.267   6.549   7.985
   99POPC   PO4 1671  10.754   7.002   7.745
   99POPC   GL1 1672  10.397   6.865   7.607
   99POPC   GL2 1673  10.579   6.535   7.586
   99POPC   C1A 1674  10.289   6.823   7.194
   99POPC   D2A 1675  10.387   6.655   6.804
   99POPC   C3A 1676  10.601   6.888   6.549
   99POPC   C4A 1677  10.433   6.964   6.231
   99POPC   C1B 1678  10.462   6.321   7.222
   99POPC   C2B 1679  10.305   6.166   6.838
   99POPC   C3B 1680  10.381   6.291   6.413
   99POPC   C4B 1681  10.214   6.153   6.039
  100POPC   NC3 1682  10.538   5.787   8.092
  100POPC   PO4 1683   9.951   6.172   7.989
  100POPC   GL1 1684  10.307   6.099   7.708
  100POPC   GL2 1685  10.197   5.770   7.698
  100POPC   C1A 1686  10.595   5.858   7.404
  100POPC   D2A 1687  10.778   5.639   7.058
  100POPC   C3A 1688  10.693   5.846   6.683
  100POPC   C4A 1689  10.694   5.901   6.256
  100POPC   C1B 1690  10.119   5.896   7.262
  100POPC   C2B 1691  10.241   5.680   6.882
  100POPC   C3B 1692  10.228   5.775   6.438
  100POPC   C4B 1693  10.295   5.659   5.987
  101POPC   NC3 1694  11.480   2.847   7.992
  101POPC   PO4 1695  10.853   3.108   8.204
  101POPC   GL1 1696  10.976   2.912   7.734
  101POPC   GL2 1697  11.272   2.929   7.550
  101POPC   C1A 1698  10.914   3.010   7.238
  101POPC   D2A 1699  11.244   2.833   6.996
  101POPC   C3A 1700  11.059   2.604   6.714
  101POPC   C4A 1701  11.027   2.676   6.331
  101POPC   C1B 1702  11.206   2.496   7.393
  101POPC   C2B 1703  11.390   2.289   7.025
  101POPC   C3B 1704   0.031   2.393   6.609
  101POPC   C4B 1705  11.366   2.298   6.207
  102POPC   NC3 1706   3.488   2.755   8.045
  102POPC   PO4 1707   2.916   2.379   8.026
  102POPC   GL1 1708   3.143   2.610   7.671
  102POPC   GL2 1709   3.537   2.557   7.577
  102POPC   C1A 1710   3.147   2.826   7.250
  102POPC   D2A 1711   3.033   2.865   6.787
  102POPC   C3A 1712   3.264   2.903   6.357
  102POPC   C4A 1713   3.260   2.909   5.874
  102POPC   C1B 1714   3.532   2.379   7.149
  102POPC   C2B 1715   3.679   2.464   6.732
  102POPC   C3B 1716   3.644   2.563   6.302
  102POPC   C4B 1717   3.584   2.473   5.869
  103POPC   NC3 1718   9.545   7.229   8.143
  103POPC   PO4 1719  10.162   6.991   8.078
  103POPC   GL1 1720   9.912   7.124   7.702
  103POPC   GL2 1721   9.834   7.499   7.727
  103POPC   C1A 1722   9.816   7.037   7.237
  103POPC   D2A 1723   9.702   7.259   6.821
  103POPC   C3A 1724   9.612   7.040   6.385
  103POPC   C4A 1725   9.783   6.952   5.940
  103POPC   C1B 1726   9.501   7.450   7.422
  103POPC   C2B 1727   9.412   7.624   7.018
  103POPC   C3B 1728   9.473   7.682   6.587
  103POPC   C4B 1729   9.598   7.541   6.193
  104POPC   NC3 1730   5.505  10.389   8.443
  104POPC   PO4 1731   5.851   9.719   8.196
  104POPC   GL1 1732   5.641   9.930   7.822
  104POPC   GL2 1733   5.865   9.739   7.643
  104POPC   C1A 1734   5.484   9.937   7.377
  104POPC   D2A 1735   5.801   9.872   7.000
  104POPC   C3A 1736   5.654   9.897   6.548
  104POPC   C4A 1737   5.523   9.806   6.094
  104POPC   C1B 1738   5.685   9.474   7.292
  104POPC   C2B 1739   5.477   9.480   6.854
  104POPC   C3B 1740   5.527   9.390   6.403
  104POPC   C4B 1741   5.938   9.394   6.180
  105POPC   NC3 1742   2.010  11.421   8.145
  105POPC   PO4 1743   1.783  10.823   8.094
  105POPC   GL1 1744   1.798  11.107   7.726
  105POPC   GL2 1745   2.094  11.307   7.658
  105POPC   C1A 1746   1.863  11.054   7.285
  105POPC   D2A 1747   1.693  11.101   6.878
  105POPC   C3A 1748   1.975  11.118   6.546
  105POPC   C4A 1749   1.940  10.919   6.161
  105POPC   C1B 1750   2.305  11.451   7.290
  105POPC   C2B 1751   2.163  11.450   6.879
  105POPC   C3B 1752   2.382  11.450   6.484
  105POPC   C4B 1753   2.143  11.380   6.130
  106POPC   NC3 1754   4.136  10.104   7.932
  106POPC   PO4 1755   4.710   9.705   8.066
  106POPC   GL1 1756   4.523   9.837   7.698
  106POPC   GL2 1757   4.199   9.651   7.694
  106POPC   C1A 1758   4.429   9.862   7.261
  106POPC   D2A 1759   4.323   9.626   6.881
  106POPC   C3A 1760   4.362   9.927   6.549
  106POPC   C4A 1761   4.622   9.938   6.212
  106POPC   C1B 1762   3.965   9.639   7.301
  106POPC   C2B 1763   3.829   9.450   6.893
  106POPC   C3B 1764   3.936   9.610   6.484
  106POPC   C4B 1765   4.232   9.619   6.155
  107POPC   NC3 1766   2.679   9.514   8.126
  107POPC   PO4 1767   2.436  10.081   7.944
  107POPC   GL1 1768   2.686   9.776   7.681
  107POPC   GL2 1769   3.063   9.704   7.701
  107POPC   C1A 1770   2.789   9.849   7.268
  107POPC   D2A 1771   2.730   9.982   6.863
  107POPC   C3A 1772   2.440   9.831   6.642
  107POPC   C4A 1773   2.584   9.645   6.318
  107POPC   C1B 1774   3.010   9.402   7.324
  107POPC   C2B 1775   2.846   9.472   6.899
  107POPC   C3B 1776   3.039   9.555   6.500
  107POPC   C4B 1777   2.925   9.331   6.068
  108POPC   NC3 1778   6.782   8.653   8.008
  108POPC   PO4 1779   7.521   8.692   8.082
  108POPC   GL1 1780   7.441   8.921   7.692
  108POPC   GL2 1781   7.073   8.926   7.654
  108POPC   C1A 1782   7.446   8.849   7.263
  108POPC   D2A 1783   7.352   8.694   6.845
  108POPC   C3A 1784   7.600   8.763   6.495
  108POPC   C4A 1785   7.384   8.626   6.178
  108POPC   C1B 1786   7.103   9.231   7.339
  108POPC   C2B 1787   7.278   9.204   6.926
  108POPC   C3B 1788   7.117   9.045   6.534
  108POPC   C4B 1789   7.219   9.158   6.110
  109POPC   NC3 1790  10.490   2.917   7.879
  109POPC   PO4 1791  10.725   2.254   7.857
  109POPC   GL1 1792  10.475   2.483   7.571
  109POPC   GL2 1793  10.103   2.396   7.443
  109POPC   C1A 1794  10.719   2.533   7.223
  109POPC   D2A 1795  10.869   2.219   6.967
  109POPC   C3A 1796  10.700   2.237   6.543
  109POPC   C4A 1797  10.479   2.553   6.377
  109POPC   C1B 1798  10.251   2.772   7.206
  109POPC   C2B 1799  10.585   2.860   6.866
  109POPC   C3B 1800  10.613   3.015   6.471
  109POPC   C4B 1801  10.249   3.139   6.212
  110POPC   NC3 1802   9.676   8.734   8.074
  110POPC   PO4 1803   9.801   9.350   8.021
  110POPC   GL1 1804   9.576   9.053   7.681
  110POPC   GL2 1805   9.756   8.743   7.576
  110POPC   C1A 1806   9.360   8.889   7.282
  110POPC   D2A 1807   9.275   9.037   6.846
  110POPC   C3A 1808   9.215   8.796   6.472
  110POPC   C4A 1809   9.413   8.620   6.097
  110POPC   C1B 1810   9.709   8.521   7.198
  110POPC   C2B 1811   9.909   8.535   6.821
  110POPC   C3B 1812   9.780   8.660   6.471
  110POPC   C4B 1813   9.947   8.765   6.114
  111POPC   NC3 1814   2.912  10.159   7.987
  111POPC   PO4 1815   2.617  10.796   8.068
  111POPC   GL1 1816   2.915  10.671   7.781
  111POPC   GL2 1817   2.675  10.460   7.653
  111POPC   C1A 1818   3.019  10.714   7.346
  111POPC   D2A 1819   2.744  10.765   6.991
  111POPC   C3A 1820   2.955  10.722   6.600
  111POPC   C4A 1821   2.798  10.611   6.217
  111POPC   C1B 1822   2.607  10.333   7.266
  111POPC   C2B 1823   2.360  10.401   6.931
  111POPC   C3B 1824   2.531  10.377   6.579
  111POPC   C4B 1825   2.555  10.139   6.222
  112POPC   NC3 1826   7.785  11.180   7.984
  112POPC   PO4 1827   8.371  10.893   8.023
  112POPC   GL1 1828   8.346  11.101   7.648
  112POPC   GL2 1829   8.045  11.251   7.574
  112POPC   C1A 1830   8.299  10.962   7.232
  112POPC   D2A 1831   8.456  10.802   6.901
  112POPC   C3A 1832   8.525  11.081   6.648
  112POPC   C4A 1833   8.484  11.094   6.241
  112POPC   C1B 1834   8.036   0.019   7.264
  112POPC   C2B 1835   8.084  11.303   6.898
  112POPC   C3B 1836   8.149  11.392   6.488
  112POPC   C4B 1837   7.988  11.185   6.123
  113POPC   NC3 1838   2.469   2.258   7.930
  113POPC   PO4 1839   2.588   1.731   8.271
  113POPC   GL1 1840   2.704   1.832   7.736
  113POPC   GL2 1841   2.839   2.132   7.596
  113POPC   C1A 1842   2.395   1.945   7.356
  113POPC   D2A 1843   2.454   2.033   6.936
  113POPC   C3A 1844   2.440   1.731   6.575
  113POPC   C4A 1845   2.430   1.868   6.139
  113POPC   C1B 1846   2.867   1.878   7.236
  113POPC   C2B 1847   3.053   1.994   6.866
  113POPC   C3B 1848   3.114   2.243   6.514
  113POPC   C4B 1849   2.930   1.994   6.180
  114POPC   NC3 1850   4.445   9.328   8.041
  114POPC   PO4 1851   3.836   9.326   8.073
  114POPC   GL1 1852   3.917   9.228   7.624
  114POPC   GL2 1853   4.150   8.988   7.713
  114POPC   C1A 1854   4.147   9.170   7.207
  114POPC   D2A 1855   4.073   8.992   6.777
  114POPC   C3A 1856   4.214   9.169   6.373
  114POPC   C4A 1857   4.277   9.139   5.896
  114POPC   C1B 1858   4.428   8.777   7.416
  114POPC   C2B 1859   4.505   8.740   6.975
  114POPC   C3B 1860   4.547   8.830   6.528
  114POPC   C4B 1861   4.303   8.700   6.164
  115POPC   NC3 1862  10.900   1.392   7.861
  115POPC   PO4 1863  10.480   1.787   8.227
  115POPC   GL1 1864  10.598   1.776   7.740
  115POPC   GL2 1865  10.312   1.848   7.594
  115POPC   C1A 1866  10.663   1.621   7.267
  115POPC   D2A 1867  10.587   1.817   6.829
  115POPC   C3A 1868  10.746   1.709   6.441
  115POPC   C4A 1869  10.724   1.937   6.039
  115POPC   C1B 1870  10.454   2.083   7.252
  115POPC   C2B 1871  10.344   2.353   6.917
  115POPC   C3B 1872  10.113   2.264   6.569
  115POPC   C4B 1873  10.300   1.987   6.301
  116POPC   NC3 1874  10.928   6.706   8.039
  116POPC   PO4 1875  11.459   6.345   8.013
  116POPC   GL1 1876  11.408   6.371   7.635
  116POPC   GL2 1877  11.262   6.702   7.651
  116POPC   C1A 1878   0.022   6.224   7.253
  116POPC   D2A 1879  11.268   6.334   6.887
  116POPC   C3A 1880   0.001   6.210   6.581
  116POPC   C4A 1881   0.079   6.349   6.203
  116POPC   C1B 1882  11.031   6.539   7.320
  116POPC   C2B 1883  10.888   6.698   6.939
  116POPC   C3B 1884  11.103   6.830   6.559
  116POPC   C4B 1885  11.243   6.712   6.165
  117POPC   NC3 1886   2.208  10.506   7.999
  117POPC   PO4 1887   1.627   9.981   8.062
  117POPC   GL1 1888   1.673  10.194   7.664
  117POPC   GL2 1889   1.747  10.545   7.672
  117POPC   C1A 1890   1.725  10.156   7.216
  117POPC   D2A 1891   2.031   9.994   6.910
  117POPC   C3A 1892   2.052  10.134   6.477
  117POPC   C4A 1893   1.799  10.391   6.192
  117POPC   C1B 1894   2.025  10.561   7.318
  117POPC   C2B 1895   1.851  10.558   6.905
  117POPC   C3B 1896   2.052  10.621   6.560
  117POPC   C4B 1897   2.279  10.558   6.174
  118POPC   NC3 1898   2.800   0.570   8.006
  118POPC   PO4 1899   2.261   0.219   7.923
  118POPC   GL1 1900   2.427   0.486   7.648
  118POPC   GL2 1901   2.719   0.299   7.554
  118POPC   C1A 1902   2.393   0.498   7.210
  118POPC   D2A 1903   2.555   0.278   6.882
  118POPC   C3A 1904   2.517   0.472   6.502
  118POPC   C4A 1905   2.330   0.360   6.136
  118POPC   C1B 1906   2.970   0.151   7.177
  118POPC   C2B 1907   3.032   0.183   6.731
  118POPC   C3B 1908   2.888   0.165   6.328
  118POPC   C4B 1909   3.109   0.150   5.960
  119POPC   NC3 1910   2.957  11.102   8.093
  119POPC   PO4 1911   3.084   0.180   8.036
  119POPC   GL1 1912   2.982  11.384   7.675
  119POPC   GL2 1913   2.611  11.261   7.723
  119POPC   C1A 1914   2.845  11.182   7.287
  119POPC   D2A 1915   2.639  11.270   6.919
  119POPC   C3A 1916   2.848  11.215   6.552
  119POPC   C4A 1917   2.952  11.181   6.125
  119POPC   C1B 1918   2.397  10.945   7.412
  119POPC   C2B 1919   2.245  10.918   6.971
  119POPC   C3B 1920   2.457  10.900   6.581
  119POPC   C4B 1921   2.492  11.021   6.184
  120POPC   NC3 1922   1.559  10.429   8.159
  120POPC   PO4 1923   0.958  10.731   8.086
  120POPC   GL1 1924   1.246  10.649   7.782
  120POPC   GL2 1925   1.191  10.313   7.790
  120POPC   C1A 1926   1.094  10.695   7.360
  120POPC   D2A 1927   0.861  10.546   6.977
  120POPC   C3A 1928   1.112  10.608   6.574
  120POPC   C4A 1929   1.546  10.732   6.471
  120POPC   C1B 1930   1.184  10.198   7.355
  120POPC   C2B 1931   1.305  10.278   6.947
  120POPC   C3B 1932   1.564  10.192   6.633
  120POPC   C4B 1933   1.325  10.203   6.281
  121POPC   NC3 1934   9.836   1.224   8.090
  121POPC   PO4 1935   9.170   1.379   7.990
  121POPC   GL1 1936   9.473   1.188   7.701
  121POPC   GL2 1937   9.838   1.179   7.587
  121POPC   C1A 1938   9.473   0.923   7.316
  121POPC   D2A 1939   9.494   1.056   6.878
  121POPC   C3A 1940   9.265   1.165   6.489
  121POPC   C4A 1941   9.551   0.917   6.246
  121POPC   C1B 1942   9.664   1.422   7.271
  121POPC   C2B 1943   9.792   1.490   6.879
  121POPC   C3B 1944   9.772   1.322   6.481
  121POPC   C4B 1945  10.066   1.189   6.157
  122POPC   NC3 1946   9.965   0.436   8.067
  122POPC   PO4 1947   9.489   0.923   8.178
  122POPC   GL1 1948   9.671   0.741   7.793
  122POPC   GL2 1949   9.568   0.442   7.745
  122POPC   C1A 1950   9.909   0.626   7.393
  122POPC   D2A 1951   9.973   0.335   7.025
  122POPC   C3A 1952   9.887   0.559   6.646
  122POPC   C4A 1953  10.034   0.692   6.245
  122POPC   C1B 1954   9.410   0.404   7.372
  122POPC   C2B 1955   9.477   0.483   6.973
  122POPC   C3B 1956   9.399   0.359   6.561
  122POPC   C4B 1957   9.611   0.409   6.212
  123POPC   NC3 1958   5.044  11.393   8.342
  123POPC   PO4 1959   5.609   0.031   7.928
  123POPC   GL1 1960   5.416  11.232   7.626
  123POPC   GL2 1961   5.067  11.103   7.727
  123POPC   C1A 1962   5.300  11.357   7.177
  123POPC   D2A 1963   5.234   0.026   6.751
  123POPC   C3A 1964   5.127  11.225   6.441
  123POPC   C4A 1965   5.411  11.033   6.151
  123POPC   C1B 1966   4.835  11.159   7.357
  123POPC   C2B 1967   4.863  11.194   6.922
  123POPC   C3B 1968   4.674  11.426   6.621
  123POPC   C4B 1969   4.665  11.360   6.187
  124POPC   NC3 1970   0.494   9.038   8.199
  124POPC   PO4 1971   0.803   8.508   7.977
  124POPC   GL1 1972   0.640   8.803   7.670
  124POPC   GL2 1973   0.283   8.896   7.699
  124POPC   C1A 1974   0.553   8.836   7.227
  124POPC   D2A 1975   0.392   9.064   6.867
  124POPC   C3A 1976   0.641   8.913   6.540
  124POPC   C4A 1977   0.607   8.528   6.322
  124POPC   C1B 1978   0.058   8.750   7.312
  124POPC   C2B 1979  11.457   8.748   6.862
  124POPC   C3B 1980   0.164   8.737   6.469
  124POPC   C4B 1981   0.325   9.085   6.148
  125POPC   NC3 1982   4.211   0.447   8.360
  125POPC   PO4 1983   3.565   0.634   8.311
  125POPC   GL1 1984   3.559   0.561   7.804
  125POPC   GL2 1985   3.381   0.258   7.639
  125POPC   C1A 1986   3.621   0.535   7.302
  125POPC   D2A 1987   3.526   0.180   6.983
  125POPC   C3A 1988   3.518   0.313   6.516
  125POPC   C4A 1989   3.632   0.203   6.072
  125POPC   C1B 1990   3.131   0.579   7.375
  125POPC   C2B 1991   3.256   0.610   6.907
  125POPC   C3B 1992   3.105   0.622   6.439
  125POPC   C4B 1993   3.302   0.624   6.013
  126POPC   NC3 1994   1.064   8.892   7.975
  126POPC   PO4 1995   1.455   8.545   8.435
  126POPC   GL1 1996   1.539   8.770   7.922
  126POPC   GL2 1997   1.343   8.570   7.654
  126POPC   C1A 1998   1.589   8.924   7.402
  126POPC   D2A 1999   1.652   8.836   6.933
  126POPC   C3A 2000   1.750   9.104   6.599
  126POPC   C4A 2001   1.536   9.034   6.205
  126POPC   C1B 2002   1.060   8.735   7.339
  126POPC   C2B 2003   0.977   8.985   6.979
  126POPC   C3B 2004   1.180   8.910   6.630
  126POPC   C4B 2005   1.062   8.837   6.252
  127POPC   NC3 2006   9.715  10.527   7.925
  127POPC   PO4 2007   9.171  10.111   8.006
  127POPC   GL1 2008   9.411  10.180   7.574
  127POPC   GL2 2009   9.781  10.293   7.502
  127POPC   C1A 2010   9.488  10.245   7.100
  127POPC   D2A 2011   9.626  10.094   6.668
  127POPC   C3A 2012   9.372  10.261   6.306
  127POPC   C4A 2013   9.425  10.268   5.854
  127POPC   C1B 2014   9.835  10.615   7.249
  127POPC   C2B 2015   9.903  10.489   6.858
  127POPC   C3B 2016   9.776  10.528   6.456
  127POPC   C4B 2017   9.873  10.274   6.111
  128POPC   NC3 2018   3.481   9.114   7.886
  128POPC   PO4 2019   3.118   8.584   7.935
  128POPC   GL1 2020   3.285   8.811   7.537
  128POPC   GL2 2021   3.670   8.774   7.546
  128POPC   C1A 2022   3.150   8.878   7.103
  128POPC   D2A 2023   3.168   8.536   6.783
  128POPC   C3A 2024   3.227   8.683   6.394
  128POPC   C4A 2025   3.076   9.058   6.474
  128POPC   C1B 2026   3.665   8.987   7.152
  128POPC   C2B 2027   3.555   8.904   6.731
  128POPC   C3B 2028   3.770   8.859   6.352
  128POPC   C4B 2029   3.870   8.817   5.927
  129POPC   NC3 2030  10.511   0.724   8.375
  129POPC   PO4 2031  10.234   0.180   8.344
  129POPC   GL1 2032  10.329   0.165   7.839
  129POPC   GL2 2033  10.532   0.484   7.845
  129POPC   C1A 2034  10.260   0.050   7.363
  129POPC   D2A 2035  10.485   0.169   6.937
  129POPC   C3A 2036  10.221   0.170   6.534
  129POPC   C4A 2037  10.173   0.242   6.063
  129POPC   C1B 2038  10.430   0.528   7.402
  129POPC   C2B 2039  10.349   0.660   6.965
  129POPC   C3B 2040  10.471   0.621   6.548
  129POPC   C4B 2041  10.666   0.613   6.161
  130POPC   NC3 2042   2.440   7.245   8.082
  130POPC   PO4 2043   2.793   7.640   7.879
  130POPC   GL1 2044   2.521   7.396   7.589
  130POPC   GL2 2045   2.366   7.035   7.611
  130POPC   C1A 2046   2.581   7.576   7.196
  130POPC   D2A 2047   2.584   8.019   7.035
  130POPC   C3A 2048   2.614   7.962   6.600
  130POPC   C4A 2049   2.712   7.553   6.404
  130POPC   C1B 2050   2.297   7.129   7.163
  130POPC   C2B 2051   2.503   7.227   6.776
  130POPC   C3B 2052   2.636   7.027   6.375
  130POPC   C4B 2053   2.695   6.885   5.901
  131POPC   NC3 2054   1.163   1.882   8.131
  131POPC   PO4 2055   1.764   2.297   8.221
  131POPC   GL1 2056   1.547   2.134   7.836
  131POPC   GL2 2057   1.200   2.242   7.760
  131POPC   C1A 2058   1.575   2.169   7.369
  131POPC   D2A 2059   1.381   2.183   6.961
  131POPC   C3A 2060   1.571   1.979   6.618
  131POPC   C4A 2061   1.518   2.002   6.205
  131POPC   C1B 2062   1.046   2.014   7.389
  131POPC   C2B 2063   0.906   1.978   6.947
  131POPC   C3B 2064   1.069   2.048   6.523
  131POPC   C4B 2065   1.072   1.827   6.096
  132POPC   NC3 2066   5.417   9.558   8.094
  132POPC   PO4 2067   5.291  10.171   8.100
  132POPC   GL1 2068   5.011  10.041   7.773
  132POPC   GL2 2069   5.104   9.696   7.711
  132POPC   C1A 2070   4.933   9.965   7.321
  132POPC   D2A 2071   5.160   9.870   6.956
  132POPC   C3A 2072   4.873   9.688   6.647
  132POPC   C4A 2073   5.079   9.638   6.283
  132POPC   C1B 2074   5.161   9.483   7.288
  132POPC   C2B 2075   5.007   9.249   6.890
  132POPC   C3B 2076   5.007   9.142   6.427
  132POPC   C4B 2077   5.169   9.230   5.979
  133POPC   NC3 2078   5.713   1.643   8.094
  133POPC   PO4 2079   5.896   0.959   8.167
  133POPC   GL1 2080   5.928   1.223   7.802
  133POPC   GL2 2081   5.578   1.268   7.698
  133POPC   C1A 2082   6.100   1.257   7.380
  133POPC   D2A 2083   6.111   1.387   6.950
  133POPC   C3A 2084   5.959   1.214   6.554
  133POPC   C4A 2085   6.098   0.924   6.267
  133POPC   C1B 2086   5.681   0.987   7.319
  133POPC   C2B 2087   5.619   1.085   6.911
  133POPC   C3B 2088   5.471   1.009   6.508
  133POPC   C4B 2089   5.622   0.992   6.097
  134POPC   NC3 2090   9.455   9.686   8.034
  134POPC   PO4 2091   9.992  10.108   7.985
  134POPC   GL1 2092   9.785   9.833   7.667
  134POPC   GL2 2093   9.680   9.539   7.578
  134POPC   C1A 2094   9.779   9.843   7.203
  134POPC   D2A 2095   9.917   9.546   6.902
  134POPC   C3A 2096   9.701   9.596   6.530
  134POPC   C4A 2097   9.631   9.844   6.171
  134POPC   C1B 2098   9.550   9.347   7.212
  134POPC   C2B 2099   9.766   9.024   6.963
  134POPC   C3B 2100   9.928   9.134   6.563
  134POPC   C4B 2101   9.578   9.102   6.308
  135POPC   NC3 2102   8.765   1.540   7.839
  135POPC   PO4 2103   8.479   1.041   8.120
  135POPC   GL1 2104   8.662   0.953   7.708
  135POPC   GL2 2105   8.971   1.097   7.647
  135POPC   C1A 2106   8.672   1.170   7.263
  135POPC   D2A 2107   8.900   1.197   6.897
  135POPC   C3A 2108   8.722   1.025   6.575
  135POPC   C4A 2109   8.651   0.903   6.182
  135POPC   C1B 2110   9.171   1.339   7.302
  135POPC   C2B 2111   9.283   1.520   6.883
  135POPC   C3B 2112   8.943   1.602   6.594
  135POPC   C4B 2113   8.840   1.405   6.244
  136POPC   NC3 2114   9.030   0.912   8.127
  136POPC   PO4 2115   8.694   0.340   8.012
  136POPC   GL1 2116   9.002   0.528   7.772
  136POPC   GL2 2117   9.127   0.200   7.753
  136POPC   C1A 2118   8.997   0.705   7.371
  136POPC   D2A 2119   8.792   0.709   7.027
  136POPC   C3A 2120   9.113   0.745   6.730
  136POPC   C4A 2121   9.104   0.678   6.282
  136POPC   C1B 2122   8.933   0.207   7.330
  136POPC   C2B 2123   8.993   0.253   6.884
  136POPC   C3B 2124   8.721   0.477   6.573
  136POPC   C4B 2125   8.678   0.386   6.146
  137POPC   NC3 2126   3.618   1.082   8.111
  137POPC   PO4 2127   2.961   1.009   7.923
  137POPC   GL1 2128   3.312   0.992   7.665
  137POPC   GL2 2129   3.516   1.286   7.646
  137POPC   C1A 2130   3.374   1.008   7.237
  137POPC   D2A 2131   3.477   1.148   6.880
  137POPC   C3A 2132   3.507   0.900   6.557
  137POPC   C4A 2133   3.431   1.134   6.236
  137POPC   C1B 2134   3.750   1.445   7.301
  137POPC   C2B 2135   3.948   1.390   6.888
  137POPC   C3B 2136   3.756   1.403   6.508
  137POPC   C4B 2137   3.698   1.661   6.149
  138POPC   NC3 2138   3.680  10.504   8.239
  138POPC   PO4 2139   4.178  10.674   7.878
  138POPC   GL1 2140   3.793  10.452   7.699
  138POPC   GL2 2141   3.399  10.467   7.750
  138POPC   C1A 2142   3.585  10.471   7.288
  138POPC   D2A 2143   3.523  10.240   6.921
  138POPC   C3A 2144   3.494  10.480   6.564
  138POPC   C4A 2145   3.809  10.685   6.286
  138POPC   C1B 2146   3.136  10.231   7.390
  138POPC   C2B 2147   3.039  10.348   6.951
  138POPC   C3B 2148   3.033  10.223   6.486
  138POPC   C4B 2149   3.287  10.400   6.112
  139POPC   NC3 2150  11.368  10.322   8.422
  139POPC   PO4 2151  10.900  10.182   8.046
  139POPC   GL1 2152  11.101  10.112   7.646
  139POPC   GL2 2153  11.307  10.377   7.647
  139POPC   C1A 2154  11.057  10.216   7.202
  139POPC   D2A 2155  10.731  10.225   6.882
  139POPC   C3A 2156  10.955  10.081   6.518
  139POPC   C4A 2157  10.986  10.103   6.063
  139POPC   C1B 2158  11.287  10.677   7.290
  139POPC   C2B 2159  11.290  10.567   6.848
  139POPC   C3B 2160  11.232  10.498   6.419
  139POPC   C4B 2161  11.434  10.171   6.266
  140POPC   NC3 2162   2.993   1.891   8.136
  140POPC   PO4 2163   3.571   1.590   8.075
  140POPC   GL1 2164   3.300   1.756   7.717
  140POPC   GL2 2165   3.330   2.113   7.743
  140POPC   C1A 2166   3.349   1.773   7.255
  140POPC   D2A 2167   3.485   1.649   6.858
  140POPC   C3A 2168   3.289   1.735   6.478
  140POPC   C4A 2169   3.181   1.561   6.065
  140POPC   C1B 2170   3.717   2.031   7.472
  140POPC   C2B 2171   3.871   1.878   7.051
  140POPC   C3B 2172   3.750   1.972   6.579
  140POPC   C4B 2173   3.479   2.102   6.197
  141POPC   NC3 2174   2.736   3.698   8.101
  141POPC   PO4 2175   3.170   3.112   8.063
  141POPC   GL1 2176   2.964   3.122   7.673
  141POPC   GL2 2177   2.727   3.399   7.684
  141POPC   C1A 2178   3.026   3.343   7.276
  141POPC   D2A 2179   3.256   3.322   6.902
  141POPC   C3A 2180   3.006   3.330   6.530
  141POPC   C4A 2181   2.899   3.203   6.129
  141POPC   C1B 2182   2.507   3.543   7.305
  141POPC   C2B 2183   2.289   3.558   6.899
  141POPC   C3B 2184   2.501   3.506   6.475
  141POPC   C4B 2185   2.862   3.768   6.293
  142POPC   NC3 2186   8.732   9.990   7.901
  142POPC   PO4 2187   9.068   9.410   8.055
  142POPC   GL1 2188   9.159   9.526   7.655
  142POPC   GL2 2189   8.830   9.592   7.598
  142POPC   C1A 2190   9.257   9.765   7.328
  142POPC   D2A 2191   9.351   9.766   6.922
  142POPC   C3A 2192   9.218   9.487   6.635
  142POPC   C4A 2193   9.268   9.476   6.224
  142POPC   C1B 2194   8.753   9.730   7.176
  142POPC   C2B 2195   8.855   9.827   6.780
  142POPC   C3B 2196   8.826   9.694   6.367
  142POPC   C4B 2197   8.573   9.901   6.026
  143POPC   NC3 2198   7.204  10.950   8.263
  143POPC   PO4 2199   7.421  11.401   7.801
  143POPC   GL1 2200   7.483  11.058   7.583
  143POPC   GL2 2201   7.204  10.844   7.619
  143POPC   C1A 2202   7.614  11.252   7.199
  143POPC   D2A 2203   7.623   0.032   6.875
  143POPC   C3A 2204   7.651  11.306   6.528
  143POPC   C4A 2205   7.468  11.325   6.151
  143POPC   C1B 2206   7.122  11.114   7.228
  143POPC   C2B 2207   7.279  11.115   6.844
  143POPC   C3B 2208   7.191  11.017   6.472
  143POPC   C4B 2209   6.976  11.167   6.127
  144POPC   NC3 2210   8.631   2.424   8.015
  144POPC   PO4 2211   9.079   2.906   8.149
  144POPC   GL1 2212   9.076   2.834   7.726
  144POPC   GL2 2213   8.735   2.848   7.719
  144POPC   C1A 2214   9.141   2.737   7.291
  144POPC   D2A 2215   8.873   2.642   6.889
  144POPC   C3A 2216   9.020   2.662   6.459
  144POPC   C4A 2217   9.038   3.028   6.180
  144POPC   C1B 2218   8.638   2.614   7.348
  144POPC   C2B 2219   8.397   2.481   6.974
  144POPC   C3B 2220   8.524   2.496   6.549
  144POPC   C4B 2221   8.576   2.773   6.205
  145POPC   NC3 2222  11.333   1.075   8.345
  145POPC   PO4 2223  10.680   1.024   8.047
  145POPC   GL1 2224  10.919   0.866   7.726
  145POPC   GL2 2225  11.267   0.981   7.830
  145POPC   C1A 2226  10.839   0.945   7.279
  145POPC   D2A 2227  10.691   1.034   6.874
  145POPC   C3A 2228  10.996   0.888   6.573
  145POPC   C4A 2229  11.016   0.983   6.155
  145POPC   C1B 2230  11.328   1.091   7.385
  145POPC   C2B 2231  11.193   1.226   6.944
  145POPC   C3B 2232  11.199   1.389   6.492
  145POPC   C4B 2233  11.375   1.330   6.045
  146POPC   NC3 2234   5.132   0.081   7.883
  146POPC   PO4 2235   4.820   0.719   8.041
  146POPC   GL1 2236   4.760   0.748   7.617
  146POPC   GL2 2237   4.944   0.450   7.635
  146POPC   C1A 2238   4.829   0.602   7.201
  146POPC   D2A 2239   4.856   0.222   7.033
  146POPC   C3A 2240   4.865   0.387   6.644
  146POPC   C4A 2241   4.988   0.221   6.287
  146POPC   C1B 2242   5.260   0.383   7.325
  146POPC   C2B 2243   5.341   0.659   7.006
  146POPC   C3B 2244   5.373   0.508   6.608
  146POPC   C4B 2245   5.291   0.616   6.212
  147POPC   NC3 2246   5.232   7.679   8.531
  147POPC   PO4 2247   5.264   7.743   8.055
  147POPC   GL1 2248   5.152   7.842   7.586
  147POPC   GL2 2249   4.913   8.123   7.512
  147POPC   C1A 2250   5.219   7.992   7.128
  147POPC   D2A 2251   5.052   8.201   6.743
  147POPC   C3A 2252   5.242   8.153   6.328
  147POPC   C4A 2253   5.015   8.016   5.960
  147POPC   C1B 2254   4.955   8.471   7.183
  147POPC   C2B 2255   4.978   8.715   6.784
  147POPC   C3B 2256   4.962   8.582   6.356
  147POPC   C4B 2257   5.139   8.584   5.936
  148POPC   NC3 2258   0.780  11.141   8.209
  148POPC   PO4 2259   0.180  11.411   8.105
  148POPC   GL1 2260   0.279   0.024   7.699
  148POPC   GL2 2261   0.564  11.323   7.734
  148POPC   C1A 2262   0.226  11.288   7.284
  148POPC   D2A 2263   0.162  11.025   6.891
  148POPC   C3A 2264   0.246  11.244   6.495
  148POPC   C4A 2265   0.297  11.431   6.071
  148POPC   C1B 2266   0.598  10.955   7.432
  148POPC   C2B 2267   0.656  11.022   6.984
  148POPC   C3B 2268   0.649  10.846   6.583
  148POPC   C4B 2269   0.555  10.988   6.183
  149POPC   NC3 2270   0.851   5.546   7.704
  149POPC   PO4 2271   0.975   4.965   7.983
  149POPC   GL1 2272   1.070   5.101   7.603
  149POPC   GL2 2273   1.384   5.124   7.672
  149POPC   C1A 2274   1.145   5.189   7.178
  149POPC   D2A 2275   0.975   5.013   6.850
  149POPC   C3A 2276   0.936   5.356   6.647
  149POPC   C4A 2277   1.036   5.247   6.259
  149POPC   C1B 2278   1.522   4.884   7.342
  149POPC   C2B 2279   1.443   4.798   6.938
  149POPC   C3B 2280   1.410   5.058   6.585
  149POPC   C4B 2281   1.365   4.882   6.195
  150POPC   NC3 2282   1.113   4.192   8.032
  150POPC   PO4 2283   1.665   4.658   7.932
  150POPC   GL1 2284   1.257   4.614   7.702
  150POPC   GL2 2285   1.142   4.296   7.543
  150POPC   C1A 2286   1.053   4.699   7.276
  150POPC   D2A 2287   1.058   4.426   6.917
  150POPC   C3A 2288   1.298   4.487   6.550
  150POPC   C4A 2289   1.171   4.411   6.117
  150POPC   C1B 2290   0.874   4.078   7.249
  150POPC   C2B 2291   0.894   3.936   6.806
  150POPC   C3B 2292   0.827   4.145   6.415
  150POPC   C4B 2293   0.887   4.017   5.974
  151POPC   NC3 2294   0.424   0.998   7.918
  151POPC   PO4 2295   0.816   1.532   8.090
  151POPC   GL1 2296   0.761   1.344   7.714
  151POPC   GL2 2297   0.408   1.432   7.633
  151POPC   C1A 2298   0.795   1.346   7.282
  151POPC   D2A 2299   0.701   1.080   6.904
  151POPC   C3A 2300   0.567   1.255   6.531
  151POPC   C4A 2301   0.768   1.433   6.168
  151POPC   C1B 2302   0.321   1.168   7.251
  151POPC   C2B 2303   0.166   1.009   6.852
  151POPC   C3B 2304   0.048   0.998   6.419
  151POPC   C4B 2305   0.337   1.104   6.090
  152POPC   NC3 2306   0.435   1.843   8.128
  152POPC   PO4 2307   0.011   2.369   8.063
  152POPC   GL1 2308   0.058   2.203   7.635
  152POPC   GL2 2309   0.293   1.950   7.659
  152POPC   C1A 2310   0.357   2.274   7.279
  152POPC   D2A 2311   0.401   2.102   6.898
  152POPC   C3A 2312   0.549   2.264   6.552
  152POPC   C4A 2313   0.370   2.353   6.195
  152POPC   C1B 2314   0.566   1.806   7.323
  152POPC   C2B 2315   0.523   1.598   6.926
  152POPC   C3B 2316   0.653   1.761   6.536
  152POPC   C4B 2317   0.588   1.918   6.107
  153POPC   NC3 2318   9.491   6.293   8.019
  153POPC   PO4 2319   9.255   6.881   8.105
  153POPC   GL1 2320   9.491   6.736   7.732
  153POPC   GL2 2321   9.824   6.615   7.737
  153POPC   C1A 2322   9.504   6.582   7.279
  153POPC   D2A 2323   9.542   6.765   6.830
  153POPC   C3A 2324   9.450   6.546   6.431
  153POPC   C4A 2325   9.107   6.354   6.228
  153POPC   C1B 2326   9.986   6.411   7.392
  153POPC   C2B 2327   9.940   6.494   7.004
  153POPC   C3B 2328   9.913   6.418   6.600
  153POPC   C4B 2329  10.009   6.671   6.286
  154POPC   NC3 2330   2.734   8.790   8.104
  154POPC   PO4 2331   3.126   9.375   8.100
  154POPC   GL1 2332   2.818   9.181   7.736
  154POPC   GL2 2333   2.771   8.819   7.603
  154POPC   C1A 2334   2.583   9.132   7.275
  154POPC   D2A 2335   2.707   8.973   6.846
  154POPC   C3A 2336   2.569   9.173   6.444
  154POPC   C4A 2337   2.407   9.334   5.974
  154POPC   C1B 2338   2.608   8.593   7.213
  154POPC   C2B 2339   2.657   8.466   6.769
  154POPC   C3B 2340   2.709   8.674   6.397
  154POPC   C4B 2341   2.629   8.895   6.028
  155POPC   NC3 2342   0.188   7.335   8.127
  155POPC   PO4 2343  11.015   7.217   8.217
  155POPC   GL1 2344  11.274   7.195   7.807
  155POPC   GL2 2345  11.097   7.407   7.592
  155POPC   C1A 2346   0.020   7.222   7.362
  155POPC   D2A 2347  11.450   7.137   6.878
  155POPC   C3A 2348  11.489   7.526   6.611
  155POPC   C4A 2349  11.436   7.709   6.203
  155POPC   C1B 2350  11.053   7.128   7.205
  155POPC   C2B 2351  10.863   7.220   6.830
  155POPC   C3B 2352  10.982   7.334   6.426
  155POPC   C4B 2353  11.350   7.206   6.242
  156POPC   NC3 2354  10.175   4.264   8.038
  156POPC   PO4 2355  10.736   4.606   8.066
  156POPC   GL1 2356  10.512   4.434   7.672
  156POPC   GL2 2357  10.502   4.048   7.708
  156POPC   C1A 2358  10.257   4.503   7.271
  156POPC   D2A 2359  10.009   4.262   6.961
  156POPC   C3A 2360  10.154   4.399   6.554
  156POPC   C4A 2361  10.056   4.477   6.151
  156POPC   C1B 2362  10.541   4.084   7.280
  156POPC   C2B 2363  10.518   4.238   6.876
  156POPC   C3B 2364  10.685   3.984   6.527
  156POPC   C4B 2365  10.460   4.169   6.179
  157POPC   NC3 2366  10.351  11.260   8.167
  157POPC   PO4 2367   9.783   0.009   7.897
  157POPC   GL1 2368   9.958  11.171   7.695
  157POPC   GL2 2369  10.312  11.145   7.684
  157POPC   C1A 2370  10.015  11.085   7.260
  157POPC   D2A 2371  10.117  11.327   6.918
  157POPC   C3A 2372  10.267  11.139   6.551
  157POPC   C4A 2373  10.150  11.249   6.137
  157POPC   C1B 2374  10.509  11.001   7.331
  157POPC   C2B 2375  10.646  11.180   6.939
  157POPC   C3B 2376  10.826  11.232   6.536
  157POPC   C4B 2377  10.607  11.038   6.164
  158POPC   NC3 2378   1.396  11.093   8.042
  158POPC   PO4 2379   0.874   0.072   8.103
  158POPC   GL1 2380   1.142  11.429   7.748
  158POPC   GL2 2381   1.016  11.101   7.693
  158POPC   C1A 2382   1.369  11.236   7.365
  158POPC   D2A 2383   1.166  11.040   7.001
  158POPC   C3A 2384   1.254  11.141   6.606
  158POPC   C4A 2385   1.554  11.227   6.284
  158POPC   C1B 2386   0.868  11.372   7.314
  158POPC   C2B 2387   0.784   0.032   6.893
  158POPC   C3B 2388   0.782  11.337   6.484
  158POPC   C4B 2389   1.045  11.075   6.159
  159POPC   NC3 2390   0.295   9.592   8.091
  159POPC   PO4 2391   0.889   9.308   8.123
  159POPC   GL1 2392   0.578   9.319   7.775
  159POPC   GL2 2393   0.548   9.675   7.667
  159POPC   C1A 2394   0.401   9.282   7.368
  159POPC   D2A 2395   0.688   9.456   7.051
  159POPC   C3A 2396   0.820   9.388   6.631
  159POPC   C4A 2397   0.794   9.278   6.199
  159POPC   C1B 2398   0.328   9.767   7.296
  159POPC   C2B 2399   0.198   9.550   6.920
  159POPC   C3B 2400   0.358   9.581   6.501
  159POPC   C4B 2401   0.392   9.992   6.297
  160POPC   NC3 2402   9.806   5.719   8.043
  160POPC   PO4 2403   9.165   5.972   8.020
  160POPC   GL1 2404   9.514   5.920   7.666
  160POPC   GL2 2405   9.726   5.627   7.563
  160POPC   C1A 2406   9.636   6.037   7.241
  160POPC   D2A 2407   9.499   6.245   6.870
  160POPC   C3A 2408   9.509   6.028   6.483
  160POPC   C4A 2409   9.306   5.729   6.217
  160POPC   C1B 2410   9.859   5.464   7.199
  160POPC   C2B 2411   9.743   5.687   6.847
  160POPC   C3B 2412   9.731   5.531   6.452
  160POPC   C4B 2413   9.822   5.796   6.130
  161POPC   NC3 2414   6.060  10.115   8.081
  161POPC   PO4 2415   5.917  10.717   8.209
  161POPC   GL1 2416   6.016  10.554   7.787
  161POPC   GL2 2417   5.821  10.825   7.578
  161POPC   C1A 2418   6.090  10.171   7.461
  161POPC   D2A 2419   6.075  10.328   7.080
  161POPC   C3A 2420   6.087  10.183   6.717
  161POPC   C4A 2421   5.949  10.338   6.379
  161POPC   C1B 2422   5.683  10.448   7.418
  161POPC   C2B 2423   5.554  10.304   7.043
  161POPC   C3B 2424   5.521  10.401   6.655
  161POPC   C4B 2425   5.483  10.289   6.246
  162POPC   NC3 2426   3.959   1.918   8.050
  162POPC   PO4 2427   4.565   1.685   8.019
  162POPC   GL1 2428   4.505   1.549   7.616
  162POPC   GL2 2429   4.149   1.642   7.585
  162POPC   C1A 2430   4.524   1.741   7.206
  162POPC   D2A 2431   4.354   1.893   6.834
  162POPC   C3A 2432   4.581   2.054   6.446
  162POPC   C4A 2433   4.410   1.912   6.053
  162POPC   C1B 2434   4.217   2.076   7.399
  162POPC   C2B 2435   4.091   2.306   7.014
  162POPC   C3B 2436   4.147   2.289   6.563
  162POPC   C4B 2437   3.994   2.199   6.165
  163POPC   NC3 2438   8.919   5.598   8.068
  163POPC   PO4 2439   9.471   5.412   8.090
  163POPC   GL1 2440   9.270   5.440   7.673
  163POPC   GL2 2441   9.048   5.720   7.582
  163POPC   C1A 2442   9.349   5.562   7.199
  163POPC   D2A 2443   9.256   5.622   6.723
  163POPC   C3A 2444   8.925   5.460   6.406
  163POPC   C4A 2445   8.946   5.466   5.931
  163POPC   C1B 2446   9.125   6.029   7.229
  163POPC   C2B 2447   9.028   6.072   6.765
  163POPC   C3B 2448   8.823   5.977   6.372
  163POPC   C4B 2449   8.635   6.291   6.046
  164POPC   NC3 2450   7.802   2.975   7.922
  164POPC   PO4 2451   8.173   2.487   8.072
  164POPC   GL1 2452   7.926   2.343   7.701
  164POPC   GL2 2453   7.835   2.630   7.571
  164POPC   C1A 2454   7.954   2.321   7.201
  164POPC   D2A 2455   7.948   2.679   6.847
  164POPC   C3A 2456   8.077   2.656   6.397
  164POPC   C4A 2457   7.996   2.349   6.092
  164POPC   C1B 2458   8.169   2.813   7.297
  164POPC   C2B 2459   8.401   2.973   6.889
  164POPC   C3B 2460   8.289   3.122   6.441
  164POPC   C4B 2461   8.291   3.117   5.947
  165POPC   NC3 2462   1.167   0.409   7.973
  165POPC   PO4 2463   1.587   0.910   7.954
  165POPC   GL1 2464   1.512   0.663   7.568
  165POPC   GL2 2465   1.146   0.654   7.524
  165POPC   C1A 2466   1.436   0.620   7.093
  165POPC   D2A 2467   1.020   0.514   6.889
  165POPC   C3A 2468   1.126   0.582   6.464
  165POPC   C4A 2469   1.557   0.616   6.432
  165POPC   C1B 2470   1.224   0.238   7.334
  165POPC   C2B 2471   1.301   0.054   6.924
  165POPC   C3B 2472   1.348   0.135   6.487
  165POPC   C4B 2473   1.015   0.157   6.173
  166POPC   NC3 2474   9.540   2.811   8.173
  166POPC   PO4 2475  10.106   2.635   7.892
  166POPC   GL1 2476   9.854   2.861   7.616
  166POPC   GL2 2477   9.558   2.671   7.664
  166POPC   C1A 2478   9.693   2.840   7.195
  166POPC   D2A 2479   9.860   2.551   6.938
  166POPC   C3A 2480  10.117   2.768   6.674
  166POPC   C4A 2481   9.988   2.681   6.267
  166POPC   C1B 2482   9.508   2.368   7.324
  166POPC   C2B 2483   9.353   2.479   6.921
  166POPC   C3B 2484   9.443   2.824   6.709
  166POPC   C4B 2485   9.482   2.811   6.268
  167POPC   NC3 2486  10.463   8.331   7.806
  167POPC   PO4 2487  10.099   8.790   8.264
  167POPC   GL1 2488  10.225   8.806   7.771
  167POPC   GL2 2489  10.386   9.053   7.640
  167POPC   C1A 2490  10.190   8.689   7.292
  167POPC   D2A 2491  10.425   8.580   6.911
  167POPC   C3A 2492  10.304   8.790   6.534
  167POPC   C4A 2493  10.449   8.655   6.152
  167POPC   C1B 2494  10.042   9.174   7.374
  167POPC   C2B 2495  10.258   9.105   6.963
  167POPC   C3B 2496  10.641   9.121   6.728
  167POPC   C4B 2497  10.664   9.101   6.275
  168POPC   NC3 2498   1.569   1.140   4.004
  168POPC   PO4 2499   0.950   0.931   3.914
  168POPC   GL1 2500   1.121   1.185   4.227
  168POPC   GL2 2501   0.969   1.436   4.433
  168POPC   C1A 2502   1.369   1.121   4.593
  168POPC   D2A 2503   1.351   1.093   5.018
  168POPC   C3A 2504   1.512   1.323   5.376
  168POPC   C4A 2505   1.637   0.928   5.619
  168POPC   C1B 2506   0.867   1.015   4.638
  168POPC   C2B 2507   0.863   0.918   5.067
  168POPC   C3B 2508   1.102   1.014   5.460
  168POPC   C4B 2509   1.076   1.428   5.706
  169POPC   NC3 2510  10.892   3.371   3.907
  169POPC   PO4 2511  10.214   3.516   3.878
  169POPC   GL1 2512  10.268   3.702   4.267
  169POPC   GL2 2513  10.647   3.694   4.241
  169POPC   C1A 2514  10.111   3.485   4.646
  169POPC   D2A 2515  10.199   3.192   5.000
  169POPC   C3A 2516   9.966   3.207   5.377
  169POPC   C4A 2517  10.127   3.336   5.752
  169POPC   C1B 2518  10.593   3.549   4.688
  169POPC   C2B 2519  10.372   3.675   5.103
  169POPC   C3B 2520  10.405   3.736   5.570
  169POPC   C4B 2521  10.701   3.822   5.913
  170POPC   NC3 2522   9.769   5.697   3.754
  170POPC   PO4 2523   9.326   5.363   3.929
  170POPC   GL1 2524   9.637   5.449   4.209
  170POPC   GL2 2525   9.666   5.797   4.259
  170POPC   C1A 2526   9.659   5.448   4.638
  170POPC   D2A 2527   9.425   5.435   4.993
  170POPC   C3A 2528   9.631   5.621   5.338
  170POPC   C4A 2529   9.519   5.671   5.751
  170POPC   C1B 2530   9.834   5.938   4.705
  170POPC   C2B 2531   9.860   6.052   5.163
  170POPC   C3B 2532   9.550   6.189   5.504
  170POPC   C4B 2533   9.483   6.141   5.962
  171POPC   NC3 2534   3.620  10.270   4.008
  171POPC   PO4 2535   3.928  10.829   4.088
  171POPC   GL1 2536   3.710  10.643   4.379
  171POPC   GL2 2537   3.342  10.604   4.318
  171POPC   C1A 2538   3.877  10.634   4.771
  171POPC   D2A 2539   3.919  10.827   5.149
  171POPC   C3A 2540   3.867  10.522   5.502
  171POPC   C4A 2541   3.786  10.325   5.922
  171POPC   C1B 2542   3.420  10.369   4.716
  171POPC   C2B 2543   3.470  10.539   5.143
  171POPC   C3B 2544   3.361  10.378   5.556
  171POPC   C4B 2545   3.357  10.017   5.787
  172POPC   NC3 2546  10.520   2.242   3.958
  172POPC   PO4 2547   9.892   2.055   4.025
  172POPC   GL1 2548  10.149   2.231   4.364
  172POPC   GL2 2549  10.444   1.979   4.393
  172POPC   C1A 2550  10.336   2.241   4.809
  172POPC   D2A 2551  10.323   2.019   5.208
  172POPC   C3A 2552  10.301   2.339   5.509
  172POPC   C4A 2553  10.388   2.339   5.938
  172POPC   C1B 2554  10.580   1.606   4.661
  172POPC   C2B 2555  10.458   1.452   5.076
  172POPC   C3B 2556  10.469   1.577   5.521
  172POPC   C4B 2557  10.212   1.891   5.742
  173POPC   NC3 2558  10.158  11.225   3.897
  173POPC   PO4 2559  10.697  10.673   3.795
  173POPC   GL1 2560  10.458  10.894   4.189
  173POPC   GL2 2561  10.418  11.270   4.332
  173POPC   C1A 2562  10.367  10.890   4.659
  173POPC   D2A 2563  10.606  10.766   5.029
  173POPC   C3A 2564  10.433  10.946   5.392
  173POPC   C4A 2565  10.346  10.781   5.774
  173POPC   C1B 2566  10.150  11.458   4.684
  173POPC   C2B 2567  10.029  11.363   5.128
  173POPC   C3B 2568  10.151   0.076   5.520
  173POPC   C4B 2569  10.450  11.318   5.751
  174POPC   NC3 2570   6.435  11.499   4.014
  174POPC   PO4 2571   7.115  11.421   4.036
  174POPC   GL1 2572   6.783  11.266   4.289
  174POPC   GL2 2573   6.776  10.922   4.352
  174POPC   C1A 2574   6.522  11.309   4.644
  174POPC   D2A 2575   6.609  11.283   5.087
  174POPC   C3A 2576   6.363   0.011   5.375
  174POPC   C4A 2577   6.221  11.415   5.795
  174POPC   C1B 2578   6.592  10.835   4.773
  174POPC   C2B 2579   6.282  10.859   5.121
  174POPC   C3B 2580   6.465  10.970   5.504
  174POPC   C4B 2581   6.832  10.851   5.729
  175POPC   NC3 2582   2.937   9.839   4.020
  175POPC   PO4 2583   3.521   9.899   3.751
  175POPC   GL1 2584   3.639   9.794   4.207
  175POPC   GL2 2585   3.617   9.438   4.201
  175POPC   C1A 2586   3.726   9.925   4.672
  175POPC   D2A 2587   3.544  10.007   5.121
  175POPC   C3A 2588   3.802   9.978   5.530
  175POPC   C4A 2589   3.784   9.824   6.002
  175POPC   C1B 2590   3.392   9.522   4.609
  175POPC   C2B 2591   3.298   9.545   5.062
  175POPC   C3B 2592   3.456   9.604   5.488
  175POPC   C4B 2593   3.379   9.528   5.951
  176POPC   NC3 2594  10.519   7.910   3.815
  176POPC   PO4 2595  10.657   8.563   3.951
  176POPC   GL1 2596  10.440   8.397   4.299
  176POPC   GL2 2597  10.460   8.038   4.336
  176POPC   C1A 2598  10.436   8.322   4.751
  176POPC   D2A 2599  10.668   8.119   5.094
  176POPC   C3A 2600  10.469   8.387   5.382
  176POPC   C4A 2601  10.216   8.512   5.719
  176POPC   C1B 2602  10.415   7.817   4.755
  176POPC   C2B 2603  10.184   7.986   5.148
  176POPC   C3B 2604  10.189   7.992   5.614
  176POPC   C4B 2605  10.167   7.712   6.006
  177POPC   NC3 2606   9.574   2.270   4.280
  177POPC   PO4 2607   9.663   2.876   3.888
  177POPC   GL1 2608   9.504   2.782   4.247
  177POPC   GL2 2609   9.863   2.702   4.336
  177POPC   C1A 2610   9.454   2.769   4.690
  177POPC   D2A 2611   9.360   2.979   5.048
  177POPC   C3A 2612   9.476   2.889   5.421
  177POPC   C4A 2613   9.290   2.910   5.787
  177POPC   C1B 2614   9.926   2.555   4.737
  177POPC   C2B 2615   9.850   2.802   5.060
  177POPC   C3B 2616   9.938   2.694   5.451
  177POPC   C4B 2617   9.726   2.648   5.834
  178POPC   NC3 2618  10.799   0.475   3.737
  178POPC   PO4 2619  11.265   0.229   4.141
  178POPC   GL1 2620  11.281   0.600   4.377
  178POPC   GL2 2621   0.135   0.613   4.342
  178POPC   C1A 2622  11.049   0.590   4.792
  178POPC   D2A 2623  10.949   0.216   5.068
  178POPC   C3A 2624  11.083   0.276   5.509
  178POPC   C4A 2625  10.992   0.656   5.747
  178POPC   C1B 2626   0.081   0.379   4.742
  178POPC   C2B 2627  11.420   0.512   5.134
  178POPC   C3B 2628   0.068   0.436   5.522
  178POPC   C4B 2629  11.465   0.295   5.897
  179POPC   NC3 2630   6.664   9.552   3.856
  179POPC   PO4 2631   6.180   9.919   3.805
  179POPC   GL1 2632   6.390   9.887   4.200
  179POPC   GL2 2633   6.652   9.670   4.358
  179POPC   C1A 2634   6.365   9.995   4.651
  179POPC   D2A 2635   6.403   9.765   5.029
  179POPC   C3A 2636   6.282   9.863   5.455
  179POPC   C4A 2637   6.370   9.633   5.869
  179POPC   C1B 2638   6.857   9.850   4.751
  179POPC   C2B 2639   6.813  10.023   5.191
  179POPC   C3B 2640   6.771   9.819   5.608
  179POPC   C4B 2641   6.763   9.937   6.040
  180POPC   NC3 2642   9.242   8.985   3.854
  180POPC   PO4 2643   9.910   9.009   3.853
  180POPC   GL1 2644   9.596   9.038   4.214
  180POPC   GL2 2645   9.444   8.673   4.204
  180POPC   C1A 2646   9.563   9.231   4.637
  180POPC   D2A 2647   9.798   9.140   5.019
  180POPC   C3A 2648   9.609   9.171   5.411
  180POPC   C4A 2649   9.671   9.063   5.819
  180POPC   C1B 2650   9.404   8.757   4.643
  180POPC   C2B 2651   9.295   8.871   5.084
  180POPC   C3B 2652   9.359   8.748   5.534
  180POPC   C4B 2653   9.728   8.566   5.682
  181POPC   NC3 2654  11.165   8.394   4.042
  181POPC   PO4 2655  10.951   7.846   3.702
  181POPC   GL1 2656  10.939   7.929   4.150
  181POPC   GL2 2657  11.260   7.886   4.209
  181POPC   C1A 2658  10.905   8.086   4.618
  181POPC   D2A 2659  11.176   8.214   5.012
  181POPC   C3A 2660  10.982   8.356   5.423
  181POPC   C4A 2661  10.734   8.319   5.809
  181POPC   C1B 2662  11.310   7.757   4.645
  181POPC   C2B 2663  11.034   7.700   5.018
  181POPC   C3B 2664  11.038   7.848   5.456
  181POPC   C4B 2665  11.446   7.829   5.691
  182POPC   NC3 2666   5.747  10.914   3.983
  182POPC   PO4 2667   6.413  11.076   3.780
  182POPC   GL1 2668   6.260  11.024   4.208
  182POPC   GL2 2669   6.020  11.313   4.274
  182POPC   C1A 2670   6.128  10.980   4.637
  182POPC   D2A 2671   6.078  11.324   4.955
  182POPC   C3A 2672   5.947  11.206   5.383
  182POPC   C4A 2673   6.025  10.931   5.735
  182POPC   C1B 2674   5.686  11.209   4.598
  182POPC   C2B 2675   5.544  11.265   5.045
  182POPC   C3B 2676   5.470  11.411   5.482
  182POPC   C4B 2677   5.701  11.337   5.871
  183POPC   NC3 2678   1.106   8.095   3.803
  183POPC   PO4 2679   1.690   8.384   3.973
  183POPC   GL1 2680   1.375   8.247   4.248
  183POPC   GL2 2681   1.049   8.160   4.309
  183POPC   C1A 2682   1.422   8.061   4.661
  183POPC   D2A 2683   1.255   8.158   5.075
  183POPC   C3A 2684   1.369   7.947   5.441
  183POPC   C4A 2685   1.527   8.173   5.805
  183POPC   C1B 2686   0.916   8.002   4.714
  183POPC   C2B 2687   0.752   8.158   5.118
  183POPC   C3B 2688   0.912   8.150   5.517
  183POPC   C4B 2689   1.076   7.927   5.874
  184POPC   NC3 2690  10.995  10.973   4.006
  184POPC   PO4 2691  10.621   0.063   3.952
  184POPC   GL1 2692  10.919  11.376   4.298
  184POPC   GL2 2693  11.289  11.252   4.328
  184POPC   C1A 2694  10.820  11.175   4.683
  184POPC   D2A 2695  10.569  11.304   5.044
  184POPC   C3A 2696  10.847  11.318   5.417
  184POPC   C4A 2697  10.946  11.371   5.864
  184POPC   C1B 2698  11.294  11.426   4.760
  184POPC   C2B 2699  11.415   0.007   5.203
  184POPC   C3B 2700  11.400  11.374   5.624
  184POPC   C4B 2701  11.329  10.968   5.704
  185POPC   NC3 2702   1.897  11.136   3.947
  185POPC   PO4 2703   2.446  10.735   3.973
  185POPC   GL1 2704   2.250  10.695   4.350
  185POPC   GL2 2705   2.055  10.980   4.414
  185POPC   C1A 2706   2.387  10.796   4.772
  185POPC   D2A 2707   2.220  11.094   5.046
  185POPC   C3A 2708   2.081  10.976   5.405
  185POPC   C4A 2709   2.244  11.042   5.760
  185POPC   C1B 2710   1.836  11.213   4.729
  185POPC   C2B 2711   1.597  11.154   5.091
  185POPC   C3B 2712   1.586  11.041   5.482
  185POPC   C4B 2713   1.790  11.240   5.787
  186POPC   NC3 2714   3.616   2.893   3.838
  186POPC   PO4 2715   3.057   3.223   4.031
  186POPC   GL1 2716   3.280   2.915   4.326
  186POPC   GL2 2717   3.432   2.572   4.221
  186POPC   C1A 2718   3.300   2.829   4.798
  186POPC   D2A 2719   3.286   2.901   5.269
  186POPC   C3A 2720   3.656   2.854   5.541
  186POPC   C4A 2721   3.762   2.963   5.996
  186POPC   C1B 2722   3.190   2.379   4.585
  186POPC   C2B 2723   3.206   2.285   5.056
  186POPC   C3B 2724   3.210   2.464   5.525
  186POPC   C4B 2725   3.115   2.443   6.017
  187POPC   NC3 2726   9.755   1.631   4.159
  187POPC   PO4 2727   9.251   2.189   3.968
  187POPC   GL1 2728   9.150   2.029   4.411
  187POPC   GL2 2729   9.481   1.849   4.551
  187POPC   C1A 2730   9.066   1.809   4.832
  187POPC   D2A 2731   9.468   1.812   5.091
  187POPC   C3A 2732   9.535   1.729   5.537
  187POPC   C4A 2733   9.492   1.884   5.935
  187POPC   C1B 2734   9.867   1.999   4.800
  187POPC   C2B 2735   9.884   2.263   5.173
  187POPC   C3B 2736   9.801   2.187   5.622
  187POPC   C4B 2737   9.893   2.205   6.076
  188POPC   NC3 2738   2.721   7.341   3.900
  188POPC   PO4 2739   3.009   6.891   3.986
  188POPC   GL1 2740   2.903   7.204   4.370
  188POPC   GL2 2741   2.612   7.445   4.397
  188POPC   C1A 2742   2.893   7.360   4.833
  188POPC   D2A 2743   2.846   7.137   5.246
  188POPC   C3A 2744   2.926   7.319   5.672
  188POPC   C4A 2745   3.013   7.254   6.112
  188POPC   C1B 2746   2.493   7.089   4.685
  188POPC   C2B 2747   2.298   7.133   5.113
  188POPC   C3B 2748   2.442   7.199   5.554
  188POPC   C4B 2749   2.447   7.342   6.006
  189POPC   NC3 2750   8.503  11.259   4.129
  189POPC   PO4 2751   8.362  10.730   3.707
  189POPC   GL1 2752   8.298  10.789   4.187
  189POPC   GL2 2753   7.998  10.855   4.289
  189POPC   C1A 2754   8.337  10.916   4.667
  189POPC   D2A 2755   8.130  11.201   4.987
  189POPC   C3A 2756   8.099  11.103   5.421
  189POPC   C4A 2757   8.371  11.065   5.759
  189POPC   C1B 2758   7.917  11.213   4.522
  189POPC   C2B 2759   7.626  11.278   4.859
  189POPC   C3B 2760   7.567  11.274   5.308
  189POPC   C4B 2761   7.754  11.359   5.708
  190POPC   NC3 2762   5.310  11.407   3.659
  190POPC   PO4 2763   5.321   0.508   3.958
  190POPC   GL1 2764   5.103   0.613   4.333
  190POPC   GL2 2765   4.740   0.555   4.281
  190POPC   C1A 2766   5.255   0.504   4.741
  190POPC   D2A 2767   5.385   0.250   5.089
  190POPC   C3A 2768   5.271   0.429   5.449
  190POPC   C4A 2769   5.041   0.451   5.816
  190POPC   C1B 2770   4.776   0.267   4.657
  190POPC   C2B 2771   4.874   0.388   5.072
  190POPC   C3B 2772   4.713   0.507   5.435
  190POPC   C4B 2773   4.685   0.844   5.717
  191POPC   NC3 2774   4.815   1.749   3.920
  191POPC   PO4 2775   4.811   2.422   3.941
  191POPC   GL1 2776   4.782   2.136   4.297
  191POPC   GL2 2777   5.057   1.886   4.351
  191POPC   C1A 2778   4.741   2.210   4.761
  191POPC   D2A 2779   4.548   2.130   5.177
  191POPC   C3A 2780   4.818   2.251   5.526
  191POPC   C4A 2781   4.834   2.146   5.942
  191POPC   C1B 2782   5.003   1.752   4.789
  191POPC   C2B 2783   5.026   1.902   5.210
  191POPC   C3B 2784   5.096   1.798   5.641
  191POPC   C4B 2785   5.281   1.925   6.029
  192POPC   NC3 2786   4.163   0.119   3.705
  192POPC   PO4 2787   4.732  11.405   3.941
  192POPC   GL1 2788   4.396   0.139   4.237
  192POPC   GL2 2789   4.208   0.465   4.259
  192POPC   C1A 2790   4.176   0.106   4.662
  192POPC   D2A 2791   4.444   0.092   5.039
  192POPC   C3A 2792   4.327   0.164   5.465
  192POPC   C4A 2793   4.608   0.178   5.810
  192POPC   C1B 2794   4.373   0.576   4.688
  192POPC   C2B 2795   4.288   0.591   5.120
  192POPC   C3B 2796   4.232   0.695   5.550
  192POPC   C4B 2797   4.265   0.877   5.991
  193POPC   NC3 2798   1.463   2.135   4.004
  193POPC   PO4 2799   1.674   1.585   3.956
  193POPC   GL1 2800   1.499   1.588   4.363
  193POPC   GL2 2801   1.274   1.887   4.411
  193POPC   C1A 2802   1.335   1.570   4.800
  193POPC   D2A 2803   1.030   1.504   5.129
  193POPC   C3A 2804   1.232   1.798   5.379
  193POPC   C4A 2805   1.462   1.750   5.743
  193POPC   C1B 2806   0.914   1.891   4.722
  193POPC   C2B 2807   0.721   2.160   5.055
  193POPC   C3B 2808   0.961   2.361   5.355
  193POPC   C4B 2809   1.151   2.167   5.729
  194POPC   NC3 2810   5.848   0.526   3.928
  194POPC   PO4 2811   5.727  11.377   3.847
  194POPC   GL1 2812   5.615   0.157   4.262
  194POPC   GL2 2813   5.614   0.540   4.372
  194POPC   C1A 2814   5.751   0.201   4.730
  194POPC   D2A 2815   5.982   0.308   5.135
  194POPC   C3A 2816   5.875   0.228   5.555
  194POPC   C4A 2817   5.565   0.351   5.850
  194POPC   C1B 2818   5.983   0.657   4.604
  194POPC   C2B 2819   6.146   0.772   4.985
  194POPC   C3B 2820   6.057   0.912   5.415
  194POPC   C4B 2821   5.927   0.720   5.801
  195POPC   NC3 2822   3.909   9.644   3.795
  195POPC   PO4 2823   4.617   9.443   4.053
  195POPC   GL1 2824   4.175   9.461   4.195
  195POPC   GL2 2825   4.150   9.798   4.313
  195POPC   C1A 2826   3.930   9.433   4.601
  195POPC   D2A 2827   3.895   9.580   5.031
  195POPC   C3A 2828   4.130   9.385   5.365
  195POPC   C4A 2829   4.047   9.545   5.697
  195POPC   C1B 2830   4.391   9.700   4.709
  195POPC   C2B 2831   4.399   9.763   5.166
  195POPC   C3B 2832   4.516   9.759   5.611
  195POPC   C4B 2833   4.691  10.158   5.761
  196POPC   NC3 2834   2.938   1.843   4.048
  196POPC   PO4 2835   2.571   1.431   3.687
  196POPC   GL1 2836   2.432   1.893   4.067
  196POPC   GL2 2837   2.560   2.205   4.181
  196POPC   C1A 2838   2.266   1.876   4.539
  196POPC   D2A 2839   2.472   1.782   4.945
  196POPC   C3A 2840   2.463   1.834   5.406
  196POPC   C4A 2841   2.743   1.707   5.767
  196POPC   C1B 2842   2.727   2.092   4.600
  196POPC   C2B 2843   2.653   2.243   5.003
  196POPC   C3B 2844   2.816   2.191   5.377
  196POPC   C4B 2845   2.716   2.241   5.776
  197POPC   NC3 2846   7.559  11.466   3.905
  197POPC   PO4 2847   7.315   0.559   3.672
  197POPC   GL1 2848   7.170   0.567   4.120
  197POPC   GL2 2849   7.462   0.402   4.225
  197POPC   C1A 2850   7.120   0.639   4.571
  197POPC   D2A 2851   7.377   0.720   4.922
  197POPC   C3A 2852   7.243   0.714   5.377
  197POPC   C4A 2853   7.061   0.488   5.706
  197POPC   C1B 2854   7.382   0.185   4.629
  197POPC   C2B 2855   7.505   0.233   5.047
  197POPC   C3B 2856   7.455   0.249   5.465
  197POPC   C4B 2857   7.472   0.261   5.887
  198POPC   NC3 2858   1.104   7.568   3.708
  198POPC   PO4 2859   1.547   7.030   3.858
  198POPC   GL1 2860   1.369   7.327   4.178
  198POPC   GL2 2861   1.180   7.135   4.437
  198POPC   C1A 2862   1.441   7.548   4.587
  198POPC   D2A 2863   1.273   7.640   5.012
  198POPC   C3A 2864   1.469   7.396   5.361
  198POPC   C4A 2865   1.480   7.055   5.711
  198POPC   C1B 2866   0.902   7.478   4.632
  198POPC   C2B 2867   0.723   7.642   5.037
  198POPC   C3B 2868   0.929   7.656   5.439
  198POPC   C4B 2869   1.186   7.457   5.763
  199POPC   NC3 2870   0.963   3.638   3.886
  199POPC   PO4 2871   0.602   3.021   3.926
  199POPC   GL1 2872   0.586   3.264   4.313
  199POPC   GL2 2873   0.658   3.625   4.435
  199POPC   C1A 2874   0.438   3.250   4.732
  199POPC   D2A 2875   0.594   3.545   5.032
  199POPC   C3A 2876   0.694   3.325   5.407
  199POPC   C4A 2877   0.395   3.174   5.669
  199POPC   C1B 2878   0.236   3.722   4.659
  199POPC   C2B 2879   0.102   3.555   5.074
  199POPC   C3B 2880   0.258   3.642   5.501
  199POPC   C4B 2881   0.089   3.654   5.937
  200POPC   NC3 2882  10.476   5.776   4.013
  200POPC   PO4 2883  10.008   5.274   3.895
  200POPC   GL1 2884  10.149   5.513   4.293
  200POPC   GL2 2885  10.537   5.537   4.440
  200POPC   C1A 2886  10.155   5.405   4.725
  200POPC   D2A 2887  10.154   5.632   5.089
  200POPC   C3A 2888  10.122   5.530   5.511
  200POPC   C4A 2889   9.955   5.931   5.665
  200POPC   C1B 2890  10.451   5.883   4.719
  200POPC   C2B 2891  10.385   6.069   5.140
  200POPC   C3B 2892  10.453   5.923   5.549
  200POPC   C4B 2893  10.691   6.154   5.832
  201POPC   NC3 2894   8.952   5.623   3.782
  201POPC   PO4 2895   8.476   5.857   4.108
  201POPC   GL1 2896   8.802   5.576   4.307
  201POPC   GL2 2897   9.154   5.605   4.324
  201POPC   C1A 2898   8.921   5.618   4.784
  201POPC   D2A 2899   8.785   5.923   5.129
  201POPC   C3A 2900   8.650   5.764   5.564
  201POPC   C4A 2901   8.524   5.780   6.012
  201POPC   C1B 2902   9.315   5.900   4.615
  201POPC   C2B 2903   9.354   5.954   5.055
  201POPC   C3B 2904   9.155   5.867   5.466
  201POPC   C4B 2905   9.008   5.977   5.878
  202POPC   NC3 2906   5.995   1.596   3.836
  202POPC   PO4 2907   5.829   0.981   3.999
  202POPC   GL1 2908   5.639   1.074   4.367
  202POPC   GL2 2909   5.649   1.418   4.248
  202POPC   C1A 2910   5.561   0.944   4.788
  202POPC   D2A 2911   5.640   0.705   5.175
  202POPC   C3A 2912   5.568   0.964   5.546
  202POPC   C4A 2913   5.405   1.368   5.624
  202POPC   C1B 2914   5.996   1.369   4.562
  202POPC   C2B 2915   5.959   1.251   4.994
  202POPC   C3B 2916   5.872   1.419   5.392
  202POPC   C4B 2917   5.921   1.273   5.808
  203POPC   NC3 2918   6.955   1.546   4.011
  203POPC   PO4 2919   6.920   2.223   3.924
  203POPC   GL1 2920   7.234   1.968   4.289
  203POPC   GL2 2921   7.595   2.058   4.449
  203POPC   C1A 2922   7.386   1.662   4.656
  203POPC   D2A 2923   7.533   1.656   5.103
  203POPC   C3A 2924   7.286   1.710   5.513
  203POPC   C4A 2925   6.927   1.860   5.752
  203POPC   C1B 2926   7.543   2.203   4.865
  203POPC   C2B 2927   7.465   2.143   5.293
  203POPC   C3B 2928   7.260   2.241   5.659
  203POPC   C4B 2929   7.444   2.363   6.025
  204POPC   NC3 2930   7.945   1.561   3.866
  204POPC   PO4 2931   7.898   0.891   4.007
  204POPC   GL1 2932   8.286   1.037   4.261
  204POPC   GL2 2933   8.407   1.360   4.198
  204POPC   C1A 2934   8.457   1.105   4.674
  204POPC   D2A 2935   8.481   0.928   5.074
  204POPC   C3A 2936   8.470   1.199   5.404
  204POPC   C4A 2937   8.557   1.248   5.831
  204POPC   C1B 2938   8.053   1.374   4.532
  204POPC   C2B 2939   8.112   1.380   4.997
  204POPC   C3B 2940   7.987   1.357   5.441
  204POPC   C4B 2941   8.124   1.557   5.833
  205POPC   NC3 2942   8.649   9.195   3.879
  205POPC   PO4 2943   8.956   8.609   3.867
  205POPC   GL1 2944   8.971   8.887   4.268
  205POPC   GL2 2945   8.670   8.981   4.430
  205POPC   C1A 2946   9.065   9.152   4.667
  205POPC   D2A 2947   8.806   9.080   5.015
  205POPC   C3A 2948   8.945   9.042   5.446
  205POPC   C4A 2949   8.667   9.025   5.794
  205POPC   C1B 2950   8.902   8.669   4.725
  205POPC   C2B 2951   8.876   8.580   5.182
  205POPC   C3B 2952   8.908   8.552   5.652
  205POPC   C4B 2953   8.887   8.674   6.090
  206POPC   NC3 2954   4.749  10.944   3.932
  206POPC   PO4 2955   4.129  11.154   3.687
  206POPC   GL1 2956   4.323  11.144   4.149
  206POPC   GL2 2957   4.101  11.070   4.467
  206POPC   C1A 2958   4.535  11.266   4.577
  206POPC   D2A 2959   4.332  11.104   4.949
  206POPC   C3A 2960   4.605  11.139   5.288
  206POPC   C4A 2961   4.616  11.168   5.705
  206POPC   C1B 2962   3.826  11.213   4.758
  206POPC   C2B 2963   3.926  11.408   5.145
  206POPC   C3B 2964   4.128  11.195   5.470
  206POPC   C4B 2965   4.030  10.922   5.803
  207POPC   NC3 2966   0.498  10.797   3.905
  207POPC   PO4 2967   0.714  11.496   3.992
  207POPC   GL1 2968   0.661  11.159   4.218
  207POPC   GL2 2969   0.304  11.153   4.206
  207POPC   C1A 2970   0.745  11.048   4.630
  207POPC   D2A 2971   0.906  11.305   4.976
  207POPC   C3A 2972   0.726  11.187   5.389
  207POPC   C4A 2973   0.765  11.346   5.816
  207POPC   C1B 2974   0.234  11.141   4.624
  207POPC   C2B 2975   0.409  10.988   5.004
  207POPC   C3B 2976   0.198  11.048   5.343
  207POPC   C4B 2977   0.333  11.065   5.731
  208POPC   NC3 2978   8.735  10.478   3.923
  208POPC   PO4 2979   9.335  10.499   3.717
  208POPC   GL1 2980   9.171  10.581   4.293
  208POPC   GL2 2981   8.884  10.389   4.409
  208POPC   C1A 2982   8.921  10.693   4.773
  208POPC   D2A 2983   8.564  10.703   5.070
  208POPC   C3A 2984   8.680  10.742   5.502
  208POPC   C4A 2985   9.089  10.564   5.598
  208POPC   C1B 2986   9.282  10.318   4.701
  208POPC   C2B 2987   9.204  10.378   5.127
  208POPC   C3B 2988   8.785  10.293   5.281
  208POPC   C4B 2989   8.560  10.254   5.652
  209POPC   NC3 2990   5.077   0.146   4.110
  209POPC   PO4 2991   5.219  10.990   3.843
  209POPC   GL1 2992   5.322  11.217   4.226
  209POPC   GL2 2993   4.978  11.172   4.357
  209POPC   C1A 2994   5.252  11.463   4.675
  209POPC   D2A 2995   4.945  11.379   4.999
  209POPC   C3A 2996   4.955   0.012   5.453
  209POPC   C4A 2997   5.129  11.432   5.892
  209POPC   C1B 2998   4.851  10.904   4.753
  209POPC   C2B 2999   4.997  10.820   5.189
  209POPC   C3B 3000   5.152  10.998   5.605
  209POPC   C4B 3001   4.931  10.964   6.040
  210POPC   NC3 3002   0.550  10.186   3.650
  210POPC   PO4 3003  11.484  10.076   3.956
  210POPC   GL1 3004   0.365  10.232   4.250
  210POPC   GL2 3005   0.429  10.550   4.321
  210POPC   C1A 3006   0.287  10.113   4.712
  210POPC   D2A 3007   0.096  10.070   5.142
  210POPC   C3A 3008   0.355  10.208   5.499
  210POPC   C4A 3009   0.268  10.390   5.928
  210POPC   C1B 3010   0.298  10.616   4.684
  210POPC   C2B 3011   0.466  10.466   5.059
  210POPC   C3B 3012   0.568  10.682   5.411
  210POPC   C4B 3013   0.660  10.688   5.806
  211POPC   NC3 3014   2.130   1.602   3.838
  211POPC   PO4 3015   2.176   2.334   3.856
  211POPC   GL1 3016   2.034   2.265   4.225
  211POPC   GL2 3017   1.909   1.956   4.193
  211POPC   C1A 3018   2.217   2.373   4.612
  211POPC   D2A 3019   2.078   2.213   5.012
  211POPC   C3A 3020   2.294   2.315   5.385
  211POPC   C4A 3021   2.211   2.158   5.773
  211POPC   C1B 3022   1.765   1.962   4.628
  211POPC   C2B 3023   1.678   1.853   5.061
  211POPC   C3B 3024   1.871   1.919   5.456
  211POPC   C4B 3025   1.695   2.177   5.754
  212POPC   NC3 3026  10.947   8.829   3.725
  212POPC   PO4 3027   0.006   8.617   3.802
  212POPC   GL1 3028  11.408   8.835   4.193
  212POPC   GL2 3029  11.139   9.062   4.227
  212POPC   C1A 3030  11.249   8.769   4.633
  212POPC   D2A 3031  11.211   8.911   5.027
  212POPC   C3A 3032  11.385   8.648   5.308
  212POPC   C4A 3033  11.232   8.778   5.682
  212POPC   C1B 3034  11.083   9.258   4.660
  212POPC   C2B 3035  10.808   9.235   5.035
  212POPC   C3B 3036  11.045   9.211   5.447
  212POPC   C4B 3037  10.949   9.155   5.854
  213POPC   NC3 3038   7.093  10.976   3.903
  213POPC   PO4 3039   7.832  11.072   3.847
  213POPC   GL1 3040   7.520  10.953   4.166
  213POPC   GL2 3041   7.447  11.237   4.354
  213POPC   C1A 3042   7.548  10.820   4.607
  213POPC   D2A 3043   7.478  10.824   5.062
  213POPC   C3A 3044   7.673  10.790   5.436
  213POPC   C4A 3045   7.499  10.943   5.809
  213POPC   C1B 3046   7.141  11.175   4.649
  213POPC   C2B 3047   7.119  11.346   5.013
  213POPC   C3B 3048   7.074  11.133   5.378
  213POPC   C4B 3049   7.222  11.357   5.713
  214POPC   NC3 3050   3.897   1.432   4.160
  214POPC   PO4 3051   3.316   1.603   3.875
  214POPC   GL1 3052   3.161   1.407   4.256
  214POPC   GL2 3053   3.107   1.061   4.160
  214POPC   C1A 3054   3.365   1.385   4.680
  214POPC   D2A 3055   3.744   1.354   4.925
  214POPC   C3A 3056   3.717   1.472   5.342
  214POPC   C4A 3057   3.512   1.561   5.687
  214POPC   C1B 3058   3.268   0.901   4.534
  214POPC   C2B 3059   3.438   0.891   4.945
  214POPC   C3B 3060   3.382   0.881   5.392
  214POPC   C4B 3061   3.472   1.036   5.764
  215POPC   NC3 3062   9.718   6.629   4.021
  215POPC   PO4 3063  10.081   6.058   3.890
  215POPC   GL1 3064   9.893   6.248   4.298
  215POPC   GL2 3065   9.503   6.312   4.364
  215POPC   C1A 3066   9.837   6.498   4.696
  215POPC   D2A 3067   9.647   6.501   5.104
  215POPC   C3A 3068   9.857   6.715   5.476
  215POPC   C4A 3069   9.849   6.455   5.842
  215POPC   C1B 3070   9.371   6.706   4.650
  215POPC   C2B 3071   9.399   6.923   5.073
  215POPC   C3B 3072   9.359   6.692   5.503
  215POPC   C4B 3073   9.385   6.649   5.929
  216POPC   NC3 3074   4.438   9.007   4.020
  216POPC   PO4 3075   3.871   9.151   3.863
  216POPC   GL1 3076   3.877   8.981   4.278
  216POPC   GL2 3077   4.204   9.022   4.463
  216POPC   C1A 3078   3.797   8.951   4.738
  216POPC   D2A 3079   4.115   9.022   5.026
  216POPC   C3A 3080   4.099   8.880   5.468
  216POPC   C4A 3081   4.179   8.478   5.703
  216POPC   C1B 3082   4.544   8.914   4.747
  216POPC   C2B 3083   4.557   8.759   5.188
  216POPC   C3B 3084   4.590   8.781   5.644
  216POPC   C4B 3085   4.747   8.922   6.036
  217POPC   NC3 3086   1.135   4.376   3.891
  217POPC   PO4 3087   1.704   4.773   4.085
  217POPC   GL1 3088   1.380   4.448   4.309
  217POPC   GL2 3089   1.144   4.063   4.275
  217POPC   C1A 3090   1.188   4.372   4.664
  217POPC   D2A 3091   1.365   4.511   4.955
  217POPC   C3A 3092   1.321   4.549   5.350
  217POPC   C4A 3093   1.440   4.630   5.757
  217POPC   C1B 3094   1.095   3.888   4.705
  217POPC   C2B 3095   1.262   4.037   5.161
  217POPC   C3B 3096   1.233   4.143   5.629
  217POPC   C4B 3097   1.439   3.997   6.017
  218POPC   NC3 3098   1.744   3.675   3.900
  218POPC   PO4 3099   2.166   3.897   4.237
  218POPC   GL1 3100   1.985   3.603   4.391
  218POPC   GL2 3101   2.190   3.295   4.272
  218POPC   C1A 3102   1.919   3.661   4.824
  218POPC   D2A 3103   1.866   3.885   5.210
  218POPC   C3A 3104   2.144   3.846   5.569
  218POPC   C4A 3105   2.124   3.599   5.933
  218POPC   C1B 3106   1.872   3.180   4.618
  218POPC   C2B 3107   1.994   3.183   5.038
  218POPC   C3B 3108   2.004   3.356   5.452
  218POPC   C4B 3109   1.954   3.114   5.815
  219POPC   NC3 3110  10.612   1.205   3.868
  219POPC   PO4 3111   9.933   1.233   3.946
  219POPC   GL1 3112  10.258   1.121   4.261
  219POPC   GL2 3113  10.643   1.108   4.355
  219POPC   C1A 3114  10.280   1.123   4.705
  219POPC   D2A 3115   9.986   1.241   5.019
  219POPC   C3A 3116   9.990   1.589   5.296
  219POPC   C4A 3117   9.958   1.421   5.698
  219POPC   C1B 3118  10.797   1.091   4.770
  219POPC   C2B 3119  10.585   0.947   5.130
  219POPC   C3B 3120  10.326   1.078   5.469
  219POPC   C4B 3121  10.546   1.088   5.874
  220POPC   NC3 3122   8.681   3.588   3.889
  220POPC   PO4 3123   9.246   3.300   3.750
  220POPC   GL1 3124   9.186   3.319   4.214
  220POPC   GL2 3125   8.868   3.414   4.333
  220POPC   C1A 3126   9.293   3.541   4.626
  220POPC   D2A 3127   9.256   3.830   5.030
  220POPC   C3A 3128   9.127   3.624   5.425
  220POPC   C4A 3129   9.010   3.397   5.798
  220POPC   C1B 3130   8.601   3.340   4.697
  220POPC   C2B 3131   8.533   3.217   5.133
  220POPC   C3B 3132   8.556   3.382   5.550
  220POPC   C4B 3133   8.382   3.646   5.881
  221POPC   NC3 3134   0.833   0.478   3.859
  221POPC   PO4 3135   1.381   0.206   3.688
  221POPC   GL1 3136   1.183   0.314   4.172
  221POPC   GL2 3137   1.143   0.664   4.325
  221POPC   C1A 3138   1.005   0.267   4.600
  221POPC   D2A 3139   0.950   0.421   5.003
  221POPC   C3A 3140   0.820   0.190   5.323
  221POPC   C4A 3141   1.003   0.300   5.687
  221POPC   C1B 3142   1.355   0.626   4.747
  221POPC   C2B 3143   1.572   0.631   5.169
  221POPC   C3B 3144   1.572   0.381   5.575
  221POPC   C4B 3145   1.364   0.499   5.979
  222POPC   NC3 3146   1.528   8.817   4.118
  222POPC   PO4 3147   0.874   8.856   3.936
  222POPC   GL1 3148   1.045   8.681   4.286
  222POPC   GL2 3149   1.105   9.020   4.398
  222POPC   C1A 3150   1.219   8.530   4.684
  222POPC   D2A 3151   1.025   8.622   5.087
  222POPC   C3A 3152   1.249   8.517   5.472
  222POPC   C4A 3153   1.374   8.664   5.879
  222POPC   C1B 3154   1.290   9.018   4.799
  222POPC   C2B 3155   1.367   8.994   5.220
  222POPC   C3B 3156   1.038   8.987   5.487
  222POPC   C4B 3157   1.153   9.138   5.855
  223POPC   NC3 3158   9.953   0.694   3.870
  223POPC   PO4 3159   9.790   0.004   3.834
  223POPC   GL1 3160   9.738   0.298   4.186
  223POPC   GL2 3161   9.399   0.328   4.210
  223POPC   C1A 3162   9.650   0.284   4.648
  223POPC   D2A 3163   9.874   0.322   5.005
  223POPC   C3A 3164   9.676   0.378   5.368
  223POPC   C4A 3165   9.822   0.440   5.756
  223POPC   C1B 3166   9.248   0.581   4.541
  223POPC   C2B 3167   9.277   0.464   4.988
  223POPC   C3B 3168   9.258   0.655   5.419
  223POPC   C4B 3169   9.382   0.676   5.827
  224POPC   NC3 3170   8.103   2.954   4.034
  224POPC   PO4 3171   7.865   2.372   3.632
  224POPC   GL1 3172   8.137   2.454   4.055
  224POPC   GL2 3173   7.904   2.473   4.361
  224POPC   C1A 3174   8.423   2.533   4.444
  224POPC   D2A 3175   8.501   2.799   4.833
  224POPC   C3A 3176   8.524   2.745   5.333
  224POPC   C4A 3177   8.378   2.581   5.754
  224POPC   C1B 3178   7.963   2.764   4.699
  224POPC   C2B 3179   8.062   2.977   5.078
  224POPC   C3B 3180   8.050   2.892   5.511
  224POPC   C4B 3181   7.891   2.797   5.916
  225POPC   NC3 3182   7.446   0.959   3.889
  225POPC   PO4 3183   7.522   1.708   3.967
  225POPC   GL1 3184   7.575   1.337   4.282
  225POPC   GL2 3185   7.294   1.077   4.357
  225POPC   C1A 3186   7.606   1.213   4.755
  225POPC   D2A 3187   7.344   1.174   5.136
  225POPC   C3A 3188   7.507   1.131   5.562
  225POPC   C4A 3189   7.623   1.462   5.793
  225POPC   C1B 3190   7.043   1.209   4.706
  225POPC   C2B 3191   6.879   1.420   5.083
  225POPC   C3B 3192   7.002   1.263   5.493
  225POPC   C4B 3193   7.082   0.970   5.835
  226POPC   NC3 3194  10.300   4.854   3.841
  226POPC   PO4 3195  10.817   5.386   3.964
  226POPC   GL1 3196  10.554   5.082   4.228
  226POPC   GL2 3197  10.153   5.008   4.304
  226POPC   C1A 3198  10.614   5.100   4.687
  226POPC   D2A 3199  10.452   5.222   5.089
  226POPC   C3A 3200  10.647   5.272   5.488
  226POPC   C4A 3201  10.421   5.179   5.866
  226POPC   C1B 3202  10.313   4.702   4.569
  226POPC   C2B 3203  10.330   4.725   5.023
  226POPC   C3B 3204  10.240   4.916   5.436
  226POPC   C4B 3205  10.028   4.801   5.779
  227POPC   NC3 3206   2.109   4.235   3.942
  227POPC   PO4 3207   1.472   4.062   3.844
  227POPC   GL1 3208   1.652   4.003   4.299
  227POPC   GL2 3209   1.857   4.272   4.388
  227POPC   C1A 3210   1.602   4.078   4.782
  227POPC   D2A 3211   1.793   4.373   5.161
  227POPC   C3A 3212   1.737   4.216   5.598
  227POPC   C4A 3213   1.940   4.083   5.996
  227POPC   C1B 3214   2.092   4.188   4.780
  227POPC   C2B 3215   2.288   4.138   5.144
  227POPC   C3B 3216   2.230   4.349   5.501
  227POPC   C4B 3217   2.378   4.344   5.927
  228POPC   NC3 3218  10.993   4.208   3.930
  228POPC   PO4 3219  11.460   4.685   3.894
  228POPC   GL1 3220   0.044   4.516   4.279
  228POPC   GL2 3221  11.177   4.545   4.331
  228POPC   C1A 3222   0.225   4.424   4.681
  228POPC   D2A 3223  11.495   4.542   5.044
  228POPC   C3A 3224  11.372   4.320   5.411
  228POPC   C4A 3225  11.242   4.510   5.806
  228POPC   C1B 3226  11.275   4.167   4.579
  228POPC   C2B 3227  11.389   4.000   4.983
  228POPC   C3B 3228  11.276   3.810   5.394
  228POPC   C4B 3229  11.171   4.005   5.784
  229POPC   NC3 3230   3.486   5.794   4.012
  229POPC   PO4 3231   3.961   5.649   4.255
  229POPC   GL1 3232   3.636   5.814   4.546
  229POPC   GL2 3233   3.374   6.045   4.442
  229POPC   C1A 3234   3.522   5.924   5.000
  229POPC   D2A 3235   3.571   5.790   5.469
  229POPC   C3A 3236   3.660   6.126   5.794
  229POPC   C4A 3237   4.001   6.162   6.081
  229POPC   C1B 3238   3.151   5.707   4.682
  229POPC   C2B 3239   3.086   5.681   5.134
  229POPC   C3B 3240   3.130   5.576   5.571
  229POPC   C4B 3241   3.230   5.881   5.859
  230POPC   NC3 3242   9.094   2.906   3.907
  230POPC   PO4 3243   8.515   3.159   4.011
  230POPC   GL1 3244   8.770   2.896   4.298
  230POPC   GL2 3245   8.867   2.524   4.166
  230POPC   C1A 3246   9.021   3.046   4.652
  230POPC   D2A 3247   9.023   3.338   5.005
  230POPC   C3A 3248   8.980   3.102   5.385
  230POPC   C4A 3249   8.748   2.956   5.754
  230POPC   C1B 3250   8.957   2.527   4.615
  230POPC   C2B 3251   8.954   2.685   5.045
  230POPC   C3B 3252   9.024   2.593   5.485
  230POPC   C4B 3253   8.922   2.506   5.927
  231POPC   NC3 3254  10.062   3.111   4.048
  231POPC   PO4 3255  10.644   2.686   3.926
  231POPC   GL1 3256  10.394   2.681   4.264
  231POPC   GL2 3257  10.619   2.468   4.418
  231POPC   C1A 3258  10.337   2.833   4.670
  231POPC   D2A 3259  10.347   2.685   5.103
  231POPC   C3A 3260  10.422   2.936   5.469
  231POPC   C4A 3261  10.216   2.818   5.838
  231POPC   C1B 3262  10.752   2.548   4.812
  231POPC   C2B 3263  10.748   2.383   5.204
  231POPC   C3B 3264  10.753   2.537   5.633
  231POPC   C4B 3265  10.687   2.813   5.989
  232POPC   NC3 3266   1.783   7.449   3.913
  232POPC   PO4 3267   2.409   7.690   3.944
  232POPC   GL1 3268   2.128   7.519   4.270
  232POPC   GL2 3269   2.080   7.157   4.213
  232POPC   C1A 3270   2.069   7.344   4.678
  232POPC   D2A 3271   1.778   7.384   4.964
  232POPC   C3A 3272   2.018   7.552   5.283
  232POPC   C4A 3273   2.251   7.674   5.662
  232POPC   C1B 3274   1.683   7.073   4.504
  232POPC   C2B 3275   1.635   6.875   4.917
  232POPC   C3B 3276   1.812   7.007   5.318
  232POPC   C4B 3277   1.965   7.241   5.687
  233POPC   NC3 3278   0.410   8.793   3.977
  233POPC   PO4 3279   0.054   8.332   4.287
  233POPC   GL1 3280   0.275   8.698   4.528
  233POPC   GL2 3281   0.578   8.906   4.428
  233POPC   C1A 3282   0.202   9.044   4.853
  233POPC   D2A 3283   0.064   9.149   5.303
  233POPC   C3A 3284   0.233   8.869   5.623
  233POPC   C4A 3285   0.183   8.609   5.975
  233POPC   C1B 3286   0.756   8.994   4.816
  233POPC   C2B 3287   0.580   9.146   5.219
  233POPC   C3B 3288   0.600   9.200   5.663
  233POPC   C4B 3289   0.702   8.847   5.909
  234POPC   NC3 3290   3.442   8.981   3.925
  234POPC   PO4 3291   3.230   8.408   4.057
  234POPC   GL1 3292   3.389   8.679   4.385
  234POPC   GL2 3293   3.386   9.029   4.441
  234POPC   C1A 3294   3.470   8.570   4.819
  234POPC   D2A 3295   3.709   8.677   5.195
  234POPC   C3A 3296   3.474   8.697   5.600
  234POPC   C4A 3297   3.498   8.473   6.013
  234POPC   C1B 3298   3.307   9.054   4.885
  234POPC   C2B 3299   3.624   9.174   5.210
  234POPC   C3B 3300   3.665   9.172   5.642
  234POPC   C4B 3301   3.398   9.020   6.028
  235POPC   NC3 3302   2.564   2.607   3.807
  235POPC   PO4 3303   3.111   2.256   3.853
  235POPC   GL1 3304   2.907   2.575   4.194
  235POPC   GL2 3305   2.724   2.927   4.255
  235POPC   C1A 3306   2.715   2.591   4.626
  235POPC   D2A 3307   2.873   2.700   5.050
  235POPC   C3A 3308   2.672   2.688   5.439
  235POPC   C4A 3309   2.753   2.784   5.874
  235POPC   C1B 3310   2.758   3.087   4.728
  235POPC   C2B 3311   2.508   3.130   5.148
  235POPC   C3B 3312   2.442   3.122   5.622
  235POPC   C4B 3313   2.409   3.184   6.066
  236POPC   NC3 3314   1.807   0.400   3.774
  236POPC   PO4 3315   1.595  11.418   4.146
  236POPC   GL1 3316   1.615   0.280   4.422
  236POPC   GL2 3317   1.662   0.613   4.306
  236POPC   C1A 3318   1.769   0.307   4.824
  236POPC   D2A 3319   2.117   0.098   4.973
  236POPC   C3A 3320   1.977  11.474   5.352
  236POPC   C4A 3321   2.144   0.140   5.707
  236POPC   C1B 3322   2.083   0.546   4.508
  236POPC   C2B 3323   2.180   0.627   4.951
  236POPC   C3B 3324   2.064   0.536   5.375
  236POPC   C4B 3325   2.395   0.596   5.678
  237POPC   NC3 3326   1.865   2.683   3.861
  237POPC   PO4 3327   2.360   3.018   3.801
  237POPC   GL1 3328   2.247   2.763   4.204
  237POPC   GL2 3329   1.902   2.738   4.366
  237POPC   C1A 3330   2.298   2.899   4.639
  237POPC   D2A 3331   2.349   2.672   5.011
  237POPC   C3A 3332   2.122   2.804   5.372
  237POPC   C4A 3333   2.276   2.670   5.773
  237POPC   C1B 3334   1.853   2.683   4.829
  237POPC   C2B 3335   1.477   2.539   5.063
  237POPC   C3B 3336   1.433   2.536   5.497
  237POPC   C4B 3337   1.785   2.653   5.751
  238POPC   NC3 3338   0.225   0.144   4.062
  238POPC   PO4 3339   0.423   0.746   3.850
  238POPC   GL1 3340   0.630   0.696   4.273
  238POPC   GL2 3341   0.616   0.366   4.305
  238POPC   C1A 3342   0.565   0.592   4.733
  238POPC   D2A 3343   0.440   0.489   5.140
  238POPC   C3A 3344   0.669   0.666   5.464
  238POPC   C4A 3345   0.363   0.820   5.680
  238POPC   C1B 3346   0.543   0.058   4.647
  238POPC   C2B 3347   0.404  11.486   5.056
  238POPC   C3B 3348   0.367   0.032   5.499
  238POPC   C4B 3349   0.498   0.315   5.804
  239POPC   NC3 3350   1.968   9.573   3.868
  239POPC   PO4 3351   2.612   9.432   4.110
  239POPC   GL1 3352   2.188   9.531   4.350
  239POPC   GL2 3353   1.808   9.623   4.322
  239POPC   C1A 3354   2.017   9.628   4.766
  239POPC   D2A 3355   2.172   9.560   5.128
  239POPC   C3A 3356   2.242   9.929   5.356
  239POPC   C4A 3357   2.042   9.680   5.684
  239POPC   C1B 3358   1.636   9.335   4.615
  239POPC   C2B 3359   1.524   9.441   5.006
  239POPC   C3B 3360   1.673   9.468   5.389
  239POPC   C4B 3361   1.520   9.535   5.766
  240POPC   NC3 3362   0.494   1.928   4.141
  240POPC   PO4 3363   0.044   2.343   3.834
  240POPC   GL1 3364   0.222   2.332   4.319
  240POPC   GL2 3365   0.568   2.230   4.524
  240POPC   C1A 3366   0.175   2.357   4.791
  240POPC   D2A 3367   0.261   2.406   5.230
  240POPC   C3A 3368   0.232   2.008   5.470
  240POPC   C4A 3369   0.113   1.927   5.902
  240POPC   C1B 3370   0.383   1.886   4.796
  240POPC   C2B 3371   0.503   1.656   5.188
  240POPC   C3B 3372   0.744   1.865   5.534
  240POPC   C4B 3373   0.625   2.261   5.732
  241POPC   NC3 3374   9.126   7.432   3.957
  241POPC   PO4 3375   8.654   7.788   4.075
  241POPC   GL1 3376   8.889   7.568   4.409
  241POPC   GL2 3377   9.034   7.222   4.426
  241POPC   C1A 3378   8.840   7.630   4.827
  241POPC   D2A 3379   8.741   7.517   5.244
  241POPC   C3A 3380   8.976   7.378   5.598
  241POPC   C4A 3381   8.855   7.305   6.036
  241POPC   C1B 3382   8.963   7.129   4.894
  241POPC   C2B 3383   8.954   6.950   5.333
  241POPC   C3B 3384   8.929   6.841   5.798
  241POPC   C4B 3385   9.061   6.875   6.259
  242POPC   NC3 3386   2.865  10.924   3.950
  242POPC   PO4 3387   2.304  11.393   3.845
  242POPC   GL1 3388   2.488  11.176   4.221
  242POPC   GL2 3389   2.842  11.243   4.339
  242POPC   C1A 3390   2.435  11.291   4.636
  242POPC   D2A 3391   2.694  11.372   4.998
  242POPC   C3A 3392   2.497  11.332   5.400
  242POPC   C4A 3393   2.738  11.092   5.665
  242POPC   C1B 3394   2.868  10.954   4.647
  242POPC   C2B 3395   2.976  10.936   5.070
  242POPC   C3B 3396   3.165  10.850   5.448
  242POPC   C4B 3397   3.064  10.756   5.832
  243POPC   NC3 3398   6.399   2.173   3.930
  243POPC   PO4 3399   6.442   1.468   3.948
  243POPC   GL1 3400   6.439   1.740   4.284
  243POPC   GL2 3401   6.722   1.968   4.332
  243POPC   C1A 3402   6.536   1.672   4.718
  243POPC   D2A 3403   6.338   1.590   5.091
  243POPC   C3A 3404   6.488   1.805   5.450
  243POPC   C4A 3405   6.213   1.729   5.800
  243POPC   C1B 3406   6.972   1.925   4.748
  243POPC   C2B 3407   6.969   1.964   5.200
  243POPC   C3B 3408   6.765   2.255   5.480
  243POPC   C4B 3409   6.506   2.180   5.835
  244POPC   NC3 3410   9.505   1.367   3.782
  244POPC   PO4 3411   9.473   0.671   3.791
  244POPC   GL1 3412   9.597   0.849   4.217
  244POPC   GL2 3413   9.356   1.113   4.346
  244POPC   C1A 3414   9.736   0.971   4.650
  244POPC   D2A 3415   9.626   0.814   5.050
  244POPC   C3A 3416   9.810   0.948   5.407
  244POPC   C4A 3417   9.822   0.936   5.818
  244POPC   C1B 3418   9.412   1.357   4.769
  244POPC   C2B 3419   9.519   1.322   5.206
  244POPC   C3B 3420   9.441   1.229   5.620
  244POPC   C4B 3421   9.521   1.380   6.033
  245POPC   NC3 3422   8.033   8.659   3.943
  245POPC   PO4 3423   8.171   9.220   3.766
  245POPC   GL1 3424   8.147   9.000   4.265
  245POPC   GL2 3425   7.924   9.190   4.435
  245POPC   C1A 3426   8.272   9.034   4.750
  245POPC   D2A 3427   7.986   9.007   5.077
  245POPC   C3A 3428   8.277   9.015   5.438
  245POPC   C4A 3429   8.173   9.155   5.851
  245POPC   C1B 3430   7.886   8.719   4.624
  245POPC   C2B 3431   7.745   8.514   5.015
  245POPC   C3B 3432   7.891   8.447   5.442
  245POPC   C4B 3433   8.174   8.634   5.759
  246POPC   NC3 3434   7.413   8.065   3.917
  246POPC   PO4 3435   7.095   7.617   4.026
  246POPC   GL1 3436   7.172   7.959   4.363
  246POPC   GL2 3437   7.256   8.328   4.323
  246POPC   C1A 3438   7.184   8.082   4.804
  246POPC   D2A 3439   7.501   8.071   5.138
  246POPC   C3A 3440   7.360   7.955   5.578
  246POPC   C4A 3441   7.283   7.911   6.038
  246POPC   C1B 3442   7.364   8.571   4.664
  246POPC   C2B 3443   7.212   8.529   5.059
  246POPC   C3B 3444   7.368   8.452   5.451
  246POPC   C4B 3445   7.127   8.360   5.832
  247POPC   NC3 3446   4.304   2.304   3.993
  247POPC   PO4 3447   4.161   1.661   3.849
  247POPC   GL1 3448   4.202   1.829   4.291
  247POPC   GL2 3449   4.299   2.123   4.491
  247POPC   C1A 3450   3.978   1.787   4.703
  247POPC   D2A 3451   4.011   2.077   5.047
  247POPC   C3A 3452   4.098   1.825   5.375
  247POPC   C4A 3453   4.048   1.600   5.746
  247POPC   C1B 3454   4.471   1.778   4.788
  247POPC   C2B 3455   4.592   1.617   5.198
  247POPC   C3B 3456   4.574   1.785   5.595
  247POPC   C4B 3457   4.321   2.185   5.651
  248POPC   NC3 3458  10.837   0.383   4.225
  248POPC   PO4 3459  10.440   0.763   3.810
  248POPC   GL1 3460  10.416   0.643   4.242
  248POPC   GL2 3461  10.273   0.304   4.272
  248POPC   C1A 3462  10.520   0.602   4.719
  248POPC   D2A 3463  10.411   0.310   5.047
  248POPC   C3A 3464  10.634   0.483   5.391
  248POPC   C4A 3465  10.628   0.288   5.769
  248POPC   C1B 3466  10.044   0.585   4.572
  248POPC   C2B 3467  10.124   0.751   5.006
  248POPC   C3B 3468  10.149   0.585   5.399
  248POPC   C4B 3469  10.283   0.670   5.803
  249POPC   NC3 3470   9.094   0.400   3.824
  249POPC   PO4 3471   8.817  11.283   3.773
  249POPC   GL1 3472   9.011  11.480   4.169
  249POPC   GL2 3473   8.845   0.263   4.286
  249POPC   C1A 3474   9.167   0.067   4.646
  249POPC   D2A 3475   8.981   0.068   5.149
  249POPC   C3A 3476   9.228   0.152   5.556
  249POPC   C4A 3477   9.168   0.243   6.014
  249POPC   C1B 3478   8.781   0.360   4.748
  249POPC   C2B 3479   8.817   0.553   5.166
  249POPC   C3B 3480   8.798   0.413   5.546
  249POPC   C4B 3481   8.877   0.676   5.801
  250POPC   NC3 3482   7.782   2.108   3.999
  250POPC   PO4 3483   8.367   1.763   3.866
  250POPC   GL1 3484   8.131   1.799   4.277
  250POPC   GL2 3485   8.181   2.067   4.397
  250POPC   C1A 3486   7.941   1.812   4.748
  250POPC   D2A 3487   8.100   1.936   5.168
  250POPC   C3A 3488   7.825   1.839   5.489
  250POPC   C4A 3489   7.742   1.962   5.884
  250POPC   C1B 3490   8.133   2.287   4.783
  250POPC   C2B 3491   8.109   2.477   5.174
  250POPC   C3B 3492   7.943   2.354   5.565
  250POPC   C4B 3493   8.233   2.051   5.725
  251POPC   NC3 3494   2.892   8.319   3.779
  251POPC   PO4 3495   2.272   8.503   3.965
  251POPC   GL1 3496   2.362   8.334   4.413
  251POPC   GL2 3497   2.333   7.956   4.447
  251POPC   C1A 3498   2.527   8.322   4.887
  251POPC   D2A 3499   2.867   8.212   5.234
  251POPC   C3A 3500   3.041   8.204   5.695
  251POPC   C4A 3501   2.854   8.242   6.138
  251POPC   C1B 3502   2.361   7.770   4.875
  251POPC   C2B 3503   2.378   8.002   5.283
  251POPC   C3B 3504   2.551   8.076   5.719
  251POPC   C4B 3505   2.439   7.891   6.128
  252POPC   NC3 3506   6.547   3.577   4.007
  252POPC   PO4 3507   6.936   3.440   4.214
  252POPC   GL1 3508   6.642   3.626   4.528
  252POPC   GL2 3509   6.352   3.412   4.487
  252POPC   C1A 3510   6.394   3.653   4.945
  252POPC   D2A 3511   6.328   3.929   5.298
  252POPC   C3A 3512   6.683   3.872   5.584
  252POPC   C4A 3513   6.876   3.466   5.753
  252POPC   C1B 3514   6.634   3.207   4.817
  252POPC   C2B 3515   6.710   3.341   5.249
  252POPC   C3B 3516   6.396   3.465   5.550
  252POPC   C4B 3517   6.062   3.494   5.859
  253POPC   NC3 3518   8.179   9.648   3.969
  253POPC   PO4 3519   7.664  10.075   3.998
  253POPC   GL1 3520   7.904   9.868   4.341
  253POPC   GL2 3521   8.272   9.836   4.431
  253POPC   C1A 3522   7.945  10.034   4.774
  253POPC   D2A 3523   7.890   9.790   5.135
  253POPC   C3A 3524   7.656   9.818   5.523
  253POPC   C4A 3525   7.638   9.925   5.973
  253POPC   C1B 3526   8.171   9.563   4.768
  253POPC   C2B 3527   8.253   9.433   5.149
  253POPC   C3B 3528   7.969   9.424   5.484
  253POPC   C4B 3529   8.072   9.685   5.828
  254POPC   NC3 3530   9.308   9.926   3.703
  254POPC   PO4 3531   9.052   9.350   4.057
  254POPC   GL1 3532   9.259   9.672   4.286
  254POPC   GL2 3533   9.635   9.644   4.353
  254POPC   C1A 3534   9.218   9.669   4.717
  254POPC   D2A 3535   9.262   9.389   5.074
  254POPC   C3A 3536   9.211   9.486   5.499
  254POPC   C4A 3537   9.503   9.550   5.786
  254POPC   C1B 3538   9.837   9.620   4.800
  254POPC   C2B 3539   9.804   9.620   5.271
  254POPC   C3B 3540   9.992   9.453   5.661
  254POPC   C4B 3541   9.925   9.412   6.114
  255POPC   NC3 3542   5.320   0.966   3.990
  255POPC   PO4 3543   5.128   1.527   3.628
  255POPC   GL1 3544   5.125   1.407   4.125
  255POPC   GL2 3545   4.910   1.094   4.265
  255POPC   C1A 3546   5.251   1.346   4.576
  255POPC   D2A 3547   5.399   1.431   5.015
  255POPC   C3A 3548   5.034   1.391   5.280
  255POPC   C4A 3549   4.879   1.337   5.701
  255POPC   C1B 3550   4.790   0.899   4.675
  255POPC   C2B 3551   4.737   0.925   5.137
  255POPC   C3B 3552   5.082   0.905   5.432
  255POPC   C4B 3553   5.167   0.970   5.884
  256POPC   NC3 3554   0.181   8.027   3.967
  256POPC   PO4 3555   0.832   7.779   4.013
  256POPC   GL1 3556   0.555   8.006   4.317
  256POPC   GL2 3557   0.581   8.370   4.228
  256POPC   C1A 3558   0.403   8.072   4.754
  256POPC   D2A 3559   0.176   7.899   5.111
  256POPC   C3A 3560   0.380   8.053   5.484
  256POPC   C4A 3561   0.582   7.834   5.798
  256POPC   C1B 3562   0.713   8.472   4.654
  256POPC   C2B 3563   0.497   8.611   5.036
  256POPC   C3B 3564   0.650   8.597   5.460
  256POPC   C4B 3565   0.614   8.351   5.852
  257POPC   NC3 3566  10.196   7.316   4.217
  257POPC   PO4 3567   9.591   7.476   3.918
  257POPC   GL1 3568   9.702   7.493   4.312
  257POPC   GL2 3569   9.406   7.592   4.377
  257POPC   C1A 3570   9.809   7.303   4.726
  257POPC   D2A 3571  10.057   7.521   5.003
  257POPC   C3A 3572   9.936   7.598   5.405
  257POPC   C4A 3573   9.840   7.411   5.767
  257POPC   C1B 3574   9.335   7.461   4.777
  257POPC   C2B 3575   9.524   7.415   5.163
  257POPC   C3B 3576   9.465   7.180   5.525
  257POPC   C4B 3577   9.331   7.177   5.940
  258POPC   NC3 3578   8.364  11.200   3.646
  258POPC   PO4 3579   8.780  10.893   4.151
  258POPC   GL1 3580   8.816  11.123   4.491
  258POPC   GL2 3581   9.136  11.091   4.466
  258POPC   C1A 3582   8.625  11.350   4.817
  258POPC   D2A 3583   8.597  11.188   5.228
  258POPC   C3A 3584   8.571  11.470   5.548
  258POPC   C4A 3585   8.782  11.415   5.946
  258POPC   C1B 3586   9.103  11.147   4.906
  258POPC   C2B 3587   9.076  10.917   5.223
  258POPC   C3B 3588   9.022  11.167   5.559
  258POPC   C4B 3589   9.270  11.242   5.934
  259POPC   NC3 3590   1.720   6.604   3.748
  259POPC   PO4 3591   2.216   6.232   3.733
  259POPC   GL1 3592   1.933   6.350   4.137
  259POPC   GL2 3593   1.878   6.689   4.224
  259POPC   C1A 3594   1.819   6.323   4.630
  259POPC   D2A 3595   1.716   6.186   5.086
  259POPC   C3A 3596   1.923   6.290   5.519
  259POPC   C4A 3597   2.271   6.403   5.861
  259POPC   C1B 3598   2.074   6.780   4.647
  259POPC   C2B 3599   2.082   6.612   5.077
  259POPC   C3B 3600   2.202   6.746   5.497
  259POPC   C4B 3601   1.875   6.750   5.798
  260POPC   NC3 3602  11.173   5.675   3.875
  260POPC   PO4 3603  10.769   6.189   3.991
  260POPC   GL1 3604  10.928   5.852   4.297
  260POPC   GL2 3605  11.288   5.725   4.357
  260POPC   C1A 3606  10.942   5.709   4.739
  260POPC   D2A 3607  10.707   5.660   5.123
  260POPC   C3A 3608  10.914   5.744   5.496
  260POPC   C4A 3609  10.783   5.582   5.874
  260POPC   C1B 3610  11.456   5.906   4.734
  260POPC   C2B 3611  11.336   5.955   5.159
  260POPC   C3B 3612  11.412   5.837   5.586
  260POPC   C4B 3613  11.174   5.873   5.975
  261POPC   NC3 3614   5.084   9.252   4.011
  261POPC   PO4 3615   5.182   9.965   3.854
  261POPC   GL1 3616   5.164   9.825   4.265
  261POPC   GL2 3617   5.235   9.514   4.426
  261POPC   C1A 3618   4.981   9.894   4.660
  261POPC   D2A 3619   4.911   9.718   5.042
  261POPC   C3A 3620   4.942   9.932   5.395
  261POPC   C4A 3621   5.023   9.718   5.779
  261POPC   C1B 3622   4.831   9.369   4.677
  261POPC   C2B 3623   4.602   9.290   5.110
  261POPC   C3B 3624   4.684   9.281   5.587
  261POPC   C4B 3625   4.683   9.428   6.041
  262POPC   NC3 3626  10.890   6.643   3.957
  262POPC   PO4 3627  11.354   7.000   3.985
  262POPC   GL1 3628  11.220   6.792   4.332
  262POPC   GL2 3629  11.219   6.428   4.286
  262POPC   C1A 3630  11.312   6.717   4.732
  262POPC   D2A 3631  11.183   6.532   5.073
  262POPC   C3A 3632  11.196   6.760   5.441
  262POPC   C4A 3633  11.320   7.021   5.766
  262POPC   C1B 3634  11.046   6.228   4.643
  262POPC   C2B 3635  10.874   6.133   5.034
  262POPC   C3B 3636  11.024   6.234   5.453
  262POPC   C4B 3637  11.183   6.351   5.826
  263POPC   NC3 3638  11.118   7.416   3.843
  263POPC   PO4 3639  10.549   6.933   3.769
  263POPC   GL1 3640  10.861   7.113   4.160
  263POPC   GL2 3641  11.097   7.394   4.329
  263POPC   C1A 3642  10.949   7.076   4.684
  263POPC   D2A 3643  10.836   7.003   5.149
  263POPC   C3A 3644  10.827   7.171   5.577
  263POPC   C4A 3645  10.886   7.033   6.019
  263POPC   C1B 3646  11.428   7.232   4.622
  263POPC   C2B 3647  11.336   7.136   5.068
  263POPC   C3B 3648  11.288   7.401   5.443
  263POPC   C4B 3649  11.085   7.501   5.879
  264POPC   NC3 3650   5.196  10.415   3.709
  264POPC   PO4 3651   5.840  10.399   3.929
  264POPC   GL1 3652   5.876  10.507   4.348
  264POPC   GL2 3653   6.024  10.196   4.355
  264POPC   C1A 3654   5.719  10.670   4.772
  264POPC   D2A 3655   5.513  10.770   5.198
  264POPC   C3A 3656   5.653  10.593   5.602
  264POPC   C4A 3657   5.733  10.670   6.047
  264POPC   C1B 3658   5.850  10.152   4.764
  264POPC   C2B 3659   5.698  10.290   5.130
  264POPC   C3B 3660   5.832  10.124   5.485
  264POPC   C4B 3661   5.845  10.202   5.899
  265POPC   NC3 3662   0.205   3.425   4.008
  265POPC   PO4 3663  11.127   3.768   3.954
  265POPC   GL1 3664  11.269   3.483   4.260
  265POPC   GL2 3665  10.982   3.338   4.403
  265POPC   C1A 3666  11.416   3.313   4.661
  265POPC   D2A 3667  11.179   3.269   5.056
  265POPC   C3A 3668  11.394   3.290   5.464
  265POPC   C4A 3669  11.439   3.162   5.897
  265POPC   C1B 3670  11.079   3.694   4.682
  265POPC   C2B 3671  10.899   3.697   5.063
  265POPC   C3B 3672  10.851   3.493   5.440
  265POPC   C4B 3673  11.093   3.516   5.808
  266POPC   NC3 3674   1.181  11.372   3.947
  266POPC   PO4 3675   1.319  10.717   3.824
  266POPC   GL1 3676   1.240  10.960   4.272
  266POPC   GL2 3677   1.128  11.301   4.427
  266POPC   C1A 3678   1.245  10.921   4.761
  266POPC   D2A 3679   1.005  10.817   5.163
  266POPC   C3A 3680   1.112  10.914   5.630
  266POPC   C4A 3681   1.476  10.865   5.943
  266POPC   C1B 3682   1.374  11.466   4.754
  266POPC   C2B 3683   1.359   0.140   5.133
  266POPC   C3B 3684   1.212  11.390   5.442
  266POPC   C4B 3685   1.307  11.384   5.856
  267POPC   NC3 3686   1.490   5.000   3.763
  267POPC   PO4 3687   0.932   5.375   3.744
  267POPC   GL1 3688   1.076   5.362   4.196
  267POPC   GL2 3689   1.306   5.093   4.233
  267POPC   C1A 3690   1.273   5.410   4.634
  267POPC   D2A 3691   1.106   5.385   5.076
  267POPC   C3A 3692   1.334   5.448   5.456
  267POPC   C4A 3693   1.541   5.151   5.759
  267POPC   C1B 3694   1.220   4.890   4.637
  267POPC   C2B 3695   1.004   4.877   5.045
  267POPC   C3B 3696   1.085   4.981   5.480
  267POPC   C4B 3697   0.975   4.854   5.892
  268POPC   NC3 3698   1.162   6.763   4.034
  268POPC   PO4 3699   1.490   6.201   3.821
  268POPC   GL1 3700   1.426   6.264   4.284
  268POPC   GL2 3701   1.424   6.605   4.441
  268POPC   C1A 3702   1.178   6.237   4.714
  268POPC   D2A 3703   1.239   6.414   5.147
  268POPC   C3A 3704   1.032   6.338   5.552
  268POPC   C4A 3705   1.412   6.519   5.722
  268POPC   C1B 3706   1.140   6.759   4.767
  268POPC   C2B 3707   1.176   6.980   5.155
  268POPC   C3B 3708   1.034   6.840   5.537
  268POPC   C4B 3709   1.017   6.957   5.935
  269POPC   NC3 3710   0.582   5.300   4.055
  269POPC   PO4 3711   0.735   4.594   3.916
  269POPC   GL1 3712   0.481   4.808   4.224
  269POPC   GL2 3713   0.804   4.923   4.339
  269POPC   C1A 3714   0.406   4.928   4.690
  269POPC   D2A 3715   0.475   4.720   5.129
  269POPC   C3A 3716   0.507   4.929   5.540
  269POPC   C4A 3717   0.436   4.882   5.997
  269POPC   C1B 3718   0.806   5.228   4.682
  269POPC   C2B 3719   0.606   5.234   5.095
  269POPC   C3B 3720   0.756   5.371   5.480
  269POPC   C4B 3721   0.717   5.275   5.888
  270POPC   NC3 3722   6.315   0.988   4.092
  270POPC   PO4 3723   6.986   1.079   3.929
  270POPC   GL1 3724   6.779   0.907   4.288
  270POPC   GL2 3725   6.669   1.254   4.369
  270POPC   C1A 3726   6.637   0.709   4.705
  270POPC   D2A 3727   6.876   0.865   5.067
  270POPC   C3A 3728   6.714   0.827   5.513
  270POPC   C4A 3729   6.419   0.927   5.854
  270POPC   C1B 3730   6.453   1.174   4.758
  270POPC   C2B 3731   6.456   1.114   5.180
  270POPC   C3B 3732   6.363   1.309   5.529
  270POPC   C4B 3733   6.649   1.436   5.786
  271POPC   NC3 3734  10.245   7.323   3.662
  271POPC   PO4 3735  10.559   7.586   4.143
  271POPC   GL1 3736  10.597   7.377   4.508
  271POPC   GL2 3737  10.495   7.001   4.477
  271POPC   C1A 3738  10.506   7.301   4.904
  271POPC   D2A 3739  10.554   7.598   5.203
  271POPC   C3A 3740  10.432   7.536   5.580
  271POPC   C4A 3741  10.643   7.831   5.815
  271POPC   C1B 3742  10.180   6.900   4.755
  271POPC   C2B 3743  10.117   7.034   5.148
  271POPC   C3B 3744  10.371   6.926   5.463
  271POPC   C4B 3745  10.254   7.123   5.805
  272POPC   NC3 3746   9.535   7.946   3.990
  272POPC   PO4 3747  10.081   7.783   3.641
  272POPC   GL1 3748  10.046   7.824   4.114
  272POPC   GL2 3749   9.953   8.181   4.220
  272POPC   C1A 3750   9.930   7.838   4.597
  272POPC   D2A 3751   9.657   7.888   4.965
  272POPC   C3A 3752   9.720   8.071   5.397
  272POPC   C4A 3753   9.711   7.890   5.821
  272POPC   C1B 3754   9.606   8.269   4.563
  272POPC   C2B 3755   9.305   8.352   4.928
  272POPC   C3B 3756   9.251   8.284   5.342
  272POPC   C4B 3757   9.355   8.242   5.754
  273POPC   NC3 3758   0.989   9.371   3.831
  273POPC   PO4 3759   1.621   9.250   3.982
  273POPC   GL1 3760   1.308   9.485   4.236
  273POPC   GL2 3761   1.347   9.866   4.289
  273POPC   C1A 3762   1.132   9.509   4.640
  273POPC   D2A 3763   0.996   9.385   5.040
  273POPC   C3A 3764   1.142   9.504   5.424
  273POPC   C4A 3765   0.905   9.575   5.792
  273POPC   C1B 3766   1.528   9.857   4.690
  273POPC   C2B 3767   1.247   9.869   5.036
  273POPC   C3B 3768   1.320  10.005   5.442
  273POPC   C4B 3769   1.191   9.964   5.863
  274POPC   NC3 3770   0.562   6.098   3.793
  274POPC   PO4 3771   0.696   6.789   3.968
  274POPC   GL1 3772   0.442   6.463   4.165
  274POPC   GL2 3773   0.671   6.213   4.298
  274POPC   C1A 3774   0.186   6.393   4.560
  274POPC   D2A 3775   0.237   6.573   4.999
  274POPC   C3A 3776   0.053   6.376   5.389
  274POPC   C4A 3777   0.104   6.606   5.758
  274POPC   C1B 3778   0.699   6.481   4.664
  274POPC   C2B 3779   0.732   6.380   5.103
  274POPC   C3B 3780   0.549   6.499   5.498
  274POPC   C4B 3781   0.528   6.893   5.726
  275POPC   NC3 3782   4.739   9.913   4.023
  275POPC   PO4 3783   4.741  10.504   3.785
  275POPC   GL1 3784   4.997  10.347   4.173
  275POPC   GL2 3785   5.395  10.297   4.175
  275POPC   C1A 3786   4.843  10.377   4.592
  275POPC   D2A 3787   4.638  10.160   4.939
  275POPC   C3A 3788   4.714  10.385   5.303
  275POPC   C4A 3789   4.790  10.656   5.652
  275POPC   C1B 3790   5.366  10.271   4.614
  275POPC   C2B 3791   5.154  10.309   5.007
  275POPC   C3B 3792   5.210  10.390   5.427
  275POPC   C4B 3793   5.376  10.136   5.713
  276POPC   NC3 3794   4.611   2.851   3.930
  276POPC   PO4 3795   4.038   3.057   3.929
  276POPC   GL1 3796   4.248   2.840   4.294
  276POPC   GL2 3797   4.078   2.571   4.367
  276POPC   C1A 3798   4.416   2.634   4.722
  276POPC   D2A 3799   4.254   2.543   5.151
  276POPC   C3A 3800   4.485   2.659   5.546
  276POPC   C4A 3801   4.825   2.677   5.850
  276POPC   C1B 3802   3.761   2.638   4.650
  276POPC   C2B 3803   3.667   2.506   5.086
  276POPC   C3B 3804   3.886   2.396   5.460
  276POPC   C4B 3805   4.061   2.589   5.821
  277POPC   NC3 3806   8.701   4.658   3.849
  277POPC   PO4 3807   8.719   4.041   3.861
  277POPC   GL1 3808   8.946   3.920   4.252
  277POPC   GL2 3809   9.078   4.212   4.433
  277POPC   C1A 3810   8.866   3.820   4.706
  277POPC   D2A 3811   8.703   3.705   5.131
  277POPC   C3A 3812   8.710   3.885   5.552
  277POPC   C4A 3813   8.501   4.154   5.845
  277POPC   C1B 3814   9.030   4.320   4.878
  277POPC   C2B 3815   9.003   4.221   5.324
  277POPC   C3B 3816   9.046   4.304   5.775
  277POPC   C4B 3817   8.806   4.422   6.148
  278POPC   NC3 3818   1.053   2.878   4.079
  278POPC   PO4 3819   1.377   3.414   3.857
  278POPC   GL1 3820   1.344   3.582   4.259
  278POPC   GL2 3821   1.089   3.351   4.315
  278POPC   C1A 3822   1.451   3.522   4.707
  278POPC   D2A 3823   1.574   3.488   5.171
  278POPC   C3A 3824   1.541   3.722   5.568
  278POPC   C4A 3825   1.623   3.499   5.961
  278POPC   C1B 3826   0.971   3.299   4.738
  278POPC   C2B 3827   1.081   3.558   5.081
  278POPC   C3B 3828   0.982   3.729   5.472
  278POPC   C4B 3829   1.211   3.344   5.529
  279POPC   NC3 3830   3.017   1.264   3.712
  279POPC   PO4 3831   2.633   1.463   4.212
  279POPC   GL1 3832   2.734   1.124   4.494
  279POPC   GL2 3833   2.494   0.828   4.420
  279POPC   C1A 3834   2.963   1.154   4.900
  279POPC   D2A 3835   3.241   1.336   5.198
  279POPC   C3A 3836   3.070   1.295   5.633
  279POPC   C4A 3837   2.985   1.039   6.025
  279POPC   C1B 3838   2.277   1.074   4.713
  279POPC   C2B 3839   2.470   1.284   4.985
  279POPC   C3B 3840   2.655   1.358   5.351
  279POPC   C4B 3841   2.580   1.206   5.759
  280POPC   NC3 3842   3.804  11.262   4.011
  280POPC   PO4 3843   3.096  11.349   3.894
  280POPC   GL1 3844   3.325  11.412   4.260
  280POPC   GL2 3845   3.463  11.103   4.356
  280POPC   C1A 3846   3.192  11.374   4.717
  280POPC   D2A 3847   3.218   0.061   5.130
  280POPC   C3A 3848   3.148  11.361   5.515
  280POPC   C4A 3849   3.375  11.237   5.881
  280POPC   C1B 3850   3.403  10.895   4.746
  280POPC   C2B 3851   3.471  11.108   5.121
  280POPC   C3B 3852   3.635  11.047   5.502
  280POPC   C4B 3853   3.559  10.766   5.839
  281POPC   NC3 3854   5.087   8.261   3.875
  281POPC   PO4 3855   4.799   8.767   3.899
  281POPC   GL1 3856   4.814   8.531   4.311
  281POPC   GL2 3857   5.118   8.318   4.383
  281POPC   C1A 3858   4.871   8.496   4.796
  281POPC   D2A 3859   4.981   8.192   5.131
  281POPC   C3A 3860   4.902   8.327   5.559
  281POPC   C4A 3861   4.657   8.386   5.962
  281POPC   C1B 3862   5.254   8.015   4.717
  281POPC   C2B 3863   5.214   7.726   5.077
  281POPC   C3B 3864   5.210   7.857   5.506
  281POPC   C4B 3865   5.421   8.209   5.721
  282POPC   NC3 3866   6.882   0.679   3.720
  282POPC   PO4 3867   6.321   0.508   3.983
  282POPC   GL1 3868   6.615   0.383   4.297
  282POPC   GL2 3869   6.299   0.235   4.444
  282POPC   C1A 3870   6.861   0.194   4.638
  282POPC   D2A 3871   7.005   0.362   5.032
  282POPC   C3A 3872   6.887   0.126   5.391
  282POPC   C4A 3873   6.723  11.352   5.723
  282POPC   C1B 3874   6.402   0.255   4.858
  282POPC   C2B 3875   6.514   0.486   5.180
  282POPC   C3B 3876   6.320   0.498   5.543
  282POPC   C4B 3877   6.595   0.328   5.768
  283POPC   NC3 3878   7.963  10.552   3.870
  283POPC   PO4 3879   8.471  10.029   3.901
  283POPC   GL1 3880   8.397  10.293   4.265
  283POPC   GL2 3881   8.057  10.341   4.329
  283POPC   C1A 3882   8.423  10.281   4.732
  283POPC   D2A 3883   8.402   9.957   5.093
  283POPC   C3A 3884   8.134  10.058   5.479
  283POPC   C4A 3885   8.096  10.211   5.936
  283POPC   C1B 3886   7.975  10.552   4.706
  283POPC   C2B 3887   8.054  10.691   5.097
  283POPC   C3B 3888   8.170  10.586   5.511
  283POPC   C4B 3889   7.973  10.756   5.852
  284POPC   NC3 3890   2.528   5.903   3.793
  284POPC   PO4 3891   3.199   5.957   3.684
  284POPC   GL1 3892   2.965   5.924   4.141
  284POPC   GL2 3893   2.632   5.815   4.315
  284POPC   C1A 3894   2.894   6.133   4.608
  284POPC   D2A 3895   2.743   6.143   5.080
  284POPC   C3A 3896   2.880   6.022   5.509
  284POPC   C4A 3897   2.731   6.083   5.948
  284POPC   C1B 3898   2.604   5.732   4.804
  284POPC   C2B 3899   2.609   5.642   5.281
  284POPC   C3B 3900   2.651   5.602   5.739
  284POPC   C4B 3901   2.459   5.699   6.125
  285POPC   NC3 3902   1.869   5.923   3.828
  285POPC   PO4 3903   2.350   5.531   3.998
  285POPC   GL1 3904   2.023   5.589   4.272
  285POPC   GL2 3905   1.946   5.898   4.349
  285POPC   C1A 3906   1.781   5.416   4.600
  285POPC   D2A 3907   1.627   5.472   5.022
  285POPC   C3A 3908   1.783   5.744   5.354
  285POPC   C4A 3909   1.653   5.677   5.794
  285POPC   C1B 3910   2.044   5.848   4.777
  285POPC   C2B 3911   2.234   6.021   5.146
  285POPC   C3B 3912   2.354   5.989   5.565
  285POPC   C4B 3913   2.075   5.931   5.890
  286POPC   NC3 3914   7.264   9.956   4.231
  286POPC   PO4 3915   7.245  10.532   3.884
  286POPC   GL1 3916   7.151  10.565   4.358
  286POPC   GL2 3917   7.145  10.256   4.599
  286POPC   C1A 3918   7.072  10.683   4.820
  286POPC   D2A 3919   7.192  10.391   5.195
  286POPC   C3A 3920   7.232  10.560   5.626
  286POPC   C4A 3921   7.163  10.693   6.088
  286POPC   C1B 3922   7.517  10.344   4.789
  286POPC   C2B 3923   7.729  10.293   5.179
  286POPC   C3B 3924   7.704  10.315   5.609
  286POPC   C4B 3925   7.596  10.451   5.985
  287POPC   NC3 3926   2.041   5.150   4.019
  287POPC   PO4 3927   2.299   4.623   3.790
  287POPC   GL1 3928   2.157   4.666   4.280
  287POPC   GL2 3929   2.180   4.968   4.470
  287POPC   C1A 3930   1.832   4.668   4.706
  287POPC   D2A 3931   1.602   4.942   5.040
  287POPC   C3A 3932   1.793   4.823   5.443
  287POPC   C4A 3933   1.958   4.622   5.826
  287POPC   C1B 3934   2.270   5.351   4.707
  287POPC   C2B 3935   2.157   5.496   5.125
  287POPC   C3B 3936   2.164   5.494   5.590
  287POPC   C4B 3937   2.119   5.095   5.780
  288POPC   NC3 3938   0.323   4.406   3.855
  288POPC   PO4 3939   0.529   3.795   3.971
  288POPC   GL1 3940   0.458   4.095   4.313
  288POPC   GL2 3941   0.702   4.340   4.338
  288POPC   C1A 3942   0.605   4.062   4.766
  288POPC   D2A 3943   0.381   4.003   5.150
  288POPC   C3A 3944   0.521   4.093   5.576
  288POPC   C4A 3945   0.291   4.477   5.681
  288POPC   C1B 3946   0.738   4.558   4.716
  288POPC   C2B 3947   0.866   4.378   5.122
  288POPC   C3B 3948   0.835   4.499   5.564
  288POPC   C4B 3949   0.676   4.457   6.012
  289POPC   NC3 3950   1.936   8.596   3.657
  289POPC   PO4 3951   2.191   9.150   3.761
  289POPC   GL1 3952   1.995   9.065   4.237
  289POPC   GL2 3953   1.991   8.714   4.338
  289POPC   C1A 3954   2.100   9.115   4.693
  289POPC   D2A 3955   1.887   9.084   5.106
  289POPC   C3A 3956   2.112   9.194   5.493
  289POPC   C4A 3957   2.204   8.887   5.764
  289POPC   C1B 3958   1.730   8.742   4.724
  289POPC   C2B 3959   1.613   8.532   5.094
  289POPC   C3B 3960   1.742   8.648   5.501
  289POPC   C4B 3961   1.653   9.039   5.683
  290POPC   NC3 3962   0.628   1.109   3.665
  290POPC   PO4 3963   0.211   1.521   3.988
  290POPC   GL1 3964   0.313   1.455   4.389
  290POPC   GL2 3965   0.542   1.189   4.257
  290POPC   C1A 3966   0.109   1.465   4.814
  290POPC   D2A 3967  11.418   1.386   5.221
  290POPC   C3A 3968   0.142   1.327   5.599
  290POPC   C4A 3969   0.453   1.538   5.788
  290POPC   C1B 3970   0.331   1.023   4.657
  290POPC   C2B 3971   0.321   1.031   5.131
  290POPC   C3B 3972   0.623   1.204   5.435
  290POPC   C4B 3973   0.764   1.065   5.835
  291POPC   NC3 3974   8.291   0.644   3.969
  291POPC   PO4 3975   8.206   0.055   3.908
  291POPC   GL1 3976   8.312   0.272   4.315
  291POPC   GL2 3977   7.978   0.434   4.359
  291POPC   C1A 3978   8.335   0.578   4.693
  291POPC   D2A 3979   8.342   0.413   5.140
  291POPC   C3A 3980   8.364   0.684   5.541
  291POPC   C4A 3981   8.233   0.660   5.996
  291POPC   C1B 3982   7.981   0.178   4.787
  291POPC   C2B 3983   7.958   0.108   5.279
  291POPC   C3B 3984   7.968   0.307   5.722
  291POPC   C4B 3985   7.840   0.193   6.199
  292POPC   NC3 3986   8.870   1.936   3.809
  292POPC   PO4 3987   9.296   1.579   4.150
  292POPC   GL1 3988   8.787   1.701   4.304
  292POPC   GL2 3989   8.649   2.044   4.234
  292POPC   C1A 3990   8.491   1.638   4.679
  292POPC   D2A 3991   8.601   1.826   5.106
  292POPC   C3A 3992   8.570   1.686   5.535
  292POPC   C4A 3993   8.581   1.745   5.980
  292POPC   C1B 3994   8.644   2.120   4.666
  292POPC   C2B 3995   8.579   2.324   5.057
  292POPC   C3B 3996   8.674   2.216   5.500
  292POPC   C4B 3997   9.100   2.071   5.637
  293POPC   NC3 3998   9.722  10.325   3.873
  293POPC   PO4 3999   9.104  10.151   4.044
  293POPC   GL1 4000   9.505  10.142   4.285
  293POPC   GL2 4001   9.675  10.455   4.348
  293POPC   C1A 4002   9.783  10.105   4.675
  293POPC   D2A 4003   9.507   9.964   5.012
  293POPC   C3A 4004   9.449   9.963   5.443
  293POPC   C4A 4005   9.802   9.964   5.681
  293POPC   C1B 4006   9.874  10.681   4.670
  293POPC   C2B 4007   9.715  10.471   5.028
  293POPC   C3B 4008   9.653  10.439   5.437
  293POPC   C4B 4009   9.853  10.627   5.772
  294POPC   NC3 4010   2.565   1.055   3.978
  294POPC   PO4 4011   1.918   0.835   3.906
  294POPC   GL1 4012   1.963   1.041   4.316
  294POPC   GL2 4013   2.023   1.414   4.310
  294POPC   C1A 4014   1.800   0.908   4.730
  294POPC   D2A 4015   1.874   1.062   5.122
  294POPC   C3A 4016   2.221   1.028   5.369
  294POPC   C4A 4017   2.119   1.006   5.780
  294POPC   C1B 4018   1.877   1.447   4.743
  294POPC   C2B 4019   2.072   1.542   5.156
  294POPC   C3B 4020   2.139   1.490   5.586
  294POPC   C4B 4021   1.790   1.382   5.810
  295POPC   NC3 4022   3.476   2.018   3.706
  295POPC   PO4 4023   3.874   2.486   3.924
  295POPC   GL1 4024   3.781   2.169   4.242
  295POPC   GL2 4025   3.425   2.035   4.223
  295POPC   C1A 4026   3.633   2.149   4.686
  295POPC   D2A 4027   3.529   1.834   5.005
  295POPC   C3A 4028   3.563   2.012   5.380
  295POPC   C4A 4029   3.763   2.009   5.766
  295POPC   C1B 4030   3.212   1.867   4.609
  295POPC   C2B 4031   2.993   1.796   4.992
  295POPC   C3B 4032   3.105   1.772   5.413
  295POPC   C4B 4033   3.221   2.003   5.766
  296POPC   NC3 4034   1.169   5.778   3.863
  296POPC   PO4 4035   1.714   5.433   3.829
  296POPC   GL1 4036   1.502   5.681   4.238
  296POPC   GL2 4037   1.151   5.842   4.361
  296POPC   C1A 4038   1.532   5.866   4.694
  296POPC   D2A 4039   1.287   5.875   5.113
  296POPC   C3A 4040   1.427   6.041   5.527
  296POPC   C4A 4041   1.325   6.060   5.990
  296POPC   C1B 4042   0.932   5.765   4.746
  296POPC   C2B 4043   0.735   5.755   5.127
  296POPC   C3B 4044   0.941   5.830   5.529
  296POPC   C4B 4045   1.115   5.608   5.899
  297POPC   NC3 4046   0.255   9.759   4.171
  297POPC   PO4 4047   0.844   9.840   3.763
  297POPC   GL1 4048   0.837   9.737   4.223
  297POPC   GL2 4049   0.737   9.394   4.304
  297POPC   C1A 4050   0.844   9.938   4.663
  297POPC   D2A 4051   0.618   9.941   5.062
  297POPC   C3A 4052   0.816   9.941   5.444
  297POPC   C4A 4053   0.685  10.070   5.864
  297POPC   C1B 4054   0.559   9.479   4.740
  297POPC   C2B 4055   0.271   9.570   5.098
  297POPC   C3B 4056   0.376   9.679   5.543
  297POPC   C4B 4057   0.438   9.583   5.982
  298POPC   NC3 4058   0.187   2.785   3.909
  298POPC   PO4 4059   0.719   2.317   4.003
  298POPC   GL1 4060   0.642   2.674   4.307
  298POPC   GL2 4061   0.322   2.834   4.381
  298POPC   C1A 4062   0.582   2.682   4.775
  298POPC   D2A 4063   0.516   2.927   5.139
  298POPC   C3A 4064   0.573   2.718   5.520
  298POPC   C4A 4065   0.542   2.770   5.978
  298POPC   C1B 4066   0.074   2.842   4.742
  298POPC   C2B 4067   0.002   2.890   5.166
  298POPC   C3B 4068   0.076   2.799   5.570
  298POPC   C4B 4069   0.139   2.424   5.760
  299POPC   NC3 4070   7.318   2.395   3.768
  299POPC   PO4 4071   7.682   2.791   4.064
  299POPC   GL1 4072   7.452   2.748   4.405
  299POPC   GL2 4073   7.337   2.460   4.280
  299POPC   C1A 4074   7.457   2.733   4.847
  299POPC   D2A 4075   7.637   2.618   5.231
  299POPC   C3A 4076   7.473   2.718   5.630
  299POPC   C4A 4077   7.236   3.096   5.757
  299POPC   C1B 4078   7.102   2.408   4.650
  299POPC   C2B 4079   7.102   2.465   5.117
  299POPC   C3B 4080   6.984   2.721   5.478
  299POPC   C4B 4081   7.020   2.661   5.926
  300POPC   NC3 4082   1.375  10.283   3.971
  300POPC   PO4 4083   0.809  10.558   3.660
  300POPC   GL1 4084   0.909  10.579   4.148
  300POPC   GL2 4085   0.943  10.243   4.261
  300POPC   C1A 4086   0.832  10.541   4.669
  300POPC   D2A 4087   0.983  10.308   5.085
  300POPC   C3A 4088   1.010  10.408   5.563
  300POPC   C4A 4089   1.086  10.571   6.029
  300POPC   C1B 4090   1.274  10.295   4.614
  300POPC   C2B 4091   1.512  10.335   4.999
  300POPC   C3B 4092   1.513  10.529   5.399
  300POPC   C4B 4093   1.477  10.374   5.804
  301POPC   NC3 4094   8.924   1.377   3.951
  301POPC   PO4 4095   8.750   0.720   3.937
  301POPC   GL1 4096   8.710   0.751   4.365
  301POPC   GL2 4097   8.834   1.066   4.328
  301POPC   C1A 4098   8.893   0.854   4.775
  301POPC   D2A 4099   9.147   1.004   5.078
  301POPC   C3A 4100   8.965   1.084   5.504
  301POPC   C4A 4101   9.103   1.086   5.969
  301POPC   C1B 4102   8.915   1.341   4.645
  301POPC   C2B 4103   8.810   1.373   5.050
  301POPC   C3B 4104   9.060   1.575   5.360
  301POPC   C4B 4105   9.072   1.575   5.809
  302POPC   NC3 4106   0.081   1.024   4.035
  302POPC   PO4 4107  10.942   0.882   3.991
  302POPC   GL1 4108  11.170   1.103   4.347
  302POPC   GL2 4109  11.230   1.471   4.382
  302POPC   C1A 4110  11.318   1.037   4.771
  302POPC   D2A 4111  11.115   0.939   5.165
  302POPC   C3A 4112  11.391   0.907   5.479
  302POPC   C4A 4113  11.429   0.838   5.915
  302POPC   C1B 4114  11.089   1.533   4.835
  302POPC   C2B 4115  10.920   1.395   5.264
  302POPC   C3B 4116  11.004   1.194   5.661
  302POPC   C4B 4117  10.887   1.445   6.031
  303POPC   NC3 4118   2.086   8.068   4.002
  303POPC   PO4 4119   1.492   7.795   3.845
  303POPC   GL1 4120   1.718   7.854   4.266
  303POPC   GL2 4121   1.851   8.213   4.418
  303POPC   C1A 4122   1.887   7.806   4.682
  303POPC   D2A 4123   1.718   7.929   5.052
  303POPC   C3A 4124   1.877   8.031   5.419
  303POPC   C4A 4125   1.736   7.702   5.692
  303POPC   C1B 4126   2.008   8.306   4.818
  303POPC   C2B 4127   2.145   8.575   5.167
  303POPC   C3B 4128   2.193   8.410   5.585
  303POPC   C4B 4129   2.042   8.097   5.893
  304POPC   NC3 4130   0.583   5.529   3.488
  304POPC   PO4 4131   0.746   5.768   4.057
  304POPC   GL1 4132   0.598   5.660   4.394
  304POPC   GL2 4133   0.293   5.838   4.322
  304POPC   C1A 4134   0.355   5.486   4.720
  304POPC   D2A 4135   0.195   5.590   5.113
  304POPC   C3A 4136   0.240   5.407   5.515
  304POPC   C4A 4137   0.439   5.668   5.833
  304POPC   C1B 4138   0.476   6.006   4.718
  304POPC   C2B 4139   0.324   6.080   5.064
  304POPC   C3B 4140   0.405   5.983   5.443
  304POPC   C4B 4141   0.273   6.133   5.809
  305POPC   NC3 4142  10.395   6.414   3.833
  305POPC   PO4 4143  10.069   6.895   4.101
  305POPC   GL1 4144  10.303   6.554   4.317
  305POPC   GL2 4145  10.672   6.520   4.385
  305POPC   C1A 4146  10.317   6.370   4.724
  305POPC   D2A 4147  10.161   6.523   5.115
  305POPC   C3A 4148  10.257   6.388   5.533
  305POPC   C4A 4149  10.316   6.621   5.887
  305POPC   C1B 4150  10.742   6.624   4.815
  305POPC   C2B 4151  10.664   6.541   5.260
  305POPC   C3B 4152  10.773   6.648   5.691
  305POPC   C4B 4153  10.742   6.563   6.154
  306POPC   NC3 4154   9.211  10.907   3.936
  306POPC   PO4 4155   9.944  10.727   3.993
  306POPC   GL1 4156   9.597  10.939   4.281
  306POPC   GL2 4157   9.518  11.299   4.212
  306POPC   C1A 4158   9.417  10.804   4.743
  306POPC   D2A 4159   9.603  10.966   5.152
  306POPC   C3A 4160   9.464  10.900   5.603
  306POPC   C4A 4161   9.319  10.718   6.040
  306POPC   C1B 4162   9.603  11.278   4.676
  306POPC   C2B 4163   9.487  11.476   5.072
  306POPC   C3B 4164   9.640  11.370   5.474
  306POPC   C4B 4165   9.974  11.110   5.633
  307POPC   NC3 4166   7.387   9.059   3.808
  307POPC   PO4 4167   7.625   8.464   3.978
  307POPC   GL1 4168   7.552   8.849   4.266
  307POPC   GL2 4169   7.208   8.939   4.297
  307POPC   C1A 4170   7.536   9.057   4.735
  307POPC   D2A 4171   7.487   8.914   5.198
  307POPC   C3A 4172   7.773   8.939   5.538
  307POPC   C4A 4173   7.757   8.889   5.973
  307POPC   C1B 4174   7.034   8.975   4.735
  307POPC   C2B 4175   7.052   9.167   5.156
  307POPC   C3B 4176   7.024   8.854   5.444
  307POPC   C4B 4177   7.309   8.849   5.736
  308POPC   NC3 4178   9.638   4.991   3.955
  308POPC   PO4 4179   9.113   4.572   4.047
  308POPC   GL1 4180   9.384   4.644   4.408
  308POPC   GL2 4181   9.577   4.969   4.447
  308POPC   C1A 4182   9.449   4.700   4.861
  308POPC   D2A 4183   9.442   4.960   5.237
  308POPC   C3A 4184   9.454   4.759   5.639
  308POPC   C4A 4185   9.141   4.811   5.968
  308POPC   C1B 4186   9.888   4.970   4.768
  308POPC   C2B 4187   9.898   5.191   5.160
  308POPC   C3B 4188   9.751   5.190   5.606
  308POPC   C4B 4189   9.926   5.290   6.026
  309POPC   NC3 4190  11.131   9.408   3.855
  309POPC   PO4 4191   0.131   9.320   4.151
  309POPC   GL1 4192  11.298   9.599   4.329
  309POPC   GL2 4193  10.928   9.547   4.289
  309POPC   C1A 4194  11.376   9.719   4.752
  309POPC   D2A 4195  11.224   9.525   5.087
  309POPC   C3A 4196  11.378   9.617   5.463
  309POPC   C4A 4197  11.476   9.302   5.790
  309POPC   C1B 4198  10.853   9.785   4.666
  309POPC   C2B 4199  10.644   9.734   5.044
  309POPC   C3B 4200  10.832   9.669   5.428
  309POPC   C4B 4201  11.041   9.659   5.834
  310POPC   NC3 4202   9.699   3.303   3.694
  310POPC   PO4 4203   9.697   3.871   3.977
  310POPC   GL1 4204   9.724   3.652   4.356
  310POPC   GL2 4205   9.681   3.275   4.333
  310POPC   C1A 4206   9.726   3.767   4.804
  310POPC   D2A 4207   9.894   4.000   5.150
  310POPC   C3A 4208   9.887   3.730   5.497
  310POPC   C4A 4209   9.764   3.677   5.921
  310POPC   C1B 4210   9.697   3.238   4.786
  310POPC   C2B 4211   9.551   3.436   5.180
  310POPC   C3B 4212   9.516   3.354   5.629
  310POPC   C4B 4213   9.731   3.144   5.983
  311POPC   NC3 4214   3.186   0.309   3.797
  311POPC   PO4 4215   3.789   0.233   3.938
  311POPC   GL1 4216   3.492   0.409   4.292
  311POPC   GL2 4217   3.722   0.673   4.425
  311POPC   C1A 4218   3.306   0.420   4.746
  311POPC   D2A 4219   3.080   0.543   5.163
  311POPC   C3A 4220   3.267   0.383   5.543
  311POPC   C4A 4221   3.633   0.070   5.572
  311POPC   C1B 4222   3.832   0.481   4.822
  311POPC   C2B 4223   3.657   0.454   5.225
  311POPC   C3B 4224   3.731   0.593   5.677
  311POPC   C4B 4225   3.783   0.720   6.129
  312POPC   NC3 4226   4.244  10.683   3.805
  312POPC   PO4 4227   4.044  10.080   3.904
  312POPC   GL1 4228   4.112  10.330   4.236
  312POPC   GL2 4229   4.465  10.341   4.203
  312POPC   C1A 4230   4.184  10.204   4.667
  312POPC   D2A 4231   4.006  10.225   5.082
  312POPC   C3A 4232   4.264  10.177   5.440
  312POPC   C4A 4233   4.213  10.046   5.891
  312POPC   C1B 4234   4.410  10.657   4.541
  312POPC   C2B 4235   4.368  10.600   4.985
  312POPC   C3B 4236   4.339  10.720   5.414
  312POPC   C4B 4237   4.324  10.523   5.801
  313POPC   NC3 4238   0.004   1.882   3.784
  313POPC   PO4 4239  10.862   2.009   3.787
  313POPC   GL1 4240  10.949   2.124   4.225
  313POPC   GL2 4241  11.273   2.088   4.193
  313POPC   C1A 4242  10.883   2.060   4.694
  313POPC   D2A 4243  10.784   1.859   5.093
  313POPC   C3A 4244  10.757   2.008   5.535
  313POPC   C4A 4245  11.111   2.145   5.801
  313POPC   C1B 4246  11.411   1.924   4.569
  313POPC   C2B 4247  11.383   1.989   4.992
  313POPC   C3B 4248  11.230   1.911   5.358
  313POPC   C4B 4249  11.219   1.651   5.685
  314POPC   NC3 4250  11.130   5.026   3.917
  314POPC   PO4 4251   0.114   5.499   3.876
  314POPC   GL1 4252  11.477   5.193   4.256
  314POPC   GL2 4253  11.102   5.243   4.382
  314POPC   C1A 4254  11.413   4.904   4.645
  314POPC   D2A 4255   0.090   5.068   5.078
  314POPC   C3A 4256  11.488   4.876   5.483
  314POPC   C4A 4257  11.451   4.988   5.924
  314POPC   C1B 4258  11.339   5.395   4.758
  314POPC   C2B 4259  11.215   5.448   5.204
  314POPC   C3B 4260  11.193   5.341   5.656
  314POPC   C4B 4261  10.921   5.093   5.968
  315POPC   NC3 4262  11.119  10.404   3.941
  315POPC   PO4 4263   0.076  10.875   3.723
  315POPC   GL1 4264  11.457  10.772   4.217
  315POPC   GL2 4265  11.410  10.443   4.363
  315POPC   C1A 4266  11.330  10.822   4.711
  315POPC   D2A 4267  11.176  10.545   5.088
  315POPC   C3A 4268  11.429  10.502   5.480
  315POPC   C4A 4269  11.247  10.504   5.900
  315POPC   C1B 4270  11.230  10.201   4.708
  315POPC   C2B 4271  11.083  10.014   5.110
  315POPC   C3B 4272  11.090  10.102   5.537
  315POPC   C4B 4273  11.450  10.024   5.772
  316POPC   NC3 4274   6.317  10.346   3.908
  316POPC   PO4 4275   6.875   9.951   3.985
  316POPC   GL1 4276   6.710  10.249   4.340
  316POPC   GL2 4277   6.447  10.522   4.363
  316POPC   C1A 4278   6.694  10.339   4.809
  316POPC   D2A 4279   6.698  10.565   5.215
  316POPC   C3A 4280   6.757  10.340   5.602
  316POPC   C4A 4281   6.732  10.451   6.036
  316POPC   C1B 4282   6.216  10.491   4.740
  316POPC   C2B 4283   6.235  10.291   5.126
  316POPC   C3B 4284   6.238  10.448   5.550
  316POPC   C4B 4285   6.342  10.155   5.864
  317POPC   NC3 4286   5.735   9.916   3.930
  317POPC   PO4 4287   5.542   9.250   4.098
  317POPC   GL1 4288   5.775   9.575   4.311
  317POPC   GL2 4289   5.632   9.878   4.410
  317POPC   C1A 4290   5.987   9.660   4.700
  317POPC   D2A 4291   5.891   9.764   5.128
  317POPC   C3A 4292   5.865   9.377   5.382
  317POPC   C4A 4293   5.655   9.230   5.785
  317POPC   C1B 4294   5.467   9.797   4.803
  317POPC   C2B 4295   5.399   9.892   5.216
  317POPC   C3B 4296   5.497   9.675   5.570
  317POPC   C4B 4297   5.888   9.703   5.766
  318POPC   NC3 4298   2.641   3.381   3.914
  318POPC   PO4 4299   2.467   3.990   3.778
  318POPC   GL1 4300   2.629   3.759   4.265
  318POPC   GL2 4301   2.784   3.458   4.382
  318POPC   C1A 4302   2.414   3.513   4.698
  318POPC   D2A 4303   2.314   3.616   5.124
  318POPC   C3A 4304   2.580   3.560   5.450
  318POPC   C4A 4305   2.623   3.609   5.879
  318POPC   C1B 4306   2.923   3.573   4.784
  318POPC   C2B 4307   2.978   3.313   5.154
  318POPC   C3B 4308   2.954   3.233   5.600
  318POPC   C4B 4309   3.131   3.574   5.874
  319POPC   NC3 4310  11.052   2.461   3.823
  319POPC   PO4 4311  11.343   3.112   3.899
  319POPC   GL1 4312  11.328   2.954   4.287
  319POPC   GL2 4313  11.304   2.626   4.225
  319POPC   C1A 4314  11.068   2.916   4.654
  319POPC   D2A 4315  10.730   3.058   4.922
  319POPC   C3A 4316  10.905   2.877   5.272
  319POPC   C4A 4317  10.988   3.043   5.654
  319POPC   C1B 4318  11.217   2.427   4.577
  319POPC   C2B 4319  11.222   2.498   5.003
  319POPC   C3B 4320  11.230   2.458   5.425
  319POPC   C4B 4321  11.192   2.644   5.861
  320POPC   NC3 4322   9.335   4.165   3.996
  320POPC   PO4 4323   9.929   4.565   3.905
  320POPC   GL1 4324   9.875   4.552   4.337
  320POPC   GL2 4325   9.736   4.223   4.349
  320POPC   C1A 4326   9.930   4.451   4.800
  320POPC   D2A 4327   9.855   4.657   5.198
  320POPC   C3A 4328   9.807   4.395   5.520
  320POPC   C4A 4329   9.643   4.350   5.893
  320POPC   C1B 4330   9.497   4.205   4.717
  320POPC   C2B 4331   9.474   4.285   5.162
  320POPC   C3B 4332   9.445   4.014   5.547
  320POPC   C4B 4333   9.352   3.953   6.008
  321POPC   NC3 4334   7.266  10.084   3.735
  321POPC   PO4 4335   7.103   9.405   3.882
  321POPC   GL1 4336   7.131   9.459   4.315
  321POPC   GL2 4337   7.479   9.402   4.307
  321POPC   C1A 4338   7.203   9.456   4.777
  321POPC   D2A 4339   7.560   9.402   5.131
  321POPC   C3A 4340   7.417   9.322   5.552
  321POPC   C4A 4341   6.975   9.320   5.665
  321POPC   C1B 4342   7.662   9.609   4.677
  321POPC   C2B 4343   7.413   9.876   4.969
  321POPC   C3B 4344   7.198   9.728   5.325
  321POPC   C4B 4345   7.215  10.059   5.627
  322POPC   NC3 4346  10.326  10.448   3.944
  322POPC   PO4 4347  10.896  10.624   4.283
  322POPC   GL1 4348  10.590  10.448   4.514
  322POPC   GL2 4349  10.227  10.438   4.429
  322POPC   C1A 4350  10.716  10.269   4.892
  322POPC   D2A 4351  10.589  10.185   5.297
  322POPC   C3A 4352  10.717  10.459   5.632
  322POPC   C4A 4353  10.836  10.882   5.722
  322POPC   C1B 4354  10.231  10.427   4.901
  322POPC   C2B 4355  10.165  10.505   5.326
  322POPC   C3B 4356  10.211  10.276   5.689
  322POPC   C4B 4357  10.377  10.290   6.102
  323POPC   NC3 4358   2.386  10.275   3.986
  323POPC   PO4 4359   1.773  10.024   3.971
  323POPC   GL1 4360   1.857  10.381   4.197
  323POPC   GL2 4361   1.968  10.141   4.440
  323POPC   C1A 4362   1.780  10.588   4.615
  323POPC   D2A 4363   1.961  10.643   5.029
  323POPC   C3A 4364   2.111  10.460   5.408
  323POPC   C4A 4365   1.918  10.629   5.755
  323POPC   C1B 4366   1.999  10.130   4.870
  323POPC   C2B 4367   1.765   9.916   5.163
  323POPC   C3B 4368   1.800  10.097   5.549
  323POPC   C4B 4369   2.146  10.176   5.855
  324POPC   NC3 4370   2.630   9.279   3.673
  324POPC   PO4 4371   2.596   9.957   3.711
  324POPC   GL1 4372   2.534   9.911   4.298
  324POPC   GL2 4373   2.842   9.713   4.493
  324POPC   C1A 4374   2.487   9.845   4.805
  324POPC   D2A 4375   2.720   9.563   5.102
  324POPC   C3A 4376   2.524   9.543   5.505
  324POPC   C4A 4377   2.520   9.830   5.830
  324POPC   C1B 4378   3.051   9.952   4.838
  324POPC   C2B 4379   3.066   9.937   5.305
  324POPC   C3B 4380   2.980   9.698   5.667
  324POPC   C4B 4381   2.981   9.844   6.096
  325POPC   NC3 4382  10.216   8.670   3.888
  325POPC   PO4 4383  10.710   9.222   3.774
  325POPC   GL1 4384  10.626   9.112   4.207
  325POPC   GL2 4385  10.336   8.924   4.298
  325POPC   C1A 4386  10.744   8.873   4.594
  325POPC   D2A 4387  10.814   8.598   4.949
  325POPC   C3A 4388  10.786   8.805   5.323
  325POPC   C4A 4389  10.620   8.813   5.697
  325POPC   C1B 4390  10.253   9.009   4.732
  325POPC   C2B 4391  10.302   8.870   5.157
  325POPC   C3B 4392  10.097   8.967   5.535
  325POPC   C4B 4393  10.266   9.090   5.933
  326POPC   NC3 4394  10.086   4.099   3.901
  326POPC   PO4 4395  10.619   4.484   3.850
  326POPC   GL1 4396  10.540   4.187   4.182
  326POPC   GL2 4397  10.256   4.221   4.358
  326POPC   C1A 4398  10.699   4.058   4.609
  326POPC   D2A 4399  10.918   4.197   4.988
  326POPC   C3A 4400  10.787   4.050   5.403
  326POPC   C4A 4401  10.739   4.304   5.742
  326POPC   C1B 4402  10.195   4.001   4.718
  326POPC   C2B 4403  10.376   4.201   5.077
  326POPC   C3B 4404  10.304   4.363   5.486
  326POPC   C4B 4405  10.104   4.096   5.810
  327POPC   NC3 4406   2.454   8.968   4.108
  327POPC   PO4 4407   3.018   9.040   3.738
  327POPC   GL1 4408   2.942   8.968   4.220
  327POPC   GL2 4409   2.808   8.625   4.270
  327POPC   C1A 4410   2.759   9.096   4.700
  327POPC   D2A 4411   2.453   9.096   5.108
  327POPC   C3A 4412   2.685   9.078   5.532
  327POPC   C4A 4413   3.139   9.178   5.610
  327POPC   C1B 4414   2.958   8.625   4.714
  327POPC   C2B 4415   2.813   8.722   5.154
  327POPC   C3B 4416   2.704   8.578   5.600
  327POPC   C4B 4417   3.043   8.672   5.907
  328POPC   NC3 4418   0.738   2.643   3.684
  328POPC   PO4 4419   1.411   2.584   3.949
  328POPC   GL1 4420   1.168   2.416   4.303
  328POPC   GL2 4421   1.509   2.372   4.465
  328POPC   C1A 4422   1.048   2.433   4.739
  328POPC   D2A 4423   1.023   2.829   4.977
  328POPC   C3A 4424   1.048   2.882   5.402
  328POPC   C4A 4425   1.003   2.659   5.782
  328POPC   C1B 4426   1.413   2.802   4.605
  328POPC   C2B 4427   1.484   3.050   4.954
  328POPC   C3B 4428   1.613   3.011   5.385
  328POPC   C4B 4429   1.404   2.972   5.782
  329POPC   NC3 4430   5.301   2.303   3.907
  329POPC   PO4 4431   5.947   2.059   3.844
  329POPC   GL1 4432   5.907   1.883   4.242
  329POPC   GL2 4433   5.551   1.915   4.194
  329POPC   C1A 4434   6.061   1.862   4.657
  329POPC   D2A 4435   6.225   2.068   5.010
  329POPC   C3A 4436   5.996   1.927   5.360
  329POPC   C4A 4437   6.000   2.189   5.709
  329POPC   C1B 4438   5.537   1.779   4.634
  329POPC   C2B 4439   5.530   1.946   5.071
  329POPC   C3B 4440   5.509   2.064   5.518
  329POPC   C4B 4441   5.692   1.766   5.768
  330POPC   NC3 4442  10.155   9.340   4.059
  330POPC   PO4 4443  10.026   9.933   3.752
  330POPC   GL1 4444  10.124   9.816   4.244
  330POPC   GL2 4445  10.478   9.787   4.250
  330POPC   C1A 4446  10.327   9.515   4.661
  330POPC   D2A 4447  10.242   9.393   5.116
  330POPC   C3A 4448  10.507   9.281   5.479
  330POPC   C4A 4449  10.557   9.486   5.891
  330POPC   C1B 4450  10.354  10.004   4.653
  330POPC   C2B 4451  10.162   9.939   5.064
  330POPC   C3B 4452  10.308   9.795   5.473
  330POPC   C4B 4453  10.611   9.972   5.762
  331POPC   NC3 4454   2.879  10.192   3.428
  331POPC   PO4 4455   3.076  10.311   4.003
  331POPC   GL1 4456   2.933  10.252   4.399
  331POPC   GL2 4457   2.741  10.544   4.340
  331POPC   C1A 4458   2.917  10.463   4.808
  331POPC   D2A 4459   2.952  10.434   5.230
  331POPC   C3A 4460   2.664  10.210   5.484
  331POPC   C4A 4461   2.881  10.253   5.841
  331POPC   C1B 4462   2.455  10.313   4.621
  331POPC   C2B 4463   2.447  10.359   5.041
  331POPC   C3B 4464   2.537  10.731   5.313
  331POPC   C4B 4465   2.543  10.632   5.755
  332POPC   NC3 4466   8.758   8.188   3.888
  332POPC   PO4 4467   9.216   7.809   3.702
  332POPC   GL1 4468   9.101   7.983   4.205
  332POPC   GL2 4469   9.039   8.339   4.324
  332POPC   C1A 4470   9.216   7.940   4.666
  332POPC   D2A 4471   9.189   7.811   5.140
  332POPC   C3A 4472   9.014   7.893   5.558
  332POPC   C4A 4473   9.202   7.702   5.907
  332POPC   C1B 4474   8.780   8.172   4.699
  332POPC   C2B 4475   8.740   8.075   5.165
  332POPC   C3B 4476   8.567   8.177   5.614
  332POPC   C4B 4477   8.472   8.338   6.061
  333POPC   NC3 4478   2.670   4.381   3.907
  333POPC   PO4 4479   3.158   4.525   4.265
  333POPC   GL1 4480   2.675   4.580   4.382
  333POPC   GL2 4481   2.468   4.271   4.366
  333POPC   C1A 4482   2.464   4.539   4.802
  333POPC   D2A 4483   2.701   4.418   5.186
  333POPC   C3A 4484   2.660   4.618   5.581
  333POPC   C4A 4485   2.729   4.741   5.981
  333POPC   C1B 4486   2.592   4.010   4.731
  333POPC   C2B 4487   2.751   3.910   5.138
  333POPC   C3B 4488   2.648   4.053   5.574
  333POPC   C4B 4489   2.865   4.197   5.956
  334POPC   NC3 4490   8.865   9.765   3.967
  334POPC   PO4 4491   8.432   9.379   4.231
  334POPC   GL1 4492   8.756   9.530   4.446
  334POPC   GL2 4493   8.781   9.891   4.438
  334POPC   C1A 4494   8.703   9.572   4.874
  334POPC   D2A 4495   8.735   9.486   5.301
  334POPC   C3A 4496   8.517   9.516   5.645
  334POPC   C4A 4497   8.867   9.477   5.908
  334POPC   C1B 4498   8.874  10.053   4.825
  334POPC   C2B 4499   9.030   9.866   5.174
  334POPC   C3B 4500   8.937   9.905   5.613
  334POPC   C4B 4501   9.123   9.907   6.014
  335POPC   NC3 4502   0.306   7.043   3.997
  335POPC   PO4 4503   0.032   7.617   3.824
  335POPC   GL1 4504   0.156   7.558   4.250
  335POPC   GL2 4505   0.490   7.469   4.267
  335POPC   C1A 4506   0.301   7.581   4.704
  335POPC   D2A 4507   0.319   7.320   5.054
  335POPC   C3A 4508   0.325   7.521   5.459
  335POPC   C4A 4509   0.167   7.375   5.858
  335POPC   C1B 4510   0.537   7.109   4.600
  335POPC   C2B 4511   0.670   6.921   5.004
  335POPC   C3B 4512   0.728   7.199   5.365
  335POPC   C4B 4513   0.694   7.353   5.806
  336POPC   NC3 4514   4.426   1.320   3.711
  336POPC   PO4 4515   4.597   1.485   4.216
  336POPC   GL1 4516   4.328   1.339   4.470
  336POPC   GL2 4517   4.346   0.990   4.397
  336POPC   C1A 4518   4.420   1.249   4.873
  336POPC   D2A 4519   4.185   1.318   5.218
  336POPC   C3A 4520   4.408   1.254   5.570
  336POPC   C4A 4521   4.433   1.406   5.987
  336POPC   C1B 4522   4.024   0.954   4.761
  336POPC   C2B 4523   3.878   0.917   5.212
  336POPC   C3B 4524   3.937   1.097   5.626
  336POPC   C4B 4525   3.903   1.216   6.054
  337POPC   NC3 4526   2.700   0.064   3.971
  337POPC   PO4 4527   2.906   0.692   3.844
  337POPC   GL1 4528   2.945   0.583   4.293
  337POPC   GL2 4529   2.931   0.248   4.413
  337POPC   C1A 4530   2.849   0.687   4.745
  337POPC   D2A 4531   2.648   0.831   5.161
  337POPC   C3A 4532   2.874   0.778   5.583
  337POPC   C4A 4533   2.797   0.554   6.001
  337POPC   C1B 4534   2.549   0.289   4.720
  337POPC   C2B 4535   2.534   0.331   5.196
  337POPC   C3B 4536   2.759   0.238   5.576
  337POPC   C4B 4537   2.603  11.496   5.931
  338W        W 4538   4.590   7.130   1.915
  339W        W 4539   5.159   6.008   0.013
  340W        W 4540   7.826   4.663  10.364
  341W        W 4541  10.041   0.281  10.633
  342W        W 4542   0.154   4.721   3.423
  343W        W 4543   7.467   3.860  10.491
  344W        W 4544  10.853   8.796  11.753
  345W        W 4545   8.556   3.214   8.925
  346W        W 4546   1.413   0.914   0.936
  347W        W 4547   1.230   6.556  10.806
  348W        W 4548   4.327   9.054   2.230
  349W        W 4549   7.681   6.473   2.733
  350W        W 4550  11.354   1.010   2.141
  351W        W 4551  10.077   2.551   3.882
  352W        W 4552   0.459  11.421   3.247
  353W        W 4553   2.233  10.432  10.442
  354W        W 4554  10.741   5.803  11.486
  355W        W 4555   3.833   7.657   0.921
  356W        W 4556  11.487   8.161  11.821
  357W        W 4557  11.115   7.975   2.201
  358W        W 4558   5.979   3.628   7.951
  359W        W 4559   5.958   4.083   3.919
  360W        W 4560   2.553   3.050   0.126
  361W        W 4561   9.170   5.270   2.900
  362W        W 4562   2.453  10.359   0.458
  363W        W 4563   2.563  10.903   3.509
  364W        W 4564   4.602   0.379   0.469
  365W        W 4565   6.071   0.288   2.686
  366W        W 4566   2.380   5.755   0.953
  367W        W 4567   9.368  11.148  10.299
  368W        W 4568   7.215   6.109  10.493
  369W        W 4569   5.864   6.832  11.492
  370W        W 4570  11.302  10.558  11.338
  371W        W 4571   2.178  10.831   3.161
  372W        W 4572   7.935   8.391   1.877
  373W        W 4573   7.110   4.760   1.404
  374W        W 4574   0.859   1.394  10.454
  375W        W 4575   5.620   0.550   0.038
  376W        W 4576  10.253   2.859   3.108
  377W        W 4577   2.590   8.754   3.673
  378W        W 4578   3.267   8.565   0.817
  379W        W 4579   5.204   2.417  10.745
  380W        W 4580   2.749   2.593   9.852
  381W        W 4581   2.649   4.601   3.407
  382W        W 4582   3.786   8.948   3.024
  383W        W 4583   6.114   0.467   9.234
  384W        W 4584   6.693   6.561   1.954
  385W        W 4585   5.831   4.113   8.174
  386W        W 4586   0.627   2.458  11.838
  387W        W 4587   1.712   5.362  10.402
  388W        W 4588   0.666   2.805   0.684
  389W        W 4589   3.214   1.524   0.016
  390W        W 4590   6.588   1.039   0.930
  391W        W 4591   6.071   7.416  10.289
  392W        W 4592   4.401   8.949   0.774
  393W        W 4593   2.643   4.135   9.793
  394W        W 4594   3.727   4.751  11.681
  395W        W 4595  10.789   6.737  11.111
  396W        W 4596   0.960  10.540   2.750
  397W        W 4597   9.641   0.372   1.962
  398W        W 4598   9.001   2.474  10.968
  399W        W 4599   9.264   8.984   2.992
  400W        W 4600   9.173  10.835   9.965
  401W        W 4601   8.974  11.320   1.707
  402W        W 4602   9.048   9.557   9.933
  403W        W 4603   5.199   9.144   1.289
  404W        W 4604   9.524  10.398  11.424
  405W        W 4605   7.690   5.165   0.751
  406W        W 4606   1.475   2.828   1.480
  407W        W 4607   3.825   4.676   2.717
  408W        W 4608   5.782  10.329  11.499
  409W        W 4609  10.481   3.311   9.047
  410W        W 4610   9.940  10.739  11.540
  411W        W 4611   4.234   1.743  10.603
  412W        W 4612   3.166   8.216   9.566
  413W        W 4613  10.529   4.598   1.427
  414W        W 4614   1.075   8.366   8.948
  415W        W 4615  11.346   4.362   0.588
  416W        W 4616  10.392   7.430   1.693
  417W        W 4617   6.656   7.537  11.432
  418W        W 4618   5.600   6.223   0.270
  419W        W 4619   4.169   2.838   0.434
  420W        W 4620   4.731   6.188   0.200
  421W        W 4621   8.074   9.986  10.901
  422W        W 4622   9.459  11.356   1.895
  423W        W 4623   4.326   0.187   9.798
  424W        W 4624   7.091   4.328   0.029
  425W        W 4625   9.163   7.321   3.452
  426W        W 4626   9.465   4.239  11.520
  427W        W 4627   5.431   3.577   9.140
  428W        W 4628  10.595   8.865   0.342
  429W        W 4629   5.639  11.245   2.193
  430W        W 4630   5.625   4.526   3.017
  431W        W 4631   5.007  11.461  10.610
  432W        W 4632   5.788   3.230  10.309
  433W        W 4633  10.959   8.060  11.101
  434W        W 4634   1.845   3.239   3.071
  435W        W 4635  11.216   0.409  10.794
  436W        W 4636   6.016   9.971  11.789
  437W        W 4637   3.608   5.152   8.092
  438W        W 4638   4.652   8.857   8.138
  439W        W 4639   2.259  10.265   9.863
  440W        W 4640   1.771   9.871   0.042
  441W        W 4641   7.020   2.656   1.635
  442W        W 4642  10.024   2.346  10.846
  443W        W 4643   0.331   0.388   9.009
  444W        W 4644   6.453   0.146  11.025
  445W        W 4645   6.478   3.799   9.894
  446W        W 4646   1.005   6.292   3.914
  447W        W 4647   9.284   9.419   8.959
  448W        W 4648   5.117   7.402   1.888
  449W        W 4649  10.218   7.654   0.847
  450W        W 4650   9.143   5.049  11.947
  451W        W 4651   4.985  10.580  10.567
  452W        W 4652   1.248   3.472  10.696
  453W        W 4653   2.685   4.020  11.945
  454W        W 4654   4.465   0.386   8.817
  455W        W 4655   4.650   3.261   2.686
  456W        W 4656   4.144   4.235  11.372
  457W        W 4657   2.664  10.278   0.925
  458W        W 4658  10.793   1.842  10.940
  459W        W 4659   6.996   9.716   3.499
  460W        W 4660  10.895   0.905   0.277
  461W        W 4661   9.797   1.283   9.764
  462W        W 4662   8.452   9.150   8.992
  463W        W 4663   2.543   5.377   1.703
  464W        W 4664   7.676   3.913   3.999
  465W        W 4665   0.872   6.626   8.389
  466W        W 4666   7.400   7.517  10.748
  467W        W 4667   2.199   6.494   3.272
  468W        W 4668   8.799   9.486   1.845
  469W        W 4669   9.530   0.585   9.819
  470W        W 4670   8.122   4.651  10.772
  471W        W 4671   2.109   2.286   0.217
  472W        W 4672  11.192   5.055  11.159
  473W        W 4673   8.376   5.620   0.283
  474W        W 4674   1.322   3.394  11.675
  475W        W 4675   2.340   3.696  10.014
  476W        W 4676   6.230   1.035   9.904
  477W        W 4677   6.623   6.938   2.304
  478W        W 4678  10.957  11.300   2.180
  479W        W 4679   3.498   6.184   1.749
  480W        W 4680   4.657   2.245  11.297
  481W        W 4681   9.512   0.317  11.438
  482W        W 4682   9.437   9.099  10.307
  483W        W 4683  10.437   8.674  11.457
  484W        W 4684   6.023   6.894   0.903
  485W        W 4685   2.457   8.169   9.116
  486W        W 4686   2.899  10.649   3.219
  487W        W 4687   5.755   3.556  11.467
  488W        W 4688   9.647   7.197   9.493
  489W        W 4689  10.565   7.027  11.899
  490W        W 4690   3.308   6.960  11.448
  491W        W 4691  11.306  11.106   0.065
  492W        W 4692   2.742   4.535   0.055
  493W        W 4693   6.591   4.071   9.409
  494W        W 4694   3.974   8.267   3.551
  495W        W 4695   1.257   9.923  10.752
  496W        W 4696   7.656  11.068   1.711
  497W        W 4697  10.042   3.714  11.607
  498W        W 4698  11.073   5.419  10.826
  499W        W 4699   7.260   4.179   2.389
  500W        W 4700   1.834   6.169  11.388
  501W        W 4701   9.743   9.003   0.914
  502W        W 4702   8.493   1.640  10.885
  503W        W 4703   9.444  11.271   2.779
  504W        W 4704   1.349   1.767   0.669
  505W        W 4705   4.280   9.156   1.245
  506W        W 4706   0.440   4.801  11.624
  507W        W 4707   0.599   4.205   0.730
  508W        W 4708  10.507  10.213   0.647
  509W        W 4709   0.777   0.297  11.849
  510W        W 4710   8.473   5.477   3.751
  511W        W 4711   0.852  10.770   9.864
  512W        W 4712   4.704   0.817   2.172
  513W        W 4713   3.602   8.552  11.731
  514W        W 4714   3.457   8.006   3.130
  515W        W 4715   4.183   3.345   2.853
  516W        W 4716   1.206   7.808   1.056
  517W        W 4717   8.870   1.387   3.150
  518W        W 4718   5.266   8.704   8.623
  519W        W 4719   8.087   1.165   9.287
  520W        W 4720   0.968  11.395   0.798
  521W        W 4721   6.804   5.658   2.389
  522W        W 4722   4.374   1.322   9.467
  523W        W 4723   2.147   6.574   1.284
  524W        W 4724   0.864   7.937   9.164
  525W        W 4725   3.557   0.472   2.359
  526W        W 4726   1.989   3.773   8.524
  527W        W 4727   7.156   1.401  11.412
  528W        W 4728   3.704   6.546   3.085
  529W        W 4729   0.836   6.631  10.001
  530W        W 4730   1.594   5.328   0.791
  531W        W 4731   1.591   2.681  11.641
  532W        W 4732   6.405   8.884  10.226
  533W        W 4733   3.125  11.046   3.466
  534W        W 4734  10.633   0.315   1.744
  535W        W 4735  10.011   8.599   9.745
  536W        W 4736   5.248   3.599  11.392
  537W        W 4737  10.581   3.101  11.567
  538W        W 4738   1.722   0.524   2.648
  539W        W 4739   5.539   3.564   4.247
  540W        W 4740   2.452   8.488  10.758
  541W        W 4741   1.759   7.908   3.029
  542W        W 4742   7.942   3.502   2.024
  543W        W 4743   9.642   9.645   0.145
  544W        W 4744   7.955  11.272   2.858
  545W        W 4745   9.995   7.421   0.460
  546W        W 4746   5.560   8.584  10.676
  547W        W 4747   2.119   0.962   9.395
  548W        W 4748   7.261   1.313   2.354
  549W        W 4749   7.185  10.359  10.847
  550W        W 4750   0.693   6.493   2.803
  551W        W 4751   2.324   1.733   2.425
  552W        W 4752   5.668   4.246  11.870
  553W        W 4753   2.040   5.234  11.751
  554W        W 4754   0.440   5.083   2.840
  555W        W 4755   4.159   8.549  10.522
  556W        W 4756   3.333   9.414   1.932
  557W        W 4757   5.232   8.285   2.979
  558W        W 4758  10.064   3.513   0.059
  559W        W 4759   0.748   3.666   2.836
  560W        W 4760   9.592   1.476  10.577
  561W        W 4761   4.357   6.542   1.729
  562W        W 4762  11.134   9.520   9.549
  563W        W 4763   9.291   9.469   3.129
  564W        W 4764   4.122  11.058   3.145
  565W        W 4765   6.998  11.039   1.554
  566W        W 4766   2.199   9.824  10.765
  567W        W 4767   4.082   2.620   2.328
  568W        W 4768   6.207   4.097   8.657
  569W        W 4769   3.246  11.496   2.205
  570W        W 4770   6.061   7.165   3.969
  571W        W 4771  10.469   6.494   2.849
  572W        W 4772   3.342   9.059   3.314
  573W        W 4773   6.662  11.065   0.509
  574W        W 4774   6.172   3.005   8.596
  575W        W 4775   5.574   5.715   9.990
  576W        W 4776   1.352   4.267   2.911
  577W        W 4777   7.625   0.491  11.577
  578W        W 4778   6.880   6.470   0.712
  579W        W 4779   2.324   4.811  10.970
  580W        W 4780   0.515   1.328   9.860
  581W        W 4781   5.955   0.578   9.873
  582W        W 4782   7.590   2.492   1.220
  583W        W 4783   3.737   2.288  11.735
  584W        W 4784   8.173   1.381   1.721
  585W        W 4785   0.746   9.106   3.031
  586W        W 4786   9.965  11.438   9.882
  587W        W 4787   4.985   1.902   3.302
  588W        W 4788   3.639   1.646   9.035
  589W        W 4789   7.335   7.152  11.532
  590W        W 4790   3.183   4.251   2.765
  591W        W 4791   5.647   7.586  10.522
  592W        W 4792  10.474   4.716   1.923
  593W        W 4793   5.140   5.549   0.305
  594W        W 4794   9.467   7.718   9.427
  595W        W 4795   4.961   1.421  11.539
  596W        W 4796   4.916   2.916   8.479
  597W        W 4797   0.316   9.048   9.251
  598W        W 4798   3.740   5.195   2.675
  599W        W 4799  10.368   4.755   2.410
  600W        W 4800   4.374   1.704  11.509
  601W        W 4801   2.262   3.604   1.802
  602W        W 4802  10.906   8.455  11.397
  603W        W 4803   3.761  11.321  10.853
  604W        W 4804   5.716   0.136   1.881
  605W        W 4805   1.609   1.868   1.774
  606W        W 4806   6.213   3.348  11.995
  607W        W 4807   5.055   8.102  11.263
  608W        W 4808   2.886   7.381   0.690
  609W        W 4809   3.526   2.886  11.273
  610W        W 4810   4.237   9.611   8.967
  611W        W 4811   5.619   6.552   1.177
  612W        W 4812  10.719   9.437  11.121
  613W        W 4813   3.725   7.500   3.099
  614W        W 4814   1.299   8.645  11.942
  615W        W 4815   0.189   3.033   9.347
  616W        W 4816   2.724   3.605   1.564
  617W        W 4817   3.187   2.904   2.298
  618W        W 4818   1.918   8.581   9.933
  619W        W 4819   4.788   2.990  11.822
  620W        W 4820   1.992   9.460   2.568
  621W        W 4821   4.062  10.288  11.822
  622W        W 4822   3.628   6.274  11.885
  623W        W 4823   1.266   9.062   0.717
  624W        W 4824   5.157   1.031   9.970
  625W        W 4825   9.038   8.104   2.911
  626W        W 4826   2.732   8.356   1.543
  627W        W 4827   0.894   3.163  11.011
  628W        W 4828   9.155   0.970   8.638
  629W        W 4829   4.315   8.075  11.963
  630W        W 4830   6.087   8.684   3.658
  631W        W 4831   7.707   2.186  11.717
  632W        W 4832   1.363   9.845   2.996
  633W        W 4833   3.292   0.403   1.899
  634W        W 4834   4.129   6.067   8.336
  635W        W 4835   3.188   6.171   0.740
  636W        W 4836   7.630   6.898   9.926
  637W        W 4837  11.231   5.696   2.772
  638W        W 4838   1.429   9.495  10.493
  639W        W 4839   7.414  11.161  11.856
  640W        W 4840   1.877   2.402  10.249
  641W        W 4841   9.343   9.893  11.361
  642W        W 4842   2.329  11.049   9.116
  643W        W 4843   8.385   6.157   3.158
  644W        W 4844   3.559   3.396   4.007
  645W        W 4845   6.472   1.815   0.470
  646W        W 4846   5.292   7.641   0.814
  647W        W 4847  10.842   6.385   3.517
  648W        W 4848   9.401   0.835   9.070
  649W        W 4849   3.626   4.996  10.832
  650W        W 4850   5.966   9.920  11.197
  651W        W 4851   1.695   4.141   9.406
  652W        W 4852   1.611   7.087   0.970
  653W        W 4853   8.136   3.377   2.647
  654W        W 4854   7.346   0.918  11.420
  655W        W 4855   7.078   1.836   1.609
  656W        W 4856   5.216   2.671  11.790
  657W        W 4857   7.925   8.973   0.832
  658W        W 4858  10.035   4.382   9.374
  659W        W 4859   9.851   3.865   3.050
  660W        W 4860   7.492   6.029   9.879
  661W        W 4861   8.510   1.392  11.478
  662W        W 4862   1.474   8.169   1.288
  663W        W 4863   7.999  10.783   0.581
  664W        W 4864   5.285   0.657   0.794
  665W        W 4865   8.227   6.119   0.392
  666W        W 4866   9.085   8.087  10.764
  667W        W 4867   5.448   6.468   9.172
  668W        W 4868   6.114   9.848   8.619
  669W        W 4869  10.029   5.426   8.996
  670W        W 4870  11.224   3.754   2.707
  671W        W 4871   7.589   4.720   1.697
  672W        W 4872   8.563   8.997  11.981
  673W        W 4873   2.601   6.206   1.949
  674W        W 4874   1.269   6.566  10.294
  675W        W 4875   4.748   9.343   1.170
  676W        W 4876   5.216   9.406  10.027
  677W        W 4877   5.196   8.485   2.082
  678W        W 4878  11.425   2.943   8.909
  679W        W 4879   0.797   9.105   0.510
  680W        W 4880   5.889   2.051   2.838
  681W        W 4881   4.049   2.879  11.114
  682W        W 4882   7.064   0.092   9.246
  683W        W 4883   1.782   7.971   0.309
  684W        W 4884  10.945   6.367   9.304
  685W        W 4885   1.296   6.483   9.768
  686W        W 4886   9.007  10.874   2.016
  687W        W 4887   8.070   7.202   0.676
  688W        W 4888   1.210  10.862   9.502
  689W        W 4889   1.456   6.966  10.988
  690W        W 4890   8.597   9.796   9.814
  691W        W 4891   8.856   4.075  11.729
  692W        W 4892   6.246   2.182   3.210
  693W        W 4893   6.042   9.439   0.823
  694W        W 4894   1.118   0.279  10.868
  695W        W 4895   4.738   5.715   0.614
  696W        W 4896   4.234   7.524  10.464
  697W        W 4897   8.917   8.684   8.482
  698W        W 4898   3.047   5.277   1.596
  699W        W 4899   6.377   3.254   1.265
  700W        W 4900   6.514   8.358  10.994
  701W        W 4901   4.060   7.222   2.780
  702W        W 4902  10.770   4.081  10.101
  703W        W 4903   2.653   1.209  10.827
  704W        W 4904   9.145   5.941  10.757
  705W        W 4905   6.997   0.589  11.214
  706W        W 4906   7.134   6.099   2.297
  707W        W 4907   3.104   3.114   9.516
  708W        W 4908   5.023   5.174  11.503
  709W        W 4909   4.140   0.303   1.520
  710W        W 4910   0.850   1.245   1.251
  711W        W 4911   4.658   2.837   3.428
  712W        W 4912  10.403   6.424   9.018
  713W        W 4913   2.621   6.179   2.858
  714W        W 4914   9.974   8.869  11.589
  715W        W 4915   8.242   0.273  10.518
  716W        W 4916   8.786   0.280   1.855
  717W        W 4917   6.514   8.204   2.004
  718W        W 4918   4.152   6.056   0.866
  719W        W 4919   6.304   1.420  11.654
  720W        W 4920   7.965   6.435   0.013
  721W        W 4921   2.656   3.300   0.576
  722W        W 4922   1.243   0.774   9.929
  723W        W 4923   4.673   5.671  11.524
  724W        W 4924   2.921   3.797   2.841
  725W        W 4925  10.960   1.631   2.779
  726W        W 4926   6.968   7.469  11.862
  727W        W 4927   3.803  10.836   8.979
  728W        W 4928   4.907  11.199   3.474
  729W        W 4929   4.389   0.713  11.654
  730W        W 4930  10.441   6.896  10.741
  731W        W 4931   6.594   1.566   0.913
  732W        W 4932   0.232   3.515   9.891
  733W        W 4933   4.972  10.378   0.001
  734W        W 4934   0.753   7.145   0.524
  735W        W 4935   6.123   2.751   1.236
  736W        W 4936   8.856   1.479   1.747
  737W        W 4937   1.232  10.102   3.460
  738W        W 4938  10.923   1.298  10.659
  739W        W 4939   1.637  11.452  10.120
  740W        W 4940   1.111   7.292   1.069
  741W        W 4941   2.112   6.183   0.854
  742W        W 4942   4.539   3.263   2.154
  743W        W 4943  10.108  10.813  10.843
  744W        W 4944  10.360   8.836  10.957
  745W        W 4945   8.110  10.153  10.428
  746W        W 4946   9.969   7.178   1.879
  747W        W 4947   5.465   8.478   9.052
  748W        W 4948   3.821  10.457   1.473
  749W        W 4949   4.809   1.002  11.776
  750W        W 4950   1.307  10.647   1.908
  751W        W 4951   1.824   2.387   2.925
  752W        W 4952   6.796   5.204   1.314
  753W        W 4953   9.945   8.591   9.247
  754W        W 4954   3.327   4.724   2.624
  755W        W 4955   4.584   3.763   1.969
  756W        W 4956   4.268   2.434  10.997
  757W        W 4957   8.598   1.951   9.374
  758W        W 4958  11.280   4.237   9.374
  759W        W 4959   9.340   5.464  10.013
  760W        W 4960   8.393   8.082  10.001
  761W        W 4961   6.975   4.166   0.580
  762W        W 4962   1.324   5.343   1.262
  763W        W 4963   3.481   3.211  10.374
  764W        W 4964   4.784   0.371   9.406
  765W        W 4965   9.741   6.704   8.231
  766W        W 4966   8.190   0.438  10.003
  767W        W 4967   6.336   5.978  11.474
  768W        W 4968   5.180   4.712  11.734
  769W        W 4969   2.261   3.836   8.971
  770W        W 4970  11.500  11.217   0.972
  771W        W 4971   9.912   6.145   9.020
  772W        W 4972   1.150   9.515   9.010
  773W        W 4973   6.228   5.323   1.772
  774W        W 4974   7.899   9.821  11.840
  775W        W 4975   4.551   2.244  10.023
  776W        W 4976   0.413   0.242   1.958
  777W        W 4977   7.521   0.930   2.973
  778W        W 4978   7.461   1.489  10.469
  779W        W 4979   0.053   7.380   0.424
  780W        W 4980  10.700   2.970   9.410
  781W        W 4981   8.532   2.364  11.188
  782W        W 4982   5.744   3.605   2.270
  783W        W 4983   7.209   8.445  11.912
  784W        W 4984   7.871   4.274   1.562
  785W        W 4985   0.180   6.132   9.927
  786W        W 4986   4.809   4.170   9.613
  787W        W 4987   7.683   9.539   9.800
  788W        W 4988   5.577   0.307  11.568
  789W        W 4989   5.466   9.876   8.507
  790W        W 4990  11.259   2.221  10.603
  791W        W 4991   7.825   7.990   0.579
  792W        W 4992  11.061   7.004  11.976
  793W        W 4993   7.976   4.279   2.840
  794W        W 4994   6.724   8.127   0.185
  795W        W 4995  11.274   0.304   9.916
  796W        W 4996   7.618  10.541   2.634
  797W        W 4997   4.561   0.823  10.325
  798W        W 4998   7.465   5.158  11.747
  799W        W 4999   7.230   0.877   9.806
  800W        W 5000   6.676  11.320   9.076
  801W        W 5001   7.968   6.163   8.743
  802W        W 5002   4.594   3.066   0.288
  803W        W 5003   3.041   8.996  11.543
  804W        W 5004   7.549   1.688  11.072
  805W        W 5005   8.852   8.053   1.960
  806W        W 5006  11.298  10.795   0.776
  807W        W 5007   0.815   7.558  11.817
  808W        W 5008   4.713   7.489  11.293
  809W        W 5009   1.047   8.001   9.631
  810W        W 5010   9.830   6.541  11.740
  811W        W 5011   0.100  11.440  11.780
  812W        W 5012  10.527   0.337   9.282
  813W        W 5013   5.392   6.552   2.031
  814W        W 5014   2.888  10.118   1.815
  815W        W 5015   5.360   6.777  11.578
  816W        W 5016  10.247   5.638   9.428
  817W        W 5017  11.082   4.468  10.428
  818W        W 5018   6.476   3.768   8.955
  819W        W 5019   4.204   6.515   2.220
  820W        W 5020   3.996   6.654   9.995
  821W        W 5021   8.902   9.923  11.136
  822W        W 5022   8.934   1.098  11.439
  823W        W 5023   9.736   8.151   1.750
  824W        W 5024   3.726   9.515   2.371
  825W        W 5025   0.240   7.586   1.861
  826W        W 5026   4.739   9.827   8.868
  827W        W 5027   7.090   9.392  11.672
  828W        W 5028   5.408  10.310  10.273
  829W        W 5029   5.482   3.772   8.676
  830W        W 5030  10.465  11.324   9.864
  831W        W 5031  11.480   8.469  10.794
  832W        W 5032   1.325  10.872   2.976
  833W        W 5033   8.893   1.409  10.693
  834W        W 5034   7.264   0.062   9.707
  835W        W 5035  10.316   5.659   0.400
  836W        W 5036   8.605   3.766   8.201
  837W        W 5037  10.348   7.297  10.359
  838W        W 5038  10.351   2.910   9.762
  839W        W 5039   0.448   2.222  10.792
  840W        W 5040  10.871   0.046   0.807
  841W        W 5041   7.870   5.728   0.316
  842W        W 5042  10.891   0.698   9.903
  843W        W 5043   4.077   5.518  11.801
  844W        W 5044   3.727   8.944  10.102
  845W        W 5045   9.543  10.563  11.893
  846W        W 5046   4.669   0.492   0.962
  847W        W 5047   0.995   2.684   2.167
  848W        W 5048   1.964   0.433  11.064
  849W        W 5049  10.893   6.188  11.826
  850W        W 5050   9.383   5.644   0.689
  851W        W 5051   5.944   3.687   8.966
  852W        W 5052   1.639   9.376   2.165
  853W        W 5053   0.030   7.165   3.523
  854W        W 5054   8.016   7.187   2.545
  855W        W 5055   0.847   3.267  11.501
  856W        W 5056   6.547   0.306   1.936
  857W        W 5057   8.078   0.510   3.278
  858W        W 5058  10.714   9.791  11.500
  859W        W 5059   7.702   2.192   2.126
  860W        W 5060   5.097   6.996  10.439
  861W        W 5061   9.660   2.060   1.815
  862W        W 5062   6.657  11.251  10.745
  863W        W 5063   4.406   9.769   0.961
  864W        W 5064   5.923   6.632  10.384
  865W        W 5065   1.255   7.551   9.183
  866W        W 5066   1.873  10.603   9.846
  867W        W 5067  10.751   8.365   0.364
  868W        W 5068   8.884   9.938   1.080
  869W        W 5069   0.671   5.982   2.830
  870W        W 5070  10.834   9.585  10.089
  871W        W 5071   9.997  10.076   1.662
  872W        W 5072   2.634   2.125   3.653
  873W        W 5073   5.729  11.483   3.326
  874W        W 5074  10.960  11.147   9.023
  875W        W 5075   7.957   1.817   1.908
  876W        W 5076   2.973   0.670   9.554
  877W        W 5077  10.831   9.155   9.742
  878W        W 5078   4.731   2.018   2.464
  879W        W 5079   5.486   7.183  11.872
  880W        W 5080   8.563   3.169  11.365
  881W        W 5081   9.956   9.965   9.267
  882W        W 5082   0.295   6.117   9.427
  883W        W 5083   4.112   1.605  11.938
  884W        W 5084   8.481   1.725   8.932
  885W        W 5085  10.478   9.858   0.290
  886W        W 5086   4.187   7.229  10.868
  887W        W 5087   5.553   9.907   2.473
  888W        W 5088   4.988   6.890  11.900
  889W        W 5089   5.012   4.440   1.286
  890W        W 5090   4.464  11.405   2.857
  891W        W 5091   7.182   7.371   2.596
  892W        W 5092  11.164  10.281   2.320
  893W        W 5093   0.515   9.999   1.873
  894W        W 5094   0.806   0.648   9.082
  895W        W 5095   5.654   0.892  11.660
  896W        W 5096   7.856  10.393   0.284
  897W        W 5097   6.841   7.459   1.697
  898W        W 5098   9.442   7.312   1.862
  899W        W 5099   6.479   3.235   9.594
  900W        W 5100   6.222   7.044   3.091
  901W        W 5101   6.190   3.538  10.271
  902W        W 5102   3.391   9.337   0.293
  903W        W 5103   3.863   1.653  10.955
  904W        W 5104   2.007   0.455   9.524
  905W        W 5105   1.925   1.592   2.679
  906W        W 5106   5.193   6.951   9.123
  907W        W 5107  10.594   5.013  10.310
  908W        W 5108   8.949   9.327   9.338
  909W        W 5109   1.427   3.115   9.769
  910W        W 5110   3.999   3.733   2.039
  911W        W 5111   5.888   7.496   9.325
  912W        W 5112   6.803   7.836   3.242
  913W        W 5113   6.454   9.998   2.961
  914W        W 5114   0.928   3.687   9.296
  915W        W 5115   5.626  10.291  11.029
  916W        W 5116   3.532   0.787  10.447
  917W        W 5117   7.130   6.910   9.988
  918W        W 5118   9.730  11.491  10.372
  919W        W 5119   4.960   8.315   0.247
  920W        W 5120   7.094   0.586   2.871
  921W        W 5121   0.342   7.343  10.314
  922W        W 5122   3.592  10.356   2.545
  923W        W 5123   6.941   7.381   9.798
  924W        W 5124   9.107   6.428   8.366
  925W        W 5125   3.914   9.828  11.549
  926W        W 5126  10.434   7.647  11.529
  927W        W 5127   9.915   6.679  10.740
  928W        W 5128   2.809   1.412   3.239
  929W        W 5129   2.982   9.814   9.497
  930W        W 5130   7.609   6.697   0.324
  931W        W 5131   9.372  10.611   0.374
  932W        W 5132   0.245   4.592   0.806
  933W        W 5133  11.072   2.672  10.767
  934W        W 5134   1.851  10.455   2.638
  935W        W 5135   2.464   0.702   1.620
  936W        W 5136   9.816   4.127  11.892
  937W        W 5137  10.022   3.670  11.105
  938W        W 5138   1.445   7.607   3.341
  939W        W 5139   5.048   3.649  10.072
  940W        W 5140   8.636  10.544   0.882
  941W        W 5141   1.894   8.383   1.544
  942W        W 5142   9.349   2.881   1.537
  943W        W 5143   9.312   5.697   8.479
  944W        W 5144   6.743   7.499   0.748
  945W        W 5145   3.134   7.489   0.220
  946W        W 5146   4.752   9.558   3.200
  947W        W 5147   4.484   1.204  11.457
  948W        W 5148   7.650   3.350   2.443
  949W        W 5149   3.130  10.368  11.818
  950W        W 5150   6.708   8.989   9.795
  951W        W 5151   0.330   2.619   9.994
  952W        W 5152   2.322   7.168   9.037
  953W        W 5153   6.239   3.763  11.448
  954W        W 5154   0.720   7.278   2.683
  955W        W 5155   3.620   9.407   0.741
  956W        W 5156   0.518   1.747   9.009
  957W        W 5157  11.425   0.015   8.877
  958W        W 5158   6.742   9.789   0.351
  959W        W 5159   5.896   7.323  11.616
  960W        W 5160   4.966   7.974  10.675
  961W        W 5161   3.321   2.173   9.179
  962W        W 5162   3.688   1.964  11.323
  963W        W 5163   7.284   3.094  10.108
  964W        W 5164   7.713   9.552   0.249
  965W        W 5165   9.990   4.956   9.229
  966W        W 5166   4.510  10.993   0.845
  967W        W 5167   9.789   2.388  11.307
  968W        W 5168  10.770   9.391   9.208
  969W        W 5169   5.278   5.013   0.436
  970W        W 5170   9.119   5.962  10.240
  971W        W 5171   6.100   9.458   2.983
  972W        W 5172  11.312   6.513  11.807
  973W        W 5173   0.998   0.288   9.584
  974W        W 5174   1.010   0.506  10.418
  975W        W 5175   7.323   7.926  10.426
  976W        W 5176   0.240   0.763   2.823
  977W        W 5177   6.162   7.580  11.268
  978W        W 5178   4.522   4.527   1.405
  979W        W 5179  10.370  10.809   2.000
  980W        W 5180   3.055   0.770   1.186
  981W        W 5181   8.643   4.727   1.723
  982W        W 5182   4.730   7.560  10.291
  983W        W 5183   8.623   4.983  11.937
  984W        W 5184   3.213   7.402  11.713
  985W        W 5185   7.329   2.279   1.777
  986W        W 5186   8.434   2.770   3.608
  987W        W 5187   5.613  10.844   9.495
  988W        W 5188  11.358   8.643  11.638
  989W        W 5189   8.959   4.507   8.207
  990W        W 5190   9.481   0.322   1.003
  991W        W 5191   6.922   5.499   0.127
  992W        W 5192   3.900   2.284   2.794
  993W        W 5193   8.083   6.562   1.349
  994W        W 5194   3.901   6.678   8.982
  995W        W 5195   5.251  11.445   9.681
  996W        W 5196   6.919   8.575   1.313
  997W        W 5197  10.855  10.111  11.918
  998W        W 5198   1.920   5.025  10.729
  999W        W 5199   4.307   8.166   1.392
 1000W        W 5200   0.899   5.062   2.643
 1001W        W 5201  10.389   8.985  11.876
 1002W        W 5202   2.672   1.200  10.319
 1003W        W 5203   8.912   2.778   1.790
 1004W        W 5204   7.767   9.096   2.677
 1005W        W 5205   7.102   3.112  10.599
 1006W        W 5206  11.026   5.693  11.879
 1007W        W 5207   2.747   3.120   9.880
 1008W        W 5208   3.987   0.813   1.661
 1009W        W 5209   7.271   8.988  11.235
 1010W        W 5210   7.606   3.608  10.928
 1011W        W 5211   2.725   4.114   1.589
 1012W        W 5212   1.384   3.991   3.350
 1013W        W 5213  10.912  10.608   1.708
 1014W        W 5214   0.821   6.044   2.333
 1015W        W 5215  10.074   8.210   8.908
 1016W        W 5216   3.707  10.446   1.984
 1017W        W 5217  10.783   2.357   9.278
 1018W        W 5218   0.534   0.485   9.485
 1019W        W 5219   6.184   0.206   3.171
 1020W        W 5220   5.264   7.234   2.790
 1021W        W 5221   9.427  10.598   3.206
 1022W        W 5222   0.071   5.925   3.617
 1023W        W 5223   6.018   9.921   3.252
 1024W        W 5224   5.202   6.509   9.624
 1025W        W 5225   6.707  10.946  10.307
 1026W        W 5226   7.939   2.242  10.268
 1027W        W 5227   0.185  10.916   1.779
 1028W        W 5228   9.072   5.092   8.114
 1029W        W 5229   5.692   3.951   0.310
 1030W        W 5230   0.847   2.771   3.179
 1031W        W 5231   1.351   2.485  10.394
 1032W        W 5232   9.111   2.041   9.464
 1033W        W 5233   6.866   8.128  10.694
 1034W        W 5234   2.973   8.044   0.002
 1035W        W 5235   4.094   0.120   2.277
 1036W        W 5236   9.409   3.716   8.983
 1037W        W 5237  10.786   6.587   0.118
 1038W        W 5238   8.269   4.590   0.725
 1039W        W 5239   0.915  11.141   8.999
 1040W        W 5240  11.037   9.586   8.831
 1041W        W 5241   8.871   7.688   3.208
 1042W        W 5242   0.916   1.992   8.631
 1043W        W 5243   5.920   1.309   1.229
 1044W        W 5244   5.742   5.780   2.524
 1045W        W 5245   7.443   8.576   9.632
 1046W        W 5246  11.232   0.736   2.557
 1047W        W 5247   9.022   9.000  10.738
 1048W        W 5248   5.547   4.514  11.233
 1049W        W 5249   2.899   0.403   0.783
 1050W        W 5250   4.181  10.084   8.736
 1051W        W 5251   3.208   6.737  10.779
 1052W        W 5252   0.445  11.467   8.723
 1053W        W 5253   7.043   0.753   1.864
 1054W        W 5254   6.110   0.150   3.660
 1055W        W 5255   1.633   7.248  10.168
 1056W        W 5256   4.743   8.617   8.602
 1057W        W 5257   3.515   0.276   3.228
 1058W        W 5258   3.222   5.760   1.541
 1059W        W 5259   7.281   6.109   1.443
 1060W        W 5260   6.204   2.222   1.250
 1061W        W 5261   3.698   8.455   3.164
 1062W        W 5262   7.610   9.721   2.305
 1063W        W 5263   4.827   9.629  10.257
 1064W        W 5264   5.499   7.590   1.253
 1065W        W 5265   7.480   5.010   9.432
 1066W        W 5266  11.377   0.808  10.013
 1067W        W 5267   3.358   9.568   3.191
 1068W        W 5268   5.599   7.500   1.731
 1069W        W 5269   2.825   4.556  11.169
 1070W        W 5270   9.832   1.865  11.334
 1071W        W 5271   0.198   1.321   8.902
 1072W        W 5272   9.544   3.100  11.071
 1073W        W 5273   1.440   3.891  10.449
 1074W        W 5274   4.286   4.167   0.626
 1075W        W 5275   5.647  10.368   2.264
 1076W        W 5276   9.109   3.217   2.590
 1077W        W 5277   5.834  11.111   1.733
 1078W        W 5278   1.223   2.775   3.513
 1079W        W 5279  10.912  11.314  10.810
 1080W        W 5280   7.632  11.314   2.167
 1081W        W 5281   7.059   1.089   2.783
 1082W        W 5282   2.559   4.360  11.571
 1083W        W 5283   0.975   4.569  10.831
 1084W        W 5284   2.111   1.486   8.410
 1085W        W 5285   7.263   2.225  11.932
 1086W        W 5286   0.784   3.729   1.261
 1087W        W 5287   9.781   9.471   1.969
 1088W        W 5288   7.743   3.893  11.356
 1089W        W 5289   6.450   7.465   3.220
 1090W        W 5290   8.563   5.166   0.463
 1091W        W 5291   4.654   9.162   3.569
 1092W        W 5292   4.319   6.422   9.536
 1093W        W 5293   4.206   4.134   1.178
 1094W        W 5294   8.083   5.167   3.904
 1095W        W 5295   7.137   3.936   9.479
 1096W        W 5296   2.861   1.271   9.271
 1097W        W 5297   5.524   3.258   3.056
 1098W        W 5298   6.968   0.976   9.360
 1099W        W 5299   7.985   9.436   2.994
 1100W        W 5300   4.500   6.503  10.000
 1101W        W 5301   5.189   2.376   1.496
 1102W        W 5302   4.536   6.548  11.491
 1103W        W 5303   7.740   7.555   0.795
 1104W        W 5304   5.404  10.388   0.324
 1105W        W 5305  10.948   2.276  11.990
 1106W        W 5306   5.076   2.054  10.411
 1107W        W 5307   4.645   5.624  11.006
 1108W        W 5308   2.891   0.879   2.608
 1109W        W 5309   1.189   0.446   0.208
 1110W        W 5310  10.488   0.802   1.882
 1111W        W 5311   6.076   7.892  10.522
 1112W        W 5312   5.163   4.434   3.550
 1113W        W 5313   0.442   6.244   8.851
 1114W        W 5314   3.805   4.058   0.822
 1115W        W 5315   4.924   2.708   8.938
 1116W        W 5316   3.315   9.138  10.566
 1117W        W 5317   6.635   9.077  11.719
 1118W        W 5318   5.699   3.131  11.766
 1119W        W 5319   5.069   4.637   2.221
 1120W        W 5320   5.297   6.152   9.986
 1121W        W 5321   4.560   5.114  10.732
 1122W        W 5322   5.238   0.302   1.673
 1123W        W 5323   2.612  10.926   1.572
 1124W        W 5324   1.806   7.814  10.919
 1125W        W 5325   3.637   0.737   0.208
 1126W        W 5326   9.335   0.371  11.952
 1127W        W 5327   4.949   0.249   8.875
 1128W        W 5328   8.161   8.931  11.232
 1129W        W 5329   7.460   0.154  11.958
 1130W        W 5330  10.343  10.407   3.095
 1131W        W 5331   0.612   8.790   1.289
 1132W        W 5332   7.538   9.357   3.286
 1133W        W 5333   0.523   8.165   2.169
 1134W        W 5334  10.449   6.940   1.862
 1135W        W 5335   6.454   0.091  11.913
 1136W        W 5336   5.797   7.500   2.199
 1137W        W 5337   6.962   6.517  11.777
 1138W        W 5338   9.882   8.070   1.275
 1139W        W 5339   6.046   9.701   9.102
 1140W        W 5340   7.239  10.978   3.253
 1141W        W 5341   5.242  11.272   0.436
 1142W        W 5342   4.509  11.485  10.628
 1143W        W 5343  10.467   1.003   8.817
 1144W        W 5344   6.224   2.985   1.702
 1145W        W 5345  11.339   2.672   1.396
 1146W        W 5346   0.917   7.027   0.039
 1147W        W 5347   9.570  10.774   2.738
 1148W        W 5348  10.864   1.118  10.182
 1149W        W 5349   3.472   0.851   1.698
 1150W        W 5350   8.842   2.433   0.907
 1151W        W 5351   8.474  10.251   1.302
 1152W        W 5352   0.974   7.106   9.251
 1153W        W 5353   7.439   1.045   0.787
 1154W        W 5354   6.636   7.620   0.272
 1155W        W 5355   5.098   9.921  11.754
 1156W        W 5356  11.051   3.205   1.317
 1157W        W 5357   1.402   1.471  10.643
 1158W        W 5358   5.119   1.681   2.272
 1159W        W 5359   0.182   6.502   0.536
 1160W        W 5360   0.354   6.678  11.535
 1161W        W 5361   4.801   3.351  11.444
 1162W        W 5362   4.797  11.318  11.532
 1163W        W 5363   7.957   4.516   2.040
 1164W        W 5364   5.176   0.897   2.473
 1165W        W 5365   9.776   0.909   1.101
 1166W        W 5366   8.774   3.590   8.646
 1167W        W 5367   4.108   2.360   9.809
 1168W        W 5368   2.468   1.877   0.961
 1169W        W 5369   0.478  10.872   3.391
 1170W        W 5370   0.113   8.235  10.363
 1171W        W 5371   2.312   9.649   8.923
 1172W        W 5372   5.038   5.684   1.343
 1173W        W 5373   9.309   4.247   9.037
 1174W        W 5374  11.288   5.227   0.529
 1175W        W 5375   1.735   1.058   8.821
 1176W        W 5376   3.584   7.238   1.026
 1177W        W 5377   3.637   4.943   9.429
 1178W        W 5378   7.383  10.889   1.268
 1179W        W 5379   3.114   1.156  11.083
 1180W        W 5380   9.893   9.013  11.097
 1181W        W 5381   3.455   7.466   9.801
 1182W        W 5382  11.238   1.853  11.906
 1183W        W 5383  11.486   1.293   9.812
 1184W        W 5384   7.984   4.667   1.242
 1185W        W 5385   7.891  10.679  10.501
 1186W        W 5386  10.014   5.220   2.935
 1187W        W 5387   7.481   4.099  10.946
 1188W        W 5388   0.072   0.844  11.748
 1189W        W 5389   5.839   1.322  11.853
 1190W        W 5390   2.781   4.054  10.992
 1191W        W 5391   6.787   8.254  11.636
 1192W        W 5392   9.224   1.127  10.451
 1193W        W 5393   4.828   0.148   9.874
 1194W        W 5394   8.063   5.192   1.399
 1195W        W 5395   5.021  10.933   1.821
 1196W        W 5396   8.304  10.979   0.945
 1197W        W 5397  10.262   8.949   0.997
 1198W        W 5398  11.254   5.040   3.399
 1199W        W 5399   1.779   5.251   8.962
 1200W        W 5400   2.562   7.986   0.946
 1201W        W 5401   6.153   6.683   3.773
 1202W        W 5402   7.035   5.655   1.441
 1203W        W 5403   8.711   4.064   2.295
 1204W        W 5404   0.025   1.862   9.108
 1205W        W 5405   9.120   2.326   2.982
 1206W        W 5406   1.421   1.758   0.171
 1207W        W 5407   1.740   2.363   1.773
 1208W        W 5408   0.834   9.793   9.886
 1209W        W 5409   6.940   9.893  10.905
 1210W        W 5410   4.507   4.727   8.322
 1211W        W 5411   7.907   8.895  10.398
 1212W        W 5412   4.540   3.824   0.893
 1213W        W 5413   8.979   9.870  10.616
 1214W        W 5414   1.980   7.549  11.335
 1215W        W 5415   6.040   3.607   4.109
 1216W        W 5416   0.001   0.403  10.379
 1217W        W 5417   8.016  10.772  11.541
 1218W        W 5418   5.879   3.184   1.379
 1219W        W 5419   2.266   4.067  10.579
 1220W        W 5420   0.671   8.723   9.029
 1221W        W 5421   6.262   4.532   9.405
 1222W        W 5422  11.374   9.797   1.604
 1223W        W 5423   1.822  10.101  11.575
 1224W        W 5424   0.897   1.922   9.337
 1225W        W 5425   8.461   9.481   2.807
 1226W        W 5426   5.463   0.883   9.590
 1227W        W 5427   5.434   3.176   1.144
 1228W        W 5428   9.284   2.085   0.421
 1229W        W 5429   5.746   9.003   2.025
 1230W        W 5430  10.023   9.926   2.686
 1231W        W 5431   6.586   4.220   3.131
 1232W        W 5432   9.951   9.823   1.197
 1233W        W 5433   9.130   0.624  10.394
 1234W        W 5434   3.770   8.022   9.999
 1235W        W 5435   8.785   2.194   0.314
 1236W        W 5436   9.079   9.487   1.383
 1237W        W 5437   1.812   2.896  10.098
 1238W        W 5438   8.957   7.215   9.970
 1239W        W 5439   5.625   9.535   8.861
 1240W        W 5440   3.127   2.374  10.123
 1241W        W 5441   1.273   4.682   0.125
 1242W        W 5442  -0.001   1.889   1.951
 1243W        W 5443   9.482   5.172   9.066
 1244W        W 5444  11.193  11.264   0.547
 1245W        W 5445   2.580  10.760   9.562
 1246W        W 5446   8.529   9.540   0.780
 1247W        W 5447   3.868   0.409   9.681
 1248W        W 5448   5.802   4.700  11.648
 1249W        W 5449   0.823   0.073   0.325
 1250W        W 5450   7.208   2.307   9.347
 1251W        W 5451   2.580   2.308   0.407
 1252W        W 5452   3.193   1.743   2.548
 1253W        W 5453  10.869   7.981  11.594
 1254W        W 5454   8.481   1.813   1.919
 1255W        W 5455   9.351   7.643   3.078
 1256W        W 5456   8.605   5.784  11.837
 1257W        W 5457   5.612   2.163  10.930
 1258W        W 5458   2.154   6.583   8.519
 1259W        W 5459  10.832   4.182   9.135
 1260W        W 5460   4.811  10.321   9.154
 1261W        W 5461   3.373   6.078  10.212
 1262W        W 5462  11.348   2.407   2.705
 1263W        W 5463   1.094   1.804  10.315
 1264W        W 5464   8.907   9.962   2.067
 1265W        W 5465   3.246   1.614   9.632
 1266W        W 5466   0.783  10.686   8.786
 1267W        W 5467  10.523   1.421  11.004
 1268W        W 5468  11.366   8.811  11.150
 1269W        W 5469   8.778   3.193   3.559
 1270W        W 5470   2.150  11.352   1.339
 1271W        W 5471   3.466  11.160   2.560
 1272W        W 5472   5.993   4.235  11.473
 1273W        W 5473   2.280   9.025   0.990
 1274W        W 5474   0.890   0.465   2.673
 1275W        W 5475   7.522  11.041   2.605
 1276W        W 5476   3.777   8.210   8.727
 1277W        W 5477   6.104   6.547   0.253
 1278W        W 5478  11.369   7.418  11.955
 1279W        W 5479   1.568   4.407   8.966
 1280W        W 5480   5.500  11.364   2.674
 1281W        W 5481  11.453   7.593   1.127
 1282W        W 5482   6.214   4.814   0.778
 1283W        W 5483   4.651   3.570  10.959
 1284W        W 5484   8.517   2.456   1.320
 1285W        W 5485   1.950  10.875  10.931
 1286W        W 5486   7.728   4.405   3.264
 1287W        W 5487   6.663   8.385   8.979
 1288W        W 5488   7.632   2.202   2.659
 1289W        W 5489   1.641   7.140  11.480
 1290W        W 5490   7.094   1.890  11.276
 1291W        W 5491   5.548   6.626   2.668
 1292W        W 5492   9.005   3.338   1.088
 1293W        W 5493   9.425   7.465   0.435
 1294W        W 5494   8.132   2.954   0.028
 1295W        W 5495   0.523   7.137  11.739
 1296W        W 5496  11.039  10.960   2.604
 1297W        W 5497   5.327   2.295   3.407
 1298W        W 5498   1.114   2.443  11.665
 1299W        W 5499   9.908   9.473   2.461
 1300W        W 5500   0.916   8.293   8.451
 1301W        W 5501   9.169   4.193   2.112
 1302W        W 5502   6.056  10.352   1.943
 1303W        W 5503   5.650   4.163   3.521
 1304W        W 5504   3.745   9.785   8.841
 1305W        W 5505  10.998  10.987  10.411
 1306W        W 5506   3.761   9.832  10.614
 1307W        W 5507   2.541   7.504   1.140
 1308W        W 5508  10.900  10.023   0.883
 1309W        W 5509   1.028   3.598   1.915
 1310W        W 5510   2.134   0.847   9.888
 1311W        W 5511   7.029   1.327   0.837
 1312W        W 5512   6.657   4.317  11.691
 1313W        W 5513  10.913   8.539   1.875
 1314W        W 5514   1.040   0.825  10.854
 1315W        W 5515   3.577  11.240  10.374
 1316W        W 5516   9.352   1.065   2.573
 1317W        W 5517   9.533   2.445   0.105
 1318W        W 5518   1.737  10.807   0.117
 1319W        W 5519  10.040   6.106  11.947
 1320W        W 5520   6.528   4.638   1.141
 1321W        W 5521   2.796   7.392   9.006
 1322W        W 5522   8.978  11.450   3.290
 1323W        W 5523  10.984  10.030   3.627
 1324W        W 5524   1.075   5.649   3.344
 1325W        W 5525   2.408   7.902   1.444
 1326W        W 5526   0.396   3.151   2.819
 1327W        W 5527   6.396   6.621   0.654
 1328W        W 5528   3.358  10.075   3.288
 1329W        W 5529   3.668   0.467   1.440
 1330W        W 5530   2.555   1.109   9.691
 1331W        W 5531   3.346   7.163   0.545
 1332W        W 5532  11.039   1.633   9.325
 1333W        W 5533   2.611   3.497  11.818
 1334W        W 5534   5.746   5.064   1.341
 1335W        W 5535   6.143   2.865  11.803
 1336W        W 5536   6.041   1.312  10.298
 1337W        W 5537   4.600   7.960  11.539
 1338W        W 5538  11.319   9.291   9.129
 1339W        W 5539  11.338   9.788   0.695
 1340W        W 5540   7.485   6.889   9.414
 1341W        W 5541   3.345  10.617   9.126
 1342W        W 5542   2.213   6.898   2.284
 1343W        W 5543   8.742   4.685  10.596
 1344W        W 5544   8.964   3.212   3.075
 1345W        W 5545   7.522   6.950   2.629
 1346W        W 5546   9.088   6.480   0.933
 1347W        W 5547   5.333   0.060   9.176
 1348W        W 5548   0.888   9.836  11.812
 1349W        W 5549  10.709  11.091   1.750
 1350W        W 5550   5.769  10.435   2.787
 1351W        W 5551   3.924   1.662   2.113
 1352W        W 5552   3.226   4.649  11.840
 1353W        W 5553   7.063   9.498   3.038
 1354W        W 5554   4.014   1.289  10.650
 1355W        W 5555   3.583  10.724  10.341
 1356W        W 5556   5.551   4.011  11.363
 1357W        W 5557   6.952   9.009   1.082
 1358W        W 5558   8.927   1.410  10.141
 1359W        W 5559   1.912   3.777  10.283
 1360W        W 5560   0.323   4.970   9.521
 1361W        W 5561   3.347   7.655  11.290
 1362W        W 5562   6.528   2.589   1.848
 1363W        W 5563   4.183  11.324   9.436
 1364W        W 5564   1.317   4.484   3.409
 1365W        W 5565   4.089   8.210   2.276
 1366W        W 5566   5.639   1.207  10.892
 1367W        W 5567   1.886   7.055   9.765
 1368W        W 5568   1.793   3.586  11.744
 1369W        W 5569   3.113   8.676   1.344
 1370W        W 5570   8.221   7.696   0.847
 1371W        W 5571   4.617   1.806   9.399
 1372W        W 5572   7.727   1.430   2.179
 1373W        W 5573   7.649   1.404   9.244
 1374W        W 5574   9.310   0.437   8.190
 1375W        W 5575   3.460   2.525   3.537
 1376W        W 5576   2.965   9.639   1.675
 1377W        W 5577   1.282   0.292  10.047
 1378W        W 5578   3.974   4.043  10.564
 1379W        W 5579   2.260   5.299   1.176
 1380W        W 5580   5.107   3.635   3.960
 1381W        W 5581   3.729   8.796  11.107
 1382W        W 5582   7.107   8.929   9.459
 1383W        W 5583   9.038  10.353   9.317
 1384W        W 5584   6.603   1.376   3.427
 1385W        W 5585   2.247   9.934   3.134
 1386W        W 5586   4.130   6.231  10.815
 1387W        W 5587   4.133   9.384   0.765
 1388W        W 5588   4.741  11.444   2.207
 1389W        W 5589   1.422   1.130  11.035
 1390W        W 5590   2.630  11.162  11.751
 1391W        W 5591   8.475   1.018   1.105
 1392W        W 5592   5.089   3.272  11.024
 1393W        W 5593   9.449   0.811   3.003
 1394W        W 5594   3.207   2.670   2.775
 1395W        W 5595  11.236   2.147   3.466
 1396W        W 5596   8.538   9.605   3.614
 1397W        W 5597   6.001   7.294   8.640
 1398W        W 5598   3.071   2.344   0.468
 1399W        W 5599   3.610  10.598  11.750
 1400W        W 5600   2.332   4.117   0.875
 1401W        W 5601   8.401   0.738  10.703
 1402W        W 5602  10.296  10.503   9.771
 1403W        W 5603   2.788   7.836   0.457
 1404W        W 5604   8.409   8.842   8.561
 1405W        W 5605   8.191   6.007   8.292
 1406W        W 5606   5.586  10.267   1.725
 1407W        W 5607   6.622   8.069   0.696
 1408W        W 5608   5.707   2.332   8.734
 1409W        W 5609   3.454   1.912   2.157
 1410W        W 5610   3.320   5.712  10.575
 1411W        W 5611  11.366   2.730   3.499
 1412W        W 5612   6.039   2.768   3.684
 1413W        W 5613   6.241  10.508   1.502
 1414W        W 5614   9.694   1.395  11.113
 1415W        W 5615  10.417   0.697   0.474
 1416W        W 5616   2.593   5.679   2.644
 1417W        W 5617   6.067   8.841   2.819
 1418W        W 5618   5.577   8.638   9.927
 1419W        W 5619  10.962   9.854   0.384
 1420W        W 5620   6.560   4.343   8.969
 1421W        W 5621   8.672   8.102   0.045
 1422W        W 5622   7.435   4.321  10.289
 1423W        W 5623   4.634   5.633  10.488
 1424W        W 5624   8.771   4.799   0.807
 1425W        W 5625   4.918   9.574   3.669
 1426W        W 5626   2.397   7.052   1.430
 1427W        W 5627   9.972   2.807  11.080
 1428W        W 5628   1.357   1.664   9.338
 1429W        W 5629   9.703   9.235   0.461
 1430W        W 5630  10.421   1.656   0.218
 1431W        W 5631   4.066   4.641   9.370
 1432W        W 5632   2.256   6.348   9.328
 1433W        W 5633   9.533   6.498   9.098
 1434W        W 5634   7.768   9.376  10.301
 1435W        W 5635   2.278   8.169   1.842
 1436W        W 5636   8.079   8.613   8.922
 1437W        W 5637   9.732   2.060   0.711
 1438W        W 5638   9.007   7.501  11.503
 1439W        W 5639   8.476   4.715   2.670
 1440W        W 5640   8.596   6.511   9.682
 1441W        W 5641   1.684  10.986   1.832
 1442W        W 5642   8.163   6.450   9.400
 1443W        W 5643  11.327   6.044   3.169
 1444W        W 5644   8.047   0.266  11.333
 1445W        W 5645   7.546   7.174   0.517
 1446W        W 5646   0.333   5.843   2.265
 1447W        W 5647   5.287  10.820  10.230
 1448W        W 5648   7.405   7.778   2.303
 1449W        W 5649   6.071   1.997   8.904
 1450W        W 5650   6.274   5.961  10.129
 1451W        W 5651   8.722   4.043   3.344
 1452W        W 5652   5.591   9.303  11.331
 1453W        W 5653   7.258   9.759   0.037
 1454W        W 5654   8.658   3.754   0.395
 1455W        W 5655   8.867  11.186  11.898
 1456W        W 5656   5.001  11.163   0.892
 1457W        W 5657   4.846   3.185   9.130
 1458W        W 5658   1.957   4.767   8.928
 1459W        W 5659   5.424   6.602  10.365
 1460W        W 5660   1.222   1.223   0.044
 1461W        W 5661   6.238   7.942   0.211
 1462W        W 5662   9.781   8.608   0.590
 1463W        W 5663  10.789   2.778   1.191
 1464W        W 5664   0.293  10.354  11.367
 1465W        W 5665   6.009   0.876   0.060
 1466W        W 5666   1.307   9.051  11.646
 1467W        W 5667   2.280   1.463  10.600
 1468W        W 5668   2.130   9.354   9.357
 1469W        W 5669   5.222   9.296   3.248
 1470W        W 5670   6.501   9.473   2.329
 1471W        W 5671   5.959   5.500  10.364
 1472W        W 5672   8.458   3.105   3.161
 1473W        W 5673   3.923   0.324  10.930
 1474W        W 5674   7.246   5.143   9.965
 1475W        W 5675   7.586   5.819  11.327
 1476W        W 5676   2.956   1.307   0.430
 1477W        W 5677   8.400   9.770   1.232
 1478W        W 5678  10.716   5.274  11.761
 1479W        W 5679   3.142   4.608   3.553
 1480W        W 5680   0.564   0.783  11.750
 1481W        W 5681   8.625   6.972  10.260
 1482W        W 5682   0.694   8.147  10.052
 1483W        W 5683   0.331   0.765  11.287
 1484W        W 5684   5.995   9.008   1.092
 1485W        W 5685   4.812   0.368   1.944
 1486W        W 5686   2.852   0.467   8.951
 1487W        W 5687   7.753   3.075   2.887
 1488W        W 5688   9.120   3.363   9.411
 1489W        W 5689   2.895   4.149   3.522
 1490W        W 5690   1.735   2.744  10.606
 1491W        W 5691  10.870   9.921   9.248
 1492W        W 5692   0.300   7.643  10.853
 1493W        W 5693   9.151   6.165   2.255
 1494W        W 5694   7.255   5.623  11.736
 1495W        W 5695   5.939   5.158  11.424
 1496W        W 5696   1.438   6.187   1.606
 1497W        W 5697   1.849   6.120   1.291
 1498W        W 5698  10.925   4.083   0.635
 1499W        W 5699   9.486   5.925   9.863
 1500W        W 5700   2.583   5.262  11.819
 1501W        W 5701   7.960   1.214   3.155
 1502W        W 5702   2.388   0.961  11.927
 1503W        W 5703   6.140   1.275  10.797
 1504W        W 5704   5.214   1.558  10.573
 1505W        W 5705   0.052   0.317   9.481
 1506W        W 5706   0.431   8.430   0.884
 1507W        W 5707   2.104   4.043  11.409
 1508W        W 5708   2.875   0.328   9.929
 1509W        W 5709   0.278   5.577   2.713
 1510W        W 5710   6.465   2.006  11.776
 1511W        W 5711   4.183   2.474  11.911
 1512W        W 5712   3.552   2.071   9.995
 1513W        W 5713   1.021   2.073   0.056
 1514W        W 5714   6.553   8.164   9.460
 1515W        W 5715   0.134  10.423   2.446
 1516W        W 5716   1.347   4.006   1.925
 1517W        W 5717   4.320  11.018   8.984
 1518W        W 5718  10.957   6.720   9.720
 1519W        W 5719   1.647  10.384   3.557
 1520W        W 5720   2.518   5.773  10.025
 1521W        W 5721   4.664   2.322   3.471
 1522W        W 5722   3.311   4.987  10.053
 1523W        W 5723   2.134   4.574  11.410
 1524W        W 5724  11.337   3.331  10.590
 1525W        W 5725   1.672   7.466   1.714
 1526W        W 5726   6.581   0.748   8.879
 1527W        W 5727   7.848   9.894  11.338
 1528W        W 5728  10.661   4.308  11.819
 1529W        W 5729   6.818   0.982  11.513
 1530W        W 5730   3.189   9.762   0.482
 1531W        W 5731   3.729   2.779   1.170
 1532W        W 5732   7.343   5.596  10.839
 1533W        W 5733   7.174   4.815  11.126
 1534W        W 5734   8.517   8.602   4.136
 1535W        W 5735   7.960   5.741  10.056
 1536W        W 5736  10.540   5.985   2.748
 1537W        W 5737   6.445   4.706  10.204
 1538W        W 5738   2.437   0.458   8.628
 1539W        W 5739   3.328   2.727  10.445
 1540W        W 5740   5.679   1.822   8.594
 1541W        W 5741   5.812   6.050   1.252
 1542W        W 5742   1.821   7.442   9.030
 1543W        W 5743   9.926   9.774  11.766
 1544W        W 5744   1.521   3.334   2.677
 1545W        W 5745   7.722   0.062   0.383
 1546W        W 5746   8.548  11.375   2.100
 1547W        W 5747   5.183   3.941   3.577
 1548W        W 5748   3.826   8.504   0.724
 1549W        W 5749   7.953   1.433   2.682
 1550W        W 5750   3.861   0.724   0.919
 1551W        W 5751   8.117   8.483   2.352
 1552W        W 5752  10.515   2.385   2.985
 1553W        W 5753   2.183   8.101   9.970
 1554W        W 5754  10.952   7.194  10.990
 1555W        W 5755   4.582   3.308   8.706
 1556W        W 5756   5.182   3.329   8.754
 1557W        W 5757   3.923   1.321   1.710
 1558W        W 5758  11.089   0.358   2.902
 1559W        W 5759  10.554   5.221   2.240
 1560W        W 5760   7.192   5.269  10.483
 1561W        W 5761   4.855   3.626   2.393
 1562W        W 5762   8.932   1.982   8.960
 1563W        W 5763   8.556   3.372   0.800
 1564W        W 5764   5.719   2.618  11.964
 1565W        W 5765   4.596  10.786   9.383
 1566W        W 5766   0.926   4.780  10.345
 1567W        W 5767   2.825   1.431   2.741
 1568W        W 5768   5.253   5.066   2.021
 1569W        W 5769   3.306   7.479   8.961
 1570W        W 5770   5.596   2.716   1.383
 1571W        W 5771   4.227   0.794   9.037
 1572W        W 5772   5.563   5.043  10.707
 1573W        W 5773  10.341   4.711  10.808
 1574W        W 5774  10.897   9.843   2.198
 1575W        W 5775   7.955   6.559   2.291
 1576W        W 5776   0.381   5.632   1.048
 1577W        W 5777   8.613   0.741   9.862
 1578W        W 5778  10.499   2.360  11.046
 1579W        W 5779   8.023   7.892   1.790
 1580W        W 5780   5.468   3.767   0.757
 1581W        W 5781   9.096   8.405   0.038
 1582W        W 5782   9.723   5.165   9.936
 1583W        W 5783   9.923   9.062   9.559
 1584W        W 5784  11.281   7.216   0.827
 1585W        W 5785   4.709  10.737  10.963
 1586W        W 5786   9.492  10.107   0.365
 1587W        W 5787   0.723   0.636   0.225
 1588W        W 5788   2.790   6.664   1.801
 1589W        W 5789   3.141   0.446  10.493
 1590W        W 5790   4.803   5.198   0.510
 1591W        W 5791   0.557   4.447   9.801
 1592W        W 5792   1.512   1.886   1.125
 1593W        W 5793   4.054   2.622   9.044
 1594W        W 5794   4.413   6.628   9.085
 1595W        W 5795   9.480   0.083   9.935
 1596W        W 5796  10.561   8.544   0.824
 1597W        W 5797  10.815   2.707   0.688
 1598W        W 5798   0.906  11.063   3.206
 1599W        W 5799   9.048  11.366   2.247
 1600W        W 5800  10.420   3.793  10.826
 1601W        W 5801   1.733   7.279  10.673
 1602W        W 5802   0.812  11.492   2.459
 1603W        W 5803   4.005   1.103   1.226
 1604W        W 5804   0.154   4.579   9.223
 1605W        W 5805  11.341  10.811   1.337
 1606W        W 5806   1.206   8.586  11.448
 1607W        W 5807   1.797   3.321   8.970
 1608W        W 5808   4.339   2.244  10.520
 1609W        W 5809   0.712   3.269   3.186
 1610W        W 5810   3.022   9.539   2.758
 1611W        W 5811   7.577   7.219  11.988
 1612W        W 5812   1.641   0.160  10.754
 1613W        W 5813   7.399   9.860  11.560
 1614W        W 5814  11.263   4.614  11.416
 1615W        W 5815  11.064   2.038   8.973
 1616W        W 5816   8.593   6.473  10.256
 1617W        W 5817   0.300  10.949  11.999
 1618W        W 5818   2.703   6.371   3.939
 1619W        W 5819   4.652   7.049  11.555
 1620W        W 5820   9.867   1.232   1.695
 1621W        W 5821   5.344   1.334   2.647
 1622W        W 5822   1.755   4.915   1.860
 1623W        W 5823   3.920   9.935   2.676
 1624W        W 5824   8.872   2.836   2.299
 1625W        W 5825   4.460   8.248   9.052
 1626W        W 5826   6.753   3.599   9.375
 1627W        W 5827   9.824   6.984   9.071
 1628W        W 5828   4.517   2.655   9.236
 1629W        W 5829   8.599   8.841   2.482
 1630W        W 5830   2.206   0.975  10.364
 1631W        W 5831   2.498   4.515   0.590
 1632W        W 5832   6.043   7.973   9.525
 1633W        W 5833   1.537   1.313   2.255
 1634W        W 5834   4.372   1.537   1.851
 1635W        W 5835   1.470   8.649   1.493
 1636W        W 5836   2.862   2.351  11.623
 1637W        W 5837   8.428   1.305   3.381
 1638W        W 5838   5.036   7.177   9.575
 1639W        W 5839   2.572   3.586   2.495
 1640W        W 5840  10.298   7.919   0.410
 1641W        W 5841   3.830   5.989   0.482
 1642W        W 5842   3.834   0.837  10.861
 1643W        W 5843   5.433   3.353   1.626
 1644W        W 5844   7.242   3.763  11.281
 1645W        W 5845   3.518   0.831   3.252
 1646W        W 5846   2.211   1.762  11.032
 1647W        W 5847   2.253   5.220   0.212
 1648W        W 5848   0.033   4.240  10.245
 1649W        W 5849   2.788   5.130   2.598
 1650W        W 5850   7.986   5.074   9.531
 1651W        W 5851   2.867   9.807   0.903
 1652W        W 5852   4.042   9.853   0.047
 1653W        W 5853   9.098   3.954  11.255
 1654W        W 5854  10.847  10.668   9.125
 1655W        W 5855  11.474   0.057   3.555
 1656W        W 5856   0.541   7.542   0.264
 1657W        W 5857   4.721   2.091  10.796
 1658W        W 5858   8.039   3.178   1.176
 1659W        W 5859   9.150   6.198   2.769
 1660W        W 5860   1.591   8.206   8.803
 1661W        W 5861  10.927   5.774   9.950
 1662W        W 5862   5.480   0.287   0.474
 1663W        W 5863   2.209   8.079   2.829
 1664W        W 5864   0.375  11.273   3.711
 1665W        W 5865   1.084   2.254   2.410
 1666W        W 5866   8.027   7.551   2.160
 1667W        W 5867   9.167   1.954   2.645
 1668W        W 5868   2.334   5.567  11.441
 1669W        W 5869   6.327   8.315  10.329
 1670W        W 5870   8.078   7.996  11.568
 1671W        W 5871   0.193   4.201   3.372
 1672W        W 5872  11.442   5.219   2.829
 1673W        W 5873   2.946  10.202   0.453
 1674W        W 5874   6.101   3.090   2.395
 1675W        W 5875   2.117   4.811   2.807
 1676W        W 5876   9.014  11.153  11.353
 1677W        W 5877   4.772  10.034   2.999
 1678W        W 5878   8.374   7.630  10.746
 1679W        W 5879   4.767   9.447   9.771
 1680W        W 5880   8.094   0.644  11.671
 1681W        W 5881   1.673   9.549   9.625
 1682W        W 5882   7.533   1.991   3.522
 1683W        W 5883   8.930   1.435   8.803
 1684W        W 5884   1.993   7.588   9.916
 1685W        W 5885  11.446  10.957  10.668
 1686W        W 5886   0.203   0.305  11.022
 1687W        W 5887   4.268  10.494   9.054
 1688W        W 5888   6.594   4.371   8.447
 1689W        W 5889   8.595  11.401  11.472
 1690W        W 5890   4.736   2.396   8.509
 1691W        W 5891   9.414   4.114   3.152
 1692W        W 5892   8.954   8.782   9.394
 1693W        W 5893   2.068   7.177   1.873
 1694W        W 5894   9.566   2.594  10.868
 1695W        W 5895   3.256   2.918   1.342
 1696W        W 5896   7.091   1.821   9.463
 1697W        W 5897   3.553   3.844  11.810
 1698W        W 5898  11.078   4.971  10.569
 1699W        W 5899   8.938   9.085   3.414
 1700W        W 5900  11.205   9.329   2.480
 1701W        W 5901   4.289   2.481   3.148
 1702W        W 5902   0.331   7.562   0.789
 1703W        W 5903   3.064   6.205   9.382
 1704W        W 5904   1.293   0.316  11.722
 1705W        W 5905  10.433   9.382   1.234
 1706W        W 5906   9.070   3.762  10.785
 1707W        W 5907   5.978   2.315  10.125
 1708W        W 5908  11.299   3.316  10.082
 1709W        W 5909   8.819   7.104   2.594
 1710W        W 5910   8.397   9.887  11.318
 1711W        W 5911   2.797  11.373   0.707
 1712W        W 5912   7.489   2.677   2.685
 1713W        W 5913  10.497   9.572   8.779
 1714W        W 5914   4.565   8.691   3.384
 1715W        W 5915   0.253   1.882   3.274
 1716W        W 5916   2.347   2.829   1.330
 1717W        W 5917   6.123   9.325  11.033
 1718W        W 5918   7.344   7.784   1.420
 1719W        W 5919   6.122   0.552   8.673
 1720W        W 5920   6.464  10.893   8.829
 1721W        W 5921   7.955   0.464   8.811
 1722W        W 5922   7.213   7.349   9.371
 1723W        W 5923   6.008   7.483   0.282
 1724W        W 5924   1.692   7.383   2.962
 1725W        W 5925  10.449   3.121   2.333
 1726W        W 5926   1.385   9.748   3.803
 1727W        W 5927  10.679   6.972   1.390
 1728W        W 5928   8.398   6.896   9.306
 1729W        W 5929   7.052  10.024   9.080
 1730W        W 5930   4.464   8.187   3.248
 1731W        W 5931   4.572   7.096  10.476
 1732W        W 5932   2.856   9.505  10.907
 1733W        W 5933   3.093   9.950  11.094
 1734W        W 5934   8.126   6.717  10.379
 1735W        W 5935  11.301   1.410   1.811
 1736W        W 5936   4.249   7.576   3.141
 1737W        W 5937   2.135   7.131   0.988
 1738W        W 5938   0.363   1.286   9.387
 1739W        W 5939  11.056  11.241   1.247
 1740W        W 5940   4.489   5.340   0.912
 1741W        W 5941   5.234   7.823   1.634
 1742W        W 5942   9.792   5.378   9.442
 1743W        W 5943   9.049   4.821   8.594
 1744W        W 5944  11.321   5.403  10.383
 1745W        W 5945  10.732   0.633   2.566
 1746W        W 5946   8.221   1.478   2.206
 1747W        W 5947   9.596   7.192  11.766
 1748W        W 5948   1.733   0.568  11.508
 1749W        W 5949   8.481   0.340   2.293
 1750W        W 5950  10.960   7.203   3.135
 1751W        W 5951  10.837   9.103   2.751
 1752W        W 5952   1.718   2.668  11.133
 1753W        W 5953   2.596   7.176   2.793
 1754W        W 5954   6.507   0.159   0.956
 1755W        W 5955   8.555   1.065   1.627
 1756W        W 5956   7.066   8.925  10.769
 1757W        W 5957   8.978   7.430   9.055
 1758W        W 5958   4.911   3.245   3.655
 1759W        W 5959   0.320   8.635  11.880
 1760W        W 5960   5.696   2.779   2.361
 1761W        W 5961  11.402   6.035   0.553
 1762W        W 5962   1.434   2.710   2.494
 1763W        W 5963   1.446   7.192   8.536
 1764W        W 5964   7.252   3.247  11.069
 1765W        W 5965  10.834   7.469  11.824
 1766W        W 5966   6.658   0.574   0.695
 1767W        W 5967   4.395   2.025  11.933
 1768W        W 5968  10.124   6.841  10.308
 1769W        W 5969   1.715  11.297  11.951
 1770W        W 5970   2.156   5.614   0.521
 1771W        W 5971   3.093  11.424  10.123
 1772W        W 5972   3.177   6.515   1.165
 1773W        W 5973  10.893   3.779   3.146
 1774W        W 5974   3.692   9.784   0.397
 1775W        W 5975   3.473   3.701   2.095
 1776W        W 5976   3.375  11.189  11.526
 1777W        W 5977   3.097   4.441   1.846
 1778W        W 5978   3.605   4.799   0.187
 1779W        W 5979   2.936   4.256   0.453
 1780W        W 5980   2.471  11.411   1.735
 1781W        W 5981   8.294   3.140   2.218
 1782W        W 5982   6.277  10.912   1.832
 1783W        W 5983   3.273  11.007   2.066
 1784W        W 5984   0.948   3.266   9.970
 1785W        W 5985   8.014  10.481  10.051
 1786W        W 5986   7.396   8.997  10.374
 1787W        W 5987   8.166   5.158   2.710
 1788W        W 5988   5.702  10.356   9.341
 1789W        W 5989   6.722   7.350   9.219
 1790W        W 5990   2.090   5.648   2.457
 1791W        W 5991   5.456   5.034  11.235
 1792W        W 5992   6.193   0.881   1.422
 1793W        W 5993   7.788   4.636   0.766
 1794W        W 5994   4.148   5.135  10.065
 1795W        W 5995   6.147   3.235  11.409
 1796W        W 5996  10.455   0.370   2.225
 1797W        W 5997   4.311  10.562   0.474
 1798W        W 5998   2.844   5.064   9.896
 1799W        W 5999   7.667   7.560   2.715
 1800W        W 6000   0.488   1.491  10.811
 1801W        W 6001   2.457   9.867   9.350
 1802W        W 6002   9.067   0.387   9.943
 1803W        W 6003   8.960  10.526  10.321
 1804W        W 6004   9.343   1.515   9.581
 1805W        W 6005  11.304   0.970   8.863
 1806W        W 6006   8.554   3.335   9.435
 1807W        W 6007   0.196   5.841  11.304
 1808W        W 6008   4.299   8.390  10.054
 1809W        W 6009   1.549   7.763  11.484
 1810W        W 6010   6.885   3.282   0.449
 1811W        W 6011   8.069   0.706   0.977
 1812W        W 6012   9.948  10.983   9.428
 1813W        W 6013   2.672   3.900   2.058
 1814W        W 6014   5.467   5.207   0.859
 1815W        W 6015   9.501   7.037   4.279
 1816W        W 6016   8.117  10.623   9.229
 1817W        W 6017   5.603   5.783  11.949
 1818W        W 6018   9.989  10.023   0.204
 1819W        W 6019   3.725  11.295   2.143
 1820W        W 6020   3.763   1.215  11.948
 1821W        W 6021   6.400   4.385   1.824
 1822W        W 6022   1.919   2.602   2.248
 1823W        W 6023   3.749   0.174   0.767
 1824W        W 6024  11.480   2.143   0.329
 1825W        W 6025   0.817   9.597   0.302
 1826W        W 6026   9.312   5.548  10.503
 1827W        W 6027   4.202   9.631   1.439
 1828W        W 6028   7.901   5.047  11.967
 1829W        W 6029   7.759   8.640   1.277
 1830W        W 6030   0.409   5.200   2.327
 1831W        W 6031   4.969   0.933   9.489
 1832W        W 6032   2.103   7.461   1.402
 1833W        W 6033   5.013   8.491   3.433
 1834W        W 6034   0.574   8.361  10.520
 1835W        W 6035   6.077   4.031  10.161
 1836W        W 6036   9.937   4.578  11.094
 1837W        W 6037   5.957   3.316   0.884
 1838W        W 6038   7.634  10.453   0.743
 1839W        W 6039   5.291   6.986   0.295
 1840W        W 6040   6.063   2.334  11.718
 1841W        W 6041   4.657   4.828  11.596
 1842W        W 6042   1.546   0.826  11.922
 1843W        W 6043   3.660   5.102  11.322
 1844W        W 6044   5.419   5.713   9.110
 1845W        W 6045  10.266   0.495  11.038
 1846W        W 6046   6.230   6.581   3.262
 1847W        W 6047   6.504   5.547  11.080
 1848W        W 6048   8.014   0.576   2.389
 1849W        W 6049   8.698   2.446   9.403
 1850W        W 6050  11.284   7.007  10.274
 1851W        W 6051   9.540   3.246   1.248
 1852W        W 6052   9.089   6.038   4.053
 1853W        W 6053  11.400  10.331   1.532
 1854W        W 6054   7.128   6.840   0.478
 1855W        W 6055   1.928   5.537  10.827
 1856W        W 6056   8.721   3.302  10.858
 1857W        W 6057   9.089   3.726   2.450
 1858W        W 6058   4.105   0.342  11.462
 1859W        W 6059   3.343   2.392   1.331
 1860W        W 6060   0.410   4.172   1.992
 1861W        W 6061   5.231   6.567   1.561
 1862W        W 6062   6.501   7.114   1.843
 1863W        W 6063  10.090   8.158   0.801
 1864W        W 6064   3.142   1.283   8.827
 1865W        W 6065   4.527   9.513   8.512
 1866W        W 6066   6.217   2.204   0.206
 1867W        W 6067  10.764   0.461  10.996
 1868W        W 6068   8.575   9.982   8.871
 1869W        W 6069   1.234   5.274   9.028
 1870W        W 6070   3.649   9.289   8.860
 1871W        W 6071   4.992  11.263   0.002
 1872W        W 6072  10.333   3.080   0.019
 1873W        W 6073   6.889   2.208  11.610
 1874W        W 6074   2.272   1.260  11.204
 1875W        W 6075   7.028   2.679  11.774
 1876W        W 6076   4.164   3.324   0.280
 1877W        W 6077   4.635   3.482   1.249
 1878W        W 6078   5.186   2.168   2.897
 1879W        W 6079   3.542   2.863   9.490
 1880W        W 6080   9.631   6.232   1.873
 1881W        W 6081   3.057   8.699   8.625
 1882W        W 6082   2.598   9.608  11.421
 1883W        W 6083  10.312   9.971  10.487
 1884W        W 6084   0.261   6.790  11.035
 1885W        W 6085   2.342   9.874   0.831
 1886W        W 6086  10.107   9.540   0.378
 1887W        W 6087   0.386   2.302   0.664
 1888W        W 6088   1.932   0.176   0.405
 1889W        W 6089   9.467   9.377   2.668
 1890W        W 6090  11.408   6.600   9.952
 1891W        W 6091   3.081   8.382   2.380
 1892W        W 6092   3.090   8.522  11.802
 1893W        W 6093   5.605   1.635   0.203
 1894W        W 6094   3.202   5.000   4.056
 1895W        W 6095   4.754   6.097  10.229
 1896W        W 6096   1.661   6.787  10.550
 1897W        W 6097   2.176   6.219   1.668
 1898W        W 6098   1.256   3.722   2.939
 1899W        W 6099   4.316   3.152  11.462
 1900W        W 6100   7.466   6.097   8.651
 1901W        W 6101   9.904  10.966  10.389
 1902W        W 6102   5.892   7.008   3.464
 1903W        W 6103   2.307   8.650   1.705
 1904W        W 6104   1.842   6.100   2.455
 1905W        W 6105   1.264   0.964   1.469
 1906W        W 6106   6.983   4.248  11.273
 1907W        W 6107   6.152   1.214   2.731
 1908W        W 6108   8.566   5.307   1.474
 1909W        W 6109   5.798   3.758  10.527
 1910W        W 6110   3.181   0.727  11.420
 1911W        W 6111   4.716   3.700   3.471
 1912W        W 6112   5.916   4.598   3.464
 1913W        W 6113   0.374   1.443   1.263
 1914W        W 6114   9.505  10.053  11.827
 1915W        W 6115   2.803   8.117  10.800
 1916W        W 6116   2.245   3.496  11.456
 1917W        W 6117   3.634   5.243  11.839
 1918W        W 6118   2.519   4.749  10.129
 1919W        W 6119   8.039   9.597   3.469
 1920W        W 6120   1.115   2.219  10.018
 1921W        W 6121   1.655   9.414   9.132
 1922W        W 6122   7.237   4.245   3.253
 1923W        W 6123   2.254   1.460   9.462
 1924W        W 6124   7.258  11.483   3.059
 1925W        W 6125   3.270   5.275   9.635
 1926W        W 6126   2.514   7.714   9.927
 1927W        W 6127   1.423   8.318   2.792
 1928W        W 6128   2.029   5.632  10.000
 1929W        W 6129   2.351   2.319   1.221
 1930W        W 6130   2.203   6.625   9.900
 1931W        W 6131   0.746   9.976  10.511
 1932W        W 6132   4.634   8.011   2.395
 1933W        W 6133   2.111   6.154  10.071
 1934W        W 6134  10.738   5.910   9.401
 1935W        W 6135   0.271   8.415   3.442
 1936W        W 6136   1.418   2.349   1.359
 1937W        W 6137   3.020   5.090   3.390
 1938W        W 6138   0.694   8.547   2.700
 1939W        W 6139   1.438   4.882   1.447
 1940W        W 6140   9.074   8.481   8.979
 1941W        W 6141   3.252   3.986   3.202
 1942W        W 6142   5.573   8.084   3.942
 1943W        W 6143  10.045   4.552   8.890
 1944W        W 6144   8.151   9.767   9.568
 1945W        W 6145  10.750  11.391   9.438
 1946W        W 6146   0.315   6.562   1.625
 1947W        W 6147   7.379   2.188   9.843
 1948W        W 6148   9.651   9.062   8.472
 1949W        W 6149   8.114   5.249   9.979
 1950W        W 6150   3.940   9.461   2.906
 1951W        W 6151   0.329   6.487   1.022
 1952W        W 6152  10.875   9.069   3.269
 1953W        W 6153   0.412   2.703   8.926
 1954W        W 6154   3.264  11.428   0.409
 1955W        W 6155   0.634   5.568  11.278
 1956W        W 6156   6.405   8.435   0.417
 1957W        W 6157   6.525   1.662   2.499
 1958W        W 6158   6.574   2.796  11.079
 1959W        W 6159   2.835   8.401  10.380
 1960W        W 6160   6.025   5.553   2.176
 1961W        W 6161   0.923   2.241  10.556
 1962W        W 6162   4.760  10.511   2.784
 1963W        W 6163   4.649   9.397   0.683
 1964W        W 6164   8.912  10.422   9.805
 1965W        W 6165   2.019   2.150   2.481
 1966W        W 6166   8.679  10.750  10.780
 1967W        W 6167   1.264   0.455   1.356
 1968W        W 6168   5.682   0.953   3.231
 1969W        W 6169   8.440  10.254   2.118
 1970W        W 6170   4.359   1.347   0.346
 1971W        W 6171   0.374   1.253   2.985
 1972W        W 6172   1.220   5.801   8.517
 1973W        W 6173   4.119   3.676   0.644
 1974W        W 6174   7.463   5.068   8.881
 1975W        W 6175   4.766   4.413  11.849
 1976W        W 6176   2.713   3.510  10.886
 1977W        W 6177   3.092   9.493  11.354
 1978W        W 6178   5.680   8.504   1.246
 1979W        W 6179  10.574   0.029  11.771
 1980W        W 6180   8.993   4.411   3.110
 1981W        W 6181  11.131   4.628   9.088
 1982W        W 6182  11.101   0.510   0.906
 1983W        W 6183   1.506   0.622  10.942
 1984W        W 6184   2.766   5.384  10.310
 1985W        W 6185   3.148   5.132   1.104
 1986W        W 6186   8.236   5.254   1.881
 1987W        W 6187   9.816   0.890   3.406
 1988W        W 6188   1.916   8.001   9.159
 1989W        W 6189   2.226   4.328  11.963
 1990W        W 6190   2.820   2.248   0.900
 1991W        W 6191   4.348   9.487  10.090
 1992W        W 6192   8.553   9.856   2.432
 1993W        W 6193   0.120  10.459   1.031
 1994W        W 6194   5.161   7.647  11.085
 1995W        W 6195   1.870   1.367  10.885
 1996W        W 6196   4.147   3.160   1.328
 1997W        W 6197   7.276   9.275   0.155
 1998W        W 6198   6.765   1.389   9.593
 1999W        W 6199  10.209   1.789  11.740
 2000W        W 6200  10.481  10.933   9.538
 2001W        W 6201   1.861   1.347  10.352
 2002W        W 6202   4.807   6.763   0.407
 2003W        W 6203   0.252   6.979   0.732
 2004W        W 6204  11.301   4.532   2.301
 2005W        W 6205  10.080   8.135   2.153
 2006W        W 6206   3.290   5.182   2.406
 2007W        W 6207  10.113   8.780   1.462
 2008W        W 6208   5.595  10.952   2.977
 2009W        W 6209  10.871  11.415   2.768
 2010W        W 6210  10.916  10.306   1.310
 2011W        W 6211   5.064  10.964  11.284
 2012W        W 6212   8.159   8.971   1.327
 2013W        W 6213   8.700   8.156   9.143
 2014W        W 6214   6.063   8.170   1.151
 2015W        W 6215   8.828   3.809   0.907
 2016W        W 6216   2.299   3.784  11.012
 2017W        W 6217   9.790   2.554   1.793
 2018W        W 6218   1.174   4.806   3.040
 2019W        W 6219   4.191   4.586   0.907
 2020W        W 6220   7.079  10.948   0.178
 2021W        W 6221   8.997  11.358  10.004
 2022W        W 6222  11.338   2.360   9.937
 2023W        W 6223   7.248   4.165   1.517
 2024W        W 6224   1.243   6.966   9.999
 2025W        W 6225   3.172   8.938   2.835
 2026W        W 6226   2.478   0.130   1.019
 2027W        W 6227   3.749   5.735   1.965
 2028W        W 6228   9.969   3.600   9.083
 2029W        W 6229   6.039   0.860   1.953
 2030W        W 6230  10.001   3.662   9.973
 2031W        W 6231   8.489  10.052   0.781
 2032W        W 6232   4.852   2.120   0.149
 2033W        W 6233   6.665   8.664   9.401
 2034W        W 6234   1.659   8.864   0.344
 2035W        W 6235   4.375   5.919   2.481
 2036W        W 6236  10.878   1.174   9.101
 2037W        W 6237  11.036   7.398   0.335
 2038W        W 6238  11.199   5.555   9.547
 2039W        W 6239   9.082   7.946  11.249
 2040W        W 6240   5.876   4.838   9.556
 2041W        W 6241   5.756   3.855   9.403
 2042W        W 6242   0.300   5.487   0.527
 2043W        W 6243   9.572   8.856   9.882
 2044W        W 6244   1.881   6.230   0.406
 2045W        W 6245   3.863   7.526  10.110
 2046W        W 6246   7.195   1.716   9.962
 2047W        W 6247   0.160   5.197   0.093
 2048W        W 6248   3.478   0.780   9.537
 2049W        W 6249   3.648   3.271   1.309
 2050W        W 6250  10.431  10.570   8.744
 2051W        W 6251   6.875   4.875  10.704
 2052W        W 6252   9.114   8.593   1.385
 2053W        W 6253   9.599   3.237   8.995
 2054W        W 6254   1.479   5.246  10.915
 2055W        W 6255   4.672   3.699   2.947
 2056W        W 6256   0.659   5.941  11.613
 2057W        W 6257   2.346   4.305  11.030
 2058W        W 6258   1.916   4.681   2.360
 2059W        W 6259   6.423   8.856   8.926
 2060W        W 6260   8.225   3.306  10.993
 2061W        W 6261   9.234   5.616  11.805
 2062W        W 6262   8.382   4.374   1.449
 2063W        W 6263   3.324   4.682  11.317
 2064W        W 6264   9.554   5.071  10.463
 2065W        W 6265   8.528   0.577   0.713
 2066W        W 6266   8.320   8.036   0.431
 2067W        W 6267   5.441   3.197   2.109
 2068W        W 6268   8.147  10.451   0.948
 2069W        W 6269   6.869   0.726  10.742
 2070W        W 6270   8.288   3.778   3.468
 2071W        W 6271   7.589  10.233   2.194
 2072W        W 6272   9.117   5.179   0.996
 2073W        W 6273   8.836  10.022   3.527
 2074W        W 6274   0.081   8.012   8.663
 2075W        W 6275   3.755   7.689   8.839
 2076W        W 6276   9.836   5.016   8.722
 2077W        W 6277   3.528  11.391   3.591
 2078W        W 6278   8.017   3.120  11.441
 2079W        W 6279  10.133   0.413   1.809
 2080W        W 6280   1.044   4.134   1.006
 2081W        W 6281   7.763  11.160  10.536
 2082W        W 6282   9.981   3.673  10.562
 2083W        W 6283   6.638   3.208   8.678
 2084W        W 6284   7.568   8.075   2.725
 2085W        W 6285   4.440   1.332  10.344
 2086W        W 6286   8.359   2.468   0.789
 2087W        W 6287   3.301  10.476   2.957
 2088W        W 6288   4.042   8.682  11.502
 2089W        W 6289  11.210   6.959   1.318
 2090W        W 6290  10.901   2.132   2.738
 2091W        W 6291   5.722   6.566   3.160
 2092W        W 6292   6.221   9.421   4.092
 2093W        W 6293   6.266  10.459   2.915
 2094W        W 6294   2.421   9.486   2.927
 2095W        W 6295   8.896   4.085   8.517
 2096W        W 6296   3.332   8.924  11.997
 2097W        W 6297   4.806   4.788  10.347
 2098W        W 6298   0.293   6.271   3.317
 2099W        W 6299   1.654   3.047   3.533
 2100W        W 6300   9.586   8.038  11.776
 2101W        W 6301   2.287   9.544   2.157
 2102W        W 6302   8.611   8.049  10.987
 2103W        W 6303   2.704   8.195   9.934
 2104W        W 6304   2.868   9.396   1.210
 2105W        W 6305   6.117   1.756   1.476
 2106W        W 6306   6.448   1.841   3.547
 2107W        W 6307  10.339   2.712   2.616
 2108W        W 6308   3.153   3.423   1.289
 2109W        W 6309   7.859   2.595  11.439
 2110W        W 6310   5.984   6.209  11.093
 2111W        W 6311   2.695   3.371   2.962
 2112W        W 6312   0.488  10.450   9.630
 2113W        W 6313  11.320   9.531   1.149
 2114W        W 6314   6.342   7.119  11.491
 2115W        W 6315   0.335   2.592   0.250
 2116W        W 6316   9.463   6.037   1.017
 2117W        W 6317   2.641   8.450   0.039
 2118W        W 6318   4.671   8.100   0.986
 2119W        W 6319   6.871   3.494  11.997
 2120W        W 6320   2.015   5.673   8.765
 2121W        W 6321  10.906   0.303  11.450
 2122W        W 6322   9.089   7.611  10.662
 2123W        W 6323   5.273   0.835   0.317
 2124W        W 6324   7.357  10.522   0.298
 2125W        W 6325  10.715   1.829  11.832
 2126W        W 6326   5.655   6.724   0.060
 2127W        W 6327   9.850   4.066   8.832
 2128W        W 6328   7.710   6.465   9.667
 2129W        W 6329   9.446   2.924   0.332
 2130W        W 6330   8.014   7.192  10.052
 2131W        W 6331   1.809   8.096   2.523
 2132W        W 6332   5.533   3.532  10.920
 2133W        W 6333   9.887   1.760   1.084
 2134W        W 6334   1.384   6.149   0.330
 2135W        W 6335   5.281   8.676   9.490
 2136W        W 6336   3.405   0.521   8.806
 2137W        W 6337   3.354   9.515   1.368
 2138W        W 6338   7.974   2.605   2.859
 2139W        W 6339   2.315   1.576   1.944
 2140W        W 6340   9.880   9.357  11.506
 2141W        W 6341   5.043   3.682   8.391
 2142W        W 6342   0.293   1.334   0.410
 2143W        W 6343   2.572   4.262   9.291
 2144W        W 6344   3.713   5.224   9.857
 2145W        W 6345   5.935   5.813  10.782
 2146W        W 6346   5.643   6.235   2.339
 2147W        W 6347   2.205   0.732   2.273
 2148W        W 6348   8.956   6.675   2.239
 2149W        W 6349   3.657   5.601  11.364
 2150W        W 6350   5.720   1.704  10.680
 2151W        W 6351   0.896   7.929   0.258
 2152W        W 6352  11.313   1.915   2.457
 2153W        W 6353   6.862   4.952   0.877
 2154W        W 6354  11.183   2.438  11.539
 2155W        W 6355   7.103   8.199   2.971
 2156W        W 6356   9.465   6.412   1.357
 2157W        W 6357   1.383   3.612   9.981
 2158W        W 6358   7.702   5.635   2.076
 2159W        W 6359   3.386   9.058   1.077
 2160W        W 6360   2.937   3.882   1.180
 2161W        W 6361   9.418   9.960   0.946
 2162W        W 6362   5.258   8.783   3.112
 2163W        W 6363   8.813   8.195   0.530
 2164W        W 6364   6.955   9.373   2.008
 2165W        W 6365   5.639   1.527   0.720
 2166W        W 6366   7.420   8.063   9.537
 2167W        W 6367   2.079  10.649   3.636
 2168W        W 6368   8.460   1.239   2.834
 2169W        W 6369   9.323   5.542   9.462
 2170W        W 6370  10.483   9.313   0.671
 2171W        W 6371   8.616   5.970   3.598
 2172W        W 6372   2.293   6.325  10.891
 2173W        W 6373   8.006   4.769   3.033
 2174W        W 6374   5.349   2.415   0.291
 2175W        W 6375   9.514   6.490   3.077
 2176W        W 6376  11.276   3.986   0.247
 2177W        W 6377  10.798   3.592   1.537
 2178W        W 6378   6.534   7.389  10.540
 2179W        W 6379   9.611  10.774  11.056
 2180W        W 6380   5.672   0.448   8.951
 2181W        W 6381   1.858   5.863  10.418
 2182W        W 6382   6.948   9.700   9.976
 2183W        W 6383   3.739   1.914   1.181
 2184W        W 6384   6.433   4.220  11.222
 2185W        W 6385   2.478  10.756   2.221
 2186W        W 6386   1.912   8.963   9.023
 2187W        W 6387   5.341   4.056   1.382
 2188W        W 6388   6.165   5.401   3.112
 2189W        W 6389  10.835  10.013  10.450
 2190W        W 6390   4.487   0.800   9.474
 2191W        W 6391   5.777   2.410   3.181
 2192W        W 6392   1.707   6.666  10.048
 2193W        W 6393   4.665   5.674   9.961
 2194W        W 6394   3.157   7.978   2.715
 2195W        W 6395   1.403  10.219   1.663
 2196W        W 6396   0.828   3.123   1.944
 2197W        W 6397   7.852   8.609   2.774
 2198W        W 6398   9.018   3.165  11.604
 2199W        W 6399  10.472   4.176   0.444
 2200W        W 6400   9.081   7.963  11.760
 2201W        W 6401  10.038   1.630   2.941
 2202W        W 6402   0.690   8.857   9.556
 2203W        W 6403   9.268   9.946   1.428
 2204W        W 6404   6.234   2.391   9.190
 2205W        W 6405   8.888   5.551   0.629
 2206W        W 6406  10.581   1.520   8.841
 2207W        W 6407   3.775  10.298   3.521
 2208W        W 6408   3.702   8.472   1.700
 2209W        W 6409   8.699   0.986  10.295
 2210W        W 6410   5.331   7.711   2.236
 2211W        W 6411   7.206  10.009  10.467
 2212W        W 6412  10.260   6.158   9.449
 2213W        W 6413   2.843   1.505   9.943
 2214W        W 6414  10.360   6.049   1.663
 2215W        W 6415  10.132   2.437   3.375
 2216W        W 6416   5.572   2.198  10.420
 2217W        W 6417   0.865   2.664  10.250
 2218W        W 6418   5.646   8.967   1.479
 2219W        W 6419   9.087   6.315   0.395
 2220W        W 6420  11.005   8.339  11.920
 2221W        W 6421  10.898   1.613  10.036
 2222W        W 6422  10.976   8.156   8.716
 2223W        W 6423   3.640   1.662  11.739
 2224W        W 6424   9.967  10.417  11.126
 2225W        W 6425  10.901   4.814   1.159
 2226W        W 6426   9.964   0.844   2.021
 2227W        W 6427   7.441   4.824   3.211
 2228W        W 6428   1.634   7.560   1.194
 2229W        W 6429   7.185   2.859   9.342
 2230W        W 6430  10.558  11.291   1.307
 2231W        W 6431   1.244   9.104   0.192
 2232W        W 6432   1.303   2.966  10.757
 2233W        W 6433   5.670   9.631  11.941
 2234W        W 6434   2.379   9.982   1.893
 2235W        W 6435   5.627  11.109  11.973
 2236W        W 6436   8.918   1.969  10.869
 2237W        W 6437   3.858   6.162  10.036
 2238W        W 6438   7.568   1.492   3.372
 2239W        W 6439   7.154   1.379   1.851
 2240W        W 6440  10.066   3.215   8.740
 2241W        W 6441   3.228   8.153  11.102
 2242W        W 6442   6.520   0.805   1.795
 2243W        W 6443   7.603   1.374   0.320
 2244W        W 6444   6.389   3.214   0.475
 2245W        W 6445   6.021   5.518   1.328
 2246W        W 6446   3.337   0.689  10.933
 2247W        W 6447   4.119   2.391   1.874
 2248W        W 6448   9.846   3.044   0.878
 2249W        W 6449   4.283  10.065   3.327
 2250W        W 6450   3.429   6.079  11.448
 2251W        W 6451   4.944   4.132   4.047
 2252W        W 6452   0.667   6.640   0.372
 2253W        W 6453  10.048   7.756   8.642
 2254W        W 6454   4.772   8.956   2.530
 2255W        W 6455   8.140   9.147  10.771
 2256W        W 6456   3.747   2.399   9.444
 2257W        W 6457   3.940   3.731   9.250
 2258W        W 6458   5.232   2.172   2.367
 2259W        W 6459   9.796   4.719   9.677
 2260W        W 6460   9.394   0.007   9.024
 2261W        W 6461   4.790  10.796   8.911
 2262W        W 6462   3.714   1.239  10.261
 2263W        W 6463   5.955   3.662   9.823
 2264W        W 6464   9.678   4.229   3.593
 2265W        W 6465   0.416   8.166  10.960
 2266W        W 6466   0.033   4.156  10.745
 2267W        W 6467   0.115   8.833   1.370
 2268W        W 6468   3.810   8.115   1.289
 2269W        W 6469   8.151  11.235   0.342
 2270W        W 6470   5.720  11.369   9.479
 2271W        W 6471   2.762   9.849   3.077
 2272W        W 6472  10.309   5.517  11.496
 2273W        W 6473   6.347   0.963   3.599
 2274W        W 6474   1.514   0.541  10.435
 2275W        W 6475   8.120  10.091   8.609
 2276W        W 6476   1.883   5.983   3.319
 2277W        W 6477   5.577   7.948   0.440
 2278W        W 6478   0.658   7.014  11.270
 2279W        W 6479   5.839   5.286   2.676
 2280W        W 6480   6.720   4.064  10.839
 2281W        W 6481   2.179   2.764  10.910
 2282W        W 6482   9.286  10.890   0.803
 2283W        W 6483   9.019   7.003   1.846
 2284W        W 6484   6.483   0.634  11.234
 2285W        W 6485   5.211   0.909  10.891
 2286W        W 6486   3.213   0.851   2.128
 2287W        W 6487   8.123   5.990  11.074
 2288W        W 6488   3.648   2.588   9.916
 2289W        W 6489   5.611   0.306   2.425
 2290W        W 6490   6.069   1.855  11.484
 2291W        W 6491   1.000   1.746   1.052
 2292W        W 6492  10.826   6.259  11.277
 2293W        W 6493   0.817   7.538   9.499
 2294W        W 6494   0.201   8.492   2.940
 2295W        W 6495   3.820   9.401   1.197
 2296W        W 6496   2.323   2.348   9.992
 2297W        W 6497   4.884   4.258   1.766
 2298W        W 6498   6.215   4.678   0.271
 2299W        W 6499  10.239   7.000   0.276
 2300W        W 6500   3.137   4.263   9.623
 2301W        W 6501   0.853   7.622   0.719
 2302W        W 6502   1.098   7.460   0.267
 2303W        W 6503   0.144   4.804   2.547
 2304W        W 6504   6.969   6.581  10.389
 2305W        W 6505   8.442   1.975   0.972
 2306W        W 6506   2.232   0.242   2.966
 2307W        W 6507   9.773   5.771   0.240
 2308W        W 6508   9.948  11.435   0.601
 2309W        W 6509   5.055   0.204  11.730
 2310W        W 6510   1.292   2.959  10.233
 2311W        W 6511   7.639  11.267   3.375
 2312W        W 6512   3.139   9.997   1.359
 2313W        W 6513  10.427  10.941   3.082
 2314W        W 6514   4.041   5.071   0.992
 2315W        W 6515   9.471  11.053   2.299
 2316W        W 6516   2.806   6.797  11.363
 2317W        W 6517   4.341   0.716   1.301
 2318W        W 6518   9.930   5.710  10.745
 2319W        W 6519   0.772   6.548   2.301
 2320W        W 6520   5.655   8.528   2.303
 2321W        W 6521   4.131   9.400  11.843
 2322W        W 6522   2.821   1.884  10.805
 2323W        W 6523   1.897   2.587   1.333
 2324W        W 6524   2.837   2.602   1.312
 2325W        W 6525   2.821   2.805  10.307
 2326W        W 6526  11.423   5.628   9.073
 2327W        W 6527  10.329  10.941   0.956
 2328W        W 6528   1.826   4.631   9.434
 2329W        W 6529  10.843   1.370   0.540
 2330W        W 6530   4.446   7.090   3.103
 2331W        W 6531   4.242   0.346   9.303
 2332W        W 6532   9.030   4.915   3.255
 2333W        W 6533  10.482   8.967   2.383
 2334W        W 6534   8.519   0.729   2.637
 2335W        W 6535   8.189   5.652   2.203
 2336W        W 6536  10.785   0.747   3.046
 2337W        W 6537  10.405   6.149   1.144
 2338W        W 6538   0.965   7.950  10.453
 2339W        W 6539   8.591   6.490  11.129
 2340W        W 6540   0.516   1.004  10.855
 2341W        W 6541   6.013   2.372   9.633
 2342W        W 6542   6.468   8.617  11.477
 2343W        W 6543   3.228  10.703   2.480
 2344W        W 6544  10.848   6.559  10.198
 2345W        W 6545   6.077   7.832   2.774
 2346W        W 6546   0.905   4.172  10.055
 2347W        W 6547   9.391   5.194   8.554
 2348W        W 6548   7.723  11.297   1.255
 2349W        W 6549   6.285  10.725   0.303
 2350W        W 6550   7.842   5.037   3.461
 2351W        W 6551   2.951   7.301  11.269
 2352W        W 6552   9.154   1.834   9.942
 2353W        W 6553   3.689  10.374  10.840
 2354W        W 6554   0.487  10.280   2.820
 2355W        W 6555   0.072   3.728  10.350
 2356W        W 6556   4.734  11.023  10.497
 2357W        W 6557   1.828   1.782  10.598
 2358W        W 6558   1.972   1.832   0.926
 2359W        W 6559   9.250   7.023   0.086
 2360W        W 6560   3.222   9.108  10.055
 2361W        W 6561   5.172   8.838   1.702
 2362W        W 6562   3.170  10.315   9.518
 2363W        W 6563   1.208   6.296   1.177
 2364W        W 6564  11.170   3.473   3.498
 2365W        W 6565   3.352   3.864   0.397
 2366W        W 6566  11.483   2.420   9.006
 2367W        W 6567   0.237   9.782  10.401
 2368W        W 6568   2.116   1.393   8.952
 2369W        W 6569   7.818  10.466   8.837
 2370W        W 6570   7.886   4.101   0.594
 2371W        W 6571  11.195   6.165  10.124
 2372W        W 6572   5.313   1.228   2.114
 2373W        W 6573   9.728   7.602   0.051
 2374W        W 6574   2.673   5.517   0.278
 2375W        W 6575   7.308   3.326   2.838
 2376W        W 6576   5.263   8.981   2.219
 2377W        W 6577   2.842   5.378   4.112
 2378W        W 6578   7.135   8.588   3.897
 2379W        W 6579   3.873   4.128   1.572
 2380W        W 6580  10.436   8.518   2.171
 2381W        W 6581   0.356   9.291   0.309
 2382W        W 6582  11.363   2.150   1.405
 2383W        W 6583   7.532   4.306   0.283
 2384W        W 6584   2.269   1.324   1.486
 2385W        W 6585   3.656   6.744   1.175
 2386W        W 6586   1.166  10.995   8.531
 2387W        W 6587   9.516   3.022   9.475
 2388W        W 6588   1.541  10.351  11.959
 2389W        W 6589   4.348   3.621   2.441
 2390W        W 6590   0.497   4.902  10.599
 2391W        W 6591   3.240   7.365  10.417
 2392W        W 6592   4.113   5.568   9.740
 2393W        W 6593  10.428   5.892   9.849
 2394W        W 6594   2.682   5.049   1.308
 2395W        W 6595   0.836   6.658   8.964
 2396W        W 6596   4.367   3.642  11.404
 2397W        W 6597   2.362   6.649   2.761
 2398W        W 6598   1.638   7.471   0.285
 2399W        W 6599   2.351   9.378   0.222
 2400W        W 6600   0.777   3.476   2.342
 2401W        W 6601   8.173   6.066   2.498
 2402W        W 6602   7.659  10.033   2.702
 2403W        W 6603   6.414   5.221   2.254
 2404W        W 6604   7.118   4.863   1.947
 2405W        W 6605   1.557   6.984   2.694
 2406W        W 6606   4.224   1.894   2.632
 2407W        W 6607   3.645  10.767  11.234
 2408W        W 6608   1.566   2.229   2.235
 2409W        W 6609   6.472   0.687  10.199
 2410W        W 6610   4.708   9.799   1.364
 2411W        W 6611   5.420   9.219   8.503
 2412W        W 6612   0.886   6.652   9.489
 2413W        W 6613   9.602  10.155   3.378
 2414W        W 6614   1.355   4.355  11.728
 2415W        W 6615   1.044   5.925  11.988
 2416W        W 6616   0.548   1.414   2.509
 2417W        W 6617   8.510   9.610   9.237
 2418W        W 6618   7.057   4.655   2.459
 2419W        W 6619   0.968   1.187   9.997
 2420W        W 6620   5.125   2.739   1.148
 2421W        W 6621   0.381   7.908   1.161
 2422W        W 6622   9.475   9.647  10.357
 2423W        W 6623   8.916  11.366   2.770
 2424W        W 6624  10.641   8.084   1.989
 2425W        W 6625   9.403   7.603   2.287
 2426W        W 6626   9.570   8.369   8.973
 2427W        W 6627  10.820  10.147   2.643
 2428W        W 6628   3.424   0.481   1.003
 2429W        W 6629   7.215   8.096  11.430
 2430W        W 6630   7.561   2.777   3.508
 2431W        W 6631   8.399  10.677  10.353
 2432W        W 6632   9.519   2.441   1.331
 2433W        W 6633   5.587  10.523   3.274
 2434W        W 6634  11.393   2.877   9.844
 2435W        W 6635   5.247   2.844   1.755
 2436W        W 6636   7.050   9.039   3.237
 2437W        W 6637  11.431   3.293  11.088
 2438W        W 6638   4.528   2.842   2.437
 2439W        W 6639   6.461   0.849   9.370
 2440W        W 6640   0.771  10.231   1.387
 2441W        W 6641   8.443   5.128   8.567
 2442W        W 6642   2.303   1.246   3.292
 2443W        W 6643  10.260   3.373   0.974
 2444W        W 6644   2.615   8.825   0.467
 2445W        W 6645   5.521   8.974  10.329
 2446W        W 6646   6.383   4.170   1.353
 2447W        W 6647  10.896   6.261   3.008
 2448W        W 6648   8.427   3.838  11.875
 2449W        W 6649   8.883   0.362   0.355
 2450W        W 6650   4.598   2.970   1.164
 2451W        W 6651   9.296   2.205   0.928
 2452W        W 6652   1.959   9.534   1.780
 2453W        W 6653   1.064   9.007   9.220
 2454W        W 6654   4.808   8.053  10.167
 2455W        W 6655   2.369   5.044  11.405
 2456W        W 6656   0.970   2.723   1.633
 2457W        W 6657   4.324   6.030   9.861
 2458W        W 6658   0.520   2.682   2.009
 2459W        W 6659   9.484   3.978   2.666
 2460W        W 6660   3.863   3.797  11.393
 2461W        W 6661   2.249   7.951   2.308
 2462W        W 6662   0.392   4.908  11.112
 2463W        W 6663   8.427   6.907  11.533
 2464W        W 6664   3.451   3.933   9.272
 2465W        W 6665   0.944   3.718  11.738
 2466W        W 6666   8.109   8.157  11.061
 2467W        W 6667   6.406   9.954  11.439
 2468W        W 6668   1.126   1.872   2.821
 2469W        W 6669  10.109  10.957   9.922
 2470W        W 6670   2.691   4.120   8.830
 2471W        W 6671   0.627   7.939   8.692
 2472W        W 6672   5.008   3.160   1.424
 2473W        W 6673   9.761   3.601   8.602
 2474W        W 6674   6.015   8.486  11.295
 2475W        W 6675   5.197   9.326  10.546
 2476W        W 6676  11.099   5.872  10.538
 2477W        W 6677  10.868  10.271  11.387
 2478W        W 6678   4.344   4.211   1.779
 2479W        W 6679   1.321   1.447   1.306
 2480W        W 6680   6.471   3.473   2.680
 2481W        W 6681   7.426  10.092   1.706
 2482W        W 6682   9.984   7.471   9.134
 2483W        W 6683   4.092   3.287   1.832
 2484W        W 6684   6.845   2.031   0.144
 2485W        W 6685   6.267   2.713   0.269
 2486W        W 6686  11.252   6.044  10.996
 2487W        W 6687   2.617   3.862  11.444
 2488W        W 6688   1.730   1.293   9.292
 2489W        W 6689   8.901   2.821   1.271
 2490W        W 6690   6.614   1.819   1.396
 2491W        W 6691   2.914   6.616   2.680
 2492W        W 6692   8.496   4.581  11.564
 2493W        W 6693   0.271   4.505   0.313
 2494W        W 6694   1.836  11.192   9.084
 2495W        W 6695   0.495   4.348  11.898
 2496W        W 6696  10.712   2.252  11.518
 2497W        W 6697   8.360   7.257  11.964
 2498W        W 6698   2.728   1.736   9.489
 2499W        W 6699   6.268   3.032  10.318
 2500W        W 6700   9.904   8.126   3.254
 2501W        W 6701   2.886   2.292  11.120
 2502W        W 6702   9.204  11.420   9.529
 2503W        W 6703   2.653   3.751   3.311
 2504W        W 6704   6.630   8.675   2.134
 2505W        W 6705   1.857   1.611   1.385
 2506W        W 6706   7.137  11.137  10.937
 2507W        W 6707   4.256   2.969  11.926
 2508W        W 6708   1.640  10.709   1.396
 2509W        W 6709   4.820   8.853  11.013
 2510W        W 6710   3.216   5.119  11.565
 2511W        W 6711   5.712  10.425   0.714
 2512W        W 6712   6.502   3.842  11.870
 2513W        W 6713   3.493   4.977   3.633
 2514W        W 6714   2.268  10.779   2.668
 2515W        W 6715   4.720   2.458  11.790
 2516W        W 6716   3.101   8.435   0.320
 2517W        W 6717   0.773   6.512   1.360
 2518W        W 6718  10.032  11.276   1.228
 2519W        W 6719   7.600   2.876  10.537
 2520W        W 6720   7.982  10.301   1.881
 2521W        W 6721   5.419   1.393   1.220
 2522W        W 6722   1.028   6.854   2.633
 2523W        W 6723   3.155   2.730  10.962
 2524W        W 6724   3.041   4.265  10.585
 2525W        W 6725   5.510   1.864   3.671
 2526W        W 6726  10.012   6.638   2.696
 2527W        W 6727   6.644   9.918   1.306
 2528W        W 6728   8.235   7.658  10.245
 2529W        W 6729   4.292  10.116  11.300
 2530W        W 6730   3.520   0.954   1.212
 2531W        W 6731  10.794   1.415   1.930
 2532W        W 6732   3.272   5.756   9.482
 2533W        W 6733   0.969   3.682   0.255
 2534W        W 6734   2.948   1.743   1.018
 2535W        W 6735   9.982   2.804  10.576
 2536W        W 6736   7.179   9.063   2.738
 2537W        W 6737   8.508   6.276  11.956
 2538W        W 6738   2.424   0.301   0.543
 2539W        W 6739  11.251   3.618   1.800
 2540W        W 6740  10.275   9.356   9.770
 2541W        W 6741   7.491   6.630  11.815
 2542W        W 6742   5.430   7.188   8.641
 2543W        W 6743   3.644   4.499  10.744
 2544W        W 6744   0.966   3.292   1.490
 2545W        W 6745   6.316   3.201   3.715
 2546W        W 6746   1.413   1.408  10.135
 2547W        W 6747  10.200   7.149  11.313
 2548W        W 6748   6.693   9.153   9.246
 2549W        W 6749   3.177  10.464  10.871
 2550W        W 6750   2.709   1.947   3.171
 2551W        W 6751   3.714   2.613  10.770
 2552W        W 6752   9.395   4.789  10.024
 2553W        W 6753   8.080   0.897   1.465
 2554W        W 6754   2.413   6.554  10.373
 2555W        W 6755   5.834   6.068   9.168
 2556W        W 6756   0.926   6.016   1.502
 2557W        W 6757   6.989   5.172  11.550
 2558W        W 6758  10.004   2.210   9.928
 2559W        W 6759   3.351   6.975   2.382
 2560W        W 6760   4.656   0.297   1.437
 2561W        W 6761  11.049   0.540   1.942
 2562W        W 6762  10.455   9.948   1.893
 2563W        W 6763   6.468   5.150  11.443
 2564W        W 6764   5.934  11.477  11.813
 2565W        W 6765   9.475   0.179  10.836
 2566W        W 6766   1.293   8.413   1.920
 2567W        W 6767   6.480   4.883   9.710
 2568W        W 6768   5.046   9.042   0.237
 2569W        W 6769  11.253   3.992   1.435
 2570W        W 6770  10.030   6.285   3.089
 2571W        W 6771   1.143   7.091  11.385
 2572W        W 6772   8.667  10.038   0.245
 2573W        W 6773   7.520   2.998   1.225
 2574W        W 6774   2.644   4.628   9.654
 2575W        W 6775   8.293  11.008   9.660
 2576W        W 6776   0.391   6.748   8.621
 2577W        W 6777   7.488   1.208  10.917
 2578W        W 6778   5.285  10.470  11.586
 2579W        W 6779  10.957   0.983   1.717
 2580W        W 6780  10.486   3.514  11.269
 2581W        W 6781   6.889   3.679   0.748
 2582W        W 6782   8.129   2.968   8.740
 2583W        W 6783   1.910   8.810   1.280
 2584W        W 6784   1.719   0.654   1.242
 2585W        W 6785   2.632   9.347   2.468
 2586W        W 6786  10.872   2.770   8.962
 2587W        W 6787   1.157   5.758  11.438
 2588W        W 6788   4.971   5.259   1.036
 2589W        W 6789  10.800   6.244   9.784
 2590W        W 6790  10.636   5.145  10.793
 2591W        W 6791   0.640   9.482  11.456
 2592W        W 6792   7.666   6.067   2.401
 2593W        W 6793   1.406   7.109   1.437
 2594W        W 6794   5.636   2.197  11.453
 2595W        W 6795   5.600  11.139   9.940
 2596W        W 6796   0.316   0.992   2.347
 2597W        W 6797   6.021   5.650  11.250
 2598W        W 6798   0.692   1.500   3.322
 2599W        W 6799   6.723   1.855   3.073
 2600W        W 6800   8.643   6.105   2.734
 2601W        W 6801   4.126   5.098   9.561
 2602W        W 6802   0.007   2.401  11.035
 2603W        W 6803  11.399   4.624  10.930
 2604W        W 6804   1.400   3.247   1.204
 2605W        W 6805   9.446  10.639   9.581
 2606W        W 6806   1.937   4.433   0.915
 2607W        W 6807   8.547   0.193   3.500
 2608W        W 6808   4.921   7.636   9.364
 2609W        W 6809   5.281   2.797   9.805
 2610W        W 6810   8.567   2.341  11.766
 2611W        W 6811   5.803   8.855   8.605
 2612W        W 6812   6.949   2.638   2.152
 2613W        W 6813   4.678   9.396   2.733
 2614W        W 6814   8.935   6.395   3.700
 2615W        W 6815   2.824   8.927   0.009
 2616W        W 6816  10.524   7.458   0.365
 2617W        W 6817   3.075   6.503   9.924
 2618W        W 6818  10.777   4.740   3.128
 2619W        W 6819   0.265  10.061  11.837
 2620W        W 6820   7.551   4.198   8.762
 2621W        W 6821   1.406   3.591   1.571
 2622W        W 6822  10.932   4.426   0.244
 2623W        W 6823   1.189  10.519   1.296
 2624W        W 6824   6.505   6.159   9.710
 2625W        W 6825   3.566   1.043   8.644
 2626W        W 6826   3.327   0.978  11.838
 2627W        W 6827  10.409   6.674   0.976
 2628W        W 6828   2.124   3.200   0.439
 2629W        W 6829   9.018   4.772   2.752
 2630W        W 6830   2.577   9.455   9.611
 2631W        W 6831   1.769   8.440   0.047
 2632W        W 6832   1.252   7.379   9.689
 2633W        W 6833   0.283   5.767   3.174
 2634W        W 6834  10.911   4.824   2.151
 2635W        W 6835   3.552  10.693   0.694
 2636W        W 6836   6.649   6.255   8.819
 2637W        W 6837   1.518   2.231  11.931
 2638W        W 6838   3.853   2.348   1.429
 2639W        W 6839   8.518   5.590  11.313
 2640W        W 6840   7.893   3.644  11.814
 2641W        W 6841   7.983  11.479  10.199
 2642W        W 6842   0.281   0.865   3.351
 2643W        W 6843   6.731   3.111   0.922
 2644W        W 6844   9.854  10.357   2.991
 2645W        W 6845  11.022   0.341   9.468
 2646W        W 6846   2.105   6.898   3.640
 2647W        W 6847   6.459   9.075   0.895
 2648W        W 6848   5.572   5.546  11.472
 2649W        W 6849   8.133   1.828   1.437
 2650W        W 6850   4.619   4.626   9.379
 2651W        W 6851   7.600   9.413  11.772
 2652W        W 6852   8.727   6.875   3.610
 2653W        W 6853   5.711   0.411   0.904
 2654W        W 6854  10.500   5.052   2.789
 2655W        W 6855   0.528   2.101   0.194
 2656W        W 6856   1.460   6.182  10.563
 2657W        W 6857   0.414   0.751   1.904
 2658W        W 6858   5.434   2.954   0.203
 2659W        W 6859   6.176   1.354   0.245
 2660W        W 6860   7.082   3.536  10.323
 2661W        W 6861   6.012   6.118   3.272
 2662W        W 6862   4.964   2.726   0.231
 2663W        W 6863  10.875   0.445  11.939
 2664W        W 6864  10.398   5.197   0.165
 2665W        W 6865   6.418   6.158   0.350
 2666W        W 6866  11.131   3.957  10.438
 2667W        W 6867   5.600   8.091   2.619
 2668W        W 6868   5.966   8.018   2.268
 2669W        W 6869   4.029   5.986   0.003
 2670W        W 6870   1.838   6.958  11.951
 2671W        W 6871  11.226   6.439   0.311
 2672W        W 6872   6.842   2.187   1.886
 2673W        W 6873   1.051   0.778  11.838
 2674W        W 6874   8.246   7.196  10.504
 2675W        W 6875   1.768   2.260  10.751
 2676W        W 6876   6.220   9.934   2.253
 2677W        W 6877   9.107   0.911   9.980
 2678W        W 6878   6.884   9.094  10.284
 2679W        W 6879   6.701   0.696   2.249
 2680W        W 6880   9.982   4.182  11.406
 2681W        W 6881   9.940   6.683   1.734
 2682W        W 6882   8.585  10.860  11.270
 2683W        W 6883   7.206   4.663   4.097
 2684W        W 6884  10.912   2.136  10.151
 2685W        W 6885   9.367   4.290  10.119
 2686W        W 6886   3.829   6.638   1.662
 2687W        W 6887   5.623   1.783  11.732
 2688W        W 6888   4.333   6.908   9.732
 2689W        W 6889   3.023  11.419   1.724
 2690W        W 6890   8.473   8.894  10.425
 2691W        W 6891   3.847  11.072  11.677
 2692W        W 6892   6.583   7.847  11.808
 2693W        W 6893   4.172   2.177  11.487
 2694W        W 6894   8.078   3.812  10.903
 2695W        W 6895   5.748   2.911   1.835
 2696W        W 6896   6.510   7.776   1.119
 2697W        W 6897   8.725   5.150  11.098
 2698W        W 6898   0.731   5.568   2.505
 2699W        W 6899   3.652   0.523  11.317
 2700W        W 6900   5.160  11.005  10.783
 2701W        W 6901   2.875   8.943   0.920
 2702W        W 6902   8.054   2.752  10.288
 2703W        W 6903   7.058   0.779   0.967
 2704W        W 6904   4.761   7.174   2.673
 2705W        W 6905   6.730   3.707   2.243
 2706W        W 6906  10.069   1.478  10.755
 2707W        W 6907   4.782  10.044   3.524
 2708W        W 6908   8.870   5.626   2.651
 2709W        W 6909   8.267   4.254   3.244
 2710W        W 6910   1.772   6.538  11.000
 2711W        W 6911   0.818   1.831   2.419
 2712W        W 6912   1.319   7.556  10.439
 2713W        W 6913   8.831   7.100  11.777
 2714W        W 6914   0.008   3.770   2.233
 2715W        W 6915   4.731   6.693   1.430
 2716W        W 6916   7.492   4.080   2.837
 2717W        W 6917   7.788  10.682  11.095
 2718W        W 6918   7.889   7.685   1.276
 2719W        W 6919   0.811   6.425  10.483
 2720W        W 6920   7.500   4.698   9.954
 2721W        W 6921   6.663   0.895   3.199
 2722W        W 6922   6.039   5.629   0.313
 2723W        W 6923   9.070   6.738   3.245
 2724W        W 6924   5.519   8.940   0.939
 2725W        W 6925   5.554  10.803  11.264
 2726W        W 6926   6.540  10.923   1.411
 2727W        W 6927   9.044   9.966   9.638
 2728W        W 6928   2.859   6.106   3.318
 2729W        W 6929   3.206   5.530  10.090
 2730W        W 6930   8.263   6.007   9.656
 2731W        W 6931   2.152   5.583   3.523
 2732W        W 6932   5.145   3.607   1.199
 2733W        W 6933   5.581   9.346   9.342
 2734W        W 6934   7.578  10.005   0.425
 2735W        W 6935  10.605   4.544   8.838
 2736W        W 6936   2.789   8.805   1.814
 2737W        W 6937   2.795   7.697  11.683
 2738W        W 6938  11.275  11.438  10.321
 2739W        W 6939   7.587  10.573   1.722
 2740W        W 6940   0.442   9.120   2.245
 2741W        W 6941   4.735  10.223  10.950
 2742W        W 6942   1.863   0.061  11.526
 2743W        W 6943   9.032   6.745  10.984
 2744W        W 6944   3.775   2.683   0.128
 2745W        W 6945   7.841   9.818   1.835
 2746W        W 6946  10.231   5.054  11.685
 2747W        W 6947  10.762   2.846   3.162
 2748W        W 6948   7.115   8.711  10.017
 2749W        W 6949  10.339   7.698   2.124
 2750W        W 6950   6.981   1.268  10.048
 2751W        W 6951   9.166   0.375   2.163
 2752W        W 6952   4.466  11.401   3.363
 2753W        W 6953   8.856   3.571  10.368
 2754W        W 6954  11.494   8.002   1.448
 2755W        W 6955   7.463   7.236   3.059
 2756W        W 6956   5.221  10.778   0.622
 2757W        W 6957  10.684   7.144  11.424
 2758W        W 6958   1.787   9.796   0.537
 2759W        W 6959   2.196   1.972  10.312
 2760W        W 6960   8.491   7.678   1.850
 2761W        W 6961   8.403   4.221  10.787
 2762W        W 6962   2.138   9.850   1.425
 2763W        W 6963   5.077   7.762   0.387
 2764W        W 6964   3.145  11.423  10.620
 2765W        W 6965   5.283   6.911   9.946
 2766W        W 6966   8.646   5.822   1.363
 2767W        W 6967   1.731   8.611  11.412
 2768W        W 6968   1.879   9.383   1.230
 2769W        W 6969   7.552   9.180   9.456
 2770W        W 6970   2.354   6.992   3.194
 2771W        W 6971   1.890   9.013   3.318
 2772W        W 6972   0.863   9.029   2.531
 2773W        W 6973   2.633  11.369  10.891
 2774W        W 6974   6.218  10.414  11.247
 2775W        W 6975   1.240  11.458   1.247
 2776W        W 6976   8.050   7.593   8.827
 2777W        W 6977   6.487   6.736  11.775
 2778W        W 6978   4.276   3.899   8.825
 2779W        W 6979   2.654  10.138   0.018
 2780W        W 6980   6.874   6.522   2.460
 2781W        W 6981   1.085   7.144   1.837
 2782W        W 6982   0.748   8.368   9.393
 2783W        W 6983   7.523   2.548   0.684
 2784W        W 6984   3.531   9.991   9.656
 2785W        W 6985   9.775   1.448   3.356
 2786W        W 6986   9.019   6.164   1.330
 2787W        W 6987   7.743   4.261   2.404
 2788W        W 6988   5.572   5.764   0.483
 2789W        W 6989   2.657   5.080   8.913
 2790W        W 6990   9.913  11.205   2.535
 2791W        W 6991   4.783   0.643   9.893
 2792W        W 6992   1.336   4.428  10.232
 2793W        W 6993   1.361   1.802   9.826
 2794W        W 6994   3.971   8.025   3.098
 2795W        W 6995   3.990   6.432   2.678
 2796W        W 6996  11.271   8.562   9.481
 2797W        W 6997   2.221   7.662   1.871
 2798W        W 6998   5.632   4.268  10.302
 2799W        W 6999   5.243  10.785   8.665
 2800W        W 7000  11.273   2.837  11.225
 2801W        W 7001  10.877   8.444   9.136
 2802W        W 7002   2.511   5.544   8.714
 2803W        W 7003   0.178   9.136  10.843
 2804W        W 7004   9.094   5.526   8.973
 2805W        W 7005   2.867   9.347   3.213
 2806W        W 7006   5.822   8.880  10.997
 2807W        W 7007   0.381   8.948   0.837
 2808W        W 7008   8.570   9.777  10.314
 2809W        W 7009   4.494   4.006  11.727
 2810W        W 7010   6.878   2.346  11.115
 2811W        W 7011   0.428   3.972  10.045
 2812W        W 7012   4.179   0.406   0.016
 2813W        W 7013   4.869   2.759  11.387
 2814W        W 7014   1.769   0.934  10.649
 2815W        W 7015   6.095   5.080   9.978
 2816W        W 7016   9.541   9.886   2.430
 2817W        W 7017  11.491   0.307   1.661
 2818W        W 7018   8.913   1.786   2.213
 2819W        W 7019  11.053   0.018   1.707
 2820W        W 7020   2.833   8.569  11.110
 2821W        W 7021   6.423   3.629  10.949
 2822W        W 7022  10.338   9.163  11.353
 2823W        W 7023   4.168   1.488   3.300
 2824W        W 7024   5.182   4.178   0.015
 2825W        W 7025   1.884   1.865   3.117
 2826W        W 7026   3.293   8.607  11.337
 2827W        W 7027   6.643   6.651   3.577
 2828W        W 7028   2.736   0.017   2.360
 2829W        W 7029   1.103   5.395   0.764
 2830W        W 7030   9.988   1.207  10.309
 2831W        W 7031   2.891   5.890  10.367
 2832W        W 7032   4.852   9.527   0.203
 2833W        W 7033   6.218   5.805   9.429
 2834W        W 7034   5.630   1.915   9.607
 2835W        W 7035   0.456   0.935   1.388
 2836W        W 7036   9.090   5.064   4.264
 2837W        W 7037   6.641   2.528   4.234
 2838W        W 7038   3.234   0.519   2.861
 2839W        W 7039   0.284   2.154   2.795
 2840W        W 7040   6.453  11.165   0.975
 2841W        W 7041   4.546   8.596   0.186
 2842W        W 7042   8.110  10.063   9.132
 2843W        W 7043   0.862  11.064   3.719
 2844W        W 7044   9.969  10.290  11.752
 2845W        W 7045   2.709   8.053   2.931
 2846W        W 7046   9.939   6.247   1.451
 2847W        W 7047   3.190   9.237   2.380
 2848W        W 7048   8.328   0.772   8.977
 2849W        W 7049   0.021   0.654   1.213
 2850W        W 7050   5.211  10.160  10.727
 2851W        W 7051   8.900   9.522   0.415
 2852W        W 7052   9.339   2.290  10.095
 2853W        W 7053   5.724   7.084   9.056
 2854W        W 7054   6.598   9.531   2.835
 2855W        W 7055   8.425   9.137   1.749
 2856W        W 7056   4.523   9.750  10.958
 2857W        W 7057   4.360   9.567  11.422
 2858W        W 7058   4.152  10.029   0.521
 2859W        W 7059   7.962  10.018   0.788
 2860W        W 7060   4.324   1.429  11.038
 2861W        W 7061   8.977   0.663   9.502
 2862W        W 7062   7.575  10.380   1.255
 2863W        W 7063   0.452   9.905   9.501
 2864W        W 7064  10.839   0.234   1.285
 2865W        W 7065   2.793   7.358  10.166
 2866W        W 7066   9.917   6.529   0.250
 2867W        W 7067  10.374   1.292   9.249
 2868W        W 7068   8.405   5.078  11.472
 2869W        W 7069   7.436   0.934   9.146
 2870W        W 7070   8.762   7.569  11.063
 2871W        W 7071   0.761   2.305   9.642
 2872W        W 7072   2.129   9.068   2.863
 2873W        W 7073   8.406   3.247   8.420
 2874W        W 7074   0.323   1.756  10.040
 2875W        W 7075   8.378   4.183   0.451
 2876W        W 7076   6.184   5.704   0.861
 2877W        W 7077   6.102   0.967   8.993
 2878W        W 7078   6.058   7.415   9.792
 2879W        W 7079   2.320   0.225  11.360
 2880W        W 7080   4.347   6.805   2.668
 2881W        W 7081   2.075   7.871   1.059
 2882W        W 7082   8.046   9.259   9.570
 2883W        W 7083   7.642   6.787  11.340
 2884W        W 7084  10.844  11.446   0.215
 2885W        W 7085   2.175   7.492   3.084
 2886W        W 7086   2.392   5.326   2.200
 2887W        W 7087   3.285   4.727   8.947
 2888W        W 7088   2.176   2.820   9.272
 2889W        W 7089  10.488  10.024   3.453
 2890W        W 7090   8.867   0.622   8.974
 2891W        W 7091   3.431  10.916   3.876
 2892W        W 7092   0.115   1.463   2.234
 2893W        W 7093   6.805   7.977  11.185
 2894W        W 7094   2.679  10.700  10.391
 2895W        W 7095   4.612   4.054   2.610
 2896W        W 7096   8.168   3.704   0.297
 2897W        W 7097   2.404   7.553   0.668
 2898W        W 7098   6.449   9.401  10.337
 2899W        W 7099   4.088   6.446  11.268
 2900W        W 7100  10.757   5.345  11.250
 2901W        W 7101   0.868   6.715  11.624
 2902W        W 7102   0.271   0.421   9.938
 2903W        W 7103   7.149  11.396   3.542
 2904W        W 7104   5.957   8.007  11.012
 2905W        W 7105   7.404   9.577   1.859
 2906W        W 7106   5.657  11.289   1.298
 2907W        W 7107   7.935   3.708  10.411
 2908W        W 7108   2.244   1.189   2.776
 2909W        W 7109   0.051   4.161   2.591
 2910W        W 7110   4.064   3.432   8.805
 2911W        W 7111   9.415   6.540   3.580
 2912W        W 7112   5.364  11.293   1.724
 2913W        W 7113   9.027   2.283   1.362
 2914W        W 7114   8.913   9.039   1.566
 2915W        W 7115   9.963   0.440   2.378
 2916W        W 7116   0.344   9.288   1.211
 2917W        W 7117   0.681   9.521   1.982
 2918W        W 7118   5.037   9.602   8.472
 2919W        W 7119   0.383   8.031   3.148
 2920W        W 7120   8.046   9.493   2.482
 2921W        W 7121  11.334  11.371   2.519
 2922W        W 7122   7.038   2.812   4.057
 2923W        W 7123   4.785  10.779  10.051
 2924W        W 7124   6.438   2.372  10.849
 2925W        W 7125   5.204   6.911   3.585
 2926W        W 7126   4.055  11.068  11.199
 2927W        W 7127   2.767  11.117   2.026
 2928W        W 7128  10.576   0.452   0.903
 2929W        W 7129   5.250   2.776   0.657
 2930W        W 7130   0.241   6.934   1.272
 2931W        W 7131   0.611   1.774   2.895
 2932W        W 7132   0.933   7.675  10.011
 2933W        W 7133   1.533   2.034  10.272
 2934W        W 7134   0.176   9.548   2.115
 2935W        W 7135   2.885   2.093   0.060
 2936W        W 7136   8.380   6.756   0.027
 2937W        W 7137  10.646   8.588  10.436
 2938W        W 7138   2.011   9.356  11.777
 2939W        W 7139   6.198  10.485  11.786
 2940W        W 7140   0.293   3.374   2.370
 2941W        W 7141   7.324   2.415  11.411
 2942W        W 7142   3.323   5.678   2.876
 2943W        W 7143   3.620   4.316   3.040
 2944W        W 7144  11.055   0.903  10.958
 2945W        W 7145   3.199   5.168   2.908
 2946W        W 7146   0.872   9.508  10.330
 2947W        W 7147  10.362   0.429   0.024
 2948W        W 7148   5.111  10.162   2.550
 2949W        W 7149   9.559   5.005   2.678
 2950W        W 7150   9.566   6.998   8.627
 2951W        W 7151   2.653   1.951   1.857
 2952W        W 7152   3.877   1.443   9.457
 2953W        W 7153  10.895   5.684   0.744
 2954W        W 7154   3.979  11.292   9.955
 2955W        W 7155   2.705  10.303  10.716
 2956W        W 7156   0.234   5.224   3.280
 2957W        W 7157   7.543   3.366  10.477
 2958W        W 7158   9.857   9.582   9.570
 2959W        W 7159   5.136   9.344   8.921
 2960W        W 7160   5.510   6.337  11.791
 2961W        W 7161   1.233   3.244   0.181
 2962W        W 7162   6.017   1.722   2.452
 2963W        W 7163   0.892  10.352   1.875
 2964W        W 7164   3.617   1.365   2.393
 2965W        W 7165   9.309   2.743   0.976
 2966W        W 7166   7.425   5.028   3.770
 2967W        W 7167   5.130   6.078   0.510
 2968W        W 7168   4.944  10.081   1.701
 2969W        W 7169   9.375   8.143   1.362
 2970W        W 7170   7.943   9.076   9.103
 2971W        W 7171   3.828   5.547   0.241
 2972W        W 7172   1.742   3.138  10.951
 2973W        W 7173   8.971   8.833   0.291
 2974W        W 7174   2.914  10.341   9.075
 2975W        W 7175   9.023   1.463   2.653
 2976W        W 7176   5.012   7.385   8.897
 2977W        W 7177  10.774   3.265   0.892
 2978W        W 7178   2.729   1.940   2.659
 2979W        W 7179   5.858   3.320   9.361
 2980W        W 7180  10.015   9.424   0.860
 2981W        W 7181   8.865   2.943   0.751
 2982W        W 7182   0.154   4.040  11.686
 2983W        W 7183   5.212   1.437  11.070
 2984W        W 7184   2.168   4.274   9.590
 2985W        W 7185   6.736   2.153   2.385
 2986W        W 7186   0.505   0.445  10.383
 2987W        W 7187  10.161   7.102   9.482
 2988W        W 7188   3.528   6.729   9.819
 2989W        W 7189   6.159   6.443   9.969
 2990W        W 7190   2.689   6.769   8.259
 2991W        W 7191   0.340   0.045   1.204
 2992W        W 7192   2.084   4.298   9.084
 2993W        W 7193  11.372   3.890   0.794
 2994W        W 7194   3.701   0.839   9.088
 2995W        W 7195   6.480   4.527  10.775
 2996W        W 7196   8.605  10.470   9.037
 2997W        W 7197   0.108   0.401   3.181
 2998W        W 7198   8.890   4.890  11.500
 2999W        W 7199   9.856  11.415  11.626
 3000W        W 7200   0.468   3.213   8.961
 3001W        W 7201   2.181   0.022  11.985
 3002W        W 7202  10.922   0.418   0.446
 3003W        W 7203   4.898   1.431   9.622
 3004W        W 7204   0.939   1.387   2.857
 3005W        W 7205   4.384   2.385   2.649
 3006W        W 7206   7.246   2.860   3.087
 3007W        W 7207   3.491   9.312   2.777
 3008W        W 7208   4.325   3.685  10.548
 3009W        W 7209  10.726   0.756  10.558
 3010W        W 7210   9.893   7.705   2.970
 3011W        W 7211   1.241   5.786   1.865
 3012W        W 7212   0.746   8.503  11.234
 3013W        W 7213   3.012   5.986   9.869
 3014W        W 7214   1.332   3.161   1.818
 3015W        W 7215   7.485   2.093   0.923
 3016W        W 7216   1.417   8.621   0.951
 3017W        W 7217   4.135   9.106  10.466
 3018W        W 7218   0.709   8.420   3.716
 3019W        W 7219   3.742   4.946  10.326
 3020W        W 7220   9.619   5.139  11.780
 3021W        W 7221   9.963   8.125   2.674
 3022W        W 7222   2.296   1.927   9.244
 3023W        W 7223   5.684   9.030   2.532
 3024W        W 7224   5.106   3.805  10.926
 3025W        W 7225   6.697   2.691   8.559
 3026W        W 7226   4.255   1.122  11.900
 3027W        W 7227   6.522   1.680   8.756
 3028W        W 7228   3.248   5.297  11.051
 3029W        W 7229   2.580   0.618   1.119
 3030W        W 7230   3.815   5.849   1.483
 3031W        W 7231   3.638   4.372   1.170
 3032W        W 7232   5.101   5.695  10.229
 3033W        W 7233   0.707   7.997  11.378
 3034W        W 7234   8.692   7.466  10.369
 3035W        W 7235   4.614   7.947  11.038
 3036W        W 7236  11.197  11.026   1.804
 3037W        W 7237  10.070   5.178   2.439
 3038W        W 7238   6.274   3.278   9.060
 3039W        W 7239   1.385   5.722  10.221
 3040W        W 7240   2.631   1.717  10.353
 3041W        W 7241  10.164   9.585   1.631
 3042W        W 7242   2.621   0.207  11.824
 3043W        W 7243   0.195   2.738   0.837
 3044W        W 7244   3.151   7.568   1.699
 3045W        W 7245   3.820   9.833   3.256
 3046W        W 7246   0.871  10.874  11.969
 3047W        W 7247   6.278   7.687   0.665
 3048W        W 7248   6.021   1.398   8.460
 3049W        W 7249   9.843   5.170  11.312
 3050W        W 7250   9.171   7.932   9.034
 3051W        W 7251   7.972   4.709   2.522
 3052W        W 7252   6.749   8.995  11.191
 3053W        W 7253   7.708   3.631   2.842
 3054W        W 7254   3.176  10.916  11.917
 3055W        W 7255   7.745   7.576  10.357
 3056W        W 7256  11.061  11.462   3.265
 3057W        W 7257   7.067   0.570   9.070
 3058W        W 7258   0.468  10.852  11.531
 3059W        W 7259   9.940   7.589   9.629
 3060W        W 7260   0.906   0.458   0.673
 3061W        W 7261   2.362   7.215   9.897
 3062W        W 7262   1.223   1.184   9.165
 3063W        W 7263   4.372   2.652  11.457
 3064W        W 7264   3.705  11.329   9.085
 3065W        W 7265  10.417   8.169  11.496
 3066W        W 7266  10.942   2.754   0.189
 3067W        W 7267   9.924   4.831   3.459
 3068W        W 7268   8.846   7.239   0.266
 3069W        W 7269   2.788   1.823  11.631
 3070W        W 7270   7.470  10.401   9.805
 3071W        W 7271   9.520   8.903   8.968
 3072W        W 7272   7.426   6.723   3.116
 3073W        W 7273   5.493  10.768   1.914
 3074W        W 7274   1.385   5.256  11.432
 3075W        W 7275   0.022  10.072   2.011
 3076W        W 7276   5.531   0.627  10.152
 3077W        W 7277   5.807   7.554   0.796
 3078W        W 7278   5.275   3.701   2.125
 3079W        W 7279  10.480   1.393   2.874
 3080W        W 7280   8.153   5.058  10.457
 3081W        W 7281   6.701  10.474   1.251
 3082W        W 7282   6.735   3.792  11.313
 3083W        W 7283   6.061  10.996   1.276
 3084W        W 7284   9.880   4.709  11.573
 3085W        W 7285  11.332   9.247   3.411
 3086W        W 7286   0.483   5.896  10.840
 3087W        W 7287   7.444   8.553  11.458
 3088W        W 7288   5.127   5.736   9.715
 3089W        W 7289   8.080   0.006   3.339
 3090W        W 7290   2.652  10.214  10.229
 3091W        W 7291   8.323   0.779  11.221
 3092W        W 7292   9.393   7.368   1.065
 3093W        W 7293   8.926   1.578   9.292
 3094W        W 7294   5.578   4.239   0.945
 3095W        W 7295   2.892   4.666   8.617
 3096W        W 7296   5.159  10.946   9.736
 3097W        W 7297   1.840   6.555   2.751
 3098W        W 7298   4.149   0.002   8.915
 3099W        W 7299   6.544   9.904   8.923
 3100W        W 7300   5.820   6.018  11.545
 3101W        W 7301   0.862   2.707  10.770
 3102W        W 7302   4.602   5.424   1.422
 3103W        W 7303   4.266   7.871  10.073
 3104W        W 7304   2.824   7.508   2.108
 3105W        W 7305   1.406   8.239  10.554
 3106W        W 7306   7.542   2.744   1.666
 3107W        W 7307  11.387   1.282   0.023
 3108W        W 7308   7.997   0.932   1.976
 3109W        W 7309   6.099   0.458  11.785
 3110W        W 7310   5.309  10.509   1.044
 3111W        W 7311   8.083   2.479  11.896
 3112W        W 7312   7.082   4.006   1.067
 3113W        W 7313   3.205   8.713   9.393
 3114W        W 7314   3.579   5.768  11.849
 3115W        W 7315   5.719  10.804   0.378
 3116W        W 7316   4.057   0.860  10.381
 3117W        W 7317  11.432   5.180   9.796
 3118W        W 7318   6.329   4.738  11.747
 3119W        W 7319   1.263   8.542   9.395
 3120W        W 7320   3.295   7.952   0.395
 3121W        W 7321   3.298   8.204   1.288
 3122W        W 7322   1.786  11.213  10.560
 3123W        W 7323   4.595  11.497   0.921
 3124W        W 7324   8.427  11.283   2.590
 3125W        W 7325   6.141   1.331   0.751
 3126W        W 7326   0.882   7.252   4.050
 3127W        W 7327   0.358   3.790   0.961
 3128W        W 7328   3.765   3.169  11.920
 3129W        W 7329   1.638  10.294   9.014
 3130W        W 7330   3.579  11.252   3.083
 3131W        W 7331  11.028   8.745   0.576
 3132W        W 7332   5.724   2.271   9.240
 3133W        W 7333   2.765   4.902   3.816
 3134W        W 7334   6.712  10.521   9.102
 3135W        W 7335   5.738   2.819  10.003
 3136W        W 7336   4.010   4.672   9.865
 3137W        W 7337   4.543   9.096   0.293
 3138W        W 7338   7.762   8.324   9.247
 3139W        W 7339   0.223   0.869  10.380
 3140W        W 7340  11.456   1.173   1.348
 3141W        W 7341  11.136  10.741   3.538
 3142W        W 7342   1.273  11.361  10.501
 3143W        W 7343   6.979   7.882   2.558
 3144W        W 7344   6.566   4.546   2.657
 3145W        W 7345   1.038   4.440   1.409
 3146W        W 7346   4.264  10.342   1.908
 3147W        W 7347   0.646  10.084   0.186
 3148W        W 7348   1.404   9.503  11.021
 3149W        W 7349   8.962   1.078   9.175
 3150W        W 7350   2.884   0.264   0.273
 3151W        W 7351  11.282   8.731   3.336
 3152W        W 7352  11.161   4.543   3.476
 3153W        W 7353  11.161   4.349   9.913
 3154W        W 7354   1.897   1.866   0.029
 3155W        W 7355   6.975   9.788   0.920
 3156W        W 7356   5.317   8.947  10.983
 3157W        W 7357   1.871   3.883   0.858
 3158W        W 7358  10.484   8.457  11.932
 3159W        W 7359   4.399  10.009   9.229
 3160W        W 7360   2.554   1.204   2.367
 3161W        W 7361   8.578   5.564   8.880
 3162W        W 7362   1.557  10.359   0.966
 3163W        W 7363   3.744   1.748  10.429
 3164W        W 7364   5.642   1.659   1.595
 3165W        W 7365   8.178   1.049   2.444
 3166W        W 7366  10.599   9.365   0.177
 3167W        W 7367   6.271   5.100  10.466
 3168W        W 7368   3.589  10.947   9.451
 3169W        W 7369   8.487   2.645   9.989
 3170W        W 7370   2.303   8.654   9.125
 3171W        W 7371  10.909   9.566   3.417
 3172W        W 7372   9.389   4.354   9.598
 3173W        W 7373   5.724   8.031   9.097
 3174W        W 7374   3.153   6.990   1.008
 3175W        W 7375   9.840   4.528  10.137
 3176W        W 7376   2.824   2.798   0.496
 3177W        W 7377   5.500   2.817   3.329
 3178W        W 7378   6.974   0.781  10.245
 3179W        W 7379  11.460  10.951   2.260
 3180W        W 7380   2.056   6.142  11.874
 3181W        W 7381  11.276   7.580   1.617
 3182W        W 7382   1.696   0.690   9.166
 3183W        W 7383  10.609   8.853   1.393
 3184W        W 7384   3.274   8.890   1.981
 3185W        W 7385   6.032   8.280   1.800
 3186W        W 7386   0.331  11.014   1.298
 3187W        W 7387   6.034  10.899  11.385
 3188W        W 7388   9.867   2.195  11.783
 3189W        W 7389   8.882   0.884  10.741
 3190W        W 7390   8.618   3.693   2.651
 3191W        W 7391   1.246   6.569   3.513
 3192W        W 7392   8.869   1.231   9.669
 3193W        W 7393   3.817   7.806  11.425
 3194W        W 7394   8.305   9.566   2.037
 3195W        W 7395   9.307   7.834   1.852
 3196W        W 7396   0.959   9.866   9.387
 3197W        W 7397   8.873   4.565   1.293
 3198W        W 7398   1.102  11.357  11.941
 3199W        W 7399   1.204   1.044   2.559
 3200W        W 7400   5.779   3.234   8.329
 3201W        W 7401   9.948   6.148   9.857
 3202W        W 7402   5.617   0.787   2.235
 3203W        W 7403   2.721   7.188  11.720
 3204W        W 7404   5.748  11.318   0.442
 3205W        W 7405   2.638   2.895   9.451
 3206W        W 7406   3.806   2.654   3.153
 3207W        W 7407  10.952   8.928   9.264
 3208W        W 7408   2.260  11.283   2.708
 3209W        W 7409   9.037   4.724   9.652
 3210W        W 7410   8.081   9.465   1.553
 3211W        W 7411   7.516   8.878   3.079
 3212W        W 7412   1.985   7.626   2.620
 3213W        W 7413   8.700  11.345   0.373
 3214W        W 7414   0.758   1.577  11.335
 3215W        W 7415   8.426   0.575   1.662
 3216W        W 7416   7.525   8.000   0.994
 3217W        W 7417   4.073   2.801   9.521
 3218W        W 7418   0.815   8.840   0.065
 3219W        W 7419  10.785   4.859  11.442
 3220W        W 7420  11.262   8.178   0.380
 3221W        W 7421   2.720   1.547  11.197
 3222W        W 7422   6.583   0.865   2.702
 3223W        W 7423   4.268   0.975   3.356
 3224W        W 7424  10.828  10.789  10.885
 3225W        W 7425   7.274   1.350   9.595
 3226W        W 7426  10.925   2.552   9.725
 3227W        W 7427   9.447   6.633   0.323
 3228W        W 7428   1.870   2.869   2.700
 3229W        W 7429   3.454   4.370   0.455
 3230W        W 7430   9.566   6.537   0.817
 3231W        W 7431  10.242   1.195   3.299
 3232W        W 7432   7.504   9.440  11.286
 3233W        W 7433   9.933   9.550  10.549
 3234W        W 7434   3.896   9.981   9.291
 3235W        W 7435   3.456   7.995   1.741
 3236W        W 7436  10.618   1.872   9.201
 3237W        W 7437  10.823   0.928   3.498
 3238W        W 7438   3.607   8.943   0.553
 3239W        W 7439   6.983   4.241   2.799
 3240W        W 7440   3.129   3.216   0.448
 3241W        W 7441   6.697   9.135   8.577
 3242W        W 7442   5.986   5.069  11.970
 3243W        W 7443   4.328   8.663   2.560
 3244W        W 7444   6.239  11.304   0.312
 3245W        W 7445   3.653   6.504   2.139
 3246W        W 7446   2.802   4.318   0.954
 3247W        W 7447   1.216  10.019   1.225
 3248W        W 7448  11.359  10.285   9.960
 3249W        W 7449   8.116  10.329  11.288
 3250W        W 7450   0.940   5.615   9.987
 3251W        W 7451   8.443   7.071   9.798
 3252W        W 7452   0.787   7.767  10.909
 3253W        W 7453   3.967   3.200   0.838
 3254W        W 7454   6.386   5.730  10.577
 3255W        W 7455  10.379   9.783   0.873
 3256W        W 7456   0.800   9.968   0.669
 3257W        W 7457   0.415  11.047   9.954
 3258W        W 7458   4.663   4.391  10.044
 3259W        W 7459   0.846   1.242  11.706
 3260W        W 7460  11.479   0.157   0.698
 3261W        W 7461  10.850   1.345   3.210
 3262W        W 7462   1.934  10.366   3.138
 3263W        W 7463   6.299   5.992   1.267
 3264W        W 7464   0.320  11.472  10.237
 3265W        W 7465  10.331   0.392   2.760
 3266W        W 7466   5.353  10.080   0.753
 3267W        W 7467   5.980  11.308   2.917
 3268W        W 7468   2.817   9.373   9.161
 3269W        W 7469   8.421   9.242   3.278
 3270W        W 7470   9.951   2.820   0.412
 3271W        W 7471   9.393   0.056   1.420
 3272W        W 7472   4.981  11.475   2.654
 3273W        W 7473   9.674  11.477   0.101
 3274W        W 7474   8.368   8.696   1.977
 3275W        W 7475   3.362   8.452   2.797
 3276W        W 7476   0.366   6.049   0.727
 3277W        W 7477   4.219   6.552   8.589
 3278W        W 7478   5.040   2.380   9.973
 3279W        W 7479   1.137   8.748   2.921
 3280W        W 7480   2.642   8.374   3.329
 3281W        W 7481   0.335  11.040   8.441
 3282W        W 7482   7.474   1.410   1.161
 3283W        W 7483   1.436   2.096   3.247
 3284W        W 7484   9.957   7.164   9.939
 3285W        W 7485   1.290   0.585   2.367
 3286W        W 7486   2.676   3.474   1.060
 3287W        W 7487  11.358   6.920   0.380
 3288W        W 7488   7.450   8.190   0.288
 3289W        W 7489   6.977  10.178   0.049
 3290W        W 7490   0.466   0.439   1.487
 3291W        W 7491   5.633   3.446   0.170
 3292W        W 7492   8.645   6.034  10.004
 3293W        W 7493   2.248   4.108   1.794
 3294W        W 7494   0.399   2.949  11.853
 3295W        W 7495   7.678   0.094   1.687
 3296W        W 7496   1.922   5.179   2.298
 3297W        W 7497   7.460   2.633   2.173
 3298W        W 7498   1.434   6.929   9.528
 3299W        W 7499   8.422   0.251   2.814
 3300W        W 7500   1.551   9.460   0.849
 3301W        W 7501  11.340   1.618   0.409
 3302W        W 7502   6.504   7.141   9.639
 3303W        W 7503   9.059   8.911  11.249
 3304W        W 7504   3.702   4.707   0.751
 3305W        W 7505   1.799   0.457  10.016
 3306W        W 7506   8.385   8.886   9.423
 3307W        W 7507   1.043   8.015  11.764
 3308W        W 7508   0.311   5.596  10.423
 3309W        W 7509   2.944   9.543   9.953
 3310W        W 7510  10.826   0.646   8.932
 3311W        W 7511   3.236   8.193  10.082
 3312W        W 7512   7.452   0.554   0.265
 3313W        W 7513  11.367   6.521  10.456
 3314W        W 7514   3.144   1.209   1.502
 3315W        W 7515   3.179   7.696  10.804
 3316W        W 7516   6.746   9.047   2.452
 3317W        W 7517   7.979   0.498   0.275
 3318W        W 7518   1.884   3.082   1.271
 3319W        W 7519   4.917  10.348   0.522
 3320W        W 7520  10.277   3.711   8.690
 3321W        W 7521   3.889   2.327   0.908
 3322W        W 7522   7.532   5.656   1.585
 3323W        W 7523   1.364   8.911   1.932
 3324W        W 7524   6.202  10.105   1.190
 3325W        W 7525  10.569   6.084   0.667
 3326W        W 7526   4.015   2.108   3.605
 3327W        W 7527   9.783   3.062   1.839
 3328W        W 7528   0.218   4.531   2.962
 3329W        W 7529   0.488   3.993  10.555
 3330W        W 7530   6.062  10.572   1.028
 3331W        W 7531  10.484  11.198   0.478
 3332W        W 7532  10.379  10.503   9.249
 3333W        W 7533   4.363   6.022  11.207
 3334W        W 7534   9.353   1.015   9.549
 3335W        W 7535   3.044   1.458  10.567
 3336W        W 7536   4.757   6.731   9.544
 3337W        W 7537   4.907   1.230   2.887
 3338W        W 7538  10.732   3.620   2.681
 3339W        W 7539   0.625   9.049  10.525
 3340W        W 7540   8.501   1.446   8.481
 3341W        W 7541   0.738   0.481   3.221
 3342W        W 7542   0.429   2.214   8.742
 3343W        W 7543   6.173   0.039   9.826
 3344W        W 7544   4.126   1.587   1.304
 3345W        W 7545   9.948   6.700  11.248
 3346W        W 7546   4.068   5.016   0.032
 3347W        W 7547   8.056  10.543   1.445
 3348W        W 7548   7.239   5.333   1.047
 3349W        W 7549  11.369   6.016   2.390
 3350W        W 7550   9.434   8.394   2.632
 3351W        W 7551   0.574   7.506  11.304
 3352W        W 7552   7.467   6.061   1.919
 3353W        W 7553   3.017   9.711   3.536
 3354W        W 7554   6.781   4.247   2.282
 3355W        W 7555   3.452   6.544   2.634
 3356W        W 7556   4.983   7.569   1.256
 3357W        W 7557   0.792   8.453  11.739
 3358W        W 7558   7.418   9.917  10.009
 3359W        W 7559   0.921   5.740  10.506
 3360W        W 7560   7.980   8.989   3.291
 3361W        W 7561   5.691   3.121  11.180
 3362W        W 7562  11.427   2.847   2.974
 3363W        W 7563   5.165  10.538  11.058
 3364W        W 7564   2.280   8.557   0.789
 3365W        W 7565   0.375   1.777  11.601
 3366W        W 7566   2.905   7.177  10.771
 3367W        W 7567   8.357   5.654   2.779
 3368W        W 7568   0.989   8.030   1.484
 3369W        W 7569   6.730   9.148   4.169
 3370W        W 7570   1.176  11.123   0.403
 3371W        W 7571   6.639   3.028   0.046
 3372W        W 7572   9.166   6.428   1.802
 3373W        W 7573   2.830   2.937   1.937
 3374W        W 7574   6.545   4.368   9.830
 3375W        W 7575   3.214   3.476   3.159
 3376W        W 7576   4.758   0.745  11.310
 3377W        W 7577   9.379   4.121  10.604
 3378W        W 7578   7.807   3.372   8.687
 3379W        W 7579   3.825   6.506   9.471
 3380W        W 7580  10.335   9.494  11.762
 3381W        W 7581   3.750   4.131   2.588
 3382W        W 7582   4.491   7.329   9.495
 3383W        W 7583   6.947   0.487   9.594
 3384W        W 7584   0.991   6.208   8.759
 3385W        W 7585   1.312   2.468  10.890
 3386W        W 7586   4.899   6.554  10.632
 3387W        W 7587   9.378   2.310  11.640
 3388W        W 7588  10.922   6.731   2.660
 3389W        W 7589   4.225   5.274   1.890
 3390W        W 7590   4.993   2.358   1.952
 3391W        W 7591   5.403   4.961   2.564
 3392W        W 7592   9.836   9.976  11.323
 3393W        W 7593   4.417   7.056   0.596
 3394W        W 7594   8.252   6.983   3.357
 3395W        W 7595  10.796  11.054  11.848
 3396W        W 7596  10.488   6.112   3.251
 3397W        W 7597   5.295   2.122   9.001
 3398W        W 7598   7.030   1.019   8.818
 3399W        W 7599   7.021   2.825  11.284
 3400W        W 7600   6.702   7.036  10.214
 3401W        W 7601   5.202   5.653   0.818
 3402W        W 7602  10.012   7.166  10.836
 3403W        W 7603   9.079   6.235   9.800
 3404W        W 7604   4.120   1.940   1.661
 3405W        W 7605   2.947   8.650   9.912
 3406W        W 7606   0.486   9.452   8.533
 3407W        W 7607   9.929   8.686   8.733
 3408W        W 7608   6.481   9.619   9.353
 3409W        W 7609   3.106   1.674   1.846
 3410W        W 7610   8.411   2.528   8.539
 3411W        W 7611   5.275   1.304   9.291
 3412W        W 7612   4.206   3.070   9.951
 3413W        W 7613   9.510  10.282  10.939
 3414W        W 7614   3.042   3.140  10.649
 3415W        W 7615   3.602   8.551   0.240
 3416W        W 7616   1.411   2.599   9.893
 3417W        W 7617   1.819   7.700  10.396
 3418W        W 7618   4.106   6.742  10.848
 3419W        W 7619   7.817   6.961   1.536
 3420W        W 7620   1.907   2.842   1.784
 3421W        W 7621   8.424   6.312   0.840
 3422W        W 7622   6.643  11.259   2.418
 3423W        W 7623   2.649   2.567   9.070
 3424W        W 7624   2.316   6.883   9.482
 3425W        W 7625   4.295   0.454  10.590
 3426W        W 7626   3.100  10.825   9.549
 3427W        W 7627   7.113   4.996   0.060
 3428W        W 7628  10.791   9.011   0.947
 3429W        W 7629   9.589   1.510   2.609
 3430W        W 7630   4.354   9.779   2.886
 3431W        W 7631   0.705   0.944   2.699
 3432W        W 7632   6.691  10.579   3.199
 3433W        W 7633  10.916  10.900   0.323
 3434W        W 7634  10.943   8.045   2.737
 3435W        W 7635   5.829   6.664  10.907
 3436W        W 7636   8.980   4.418  11.375
 3437W        W 7637   2.190   8.363   9.524
 3438W        W 7638   4.178   3.009   3.259
 3439W        W 7639   2.477   2.221   2.277
 3440W        W 7640   4.189   3.562  10.078
 3441W        W 7641   6.569  10.481  10.157
 3442W        W 7642   3.475   8.798   2.434
 3443W        W 7643   6.504   5.218  11.955
 3444W        W 7644   9.890   2.680   9.594
 3445W        W 7645  10.832   8.940  11.242
 3446W        W 7646   1.305   5.137   0.361
 3447W        W 7647   7.224   6.975   0.965
 3448W        W 7648   2.334   1.077   1.923
 3449W        W 7649   8.736   7.781   0.870
 3450W        W 7650   7.012   3.915  11.729
 3451W        W 7651   7.147   8.555   3.374
 3452W        W 7652   9.780   4.573   1.043
 3453W        W 7653   8.634  11.230   1.293
 3454W        W 7654   1.675   0.829   9.647
 3455W        W 7655   8.167   0.925   3.566
 3456W        W 7656   8.220  10.477  10.814
 3457W        W 7657  10.858   5.754   3.111
 3458W        W 7658   2.348   5.097   3.596
 3459W        W 7659   5.287   7.870  10.290
 3460W        W 7660   1.777   2.690   9.577
 3461W        W 7661   0.089   1.758  10.554
 3462W        W 7662   9.365   2.753   3.035
 3463W        W 7663   3.414   1.252   9.286
 3464W        W 7664   7.123   3.936   1.965
 3465W        W 7665   8.785   5.085   8.922
 3466W        W 7666   0.250   8.308   0.273
 3467W        W 7667   7.679   7.947  11.258
 3468W        W 7668   5.199   6.895   2.390
 3469W        W 7669   2.454   9.490  10.148
 3470W        W 7670   6.716   6.904  10.708
 3471W        W 7671   5.079   4.138   2.301
 3472W        W 7672   0.049   9.636  10.917
 3473W        W 7673   5.902   7.516   3.152
 3474W        W 7674  11.415   8.795   9.050
 3475W        W 7675   7.727   8.574  11.917
 3476W        W 7676   5.129   9.360   1.856
 3477W        W 7677   1.787   9.464   3.030
 3478W        W 7678   3.031   5.260   0.619
 3479W        W 7679   6.035   6.041   0.031
 3480W        W 7680  10.857   4.549   9.544
 3481W        W 7681   8.999   6.694   1.407
 3482W        W 7682   0.760  10.756   1.237
 3483W        W 7683   5.991   0.805  10.347
 3484W        W 7684  11.454   1.305  10.819
 3485W        W 7685   9.566   5.413  10.929
 3486W        W 7686   4.338   9.487   9.470
 3487W        W 7687  10.335   2.810   8.936
 3488W        W 7688   4.036   5.554   2.370
 3489W        W 7689  10.837   8.175  10.132
 3490W        W 7690   4.742   0.842   3.196
 3491W        W 7691   1.395   6.131  11.110
 3492W        W 7692   6.013   6.457  11.772
 3493W        W 7693   9.770   4.024  10.274
 3494W        W 7694   8.323   1.487   0.840
 3495W        W 7695   5.678   5.659   0.977
 3496W        W 7696   3.567   8.327   2.188
 3497W        W 7697   8.540   4.709   3.182
 3498W        W 7698   1.200   8.652   0.439
 3499W        W 7699   8.878  10.464   0.452
 3500W        W 7700   0.781   4.771   2.206
 3501W        W 7701   0.523  10.564  10.940
 3502W        W 7702  10.066   1.696   9.570
 3503W        W 7703   4.286   3.770   9.623
 3504W        W 7704   2.350   3.126   3.274
 3505W        W 7705   3.237   9.587   8.794
 3506W        W 7706   2.374   5.323  10.967
 3507W        W 7707   9.475   7.024   0.670
 3508W        W 7708   7.509   4.576   2.757
 3509W        W 7709  11.015  11.362   8.545
 3510W        W 7710   1.595   8.602   3.196
 3511W        W 7711  10.849   8.369   1.315
 3512W        W 7712   6.763   5.269   1.843
 3513W        W 7713  11.310   5.740   1.920
 3514W        W 7714   8.299  11.178  10.519
 3515W        W 7715   2.801   5.051  10.884
 3516W        W 7716   2.282   6.650  11.279
 3517W        W 7717   1.616   8.543   2.342
 3518W        W 7718   3.078  10.546   0.796
 3519W        W 7719   3.249   5.598   8.987
 3520W        W 7720   1.009  10.717  11.002
 3521W        W 7721   1.814   6.666  11.512
 3522W        W 7722   8.148   8.464   3.172
 3523W        W 7723   4.606   9.044   9.401
 3524W        W 7724  11.342   3.338   9.567
 3525W        W 7725   3.168   4.156   0.011
 3526W        W 7726   9.035   2.329   2.279
 3527W        W 7727   1.252   0.712  11.366
 3528W        W 7728   3.150   4.779   9.560
 3529W        W 7729   5.229   1.394   0.429
 3530W        W 7730   9.330   4.682   2.315
 3531W        W 7731   0.467   0.241   2.846
 3532W        W 7732   0.646   6.346  11.240
 3533W        W 7733   3.675   2.714   2.625
 3534W        W 7734   1.113  10.385   0.723
 3535W        W 7735   6.148   7.697   8.942
 3536W        W 7736   0.732   3.318  11.998
 3537W        W 7737   1.734   9.821   8.826
 3538W        W 7738   4.278   1.854   0.391
 3539W        W 7739   3.362   4.571  10.343
 3540W        W 7740  10.362  10.885   0.070
 3541W        W 7741   6.516   9.441  11.352
 3542W        W 7742   8.158   2.179  11.485
 3543W        W 7743   0.966   3.694  11.233
 3544W        W 7744   4.623   1.512  11.921
 3545W        W 7745   5.235  10.634   9.197
 3546W        W 7746   8.880  10.441   2.287
 3547W        W 7747  11.163   5.218   0.014
 3548W        W 7748   8.025  10.355   2.880
 3549W        W 7749   9.357   5.549   2.481
 3550W        W 7750   1.616   1.852  11.598
 3551W        W 7751   6.398   9.403   8.884
 3552W        W 7752   5.917  10.444  10.391
 3553W        W 7753   7.894   8.894   1.761
 3554W        W 7754  10.978   7.403   1.258
 3555W        W 7755   1.897   8.974   2.376
 3556W        W 7756   4.944   8.287  11.735
 3557W        W 7757  10.185  11.410   0.103
 3558W        W 7758   6.718  11.294   1.900
 3559W        W 7759   4.801   9.930   9.521
 3560W        W 7760   8.612  10.337  11.099
 3561W        W 7761   5.379   7.325   3.292
 3562W        W 7762   6.157   3.696   1.340
 3563W        W 7763   2.732   3.043  11.075
 3564W        W 7764  11.405   5.607   0.841
 3565W        W 7765   8.011   3.250   9.595
 3566W        W 7766   5.140  10.794   3.283
 3567W        W 7767   1.275   0.083   2.240
 3568W        W 7768   1.346   9.171   3.162
 3569W        W 7769   7.167   7.396   2.068
 3570W        W 7770   4.093   6.484  11.793
 3571W        W 7771  11.017   1.861   1.745
 3572W        W 7772   9.301  11.425   3.749
 3573W        W 7773   6.195   2.478   8.670
 3574W        W 7774   6.702   9.923   2.513
 3575W        W 7775   3.582   3.543   8.941
 3576W        W 7776   3.124  10.046  10.002
 3577W        W 7777   8.007   0.245   0.777
 3578W        W 7778   9.984  10.328   8.914
 3579W        W 7779   8.706   2.306   2.690
 3580W        W 7780   0.278   2.394   1.225
 3581W        W 7781   3.691   0.336   9.218
 3582W        W 7782  11.387  11.023   8.708
 3583W        W 7783  11.029   2.317   2.298
 3584W        W 7784   1.858   6.037  10.894
 3585W        W 7785   3.437   8.594   9.839
 3586W        W 7786   2.566   7.097   1.935
 3587W        W 7787   9.921   4.799   0.606
 3588W        W 7788   7.673   8.770   2.275
 3589W        W 7789  11.355  10.564   1.964
 3590W        W 7790   0.971   5.398   1.632
 3591W        W 7791   6.936   1.854   0.631
 3592W        W 7792   1.985   2.267  11.719
 3593W        W 7793   6.527   5.611   1.496
 3594W        W 7794   9.172   3.458  11.203
 3595W        W 7795   3.508   7.528   2.634
 3596W        W 7796   3.585   7.084  10.175
 3597W        W 7797   7.246   6.137  11.005
 3598W        W 7798   4.026   9.401   8.544
 3599W        W 7799   6.207   2.834   0.752
 3600W        W 7800   9.536   9.060  11.767
 3601W        W 7801   2.396   9.142   8.957
 3602W        W 7802   9.244   5.762   3.020
 3603W        W 7803   4.975   6.674  11.240
 3604W        W 7804   4.334   4.744  11.198
 3605W        W 7805   5.372   8.856  11.897
 3606W        W 7806   3.228   7.924   2.198
 3607W        W 7807   8.446   1.801   0.432
 3608W        W 7808  11.438   7.840   3.015
 3609W        W 7809   0.965   8.252  10.852
 3610W        W 7810   1.173   4.280  11.240
 3611W        W 7811   6.119   5.276   9.468
 3612W        W 7812   6.685  10.192   0.851
 3613W        W 7813   6.796   0.305  10.062
 3614W        W 7814   5.654   4.072   9.848
 3615W        W 7815   4.558   1.688   2.997
 3616W        W 7816   8.047   8.143   1.006
 3617W        W 7817   1.990  10.353   0.206
 3618W        W 7818   1.266   2.695   9.357
 3619W        W 7819   6.512   2.617   2.413
 3620W        W 7820   4.072   7.616   9.639
 3621W        W 7821   2.285   5.544  10.456
 3622W        W 7822   9.554   8.262  10.736
 3623W        W 7823   1.876   6.981   9.248
 3624W        W 7824   9.952   0.880   0.596
 3625W        W 7825   6.162   8.491   2.257
 3626W        W 7826  11.325   1.106   0.512
 3627W        W 7827   7.463   7.667   0.247
 3628W        W 7828  11.039   6.152   0.902
 3629W        W 7829   2.140   8.977   0.486
 3630W        W 7830   8.391   6.884   2.317
 3631W        W 7831   3.305   4.946   1.949
 3632W        W 7832  10.955   1.409   1.437
 3633W        W 7833   4.692   1.871   0.920
 3634W        W 7834   5.626   0.630   1.755
 3635W        W 7835   3.197   7.559   3.054
 3636W        W 7836   1.072   7.612  11.360
 3637W        W 7837  10.040   9.950   3.212
 3638W        W 7838   5.750   2.182   2.339
 3639W        W 7839   9.039  10.839   1.520
 3640W        W 7840   6.584   8.209   2.930
 3641W        W 7841   1.811  10.403  10.725
 3642W        W 7842   9.965   8.749   0.086
 3643W        W 7843   1.739   4.355   9.899
 3644W        W 7844   4.298   8.495   0.973
 3645W        W 7845   9.894   5.687  11.246
 3646W        W 7846   0.199   1.716   0.067
 3647W        W 7847   3.706  10.443   9.462
 3648W        W 7848   8.502  10.871   0.461
 3649W        W 7849   5.023   3.886   9.235
 3650W        W 7850   8.032   0.066   2.389
 3651W        W 7851   5.486   7.434   0.392
 3652W        W 7852  10.535   0.922  10.990
 3653W        W 7853   8.055   1.945  11.989
 3654W        W 7854   0.676   0.061  11.053
 3655W        W 7855   8.017  10.444   3.378
 3656W        W 7856   8.564   6.637   3.145
 3657W        W 7857  10.977   8.573  10.888
 3658W        W 7858   1.325   0.210   2.733
 3659W        W 7859   5.026   5.249  10.491
 3660W        W 7860   8.548   4.651  11.070
 3661W        W 7861   2.304   5.261   2.709
 3662W        W 7862   9.407   2.262   9.093
 3663W        W 7863   3.999   1.255   9.005
 3664W        W 7864   2.599   6.576   2.286
 3665W        W 7865   7.286   7.992  10.935
 3666W        W 7866   5.100   3.902   2.746
 3667W        W 7867   4.470   9.875   1.804
 3668W        W 7868   8.365  11.446   9.265
 3669W        W 7869   8.457   0.294   8.913
 3670W        W 7870   0.729   2.213   1.506
 3671W        W 7871   2.885  10.527   9.914
 3672W        W 7872   5.052   3.218   0.407
 3673W        W 7873   9.643   3.530   9.477
 3674W        W 7874  10.061   7.168   2.803
 3675W        W 7875  10.614   2.656  11.825
 3676W        W 7876   5.067   3.085   3.194
 3677W        W 7877   6.327   6.585  10.859
 3678W        W 7878   0.411  10.845   0.828
 3679W        W 7879  11.392   3.087   0.081
 3680W        W 7880   1.246   0.328   9.105
 3681W        W 7881  11.236   2.332   1.852
 3682W        W 7882   3.724   5.226   2.129
 3683W        W 7883   2.352   3.075   1.783
 3684W        W 7884   4.303   9.242  10.957
 3685W        W 7885   6.018   5.315  10.868
 3686W        W 7886   5.641   1.381   3.511
 3687W        W 7887   3.284   8.654  10.834
 3688W        W 7888   8.722   5.157   1.950
 3689W        W 7889   6.233   3.999  10.658
 3690W        W 7890   2.335  10.336   1.309
 3691W        W 7891   4.908   4.166   3.146
 3692W        W 7892   8.141  10.765   0.091
 3693W        W 7893   7.299   2.151  10.900
 3694W        W 7894   2.823  11.025   9.939
 3695W        W 7895   6.489   5.703   1.994
 3696W        W 7896   7.145   7.598  11.282
 3697W        W 7897   4.341   6.012   1.536
 3698W        W 7898   9.678   0.369   3.348
 3699W        W 7899   4.177   9.036   1.742
 3700W        W 7900   9.519   4.492   2.778
 3701W        W 7901   3.402   2.253  10.995
 3702W        W 7902   6.054   5.581   9.871
 3703W        W 7903   2.374   7.961  11.516
 3704W        W 7904   2.258   5.677  11.983
 3705W        W 7905   0.389   6.610   9.205
 3706W        W 7906  10.035   1.024  11.032
 3707W        W 7907   0.470  11.330   1.687
 3708W        W 7908  11.399   2.669  10.339
 3709W        W 7909   7.959   6.654   3.735
 3710W        W 7910   2.694   6.657  10.814
 3711W        W 7911   3.095   5.970   1.986
 3712W        W 7912   5.736   6.754   1.655
 3713W        W 7913  11.378   9.057   2.916
 3714W        W 7914   1.123   2.939  11.770
 3715W        W 7915  11.023   7.932   9.325
 3716W        W 7916   5.666   9.418   1.743
 3717W        W 7917   3.813   2.446  11.241
 3718W        W 7918   9.555   5.168   0.737
 3719W        W 7919   8.536   7.450   1.384
 3720W        W 7920   9.533   3.282  11.561
 3721W        W 7921   2.319   3.560  10.529
 3722W        W 7922   9.679   9.630   3.443
 3723W        W 7923   8.576  11.294  10.959
 3724W        W 7924   7.130   2.658  10.315
 3725W        W 7925   3.137   6.177   2.852
 3726W        W 7926   1.136   0.899   0.452
 3727W        W 7927   8.550   5.651   1.842
 3728W        W 7928  10.078   6.135   2.586
 3729W        W 7929   4.159   7.732  10.933
 3730W        W 7930  10.361  11.476   0.894
 3731W        W 7931   0.127   2.634   8.497
 3732W        W 7932   6.107   2.741  11.305
 3733W        W 7933   4.224   0.057   0.473
 3734W        W 7934   6.256   6.920   1.392
 3735W        W 7935   6.156   4.837   1.782
 3736W        W 7936   7.744   5.521   1.135
 3737W        W 7937   7.281   9.377   0.990
 3738W        W 7938   5.122   9.182   0.731
 3739W        W 7939   1.870  10.037   1.820
 3740W        W 7940   5.293   4.666  10.288
 3741W        W 7941   4.283   3.814   0.175
 3742W        W 7942   3.083   2.598   9.427
 3743W        W 7943   6.961   4.721   9.846
 3744W        W 7944   5.072   9.672   0.674
 3745W        W 7945   5.223   0.833   2.977
 3746W        W 7946   9.394   3.574   2.976
 3747W        W 7947   0.353   6.394  10.728
 3748W        W 7948   0.779  11.263   1.285
 3749W        W 7949   3.267   4.245  11.040
 3750W        W 7950   3.999   0.359  10.180
 3751W        W 7951   0.536   5.672   1.542
 3752W        W 7952  10.858   3.252   0.025
 3753W        W 7953   8.101   8.167   2.741
 3754W        W 7954   6.264   8.275  11.826
 3755W        W 7955   9.079   6.506   9.380
 3756W        W 7956   2.393   3.859   2.883
 3757W        W 7957   3.501  10.793   1.223
 3758W        W 7958   9.634   1.884   9.770
 3759W        W 7959   8.264   4.288   2.422
 3760W        W 7960   9.488  10.778   1.848
 3761W        W 7961   9.533   8.551  11.803
 3762W        W 7962   3.326   1.936   0.277
 3763W        W 7963   3.911   9.058   2.541
 3764W        W 7964   9.368   1.362   3.038
 3765W        W 7965   6.148   0.311  10.266
 3766W        W 7966   7.613   4.593  10.909
 3767W        W 7967  10.822  11.040   0.826
 3768W        W 7968   6.023   8.141   0.632
 3769W        W 7969   6.687   4.686  11.257
 3770W        W 7970   2.183   4.196  10.087
 3771W        W 7971   8.488   3.623   9.967
 3772W        W 7972   0.727   9.756   1.171
 3773W        W 7973   3.050   0.436   2.381
 3774W        W 7974   8.394   3.570  10.560
 3775W        W 7975   2.882   5.248   2.104
 3776W        W 7976   6.126   4.114   9.153
 3777W        W 7977   9.375   5.471   3.441
 3778W        W 7978   2.548   5.511   3.139
 3779W        W 7979   6.907  10.666   8.630
 3780W        W 7980   4.182   5.651  10.229
 3781W        W 7981   6.672   3.127   2.337
 3782W        W 7982   0.813  11.211   9.509
 3783W        W 7983   0.288   7.512   8.787
 3784W        W 7984   7.965   1.874   2.433
 3785W        W 7985   9.781   7.889   0.476
 3786W        W 7986   9.779   5.898   9.442
 3787W        W 7987   3.377   3.324  11.577
 3788W        W 7988   5.689   0.896   2.731
 3789W        W 7989  10.959   9.970   3.099
 3790W        W 7990   2.097   8.306   8.764
 3791W        W 7991   8.579  10.090   9.396
 3792W        W 7992   1.854   6.046   9.121
 3793W        W 7993  11.284   7.491   2.111
 3794W        W 7994  10.056   5.356   1.481
 3795W        W 7995   7.950   8.170   9.708
 3796W        W 7996   8.003   1.943   8.928
 3797W        W 7997   9.841   0.910   2.513
 3798W        W 7998   5.679   9.888   0.409
 3799W        W 7999  10.785   2.720  11.272
 3800W        W 8000   9.765   1.555  11.764
 3801W        W 8001   9.024   2.985  11.109
 3802W        W 8002   3.391   5.682   0.569
 3803W        W 8003   0.707   1.163   9.033
 3804W        W 8004   2.615   2.263  10.403
 3805W        W 8005   1.846   3.608   1.294
 3806W        W 8006   3.618   7.900   9.542
 3807W        W 8007   7.904   7.396  10.813
 3808W        W 8008   5.150   3.439  10.555
 3809W        W 8009   4.607  10.007  10.509
 3810W        W 8010   7.964   3.843   9.052
 3811W        W 8011   3.614   8.595   1.194
 3812W        W 8012   6.743   7.452   2.331
 3813W        W 8013   7.626   7.450  11.237
 3814W        W 8014   3.116  10.456  10.361
 3815W        W 8015   0.602   2.868   1.183
 3816W        W 8016   9.783   2.367  10.385
 3817W        W 8017   8.472   9.377  11.137
 3818W        W 8018   8.518  10.571   9.540
 3819W        W 8019   4.487  11.315  10.136
 3820W        W 8020  11.226   9.135  11.533
 3821W        W 8021   1.636   9.413   3.508
 3822W        W 8022   8.084   5.362   8.254
 3823W        W 8023   2.038   8.870   9.528
 3824W        W 8024   8.763   5.340   3.353
 3825W        W 8025   8.416   8.220   1.795
 3826W        W 8026  10.970   1.214   9.662
 3827W        W 8027   9.097   8.066   2.399
 3828W        W 8028   3.961   9.974   1.768
 3829W        W 8029   8.206   5.543   9.428
 3830W        W 8030  10.688   2.252   1.914
 3831W        W 8031   7.514   4.493   1.236
 3832W        W 8032   9.478   6.953  10.822
 3833W        W 8033   0.447   6.861   2.555
 3834W        W 8034  10.380   6.551   0.474
 3835W        W 8035   1.783   4.093  11.817
 3836W        W 8036   4.658   4.086  10.901
 3837W        W 8037   0.509   4.991   3.670
 3838W        W 8038   1.834  10.250   1.366
 3839W        W 8039   7.202  11.416   0.351
 3840W        W 8040   6.226   6.955  10.031
 3841W        W 8041   9.998   9.799   8.775
 3842W        W 8042   2.453  10.478   1.790
 3843W        W 8043   8.951   2.993   0.222
 3844W        W 8044   9.417   0.397   9.359
 3845W        W 8045  10.273   1.303   2.009
 3846W        W 8046   0.765   3.609  10.767
 3847W        W 8047   7.005   1.624   2.693
 3848W        W 8048   8.509  10.448  11.583
 3849W        W 8049  10.981  10.298  10.871
 3850W        W 8050   9.477   1.924  11.980
 3851W        W 8051   3.539   3.254   2.359
 3852W        W 8052   9.993   0.373   0.358
 3853W        W 8053   3.831   8.972  11.951
 3854W        W 8054   8.978  10.367   1.356
 3855W        W 8055   3.744   0.229   0.261
 3856W        W 8056   2.296   1.434  10.045
 3857W        W 8057   9.383   3.636  10.359
 3858W        W 8058   6.946   9.480   9.525
 3859W        W 8059   8.593   5.127   4.111
 3860W        W 8060  10.132   0.834   1.497
 3861W        W 8061   1.435   1.473   2.722
 3862W        W 8062   0.778   9.362   1.513
 3863W        W 8063   7.349  10.941   0.734
 3864W        W 8064   6.370   2.098   2.717
 3865W        W 8065   9.604   1.865   2.993
 3866W        W 8066   4.984   3.323   1.911
 3867W        W 8067   2.504   1.401  11.645
 3868W        W 8068   7.192   3.477   2.221
 3869W        W 8069   8.521  10.959   9.195
 3870W        W 8070  10.480  11.000  10.539
 3871W        W 8071   9.825   3.573   1.812
 3872W        W 8072  11.445   6.642   8.927
 3873W        W 8073   0.187   9.541   3.690
 3874W        W 8074   3.562   5.393   1.371
 3875W        W 8075   6.067   1.818   9.379
 3876W        W 8076   4.642   4.322   0.957
 3877W        W 8077   5.987   1.801   0.481
 3878W        W 8078   3.142   3.485   9.163
 3879W        W 8079   6.088   7.456  10.784
 3880W        W 8080   4.547   8.875  10.598
 3881W        W 8081  11.007   9.299   0.560
 3882W        W 8082   5.068   4.595   0.772
 3883W        W 8083   4.467   8.751   9.007
 3884W        W 8084   5.523   1.898   3.153
 3885W        W 8085  10.350  10.167  11.345
 3886W        W 8086   5.770   4.367   9.427
 3887W        W 8087   9.489   7.385   9.025
 3888W        W 8088   4.774   0.677  10.771
 3889W        W 8089   4.316   4.284   9.630
 3890W        W 8090   7.288   1.852   3.089
 3891W        W 8091   1.355  10.399  11.493
 3892W        W 8092   4.457   1.206   1.467
 3893W        W 8093   4.783   3.652   9.615
 3894W        W 8094   3.383   7.119   3.280
 3895W        W 8095   8.978  10.741  11.696
 3896W        W 8096  11.201   5.607  11.297
 3897W        W 8097   4.831  10.623   0.950
 3898W        W 8098  11.336   0.132   0.197
 3899W        W 8099   4.111   9.858   9.741
 3900W        W 8100   3.652   8.066   2.640
 3901W        W 8101   3.121   9.892   0.007
 3902W        W 8102   2.701   9.094   9.943
 3903W        W 8103   9.453   9.296  10.766
 3904W        W 8104   5.794   4.953   0.483
 3905W        W 8105   8.437   0.464  11.997
 3906W        W 8106  10.826  11.306  11.358
 3907W        W 8107   8.925   5.886  11.460
 3908W        W 8108   9.564   3.590  10.861
 3909W        W 8109   6.294   5.031   2.745
 3910W        W 8110   5.239  10.162   9.427
 3911W        W 8111   0.421   3.268   0.849
 3912W        W 8112  11.353   1.413   3.098
 3913W        W 8113   8.367   1.274  10.563
 3914W        W 8114   4.923  10.833  11.739
 3915W        W 8115   1.753   0.182   9.149
 3916W        W 8116   4.640   8.398  10.729
 3917W        W 8117   5.637  11.157  10.872
 3918W        W 8118   8.478   1.788   2.489
 3919W        W 8119   6.318   7.302   1.021
 3920W        W 8120   0.281   8.998   8.729
 3921W        W 8121  10.522   2.280   2.412
 3922W        W 8122   4.142   9.501   1.988
 3923W        W 8123  10.495   8.544   2.687
 3924W        W 8124  11.304   3.838   9.928
 3925W        W 8125   7.148   0.342  11.617
 3926W        W 8126   2.201   5.814   1.983
 3927W        W 8127   0.502   3.656   1.934
 3928W        W 8128   8.055   2.255   1.175
 3929W        W 8129   7.163   7.830   9.938
 3930W        W 8130   2.758   7.955   2.372
 3931W        W 8131   7.419   5.210   2.199
 3932W        W 8132   8.414   6.445   3.597
 3933W        W 8133   7.638   5.079   2.688
 3934W        W 8134   9.676  10.269   2.037
 3935W        W 8135   6.019   7.758   1.813
 3936W        W 8136  10.491   0.088  10.767
 3937W        W 8137   5.667   1.729  11.184
 3938W        W 8138   7.246   5.216   1.599
 3939W        W 8139   8.529   1.840  11.849
 3940W        W 8140   3.262   2.688   1.808
 3941W        W 8141   0.507   4.461  10.312
 3942W        W 8142   1.188  11.006   1.534
 3943W        W 8143   3.890   4.124   0.327
 3944W        W 8144   9.429   4.763   8.245
 3945W        W 8145   9.043   4.757  11.019
 3946W        W 8146   7.668   1.021   2.485
 3947W        W 8147   4.490  10.895   8.482
 3948W        W 8148   7.197   8.413   0.902
 3949W        W 8149   7.599   8.360   3.156
 3950W        W 8150   5.347   7.791   3.065
 3951W        W 8151   6.290  11.354  11.470
 3952W        W 8152   3.860   2.823   1.660
 3953W        W 8153   7.678   3.137  11.843
 3954W        W 8154   3.262   1.857   1.377
 3955W        W 8155   8.019   3.123   1.686
 3956W        W 8156   2.011   9.456  10.401
 3957W        W 8157   1.040   5.555  10.974
 3958W        W 8158   9.357   2.848   2.047
 3959W        W 8159   2.693   7.548   3.159
 3960W        W 8160   8.420   4.333  11.975
 3961W        W 8161   7.294   7.311   1.587
 3962W        W 8162   7.139   4.625   3.585
 3963W        W 8163   6.703   3.062   1.832
 3964W        W 8164   4.152   3.855   2.845
 3965W        W 8165   4.255   8.949   9.997
 3966W        W 8166   7.997   4.586  11.769
 3967W        W 8167   2.184   7.456  10.853
 3968W        W 8168   9.558   4.582  11.933
 3969W        W 8169   2.113   6.157   2.881
 3970W        W 8170   1.353   8.784  10.606
 3971W        W 8171   8.316   5.150   9.112
 3972W        W 8172   4.677  10.323   1.341
 3973W        W 8173   6.060   3.190   9.863
 3974W        W 8174   9.024   5.530   1.619
 3975W        W 8175   8.510   7.149   1.878
 3976W        W 8176   9.061   4.639   0.367
 3977W        W 8177   5.830   2.665  10.468
 3978W        W 8178   2.082   5.657   2.969
 3979W        W 8179   1.758   8.919  11.849
 3980W        W 8180  11.431   9.022   0.449
 3981W        W 8181   0.739   7.724   2.931
 3982W        W 8182   5.147   9.954   9.917
 3983W        W 8183   8.633   9.295  10.133
 3984W        W 8184   4.780   0.751   9.031
 3985W        W 8185   7.707   2.185   9.272
 3986W        W 8186   4.833   0.823   0.614
 3987W        W 8187   7.647  11.189  11.072
 3988W        W 8188   2.165   3.819   2.255
 3989W        W 8189   8.097   7.217   1.180
 3990W        W 8190   6.728   5.091   0.410
 3991W        W 8191   6.549  10.884   2.802
 3992W        W 8192   1.198   3.707   2.437
 3993W        W 8193   0.733   5.714   0.670
 3994W        W 8194   4.650   1.767   8.874
 3995W        W 8195   8.975   9.543   2.722
 3996W        W 8196   2.031   0.485  10.542
 3997W        W 8197   6.599   1.249   9.073
 3998W        W 8198   6.086   6.993  11.974
 3999W        W 8199   8.936   7.718   0.396
 4000W        W 8200   5.289   8.000  11.991
 4001W        W 8201   2.170   0.892   1.218
 4002W        W 8202   9.461   4.608   3.293
 4003W        W 8203  10.420   0.537   9.752
 4004W        W 8204   7.421   9.250   2.331
 4005W        W 8205  11.366   1.666   1.293
 4006W        W 8206   7.626   8.398  11.009
 4007W        W 8207   1.924  10.807   2.265
 4008W        W 8208   4.258   9.498   3.293
 4009W        W 8209   4.137   2.834   2.785
 4010W        W 8210   9.637   5.992   2.341
 4011W        W 8211   7.961   3.744   9.911
 4012W        W 8212   3.306   5.494   1.983
 4013W        W 8213   4.624   4.352   2.193
 4014W        W 8214   5.896   4.098   3.029
 4015W        W 8215   7.012  11.111   2.796
 4016W        W 8216   9.359   4.614   1.376
 4017W        W 8217   2.654   7.618  10.722
 4018W        W 8218  10.741   2.236  10.616
 4019W        W 8219   1.338   2.251   0.417
 4020W        W 8220   6.084   6.375   0.972
 4021W        W 8221   3.353   1.374   3.353
 4022W        W 8222   6.568   6.906   4.021
 4023W        W 8223   5.717   8.199  10.360
 4024W        W 8224   1.273   5.199   3.351
 4025W        W 8225   2.758   9.413   8.644
 4026W        W 8226   8.269   5.680   3.321
 4027W        W 8227   0.370   2.868   3.391
 4028W        W 8228   2.964   0.737   1.683
 4029W        W 8229   5.700  11.023   8.573
 4030W        W 8230   5.955   1.319  11.295
 4031W        W 8231   6.451   6.160   1.732
 4032W        W 8232   1.272   0.783   8.857
 4033W        W 8233   9.560   4.120   0.867
 4034W        W 8234   3.877   6.867   2.423
 4035W        W 8235   4.325   8.563   9.468
 4036W        W 8236   4.611   8.012   0.483
 4037W        W 8237   3.022   5.098   0.039
 4038W        W 8238   9.371   1.364   9.076
 4039W        W 8239   6.912  10.615   0.526
 4040W        W 8240   5.629   1.148   1.699
 4041W        W 8241  11.311   6.647   1.796
 4042W        W 8242   4.148  10.573   3.296
 4043W        W 8243   3.716   0.252  11.761
 4044W        W 8244   4.059   8.514  11.998
 4045W        W 8245   2.487   0.559   9.656
 4046W        W 8246   2.705  11.419   9.021
 4047W        W 8247   1.796   3.634  11.235
 4048W        W 8248   3.664   6.423   8.594
 4049W        W 8249   1.184   1.926   1.494
 4050W        W 8250  11.307   7.474  10.056
 4051W        W 8251   6.741   7.793   8.313
 4052W        W 8252   0.378  11.277  10.736
 4053W        W 8253   8.750   7.601  11.924
 4054W        W 8254   5.505   3.049  10.689
 4055W        W 8255   6.666   1.906  10.869
 4056W        W 8256  11.403   5.098   9.241
 4057W        W 8257   8.091   9.327  11.937
 4058W        W 8258   7.453   0.521   9.491
 4059W        W 8259   3.233   4.622   0.957
 4060W        W 8260   7.671   9.980   9.534
 4061W        W 8261   4.005   8.524   9.073
 4062W        W 8262   1.823  11.176   0.458
 4063W        W 8263   9.391  11.063   8.736
 4064W        W 8264   0.556   6.146   1.868
 4065W        W 8265   5.038   3.767   1.674
 4066W        W 8266   5.492   5.121  11.755
 4067W        W 8267   2.199   8.402  11.757
 4068W        W 8268   2.328   3.407   8.635
 4069W        W 8269  10.744   5.534  10.432
 4070W        W 8270   3.984   0.927   9.510
 4071W        W 8271   7.613   3.827   1.689
 4072W        W 8272   4.732   9.117  10.185
 4073W        W 8273  10.805   3.917   0.103
 4074W        W 8274   7.936  11.177  11.871
 4075W        W 8275   5.678   0.240  10.472
 4076W        W 8276   3.088   5.141   9.191
 4077W        W 8277   6.706  10.613   0.011
 4078W        W 8278   2.231   9.821  11.792
 4079W        W 8279   4.063   3.147   2.361
 4080W        W 8280   3.232   6.361   4.016
 4081W        W 8281   7.505   0.048   2.610
 4082W        W 8282   3.122  10.002  10.590
 4083W        W 8283   2.926  10.626   1.949
 4084W        W 8284   6.781   2.022   8.420
 4085W        W 8285   8.478   7.439  11.496
 4086W        W 8286   9.515   4.599   8.719
 4087W        W 8287   6.336   8.059  11.374
 4088W        W 8288   1.035   6.284   1.916
 4089W        W 8289  11.021   1.843  11.420
 4090W        W 8290   2.662   7.432   9.507
 4091W        W 8291   8.294   7.766  11.962
 4092W        W 8292   9.509   4.902   0.310
 4093W        W 8293   0.031   2.884  10.783
 4094W        W 8294   6.780  10.269  10.557
 4095W        W 8295   3.804   3.881   8.626
 4096W        W 8296   5.752   8.864   9.435
 4097W        W 8297   3.499   5.357   3.282
 4098W        W 8298   6.661   6.790  11.199
 4099W        W 8299   0.552   9.510   0.750
 4100W        W 8300   3.713   1.659   3.109
 4101W        W 8301   0.534   3.856   0.010
 4102W        W 8302   9.751   1.912  10.820
 4103W        W 8303   5.722   2.125   0.113
 4104W        W 8304   6.525   6.683   2.824
 4105W        W 8305   2.336   4.809  11.852
 4106W        W 8306   0.784   8.468   1.716
 4107W        W 8307  11.039  10.593  11.859
 4108W        W 8308   5.020   4.691   9.837
 4109W        W 8309   3.061   0.820   8.567
 4110W        W 8310   4.505   4.827   9.836
 4111W        W 8311   0.522   7.452   3.747
 4112W        W 8312  10.837   9.540   0.955
 4113W        W 8313   9.819   9.527  11.040
 4114W        W 8314   3.988   0.045   3.213
 4115W        W 8315   9.593   5.995  10.474
 4116W        W 8316   1.952   0.808   1.712
 4117W        W 8317  11.212   2.773   2.362
 4118W        W 8318   3.207   6.657   3.100
 4119W        W 8319   9.953   7.645  10.121
 4120W        W 8320   6.844  11.177   8.591
 4121W        W 8321   2.157   1.352   0.980
 4122W        W 8322   5.184   1.002   1.472
 4123W        W 8323   0.366  10.535   1.475
 4124W        W 8324   8.478   6.174   8.688
 4125W        W 8325  10.833  10.252   8.843
 4126W        W 8326   1.772   8.495   9.240
 4127W        W 8327  10.819   7.877   0.456
 4128W        W 8328   0.067   6.217   1.957
 4129W        W 8329  11.461   7.604   9.586
 4130W        W 8330  10.009   8.489  11.236
 4131W        W 8331  11.318   4.125  11.282
 4132W        W 8332  11.479  10.052   2.849
 4133W        W 8333   5.946   3.809  11.045
 4134W        W 8334   9.760   4.069  10.948
 4135W        W 8335  10.943   6.805  10.626
 4136W        W 8336   2.428  10.522   9.141
 4137W        W 8337   4.370   4.307   0.139
 4138W        W 8338   2.783   0.754  10.992
 4139W        W 8339   6.623   1.339   2.904
 4140W        W 8340   9.416   4.025   8.553
 4141W        W 8341   6.706   2.839   3.201
 4142W        W 8342   6.542  11.061   9.837
 4143W        W 8343   8.797  11.034   0.841
 4144W        W 8344   0.162   2.660  11.509
 4145W        W 8345   6.798   0.825   0.269
 4146W        W 8346   0.244   4.429  11.335
 4147W        W 8347   1.175   4.921   1.887
 4148W        W 8348   6.722  10.360  11.566
 4149W        W 8349   4.053   4.614   0.384
 4150W        W 8350   0.939   3.364   8.902
 4151W        W 8351   0.919  10.863   0.766
 4152W        W 8352   8.192   6.636   1.836
 4153W        W 8353   1.806   9.868   1.032
 4154W        W 8354   7.705   9.587   0.787
 4155W        W 8355  10.109   1.743   0.620
 4156W        W 8356   7.610   3.997   1.174
 4157W        W 8357   9.531   6.196   0.031
 4158W        W 8358   2.807  10.865   9.110
 4159W        W 8359   1.677   4.330  11.321
 4160W        W 8360   7.016   3.276   3.284
 4161W        W 8361   3.646   6.077   2.825
 4162W        W 8362   9.508  11.372   3.282
 4163W        W 8363  10.694   7.095   9.466
 4164W        W 8364   8.175  10.963  10.954
 4165W        W 8365   5.632   7.734   3.531
 4166W        W 8366   3.023   6.524   3.567
 4167W        W 8367  10.501   6.155   0.164
 4168W        W 8368   2.657   3.397   2.028
 4169W        W 8369   6.604   1.717  11.356
 4170W        W 8370  11.277   8.930  10.607
 4171W        W 8371   8.807   6.940   9.019
 4172W        W 8372  10.681  10.330   2.157
 4173W        W 8373   9.898   9.006   3.147
 4174W        W 8374   2.798   6.124  10.843
 4175W        W 8375   9.831   1.079  11.586
 4176W        W 8376   9.559  10.431   8.593
 4177W        W 8377   9.127  10.394   0.880
 4178W        W 8378  10.458   2.167   1.453
 4179W        W 8379   3.483   1.496  11.237
 4180W        W 8380   5.779   1.255   2.375
 4181W        W 8381   4.062   0.618   2.389
 4182W        W 8382  10.848   4.172   8.589
 4183W        W 8383   7.659  10.706  11.906
 4184W        W 8384   7.723   9.039   0.101
 4185W        W 8385  10.974   9.937   8.481
 4186W        W 8386   5.985   4.325  10.963
 4187W        W 8387   8.884   2.732   3.320
 4188W        W 8388  10.013   8.579   2.449
 4189W        W 8389   3.164   3.746  10.846
 4190W        W 8390   2.394   4.682   8.343
 4191W        W 8391   1.951   7.061  11.099
 4192W        W 8392   2.044   1.254   2.306
 4193W        W 8393   2.748   0.478  11.403
 4194W        W 8394   9.927  11.081   1.830
 4195W        W 8395   1.785  10.248  10.209
 4196W        W 8396   9.619   8.584   1.498
 4197W        W 8397  10.708  10.305   9.994
 4198W        W 8398   9.515   6.980   3.286
 4199W        W 8399   5.486   5.295  10.277
 4200W        W 8400   5.710   7.649   8.351
 4201W        W 8401  11.354   6.773  11.370
 4202W        W 8402   9.745   8.299   0.191
 4203W        W 8403   3.765  11.479  11.336
 4204W        W 8404  10.313   8.209  10.559
 4205W        W 8405  10.790   0.907   0.776
 4206W        W 8406   0.819   7.447  10.472
 4207W        W 8407   8.188   6.513   8.394
 4208W        W 8408  10.856   5.179   0.807
 4209W        W 8409   7.623   2.606  10.991
 4210W        W 8410   4.651   7.499  10.791
 4211W        W 8411  10.380   6.428  10.513
 4212W        W 8412   6.082   0.407  10.771
 4213W        W 8413   3.973  11.253   2.680
 4214W        W 8414   2.938   4.735   2.275
 4215W        W 8415   5.043  11.246   8.816
 4216W        W 8416   1.660  11.208   1.379
 4217W        W 8417   2.869   6.142   2.409
 4218W        W 8418   9.907   1.676   2.067
 4219W        W 8419   4.774   1.309   9.137
 4220W        W 8420   4.200   2.742   0.939
 4221W        W 8421   6.518   0.262   2.453
 4222W        W 8422   7.472   0.710   8.685
 4223W        W 8423   7.927   8.282   3.591
 4224W        W 8424   9.526   0.067   2.372
 4225W        W 8425   6.710   5.678   1.031
 4226W        W 8426   9.647   3.420   0.382
 4227W        W 8427  10.846   2.654   2.688
 4228W        W 8428   2.768   9.762   2.173
 4229W        W 8429   8.020   9.418  11.419
 4230W        W 8430   8.352  10.019   3.348
 4231W        W 8431  10.017   3.077   9.265
 4232W        W 8432   5.243   0.096   2.130
 4233W        W 8433   0.044   8.082   0.829
 4234W        W 8434   8.767   6.857   0.970
 4235W        W 8435   3.648   4.466   3.539
 4236W        W 8436  10.299   2.235   9.010
 4237W        W 8437   2.851   7.803  11.187
 4238W        W 8438   3.727   8.443  10.259
 4239W        W 8439   9.136   4.151   1.200
 4240W        W 8440   1.722   5.716   1.603
 4241W        W 8441   8.261   8.397   9.345
 4242W        W 8442  10.889   1.829   0.310
 4243W        W 8443   9.539   7.870   9.910
 4244W        W 8444   7.797   6.098   1.517
 4245W        W 8445   9.707   7.191   1.428
 4246W        W 8446   1.211   4.938   0.981
 4247W        W 8447  10.818   5.015   8.990
 4248W        W 8448   5.054   6.908   1.897
 4249W        W 8449   3.967  11.003   1.301
 4250W        W 8450   4.222   9.595  10.580
 4251W        W 8451  11.039   4.228  10.871
 4252W        W 8452   9.132   0.847   0.338
 4253W        W 8453   0.899   3.163  10.477
 4254W        W 8454   6.815   6.205  11.369
 4255W        W 8455   4.027   1.093   2.547
 4256W        W 8456   8.096   1.135  11.616
 4257W        W 8457   8.425   6.115  11.472
 4258W        W 8458   0.748  10.552   0.378
 4259W        W 8459   0.374   4.672   8.468
 4260W        W 8460   3.842   8.831   8.682
 4261W        W 8461   5.351   9.798   1.641
 4262W        W 8462   0.802   8.104   0.991
 4263W        W 8463   3.448   1.314   1.917
 4264W        W 8464   9.142   1.388   0.516
 4265W        W 8465   8.435   4.345   1.958
 4266W        W 8466  10.269   9.524   9.256
 4267W        W 8467   0.982   8.505   9.824
 4268W        W 8468   7.092   2.165   2.755
 4269W        W 8469   9.503   4.416   0.448
 4270W        W 8470  10.400   6.704  11.475
 4271W        W 8471   2.876   8.846   3.275
 4272W        W 8472   5.882   4.751   2.633
 4273W        W 8473   5.347   3.102   9.295
 4274W        W 8474   0.767   0.118   9.144
 4275W        W 8475   7.238   1.957  10.412
 4276W        W 8476   1.426   7.060   9.027
 4277W        W 8477   4.206   7.446  11.392
 4278W        W 8478  10.961   5.717   2.304
 4279W        W 8479   9.148   9.815   0.103
 4280W        W 8480   7.972   4.103   0.049
 4281W        W 8481  11.047   8.048   1.687
 4282W        W 8482  10.959   5.211   3.004
 4283W        W 8483   1.360   6.811  11.765
 4284W        W 8484   7.972   4.353   9.050
 4285W        W 8485   0.264   8.514   2.432
 4286W        W 8486   0.309   1.839  11.102
 4287W        W 8487   8.905   0.919   0.815
 4288W        W 8488   6.251   2.165   2.230
 4289W        W 8489  10.330   0.915   2.857
 4290W        W 8490   0.073   3.803   9.479
 4291W        W 8491   7.891   7.813   3.781
 4292W        W 8492   9.506   9.119   2.215
 4293W        W 8493  11.254   6.998   2.188
 4294W        W 8494   7.105  10.370   2.001
 4295W        W 8495   7.096  10.131   0.547
 4296W        W 8496   0.960   8.015   1.990
 4297W        W 8497   4.237   8.484   8.617
 4298W        W 8498  10.074   9.037   2.678
 4299W        W 8499   2.404   9.047   3.287
 4300W        W 8500   0.429   0.294   3.601
 4301W        W 8501   8.251   3.273   3.598
 4302W        W 8502   4.092   7.176   1.025
 4303W        W 8503   4.640   6.151   3.531
 4304W        W 8504  10.825   8.586   3.080
 4305W        W 8505   8.186   9.527  10.018
 4306W        W 8506   3.127   6.542   2.178
 4307W        W 8507   0.258   6.577   0.042
 4308W        W 8508   1.646   1.420   0.925
 4309W        W 8509   2.769   8.454   1.025
 4310W        W 8510   7.671   5.146  10.246
 4311W        W 8511   8.153   7.689   2.633
 4312W        W 8512   4.610   0.283  11.490
 4313W        W 8513   6.507   6.249  11.860
 4314W        W 8514   7.055   1.189  10.550
 4315W        W 8515  10.924   1.120   2.725
 4316W        W 8516   0.738   4.682   9.397
 4317W        W 8517   9.455  10.922  11.522
 4318W        W 8518   9.410   9.849   1.914
 4319W        W 8519   9.009   3.572   9.875
 4320W        W 8520   9.991   4.736   2.783
 4321W        W 8521   3.908   5.999   9.532
 4322W        W 8522   8.969   8.999   8.920
 4323W        W 8523   6.675   2.381   2.988
 4324W        W 8524   7.697   6.194   0.442
 4325W        W 8525   4.522   3.427  11.868
 4326W        W 8526   6.435   3.277   3.199
 4327W        W 8527   4.509   1.824   3.502
 4328W        W 8528   7.555   1.868   1.395
 4329W        W 8529   9.788   3.571   2.628
 4330W        W 8530  11.185   9.475   1.972
 4331W        W 8531   9.123   8.572   9.870
 4332W        W 8532   4.483  10.202   0.159
 4333W        W 8533   2.914   4.138   7.848
 4334W        W 8534   2.765  10.676  11.650
 4335W        W 8535  10.416   5.924  10.685
 4336W        W 8536   6.114   3.650   3.593
 4337W        W 8537   6.246   3.667   9.408
 4338W        W 8538   1.222   7.050  10.521
 4339W        W 8539   6.164   0.913  11.559
 4340W        W 8540   7.191  10.547  11.773
 4341W        W 8541   4.780   2.347   1.155
 4342W        W 8542   3.132  11.281  11.097
 4343W        W 8543  10.280   4.214   8.545
 4344W        W 8544   8.398   9.971  11.823
 4345W        W 8545   9.101   3.150  10.228
 4346W        W 8546   6.515   9.844   3.437
 4347W        W 8547   6.277  10.325   3.404
 4348W        W 8548   1.273   5.327   2.855
 4349W        W 8549   9.382   4.745  11.464
 4350W        W 8550   1.761   2.546   0.472
 4351W        W 8551   8.914   4.265  10.879
 4352W        W 8552   2.768   0.310   1.950
 4353W        W 8553   0.692   8.658   2.194
 4354W        W 8554   4.422   0.833   0.283
 4355W        W 8555  10.374   7.915  10.151
 4356W        W 8556   6.966  11.289  10.008
 4357W        W 8557   6.709   0.173  11.457
 4358W        W 8558  10.010   8.387  11.733
 4359W        W 8559   4.088   8.835   0.390
 4360W        W 8560  10.894   6.557   1.170
 4361W        W 8561   8.870   0.529   8.459
 4362W        W 8562   5.046   3.237   9.715
 4363W        W 8563   1.164  10.503   9.116
 4364W        W 8564   3.912  10.340   0.892
 4365W        W 8565   2.987   3.168  11.881
 4366W        W 8566   5.858   6.610   8.906
 4367W        W 8567   8.746   6.805   8.154
 4368W        W 8568   9.850   1.305   9.255
 4369W        W 8569  11.299  10.306   3.298
 4370W        W 8570   2.395   1.991  11.922
 4371W        W 8571   6.131  10.010   9.516
 4372W        W 8572  10.307   2.607   1.249
 4373W        W 8573   5.018   2.582   3.143
 4374W        W 8574   7.597   3.420  11.424
 4375W        W 8575   4.073   7.028  10.364
 4376W        W 8576   4.555   6.599  11.986
 4377W        W 8577   3.883   2.162   2.292
 4378W        W 8578   3.071   1.000   3.066
 4379W        W 8579   6.146   9.021  11.483
 4380W        W 8580   0.796   1.008   3.192
 4381W        W 8581   8.345   5.977   9.136
 4382W        W 8582   2.776  10.565   2.711
 4383W        W 8583   8.097   3.345   9.109
 4384W        W 8584  11.268   9.560   2.945
 4385W        W 8585  11.363   8.435   1.151
 4386W        W 8586   4.407   0.057   1.863
 4387W        W 8587   8.056   7.398   3.041
 4388W        W 8588  11.404   3.254   2.663
 4389W        W 8589   4.754   2.589  10.924
 4390W        W 8590  10.349   7.631   3.222
 4391W        W 8591   9.382   2.691  10.418
 4392W        W 8592  10.980   7.119   1.768
 4393W        W 8593   9.281   8.827   1.831
 4394W        W 8594   0.915   4.162   3.169
 4395W        W 8595   6.052   2.250  11.156
 4396W        W 8596   7.831  10.823   1.072
 4397W        W 8597   7.190  11.370  11.398
 4398W        W 8598   3.056   4.062  10.103
 4399W        W 8599   7.526   7.055  10.925
 4400W        W 8600   9.849   0.035   1.619
 4401W        W 8601  11.457   5.047  11.625
 4402W        W 8602   9.562   6.149   3.876
 4403W        W 8603   3.681   6.786  11.915
 4404W        W 8604  10.902  10.787   2.166
 4405W        W 8605   9.939   6.666   9.843
 4406W        W 8606   4.588   9.385   1.673
 4407W        W 8607   0.559   6.023  10.281
 4408W        W 8608   4.526   2.495   0.285
 4409W        W 8609   5.035   0.418   3.316
 4410W        W 8610   7.739   4.578   9.522
 4411W        W 8611   3.135   1.262   0.996
 4412W        W 8612   8.452   2.226   8.964
 4413W        W 8613   0.812   2.838   0.167
 4414W        W 8614   4.304   9.077   2.884
 4415W        W 8615   8.021   2.872   3.304
 4416W        W 8616   0.329   3.158   1.929
 4417W        W 8617   3.508   6.672   3.542
 4418W        W 8618   0.133   2.568   9.509
 4419W        W 8619   8.899   2.507   8.926
 4420W        W 8620   9.270   8.331   1.837
 4421W        W 8621   9.931   9.986  10.824
 4422W        W 8622  10.352   8.994  10.462
 4423W        W 8623   6.376   8.020   3.756
 4424W        W 8624   5.492   3.268   0.642
 4425W        W 8625   9.923   4.381   3.164
 4426W        W 8626  11.015   3.589   2.258
 4427W        W 8627  10.888   1.996   9.666
 4428W        W 8628   3.481   7.696   1.306
 4429W        W 8629   3.264   1.988  11.717
 4430W        W 8630   9.013   6.157  11.895
 4431W        W 8631   0.818   1.213   1.776
 4432W        W 8632   3.753   9.517   1.682
 4433W        W 8633   5.744   1.467   2.949
 4434W        W 8634  10.720   2.719   2.185
 4435W        W 8635   8.775   9.099   2.909
 4436W        W 8636   1.159   1.510   8.476
 4437W        W 8637  10.332  10.992   9.052
 4438W        W 8638   6.633   0.011   3.528
 4439W        W 8639   1.503   4.869   9.143
 4440W        W 8640   4.579  11.397   8.613
 4441W        W 8641   9.787   3.585   0.860
 4442W        W 8642   2.753   2.448   1.886
 4443W        W 8643   6.840   6.233   9.322
 4444W        W 8644   2.354   8.414  11.263
 4445W        W 8645   3.237   0.030   0.917
 4446W        W 8646   3.061   3.726  11.742
 4447W        W 8647   7.577   0.343   2.156
 4448W        W 8648   0.193   2.823   2.465
 4449W        W 8649   5.119   8.146   2.478
 4450W        W 8650  11.315   0.499   9.066
 4451W        W 8651   1.330   1.782   2.320
 4452W        W 8652   1.355   3.195   9.267
 4453W        W 8653   9.988   4.315   0.354
 4454W        W 8654   9.488   1.579   1.783
 4455W        W 8655   2.654   8.312   0.539
 4456W        W 8656   9.827  10.540   9.980
 4457W        W 8657   1.308   3.299   0.705
 4458W        W 8658   1.625   1.284   3.531
 4459W        W 8659   1.958   9.841   9.296
 4460W        W 8660   2.351   5.825  10.946
 4461W        W 8661   1.127   5.001   9.488
 4462W        W 8662   7.572   3.166   9.125
 4463W        W 8663   0.076   6.046  10.466
 4464W        W 8664   9.275   4.631  10.557
 4465W        W 8665   3.096   0.568   3.362
 4466W        W 8666   9.237   1.169  11.001
 4467W        W 8667  10.405   6.762   2.392
 4468W        W 8668   8.957   1.172   1.317
 4469W        W 8669   4.770   1.735  11.189
 4470W        W 8670   9.412   6.379  10.146
 4471W        W 8671   1.629   3.555   3.411
 4472W        W 8672   9.427   5.026   9.548
 4473W        W 8673  10.846   4.327  11.349
 4474W        W 8674   6.103   9.196   1.561
 4475W        W 8675   4.444   7.842   9.360
 4476W        W 8676   7.004   8.895   8.930
 4477W        W 8677   8.182   0.889  10.256
 4478W        W 8678   8.628   6.655   8.628
 4479W        W 8679   2.824   9.269   2.004
 4480W        W 8680   6.041   6.801   2.685
 4481W        W 8681   3.458   6.219   9.709
 4482W        W 8682   6.778   9.306   0.159
 4483W        W 8683   7.086   3.264  11.565
 4484W        W 8684   1.495   6.045  11.755
 4485W        W 8685   1.138   8.454   3.404
 4486W        W 8686   8.890   6.653   0.035
 4487W        W 8687   3.180   6.133   8.758
 4488W        W 8688   8.085   2.798  10.816
 4489W        W 8689  11.380  10.865   9.192
 4490W        W 8690   1.273   2.210   9.520
 4491W        W 8691   2.607   6.824   3.645
 4492W        W 8692   2.283   3.324   9.142
 4493W        W 8693   1.005   1.808   1.942
 4494W        W 8694   4.129   5.072  11.535
 4495W        W 8695   3.761   0.801   9.979
 4496W        W 8696  10.918   3.991   9.630
 4497W        W 8697   5.666   0.153   9.946
 4498W        W 8698   8.658   1.760   9.857
 4499W        W 8699   7.440   1.795   1.955
 4500W        W 8700  10.768   4.256   3.312
 4501W        W 8701   0.917   2.868   8.999
 4502W        W 8702   4.786   8.024   1.502
 4503W        W 8703   9.145   1.302   2.152
 4504W        W 8704   9.985   5.109  10.806
 4505W        W 8705   5.866   4.111   1.352
 4506W        W 8706   2.199   8.448   0.301
 4507W        W 8707   8.827   3.070   9.786
 4508W        W 8708  10.837   1.848   2.249
 4509W        W 8709   4.314   4.691  10.290
 4510W        W 8710   5.507   5.470  10.945
 4511W        W 8711   1.791   4.360   3.156
 4512W        W 8712   0.433   2.683  11.039
 4513W        W 8713   4.351   0.884   0.808
 4514W        W 8714   4.506  10.563  11.811
 4515W        W 8715  10.366   0.041  11.293
 4516W        W 8716   4.835   6.187   1.489
 4517W        W 8717   8.821   0.685   1.352
 4518W        W 8718  10.820   0.809  11.396
 4519W        W 8719   8.051   2.392   2.408
 4520W        W 8720   7.704  10.844   3.043
 4521W        W 8721   5.670   7.574  11.029
 4522W        W 8722   8.417   2.721   2.525
 4523W        W 8723   4.262   0.732   2.905
 4524W        W 8724   8.544   9.318   9.647
 4525W        W 8725   3.084   1.927  10.350
 4526W        W 8726   8.854   2.942   9.250
 4527W        W 8727   3.382   6.083   0.272
 4528W        W 8728   1.957   9.356   8.694
 4529W        W 8729   3.550   9.030  11.535
 4530W        W 8730   6.093   4.520   8.378
 4531W        W 8731   9.397   5.736   1.979
 4532W        W 8732   4.718  11.334   0.445
 4533W        W 8733   6.326   1.667  10.521
 4534W        W 8734   3.592   1.026  11.368
 4535W        W 8735  11.495   3.165  11.586
 4536W        W 8736   3.984   4.371   8.597
 4537W        W 8737   6.532   2.354   9.831
 4538W        W 8738   5.221   9.139   2.754
 4539W        W 8739   1.863   0.931  11.171
 4540W        W 8740   3.952   0.550   3.317
 4541W        W 8741   6.967   3.647   9.849
 4542W        W 8742   2.119   2.052   1.934
 4543W        W 8743   3.517   4.548   9.849
 4544W        W 8744   6.533   7.275  11.026
 4545W        W 8745   7.175   6.493   9.665
 4546W        W 8746   2.234   3.276  10.998
 4547W        W 8747   7.304   4.830   8.282
 4548W        W 8748   8.557   4.145  11.299
 4549W        W 8749  10.721   9.525  10.601
 4550W        W 8750   4.125   7.063  11.785
 4551W        W 8751   6.879   2.281  10.592
 4552W        W 8752  10.531   1.780  11.363
 4553W        W 8753   3.903   9.321   0.309
 4554W        W 8754   6.507   7.469  10.035
 4555W        W 8755   7.121   0.356   0.622
 4556W        W 8756   4.563   4.160   9.154
 4557W        W 8757   6.932   3.507   1.778
 4558W        W 8758   9.678   4.024   9.310
 4559W        W 8759   9.188  11.001   3.463
 4560W        W 8760   3.686   3.720   3.028
 4561W        W 8761   7.873   3.575   0.710
 4562W        W 8762   4.254   9.931   2.269
 4563W        W 8763   7.236   0.442  10.553
 4564W        W 8764   9.454   6.826   1.646
 4565W        W 8765   2.916   6.534   9.030
 4566W        W 8766   0.031   0.664   0.664
 4567W        W 8767   2.669  10.277   2.255
 4568W        W 8768   3.183   8.454   3.283
 4569W        W 8769   8.591   8.649   9.022
 4570W        W 8770  11.363   7.506  11.094
 4571W        W 8771   4.180   3.353  10.964
 4572W        W 8772   7.158   2.254   1.298
 4573W        W 8773   5.289   3.162   4.009
 4574W        W 8774   6.589   8.788   3.353
 4575W        W 8775   8.907   1.894   0.725
 4576W        W 8776  10.083   7.939  11.939
 4577W        W 8777  11.317   6.823   3.158
 4578W        W 8778   3.338   9.493   9.286
 4579W        W 8779   0.082   7.027   9.306
 4580W        W 8780   4.733  11.236  11.017
 4581W        W 8781   9.987   9.886   2.160
 4582W        W 8782  10.899   3.116  10.422
 4583W        W 8783  10.348  10.353   2.590
 4584W        W 8784   2.378   9.491   1.170
 4585W        W 8785   2.323   7.366   3.556
 4586W        W 8786  10.804   6.740   3.154
 4587W        W 8787  11.230   7.573   3.378
 4588W        W 8788   6.540   4.216  10.317
 4589W        W 8789   9.520   9.450   1.028
 4590W        W 8790   2.133   7.377   9.456
 4591W        W 8791   8.939   1.678   8.368
 4592W        W 8792   0.347   3.097   0.358
 4593W        W 8793   9.037  10.020   2.559
 4594W        W 8794   0.517   3.418   3.619
 4595W        W 8795   8.783   2.909   8.588
 4596W        W 8796  11.407   7.476  10.560
 4597W        W 8797  10.328   2.866   0.806
 4598W        W 8798   5.010   4.733  11.242
 4599W        W 8799   2.842   5.535   9.703
 4600W        W 8800   1.460   2.710   1.992
 4601W        W 8801   6.418   3.488   1.731
 4602W        W 8802   5.165   1.621   8.912
 4603W        W 8803   3.371   3.761   2.619
 4604W        W 8804   9.617  10.409   0.782
 4605W        W 8805   5.630   6.250  10.708
 4606W        W 8806   8.704   8.464  10.164
 4607W        W 8807   1.707   2.282   9.263
 4608W        W 8808  10.493   3.775   9.814
 4609W        W 8809   3.790   4.690   8.952
 4610W        W 8810   5.379   7.407   9.254
 4611W        W 8811   5.546   2.438   1.926
 4612W        W 8812   5.578   0.694  11.205
 4613W        W 8813   6.618   8.597  11.977
 4614W        W 8814   1.897   6.679   0.838
 4615W        W 8815   2.861   9.321  10.410
 4616W        W 8816  10.457   1.152   0.271
 4617W        W 8817   6.959   7.803   9.464
 4618W        W 8818   1.377  10.382  10.985
 4619W        W 8819   3.423   0.918   2.589
 4620W        W 8820  10.814   5.468   0.296
 4621W        W 8821   8.155   3.107   0.661
 4622W        W 8822   3.086   1.397  11.544
 4623W        W 8823   8.321   3.131   9.967
 4624W        W 8824   1.948  10.556  11.732
 4625W        W 8825  10.794   7.497   0.794
 4626W        W 8826   0.020  10.481  10.875
 4627W        W 8827  11.015   2.269  11.086
 4628W        W 8828  11.174   4.237  11.796
 4629W        W 8829   1.467   2.268  11.338
 4630W        W 8830   8.861   0.187  11.847
 4631W        W 8831  10.808   5.757   1.795
 4632W        W 8832   9.211   0.122  10.398
 4633W        W 8833   5.032   7.658   2.638
 4634W        W 8834   9.064   6.778  10.455
 4635W        W 8835   3.548   9.057   9.637
 4636W        W 8836   4.270   6.129  10.355
 4637W        W 8837   2.333   2.583   2.661
 4638W        W 8838   6.629   9.338   3.350
 4639W        W 8839   6.059   8.824   9.846
 4640W        W 8840   8.133   4.140  11.571
 4641W        W 8841   1.375  10.900   0.992
 4642W        W 8842   3.255   2.997   9.051
 4643W        W 8843   6.975   0.135  10.968
 4644W        W 8844   3.818   1.981   0.135
 4645W        W 8845   5.737   2.647  10.964
 4646W        W 8846   3.564   4.919   8.553
 4647W        W 8847  10.325   3.378   9.534
 4648W        W 8848  10.484   7.396   1.186
 4649W        W 8849   2.689   9.638  11.922
 4650W        W 8850  10.473   3.327  10.024
 4651W        W 8851   9.905   2.519   0.958
 4652W        W 8852   6.449   6.600  10.365
 4653W        W 8853  10.770  10.534  10.442
 4654W        W 8854   3.591  10.108  11.966
 4655W        W 8855   4.797   4.073   0.469
 4656W        W 8856  11.268   7.663   2.587
 4657W        W 8857   7.253   9.622   0.529
 4658W        W 8858  10.637   3.355   3.350
 4659W        W 8859  10.285   9.339  10.852
 4660W        W 8860   1.780   6.084   1.949
 4661W        W 8861   8.954   3.740   1.945
 4662W        W 8862  10.283  10.883   1.475
 4663W        W 8863   0.316   6.357   2.397
 4664W        W 8864   5.199   0.678  11.803
 4665W        W 8865   5.718   5.345   1.803
 4666W        W 8866   3.455   1.214   0.350
 4667W        W 8867   9.535   7.775  10.950
 4668W        W 8868   9.998   6.583   9.330
 4669W        W 8869   9.943   0.612  11.420
 4670W        W 8870   2.290   8.863   0.014
 4671W        W 8871  10.002   5.225   0.979
 4672W        W 8872  10.089   6.110   0.470
 4673W        W 8873   9.502   9.933   9.008
 4674W        W 8874   7.731   0.257   9.842
 4675W        W 8875   8.006   0.797   2.854
 4676W        W 8876   4.304   5.383   2.762
 4677W        W 8877   1.380   4.836  10.574
 4678W        W 8878   2.740   4.234   3.041
 4679W        W 8879   1.023   4.640   9.852
 4680W        W 8880   4.788   1.231   1.879
 4681W        W 8881  11.030   9.089   0.109
 4682W        W 8882   9.693   7.176  11.258
 4683W        W 8883   2.662   6.401   8.610
 4684W        W 8884   6.226   7.687   8.365
 4685W        W 8885  10.501   6.612   9.492
 4686W        W 8886   4.857   8.807  11.811
 4687W        W 8887   5.139   2.714   4.194
 4688W        W 8888   5.679   2.749   9.489
 4689W        W 8889   5.998   9.958   2.729
 4690W        W 8890   9.608   6.904   2.797
 4691W        W 8891   5.184   3.328  11.926
 4692W        W 8892   8.927   0.335  10.795
 4693W        W 8893  11.326   8.363   9.946
 4694W        W 8894   1.053   9.244  10.734
 4695W        W 8895   2.629   7.433   0.196
 4696W        W 8896   4.047   3.312   9.519
 4697W        W 8897   5.649   7.595   8.858
 4698W        W 8898   2.524   3.042  11.588
 4699W        W 8899   6.597  11.107   0.002
 4700W        W 8900   8.150   9.616  10.532
 4701W        W 8901  10.216   7.967   1.677
 4702W        W 8902   0.767   0.953   9.516
 4703W        W 8903   7.576   4.836   0.345
 4704W        W 8904   6.469   1.037  11.953
 4705W        W 8905   4.611   3.063  11.047
 4706W        W 8906  10.473   4.216   9.558
 4707W        W 8907   1.420  10.850  11.257
 4708W        W 8908   5.228   0.931   3.478
 4709W        W 8909   9.087  10.319   0.005
 4710W        W 8910  10.010   3.844   2.250
 4711W        W 8911   0.239   6.612   2.958
 4712W        W 8912   3.540   3.398   9.458
 4713W        W 8913   3.759   3.293   3.337
 4714W        W 8914   8.354   4.680   8.889
 4715W        W 8915   3.760   4.119  11.029
 4716W        W 8916   6.842   3.156   2.820
 4717W        W 8917   1.001   1.596   8.962
 4718W        W 8918   8.457   6.390   2.214
 4719W        W 8919   5.297   4.245   9.538
 4720W        W 8920   3.364  10.090   8.656
 4721W        W 8921   5.751   6.561   0.624
 4722W        W 8922   0.294   8.553   1.898
 4723W        W 8923   8.137   8.398   8.447
 4724W        W 8924   1.432   4.332  10.771
 4725W        W 8925   3.565   1.218   9.780
 4726W        W 8926   5.192   8.945   3.614
 4727W        W 8927  10.907   4.406   1.829
 4728W        W 8928  10.612   4.978   9.794
 4729W        W 8929  11.297   7.729  11.563
 4730W        W 8930   0.811   0.883   2.209
 4731W        W 8931   5.577   4.543  10.715
 4732W        W 8932   8.195  11.451   1.139
 4733W        W 8933  11.216   0.869  10.483
 4734W        W 8934   7.003   1.096  11.050
 4735W        W 8935   0.785   0.187  10.045
 4736W        W 8936   2.023  11.312   3.156
 4737W        W 8937   9.037   1.692   1.290
 4738W        W 8938   4.737   2.288   9.548
 4739W        W 8939   9.799   2.841   3.357
 4740W        W 8940   3.789   3.648   0.232
 4741W        W 8941   7.577   0.288   1.197
 4742W        W 8942   8.200   9.016   9.993
 4743W        W 8943  10.124   9.225   8.600
 4744W        W 8944   7.394  10.882   9.543
 4745W        W 8945  11.452   1.182   2.652
 4746W        W 8946  10.953   5.979   0.316
 4747W        W 8947   5.645   2.173   1.480
 4748W        W 8948   4.603   3.276   3.190
 4749W        W 8949   8.607   5.280   0.963
 4750W        W 8950   8.354   7.138   8.852
 4751W        W 8951   3.328  10.480   0.259
 4752W        W 8952  10.361   6.553   1.467
 4753W        W 8953   7.912   2.886   2.440
 4754W        W 8954   3.170   3.872   8.818
 4755W        W 8955   5.526   5.767  10.504
 4756W        W 8956   3.208   8.182   8.642
 4757W        W 8957   9.017   0.182  11.312
 4758W        W 8958   4.203   6.758   1.286
 4759W        W 8959   0.782   0.048  10.548
 4760W        W 8960  10.867   4.675   2.630
 4761W        W 8961  11.093   6.850   9.242
 4762W        W 8962  11.488   3.974   8.989
 4763W        W 8963  10.905   5.356   1.480
 4764W        W 8964  11.434   6.530   9.449
 4765W        W 8965   9.988   1.357   0.277
 4766W        W 8966   4.116   7.023   9.292
 4767W        W 8967   1.837   3.330   1.733
 4768W        W 8968  10.102  10.492   0.741
 4769W        W 8969   8.375   2.206   9.741
 4770W        W 8970   6.769   4.547   9.404
 4771W        W 8971  10.546   2.729   1.682
 4772W        W 8972   4.961   7.016   3.139
 4773W        W 8973   0.265   2.161   9.761
 4774W        W 8974   7.835   8.041   2.271
 4775W        W 8975   3.941   6.017  11.512
 4776W        W 8976  11.333   4.676   1.810
 4777W        W 8977   4.611   7.511   0.337
 4778W        W 8978   5.601   4.577   2.240
 4779W        W 8979  10.445   7.537   9.354
 4780W        W 8980   7.475   4.337  11.405
 4781W        W 8981   8.253   8.966   2.848
 4782W        W 8982   3.587   3.214   1.845
 4783W        W 8983   2.065   6.984  10.263
 4784W        W 8984  10.384   1.706   1.255
 4785W        W 8985  11.297   8.575   8.606
 4786W        W 8986  10.159   2.178   1.923
 4787W        W 8987   7.158   9.909   2.752
 4788W        W 8988   0.124   6.334  11.211
 4789W        W 8989   1.256   0.962   1.991
 4790W        W 8990  10.467   9.916   2.932
 4791W        W 8991   8.701   0.004  10.488
 4792W        W 8992   9.388   2.164  11.121
 4793W        W 8993   8.507   3.390   1.299
 4794W        W 8994   9.134   5.176  10.780
 4795W        W 8995   4.775   7.890   0.017
 4796W        W 8996  11.409  11.438  10.825
 4797W        W 8997   0.666   9.465   3.413
 4798W        W 8998   0.464   0.014   9.699
 4799W        W 8999   1.947   7.949  11.825
 4800W        W 9000  10.389   8.606   8.985
 4801W        W 9001   3.834   2.843  10.320
 4802W        W 9002   4.830   4.961   1.432
 4803W        W 9003   1.173   2.808   0.580
 4804W        W 9004   7.403   3.782   0.732
 4805W        W 9005   8.532   6.767  10.711
 4806W        W 9006   2.147   4.738   0.315
 4807W        W 9007   4.717   1.572  10.721
 4808W        W 9008   1.556   2.844   0.928
 4809W        W 9009   9.007  10.958   0.372
 4810W        W 9010   0.766   7.076   2.221
 4811W        W 9011   1.223   2.817  11.267
 4812W        W 9012  11.009  10.118   1.796
 4813W        W 9013   4.833   1.276   2.392
 4814W        W 9014   9.606   9.827   2.950
 4815W        W 9015  10.781   4.601   0.707
 4816W        W 9016   5.906   6.064   9.738
 4817W        W 9017   9.942   5.294   0.427
 4818W        W 9018   9.161   4.756   9.108
 4819W        W 9019   9.113   7.669  10.148
 4820W        W 9020   0.243   2.322   1.755
 4821W        W 9021   9.964  11.125  11.223
 4822W        W 9022   9.508  10.138   9.486
 4823W        W 9023   9.454   6.590  11.243
 4824W        W 9024   1.159   9.589   3.386
 4825W        W 9025   9.999   8.576   1.904
 4826W        W 9026   8.010   4.534   0.289
 4827W        W 9027   9.953   1.863   0.159
 4828W        W 9028   6.555   7.481   8.721
 4829W        W 9029   7.141   4.593   8.704
 4830W        W 9030   0.512   7.954   9.602
 4831W        W 9031   3.438   6.099   1.238
 4832W        W 9032   1.588   6.162  10.063
 4833W        W 9033   1.715   0.837   2.194
 4834W        W 9034   6.274   1.246   2.227
 4835W        W 9035   1.120   8.514   2.417
 4836W        W 9036   1.867   4.050  10.922
 4837W        W 9037   6.669   2.317   3.490
 4838W        W 9038   6.562   8.526   1.644
 4839W        W 9039   0.918   3.683   0.765
 4840W        W 9040   6.744  11.094   3.253
 4841W        W 9041   1.175   5.528   9.465
 4842W        W 9042   6.651   1.305   1.805
 4843W        W 9043  10.375  10.001  11.820
 4844W        W 9044   6.711   4.686   0.083
 4845W        W 9045   1.631   7.950   0.807
 4846W        W 9046   0.257   3.580  10.802
 4847W        W 9047  10.016   7.588  11.117
 4848W        W 9048   7.174  10.268  11.334
 4849W        W 9049   8.076   5.004   0.435
 4850W        W 9050   5.620   1.347   8.822
 4851W        W 9051   8.872   6.002   8.980
 4852W        W 9052   2.280   4.204   8.524
 4853W        W 9053   5.108   5.629  11.251
 4854W        W 9054   4.744   8.554  10.254
 4855W        W 9055   7.790   1.846   2.998
 4856W        W 9056   0.159   9.453   9.498
 4857W        W 9057   7.678   1.315  11.399
 4858W        W 9058   6.335   4.051   2.229
 4859W        W 9059   0.630   2.217  10.125
 4860W        W 9060   7.593   6.082  11.924
 4861W        W 9061   0.721   5.291  10.351
 4862W        W 9062   7.987   2.476   8.865
 4863W        W 9063   7.421   4.293   0.778
 4864W        W 9064   8.324   3.353  11.792
 4865W        W 9065   8.557   4.615   9.790
 4866W        W 9066   0.342   0.310  11.522
 4867W        W 9067   3.060   3.472   2.323
 4868W        W 9068   8.996   0.414   0.877
 4869W        W 9069   0.338   8.328  11.480
 4870W        W 9070   3.049   5.624   3.294
 4871W        W 9071   1.960   1.022  11.671
 4872W        W 9072  10.519   8.366  11.020
 4873W        W 9073   5.718  10.068   8.906
 4874W        W 9074   2.615   5.993   9.538
 4875W        W 9075   4.078   0.532   0.511
 4876W        W 9076   4.302   8.174   2.746
 4877W        W 9077   8.751   7.133   3.166
 4878W        W 9078   8.074   1.862  11.025
 4879W        W 9079   3.940   8.689   2.176
 4880W        W 9080   2.625  11.015   2.985
 4881W        W 9081   9.654   4.260   2.283
 4882W        W 9082   5.632   1.768   9.111
 4883W        W 9083   3.840   4.630  11.190
 4884W        W 9084   0.417   5.298  11.658
 4885W        W 9085   5.723   4.734   0.941
 4886W        W 9086   7.903   8.756   9.522
 4887W        W 9087   0.779   3.034   8.522
 4888W        W 9088   2.893   7.040   1.463
 4889W        W 9089   5.771  10.917  10.403
 4890W        W 9090   1.281  11.361   9.309
 4891W        W 9091   2.468   2.590   3.208
 4892W        W 9092   0.608   2.719   9.391
 4893W        W 9093   9.746   9.017   1.747
 4894W        W 9094   1.379   6.120   2.242
 4895W        W 9095   9.354   2.838  11.815
 4896W        W 9096   6.056  11.050   9.678
 4897W        W 9097   1.821   3.587  10.736
 4898W        W 9098   1.737   9.899  10.574
 4899W        W 9099   4.368  10.438  10.062
 4900W        W 9100   7.692   0.874  11.925
 4901W        W 9101   5.206   8.530   1.084
 4902W        W 9102   3.158   2.171   1.764
 4903W        W 9103   0.654   9.138  11.062
 4904W        W 9104   9.507   2.350   9.609
 4905W        W 9105   9.957   2.205   1.398
 4906W        W 9106   9.306  11.419  11.701
 4907W        W 9107   7.889   5.514  10.534
 4908W        W 9108  10.608   3.095   0.443
 4909W        W 9109   5.638   8.486   0.720
 4910W        W 9110   5.129   6.358   2.418
 4911W        W 9111   7.479   1.313   8.764
 4912W        W 9112   6.560   1.167  10.351
 4913W        W 9113   7.587   6.491   1.262
 4914W        W 9114   0.623  10.385   0.905
 4915W        W 9115   4.002   7.627   1.396
 4916W        W 9116   5.782   9.962  10.306
 4917W        W 9117   8.486   2.608  10.521
 4918W        W 9118   9.338   7.970   0.231
 4919W        W 9119   3.100   9.128   1.567
 4920W        W 9120   1.777   4.511   3.651
 4921W        W 9121   1.710   0.161   1.178
 4922W        W 9122   7.480   0.908  10.447
 4923W        W 9123   7.396   7.351  10.066
 4924W        W 9124   1.836   1.335   3.089
 4925W        W 9125   9.496   7.642  11.457
 4926W        W 9126   6.552   3.981   2.682
 4927W        W 9127   1.105   5.085  11.865
 4928W        W 9128  11.387   7.163   8.849
 4929W        W 9129   2.093   5.965   9.610
 4930W        W 9130   9.419   9.794  10.859
 4931W        W 9131   1.728   4.891   0.994
 4932W        W 9132   2.847  11.052   2.525
 4933W        W 9133   0.451   1.758   9.524
 4934W        W 9134  10.382   2.213  11.966
 4935W        W 9135   7.009   9.439  11.168
 4936W        W 9136  11.306   6.689   0.848
 4937W        W 9137   6.985   6.148  10.022
 4938W        W 9138   4.543   4.554   3.182
 4939W        W 9139   3.317   3.225   3.592
 4940W        W 9140   5.139   8.898   9.966
 4941W        W 9141   3.879  10.835  10.743
 4942W        W 9142   4.363   0.963  10.803
 4943W        W 9143   4.700   2.775   0.702
 4944W        W 9144   9.833   7.674   1.899
 4945W        W 9145   2.779  11.480  11.387
 4946W        W 9146   7.248  11.375   1.841
 4947W        W 9147  10.886   2.623  10.269
 4948W        W 9148   9.905   6.375  10.314
 4949W        W 9149   2.716   3.084   2.434
 4950W        W 9150   6.389   8.829   8.307
 4951W        W 9151  10.993   9.613  11.924
 4952W        W 9152   0.855   2.414   0.435
 4953W        W 9153   5.465   4.119   9.070
 4954W        W 9154   2.900  10.913  10.802
 4955W        W 9155   8.581   6.430   1.306
 4956W        W 9156   5.054   9.424   2.381
 4957W        W 9157   5.834   6.696   2.221
 4958W        W 9158   9.977   1.950   3.363
 4959W        W 9159   0.774   6.159   0.980
 4960W        W 9160   0.710  10.849   1.747
 4961W        W 9161   5.785   9.150  11.831
 4962W        W 9162   2.649   2.252   9.497
 4963W        W 9163   0.203   1.387   3.483
 4964W        W 9164   9.964   4.212   2.686
 4965W        W 9165   3.823   8.107  11.828
 4966W        W 9166   2.978   5.669   8.556
 4967W        W 9167   9.997   6.195  10.818
 4968W        W 9168   5.591   0.928   9.111
 4969W        W 9169  11.348   2.644   0.485
 4970W        W 9170   9.807  10.873   0.952
 4971W        W 9171  10.077  10.760   2.751
 4972W        W 9172   2.724   7.953   9.484
 4973W        W 9173  10.775   7.641   2.403
 4974W        W 9174   4.667   7.586   1.704
 4975W        W 9175  10.759   4.907   3.602
 4976W        W 9176  10.261   1.902  10.960
 4977W        W 9177   1.591   6.267   0.847
 4978W        W 9178  10.367   6.938   9.054
 4979W        W 9179   8.115   9.930   0.300
 4980W        W 9180   6.924   4.410   1.821
 4981W        W 9181   4.726   4.718   3.635
 4982W        W 9182   6.536   5.636   0.501
 4983W        W 9183   7.925   9.970   9.996
 4984W        W 9184   5.074   4.641   4.020
 4985W        W 9185   2.216   3.257   2.255
 4986W        W 9186   5.672   9.078   3.054
 4987W        W 9187   5.592   4.182   2.600
 4988W        W 9188   2.536   2.661   0.881
 4989W        W 9189  10.252   7.248   2.323
 4990W        W 9190   5.733   3.245   8.857
 4991W        W 9191   8.439  10.973  11.741
 4992W        W 9192   1.048   4.113   0.499
 4993W        W 9193   3.412   6.588  10.314
 4994W        W 9194  10.311   6.579  11.954
 4995W        W 9195   4.118   9.119   9.007
 4996W        W 9196   9.962   5.629   9.855
 4997W        W 9197   3.450   8.549   8.937
 4998W        W 9198   4.326  11.039  10.781
 4999W        W 9199   9.999   1.659  10.067
 5000W        W 9200  10.065   1.322   8.768
 5001W        W 9201  10.061   0.860   0.062
 5002W        W 9202   6.050   5.833   1.714
 5003W        W 9203   1.281   9.447   9.999
 5004W        W 9204   2.487   7.666   2.698
 5005W        W 9205   9.921   0.824   8.900
 5006W        W 9206   3.973   1.382  11.458
 5007W        W 9207   2.296   1.801   3.416
 5008W        W 9208   8.575   3.110  10.398
 5009W        W 9209  10.270  10.843   3.578
 5010W        W 9210   2.196   9.328  11.289
 5011W        W 9211   8.454   2.693   2.007
 5012W        W 9212   7.306  11.329   8.822
 5013W        W 9213   8.153   0.808   8.457
 5014W        W 9214   0.181   6.081   2.795
 5015W        W 9215   8.663  10.014   2.929
 5016W        W 9216   4.619   5.281   9.647
 5017W        W 9217   5.961   6.293   2.769
 5018W        W 9218   3.719  10.797   2.847
 5019W        W 9219   1.630   5.542   3.203
 5020W        W 9220   4.676   4.551   2.671
 5021W        W 9221   8.125   4.630   3.547
 5022W        W 9222   6.829   9.365   0.672
 5023W        W 9223   0.026   5.648  10.837
 5024W        W 9224   0.623   1.457   0.799
 5025W        W 9225   2.335   0.806   0.728
 5026W        W 9226   8.423   2.236   3.685
 5027W        W 9227   4.937   6.047   0.978
 5028W        W 9228  10.225  11.425   9.407
 5029W        W 9229   7.116   2.638   9.795
 5030W        W 9230  10.873   7.535   9.652
 5031W        W 9231   5.545   6.420  11.270
 5032W        W 9232   0.878   2.362   9.088
 5033W        W 9233   5.459   0.069   0.020
 5034W        W 9234   1.593   3.339  10.356
 5035W        W 9235   4.810   2.841   2.015
 5036W        W 9236   4.965   8.023   2.003
 5037W        W 9237   8.509   5.562   9.843
 5038W        W 9238   0.763   4.098  10.993
 5039W        W 9239  11.273   2.221   9.429
 5040W        W 9240   9.590   8.360   9.908
 5041W        W 9241   5.763   9.875   2.005
 5042W        W 9242   6.981   4.478   0.986
 5043W        W 9243   4.778   1.674   0.405
 5044W        W 9244   2.250  11.231  11.391
 5045W        W 9245   1.299   0.464   1.868
 5046W        W 9246   4.062   2.331   0.413
 5047W        W 9247   7.254   4.446   9.536
 5048W        W 9248   9.905  10.467   9.426
 5049W        W 9249   1.942   6.372  10.497
 5050W        W 9250   6.988   8.309   9.703
 5051W        W 9251   0.749   8.411   0.402
 5052W        W 9252   9.361   3.920   1.686
 5053W        W 9253   9.849   2.683   2.846
 5054W        W 9254   6.743  10.730   1.884
 5055W        W 9255   5.535   8.099   1.983
 5056W        W 9256   9.398   0.938  11.874
 5057W        W 9257   5.488  11.075   9.050
 5058W        W 9258   6.229   2.731   9.910
 5059W        W 9259   2.332   7.058   0.041
 5060W        W 9260  11.271  11.382   9.360
 5061W        W 9261   5.651   0.696  10.705
 5062W        W 9262  10.866   8.311   9.635
 5063W        W 9263  10.339   5.966  11.188
 5064W        W 9264   7.037   3.155   1.416
 5065W        W 9265   2.706   8.484   9.471
 5066W        W 9266  10.829   7.610   1.889
 5067W        W 9267   9.400   4.404  11.042
 5068W        W 9268   7.497  11.339   9.309
 5069W        W 9269  10.808   3.916   1.928
 5070W        W 9270   2.607   6.279   9.992
 5071W        W 9271  10.586   7.903  11.994
 5072W        W 9272   0.447  11.381   0.735
 5073W        W 9273  11.416   5.036   2.151
 5074W        W 9274   4.625  11.432   9.147
 5075W        W 9275   8.910   5.362   8.519
 5076W        W 9276   8.898   2.774   2.806
 5077W        W 9277   0.464   3.617  11.524
 5078W        W 9278   8.477   2.929   1.552
 5079W        W 9279   8.024   4.009   1.989
 5080W        W 9280   0.504   5.364  10.835
 5081W        W 9281   2.435   2.526  11.872
 5082W        W 9282   2.767   3.108   1.451
 5083W        W 9283   6.130  10.575   9.493
 5084W        W 9284   4.740  10.939   1.360
 5085W        W 9285   1.046   9.521   0.758
 5086W        W 9286   4.695   6.818   2.290
 5087W        W 9287   5.235   9.821   9.049
 5088W        W 9288   0.301   9.968   0.874
 5089W        W 9289   5.826   7.031   0.430
 5090W        W 9290   7.890   6.916   2.969
 5091W        W 9291   3.853  10.781   9.885
 5092W        W 9292   2.571   6.214  11.912
 5093W        W 9293   1.320   2.037   8.985
 5094W        W 9294   0.824   1.874  10.913
 5095W        W 9295   4.094   0.907  11.288
 5096W        W 9296   1.993  11.104  10.069
 5097W        W 9297   1.171   7.882   8.756
 5098W        W 9298   2.260   4.964   1.585
 5099W        W 9299   2.651   9.791  10.524
 5100W        W 9300  10.439  11.334   2.249
 5101W        W 9301   5.996   0.617   3.455
 5102W        W 9302   3.855   7.346   2.270
 5103W        W 9303   3.855   8.531   2.667
 5104W        W 9304  10.027   3.302   1.423
 5105W        W 9305   3.487   2.203  10.489
 5106W        W 9306   0.330   9.579   1.624
 5107W        W 9307   8.966   4.102   9.860
 5108W        W 9308   0.230   3.644   2.792
 5109W        W 9309   0.468   3.122  10.729
 5110W        W 9310   4.062  10.808   1.890
 5111W        W 9311   4.162  10.916  10.305
 5112W        W 9312   5.355   9.453   0.307
 5113W        W 9313   0.174  10.583   3.087
 5114W        W 9314  10.576   0.874  11.867
 5115W        W 9315   2.872   8.534   2.868
 5116W        W 9316   9.348   2.696   3.531
 5117W        W 9317   5.701   7.702  10.029
 5118W        W 9318   8.520   1.489   1.327
 5119W        W 9319   8.103   9.406   1.044
 5120W        W 9320   9.357   2.684  11.318
 5121W        W 9321   6.672   7.927   9.882
 5122W        W 9322   5.781   4.829  10.289
 5123W        W 9323   7.691  10.292  10.790
 5124W        W 9324   5.081   5.726  10.752
 5125W        W 9325   9.149   3.748   0.222
 5126W        W 9326   2.194   0.830   8.909
 5127W        W 9327   0.301   7.544   3.287
 5128W        W 9328   6.882   8.658   2.932
 5129W        W 9329   0.669  10.330   2.350
 5130W        W 9330   2.942   0.273  10.963
 5131W        W 9331   2.991   4.562  10.010
 5132W        W 9332   6.557   4.075   0.865
 5133W        W 9333   3.802   4.651   8.186
 5134W        W 9334   4.791   2.696   1.544
 5135W        W 9335   8.165   1.802   9.978
 5136W        W 9336   3.332   2.382   0.018
 5137W        W 9337   8.527   1.874  11.330
 5138W        W 9338   3.751  10.323   8.935
 5139W        W 9339   9.613   0.665   0.244
 5140W        W 9340   8.557   5.017  10.123
 5141W        W 9341   6.683  10.317  11.055
 5142W        W 9342   9.547   2.370   2.210
 5143W        W 9343  10.691   1.317  11.534
 5144W        W 9344   1.408   3.881  11.492
 5145W        W 9345   8.011   2.678   0.440
 5146W        W 9346   0.437   5.636   9.932
 5147W        W 9347   4.167   7.492   9.098
 5148W        W 9348  10.366   4.561  11.440
 5149W        W 9349   4.699   3.577   0.311
 5150W        W 9350   6.790   3.132   9.179
 5151W        W 9351   7.747   5.751   8.358
 5152W        W 9352   4.613   6.369   2.507
 5153W        W 9353   5.562   8.963   0.399
 5154W        W 9354   2.775   3.399  10.295
 5155W        W 9355   2.829   2.365   2.914
 5156W        W 9356   5.547   2.450   2.716
 5157W        W 9357   6.714   2.805   0.504
 5158W        W 9358   3.152   0.851   9.111
 5159W        W 9359   8.974  10.034  10.138
 5160W        W 9360  11.388   5.623   0.250
 5161W        W 9361   4.548   3.177   9.550
 5162W        W 9362   8.046   1.877   3.471
 5163W        W 9363   8.482   6.976   0.484
 5164W        W 9364  10.383   8.092   2.977
 5165W        W 9365   7.685   0.839   3.446
 5166W        W 9366   4.051  11.420  10.450
 5167W        W 9367   1.912   5.242  11.242
 5168W        W 9368   4.533   5.453   2.282
 5169W        W 9369   5.626   3.697   3.763
 5170W        W 9370   7.351   4.792  10.495
 5171W        W 9371  11.311   6.417   2.789
 5172W        W 9372   1.712   2.316   0.928
 5173W        W 9373   5.166   9.851   2.125
 5174W        W 9374  11.479  11.419   2.014
 5175W        W 9375   9.163   9.534   2.253
 5176W        W 9376   0.782   7.182   9.961
 5177W        W 9377   6.928   1.226  11.939
 5178W        W 9378   0.770   7.565   1.783
 5179W        W 9379   0.847   9.164   1.044
 5180W        W 9380   5.155   5.560  11.785
 5181W        W 9381  10.056   5.007  10.275
 5182W        W 9382  10.111   1.956  10.463
 5183W        W 9383   4.955   1.474  10.138
 5184W        W 9384   8.865   6.933   9.528
 5185W        W 9385   0.829   2.022  11.584
 5186W        W 9386   0.730   5.501   2.999
 5187W        W 9387   6.237   5.186   0.416
 5188W        W 9388   1.208   5.310  10.475
 5189W        W 9389   5.331   6.711  10.862
 5190W        W 9390   1.600   5.057  11.942
 5191W        W 9391   0.329  11.439   0.225
 5192W        W 9392   0.433   4.458  10.843
 5193W        W 9393  11.390   8.899   1.899
 5194W        W 9394   8.717  11.266   9.586
 5195W        W 9395  10.482   7.373  10.949
 5196W        W 9396   9.087   9.062   2.501
 5197W        W 9397  11.263   4.810   0.805
 5198W        W 9398   3.246   2.629   0.866
 5199W        W 9399   8.535   0.941   9.408
 5200W        W 9400   7.003   8.377   1.917
 5201W        W 9401   5.244  11.388   3.131
 5202W        W 9402   3.144   3.734   4.130
 5203W        W 9403   1.196   8.214   0.705
 5204W        W 9404   1.362   9.566   0.365
 5205W        W 9405   0.730   0.919  10.403
 5206W        W 9406  10.335   2.579   9.387
 5207W        W 9407  10.572   1.585   9.632
 5208W        W 9408  10.241   8.451   0.400
 5209W        W 9409   2.332  10.295   2.784
 5210W        W 9410   9.990   8.075  10.934
 5211W        W 9411   2.333  11.296   0.452
 5212W        W 9412   7.626   2.365   3.157
 5213W        W 9413   9.991   0.395  10.129
 5214W        W 9414   8.495  11.322   3.104
 5215W        W 9415   9.461   6.692   2.126
 5216W        W 9416   4.106   8.134   9.638
 5217W        W 9417   9.785   0.798   9.403
 5218W        W 9418   7.159  10.488   3.394
 5219W        W 9419   0.731   6.934  10.405
 5220W        W 9420  11.304   1.825  10.975
 5221W        W 9421   2.115   2.953   8.777
 5222W        W 9422   7.668   7.776   9.885
 5223W        W 9423   8.648   5.996  11.007
 5224W        W 9424   7.481   6.957   1.934
 5225W        W 9425   1.807  10.983   2.797
 5226W        W 9426   1.804  10.500  11.246
 5227W        W 9427   2.962   7.845  10.365
 5228W        W 9428   1.695   3.805   2.479
 5229W        W 9429   9.478   8.809   0.235
 5230W        W 9430   0.336   6.106   0.224
 5231W        W 9431   0.476   3.885   2.426
 5232W        W 9432   4.624   2.811   2.931
 5233W        W 9433   0.729   0.684   9.950
 5234W        W 9434  10.398   7.451   9.864
 5235W        W 9435   3.221   0.149   9.130
 5236W        W 9436   3.762   0.633   2.837
 5237W        W 9437   1.210   5.655   2.376
 5238W        W 9438   7.484   1.008   1.983
 5239W        W 9439   7.384   8.307   2.281
 5240W        W 9440   8.608   6.485   0.417
 5241W        W 9441  10.228   2.122   0.953
 5242W        W 9442   6.659   9.840   2.018
 5243W        W 9443   3.665  11.433   9.574
 5244W        W 9444   4.658   4.600  10.825
 5245W        W 9445   4.801   9.033   3.074
 5246W        W 9446   2.671   1.113   1.237
 5247W        W 9447   4.771   7.023  10.000
 5248W        W 9448   1.497   9.448  11.884
 5249W        W 9449   2.395   3.802   9.491
 5250W        W 9450   4.666   4.733   1.857
 5251W        W 9451   2.866  10.023  11.548
 5252W        W 9452   9.240   7.345  11.070
 5253W        W 9453   8.775   8.660   0.750
 5254W        W 9454   8.052   1.454   8.743
 5255W        W 9455   9.618   9.590   1.508
 5256W        W 9456   0.750   4.570  11.288
 5257W        W 9457   8.142   8.842  11.755
 5258W        W 9458   1.823   7.455  11.821
 5259W        W 9459   4.702   8.499   0.666
 5260W        W 9460   6.369   7.463   1.508
 5261W        W 9461   3.721   8.841  10.595
 5262W        W 9462  10.337   5.030  11.199
 5263W        W 9463   1.414   5.145   2.364
 5264W        W 9464   1.949   0.483   0.819
 5265W        W 9465   2.832   7.036   2.369
 5266W        W 9466   7.915   5.219  11.469
 5267W        W 9467   1.771   5.202   2.786
 5268W        W 9468   6.114   1.318   1.738
 5269W        W 9469   1.645   3.034   0.439
 5270W        W 9470  11.050   0.895   1.230
 5271W        W 9471   1.450   0.039   0.319
 5272W        W 9472   4.044   3.554  11.792
 5273W        W 9473   5.165   0.756   1.952
 5274W        W 9474  10.071   9.051   9.072
 5275W        W 9475   2.011  10.383   9.394
 5276W        W 9476   2.757   4.569   1.387
 5277W        W 9477   4.561   5.202  11.266
 5278W        W 9478   8.986   5.735   9.776
 5279W        W 9479   4.690   4.002   1.363
 5280W        W 9480   7.845   9.532  10.930
 5281W        W 9481   4.393   1.220   2.901
 5282W        W 9482   9.582   8.607   2.177
 5283W        W 9483   1.401   5.537  11.866
 5284W        W 9484   3.862   1.142   3.030
 5285W        W 9485   9.996   2.723  10.081
 5286W        W 9486   1.179   7.324   2.893
 5287W        W 9487   5.944   5.573   9.049
 5288W        W 9488   6.570   2.743   3.751
 5289W        W 9489   9.845   1.155   2.945
 5290W        W 9490   4.115  11.318   0.902
 5291W        W 9491   0.877  11.046  10.643
 5292W        W 9492   8.267   6.797   0.933
 5293W        W 9493   7.125   6.964  11.988
 5294W        W 9494   9.857  10.995  11.989
 5295W        W 9495   3.745   6.939  11.169
 5296W        W 9496   2.212   8.018   0.574
 5297W        W 9497   9.640   4.197   1.362
 5298W        W 9498  10.611   0.698   1.383
 5299W        W 9499   7.602   7.302   2.283
 5300W        W 9500   2.026   5.364   1.829
 5301W        W 9501  10.530  10.513  11.720
 5302W        W 9502   1.572   7.008   1.907
 5303W        W 9503   8.354   4.018  10.314
 5304W        W 9504   5.617   3.226   2.573
 5305W        W 9505   6.075   0.358   2.179
 5306W        W 9506   9.557   7.678   1.447
 5307W        W 9507   9.919   3.171   9.780
 5308W        W 9508   9.611   4.892   1.746
 5309W        W 9509   8.219   3.710   9.487
 5310W        W 9510   6.644   3.947   1.771
 5311W        W 9511   9.971   8.564  10.739
 5312W        W 9512   8.480  10.254  10.036
 5313W        W 9513   0.287  11.429   9.231
 5314W        W 9514   3.706   3.632  10.891
 5315W        W 9515  11.464  10.721   9.684
 5316W        W 9516   0.172   7.193  11.355
 5317W        W 9517   8.946   9.382  11.424
 5318W        W 9518   2.606   0.834   9.240
 5319W        W 9519   0.519   3.486  10.323
 5320W        W 9520  10.209   2.722   2.075
 5321W        W 9521   5.621   8.565   1.779
 5322W        W 9522   3.969   7.997   1.777
 5323W        W 9523   8.209   3.792   3.973
 5324W        W 9524   1.253   4.059   9.167
 5325W        W 9525   2.282   1.886   9.769
 5326W        W 9526   9.894  10.769   2.233
 5327W        W 9527   5.194   9.795   3.315
 5328W        W 9528   1.976   2.226  11.218
 5329W        W 9529   8.054  10.502   2.359
 5330W        W 9530   1.789   3.279   8.465
 5331W        W 9531   0.381  10.035  10.934
 5332W        W 9532   8.616   3.578   3.145
 5333W        W 9533   9.902   7.688   2.407
 5334W        W 9534   6.482  10.935   9.348
 5335W        W 9535   2.796   5.318  11.332
 5336W        W 9536   5.222   2.440   8.628
 5337W        W 9537   6.718   8.617   0.821
 5338W        W 9538   1.869   6.981   8.735
 5339W        W 9539   3.640   0.138   2.738
 5340W        W 9540   5.000   8.310   8.927
 5341W        W 9541   7.158   9.342   8.536
 5342W        W 9542   1.247   7.591   2.052
 5343W        W 9543   7.990   5.903   0.796
 5344W        W 9544   5.625  10.916   0.930
 5345W        W 9545   0.648   8.781  10.089
 5346W        W 9546   3.995   6.199   1.857
 5347W        W 9547  10.720   7.428   3.525
 5348W        W 9548   1.657   6.655   8.353
 5349W        W 9549   0.329  10.984   9.464
 5350W        W 9550   5.166   4.692   1.697
 5351W        W 9551   2.798   4.828  11.609
 5352W        W 9552   3.112   3.349   1.801
 5353W        W 9553   0.142   7.905   9.982
 5354W        W 9554   6.316   6.519   2.354
 5355W        W 9555   2.195  10.970   1.844
 5356W        W 9556   0.460   0.512   2.405
 5357W        W 9557   9.742   7.044   0.229
 5358W        W 9558   0.827   7.030   1.419
 5359W        W 9559   5.175   1.493   1.694
 5360W        W 9560   1.776   4.761  10.266
 5361W        W 9561   5.609   5.337   0.202
 5362W        W 9562   1.739   8.132   9.652
 5363W        W 9563   1.202   1.831  11.254
 5364W        W 9564  11.001   9.964   9.762
 5365W        W 9565   3.778   9.330   3.383
 5366W        W 9566   6.955   2.666   2.683
 5367W        W 9567   6.345   2.529  10.371
 5368W        W 9568   2.184   1.461   0.021
 5369W        W 9569   1.112   1.284   3.557
 5370W        W 9570   7.802   0.361   3.678
 5371W        W 9571   2.313   5.818   9.163
 5372W        W 9572   8.898   7.609   2.201
 5373W        W 9573  11.247   5.225   1.144
 5374W        W 9574   1.425  10.354   2.923
 5375W        W 9575   2.827   3.205   3.446
 5376W        W 9576  10.426   8.941   3.017
 5377W        W 9577   8.623   7.374   9.440
 5378W        W 9578   1.900   4.543  10.890
 5379W        W 9579  10.091   1.295   1.222
 5380W        W 9580   7.591   1.781   9.599
 5381W        W 9581   3.148   5.613   0.096
 5382W        W 9582   4.084   5.170  11.036
 5383W        W 9583   2.730   3.098   8.986
 5384W        W 9584   0.289   1.879   1.518
 5385W        W 9585   9.784   1.349   0.797
 5386W        W 9586   8.932   0.812   1.859
 5387W        W 9587   7.603   5.024   1.271
 5388W        W 9588   6.729  10.389   2.718
 5389W        W 9589   0.866  10.283  10.085
 5390W        W 9590   0.085   9.367   0.757
 5391W        W 9591   7.664   1.016   9.585
 5392W        W 9592   7.698   6.516   1.791
 5393W        W 9593   8.149   6.655   9.886
 5394W        W 9594   3.748   9.130   2.036
 5395W        W 9595   1.746   8.931  10.887
 5396W        W 9596   6.961   6.006  11.894
 5397W        W 9597   6.127   0.779   2.460
 5398W        W 9598   8.154  10.814   2.766
 5399W        W 9599   0.231   5.459   1.907
 5400W        W 9600   8.067   3.628   1.517
 5401W        W 9601  10.863   1.370   0.022
 5402W        W 9602   8.989   8.619   2.759
 5403W        W 9603   8.445   1.467   9.482
 5404W        W 9604   0.292   7.600  11.743
 5405W        W 9605   7.142   6.692  11.335
 5406W        W 9606   2.331   7.952  10.992
 5407W        W 9607   0.352   1.280  11.818
 5408W        W 9608   3.958   6.300   1.299
 5409W        W 9609   6.647   7.574   3.701
 5410W        W 9610  11.331   8.471   2.180
 5411W        W 9611   9.123  11.416   0.712
 5412W        W 9612   0.184   5.144   0.921
 5413W        W 9613   9.858   0.393  11.863
 5414W        W 9614   5.029   0.224   0.245
 5415W        W 9615   6.249   3.543   2.209
 5416W        W 9616  10.792  10.430   3.332
 5417W        W 9617  11.242   5.247   8.774
 5418W        W 9618   5.726   8.614   3.297
 5419W        W 9619   9.059   3.632   3.399
 5420W        W 9620  11.198   1.501   8.841
 5421W        W 9621   2.794  11.206   0.226
 5422W        W 9622   5.778   2.384   1.033
 5423W        W 9623   5.038   7.726  11.621
 5424W        W 9624   1.321   8.216   0.206
 5425W        W 9625  10.642   7.836   1.430
 5426W        W 9626   7.657   3.109   0.754
 5427W        W 9627  11.431   3.766   3.165
 5428W        W 9628   4.310   5.011   1.444
 5429W        W 9629   0.192   9.251  10.338
 5430W        W 9630   8.745   7.985  10.393
 5431W        W 9631   1.708  10.825   9.411
 5432W        W 9632   9.334   6.610  11.791
 5433W        W 9633   9.158   7.340   9.527
 5434W        W 9634  -0.000  11.351   9.817
 5435W        W 9635  10.778   0.203   9.896
 5436W        W 9636   1.966  10.699   8.968
 5437W        W 9637   7.749   6.269   8.249
 5438W        W 9638   0.227   5.492   9.477
 5439W        W 9639  10.835   7.135   8.913
 5440W        W 9640   6.445   2.804   8.992
 5441W        W 9641  10.128   0.770  10.582
 5442W        W 9642   6.781   6.101   1.331
 5443W        W 9643   9.499   3.286   2.270
 5444W        W 9644   5.248   5.847   2.355
 5445W        W 9645   7.300   0.437  10.048
 5446W        W 9646   8.955   0.820   2.370
 5447W        W 9647   3.626   3.584   0.748
 5448W        W 9648   0.218   3.073  10.258
 5449W        W 9649   0.417   8.693  10.892
 5450W        W 9650   7.579   6.396   3.493
 5451W        W 9651   1.290   7.840  10.861
 5452W        W 9652   3.957   1.027   0.483
 5453W        W 9653   9.497   2.790   9.936
 5454W        W 9654   7.250   1.030   0.314
 5455W        W 9655   6.799   0.792   8.386
 5456W        W 9656   5.604   3.820   1.747
 5457W        W 9657   9.580   1.408   1.307
 5458W        W 9658   0.503   7.078   9.004
 5459W        W 9659   0.226   8.736  10.405
 5460W        W 9660   0.293   3.948  11.156
 5461W        W 9661   1.359  10.830  11.786
 5462W        W 9662  10.763   9.356   2.246
 5463W        W 9663   2.031   8.317   3.241
 5464W        W 9664   1.645  10.336   2.170
 5465W        W 9665   4.621   8.188   9.701
 5466W        W 9666   9.447   6.864   9.841
 5467W        W 9667   3.693   5.471  10.308
 5468W        W 9668  11.372   6.054   0.010
 5469W        W 9669   3.362   7.217  10.960
 5470W        W 9670  10.776   8.642   8.656
 5471W        W 9671  10.739   6.993   0.412
 5472W        W 9672   3.296   9.105  11.085
 5473W        W 9673   1.688   9.631  11.439
 5474W        W 9674   5.925   1.518   9.824
 5475W        W 9675   4.880  10.290  10.181
 5476W        W 9676   1.309   5.645   0.357
 5477W        W 9677   2.120   1.749  11.553
 5478W        W 9678   9.921   0.631   2.958
 5479W        W 9679   7.683   9.034   9.924
 5480W        W 9680   7.165   7.087  10.514
 5481W        W 9681  11.454   9.866   8.679
 5482W        W 9682   1.358  10.456   9.970
 5483W        W 9683   5.515  10.827   2.479
 5484W        W 9684   4.960   7.985   3.372
 5485W        W 9685   3.252   0.209  11.466
 5486W        W 9686   2.293   7.491  10.343
 5487W        W 9687   1.359   4.189   2.397
 5488W        W 9688  10.482   2.449   9.947
 5489W        W 9689   4.983   6.405  11.719
 5490W        W 9690   7.097   1.799   1.094
 5491W        W 9691   0.415   0.358   0.512
 5492W        W 9692   8.396   7.189  10.993
 5493W        W 9693   2.317   3.092   2.758
 5494W        W 9694  10.572   6.020   2.178
 5495W        W 9695   4.278  11.365  11.565
 5496W        W 9696   2.386  10.240  11.537
 5497W        W 9697   0.949  11.470   8.605
 5498W        W 9698   9.412   0.819   2.101
 5499W        W 9699   7.737   6.622   8.637
 5500W        W 9700   6.581   8.589   3.840
 5501W        W 9701   2.372   0.391   9.154
 5502W        W 9702   8.499   5.108   9.599
 5503W        W 9703   3.740   0.922   2.129
 5504W        W 9704   1.734   0.348   1.647
 5505W        W 9705   4.259   2.235   9.326
 5506W        W 9706   0.357   8.053   9.121
 5507W        W 9707   9.873   9.915   0.691
 5508W        W 9708   0.447   3.358   1.458
 5509W        W 9709   4.292   0.011  11.083
 5510W        W 9710  11.120   1.426   2.331
 5511W        W 9711   5.088   7.009   1.064
 5512W        W 9712   0.019   5.630   1.431
 5513W        W 9713   1.403   7.038   0.207
 5514W        W 9714   1.392   3.729   1.020
 5515W        W 9715   3.319   7.629   0.799
 5516W        W 9716   5.961   1.777   3.365
 5517W        W 9717   8.421   8.489   3.634
 5518W        W 9718  10.058  10.380   3.503
 5519W        W 9719   9.542   7.716  10.430
 5520W        W 9720   8.049  10.988  10.105
 5521W        W 9721  10.889   8.679   9.979
 5522W        W 9722   2.265   4.313   2.365
 5523W        W 9723   8.671   8.537  11.749
 5524W        W 9724   2.407   6.046  10.472
 5525W        W 9725   2.872   8.973  10.789
 5526W        W 9726   7.074   5.734  11.272
 5527W        W 9727   2.876   9.338   0.296
 5528W        W 9728   5.105   9.081  11.444
 5529W        W 9729   3.433   0.185  10.987
 5530W        W 9730   4.606   4.558   0.521
 5531W        W 9731   0.641   0.520  10.857
 5532W        W 9732   8.424   7.928   3.074
 5533W        W 9733  10.398   5.574   0.897
 5534W        W 9734   1.870   5.703  11.640
 5535W        W 9735   2.101   4.716   9.860
 5536W        W 9736  11.002   5.308   1.986
 5537W        W 9737   4.794  10.441  11.408
 5538W        W 9738   4.420   4.060   3.219
 5539W        W 9739   7.273   2.267   8.810
 5540W        W 9740   3.637   1.797   1.702
 5541W        W 9741   8.428   4.174   9.276
 5542W        W 9742   7.867   3.303   0.280
 5543W        W 9743   4.404   3.268   3.654
 5544W        W 9744   9.005   5.025   1.470
 5545W        W 9745   4.271   7.041   8.797
 5546W        W 9746   7.790   0.925   0.447
 5547W        W 9747   6.051   4.616   1.334
 5548W        W 9748  10.366   6.409   9.997
 5549W        W 9749   5.866   9.392   0.340
 5550W        W 9750   4.168   1.375   0.818
 5551W        W 9751  11.256   9.847  10.204
 5552W        W 9752   7.282   9.516  10.305
 5553W        W 9753   6.111   4.289   2.619
 5554W        W 9754   4.896   2.501   2.614
 5555W        W 9755  10.358   9.453  10.265
 5556W        W 9756   2.598   9.948  11.057
 5557W        W 9757   1.389   1.612   3.201
 5558W        W 9758   5.532   5.395   2.278
 5559W        W 9759   4.872   7.160   1.499
 5560W        W 9760   0.335   1.298  11.279
 5561W        W 9761   5.611   4.647   9.036
 5562W        W 9762   5.894   6.498   9.447
 5563W        W 9763   0.242   6.776   2.088
 5564W        W 9764   9.932  10.436   1.234
 5565W        W 9765   2.296   3.351   1.368
 5566W        W 9766   4.901   9.098   8.532
 5567W        W 9767   8.490   3.885   1.755
 5568W        W 9768   1.596   4.713   2.765
 5569W        W 9769   6.187  11.469   1.406
 5570W        W 9770   1.861   6.889   3.128
 5571W        W 9771   3.127   3.574   0.802
 5572W        W 9772   7.681   9.202   1.295
 5573W        W 9773   7.897   8.067  10.217
 5574W        W 9774   9.578  11.327   0.955
 5575W        W 9775   6.718   6.591   9.930
 5576W        W 9776   3.057   5.646   2.430
 5577W        W 9777   7.344   8.573   2.706
 5578W        W 9778   3.397  10.947  10.799
 5579W        W 9779   8.006   1.354   1.245
 5580W        W 9780   5.905   3.066   0.387
 5581W        W 9781  11.322   1.035   3.573
 5582W        W 9782  10.314   3.713   1.727
 5583W        W 9783   4.643   3.351  10.029
 5584W        W 9784   8.516   7.675   9.045
 5585W        W 9785   7.592   5.238   8.388
 5586W        W 9786   1.721   3.090   2.232
 5587W        W 9787   3.129   7.054   9.879
 5588W        W 9788   2.268   2.485   1.712
 5589W        W 9789   9.492   7.373   9.954
 5590W        W 9790   7.469   0.247  11.151
 5591W        W 9791   6.679   2.336   1.401
 5592W        W 9792   8.642   7.638   9.888
 5593W        W 9793  10.979   3.601   0.491
 5594W        W 9794   3.567   2.337   0.476
 5595W        W 9795   8.116   6.596  11.282
 5596W        W 9796   6.971   0.295   1.107
 5597W        W 9797   0.947   5.706   9.007
 5598W        W 9798  10.294   5.660   2.420
 5599W        W 9799   4.229   6.933  11.306
 5600W        W 9800   0.055   0.788  10.861
 5601W        W 9801   1.501  11.368   0.807
 5602W        W 9802   9.956   0.322   9.119
 5603W        W 9803   2.236   1.898   8.707
 5604W        W 9804   1.321   1.434   1.806
 5605W        W 9805   9.149   9.988   3.125
 5606W        W 9806   8.608   1.159  11.039
 5607W        W 9807   9.328   2.718   2.534
 5608W        W 9808   9.174  11.450   0.208
 5609W        W 9809   7.517   8.768   9.146
 5610W        W 9810   2.757   1.567   1.482
 5611W        W 9811  10.740  10.604   2.845
 5612W        W 9812  10.378   8.260   3.468
 5613W        W 9813   8.346   7.925   1.373
 5614W        W 9814   2.171   0.701   2.783
 5615W        W 9815   6.448   1.167  11.208
 5616W        W 9816   7.178   6.480   1.795
 5617W        W 9817   5.228   5.308   9.455
 5618W        W 9818   0.140   1.648   2.743
 5619W        W 9819   3.207   2.839   9.933
 5620W        W 9820   3.015   4.686   3.044
 5621W        W 9821   2.066   5.116   0.685
 5622W        W 9822   6.028   9.450   9.567
 5623W        W 9823   9.035   5.128   2.399
 5624W        W 9824   8.454   0.393   1.172
 5625W        W 9825  10.378   6.451  11.029
 5626W        W 9826   7.061   8.473  11.069
 5627W        W 9827   4.073   4.788  10.712
 5628W        W 9828   2.336   7.679   9.051
 5629W        W 9829   6.567   3.062   4.172
 5630W        W 9830  11.207  11.051  11.127
 5631W        W 9831   0.028   3.456   9.091
 5632W        W 9832   2.994   8.361   9.076
 5633W        W 9833   6.217   9.443  11.961
 5634W        W 9834   2.246   2.811   9.794
 5635W        W 9835   9.919   6.183  11.395
 5636W        W 9836   8.686   6.610   1.798
 5637W        W 9837  10.415  10.396  10.805
 5638W        W 9838  10.075   4.155   0.849
 5639W        W 9839   7.157   0.897   3.323
 5640W        W 9840  10.428   4.478   2.840
 5641W        W 9841   8.778   2.294   1.824
 5642W        W 9842   9.216   3.874   9.441
 5643W        W 9843   5.612   5.201   9.793
 5644W        W 9844   6.930  10.770   2.399
 5645W        W 9845   3.508   7.741  11.962
 5646W        W 9846   0.309   2.796   1.567
 5647W        W 9847   1.790   8.204   2.002
 5648W        W 9848   9.115   9.084   9.779
 5649W        W 9849   1.216   4.770  11.466
 5650W        W 9850  11.374   9.813   9.218
 5651W        W 9851   8.594   9.336  10.640
 5652W        W 9852   7.989   2.307  10.781
 5653W        W 9853   0.516   8.038  11.899
 5654W        W 9854   4.332   2.836  10.680
 5655W        W 9855   8.913   1.558  11.198
 5656W        W 9856   3.480   3.831   1.207
 5657W        W 9857   6.401   3.574   0.857
 5658W        W 9858   6.619   2.836   1.381
 5659W        W 9859  10.445   3.291  10.609
 5660W        W 9860   3.701   8.295  11.283
 5661W        W 9861   4.155   6.588   0.778
 5662W        W 9862   4.724   0.327  10.335
 5663W        W 9863   9.896   0.130  11.135
 5664W        W 9864  10.999  11.230   9.933
 5665W        W 9865   0.764   5.055   3.231
 5666W        W 9866  10.086   1.376   2.492
 5667W        W 9867   8.848   4.197   0.225
 5668W        W 9868   0.797   9.958   3.229
 5669W        W 9869  10.844   9.641   2.683
 5670W        W 9870   3.417   3.125   0.877
 5671W        W 9871  11.029   6.972   3.581
 5672W        W 9872   1.301   2.377   2.859
 5673W        W 9873   2.152  10.817   1.361
 5674W        W 9874   7.181  10.324   2.488
 5675W        W 9875   3.415  11.058   9.921
 5676W        W 9876   2.292   3.309   9.653
 5677W        W 9877   3.482   4.038  10.584
 5678W        W 9878   1.884   5.586   9.339
 5679W        W 9879   8.670   5.166   2.867
 5680W        W 9880   5.549   7.324   9.722
 5681W        W 9881   4.303   7.536   0.750
 5682W        W 9882   0.956   2.708   2.685
 5683W        W 9883   0.237   6.877  10.509
 5684W        W 9884   5.444   4.087   4.019
 5685W        W 9885   8.191   8.080   8.964
 5686W        W 9886   8.861   5.510  10.238
 5687W        W 9887   7.513   2.384  10.508
 5688W        W 9888   7.708  11.237   9.784
 5689W        W 9889   0.301   5.255   8.989
 5690W        W 9890   1.889   6.989   1.439
 5691W        W 9891   0.954   5.260   2.172
 5692W        W 9892   7.671   0.621   1.699
 5693W        W 9893  11.433   5.691   9.987
 5694W        W 9894   2.620  11.252   9.508
 5695W        W 9895  10.854   7.154  10.001
 5696W        W 9896   3.713   4.709   2.210
 5697W        W 9897   4.656   9.907   0.529
 5698W        W 9898   7.879   1.468  11.915
 5699W        W 9899   0.685   0.420   8.614
 5700W        W 9900  11.328   0.040  11.323
 5701W        W 9901   0.496   7.989   0.581
 5702W        W 9902  10.233  11.400  10.308
 5703W        W 9903   1.470   4.228   0.225
 5704W        W 9904   4.749   1.355   3.339
 5705W        W 9905   7.658   8.920  10.872
 5706W        W 9906   7.088   8.832   8.390
 5707W        W 9907   3.712   5.501  10.843
 5708W        W 9908   4.956   4.312  10.496
 5709W        W 9909   0.386   8.788   0.360
 5710W        W 9910   6.935   4.544  10.315
 5711W        W 9911   8.216   9.602   8.817
 5712W        W 9912   5.007   2.926  10.621
 5713W        W 9913   9.816   4.639  10.616
 5714W        W 9914  11.151   8.481  10.403
 5715W        W 9915   4.461   8.015   1.905
 5716W        W 9916   6.424   1.332   1.329
 5717W        W 9917   1.438   9.077   1.204
 5718W        W 9918   9.928   6.445   3.578
 5719W        W 9919   1.274   7.175   2.324
 5720W        W 9920   8.074   4.208   1.054
 5721W        W 9921   4.783   5.241   1.878
 5722W        W 9922   0.457   3.471   9.431
 5723W        W 9923   6.945   1.725   2.168
 5724W        W 9924   4.444  10.280   0.873
 5725W        W 9925  10.025   8.080   9.820
 5726W        W 9926  10.294   3.974   0.002
 5727W        W 9927   8.427   6.150   1.724
 5728W        W 9928  11.294   3.394   0.872
 5729W        W 9929   4.468   6.335   1.163
 5730W        W 9930  11.498   8.567   0.663
 5731W        W 9931   8.829   0.937   3.449
 5732W        W 9932   3.880   7.126   1.502
 5733W        W 9933   9.068   4.222   0.690
 5734W        W 9934   7.655   1.406   1.656
 5735W        W 9935  11.289  10.076  11.649
 5736W        W 9936   4.150   5.068   2.360
 5737W        W 9937   8.951   7.496   1.708
 5738W        W 9938   3.163   7.724   9.383
 5739W        W 9939   2.297   4.794   1.039
 5740W        W 9940   1.424  11.412   8.812
 5741W        W 9941   1.410  11.293  11.537
 5742W        W 9942   7.157   2.955   8.828
 5743W        W 9943  11.190   9.265  11.006
 5744W        W 9944   0.452   3.754   3.259
 5745W        W 9945   1.010   8.511  10.350
 5746W        W 9946   8.884   5.953   8.469
 5747W        W 9947   6.381   0.827  10.699
 5748W        W 9948   5.515   3.676   8.167
 5749W        W 9949   9.571   8.576   3.106
 5750W        W 9950   5.915   3.411   1.831
 5751W        W 9951   2.273   8.477  10.295
 5752W        W 9952   5.698   9.093   3.577
 5753W        W 9953   3.643   1.904   9.492
 5754W        W 9954   1.455   4.637   2.184
 5755W        W 9955   6.063   8.329   2.722
 5756W        W 9956  10.379   6.598   3.368
 5757W        W 9957   0.289  10.554   9.156
 5758W        W 9958   9.598   5.538   1.142
 5759W        W 9959   8.487   0.821   2.110
 5760W        W 9960   2.902   7.898   1.335
 5761W        W 9961   0.042  10.530  11.795
 5762W        W 9962   5.189   0.980  11.395
 5763W        W 9963   9.046   7.597   2.683
 5764W        W 9964   2.261   0.860  10.855
 5765W        W 9965   6.361  10.522  10.650
 5766W        W 9966   3.540   3.713   3.546
 5767W        W 9967  10.568   9.917  10.942
 5768W        W 9968   6.168   1.754  10.998
 5769W        W 9969   8.121   7.650  11.197
 5770W        W 9970   2.261   8.888  11.021
 5771W        W 9971   8.976   6.018   0.787
 5772W        W 9972  10.122   4.190  10.615
 5773W        W 9973   3.226   9.067   9.012
 5774W        W 9974  10.558   9.070   8.881
 5775W        W 9975  10.012   9.027   2.177
 5776W        W 9976  10.261   5.415  10.505
 5777W        W 9977   1.767   3.855   2.998
 5778W        W 9978  11.293  10.287   0.663
 5779W        W 9979   1.944  11.423   1.810
 5780W        W 9980   4.526  10.916  11.398
 5781W        W 9981   2.777   2.062   9.044
 5782W        W 9982   6.204   9.012   2.343
 5783W        W 9983   8.912   0.359   2.605
 5784W        W 9984   9.552   6.390   9.611
 5785W        W 9985   1.387   3.866  10.980
 5786W        W 9986   7.457   7.642  11.695
 5787W        W 9987   0.978   3.697  10.294
 5788W        W 9988   4.979   7.234   0.602
 5789W        W 9989  10.504  10.892   2.501
 5790W        W 9990   3.298   3.788   9.732
 5791W        W 9991   1.754  11.410   3.557
 5792W        W 9992   7.248   7.510   0.828
 5793W        W 9993   3.136  10.800  11.281
 5794W        W 9994   0.298  10.029   1.384
 5795W        W 9995   8.634   1.968   1.459
 5796W        W 9996   5.176   1.926  10.921
 5797W        W 9997   4.674   6.075  10.744
 5798W        W 9998  10.042   7.581   1.346
 5799W        W 9999   2.391   9.856   2.541
 5800W        W10000  10.333   4.981   8.829
 5801W        W10001   4.714  10.544   1.797
 5802W        W10002   6.975   0.369   0.129
 5803W        W10003   0.604  11.306  11.765
 5804W        W10004   9.239   5.205  11.298
 5805W        W10005   8.098   5.660   8.734
 5806W        W10006   8.562  11.004   1.767
 5807W        W10007   2.634   4.632   2.704
 5808W        W10008   3.785   3.089   9.109
 5809W        W10009   3.398   9.419   3.703
 5810W        W10010   2.588   9.347   0.720
 5811W        W10011   2.633   4.288  10.281
 5812W        W10012   3.718   4.186   2.069
 5813W        W10013   8.462   9.566   0.171
 5814W        W10014   7.723   6.480   9.134
 5815W        W10015   1.871   1.003   0.718
 5816W        W10016   9.027  10.899   2.508
 5817W        W10017   2.827   5.575  10.802
 5818W        W10018  10.874  10.531   0.849
 5819W        W10019   5.643  10.148   9.815
 5820W        W10020   5.671   9.556   3.269
 5821W        W10021   6.765   1.222   2.361
 5822W        W10022   6.101   1.483   8.987
 5823W        W10023   0.878   4.845   8.488
 5824W        W10024   8.684   4.747   9.284
 5825W        W10025   6.237   1.674   2.953
 5826W        W10026   6.655   0.576  11.768
 5827W        W10027   4.679   1.318   0.766
 5828W        W10028   9.477   8.777  10.835
 5829W        W10029   2.669   9.126  11.226
 5830W        W10030   3.622   2.325   1.878
 5831W        W10031  11.495   8.935   2.399
 5832W        W10032   1.843   8.731   1.913
 5833W        W10033   8.933   8.473  11.044
 5834W        W10034   8.146   4.795   1.690
 5835W        W10035   7.063   6.507   1.185
 5836W        W10036   5.936   8.563   0.297
 5837W        W10037   9.884   1.905   2.523
 5838W        W10038   8.621   6.451   9.137
 5839W        W10039   6.265   3.758   3.097
 5840W        W10040   2.608   8.840   1.337
 5841W        W10041   3.680   9.932   1.354
 5842W        W10042   0.891   4.617  11.798
 5843W        W10043  11.431   3.657  11.441
 5844W        W10044  10.496   5.710  11.929
 5845W        W10045   7.531   4.079   9.807
 5846W        W10046   7.919   7.932   3.174
 5847W        W10047   1.457   9.878   9.281
 5848W        W10048  10.356  11.373   2.779
 5849W        W10049   2.259  10.637   0.878
 5850W        W10050   2.886   3.406  11.388
 5851W        W10051  11.378   1.065  11.323
 5852W        W10052   8.310   3.820   0.787
 5853W        W10053   5.218   9.653   1.160
 5854W        W10054   0.362   7.511   9.287
 5855W        W10055  10.413   4.221   1.795
 5856W        W10056   8.931   0.124   8.785
 5857W        W10057   0.339   8.375   1.396
 5858W        W10058  10.872   1.887   1.256
 5859W        W10059   1.171  10.329   2.325
 5860W        W10060  10.050   3.233  11.397
 5861W        W10061   6.434   7.822  10.885
 5862W        W10062   6.110   4.338   0.916
 5863W        W10063   6.667   1.304   0.457
 5864W        W10064   7.973   4.271  11.101
 5865W        W10065   8.673   5.907  10.507
 5866W        W10066   7.402   8.263  10.050
 5867W        W10067   8.948   8.076   9.908
 5868W        W10068   6.705  11.410   1.357
 5869W        W10069   1.617   6.127   9.555
 5870W        W10070   1.681   0.937  10.141
 5871W        W10071   1.636   2.485   3.467
 5872W        W10072   6.926   1.414   1.352
 5873W        W10073   5.267   2.160  11.835
 5874W        W10074  11.347   0.389  11.734
 5875W        W10075   2.304   9.052   2.022
 5876W        W10076   9.081   8.583   2.254
 5877W        W10077   3.909   7.015   3.249
 5878W        W10078  10.771   5.863   3.601
 5879W        W10079   2.522   7.047  10.477
 5880W        W10080  10.492   5.637   1.396
 5881W        W10081   3.171   5.629  11.547
 5882W        W10082   7.973   6.966   9.551
 5883W        W10083   6.604   0.413   2.957
 5884W        W10084   9.359   3.292   8.408
 5885W        W10085   4.691   7.053   9.130
 5886W        W10086   5.090   7.150  10.975
 5887W        W10087   8.351   4.840   2.177
 5888W        W10088  11.350   4.790   0.285
 5889W        W10089   2.376   8.625   2.979
 5890W        W10090   6.462   8.026   8.662
 5891W        W10091  11.037   2.804   1.786
 5892W        W10092   6.517   8.487   9.880
 5893W        W10093   5.561   3.251   9.758
 5894W        W10094  10.334   5.504  10.992
 5895W        W10095  10.313   0.257   1.332
 5896W        W10096   3.475  10.178   0.628
 5897W        W10097   4.904   1.139  10.533
 5898W        W10098   2.679  10.997  11.251
 5899W        W10099   7.531  10.186  11.943
 5900W        W10100   2.100   6.668   0.310
 5901W        W10101  10.456   1.066   9.701
 5902W        W10102   7.320   8.306   1.408
 5903W        W10103   2.607   8.859  10.370
 5904W        W10104   2.710   5.847   1.607
 5905W        W10105   7.511   9.529   2.781
 5906W        W10106   8.605   3.178   2.670
 5907W        W10107   6.506  11.401   2.897
 5908W        W10108   5.337   4.786   9.440
 5909W        W10109   1.698   9.733  10.099
 5910W        W10110   0.290   7.567   2.736
 5911W        W10111   2.846  10.430   1.427
 5912W        W10112  10.419   3.789   1.234
 5913W        W10113   6.205   8.186   9.075
 5914W        W10114   9.490   0.234   0.505
 5915W        W10115   5.998   7.196   1.770
 5916W        W10116   4.476  10.536  10.556
 5917W        W10117   0.397  11.009   8.955
 5918W        W10118  11.098   1.826   0.804
 5919W        W10119   3.379   9.799   0.952
 5920W        W10120   5.417   1.058  10.433
 5921W        W10121   6.566   9.513   1.640
 5922W        W10122   6.220   1.943   8.423
 5923W        W10123   0.280   8.471   8.807
 5924W        W10124   1.650   3.113  11.931
 5925W        W10125   9.079   8.591   3.276
 5926W        W10126   4.675   8.738   9.796
 5927W        W10127   9.315   2.791   9.066
 5928W        W10128   7.232  11.408   1.306
 5929W        W10129   6.230   8.937   0.050
 5930W        W10130   9.359   6.101   8.792
 5931W        W10131  10.010   4.567   1.789
 5932W        W10132   1.799   1.980   3.639
 5933W        W10133   1.119   2.286   3.636
 5934W        W10134  11.242   9.446  10.520
 5935W        W10135   2.653   1.086   8.799
 5936W        W10136  10.728   4.573  10.061
 5937W        W10137   2.155   6.792  10.737
 5938W        W10138   7.126   7.946  11.940
 5939W        W10139   1.431  10.881  10.747
 5940W        W10140   9.240   7.516  11.959
 5941W        W10141   4.237   8.472   1.826
 5942W        W10142  10.037   5.798   1.209
 5943W        W10143   4.494  10.675   2.244
 5944W        W10144  10.078   2.638  11.936
 5945W        W10145   2.667   8.397   2.073
 5946W        W10146  10.309   4.574  10.334
 5947W        W10147   7.442   9.882  11.003
 5948W        W10148   4.235  11.133   2.249
 5949W        W10149   8.237   8.571   0.782
 5950W        W10150   9.008   6.821   0.522
 5951W        W10151   6.720   1.871   9.801
 5952W        W10152   1.617   0.649   0.423
 5953W        W10153   9.148   6.713   2.733
 5954W        W10154   9.011   7.318   0.746
 5955W        W10155   7.155   5.640   9.857
 5956W        W10156   2.639   9.918   1.364
 5957W        W10157  11.317   0.646   0.180
 5958W        W10158   7.131   2.560   0.290
 5959W        W10159   5.273   5.233   1.518
 5960W        W10160   5.220   0.216  10.209
 5961W        W10161  10.995   8.878   2.297
 5962W        W10162   0.702   9.232   8.936
 5963W        W10163   7.451   1.772   2.473
 5964W        W10164  10.917   6.002   8.908
 5965W        W10165   2.678   0.029   2.872
 5966W        W10166   0.688   4.097  11.502
 5967W        W10167   8.963   5.581  11.044
 5968W        W10168  11.176   7.227  11.507
 5969W        W10169   5.734   7.057  10.128
 5970W        W10170   9.145   2.234   3.477
 5971W        W10171   1.771  11.306   2.278
 5972W        W10172   6.946   2.232  10.091
 5973W        W10173  10.418   7.444   8.850
 5974W        W10174   0.906   0.174   1.638
 5975W        W10175   8.604   8.985  11.475
 5976W        W10176   1.419   9.821   1.985
 5977W        W10177   4.208   4.347   2.834
 5978W        W10178  10.052   5.086   1.936
 5979W        W10179  10.353  11.086  11.575
 5980W        W10180  10.558   3.168   2.841
 5981W        W10181  10.994   7.676  10.783
 5982W        W10182   7.037   7.139  11.060
 5983W        W10183   9.363   9.538  11.720
 5984W        W10184  10.604   7.987   0.912
 5985W        W10185   5.011   5.213  10.992
 5986W        W10186   1.598   1.982   2.705
 5987W        W10187   1.466   4.476   1.142
 5988W        W10188   9.245   7.008  11.470
 5989W        W10189   0.183   9.419   2.627
 5990W        W10190   1.135   6.562   0.157
 5991W        W10191  11.427   1.529  11.539
 5992W        W10192   6.252   9.005   9.415
 5993W        W10193   3.788  10.823   2.336
 5994W        W10194   6.047   5.563  11.768
 5995W        W10195   5.500   1.815   2.623
 5996W        W10196   2.533   8.982   9.463
 5997W        W10197  10.040  10.946   0.487
 5998W        W10198   9.946   8.605   3.468
 5999W        W10199   6.905   7.124   3.687
 6000W        W10200   4.158   9.984  10.261
 6001W        W10201   3.314  10.335  11.348
 6002W        W10202   3.006   6.264   1.583
 6003W        W10203   2.698   0.540   3.037
 6004W        W10204   6.113  10.989  11.892
 6005W        W10205   7.996   6.111   2.002
 6006W        W10206   4.646   4.365  11.336
 6007W        W10207   5.041   0.190   0.759
 6008W        W10208   4.025   9.682  11.057
 6009W        W10209  10.073   8.544   2.970
 6010W        W10210   5.156   3.613   3.206
 6011W        W10211  10.453   1.923  10.055
 6012W        W10212   2.707   5.450   3.625
 6013W        W10213   7.683   9.838  10.519
 6014W        W10214   8.246   5.583   1.157
 6015W        W10215   3.871   0.753  11.739
 6016W        W10216   1.035   7.036   3.621
 6017W        W10217   2.371   7.922   3.312
 6018W        W10218   0.548   7.942   3.614
 6019W        W10219   7.948   1.417   9.722
 6020W        W10220   1.298   2.554   8.832
 6021W        W10221   8.258   8.075  10.576
 6022W        W10222  10.853   0.976   2.218
 6023W        W10223   0.523   1.917   1.057
 6024W        W10224   9.371   9.642   9.435
 6025W        W10225   7.925   5.165   2.263
 6026W        W10226   8.807   4.597   2.262
 6027W        W10227   5.210   3.731   0.288
 6028W        W10228   9.286   7.104   2.389
 6029W        W10229   8.350   0.455   9.427
 6030W        W10230   7.876  11.239   0.770
 6031W        W10231   1.011   7.293  10.933
 6032W        W10232   8.948   5.201   9.840
 6033W        W10233   6.550  10.283   0.381
 6034W        W10234   7.071   3.754   2.646
 6035W        W10235   6.203  11.424   1.919
 6036W        W10236   6.128   9.484   3.535
 6037W        W10237   1.475   8.894   3.612
 6038W        W10238   5.541   9.472   0.766
 6039W        W10239  11.031   3.248   9.134
 6040W        W10240   0.727   6.518   3.508
 6041W        W10241   0.138   5.336  11.232
 6042W        W10242   2.727   4.148   2.514
 6043W        W10243   9.790   3.094  11.989
 6044W        W10244   7.110   4.417  10.787
 6045W        W10245   3.826   6.975   0.625
 6046W        W10246   7.435   6.528   2.253
 6047W        W10247  11.002  10.942   9.525
 6048W        W10248   6.963   8.713  11.551
 6049W        W10249   4.630   7.232   1.028
 6050W        W10250   1.723   0.318   2.158
 6051W        W10251   5.544   4.577   9.862
 6052W        W10252  10.418   3.052  11.077
 6053W        W10253  10.185   7.047   1.408
 6054W        W10254   2.431   8.662   9.861
 6055W        W10255   8.451   0.304  11.000
 6056W        W10256  10.885   5.383   3.470
 6057W        W10257  10.607   1.393   2.398
 6058W        W10258   9.582   8.211   0.870
 6059W        W10259   3.607   9.481  11.311
 6060W        W10260   6.586   0.333  10.564
 6061W        W10261   3.618   5.735   9.869
 6062W        W10262   7.017   1.728  11.775
 6063W        W10263   9.850   8.130  10.321
 6064W        W10264  10.402   3.994   2.557
 6065W        W10265   8.236   2.126   2.805
 6066W        W10266  10.226   2.180  11.425
 6067W        W10267   2.433  10.411   3.302
 6068W        W10268   3.727   9.795  10.084
 6069W        W10269   8.644   0.959   8.601
 6070W        W10270   2.746   4.872   1.798
 6071W        W10271   6.012   3.350   2.879
 6072W        W10272   2.712   3.405   9.410
 6073W        W10273  10.038   7.674  10.616
 6074W        W10274   6.871   5.819  10.806
 6075W        W10275   5.927  10.812   2.179
 6076W        W10276   4.474   7.688   1.225
 6077W        W10277   9.591  11.082   1.433
 6078W        W10278   5.910   5.044   2.201
 6079W        W10279   9.930   2.185   9.373
 6080W        W10280   4.557   4.480   4.057
 6081W        W10281   9.064   8.243   0.974
 6082W        W10282   6.051   8.443  10.761
 6083W        W10283  10.181  10.343   2.108
 6084W        W10284   6.222   8.477   8.635
 6085W        W10285   7.652   3.497   1.163
 6086W        W10286   1.837   1.732   2.207
 6087W        W10287   3.120  11.342   9.607
 6088W        W10288   8.998   0.653  11.685
 6089W        W10289   0.793   9.259   9.881
 6090W        W10290   9.303   4.707   0.841
 6091W        W10291   2.223   5.729   1.467
 6092W        W10292   0.814   4.322   9.035
 6093W        W10293   8.916   3.930   9.016
 6094W        W10294   0.274   9.802   0.387
 6095W        W10295   1.966   7.796   8.683
 6096W        W10296   4.840   8.871   1.004
 6097W        W10297  10.974   5.071   9.476
 6098W        W10298   7.362   9.638   9.290
 6099W        W10299   4.229   9.474   2.497
 6100W        W10300  11.084   4.332   1.060
 6101W        W10301   0.885   4.025   2.169
 6102W        W10302   5.767   6.146  10.226
 6103W        W10303   3.417   9.517   9.793
 6104W        W10304   9.977   1.716   1.574
 6105W        W10305   9.447   5.388   0.224
 6106W        W10306   2.858   5.729   0.718
 6107W        W10307   7.058   4.659  11.622
 6108W        W10308   8.812   8.559   1.790
 6109W        W10309   3.892   9.825   0.903
 6110W        W10310   9.583   3.764  11.363
 6111W        W10311   3.622   0.250  10.520
 6112W        W10312   4.620   6.987  10.986
 6113W        W10313   7.825   0.849  11.242
 6114W        W10314   8.482  11.302  10.065
 6115W        W10315   2.837  10.628   0.180
 6116W        W10316   8.938   2.832  10.616
 6117W        W10317   4.516  10.904   3.475
 6118W        W10318  10.388  10.671  11.253
 6119W        W10319   3.779   8.092   0.350
 6120W        W10320   2.825   8.213  11.495
 6121W        W10321   4.625   3.263  10.539
 6122W        W10322   1.183   8.963   9.737
 6123W        W10323  10.142   1.447  11.348
 6124W        W10324   6.269   1.332   9.476
 6125W        W10325   0.461   7.843  10.409
 6126W        W10326   3.114   8.923   0.464
 6127W        W10327   3.339   0.420   0.507
 6128W        W10328   5.196   8.172   9.416
 6129W        W10329  11.201   2.800   9.363
 6130W        W10330   9.371  10.548   2.319
 6131W        W10331   8.953  10.488   3.360
 6132W        W10332   0.334   8.830  11.382
 6133W        W10333   2.151   2.348   9.516
 6134W        W10334   8.019   0.371   1.413
 6135W        W10335   9.703  11.457   9.444
 6136W        W10336   1.722   4.839  11.506
 6137W        W10337   1.935  10.538   1.789
 6138W        W10338   8.157   8.911   0.321
 6139W        W10339   6.207   6.716   1.878
 6140W        W10340   4.223   4.589  11.738
 6141W        W10341   7.079   8.937   0.599
 6142W        W10342   4.231   2.660   3.625
 6143W        W10343   3.026   3.648   3.640
 6144W        W10344   3.692   8.904   9.194
 6145W        W10345   6.405   0.501   0.209
 6146W        W10346   6.117  11.321   2.416
 6147W        W10347   5.257   6.664   0.673
 6148W        W10348   5.125  11.009   2.784
 6149W        W10349   2.705   0.196  10.447
 6150W        W10350   7.662  10.772   2.179
 6151W        W10351   8.141  11.055   1.455
 6152W        W10352   5.470   8.014  10.782
 6153W        W10353  10.286   1.286   0.716
 6154W        W10354   5.539   8.582   3.764
 6155W        W10355   9.570   2.517   0.599
 6156W        W10356   5.172   4.437   2.753
 6157W        W10357   0.973   3.189   3.628
 6158W        W10358   2.393  11.129   0.950
 6159W        W10359   3.664   6.922  10.655
 6160W        W10360   6.471   5.454  10.143
 6161W        W10361   6.468   2.397  11.412
 6162W        W10362   1.952   8.465  10.950
 6163W        W10363   1.193   9.425   9.504
 6164W        W10364   6.338   7.152   0.514
 6165W        W10365   8.901   1.694   0.204
 6166W        W10366   9.793   2.855   2.347
 6167W        W10367   4.018   4.603   1.404
 6168W        W10368   5.525  10.011   2.978
 6169W        W10369   6.182  10.263   9.064
 6170W        W10370   7.044  10.937   9.054
 6171W        W10371   5.813   2.867   2.895
 6172W        W10372   1.163   1.648  11.740
 6173W        W10373   0.007   9.074  11.953
 6174W        W10374   7.753   5.577  11.836
 6175W        W10375   5.557   7.088  11.179
 6176W        W10376   4.336   2.241   8.821
 6177W        W10377   6.088   6.420   1.478
 6178W        W10378   3.420   9.913   2.797
 6179W        W10379   0.720   1.143   0.182
 6180W        W10380   0.271  10.054   9.031
 6181W        W10381   7.135   9.986   9.585
 6182W        W10382  10.914   6.238   2.492
 6183W        W10383   6.612  10.333   2.207
 6184W        W10384  10.846   3.449   9.622
 6185W        W10385   7.966   1.379  10.244
 6186W        W10386   9.832   4.172   9.783
 6187W        W10387   7.194   0.786   2.369
 6188W        W10388   0.928   8.042   2.533
 6189W        W10389  10.393   9.887   9.993
 6190W        W10390   3.730   6.488   0.351
 6191W        W10391   5.365   5.516   2.757
 6192W        W10392   1.849   4.134   1.333
 6193W        W10393   9.063  10.740   8.978
 6194W        W10394  10.144   1.724   9.083
 6195W        W10395  10.327   0.676   3.315
 6196W        W10396   1.334   6.599  11.311
 6197W        W10397   6.559   1.731   9.276
 6198W        W10398   9.324   0.461   8.732
 6199W        W10399   6.619  10.544   9.660
 6200W        W10400   1.794   8.572  10.464
 6201W        W10401   6.629   4.198   0.213
 6202W        W10402   0.641   4.550   3.401
 6203W        W10403   9.312   4.148  11.993
 6204W        W10404   6.707   9.436   1.165
 6205W        W10405   9.954  10.588   1.729
 6206W        W10406   2.127   7.577   0.248
 6207W        W10407   8.936   0.937   2.893
 6208W        W10408   8.474  10.495   3.135
 6209W        W10409   6.966  11.438  11.878
 6210W        W10410   3.404   9.917   1.802
 6211W        W10411   6.192   8.579   0.862
 6212W        W10412  11.218   7.913  10.351
 6213W        W10413  11.294   0.885   3.064
 6214W        W10414   7.724   0.749  10.016
 6215W        W10415   8.126   5.442   0.679
 6216W        W10416   9.091   5.669   1.133
 6217W        W10417   6.121   7.567   3.614
 6218W        W10418   8.822   1.424   0.908
 6219W        W10419   5.970  11.341  10.252
 6220W        W10420   5.942   8.041   8.622
 6221W        W10421   8.467   7.397   2.349
 6222W        W10422   4.570   0.066  11.987
 6223W        W10423  10.004   3.331   2.229
 6224W        W10424   8.697   8.385   9.604
 6225W        W10425  11.345   3.218   2.150
 6226W        W10426   0.702   1.654  11.983
 6227W        W10427   4.938   2.321   0.617
 6228W        W10428   9.450   8.553   3.640
 6229W        W10429  10.287   2.685  11.446
 6230W        W10430  10.564   8.035   9.087
 6231W        W10431   8.583   8.745   3.222
 6232W        W10432   1.029  10.362  11.896
 6233W        W10433   8.158   5.951  10.549
 6234W        W10434   2.109  10.122   3.591
 6235W        W10435   3.606   7.252   0.079
 6236W        W10436   4.745   9.902  11.388
 6237W        W10437   0.342  10.308  10.498
 6238W        W10438   9.298   0.663  10.888
 6239W        W10439   5.013   1.716   2.778
 6240W        W10440   2.000  10.236   0.712
 6241W        W10441   0.955   6.107  10.863
 6242W        W10442   4.856   7.524   3.099
 6243W        W10443   5.522   0.424   3.499
 6244W        W10444   7.918   0.478  10.880
 6245W        W10445   4.558   3.173   1.649
 6246W        W10446   2.277   6.708   1.777
 6247W        W10447   9.332   1.434   0.024
 6248W        W10448   3.823   0.390   1.929
 6249W        W10449   7.472   3.565   9.963
 6250W        W10450   4.534   7.505  11.793
 6251W        W10451   4.590   3.890  10.033
 6252W        W10452   5.709   5.620   9.506
 6253W        W10453   9.010  10.281  11.485
 6254W        W10454   5.483   1.367  11.491
 6255W        W10455   5.230   0.459   9.746
 6256W        W10456  11.450   6.903   2.649
 6257W        W10457   1.910   8.116  11.334
 6258W        W10458   5.968   5.234   0.895
 6259W        W10459  10.880   7.288  10.490
 6260W        W10460   5.676   8.042   1.487
 6261W        W10461   0.926  11.045   2.680
 6262W        W10462   0.707   6.340  11.937
 6263W        W10463   1.389  11.231   2.617
 6264W        W10464   7.313   6.845   1.457
 6265W        W10465   4.753   9.345  11.181
 6266W        W10466   8.841   8.998   2.055
 6267W        W10467   8.557   4.666   0.330
 6268W        W10468   8.884   4.217   1.678
 6269W        W10469   7.838   3.577   3.634
 6270W        W10470   5.623   8.022   0.957
 6271W        W10471   0.895   9.656  11.027
 6272W        W10472   9.968   0.001   2.119
 6273W        W10473   1.748   0.305   3.181
 6274W        W10474   9.069   6.262  11.151
 6275W        W10475   9.868  10.447  10.609
 6276W        W10476   7.856   5.594   2.591
 6277W        W10477  11.328   6.516   2.299
 6278W        W10478   0.173   2.211  10.313
 6279W        W10479   3.583   4.257  11.480
 6280W        W10480  10.468   0.368  10.316
 6281W        W10481   9.642   0.772   1.633
 6282W        W10482   3.974   3.652   1.142
 6283W        W10483   2.634   6.182   0.761
 6284W        W10484  11.067   4.745  11.860
 6285W        W10485   1.668   4.787   0.475
 6286W        W10486   4.216  10.566  11.024
 6287W        W10487   1.703   1.822   8.529
 6288W        W10488   3.640   8.396   9.401
 6289W        W10489   1.432  10.728   2.491
 6290W        W10490   4.229  10.357   9.568
 6291W        W10491   7.298   3.727   3.164
 6292W        W10492   1.216   4.583   0.623
 6293W        W10493   7.642  10.379  11.484
 6294W        W10494   8.989   9.836   9.149
 6295W        W10495   3.317   2.100   0.885
 6296W        W10496   4.335   1.967   2.130
 6297W        W10497   3.376   1.781  10.788
 6298W        W10498   1.374   8.054   2.285
 6299W        W10499   3.089   4.280   9.111
 6300W        W10500   7.191   3.049   1.919
 6301W        W10501   2.676   9.031   2.851
 6302W        W10502   7.685   3.645   9.475
 6303W        W10503  11.005  10.970   3.105
 6304W        W10504   7.726   0.386  10.391
 6305W        W10505   2.253   4.341   2.883
 6306W        W10506   8.415   2.860   9.522
 6307W        W10507   3.338   4.457   8.446
 6308W        W10508   9.073   6.815   4.025
 6309W        W10509   6.707   2.814  10.061
 6310W        W10510   7.873   0.988   8.861
 6311W        W10511   3.884   6.481  10.457
 6312W        W10512   5.634   1.854   1.100
 6313W        W10513   9.620   1.798   9.237
 6314W        W10514   8.958  11.227   9.115
 6315W        W10515   1.293   0.683   2.906
 6316W        W10516   2.630   8.699  11.584
 6317W        W10517   6.914  10.103   3.158
 6318W        W10518   6.945   1.909   8.981
 6319W        W10519   3.732   9.377  10.366
 6320W        W10520   9.205   0.559   3.363
 6321W        W10521   5.030   4.585   8.244
 6322W        W10522  10.002   2.322   0.352
 6323W        W10523   2.133   4.583   1.904
 6324W        W10524   6.725   8.449   8.474
 6325W        W10525  10.677   6.071  10.276
 6326W        W10526   7.519   1.252  10.027
 6327W        W10527   4.142   1.858   9.627
 6328W        W10528   5.963   9.167   9.029
 6329W        W10529   1.370   3.603   8.955
 6330W        W10530   9.555   6.075  11.032
 6331W        W10531   1.118   4.603   2.566
 6332W        W10532   1.748   3.929   8.942
 6333W        W10533   1.901   2.101   1.376
 6334W        W10534   3.710   3.123  10.823
 6335W        W10535   5.640   1.041   0.842
 6336W        W10536   9.417   0.820  11.362
 6337W        W10537   5.375   7.091   1.496
 6338W        W10538   3.631   9.552  11.891
 6339W        W10539  10.421   7.100   3.229
 6340W        W10540   0.078   2.393   3.189
 6341W        W10541  10.356   4.044   3.087
 6342W        W10542   9.412   3.178   3.294
 6343W        W10543   0.919   4.124   2.661
 6344W        W10544   8.224   3.840   2.939
 6345W        W10545   7.884   7.998   0.090
 6346W        W10546   0.815   4.619   0.947
 6347W        W10547   8.158   2.408   9.350
 6348W        W10548   5.643   4.842   1.794
 6349W        W10549   3.906   8.953   0.963
 6350W        W10550   8.928   5.987   1.818
 6351W        W10551   6.716   0.908   9.809
 6352W        W10552   8.799   3.465  11.967
 6353W        W10553   6.591   2.574   0.949
 6354W        W10554   6.932   6.016   1.822
 6355W        W10555   9.467   8.646   9.431
 6356W        W10556   1.259  10.636   0.285
 6357W        W10557   3.722   8.375  10.778
 6358W        W10558   0.828   1.794   9.871
 6359W        W10559   1.828   9.347   0.274
 6360W        W10560   2.355   5.226  10.006
 6361W        W10561   9.379   1.695   0.895
 6362W        W10562   9.802   0.162   2.799
 6363W        W10563   9.445  11.031   9.255
 6364W        W10564   1.985   2.772   3.225
 6365W        W10565   9.298   1.128   1.683
 6366W        W10566  10.384   5.913   9.013
 6367W        W10567   3.082   1.128   9.693
 6368W        W10568   8.451   7.518   0.417
 6369W        W10569   5.570  10.072   3.493
 6370W        W10570   9.141   1.834   3.165
 6371W        W10571   9.462   3.321   9.922
 6372W        W10572   9.384   5.692  11.321
 6373W        W10573   0.531   7.002   3.511
 6374W        W10574  10.186   3.134   3.537
 6375W        W10575   3.699   3.146   9.899
 6376W        W10576   1.394   8.052   9.251
 6377W        W10577   0.468   9.776   2.878
 6378W        W10578   1.230   0.298   3.223
 6379W        W10579   6.578   7.189   2.744
 6380W        W10580   7.376   3.545  11.891
 6381W        W10581   7.639  11.044   0.310
 6382W        W10582   4.782   8.983   2.012
 6383W        W10583   4.237   4.415   3.611
 6384W        W10584   5.446   8.450   0.231
 6385W        W10585   1.730   2.197   9.797
 6386W        W10586   8.629   5.919   2.267
 6387W        W10587   1.217   9.919  10.251
 6388W        W10588   3.047   7.442   1.193
 6389W        W10589   9.848   2.832   1.363
 6390W        W10590   6.126   0.418   1.176
 6391W        W10591   4.384  11.343   1.370
 6392W        W10592   6.021   6.263   1.992
 6393W        W10593   0.830  10.493  11.426
 6394W        W10594   7.074   2.737   1.117
 6395W        W10595   5.325   4.136   8.331
 6396W        W10596   1.398  10.936   9.007
 6397W        W10597   4.608   9.232   8.920
 6398W        W10598   1.151  10.015   0.251
 6399W        W10599   4.986   3.165   0.908
 6400W        W10600  11.151   1.627   3.519
 6401W        W10601   4.945   2.792   9.446
 6402W        W10602  10.125   7.946   9.330
 6403W        W10603   5.196  10.077  11.241
 6404W        W10604   2.751   3.854  10.506
 6405W        W10605   7.214   3.022   2.432
 6406W        W10606   2.868   6.037   0.306
 6407W        W10607   9.581   5.687   9.013
 6408W        W10608   8.424   4.137   8.770
 6409W        W10609  10.994   2.272   0.512
 6410W        W10610   5.240   2.359   9.461
 6411W        W10611   2.165   9.074  10.026
 6412W        W10612   4.075  10.395   2.391
 6413W        W10613   0.363   7.039   0.218
 6414W        W10614   9.587   5.038   1.238
 6415W        W10615   3.321  10.419   1.638
 6416W        W10616   3.394   6.673   0.690
 6417W        W10617   3.300   1.612   0.662
 6418W        W10618   4.629   8.422  11.232
 6419W        W10619   7.959   2.859   9.249
 6420W        W10620  10.418   1.688   3.292
 6421W        W10621   3.666   1.295   0.838
 6422W        W10622   1.674   9.083   9.850
 6423W        W10623   4.612   5.223  10.190
 6424W        W10624   5.158   0.431  11.277
 6425W        W10625   8.113  10.791   1.910
 6426W        W10626   2.413   9.326  10.732
 6427W        W10627  10.456   3.993  11.474
 6428W        W10628   6.166   2.875   9.419
 6429W        W10629   1.381   7.487   0.704
 6430W        W10630   3.961   2.936   8.646
 6431W        W10631  10.095   3.800   0.480
 6432W        W10632  11.318   1.361  10.301
 6433W        W10633   7.986   7.026   0.220
 6434W        W10634   1.161   9.508  11.471
 6435W        W10635  11.349   9.806   2.431
 6436W        W10636   9.586  11.176  10.755
 6437W        W10637   4.167   8.181  11.438
 6438W        W10638   9.382   6.877   1.143
 6439W        W10639   4.751   5.760   1.780
 6440W        W10640   3.133  10.963  10.346
 6441W        W10641   7.186   2.926   0.650
 6442W        W10642   6.673   0.030   9.633
 6443W        W10643   7.161  10.480   0.950
 6444W        W10644   9.661   1.253   2.169
 6445W        W10645   3.800  11.259   0.459
 6446W        W10646   6.706   7.928   4.140
 6447W        W10647   1.254   9.385   1.747
 6448W        W10648   4.223   6.606   3.135
 6449W        W10649   9.536   8.730  11.337
 6450W        W10650   1.189   5.935   0.769
 6451W        W10651   0.009   0.499   2.159
 6452W        W10652   2.830   7.956   1.848
 6453W        W10653   4.752   4.461   8.698
 6454W        W10654  10.433   3.745  10.327
 6455W        W10655   6.095   4.561   8.900
 6456W        W10656   3.468   0.027   8.669
 6457W        W10657   0.936   5.070  10.849
 6458W        W10658   0.266  10.572  10.073
 6459W        W10659   9.194  10.836  10.718
 6460W        W10660   7.577   6.025   1.044
 6461W        W10661   9.494   9.086   3.437
 6462W        W10662   7.707   2.146  11.212
 6463W        W10663   0.464   9.122  11.788
 6464W        W10664  10.411   5.415  10.033
 6465W        W10665   8.787   3.337   2.204
 6466W        W10666   0.368   8.943   2.742
 6467W        W10667   9.196   3.269  10.713
 6468W        W10668   4.813   8.517   9.355
 6469W        W10669  11.262   4.758   2.955
 6470W        W10670   7.143  11.262   2.323
 6471W        W10671   6.192   4.093   0.459
 6472W        W10672   1.882   3.873   9.790
 6473W        W10673  11.215   8.618   2.702
 6474W        W10674   1.507   8.229  11.680
 6475W        W10675   7.975  11.456   8.901
 6476W        W10676   0.778   5.250   8.789
 6477W        W10677   3.785   9.266  10.871
 6478W        W10678   2.767   6.964   9.268
 6479W        W10679   8.118   5.942  11.925
 6480W        W10680   3.910   2.345  10.288
 6481W        W10681   8.418   1.297   9.982
 6482W        W10682   0.472  11.073   2.181
 6483W        W10683   0.906   2.339  11.164
 6484W        W10684   9.628   6.075   3.370
 6485W        W10685   2.571   4.997   3.087
 6486W        W10686   1.774   8.991   0.829
 6487W        W10687   6.953  10.724  11.239
 6488W        W10688  11.053   7.222   2.625
 6489W        W10689   9.783   5.506  10.312
 6490W        W10690   1.263   3.257   3.206
 6491W        W10691   7.572   2.881   0.297
 6492W        W10692   4.370   0.530  11.082
 6493W        W10693   0.927  10.016   2.699
 6494W        W10694  10.296   0.865   1.002
 6495W        W10695   5.525   6.874   9.493
 6496W        W10696   0.230   6.626   3.701
 6497W        W10697   6.451   8.074   2.472
 6498W        W10698   5.579   3.699   2.777
 6499W        W10699   5.295   3.151  10.179
 6500W        W10700   1.404   5.836   1.220
 6501W        W10701   8.397   7.924   9.493
 6502W        W10702   5.706   0.866   8.623
 6503W        W10703   7.436  11.500  10.706
 6504W        W10704   9.002   2.053  11.868
 6505W        W10705   8.791   9.932   1.577
 6506W        W10706   4.188   8.232  10.930
 6507W        W10707  10.079   8.611  10.249
 6508W        W10708   6.429   0.476   9.716
 6509W        W10709   5.145  11.133   2.280
 6510W        W10710   2.851   6.978   0.369
 6511W        W10711   1.831   1.768   9.523
 6512W        W10712   7.887   0.184   9.350
 6513W        W10713   9.320   1.686  10.948
 6514W        W10714   4.007  11.300   1.720
 6515W        W10715   0.460   0.572   0.973
 6516W        W10716  11.372   9.504   0.264
 6517W        W10717   2.162  11.017  11.901
 6518W        W10718  10.416   0.856  10.162
 6519W        W10719   8.787   9.492   8.811
 6520W        W10720   0.016   8.109   9.518
 6521W        W10721   9.580   1.654   0.426
 6522W        W10722   5.305   4.225   0.504
 6523W        W10723   0.641   4.989   0.059
 6524W        W10724   3.485   7.807  10.359
 6525W        W10725  10.061   6.993  11.780
 6526W        W10726   4.064  11.383   0.023
 6527W        W10727   4.187   0.321   0.996
 6528W        W10728   1.728   8.157  10.168
 6529W        W10729   7.635   8.705   3.540
 6530W        W10730  10.442   9.884   2.402
 6531W        W10731   6.145   7.103   2.251
 6532W        W10732  10.301   4.665   0.944
 6533W        W10733  10.480   5.126   1.186
 6534W        W10734   7.873   9.960   3.172
 6535W        W10735  11.496   7.127   1.736
 6536W        W10736   6.123  10.310   9.936
 6537W        W10737   7.517   0.426   3.177
 6538W        W10738   2.893   6.624   0.751
 6539W        W10739   2.759  10.431  11.205
 6540W        W10740   4.198   3.595   3.299
 6541W        W10741  10.452   8.449   1.678
 6542W        W10742   0.202   0.834   9.217
 6543W        W10743   5.579   8.802  11.429
 6544W        W10744   5.990   8.321   9.923
 6545W        W10745   7.331   2.078   0.425
 6546W        W10746   3.175   1.768   3.060
 6547W        W10747   1.461   5.321   1.787
 6548W        W10748   5.956   8.637   9.039
 6549W        W10749   0.334   1.815   0.555
 6550W        W10750   0.292   4.690   2.061
 6551W        W10751   1.729   9.896   3.349
 6552W        W10752   1.233   6.692   2.153
 6553W        W10753   0.504   4.406   2.462
 6554W        W10754   5.699   0.798   1.282
 6555W        W10755   1.563   6.140   2.891
 6556W        W10756   0.435   8.075   2.660
 6557W        W10757   8.974   7.192   1.298
 6558W        W10758   1.698  10.866   3.333
 6559W        W10759   9.797   5.525   8.534
 6560W        W10760   0.664   7.642   2.297
 6561W        W10761   6.265   7.943   3.250
 6562W        W10762   4.342   5.395   0.274
 6563W        W10763   4.992   5.116   0.017
 6564W        W10764   6.608   0.345   9.224
 6565W        W10765   0.755   6.725  10.879
 6566W        W10766   6.509   9.126   1.944
 6567W        W10767   2.744   2.030   9.957
 6568W        W10768   5.059   8.396   9.860
 6569W        W10769   9.293   3.302   0.025
 6570W        W10770   8.363   7.970   3.582
 6571W        W10771   1.176   6.788   1.123
 6572W        W10772   8.951   2.146  11.376
 6573W        W10773   8.454   3.905   1.258
 6574W        W10774  10.127   5.900  10.276
 6575W        W10775   1.728   1.041   2.683
 6576W        W10776   4.211   4.352  10.889
 6577W        W10777   6.002  11.457   0.911
 6578W        W10778   1.067   6.248  11.561
 6579W        W10779   8.901   6.620  11.511
 6580W        W10780   5.513   6.153   0.837
 6581W        W10781   0.794   0.489  11.353
 6582W        W10782   2.689   0.266   1.457
 6583W        W10783   6.893   2.562   9.034
 6584W        W10784   7.838   9.335   2.024
 6585W        W10785   9.498   7.903   2.691
 6586W        W10786   5.538   5.704   1.506
 6587W        W10787   4.220   8.326   0.457
 6588W        W10788   7.745   6.871   0.920
 6589W        W10789   1.287   1.781   3.667
 6590W        W10790   6.156   6.212  10.563
 6591W        W10791   9.485   1.930   1.356
 6592W        W10792   2.320   3.130   0.915
 6593W        W10793   2.217   9.128   1.520
 6594W        W10794   7.140   3.834   0.252
 6595W        W10795   3.990   4.218   9.112
 6596W        W10796   2.856   0.667  11.855
 6597W        W10797   4.297  10.296   2.859
 6598W        W10798   9.536   4.899  10.974
 6599W        W10799   8.993   9.468  10.935
 6600W        W10800  11.435   2.115   8.573
 6601W        W10801   8.043  11.467  10.887
 6602W        W10802   8.659   1.762  10.399
 6603W        W10803   4.756   8.474   1.803
 6604W        W10804   8.620   0.221   9.797
 6605W        W10805   4.078   5.093   9.055
 6606W        W10806   3.188   7.229   9.406
 6607W        W10807   3.703   7.292  11.576
 6608W        W10808   5.518   7.128   0.830
 6609W        W10809   4.901   1.432   1.241
 6610W        W10810   9.460   7.018   3.774
 6611W        W10811   0.898   0.035   3.510
 6612W        W10812   3.844   9.452   9.323
 6613W        W10813  11.337   0.169   1.189
 6614W        W10814   0.912   8.751  10.822
 6615W        W10815   1.491  10.376   9.491
 6616W        W10816   6.144  10.401   2.437
 6617W        W10817   9.343  11.010   0.005
 6618W        W10818   0.408   2.210   9.259
 6619W        W10819   7.377   3.375   0.417
 6620W        W10820   2.443   4.588   8.837
 6621W        W10821   9.897   7.232   0.957
 6622W        W10822   0.476   3.770   9.012
 6623W        W10823   9.466   3.836   9.881
 6624W        W10824   8.642   1.312   0.443
 6625W        W10825   0.292   9.058   9.834
 6626W        W10826   8.039  10.331  11.813
 6627W        W10827   6.186   7.868  10.020
 6628W        W10828   2.834   0.921   0.746
 6629W        W10829   2.615   4.417   2.009
 6630W        W10830   6.041  10.137  10.766
 6631W        W10831  10.466   1.764   1.773
 6632W        W10832   0.460  11.226   2.785
 6633W        W10833   2.121   6.409   2.147
 6634W        W10834   5.399   4.071   3.105
 6635W        W10835   3.115   0.824   0.281
 6636W        W10836   7.602  10.735   3.535
 6637W        W10837   4.552   7.088   0.082
 6638W        W10838  10.824   6.579   1.676
 6639W        W10839   2.431  10.776   8.686
 6640W        W10840   6.981   6.967   1.831
 6641W        W10841   0.332   1.921   2.352
 6642W        W10842   2.651   7.034   0.981
 6643W        W10843   1.519   6.205   8.754
 6644W        W10844   6.044   9.271  10.066
 6645W        W10845   6.096   0.847   0.922
 6646W        W10846   6.159  10.175   0.690
 6647W        W10847   3.648   7.887  10.904
 6648W        W10848   7.498   4.635  11.880
 6649W        W10849   9.779   0.585  10.950
 6650W        W10850   7.069   7.887   0.507
 6651W        W10851   1.363   3.086   8.776
 6652W        W10852  10.893   9.054   1.831
 6653W        W10853   8.580   8.890  10.949
 6654W        W10854   9.054   8.898  11.779
 6655W        W10855   1.729   6.705   2.281
 6656W        W10856   7.433  10.871  11.429
 6657W        W10857   1.808   3.850   1.763
 6658W        W10858   1.516   5.694   8.946
 6659W        W10859   5.424   8.194   3.451
 6660W        W10860   9.386   9.621   0.566
 6661W        W10861   0.827   1.952   0.622
 6662W        W10862   4.819   3.877  11.344
 6663W        W10863  10.162   4.327   2.222
 6664W        W10864   8.541   0.898  11.709
 6665W        W10865   2.204   4.574  10.483
 6666W        W10866   1.091   9.031  10.249
 6667W        W10867   7.944   2.724   0.946
 6668W        W10868   2.210  11.493  10.396
 6669W        W10869   7.095   1.427   9.125
 6670W        W10870   1.036   8.479   1.260
 6671W        W10871   7.423   0.711  10.938
 6672W        W10872   6.481   8.618   2.626
 6673W        W10873  10.250   4.148  10.070
 6674W        W10874   1.496   1.502   8.864
 6675W        W10875   2.274  10.712  11.373
 6676W        W10876   0.968   0.018  11.455
 6677W        W10877   1.234   8.146  10.073
 6678W        W10878   1.882   4.004   3.524
 6679W        W10879   1.621   6.589   1.268
 6680W        W10880   1.290   6.674   8.708
 6681W        W10881   9.280   2.415   1.784
 6682W        W10882   8.427   4.118   9.811
 6683W        W10883   5.075   5.236   9.953
 6684W        W10884   0.234   4.014   0.439
 6685W        W10885   4.172   1.876   0.880
 6686W        W10886   7.067   4.255   9.086
 6687W        W10887   2.390   6.625   0.827
 6688W        W10888   7.013   4.047  10.425
 6689W        W10889   8.865   2.662  11.476
 6690W        W10890   8.981   2.681  10.105
 6691W        W10891  10.509   3.558   0.282
 6692W        W10892   4.008   4.070  11.826
 6693W        W10893   9.867   5.561   2.127
 6694W        W10894   8.017   7.141  11.308
 6695W        W10895   8.227   8.177   4.026
 6696W        W10896   8.718   5.583   9.362
 6697W        W10897   7.542   9.173   0.563
 6698W        W10898   8.026   6.519   3.239
 6699W        W10899   5.438   8.149   8.652
 6700W        W10900   0.088   4.233   1.128
 6701W        W10901   1.199   2.226   0.901
 6702W        W10902   9.936   9.238   1.326
 6703W        W10903   1.355   8.984   2.420
 6704W        W10904   3.726   1.897   0.653
 6705W        W10905   5.110   8.595  11.365
 6706W        W10906  10.894  10.385   0.344
 6707W        W10907   6.246   7.197   9.094
 6708W        W10908   0.836   6.143   0.413
 6709W        W10909   6.212   8.469   3.195
 6710W        W10910  11.282   0.786   9.517
 6711W        W10911   0.930   0.768   1.098
 6712W        W10912   7.479   8.056   1.849
 6713W        W10913   7.592  10.023   9.019
 6714W        W10914   5.255   8.775   4.139
 6715W        W10915  11.147   0.506   3.381
 6716W        W10916   6.044   3.590   0.439
 6717W        W10917   5.165  10.519   1.534
 6718W        W10918   8.512  11.295   8.789
 6719W        W10919   6.747   3.273  11.146
 6720W        W10920  10.936   3.839  11.607
 6721W        W10921   9.834  10.074  10.272
 6722W        W10922   0.437   5.756   9.071
 6723W        W10923   8.593   9.314   1.288
 6724W        W10924   7.581   2.584   9.557
 6725W        W10925   0.815   4.041   1.664
 6726W        W10926   8.722   3.640  11.469
 6727W        W10927   3.995   7.712   2.695
 6728W        W10928   5.764  11.356  11.342
 6729W        W10929   7.065   7.342   0.362
 6730W        W10930   7.443   1.820   9.051
 6731W        W10931   8.824   0.205   9.300
 6732W        W10932   7.423   9.243   8.967
 6733W        W10933   4.246  10.802   2.699
 6734W        W10934  11.206   2.396   0.970
 6735W        W10935   3.129   2.210   3.319
 6736W        W10936  10.931   9.278   1.375
 6737W        W10937   1.394   3.787  11.995
 6738W        W10938   1.600   1.273   8.377
 6739W        W10939   2.798   0.219   9.424
 6740W        W10940   8.440   2.723   9.036
 6741W        W10941   7.025  10.771   9.909
 6742W        W10942   2.404   2.743   2.169
 6743W        W10943   9.124   1.928   1.754
 6744W        W10944   1.583   5.658   9.759
 6745W        W10945   2.036   8.125  10.583
 6746W        W10946   1.064   6.117  10.174
 6747W        W10947  11.181   4.024   3.504
 6748W        W10948   7.462   5.666  10.283
 6749W        W10949   7.928   6.060   2.950
 6750W        W10950   7.705   4.693   8.630
 6751W        W10951   9.412   9.054   1.351
 6752W        W10952   4.007   4.638   3.205
 6753W        W10953   3.169   6.708   9.458
 6754W        W10954   7.815   1.823   0.427
 6755W        W10955   9.299   3.714   0.714
 6756W        W10956  10.543   1.682  10.519
 6757W        W10957   4.150   4.726   1.897
 6758W        W10958   8.039  11.057   2.348
 6759W        W10959   4.687   2.178   2.983
 6760W        W10960   1.721  10.687   0.609
 6761W        W10961   1.972   2.736   0.010
 6762W        W10962  10.683   9.520   1.755
 6763W        W10963  10.923   5.495   9.132
 6764W        W10964   9.839   5.608   2.631
 6765W        W10965   2.800   4.615   8.043
 6766W        W10966  10.152   5.124   9.694
 6767W        W10967   4.335   7.330  10.008
 6768W        W10968   4.257   3.725   1.564
 6769W        W10969   7.949   2.635   1.963
 6770W        W10970   6.131   4.569   2.212
 6771W        W10971   2.924   4.893  10.393
 6772W        W10972   0.689   6.177   9.797
 6773W        W10973   5.170   8.175   0.688
 6774W        W10974   5.218   9.635   9.542
 6775W        W10975   3.815   4.157   9.614
 6776W        W10976  11.052   9.771  10.889
 6777W        W10977   7.028   6.908   2.808
 6778W        W10978   3.346   7.436   2.165
 6779W        W10979   3.724   5.776   0.971
 6780W        W10980   8.725   5.972   0.322
 6781W        W10981   0.279  10.338   0.483
 6782W        W10982   0.239   6.199  11.696
 6783W        W10983   1.679   7.641   9.490
 6784W        W10984   5.124   8.434  10.878
 6785W        W10985   7.528   5.652   0.690
 6786W        W10986  10.824   8.142  10.631
 6787W        W10987   5.714   2.859   0.876
 6788W        W10988  10.666   4.349   2.277
 6789W        W10989  11.032   1.405  11.149
 6790W        W10990   3.740   7.429  10.599
 6791W        W10991   1.323   1.973  10.753
 6792W        W10992   6.729  11.205  11.252
 6793W        W10993   4.110   1.215   9.927
 6794W        W10994   5.820   2.551   0.471
 6795W        W10995   0.017   0.332   2.649
 6796W        W10996   4.309  10.650   1.464
 6797W        W10997   6.971   7.529  10.308
 6798W        W10998   5.782   5.733   3.017
 6799W        W10999   6.820   1.654  10.359
 6800W        W11000   8.852  11.034  10.385
 6801W        W11001   8.436   9.026   0.908
 6802W        W11002  10.926   3.156   2.496
 6803W        W11003   1.828   3.151  11.452
 6804W        W11004   6.238  11.426   9.334
 6805W        W11005   0.854   5.411   0.271
 6806W        W11006   9.956   7.972  11.433
 6807W        W11007   9.732   5.639   3.115
 6808W        W11008   5.653   7.658  11.974
 6809W        W11009   5.123   9.680   2.823
 6810W        W11010   5.253   0.613   8.687
 6811W        W11011   4.087   9.019   9.509
 6812W        W11012   5.160   9.947   0.260
 6813W        W11013  10.810   6.128   1.440
 6814W        W11014   9.619   3.932   0.364
 6815W        W11015   9.878   5.798   1.686
 6816W        W11016   9.118   4.669   1.844
 6817W        W11017   5.410   3.296   3.539
 6818W        W11018   4.112   5.515   1.239
 6819W        W11019   1.700   2.791   9.066
 6820W        W11020   7.846   1.325   0.770
 6821W        W11021  11.051   0.273   2.381
 6822W        W11022   0.371  10.489   1.982
 6823W        W11023   2.134   8.942  10.531
 6824W        W11024   9.959   9.114  10.099
 6825W        W11025   0.871   8.207   3.023
 6826W        W11026   2.409   4.829   2.291
 6827W        W11027   6.956   5.280  11.043
 6828W        W11028   5.781   8.105   3.099
 6829W        W11029   1.813   4.263   2.647
 6830W        W11030   9.863   9.039  10.591
 6831W        W11031  10.914   2.375   1.460
 6832W        W11032   8.840   0.663  11.189
 6833W        W11033   2.250   6.178   8.816
 6834W        W11034   0.662   0.941   0.656
 6835W        W11035  10.055   3.233  10.279
 6836W        W11036   8.039   2.679   1.448
 6837W        W11037   0.157   9.310  11.329
 6838W        W11038   4.983   9.270   8.056
 6839W        W11039   6.182   2.845  10.783
 6840W        W11040   8.443   2.184  10.230
 6841W        W11041   8.409  11.445  11.949
 6842W        W11042   6.706  10.244   1.700
 6843W        W11043   6.432   7.642   9.525
 6844W        W11044   8.444   2.902   1.042
 6845W        W11045   7.468   1.420   2.848
 6846W        W11046   9.708   5.792  11.718
 6847W        W11047   3.189   3.850   1.661
 6848W        W11048   4.541   9.787  11.863
 6849W        W11049   2.309   4.362   1.334
 6850W        W11050   8.860   7.161  10.739
 6851W        W11051   5.398   1.458   9.754
 6852W        W11052   4.264   0.707   9.917
 6853W        W11053   6.172   0.752   2.994
 6854W        W11054   1.933   8.541   2.752
 6855W        W11055   7.059   1.407   3.192
 6856W        W11056   8.495   2.231   2.236
 6857W        W11057   7.238   6.654  10.831
 6858W        W11058  11.304  10.333   9.032
 6859W        W11059   4.434   2.311   0.761
 6860W        W11060   8.742   6.076   9.466
 6861W        W11061   1.442   3.667   9.473
 6862W        W11062  11.214   5.709   8.526
 6863W        W11063   7.445  10.003   0.919
 6864W        W11064  11.443   1.765   9.612
 6865W        W11065   1.676   5.624   2.149
 6866W        W11066   0.984   8.977   3.459
 6867W        W11067  11.364   1.247   9.299
 6868W        W11068  10.874   7.592  11.280
 6869W        W11069   0.713   5.750   9.507
 6870W        W11070   4.475   6.103  11.750
 6871W        W11071   9.320   1.184   0.941
 6872W        W11072   1.433   8.482  11.004
 6873W        W11073   1.320   1.134   3.103
 6874W        W11074   9.752  10.876   8.410
 6875W        W11075   0.789   7.497   8.942
 6876W        W11076   8.997   3.893   2.936
 6877W        W11077  10.523   3.567  11.777
 6878W        W11078   7.105   4.646   0.457
 6879W        W11079  10.852   6.656   2.163
 6880W        W11080   1.312  11.140   3.517
 6881W        W11081   8.474   4.853   1.267
 6882W        W11082   8.721   3.811   9.506
 6883W        W11083   1.832   1.842   9.026
 6884W        W11084   8.099  10.954   8.845
 6885W        W11085   7.856   9.582   9.199
 6886W        W11086   5.975   6.078   0.579
 6887W        W11087   9.370  10.157  10.460
 6888W        W11088   0.828   7.387   3.302
 6889W        W11089   2.792   8.827   9.064
 6890W        W11090   9.536   8.209  11.262
 6891W        W11091   1.208   7.562   1.518
 6892W        W11092   1.348   3.346  11.181
 6893W        W11093   6.157   8.622   1.373
 6894W        W11094   1.484  11.356   3.103
 6895W        W11095   8.654   0.469  10.289
 6896W        W11096  10.476   2.128   0.474
 6897W        W11097   9.412   5.895   1.503
 6898W        W11098  10.883   6.685  11.612
 6899W        W11099   1.839   3.174   9.455
 6900W        W11100   5.944  10.717  10.895
 6901W        W11101   2.159  10.324   2.234
 6902W        W11102   2.281   2.703  10.379
 6903W        W11103   8.528   9.800  10.830
 6904W        W11104   6.427   1.508  10.000
 6905W        W11105  11.449   0.810   1.695
 6906W        W11106   0.438   2.266  11.361
 6907W        W11107   8.130   1.291  11.133
 6908W        W11108   9.640   6.048   2.846
 6909W        W11109   7.048   2.765   3.553
 6910W        W11110   9.621   1.899  10.288
 6911W        W11111   1.851   7.067   0.498
 6912W        W11112   5.099   2.751   3.655
 6913W        W11113   4.817   6.183   9.725
 6914W        W11114   8.000   3.839   2.483
 6915W        W11115   4.620   1.112   9.897
 6916W        W11116   8.341   2.721  11.493
 6917W        W11117   2.762   5.823  11.265
 6918W        W11118   8.404   0.057   1.603
 6919W        W11119   3.817   0.009   1.264
 6920W        W11120  11.372  10.628   0.276
 6921W        W11121   5.804   0.696   0.495
 6922W        W11122   1.800   4.263  10.428
 6923W        W11123   5.126   4.782  10.750
 6924W        W11124  10.595   1.746   0.791
 6925W        W11125   3.620  11.177   0.916
 6926W        W11126   0.041   4.711  10.455
 6927W        W11127   6.221   9.598   1.268
 6928W        W11128  11.439   7.749   9.089
 6929W        W11129   4.539   6.486  10.996
 6930W        W11130   5.187  10.368   2.035
 6931W        W11131   1.471   7.604   2.543
 6932W        W11132   5.998   7.689   1.266
 6933W        W11133   7.324   5.811   0.247
 6934W        W11134   0.244   7.270   2.285
 6935W        W11135   6.077   7.052  11.078
 6936W        W11136   9.592   0.940  10.162
 6937W        W11137   9.933   9.633  10.057
 6938W        W11138   0.944   3.881   8.791
 6939W        W11139   0.752  10.747   9.304
 6940W        W11140   8.648   7.916   2.610
 6941W        W11141  11.188   9.633  11.366
 6942W        W11142   3.354   3.793  11.316
 6943W        W11143  10.438   2.625   0.319
 6944W        W11144   5.706   7.058   2.990
 6945W        W11145   7.220   2.182   2.264
 6946W        W11146   2.509   5.025   7.928
 6947W        W11147  10.011   2.381   2.414
 6948W        W11148   9.595   5.159   2.209
 6949W        W11149   5.253  10.975   1.313
 6950W        W11150   4.452   2.773   8.727
 6951W        W11151   0.047   4.576  11.849
 6952W        W11152   8.971   3.385   0.520
 6953W        W11153   7.550  10.826  10.105
 6954W        W11154   8.915   4.300   9.385
 6955W        W11155  10.306   3.194   1.841
 6956W        W11156   7.400   6.480   0.770
 6957W        W11157  11.069   5.747   1.219
 6958W        W11158   3.286   5.211  10.525
 6959W        W11159  10.703   5.508   2.682
 6960W        W11160  11.453   9.363   8.569
 6961W        W11161   5.076   4.068   0.940
 6962W        W11162   9.062   6.921   8.576
 6963W        W11163   7.342   4.815   0.891
 6964W        W11164   3.136   1.865  11.240
 6965W        W11165  11.043   5.175   2.496
 6966W        W11166   3.595   4.557   1.700
 6967W        W11167   0.741   2.392   1.007
 6968W        W11168   2.680   6.608   1.279
 6969W        W11169   2.147   3.621   3.277
 6970W        W11170   5.719   1.067   9.975
 6971W        W11171   9.580   8.089   2.226
 6972W        W11172   8.060   1.675  11.499
 6973W        W11173  10.430   8.388   9.954
 6974W        W11174   0.406   7.494   9.819
 6975W        W11175   7.216   8.489  10.525
 6976W        W11176  11.421   9.266   1.562
 6977W        W11177  10.440  11.484   8.913
 6978W        W11178   5.132   1.668  11.969
 6979W        W11179  11.057   2.446   3.117
 6980W        W11180   7.861  10.751   9.662
 6981W        W11181   7.434   5.306  11.256
 6982W        W11182   1.715   9.999  11.068
 6983W        W11183  10.485   3.610   2.204
 6984W        W11184  11.263   6.063   9.610
 6985W        W11185   4.190   4.091   2.324
 6986W        W11186   7.966   5.161   8.714
 6987W        W11187   3.234   5.819  11.059
 6988W        W11188   5.994  10.972   9.153
 6989W        W11189   7.338   6.239  11.503
 6990W        W11190   3.239   5.632   1.046
 6991W        W11191   0.755   1.672   1.510
 6992W        W11192   7.474   4.583   9.089
 6993W        W11193   1.156   0.757   3.443
 6994W        W11194   6.903   8.378   2.466
 6995W        W11195   5.603   9.140   9.829
 6996W        W11196   3.009   2.855  11.461
 6997W        W11197   8.602   8.305   8.641
 6998W        W11198   6.014   3.339  10.771
 6999W        W11199  11.496   9.834   9.762
 7000W        W11200   8.474   3.700   9.057
 7001W        W11201   2.310   0.752  11.354
 7002W        W11202   0.294  11.339  11.315
 7003W        W11203   5.328   2.651  10.305
 7004W        W11204   7.974   8.436   0.353
 7005W        W11205   8.788   8.181   3.368
 7006W        W11206   0.042   5.127  10.762
 7007W        W11207   0.541   7.058   9.526
 7008W        W11208   0.776   6.203   9.256
 7009W        W11209   9.357   2.196  10.622
 7010W        W11210   8.620  10.581   0.046
 7011W        W11211   4.191   5.723  10.780
 7012W        W11212   4.829   1.166   0.246
 7013W        W11213  10.926   8.356   3.551
 7014W        W11214   1.548   8.973   9.372
 7015W        W11215   6.081   4.447  10.456
 7016W        W11216  10.405  10.024   9.012
 7017W        W11217  10.434   9.961   1.364
 7018W        W11218   0.402   3.150  11.259
 7019W        W11219   7.632   0.827   1.210
 7020W        W11220   3.356   2.178   2.791
 7021W        W11221   0.592   1.841  10.457
 7022W        W11222   4.701   4.201   3.616
 7023W        W11223   3.063  11.450  11.867
 7024W        W11224   1.136   6.318   2.627
 7025W        W11225   4.744   6.770   8.700
 7026W        W11226   2.526   8.365   2.555
 7027W        W11227   2.352   5.530   9.586
 7028W        W11228   1.349   4.055   1.417
 7029W        W11229   0.015   4.816   8.795
 7030W        W11230   2.390   3.581   0.256
 7031W        W11231   6.992   3.626  10.825
 7032W        W11232   2.651   7.489   1.625
 7033W        W11233   4.571   2.250   1.671
 7034W        W11234   3.665   9.011   1.525
 7035W        W11235   3.929   8.604   9.777
 7036W        W11236  11.410   6.499   1.309
 7037W        W11237   6.959   0.233   1.656
 7038W        W11238   7.219   3.650   1.386
 7039W        W11239  11.055   1.767  10.510
 7040W        W11240   9.614   0.508  10.457
 7041W        W11241   5.453   4.828   3.406
 7042W        W11242   5.739   0.456   3.032
 7043W        W11243   4.167   7.776   0.337
 7044W        W11244   7.917   0.276   2.856
 7045W        W11245   9.375   8.668   0.963
 7046W        W11246   6.003   9.496   2.461
 7047W        W11247   9.274   7.228  10.394
 7048W        W11248   4.654  10.466   3.274
 7049W        W11249   3.114   1.280   2.351
 7050W        W11250  10.919   9.800   1.383
 7051W        W11251   8.431   7.488   3.384
 7052W        W11252  10.705   2.283   0.969
 7053W        W11253   8.122   1.411   0.355
 7054W        W11254   8.516  10.824   2.291
 7055W        W11255   0.224   9.434   3.152
 7056W        W11256   8.904   3.246   1.598
 7057W        W11257   6.002   2.489   1.650
 7058W        W11258   4.300   1.936  11.059
 7059W        W11259   6.714   6.593   0.230
 7060W        W11260   1.394   0.681   3.879
 7061W        W11261   2.540   5.302   0.747
 7062W        W11262   3.932   4.056   3.350
 7063W        W11263   3.752   3.645  10.336
 7064W        W11264   5.232  10.466   9.829
 7065W        W11265   0.694   9.999  11.376
 7066W        W11266   9.103  10.679  11.191
 7067W        W11267   7.951   7.480  11.695
 7068W        W11268   8.220   8.347  11.906
 7069W        W11269  10.841   1.950   3.210
 7070W        W11270  11.383   7.038  10.819
 7071W        W11271   4.329   8.938  11.869
 7072W        W11272   5.012  11.247  10.123
 7073W        W11273   5.222   0.401  10.742
 7074W        W11274   3.711   5.470   9.399
 7075W        W11275   6.873   8.047   1.536
 7076W        W11276   2.985   7.972   3.357
 7077W        W11277   1.889   9.870   2.289
 7078W        W11278   2.927   6.019   1.153
 7079W        W11279   1.851   1.337   1.831
 7080W        W11280   6.053   9.097  10.566
 7081W        W11281   6.073   1.767  11.982
 7082W        W11282   7.573   3.814   2.207
 7083W        W11283   7.585   2.649  10.063
 7084W        W11284   1.804   4.223   2.119
 7085W        W11285  11.008   3.356  11.423
 7086W        W11286  10.740  11.421  10.331
 7087W        W11287   2.588   6.515   0.348
 7088W        W11288  10.542   7.718  10.577
 7089W        W11289   2.275   3.611   0.758
 7090W        W11290   5.935   3.711   8.466
 7091W        W11291   5.278   2.243   0.998
 7092W        W11292   6.931   9.512   8.985
 7093W        W11293  10.584   3.756   9.303
 7094W        W11294   3.382   6.110   2.375
 7095W        W11295   7.225   6.371   0.213
 7096W        W11296   2.918   6.403  10.408
 7097W        W11297   2.696   6.588   3.166
 7098W        W11298   6.776   3.686   3.063
 7099W        W11299   5.160   4.187  10.027
 7100W        W11300   9.658   0.992  10.682
 7101W        W11301   9.030  10.345  10.808
 7102W        W11302   0.977   4.151  11.998
 7103W        W11303   8.020   6.097   3.513
 7104W        W11304   9.290   6.946   9.183
 7105W        W11305   9.467   0.546   2.556
 7106W        W11306   4.978   8.865   9.027
 7107W        W11307   3.365   0.890   0.723
 7108W        W11308   6.670   6.142  10.442
 7109W        W11309   5.707   9.418   1.236
 7110W        W11310   3.818  10.298  11.361
 7111W        W11311   2.572   0.467   2.548
 7112W        W11312   9.478  11.338  11.225
 7113W        W11313   9.572   5.092   3.176
 7114W        W11314   7.579   7.278   1.185
 7115W        W11315   6.554   8.996   1.418
 7116W        W11316   1.403   9.895   2.487
 7117W        W11317  11.347   9.049   9.581
 7118W        W11318   6.591   1.587   0.035
 7119W        W11319   0.355   9.938   2.403
 7120W        W11320   3.337   8.090  11.607
 7121W        W11321   2.758   5.549   9.189
 7122W        W11322  10.130   3.279   0.501
 7123W        W11323   3.507   4.816   3.138
 7124W        W11324   7.924   2.234   0.689
 7125W        W11325   2.196   0.000   8.852
 7126W        W11326   1.291   4.499   9.426
 7127W        W11327   1.863   1.287   9.793
 7128W        W11328   8.172   6.214  10.118
 7129W        W11329   4.083   8.680   1.386
 7130W        W11330   1.509   4.795   9.804
 7131W        W11331   6.140   4.104   9.659
 7132W        W11332   7.212   5.148   0.545
 7133W        W11333   9.914   7.303   3.278
 7134W        W11334   3.053   8.077   0.835
 7135W        W11335   8.457   8.488  11.267
 7136W        W11336   3.700   6.311   0.853
 7137W        W11337   8.378   6.996   2.837
 7138W        W11338  10.874   8.388   2.378
 7139W        W11339   0.504   7.993   1.680
 7140W        W11340  10.252   1.298  11.834
 7141W        W11341   5.264   2.798  11.069
 7142W        W11342  11.410   3.139   1.654
 7143W        W11343   7.636   7.427   9.094
 7144W        W11344   7.588  10.895   9.050
 7145W        W11345   4.799   1.851   1.915
 7146W        W11346   2.352  10.747  10.016
 7147W        W11347   2.823   6.288  11.476
 7148W        W11348  11.287   3.750  10.914
 7149W        W11349   8.458   2.632   3.021
 7150W        W11350   8.621   8.712   1.287
 7151W        W11351   5.626   8.582   2.809
 7152W        W11352   1.734   0.340  11.977
 7153W        W11353   2.331   7.395   2.300
 7154W        W11354   2.155   8.872  11.519
 7155W        W11355   5.659   7.079  10.647
 7156W        W11356   0.975   1.350  10.939
 7157W        W11357   0.259   8.929   3.267
 7158W        W11358   1.310   9.945   9.760
 7159W        W11359   2.218   9.907   0.302
 7160W        W11360  10.535   7.933   9.669
 7161W        W11361   2.665   2.641  10.772
 7162W        W11362   6.127   6.194   8.742
 7163W        W11363   0.076   2.343   2.256
 7164W        W11364  11.409   4.741   1.294
 7165W        W11365   9.907  11.315   8.995
 7166W        W11366   6.197   9.842   0.297
 7167W        W11367   6.009   7.003   9.514
 7168W        W11368   4.652   4.941   2.328
 7169W        W11369   7.959  11.136   9.317
 7170W        W11370   8.943   1.568  11.702
 7171W        W11371   5.283  10.540   2.834
 7172W        W11372   3.883   5.110   0.492
 7173W        W11373   3.045   0.038   3.264
 7174W        W11374   6.935   8.884   1.763
 7175W        W11375  10.447   2.889  10.260
 7176W        W11376   4.465   7.963  10.544
 7177W        W11377  10.899  10.816   8.626
 7178W        W11378   9.505   3.784   2.159
 7179W        W11379   0.108   3.292   3.231
 7180W        W11380   0.414   6.122   1.364
 7181W        W11381   4.342  10.907   9.826
 7182W        W11382   2.855   1.159  11.950
 7183W        W11383   7.382   9.873   3.211
 7184W        W11384   5.240   7.851   9.026
 7185W        W11385   6.703   8.608  10.554
 7186W        W11386   9.116  10.937   2.990
 7187W        W11387   2.159   9.498   3.387
 7188W        W11388  10.067   4.855   1.377
 7189W        W11389  10.475   8.068   2.476
 7190W        W11390   6.170   4.700  11.266
 7191W        W11391   6.552  10.017   9.885
 7192W        W11392   4.658   6.735   0.907
 7193W        W11393   2.989   1.770   3.547
 7194W        W11394   1.688   1.821  11.086
 7195W        W11395   3.794  10.304   3.015
 7196W        W11396   1.297   7.345  11.798
 7197W        W11397   3.895   6.059   2.338
 7198W        W11398   8.620   2.932  11.857
 7199W        W11399   9.041   9.405  10.420
 7200W        W11400   8.521   8.551   0.286
 7201W        W11401   0.268   8.535   9.329
 7202W        W11402   0.843   3.233   0.498
 7203W        W11403   9.118   2.671   9.596
 7204W        W11404   9.296   0.245   2.956
 7205W        W11405   6.501   9.456   9.833
 7206W        W11406   9.323   1.056   3.439
 7207W        W11407   7.009   8.450   0.426
 7208W        W11408   5.598   9.499   2.770
 7209W        W11409  11.382   8.087   3.557
 7210W        W11410   1.449   5.715  10.724
 7211W        W11411   6.959   0.118   2.668
 7212W        W11412   0.495  10.754   2.595
 7213W        W11413   8.681   2.241   3.237
 7214W        W11414  11.412   7.970  10.836
 7215W        W11415   9.132  11.203   1.186
 7216W        W11416   5.260   3.226   8.240
 7217W        W11417  10.265   4.606   9.814
 7218W        W11418   4.666   6.699   3.433
 7219W        W11419   8.526   7.291   0.897
 7220W        W11420   5.551   4.519   1.398
 7221W        W11421   2.794   2.089   1.388
 7222W        W11422   9.533   9.357   9.881
 7223W        W11423   3.290   0.419  11.975
 7224W        W11424   9.375   3.201   0.760
 7225W        W11425   7.808   3.166  10.073
 7226W        W11426   7.000   7.949   1.040
 7227W        W11427   9.446   0.739   0.726
 7228W        W11428   5.684  10.602   8.894
 7229W        W11429  10.760   4.113   1.435
 7230W        W11430   9.949   6.240   0.936
 7231W        W11431   5.266   4.862   1.168
 7232W        W11432   1.340   1.182  11.547
 7233W        W11433   9.831  10.350   2.497
 7234W        W11434   3.645   6.545  11.463
 7235W        W11435  10.152   4.266   1.346
 7236W        W11436   3.148   0.018   2.723
 7237W        W11437   0.672   9.426   9.407
 7238W        W11438   2.119  11.447  10.916
 7239W        W11439  10.430   1.392  10.094
 7240W        W11440   5.221   8.371  10.350
 7241W        W11441   6.181  10.805  10.105
 7242W        W11442   7.633  10.446   9.323
 7243W        W11443   0.414   9.055   1.728
 7244W        W11444  10.448   1.898   2.776
 7245W        W11445   8.522   1.998   8.492
 7246W        W11446   4.733   0.546  11.988
 7247W        W11447  10.291   9.473   2.114
 7248W        W11448   4.774   0.949   1.139
 7249W        W11449   8.478   3.251   0.294
 7250W        W11450   8.327   7.966   2.229
 7251W        W11451   0.676   8.632   3.215
 7252W        W11452   3.734   8.555   3.982
 7253W        W11453   5.866   4.978   3.099
 7254W        W11454   2.307   2.140   2.910
 7255W        W11455   5.245  10.822   0.120
 7256W        W11456  10.421   6.918   9.896
 7257W        W11457   3.209   6.540  11.727
 7258W        W11458   3.606   7.016   1.943
 7259W        W11459   6.475   5.264   0.868
 7260W        W11460   4.648   7.683   9.807
 7261W        W11461   2.034   2.730   0.871
 7262W        W11462   1.700   9.132   1.636
 7263W        W11463   5.121   4.313  10.984
 7264W        W11464   6.388   7.115   3.584
 7265W        W11465   0.510   7.191  10.812
 7266W        W11466   5.629   2.105   0.640
 7267W        W11467   5.485   8.984   9.000
 7268W        W11468   8.632   0.832   0.276
 7269W        W11469   0.739   6.740   0.873
 7270W        W11470   1.208   6.977   0.659
 7271W        W11471   9.688   8.176   9.439
 7272W        W11472   0.106   3.072   1.194
 7273W        W11473   2.779   1.639   2.237
 7274W        W11474   8.499   5.626   8.384
 7275W        W11475   8.592   8.451  10.667
 7276W        W11476   0.610   7.213   1.007
 7277W        W11477   2.142   9.688   9.782
 7278W        W11478   7.704   6.367  11.067
 7279W        W11479   5.149   0.004   1.260
 7280W        W11480   2.368   6.076   2.417
 7281W        W11481  10.019   9.486   2.981
 7282W        W11482   5.532   7.071   2.001
 7283W        W11483   3.610   6.942   9.342
 7284W        W11484   6.984   0.360   3.320
 7285W        W11485   4.798   2.223   9.051
 7286W        W11486   2.331   3.850   1.315
 7287W        W11487  10.948   3.757   1.065
 7288W        W11488   0.372   4.971   0.492
 7289W        W11489   4.103  10.676  11.512
 7290W        W11490   0.804   0.996  11.280
 7291W        W11491   6.339   2.588   8.193
 7292W        W11492   3.666   7.517   1.775
 7293W        W11493   0.828   5.098  11.392
 7294W        W11494   3.166  10.932   0.449
 7295W        W11495   4.350   4.982   0.579
 7296W        W11496   1.521  10.963   9.903
 7297W        W11497   3.892   2.786  11.612
 7298W        W11498   5.297   3.918  10.451
 7299W        W11499   6.629   4.746   2.144
 7300W        W11500   6.575   7.692   2.790
 7301W        W11501   8.977   6.699   9.967
 7302W        W11502   8.121  11.248  11.375
 7303W        W11503   7.547   3.277   3.308
 7304W        W11504   9.373   1.780   8.744
 7305W        W11505   3.052   0.948  10.606
 7306W        W11506   1.812   5.213   1.396
 7307W        W11507   8.835   5.366  11.623
 7308W        W11508   6.215   1.949   9.836
 7309W        W11509   2.885   7.887   8.970
 7310W        W11510   9.559   2.286   2.704
 7311W        W11511   8.627   6.303   8.195
 7312W        W11512   7.892   4.852   9.095
 7313W        W11513   4.744   8.496   2.317
 7314W        W11514   9.570   3.726   3.459
 7315W        W11515   0.390  10.079  10.000
 7316W        W11516   4.805   0.969   3.761
 7317W        W11517   6.377   2.942   2.792
 7318W        W11518   2.056   3.519   2.689
 7319W        W11519   1.432   7.951   1.755
 7320W        W11520   3.110   6.521   0.258
 7321W        W11521   4.327   0.554   1.941
 7322W        W11522   7.046   2.347   0.783
 7323W        W11523   1.679   8.408   0.555
 7324W        W11524   0.045   2.023   0.934
 7325W        W11525   5.563   2.754   3.860
 7326W        W11526   6.576   3.395  11.613
 7327W        W11527   5.579   4.584   8.278
 7328W        W11528   7.437   8.868   0.945
 7329W        W11529   0.459   9.608  11.931
 7330W        W11530   5.767   1.353   9.368
 7331W        W11531   5.548   2.362   9.867
 7332W        W11532   0.865   5.501  11.760
 7333W        W11533   3.626  10.872   0.195
 7334W        W11534   5.288   9.806  10.379
 7335W        W11535   8.881   9.386  11.924
 7336W        W11536  10.794   3.706   8.843
 7337W        W11537   4.242   7.721   2.266
 7338W        W11538   9.550   6.450   2.554
 7339W        W11539   4.478   8.482  11.699
 7340W        W11540   4.079   5.547   0.697
 7341W        W11541  11.313   8.985   0.972
 7342W        W11542   3.033   9.807   8.370
 7343W        W11543   4.155   1.982   3.133
 7344W        W11544  11.319   1.961   2.994
 7345W        W11545   0.496   3.589   0.449
 7346W        W11546   8.915   3.737   1.429
 7347W        W11547   0.849  10.526  10.536
 7348W        W11548   7.689   1.926  10.643
 7349W        W11549   3.128  11.030   0.952
 7350W        W11550   0.756   4.110   3.651
 7351W        W11551   1.713  11.332   9.589
 7352W        W11552   1.116   1.299   0.820
 7353W        W11553   4.318   4.600   8.930
 7354W        W11554   3.659   3.184   0.413
 7355W        W11555   8.138   7.572   9.746
 7356W        W11556   2.218  10.286  11.027
 7357W        W11557   1.897   3.790   0.257
 7358W        W11558  10.863   3.584  10.661
 7359W        W11559   3.670  10.813   3.372
 7360W        W11560   9.434   1.837   2.227
 7361W        W11561   3.284   0.631  10.011
 7362W        W11562  11.489  11.311   1.508
 7363W        W11563   2.289   2.721   0.426
 7364W        W11564  11.358   8.871  10.078
 7365W        W11565   4.677   6.037   4.047
 7366W        W11566   6.441  10.841  11.043
 7367W        W11567   6.702   5.604  11.592
 7368W        W11568   7.875   2.209   9.765
 7369W        W11569  11.115   3.733   9.255
 7370W        W11570  10.847   4.951   0.335
 7371W        W11571   2.513   9.205  11.714
 7372W        W11572   1.625   5.438   8.492
 7373W        W11573   0.949   9.550   2.920
 7374W        W11574   1.888   7.894   1.542
 7375W        W11575   1.877   5.638   1.094
 7376W        W11576   1.899   7.518   0.733
 7377W        W11577   3.847   3.612   2.525
 7378W        W11578   6.139   9.511   1.957
 7379W        W11579   7.636   4.557   3.744
 7380W        W11580   1.240   6.665   1.625
 7381W        W11581   9.872  10.514   0.276
 7382W        W11582   1.903   4.657   1.405
 7383W        W11583   1.611   5.675  11.209
 7384W        W11584   9.369  10.328   9.975
 7385W        W11585   2.762   5.529   1.207
 7386W        W11586   5.627   7.582   2.687
 7387W        W11587   0.997   4.149  10.548
 7388W        W11588   9.530   4.394   1.817
 7389W        W11589   2.669  10.273   9.531
 7390W        W11590   5.391   4.264   1.886
 7391W        W11591   0.524   1.645   1.973
 7392W        W11592   3.703   1.815   2.622
 7393W        W11593   0.874   0.700   1.673
 7394W        W11594   2.328   7.067   8.541
 7395W        W11595   8.272   5.391  11.844
 7396W        W11596  10.389   2.106   9.578
 7397W        W11597   1.154   5.830   2.870
 7398W        W11598   6.099   2.640   2.115
 7399W        W11599   3.561   5.183   8.980
 7400W        W11600   8.033   5.708   3.848
 7401W        W11601   2.380   5.985   3.290
 7402W        W11602  11.018   8.279   0.807
 7403W        W11603   4.441   0.413   3.297
 7404W        W11604   9.228   0.465   1.650
 7405W        W11605   5.552   4.065  10.858
 7406W        W11606   9.603   7.391   2.697
 7407W        W11607   0.043  10.244   9.478
 7408W        W11608   5.947  10.309   0.227
 7409W        W11609   2.935  10.044   2.621
 7410W        W11610   1.801   7.239   2.314
 7411W        W11611   1.432   8.647  10.088
 7412W        W11612   8.993   5.167   9.352
 7413W        W11613   4.076  10.820   9.406
 7414W        W11614   6.364   8.006   1.544
 7415W        W11615  10.375   4.676   0.374
 7416W        W11616   7.341   5.651   2.454
 7417W        W11617   3.276   8.203  10.594
 7418W        W11618   2.701   0.928   3.434
 7419W        W11619  10.545   9.437   3.097
 7420W        W11620   6.621   3.729  10.441
 7421W        W11621   3.245   6.951   8.978
 7422W        W11622   8.353   0.296   8.407
 7423W        W11623   3.732   2.760   0.671
 7424W        W11624   2.523  11.381   3.339
 7425W        W11625  11.142   7.914   9.829
 7426W        W11626   5.014   3.116   2.377
 7427W        W11627   6.734   9.799  10.418
 7428W        W11628   3.524   4.459   9.332
 7429W        W11629  11.111   8.809   1.427
 7430W        W11630   3.108  10.895   1.542
 7431W        W11631   6.953  11.129   9.512
 7432W        W11632   6.372   9.376   0.447
 7433W        W11633   8.312   9.958   1.710
 7434W        W11634   4.928   3.758  11.835
 7435W        W11635   7.674   1.816  10.122
 7436W        W11636   3.613  10.956   1.695
 7437W        W11637   0.345   4.302   8.820
 7438W        W11638   4.708   5.696   0.054
 7439W        W11639  10.771   0.787   9.416
 7440W        W11640   1.202  11.351   9.816
 7441W        W11641   2.382   8.852   2.484
 7442W        W11642  10.566   4.222   0.981
 7443W        W11643   0.177   2.201  11.842
 7444W        W11644   2.916   2.673   0.012
 7445W        W11645  10.811   5.249   8.508
 7446W        W11646   7.597   8.136  11.727
 7447W        W11647   0.596   5.111   1.844
 7448W        W11648   2.226   3.829  11.851
 7449W        W11649  10.318   0.971  11.444
 7450W        W11650  11.368  10.081  11.149
 7451W        W11651  10.445  11.332   3.436
 7452W        W11652   6.997   1.878   3.530
 7453W        W11653   2.979   2.108   2.238
 7454W        W11654   8.177   9.894   2.778
 7455W        W11655   3.293   9.616  10.310
 7456W        W11656  10.658   0.275   3.202
 7457W        W11657   3.261   4.105   0.845
 7458W        W11658   4.113   6.958   1.958
 7459W        W11659  11.055  10.691   9.984
 7460W        W11660   5.135   7.237  11.489
 7461W        W11661   8.152  10.943   3.265
 7462W        W11662   2.211   5.109   8.650
 7463W        W11663  10.711   0.281   8.551
 7464W        W11664   5.568   7.242   3.771
 7465W        W11665  10.511   5.459   8.846
 7466W        W11666   2.955   2.695   3.372
 7467W        W11667  10.759   9.281  11.624
 7468W        W11668  10.365   5.575   3.079
 7469W        W11669   8.101  10.274   9.603
 7470W        W11670   1.803  10.066   9.732
 7471W        W11671   5.573   4.559   3.855
 7472W        W11672   4.697   9.304  11.742
 7473W        W11673   7.531   4.715   2.244
 7474W        W11674   7.119   8.444   9.229
 7475W        W11675   1.026   4.853   3.615
 7476W        W11676   1.573   8.166   3.494
 7477W        W11677   4.016   7.601  11.870
 7478W        W11678   9.178   3.678  11.684
 7479W        W11679   5.662   0.394   9.473
 7480W        W11680   8.606   7.972  11.524
 7481W        W11681  11.339  10.039   1.134
 7482W        W11682  11.364   8.275   9.056
 7483W        W11683   3.436  10.315   1.111
 7484W        W11684   1.865   8.360   1.023
 7485W        W11685   1.264   8.990  11.129
 7486W        W11686   2.676   9.778   0.428
 7487W        W11687   5.027   5.337   2.386
 7488W        W11688   7.717   2.320   0.218
 7489W        W11689  10.370   9.075   1.800
 7490W        W11690   8.941  10.465   2.835
 7491W        W11691   1.129   4.391   8.625
 7492W        W11692   2.873   8.844   2.364
 7493W        W11693   1.675   1.413  11.885
 7494W        W11694   3.558   2.595   8.998
 7495W        W11695   7.150   8.793   2.240
 7496W        W11696   6.930   7.456   1.215
 7497W        W11697   2.670   0.342   3.527
 7498W        W11698   1.192   9.514   1.248
 7499W        W11699   7.803   8.559  10.011
 7500W        W11700   6.073   7.322   2.711
 7501W        W11701   2.625   0.723   0.314
 7502W        W11702   3.127   1.693   9.144
 7503W        W11703   8.079   4.732  11.281
 7504W        W11704   4.732   8.475   1.294
 7505W        W11705   5.185   6.078   1.860
 7506W        W11706   4.646   4.842   0.976
 7507W        W11707   1.225   0.738   9.412
 7508W        W11708   7.529   2.630   9.058
 7509W        W11709   6.566   9.087  10.708
 7510W        W11710   1.832   6.576   9.544
 7511W        W11711  10.461   0.196   0.460
 7512W        W11712   8.203   8.487  10.314
 7513W        W11713   4.533   5.270  11.805
 7514W        W11714   0.911   3.218   0.999
 7515W        W11715   9.974   6.807   0.682
 7516W        W11716   2.432   7.973   0.068
 7517W        W11717   0.740   5.676   1.997
 7518W        W11718   8.722   1.841   2.909
 7519W        W11719   5.129   4.257  11.503
 7520W        W11720   9.280   8.423   0.515
 7521W        W11721   8.898   2.285  10.436
 7522W        W11722   3.897   2.419   8.582
 7523W        W11723  10.959   5.281  10.028
 7524W        W11724   6.804   5.057  10.211
 7525W        W11725   9.088   2.569   0.482
 7526W        W11726   8.828   4.439   8.887
 7527W        W11727   3.158   8.405   1.835
 7528W        W11728   3.613   4.891   1.217
 7529W        W11729  10.540   3.748   0.745
 7530W        W11730   6.642   3.326  10.096
 7531W        W11731   1.036   4.787   8.987
 7532W        W11732   5.447   8.386  11.704
 7533W        W11733   1.935   3.660   9.335
 7534W        W11734   3.893   2.131  10.794
 7535W        W11735  10.437   1.179  10.559
 7536W        W11736   3.631   5.295   4.039
 7537W        W11737   6.204   2.714   3.208
 7538W        W11738   4.022   9.177  11.375
 7539W        W11739   6.009   4.811  10.798
 7540W        W11740   8.211   8.443   1.394
 7541W        W11741   9.340   1.815  11.488
 7542W        W11742   1.692   6.441   3.279
 7543W        W11743   8.138   7.367   9.278
 7544W        W11744   8.261   1.662   3.040
 7545W        W11745   8.639  10.886   2.835
 7546W        W11746   2.321   4.199   3.355
 7547W        W11747  11.483   9.567  11.772
 7548W        W11748   0.429   2.646   2.902
 7549W        W11749   6.286   5.075   1.313
 7550W        W11750   6.531   9.043   2.921
 7551W        W11751   7.673  11.458  11.522
 7552W        W11752   6.318   0.918   0.475
 7553W        W11753   0.837   8.943  11.501
 7554W        W11754   2.149   9.833  11.282
 7555W        W11755   5.026   7.392   0.028
 7556W        W11756  10.763  10.815   1.278
 7557W        W11757   3.974   8.005   9.171
 7558W        W11758   5.045   4.044   8.758
 7559W        W11759   9.086   3.259   8.890
 7560W        W11760   4.346   9.566   0.311
 7561W        W11761   2.403   6.674   8.972
 7562W        W11762   6.169   6.006   2.391
 7563W        W11763   6.191   4.565   3.035
 7564W        W11764   0.900   5.649   1.158
 7565W        W11765   0.380   9.556   9.957
 7566W        W11766   8.572   5.210   8.080
 7567W        W11767   3.373   2.415   2.323
 7568W        W11768  10.334   0.499   8.817
 7569W        W11769   8.597   3.770  10.982
 7570W        W11770  11.381   8.277  11.272
 7571W        W11771  10.144   0.197   3.200
 7572W        W11772   6.273   6.522  11.357
 7573W        W11773  10.815   3.239   1.941
 7574W        W11774   5.180   7.394  10.082
 7575W        W11775   0.424  10.839  10.475
 7576W        W11776   5.172   8.641   2.597
 7577W        W11777  10.071  11.303  10.768
 7578W        W11778   7.106   9.319   1.491
 7579W        W11779   9.169   8.240   9.453
 7580W        W11780   5.233   1.921   0.405
 7581W        W11781   4.217   4.583   2.387
 7582W        W11782   8.966   8.917  10.241
 7583W        W11783   0.567   2.330   3.319
 7584W        W11784   7.570   6.383   4.010
 7585W        W11785   9.027   6.461   7.856
 7586W        W11786   8.000   6.879  10.858
 7587W        W11787   2.814  11.297   1.256
 7588W        W11788   9.622   4.616   9.215
 7589W        W11789   6.903   7.613  10.821
 7590W        W11790   5.604   9.825  10.798
 7591W        W11791   0.387   6.585   9.708
 7592W        W11792   2.161   0.378   1.354
 7593W        W11793   3.042   2.343  10.642
 7594W        W11794  10.852  10.797  11.409
 7595W        W11795   1.244   7.853   2.928
 7596W        W11796   0.391   7.097   3.028
 7597W        W11797   5.063   8.833  10.536
 7598W        W11798   7.417   1.638   0.706
 7599W        W11799   5.633   0.220  10.994
 7600W        W11800   7.879   7.811   9.352
 7601W        W11801   6.431   9.786  10.930
 7602W        W11802   5.274   2.875   2.770
 7603W        W11803   5.187   6.155  10.473
 7604W        W11804   5.060   1.966   8.552
 7605W        W11805   1.447   0.212  11.246
 7606W        W11806   2.679   1.608   0.110
 7607W        W11807   0.892   6.875   3.136
 7608W        W11808   8.231   3.682   8.613
 7609W        W11809   0.888   9.066   1.976
 7610W        W11810   6.128  11.256  10.988
 7611W        W11811   5.656   9.461  10.324
 7612W        W11812   3.555   0.136  10.029
 7613W        W11813  11.237  10.506   2.799
 7614W        W11814   6.590   8.908   0.421
 7615W        W11815   0.420   4.165   9.338
 7616W        W11816   1.495   7.445  11.100
 7617W        W11817   8.559   2.826  10.986
 7618W        W11818   2.830   9.847   8.973
 7619W        W11819   4.787   2.486  10.422
 7620W        W11820   3.498   1.250  10.740
 7621W        W11821   4.790   7.658   0.799
 7622W        W11822   1.586   5.213   9.496
 7623W        W11823   3.461   5.451   8.492
 7624W        W11824  10.326   5.597   1.910
 7625W        W11825   2.722   5.745  11.776
 7626W        W11826   9.210   5.167   1.914
 7627W        W11827   2.710   3.618   8.938
 7628W        W11828   6.017  10.349   8.560
 7629W        W11829   6.648  10.104   9.393
 7630W        W11830   2.168   2.370   9.000
 7631W        W11831   6.351   8.193   8.201
 7632W        W11832   6.978   0.021  10.457
 7633W        W11833   8.670  10.843   9.948
 7634W        W11834   6.048   4.524   9.932
 7635W        W11835   5.613   2.702  11.465
 7636W        W11836   4.054  10.628   8.580
 7637W        W11837   5.805   3.220   3.868
 7638W        W11838   5.068   0.693  10.345
 7639W        W11839   2.665   4.577  10.691
 7640W        W11840  11.090  11.457  11.771
 7641W        W11841   7.410   1.288  11.844
 7642W        W11842   5.552   5.931  11.104
 7643W        W11843   1.675   6.468  11.991
 7644W        W11844   5.441  11.293  10.409
 7645W        W11845   2.836   8.320   8.308
 7646W        W11846   4.185   5.571  11.311
 7647W        W11847   4.743   7.537   2.222
 7648W        W11848   6.049   2.138  10.627
 7649W        W11849   9.296   8.148  10.284
 7650W        W11850   2.834   1.225   1.910
 7651W        W11851   8.917   1.138  11.973
 7652W        W11852   4.699   9.354  10.662
 7653W        W11853   0.893  11.299   1.978
 7654W        W11854   1.102   2.738   1.118
 7655W        W11855   8.209   6.077   1.236
 7656W        W11856   9.959   0.369   9.617
 7657W        W11857   0.201   7.025   9.931
 7658W        W11858   2.596   8.482   8.729
 7659W        W11859   2.677   5.089   8.412
 7660W        W11860   2.818   4.213   8.355
 7661W        W11861  11.175   4.834  10.078
 7662W        W11862   4.319   2.655  10.211
 7663W        W11863   5.031   4.411   9.144
 7664W        W11864   5.652   9.850   9.377
 7665W        W11865   5.655   3.643   1.243
 7666W        W11866   9.492  10.466   9.097
 7667W        W11867   6.275   5.569   2.633
 7668W        W11868  10.451   5.194   9.286
 7669W        W11869   9.234   7.402   8.581
 7670W        W11870  11.242   8.288   3.101
 7671W        W11871   0.003   6.043   1.081
 7672W        W11872  11.331   4.715   9.584
 7673W        W11873  11.340   1.868  10.100
 7674W        W11874   3.011   6.907  10.348
 7675W        W11875   6.839   7.067  11.577
 7676W        W11876   6.381   6.652   9.555
 7677W        W11877   5.169   2.339  11.285
 7678W        W11878   7.712   5.083  10.781
 7679W        W11879   6.692   3.705   1.286
 7680W        W11880   2.633   1.410   0.805
 7681W        W11881   2.824   2.569   2.431
 7682W        W11882   7.158  10.623   2.895
 7683W        W11883   9.769   9.462   9.090
 7684W        W11884  10.579   4.791  11.922
 7685W        W11885   7.557  10.357   3.118
 7686W        W11886   0.888   1.440   9.486
 7687W        W11887   3.571   4.075  10.078
 7688W        W11888  10.491   5.172   1.700
 7689W        W11889   0.676   9.527   2.486
 7690W        W11890   1.826   5.169   9.953
 7691W        W11891   3.833   3.291  11.351
 7692W        W11892   9.952  10.075   9.771
 7693W        W11893  10.319  11.410   1.744
 7694W        W11894   7.160   2.658  10.824
 7695W        W11895   4.811   9.511   9.266
 7696W        W11896   5.154   9.582  11.365
 7697W        W11897  10.035   2.198   2.913
 7698W        W11898   8.072   5.710  11.482
 7699W        W11899   9.971   4.898   0.092
 7700W        W11900   1.198  10.842  10.285
 7701W        W11901   7.592   0.543   0.757
 7702W        W11902   6.791   6.975   1.354
 7703W        W11903  10.275   0.780   9.281
 7704W        W11904   0.041   6.975  11.812
 7705W        W11905   6.614   4.551   0.605
 7706W        W11906   8.161  11.494   9.724
 7707W        W11907   0.658   2.993   2.404
 7708W        W11908   5.167   8.025   1.167
 7709W        W11909  10.346   0.915   2.357
 7710W        W11910   0.221   9.812  11.390
 7711W        W11911   8.476   9.482  11.642
 7712W        W11912   2.245   0.695   3.293
 7713W        W11913   2.387  10.565  11.967
 7714W        W11914   0.077   1.517   0.854
 7715W        W11915   2.315   8.372   1.260
 7716W        W11916   3.703   3.181   2.837
 7717W        W11917   4.400   9.735   3.702
 7718W        W11918   2.294  11.297   2.206
 7719W        W11919   3.688   7.584   0.441
 7720W        W11920   2.652   4.958   0.360
 7721W        W11921   1.367   9.928  11.745
 7722W        W11922   7.894   1.473  10.739
 7723W        W11923  10.486   1.214   1.552
 7724W        W11924   0.867   3.171   9.418
 7725W        W11925   7.110   1.635  10.820
 7726W        W11926   6.263   7.608   2.356
 7727W        W11927   6.540   6.537   1.158
 7728W        W11928   1.777   2.012   0.499
 7729W        W11929   9.376   1.317  11.511
 7730W        W11930   3.709   3.656   1.629
 7731W        W11931   7.507   4.277   1.945
 7732W        W11932   1.941   1.510   0.495
 7733W        W11933   1.131   9.437   2.255
 7734W        W11934   9.936   6.599   8.757
 7735W        W11935   6.024  10.782   3.211
 7736W        W11936   0.251   9.512   8.991
 7737W        W11937   7.885   5.512  11.041
 7738W        W11938   8.143   9.021   2.303
 7739W        W11939   0.995   3.221   2.763
 7740W        W11940   3.049   4.206  11.509
 7741W        W11941  10.184   4.473  11.910
 7742W        W11942   7.599  10.307  10.291
 7743W        W11943   1.642   8.955   2.828
 7744W        W11944  10.850   6.545   0.646
 7745W        W11945   6.660   0.095   0.436
 7746W        W11946  11.297   6.081   1.551
 7747W        W11947   9.615   3.671  11.914
 7748W        W11948   2.030  11.471   0.844
 7749W        W11949   3.730   7.826   2.197
 7750W        W11950   1.695   5.813   0.650
 7751W        W11951   8.833   8.154   1.452
 7752W        W11952   4.932   6.508   9.116
 7753W        W11953   0.013   2.750   1.966
 7754W        W11954  10.473  11.123  11.040
 7755W        W11955   6.700   2.212   9.369
 7756W        W11956   4.353   1.469   2.374
 7757W        W11957   3.539   4.248   8.864
 7758W        W11958   4.780   0.232  11.000
 7759W        W11959   2.865   7.070   3.273
 7760W        W11960   5.711  10.637   9.955
 7761W        W11961  11.025   4.780   8.593
 7762W        W11962   9.261   9.078   0.655
 7763W        W11963  10.579   2.747  10.718
 7764W        W11964   6.135   1.794   0.970
 7765W        W11965   6.494  10.670   0.803
 7766W        W11966   3.211   4.134   2.261
 7767W        W11967   5.297   6.671   8.715
 7768W        W11968   0.438   5.647   0.035
 7769W        W11969  11.393   6.148   9.094
 7770W        W11970  10.797   5.808  10.984
 7771W        W11971   4.175  10.107  10.784
 7772W        W11972   8.974   9.010   1.067
 7773W        W11973   5.028  11.112   9.289
 7774W        W11974   8.531   5.321   2.386
 7775W        W11975   3.216   3.343   9.955
 7776W        W11976   8.171   0.947   0.096
 7777W        W11977   1.348  10.375  10.478
 7778W        W11978   1.934   4.284   0.424
 7779W        W11979   6.553   3.703   0.365
 7780W        W11980   6.423  10.812   2.310
 7781W        W11981   0.692   9.758   8.965
 7782W        W11982   6.187   4.269  11.952
 7783W        W11983   9.593  11.085   9.808
 7784W        W11984   2.418   5.051  10.522
 7785W        W11985   8.222   5.118  10.975
 7786W        W11986   9.408   3.727   1.213
 7787W        W11987   7.131   6.946   2.309
 7788W        W11988   1.777   7.722   2.143
 7789W        W11989  11.338   9.381   9.992
 7790W        W11990   2.521   3.097  10.614
 7791W        W11991   8.874   9.832  11.664
 7792W        W11992   5.314   1.978   1.849
 7793W        W11993   4.867  11.405   1.690
 7794W        W11994   2.904   3.644   0.241
 7795W        W11995   5.411   2.644   9.061
 7796W        W11996   7.971   0.193  11.869
 7797W        W11997   6.395   9.090   3.743
 7798W        W11998   8.450   3.380   1.801
 7799W        W11999   5.957   0.240   0.242
 7800W        W12000   6.504  10.833  11.558
 7801W        W12001  10.673   2.402   3.475
 7802W        W12002   0.767   6.714   1.832
 7803W        W12003   8.448   1.357  11.973
 7804W        W12004   1.849   1.735  10.028
 7805W        W12005   3.275   8.674  10.326
 7806W        W12006   6.536   6.114   0.835
 7807W        W12007   9.372   8.122   3.308
 7808W        W12008   1.526   3.544   2.085
 7809W        W12009   6.307   8.817  11.029
 7810W        W12010   8.899   6.254   3.210
 7811W        W12011   8.792   9.590   3.187
 7812W        W12012   5.661   5.166   9.224
 7813W        W12013   9.357   3.386   1.769
 7814W        W12014   7.655   5.409   9.780
 7815W        W12015   3.150   2.127   9.659
 7816W        W12016   0.935   1.951   3.286
 7817W        W12017   8.798   0.445   3.099
 7818W        W12018  10.392   6.451   1.976
 7819W        W12019   7.948   4.248  10.070
 7820W        W12020   6.579   2.486  11.938
 7821W        W12021   4.524   5.811   1.104
 7822W        W12022  10.837   6.995   0.914
 7823W        W12023   4.498   3.303   0.746
 7824W        W12024  10.644   9.638   9.618
 7825W        W12025  11.326   5.539   3.266
 7826W        W12026   6.673   2.737   9.501
 7827W        W12027   5.538  10.127  11.921
 7828W        W12028   2.789   4.846   0.851
 7829W        W12029   2.480   9.523   1.682
 7830W        W12030   5.069   6.503   1.098
 7831W        W12031   1.809   3.350   0.837
 7832W        W12032  10.446   8.977   9.417
 7833W        W12033   4.196   8.665   3.755
 7834W        W12034   0.825   0.259   1.142
 7835W        W12035   5.929   8.195   3.580
 7836W        W12036   7.676   6.560  10.587
 7837W        W12037   4.442   4.200  10.451
 7838W        W12038   8.974  10.842   9.482
 7839W        W12039   7.885   6.974   9.048
 7840W        W12040   8.482   6.928   1.409
 7841W        W12041   2.712  10.775   1.100
 7842W        W12042   9.950  11.240   3.054
 7843W        W12043   3.091   7.069   1.928
 7844W        W12044   3.739   5.984  11.029
 7845W        W12045   4.827   6.130  11.323
 7846W        W12046   9.578   8.610  10.355
 7847W        W12047   3.362  10.001   9.158
 7848W        W12048   2.225   7.859   9.528
 7849W        W12049   3.358   3.451   0.071
 7850W        W12050   1.441   7.795  11.971
 7851W        W12051   4.530   2.702   9.753
 7852W        W12052   8.598   9.132   0.458
 7853W        W12053   9.083  11.329  10.838
 7854W        W12054   7.129   2.334   3.262
 7855W        W12055   2.548   2.621  11.286
 7856W        W12056   0.422   4.778   1.223
 7857W        W12057   4.740   0.364   2.886
 7858W        W12058   5.885   4.401   1.771
 7859W        W12059   6.629   6.131   2.227
 7860W        W12060   5.903   2.767   8.985
 7861W        W12061   8.276   5.182   3.207
 7862W        W12062   6.924   5.153   2.336
 7863W        W12063   9.125   8.425  11.514
 7864W        W12064   2.265   5.316   9.114
 7865W        W12065   1.330   4.085   9.774
 7866W        W12066   0.870   0.381   2.123
 7867W        W12067   7.454  11.458  10.189
 7868W        W12068   0.673   2.180   2.028
 7869W        W12069   7.168   0.778  11.875
 7870W        W12070   8.345   4.544  10.294
 7871W        W12071  11.092   4.080   2.332
 7872W        W12072   9.920   3.785   1.331
 7873W        W12073   3.114   9.359   0.760
 7874W        W12074   3.803   1.634   9.927
 7875W        W12075  10.846   4.691  10.954
 7876W        W12076   8.171   6.402  10.788
 7877W        W12077  10.111   3.854   9.495
 7878W        W12078  10.631   4.218  10.559
 7879W        W12079   5.145   7.487  10.597
 7880W        W12080   0.025  10.948   2.766
 7881W        W12081   0.334   5.228   1.414
 7882W        W12082  10.190   3.665   3.396
 7883W        W12083   6.336   3.943   8.190
 7884W        W12084   3.218   5.426   3.744
 7885W        W12085   8.447   0.828   3.134
 7886W        W12086   1.882   6.535   8.988
 7887W        W12087   2.321   1.844   0.431
 7888W        W12088  10.833   3.847  11.120
 7889W        W12089   5.233   1.839  11.419
 7890W        W12090   5.495   8.147   9.909
 7891W        W12091   5.896   2.010   1.886
 7892W        W12092   2.321   7.531  11.785
 7893W        W12093   3.187   0.288   1.403
 7894W        W12094   7.737   3.121  10.986
 7895W        W12095   2.442  10.717  10.880
 7896W        W12096   4.084   3.247  10.466
 7897W        W12097   8.588   4.213   2.827
 7898W        W12098   1.396   0.393   0.837
 7899W        W12099   0.278   0.406   0.017
 7900W        W12100   7.032   0.272   2.173
 7901W        W12101   9.058   6.502   8.874
 7902W        W12102   4.172   7.463   1.853
 7903W        W12103   8.619   1.770   3.407
 7904W        W12104   1.510   0.321   9.584
 7905W        W12105   1.467   2.836   8.350
 7906W        W12106   7.403   6.480  10.136
 7907W        W12107  10.570   7.123   2.738
 7908W        W12108  11.374   9.794   3.383
 7909W        W12109   6.454   9.743   0.811
 7910W        W12110   1.926   7.774   3.527
 7911W        W12111   2.847   1.860   0.532
 7912W        W12112   7.059   4.867   9.148
 7913W        W12113   3.306   6.213  10.711
 7914W        W12114   9.571   3.126   2.773
 7915W        W12115   6.445   6.057  10.972
 7916W        W12116  10.368  10.370   0.180
 7917W        W12117   3.111   6.063  11.847
 7918W        W12118   5.379   1.908  10.040
 7919W        W12119   7.698   5.941  10.795
 7920W        W12120   7.546   5.339   0.233
 7921W        W12121   9.409  10.279   2.779
 7922W        W12122   0.988   9.835   1.664
 7923W        W12123   4.590   1.789   1.437
 7924W        W12124   6.170   2.258   0.723
 7925W        W12125   1.733   2.292   8.744
 7926W        W12126   2.184   7.093  11.549
 7927W        W12127   9.449   9.153   9.401
 7928W        W12128   4.635   1.845  10.312
 7929W        W12129   1.395   7.047   3.269
 7930W        W12130   9.978   3.246  10.829
 7931W        W12131   8.965   5.081   3.746
 7932W        W12132   6.485  10.089  11.933
 7933W        W12133   5.209   8.332   1.578
 7934W        W12134   6.625   2.315   0.490
 7935W        W12135  11.302  10.527  10.412
 7936W        W12136   4.735   0.775   1.636
 7937W        W12137   7.734   8.992  11.470
 7938W        W12138   5.507   7.623  11.494
 7939W        W12139   7.674   3.067   2.042
 7940W        W12140   7.947   6.887  11.741
 7941W        W12141   4.618   9.499   2.161
 7942W        W12142   2.350   6.049   0.347
 7943W        W12143   3.918   0.457   8.776
 7944W        W12144   5.961   0.897   9.485
 7945W        W12145   7.565   4.115   9.275
 7946W        W12146   9.519   1.858   3.540
 7947W        W12147   4.512  11.043   1.820
 7948W        W12148   5.691   1.162   0.339
 7949W        W12149   5.487  10.620  10.676
 7950W        W12150   7.020   4.185   9.928
 7951W        W12151   7.695   7.062  10.436
 7952W        W12152   3.669   6.483  10.940
 7953W        W12153  10.000   8.280   8.404
 7954W        W12154  10.989   0.389  10.332
 7955W        W12155  10.835   4.155   2.780
 7956W        W12156   1.344   6.629   2.976
 7957W        W12157   2.309   4.722   9.299
 7958W        W12158   2.380   1.637   2.939
 7959W        W12159   2.976   7.517   2.586
 7960W        W12160   5.475  11.436   0.860
 7961W        W12161   9.564   5.394   1.635
 7962W        W12162   0.950   7.077   8.679
 7963W        W12163   7.171   3.074   0.054
 7964W        W12164   1.769   5.348   0.313
 7965W        W12165   6.835   3.200   3.754
 7966W        W12166   6.697   5.349  10.618
 7967W        W12167   3.583   1.442   1.332
 7968W        W12168   4.168   8.021   0.870
 7969W        W12169   4.298   4.867   2.822
 7970W        W12170   2.220   0.348   1.914
 7971W        W12171   8.334  10.394   0.446
 7972W        W12172   5.220   9.379  11.833
 7973W        W12173   7.539   2.649  11.848
 7974W        W12174   2.763   2.874   2.903
 7975W        W12175   4.855   2.886  10.107
 7976W        W12176   0.777   7.624   1.256
 7977W        W12177   8.695  10.929   3.356
 7978W        W12178   0.895   4.176   9.527
 7979W        W12179   6.110   0.421   1.677
 7980W        W12180  10.510  10.704   0.540
 7981W        W12181   5.003  10.668   2.384
 7982W        W12182   5.633   9.649   9.852
 7983W        W12183   8.094   7.391   1.662
 7984W        W12184   3.041   9.173   9.570
 7985W        W12185  10.255   3.586   2.874
 7986W        W12186   5.171   1.694   0.862
 7987W        W12187   5.158   1.085   8.849
 7988W        W12188   9.895  10.788   3.245
 7989W        W12189   8.535   0.404  11.505
 7990W        W12190   8.556   7.476   2.856
 7991W        W12191   4.515   0.377   2.412
 7992W        W12192   7.534   3.074   9.657
 7993W        W12193   7.224  10.876   1.974
 7994W        W12194   0.005   5.596  11.731
 7995W        W12195   5.139  10.281   3.230
 7996W        W12196   8.656   9.355   2.354
 7997W        W12197   9.552   1.136   0.391
 7998W        W12198   6.659   9.639  11.809
 7999W        W12199   1.762   5.817   0.136
 8000W        W12200   5.719   3.679   3.267
 8001W        W12201   8.661   1.257   2.352
 8002W        W12202   9.014   4.554  11.866
 8003W        W12203  11.069   9.053   8.751
 8004W        W12204   2.480   7.065  11.039
 8005W        W12205   0.928   9.908   2.190
 8006W        W12206   9.664  11.014   3.669
 8007W        W12207   8.805   7.095  11.258
 8008W        W12208   6.562   2.199   8.853
 8009W        W12209   3.206   6.468  11.198
 8010W        W12210   0.799   3.723   9.792
 8011W        W12211   8.103   6.224   4.001
 8012W        W12212  10.390   8.393   9.444
 8013W        W12213  10.785   9.040  10.748
 8014W        W12214   6.643   4.811   1.623
 8015W        W12215   7.978   4.149   3.660
 8016W        W12216   7.489   2.927  11.411
 8017W        W12217   3.325   2.776   0.343
 8018W        W12218   2.691   6.526   9.543
 8019W        W12219   7.143   6.630   3.749
 8020W        W12220   1.488   2.819   3.052
 8021W        W12221   1.381   6.034   3.364
 8022W        W12222   0.705   5.174   1.022
 8023W        W12223   8.376   5.584  10.829
 8024W        W12224   8.699  10.498   1.766
 8025W        W12225   2.486   7.978   8.611
 8026W        W12226   6.902   9.859  11.430
 8027W        W12227   9.167   1.756  10.449
 8028W        W12228   2.736   6.043   9.001
 8029W        W12229   2.239   6.614  11.802
 8030W        W12230   5.282   6.002  11.520
 8031W        W12231   5.837   2.685   8.365
 8032W        W12232   0.339   7.423   1.398
 8033W        W12233  10.814   7.656  10.143
 8034W        W12234   3.426   5.241   0.319
 8035W        W12235   9.297   9.329   1.805
 8036W        W12236   7.001   9.795   1.660
 8037W        W12237   5.934   8.666  10.313
 8038W        W12238   5.841  11.461   8.989
 8039W        W12239  10.820   7.976   3.233
 8040W        W12240   3.233  10.261   2.176
 8041W        W12241   6.495  11.412  10.243
 8042W        W12242   5.428   9.541   3.706
 8043W        W12243   4.483   1.601   9.893
 8044W        W12244   2.436   2.140  11.420
 8045W        W12245   6.160   8.778   1.850
 8046W        W12246   0.277  10.077   3.250
 8047W        W12247   3.407  10.515   9.912
 8048W        W12248   9.091  10.233   8.820
 8049W        W12249   6.970  10.984  11.669
 8050W        W12250   8.743   5.780   3.126
 8051W        W12251  10.303   2.422  10.417
 8052W        W12252   4.985   6.541  10.115
 8053W        W12253   6.888   8.988   3.707
 8054W        W12254   9.915   4.066   1.794
 8055W        W12255   9.274   6.033   9.326
 8056W        W12256   0.345   1.352  10.348
 8057W        W12257  11.272   4.240   3.036
 8058W        W12258   7.202  11.070  10.415
 8059W        W12259  10.335   1.815   2.277
 8060W        W12260   8.640   5.196  10.603
 8061W        W12261   7.599   4.822  11.398
 8062W        W12262   3.134   4.772   0.440
 8063W        W12263   3.428   8.036   9.083
 8064W        W12264   7.813   3.908   3.242
 8065W        W12265   2.476   7.492  11.301
 8066W        W12266   4.196   3.863  10.997
 8067W        W12267   0.369   0.840   8.731
 8068W        W12268   7.905   0.686   9.283
 8069W        W12269   9.789   2.824  11.556
 8070W        W12270  11.357   8.624   0.152
 8071W        W12271   3.376   9.874  11.559
 8072W        W12272   1.777   4.582  11.975
 8073W        W12273   0.907   0.006   2.964
 8074W        W12274   5.209   5.564   1.905
 8075W        W12275   6.485   0.489   3.469
 8076W        W12276   2.376   7.058   0.541
 8077W        W12277   9.547  11.136   0.457
 8078W        W12278   2.782   6.938   8.742
 8079W        W12279  10.388   5.072   3.290
 8080W        W12280   1.435   3.740   0.499
 8081W        W12281  10.379   5.100   0.660
 8082W        W12282  11.368   8.445   1.658
 8083W        W12283   4.102   4.069  10.051
 8084W        W12284   4.704   0.823   2.673
 8085W        W12285   9.618   2.338   3.212
 8086W        W12286   7.630   7.568   1.843
 8087W        W12287   6.609   2.070   0.952
 8088W        W12288  10.131   8.988   0.504
 8089W        W12289   6.576   0.460   1.406
 8090W        W12290   3.309   6.674   1.665
 8091W        W12291   3.563   8.088   0.837
 8092W        W12292   3.165   3.188   2.741
 8093W        W12293   0.795   2.257   2.868
 8094W        W12294   5.969   3.795  11.900
 8095W        W12295   0.482   3.066   9.781
 8096W        W12296  10.415  10.073   9.519
 8097W        W12297   9.050   5.035  10.308
 8098W        W12298   5.538   9.444   2.236
 8099W        W12299   3.108   5.152   8.682
 8100W        W12300   3.595   9.944  11.092
 8101W        W12301   4.290   2.657   1.446
 8102W        W12302   8.478  10.388   2.621
 8103W        W12303   2.190   2.265   0.730
 8104W        W12304   4.737   0.319   8.356
 8105W        W12305   9.806   7.008   2.345
 8106W        W12306   0.152   4.692   9.966
 8107W        W12307   3.792   5.948  10.511
 8108W        W12308  11.058   2.909  11.698
 8109W        W12309   2.799   0.812  10.030
 8110W        W12310   0.520   9.515  10.722
 8111W        W12311   6.932  11.373   0.825
 8112W        W12312   6.893   6.036   0.420
 8113W        W12313   0.848  11.201  10.162
 8114W        W12314   7.348   8.949  11.768
 8115W        W12315  10.507   8.756   3.478
 8116W        W12316   3.840   2.132   9.023
 8117W        W12317   4.155   1.931  10.135
 8118W        W12318   6.312   6.276   9.220
 8119W        W12319   5.150   1.152   0.865
 8120W        W12320   0.721   5.266   9.304
 8121W        W12321   8.064   5.682   1.652
 8122W        W12322   9.095   8.536  10.542
 8123W        W12323  10.912   9.109  10.261
 8124W        W12324   6.312  10.070  10.352
 8125W        W12325   8.196   6.600   8.903
 8126W        W12326   2.086   7.114   2.730
 8127W        W12327   7.115  10.549   1.533
 8128W        W12328   6.115   9.770   9.978
 8129W        W12329  10.907   4.888   1.653
 8130W        W12330   0.411   2.645  10.505
 8131W        W12331  10.006   0.834   9.863
 8132W        W12332   1.823  10.993  11.517
 8133W        W12333   0.113   4.236   9.740
 8134W        W12334   2.450   6.155   1.255
 8135W        W12335   7.488   9.708   1.353
 8136W        W12336  11.109   7.845   0.036
 8137W        W12337   4.357   8.997   8.541
 8138W        W12338   8.037   3.210  10.524
 8139W        W12339   1.231   9.964  11.261
 8140W        W12340   4.019  10.835   0.804
 8141W        W12341   6.251  11.012  10.560
 8142W        W12342   5.034   9.705  10.873
 8143W        W12343   5.226   2.676   2.266
 8144W        W12344   3.627   4.350  11.972
 8145W        W12345   2.682  11.200  10.412
 8146W        W12346   7.509   4.043  11.828
 8147W        W12347   9.022   9.485   0.892
 8148W        W12348   7.951   8.483  11.433
 8149W        W12349   2.228  10.960  10.492
 8150W        W12350   2.817   3.652   9.846
 8151W        W12351   7.449  10.780  10.740
 8152W        W12352   1.253   1.005  10.427
 8153W        W12353   5.961   3.856   0.878
 8154W        W12354   5.725   4.255   8.662
 8155W        W12355   2.910   3.031   0.953
 8156W        W12356  10.465   7.869  11.062
 8157W        W12357   1.557  10.243   0.447
 8158W        W12358   6.065   8.976   0.566
 8159W        W12359   2.701   0.772   2.134
 8160W        W12360   1.000   1.380   2.238
 8161W        W12361   5.567   1.484  10.227
 8162W        W12362   2.549  11.451   9.988
 8163W        W12363   7.275  10.478   8.957
 8164W        W12364  10.414   8.900   9.951
 8165W        W12365   1.673   9.070  10.349
 8166W        W12366   9.565   6.127   0.532
 8167W        W12367   3.603   7.004   2.834
 8168W        W12368   7.805   5.369   9.153
 8169W        W12369   8.498   1.241   8.996
 8170W        W12370  11.244   6.546  10.942
 8171W        W12371   3.664   2.798   2.124
 8172W        W12372  11.391   2.594  11.973
 8173W        W12373   3.542  10.197  10.332
 8174W        W12374  10.776   7.594   2.907
 8175W        W12375  10.254   9.665  11.277
 8176W        W12376   3.690   7.448   9.324
 8177W        W12377  11.450  10.973  10.156
 8178W        W12378   3.184   6.978  11.988
 8179W        W12379   5.545   4.700   0.107
 8180W        W12380   4.683  10.963   3.024
 8181W        W12381   4.594   6.271   0.675
 8182W        W12382   5.832   7.197   1.274
 8183W        W12383   5.633   6.622   3.683
 8184W        W12384   2.080   0.068   9.866
 8185W        W12385   3.811   5.036   1.662
 8186W        W12386   6.677   8.294   3.425
 8187W        W12387   8.912   7.796   9.465
 8188W        W12388   3.373   1.354   2.839
 8189W        W12389  10.694   5.467   9.624
 8190W        W12390   1.128   6.459   0.690
 8191W        W12391   8.106   6.611   0.479
 8192W        W12392   6.753  10.279   3.625
 8193W        W12393   3.459   8.215   3.629
 8194W        W12394   6.206   7.003  10.575
 8195W        W12395   0.178  10.888  11.120
 8196W        W12396   7.508   0.295   9.023
 8197W        W12397  11.213   2.898   0.936
 8198W        W12398   8.069   0.338   1.938
 8199W        W12399   0.327   8.447   9.837
 8200W        W12400   1.488   1.281   0.462
 8201W        W12401   7.703   8.459   0.787
 8202W        W12402   8.281   2.266   1.748
 8203W        W12403  11.132   1.315   0.954
 8204W        W12404   6.907  10.914   1.043
 8205W        W12405  11.456   0.556   3.790
 8206W        W12406   1.889   9.434  10.898
 8207W        W12407   9.937   6.505   2.216
 8208W        W12408   8.003   2.741   9.777
 8209W        W12409   2.196   9.931  10.254
 8210W        W12410   6.652   1.393  10.806
 8211W        W12411   8.672   6.601   2.648
 8212W        W12412   2.083   5.194   3.182
 8213W        W12413   8.115   8.619  10.817
 8214W        W12414   7.465   8.575   1.836
 8215W        W12415   5.159   6.232  10.968
 8216W        W12416   6.035  10.864   2.678
 8217W        W12417   5.313   6.116   1.314
 8218W        W12418  10.022   5.450  11.934
 8219W        W12419   7.158  10.562  10.365
 8220W        W12420   3.156  10.996   2.937
 8221W        W12421   4.494   3.581   9.180
 8222W        W12422   2.142  10.154   8.936
 8223W        W12423   7.210   3.336   0.950
 8224W        W12424   7.409   9.076   1.866
 8225W        W12425   2.141  11.013   9.595
 8226W        W12426   7.556   0.550   2.640
 8227W        W12427   8.926   4.562  10.136
 8228W        W12428   3.360   9.572  10.836
 8229W        W12429   7.164   5.590   1.966
 8230W        W12430   0.468   4.106   2.901
 8231W        W12431  10.322   7.619   2.687
 8232W        W12432   0.659  11.057  11.102
 8233W        W12433   2.381   2.237  10.889
 8234W        W12434   7.107   1.543   0.283
 8235W        W12435   2.186  10.804   0.389
 8236W        W12436   3.263   9.755   2.319
 8237W        W12437  11.071   7.917   1.157
 8238W        W12438   6.574   7.864  10.377
 8239W        W12439   0.100   3.766   3.651
 8240W        W12440  10.924   3.144  10.948
 8241W        W12441  10.933   0.149   9.002
 8242W        W12442   5.452   3.779  11.827
 8243W        W12443   6.177   4.148   3.449
 8244W        W12444   2.396   4.068   0.365
 8245W        W12445   2.098   2.714  11.491
 8246W        W12446  10.323   4.113   9.050
 8247W        W12447   1.389   2.693   0.127
 8248W        W12448   8.271   1.008   0.620
 8249W        W12449   7.989   4.148   9.553
 8250W        W12450   5.797   7.625   4.024
 8251W        W12451   8.058   4.735   9.907
 8252W        W12452   4.101   5.268  10.547
 8253W        W12453   1.052   4.432   1.918
 8254W        W12454  11.387  10.060  10.636
 8255W        W12455  11.267   6.073  11.506
 8256W        W12456   7.069   6.185   4.017
 8257W        W12457   5.030   4.617   0.239
 8258W        W12458   9.951   9.247   0.000
 8259W        W12459   0.962   3.676   3.373
 8260W        W12460   5.267   4.509   8.693
 8261W        W12461  11.484   3.515   0.406
 8262W        W12462   1.395  11.450   1.756
 8263W        W12463   1.311  11.088   2.145
 8264W        W12464   9.593   6.801  10.342
 8265W        W12465   5.654   6.546   9.901
 8266W        W12466   3.381   7.159   1.487
 8267W        W12467   1.264   6.048   9.199
 8268W        W12468   1.339   9.921   0.753
 8269W        W12469   0.308   0.011   2.394
 8270W        W12470   6.490   2.058  10.263
 8271W        W12471  10.266  10.540  10.298
 8272W        W12472   7.934   0.969  10.726
 8273W        W12473   6.621   7.839   9.089
 8274W        W12474   1.823   7.274   3.445
 8275W        W12475   4.086  10.763   0.026
 8276W        W12476   8.547  10.740   1.336
 8277W        W12477   6.471   5.757   0.013
 8278W        W12478   6.723   6.979   0.833
 8279W        W12479   6.597   3.264  10.638
 8280W        W12480   7.916   6.390   0.889
 8281W        W12481  10.097   5.860   3.414
 8282W        W12482   4.568   9.955   9.961
 8283W        W12483   9.417  10.653   1.219
 8284W        W12484   9.070   4.282   2.604
 8285W        W12485   8.958   5.563   2.144
 8286W        W12486   9.965   6.797   3.174
 8287W        W12487  11.082   0.934  11.799
 8288W        W12488   3.859   4.450  10.292
 8289W        W12489   9.213   5.840   0.260
 8290W        W12490   5.633   6.247   1.681
 8291W        W12491  11.428   7.311   2.981
 8292W        W12492  10.394   9.423   2.618
 8293W        W12493   6.549   8.286   1.163
 8294W        W12494   9.786   7.261  10.405
 8295W        W12495   4.346   7.220   2.355
 8296W        W12496  11.085   6.291   8.398
 8297W        W12497   4.079   4.901   8.566
 8298W        W12498  11.113   3.117   0.493
 8299W        W12499   1.560   6.631   0.464
 8300W        W12500   8.112   9.381   0.517
 8301W        W12501   8.050   9.978   2.287
 8302W        W12502   4.752  10.805   0.296
 8303W        W12503   8.672   8.858   9.838
 8304W        W12504   3.841  10.397   0.321
 8305W        W12505   9.609   8.865   2.645
 8306W        W12506   6.059   3.794   2.619
 8307W        W12507   0.716  10.255   9.161
 8308W        W12508   1.779   6.564   1.757
 8309W        W12509  11.371   5.169   1.646
 8310W        W12510   3.915   9.368   9.848
 8311W        W12511   1.673  11.271  11.093
 8312W        W12512   3.556   5.634   2.430
 8313W        W12513   2.168   0.217   3.471
 8314W        W12514   9.434   9.256  11.276
 8315W        W12515   6.373   1.703   2.000
 8316W        W12516  10.408   5.473   3.615
 8317W        W12517   2.022   3.145  10.535
 8318W        W12518   1.802   0.022   2.743
 8319W        W12519   6.888   8.257  10.201
 8320W        W12520   9.287   9.273   0.174
 8321W        W12521   2.482   7.996  10.387
 8322W        W12522   2.325   1.847   1.473
 8323W        W12523   4.792   8.027   2.887
 8324W        W12524  11.365  10.101   0.173
 8325W        W12525   7.729   5.207   1.781
 8326W        W12526   2.618   0.699  10.505
 8327W        W12527   3.434   6.471   9.083
 8328W        W12528   5.602  11.002   3.487
 8329W        W12529   4.718   9.841   2.527
 8330W        W12530   2.145   3.253  11.904
 8331W        W12531   3.874   7.141   9.749
 8332W        W12532   3.785   7.434  11.098
 8333W        W12533   7.720   8.431  10.514
 8334W        W12534   0.111   7.827   0.201
 8335W        W12535   1.626   5.678   2.680
 8336W        W12536  10.433   4.687   9.297
 8337W        W12537   6.115   1.258   3.250
 8338W        W12538   1.723   9.133  11.358
 8339W        W12539   8.542   2.723   0.360
 8340W        W12540   3.873  10.275   9.938
 8341W        W12541   9.028   9.985   0.593
 8342W        W12542   2.319   3.184  10.144
 8343W        W12543   8.627   0.032   0.852
 8344W        W12544   7.772   7.928  10.735
 8345W        W12545   1.585   9.748   1.489
 8346W        W12546  10.361   4.559   3.393
 8347W        W12547   6.140   9.032   3.284
 8348W        W12548   7.947  10.022   1.335
 8349W        W12549   8.860   5.448   0.133
 8350W        W12550  11.034   6.194   1.985
 8351W        W12551  11.250   7.719   0.668
 8352W        W12552   5.544   3.632  10.108
 8353W        W12553   8.467   2.140  10.740
 8354W        W12554   3.191   4.794   1.477
 8355W        W12555   1.479   4.755  11.056
 8356W        W12556   3.105   7.086   2.822
 8357W        W12557  10.827   6.292  10.745
 8358W        W12558   3.284  10.513   3.566
 8359W        W12559   6.278   9.953   1.695
 8360W        W12560   1.777   1.404  11.378
 8361W        W12561  10.889   6.586   8.838
 8362W        W12562   6.931   4.649   3.095
 8363W        W12563  10.339   8.293   1.226
 8364W        W12564   2.388   1.197   0.405
 8365W        W12565   0.566   2.439   2.451
 8366W        W12566   6.592   2.884  11.566
 8367W        W12567  10.935   2.966   3.611
 8368W        W12568   2.606   9.894   9.858
 8369W        W12569   2.184   0.503  11.780
 8370W        W12570   7.787   8.151   1.438
 8371W        W12571   0.281   1.236   1.772
 8372W        W12572  11.049  10.414   9.526
 8373W        W12573   5.456   6.076   9.508
 8374W        W12574   3.647   2.154   3.227
 8375W        W12575   0.492   7.134   1.797
 8376W        W12576   3.868   1.512   0.376
 8377W        W12577   5.548   7.813   9.525
 8378W        W12578   9.067   7.726   1.261
 8379W        W12579   7.471   8.692   0.373
 8380W        W12580  10.443  10.406   1.649
 8381W        W12581   4.185   8.587   3.063
 8382W        W12582   4.175   9.012   3.387
 8383W        W12583   8.558   8.379   2.853
 8384W        W12584   5.669   0.279   1.388
 8385W        W12585  11.045   3.294   3.018
 8386W        W12586   5.690  10.619  11.898
 8387W        W12587   4.548   4.839   0.104
 8388W        W12588   1.666   4.874   3.262
 8389W        W12589   8.091   1.855   9.445
 8390W        W12590   9.874   3.336   3.149
 8391W        W12591   7.899   1.791   0.971
 8392W        W12592  11.442  10.999  11.580
 8393W        W12593   5.180   6.495   0.182
 8394W        W12594   2.177  11.477   9.373
 8395W        W12595   0.651  11.071   0.382
 8396W        W12596   5.158   1.878   1.352
 8397W        W12597   6.453   5.034  10.949
 8398W        W12598   3.184   4.281   1.361
 8399W        W12599   1.847   9.949   2.803
 8400W        W12600   4.595   8.311   3.732
 8401W        W12601   7.007   8.859   0.112
 8402W        W12602   5.154   1.827   9.399
 8403W        W12603   1.998  11.078   8.587
 8404W        W12604   7.526   3.319   1.632
 8405W        W12605   0.241   1.050   0.922
 8406W        W12606   0.979  11.001  11.485
 8407W        W12607   4.498  11.067  11.920
 8408W        W12608   1.143  10.032   8.911
 8409W        W12609   5.572   9.840  11.492
 8410W        W12610   5.282   0.337   2.851
 8411W        W12611   3.285   3.297  11.072
 8412W        W12612  10.076   6.032   2.086
 8413W        W12613   0.539  10.489  11.885
 8414W        W12614   2.156   4.692   3.302
 8415W        W12615   3.333   2.443  11.462
 8416W        W12616   4.297   2.186   1.244
 8417W        W12617   5.897   8.633  11.787
 8418W        W12618   6.038   0.336  11.293
 8419W        W12619   4.134   0.269   2.772
 8420W        W12620   0.787   4.529   0.315
 8421W        W12621   9.908   8.549   1.074
 8422W        W12622   6.031   0.847  11.063
 8423W        W12623   5.233   0.571   9.220
 8424W        W12624   8.982   2.546  11.980
 8425W        W12625   7.718   6.120  10.326
 8426W        W12626   2.081   5.103   9.527
 8427W        W12627   2.440   0.366  10.870
 8428W        W12628   9.962   5.339   3.417
 8429W        W12629   5.114   9.145   9.476
 8430W        W12630   4.371   7.218   1.460
 8431W        W12631   8.362   0.201   0.419
 8432W        W12632   0.886  10.209  10.954
 8433W        W12633   2.073   9.431   0.740
 8434W        W12634   4.803   3.808  10.496
 8435W        W12635   3.571   5.276   0.850
 8436W        W12636   1.199   3.155   2.304
 8437W        W12637   7.236   0.571   1.425
 8438W        W12638   0.290   3.911   1.515
 8439W        W12639   8.859   2.250   9.875
 8440W        W12640   0.131  11.041   0.469
 8441W        W12641   9.489   9.854   9.901
 8442W        W12642  10.424   6.201  11.626
 8443W        W12643   1.397   6.537   9.209
 8444W        W12644   8.893   4.099  10.385
 8445W        W12645   7.952   7.532   0.293
 8446W        W12646   0.730   2.765  11.444
 8447W        W12647   6.301   7.612   4.095
 8448W        W12648   0.530   4.793   8.940
 8449W        W12649   5.013   0.435   2.420
 8450W        W12650   7.002  10.238  10.009
 8451W        W12651   3.730   8.794   3.528
 8452W        W12652   4.514   8.939  11.405
 8453W        W12653   4.546   2.420   2.166
 8454W        W12654   0.583   4.259   1.251
 8455W        W12655   3.757   7.166   8.897
 8456W        W12656   0.371   6.503  10.212
 8457W        W12657   0.290   0.883   9.720
 8458W        W12658   5.803   8.149   0.012
 8459W        W12659   5.646   9.317  10.810
 8460W        W12660   1.897   1.077   0.204
 8461W        W12661   2.821   4.694   9.175
 8462W        W12662  10.746   7.160   2.224
 8463W        W12663  10.367   7.148   0.753
 8464W        W12664  10.633   1.291   1.070
 8465W        W12665   6.179   0.396   0.662
 8466W        W12666  11.425   8.161   2.596
 8467W        W12667   2.595   1.587   8.976
 8468W        W12668   4.411   6.600  10.484
 8469W        W12669   8.602  10.238  10.557
 8470W        W12670   3.318   0.306   9.609
 8471W        W12671   3.224   3.657  10.350
 8472W        W12672   7.083   6.036   0.917
 8473W        W12673   7.063   7.618   8.932
 8474W        W12674   8.161   1.817  10.490
 8475W        W12675  11.386   4.162   1.906
 8476W        W12676   4.812   1.937  11.669
 8477W        W12677   6.920   5.698  10.310
 8478W        W12678   6.062   9.630  10.595
 8479W        W12679   5.122   7.829   9.804
 8480W        W12680   3.791   3.679   9.800
 8481W        W12681   1.050   8.936   1.508
 8482W        W12682   5.168   8.689   0.597
 8483W        W12683   7.982   7.049   2.038
 8484W        W12684   9.086   5.121   0.486
 8485W        W12685   4.741  10.402   9.689
 8486W        W12686   8.358   5.528  10.324
 8487W        W12687   2.664  10.858   0.600
 8488W        W12688   9.303   0.762   1.233
 8489W        W12689   9.833   2.618   9.086
 8490W        W12690  10.877   3.025   9.914
 8491W        W12691  11.317   0.567  11.269
 8492W        W12692   2.749   1.011  11.442
 8493W        W12693   2.100   2.279   3.358
 8494W        W12694   9.447   1.441  10.092
 8495W        W12695   5.930   1.828  10.233
 8496W        W12696   4.506   7.617   2.702
 8497W        W12697   5.458   6.112   2.803
 8498W        W12698   4.731   8.543   2.892
 8499W        W12699   4.311   2.845   1.941
 8500W        W12700   6.076  10.981   0.699
 8501W        W12701   7.883   4.200  10.593
 8502W        W12702   4.275  11.063   0.394
 8503W        W12703   5.214  11.435  11.102
 8504W        W12704   7.207   9.223   9.886
 8505W        W12705   9.395   6.161  11.534
 8506W        W12706  10.698   3.811   3.648
 8507W        W12707   3.956   7.996  10.491
 8508W        W12708   6.852  10.748  10.743
 8509W        W12709   4.899  10.060   0.968
 8510W        W12710   1.730   0.825   3.184
 8511W        W12711   7.091  10.478   9.450
 8512W        W12712   9.829  10.814   8.942
 8513W        W12713   2.142   0.233   2.436
 8514W        W12714   2.343   6.103  11.421
 8515W        W12715   4.173   1.742   9.126
 8516W        W12716  10.441   4.259  11.034
 8517W        W12717   9.841   0.440   1.327
 8518W        W12718   0.874   4.972   0.563
 8519W        W12719   1.305   5.248   9.954
 8520W        W12720   8.490   5.813   0.775
 8521W        W12721   1.204   8.106  11.283
 8522W        W12722   0.239   3.446  11.958
 8523W        W12723   2.728   3.849   0.688
 8524W        W12724   2.624   5.110   9.440
 8525W        W12725   9.891   5.709   0.737
 8526W        W12726   8.555   8.250   1.016
 8527W        W12727   5.991   9.343   8.538
 8528W        W12728   9.594   3.155  10.437
 8529W        W12729   6.360   2.128   1.731
 8530W        W12730   5.832   9.849   1.489
 8531W        W12731   7.140   9.888   2.189
 8532W        W12732   4.694  11.224   9.653
 8533W        W12733   5.688   8.353   9.492
 8534W        W12734   5.635   5.843   2.008
 8535ION    NA+12735   2.746   6.705  11.893
 8536ION    NA+12736   4.251   1.062   2.049
 8537ION    NA+12737   1.187  10.615   3.392
 8538ION    NA+12738   6.839   0.924   1.410
 8539ION    NA+12739   7.217   3.404   9.439
 8540ION    NA+12740  10.216   9.566   3.486
 8541ION    NA+12741  11.472   2.047  11.413
 8542ION    NA+12742   5.796   4.433   0.498
 8543ION    NA+12743  11.236   7.144   9.658
 8544ION    NA+12744   8.221   4.626   9.413
 8545ION    NA+12745   6.809   6.396  10.869
 8546ION    NA+12746   7.802   2.247   1.623
 8547ION    NA+12747   8.161   5.014   0.931
 8548ION    NA+12748   8.135   2.329   3.254
 8549ION    NA+12749   1.884  11.002   0.967
 8550ION    NA+12750   0.918   9.324  11.878
 8551ION    NA+12751   7.893   6.203  11.526
 8552ION    NA+12752   5.256   1.474   3.175
 8553ION    NA+12753   3.993  10.437  10.425
 8554ION    NA+12754   1.872   3.383   9.932
 8555ION    NA+12755   9.852   4.730   2.276
 8556ION    NA+12756   0.874   8.694   0.828
 8557ION    NA+12757   6.341   7.428  11.896
 8558ION    NA+12758   8.032   3.414   3.149
 8559ION    NA+12759   8.883   6.360  10.674
 8560ION    NA+12760   9.710   7.724   0.941
 8561ION    NA+12761   6.246  11.207   3.370
 8562ION    NA+12762   8.292   2.274   0.314
 8563ION    NA+12763   0.953   2.788   9.764
 8564ION    NA+12764   2.119   0.633   0.279
 8565ION    NA+12765   3.392   2.843  11.804
 8566ION    NA+12766   6.515   7.717   1.947
 8567ION    NA+12767   3.176   4.900   8.229
 8568ION    NA+12768   4.671  11.077   2.535
 8569ION    NA+12769   5.708  10.257   1.211
 8570ION    NA+12770   3.182   4.722  10.813
 8571ION    NA+12771  10.438   0.485  11.530
 8572ION    NA+12772   7.240   7.707   2.976
 8573ION    NA+12773   7.650   3.780   0.268
 8574ION    NA+12774  10.231   7.443  11.965
 8575ION    NA+12775   3.718   9.992   2.211
 8576ION    NA+12776   3.216   1.132  10.174
 8577ION    NA+12777   1.494   7.725   9.975
 8578ION    NA+12778   1.463   8.718   8.875
 8579ION    NA+12779   3.137   9.390  11.849
 8580ION    NA+12780   8.894   0.172   1.331
 8581ION    NA+12781   0.590   4.960   9.977
 8582ION    NA+12782   5.665   7.102   2.487
 8583ION    NA+12783   2.905   3.880   9.374
 8584ION    NA+12784   7.022   5.595   0.639
 8585ION    NA+12785   3.535  11.499   1.706
 8586ION    NA+12786   0.905  10.776   2.235
 8587ION    NA+12787   4.849   6.458   1.952
 8588ION    NA+12788   1.013   6.278   3.121
 8589ION    NA+12789   9.907   1.987   8.733
 8590ION    NA+12790   6.719   7.001   3.207
 8591ION    NA+12791   9.190  10.343   1.840
 8592ION    NA+12792   1.502   4.185   0.734
 8593ION    NA+12793   1.535   4.458   1.696
 8594ION    NA+12794   3.358   6.191   3.316
 8595ION    NA+12795   9.609   7.660   3.485
 8596ION    NA+12796   5.794   8.065  11.494
 8597ION    NA+12797   1.156   5.982   9.698
 8598ION    NA+12798   8.387   3.673   2.208
 8599ION    NA+12799   9.627   2.306   3.715
 8600ION    NA+12800   7.476   1.776   0.021
 8601ION    NA+12801   8.631   8.359   2.321
 8602ION    NA+12802   0.013  11.070   3.271
 8603ION    NA+12803   6.742   7.375   4.187
 8604ION    NA+12804   5.323  11.281  11.595
 8605ION    NA+12805   6.062   2.505   2.632
 8606ION    NA+12806   8.275   8.549   9.823
 8607ION    NA+12807   7.323   8.849   1.429
 8608ION    NA+12808   4.720  10.156   2.148
 8609ION    NA+12809   4.263   5.782   1.984
 8610ION    NA+12810   0.056   8.066   1.954
 8611ION    NA+12811   4.187  10.124   1.303
 8612ION    NA+12812   8.139   0.903   9.735
 8613ION    NA+12813   4.331   5.908   0.393
 8614ION    NA+12814  10.054   0.415   0.861
 8615ION    NA+12815   9.677   7.856   8.979
 8616ION    NA+12816   6.093   3.924   1.814
 8617ION    NA+12817   7.373   9.363  10.787
 8618ION    NA+12818   5.903   3.179   3.354
 8619ION    NA+12819   1.738   1.136   1.354
 8620ION    NA+12820   7.650   2.858   8.627
 8621ION    NA+12821   6.176   8.500   9.476
 8622ION    NA+12822   0.625   4.649   1.650
 8623ION    NA+12823   3.180   6.621   8.576
 8624ION    NA+12824   4.138   6.802   0.244
 8625ION    CL-12825   5.609   1.664   2.125
 8626ION    CL-12826   0.201   7.863  11.305
 8627ION    CL-12827  11.352   4.337   8.638
 8628ION    CL-12828   2.135   8.474   2.253
 8629ION    CL-12829   6.929   7.866   2.033
 8630ION    CL-12830   4.669   8.919   1.507
 8631ION    CL-12831   8.213   3.655  11.384
 8632ION    CL-12832   0.164   7.811   2.303
 8633ION    CL-12833   9.165   5.923   3.513
 8634ION    CL-12834   0.267   0.868   0.235
 8635ION    CL-12835   7.433  11.482   0.819
 8636ION    CL-12836   3.362  11.289   1.353
 8637ION    CL-12837   6.968   3.145   9.704
 8638ION    CL-12838   5.094   0.537   1.251
 8639ION    CL-12839   0.003  11.427   2.990
 8640ION    CL-12840   4.783   1.174  11.043
 8641ION    CL-12841   5.792   9.886   0.959
 8642ION    CL-12842  11.149   7.354   9.272
 8643ION    CL-12843   0.224   4.450   1.600
 8644ION    CL-12844   6.080   7.783  11.734
 8645ION    CL-12845  10.596  10.870  10.057
 8646ION    CL-12846   3.542  11.332  11.995
 8647ION    CL-12847   7.261   1.060   1.478
 8648ION    CL-12848   9.118   1.586   3.598
 8649ION    CL-12849   3.227  11.142   9.141
 8650ION    CL-12850   0.993  10.348   9.589
 8651ION    CL-12851   3.389   2.941   3.177
 8652ION    CL-12852   6.953   7.366   3.069
 8653ION    CL-12853   6.711   2.773  10.596
 8654ION    CL-12854  11.460   3.532   1.321
 8655ION    CL-12855   2.356   0.437  10.136
 8656ION    CL-12856   9.483  10.652  10.351
 8657ION    CL-12857   1.016   7.898   3.398
 8658ION    CL-12858   6.382   7.194   4.401
 8659ION    CL-12859   8.478   4.982   3.623
 8660ION    CL-12860   5.453   2.910   8.607
 8661ION    CL-12861   8.194   6.508   2.759
 8662ION    CL-12862   7.005   9.494   2.507
 8663ION    CL-12863   5.157   3.390   2.764
 8664ION    CL-12864  11.241   3.576  11.928
 8665ION    CL-12865  10.526   3.177   1.373
 8666ION    CL-12866   7.671   7.357   9.611
 8667ION    CL-12867   0.997   1.535   0.383
 8668ION    CL-12868   3.339   1.558  10.132
 8669ION    CL-12869  10.889   3.589  10.137
 8670ION    CL-12870   1.352   1.235   9.656
 8671ION    CL-12871  11.437   5.493   2.348
 8672ION    CL-12872   2.667   6.817   9.987
 8673ION    CL-12873   6.945   9.422  10.673
 8674ION    CL-12874   8.588   4.320   0.962
 8675ION    CL-12875   4.248   8.733  11.009
 8676ION    CL-12876   4.972   3.625   0.724
 8677ION    CL-12877   0.246   5.137  10.204
 8678ION    CL-12878   5.840   4.085   2.151
 8679ION    CL-12879   9.105   9.535   3.581
 8680ION    CL-12880  10.966   5.522   8.086
 8681ION    CL-12881   3.027   7.756   9.870
 8682ION    CL-12882   5.305   1.185  11.938
 8683ION    CL-12883   9.878   6.705   1.198
 8684ION    CL-12884   9.209   7.181   2.941
 8685ION    CL-12885   4.090   7.258   0.264
 8686ION    CL-12886   9.329   6.418  10.696
 8687ION    CL-12887   0.720   4.605   2.892
 8688ION    CL-12888  10.443  10.438   1.124
 8689ION    CL-12889   7.114  10.111   1.289
 8690ION    CL-12890   5.317   3.714   9.637
 8691ION    CL-12891   4.527   6.148   2.020
 8692ION    CL-12892   4.229   6.345   0.310
 8693ION    CL-12893  10.906   0.928   8.511
 8694ION    CL-12894   5.543   8.314  11.201
 8695ION    CL-12895   5.259   3.091  11.486
 8696ION    CL-12896   4.301   3.096   9.106
 8697ION    CL-12897   9.963   7.493  11.614
 8698ION    CL-12898   0.719   6.000   3.354
 8699ION    CL-12899  10.069   3.137   2.700
 8700ION    CL-12900   9.293   7.802   0.792
 8701ION    CL-12901   7.504   1.755  11.577
 8702ION    CL-12902   2.674   5.730   2.118
 8703ION    CL-12903   5.677  10.669   1.408
 8704ION    CL-12904   1.190   2.289   1.864
 8705ION    CL-12905   1.153  11.265  11.035
 8706ION    CL-12906   4.903   1.900   9.851
 8707ION    CL-12907   8.073  11.315   1.903
 8708ION    CL-12908   1.405   9.413   2.693
 8709ION    CL-12909   6.628   7.124   0.078
 8710ION    CL-12910   1.733  10.743  10.339
 8711ION    CL-12911   0.940   4.914   1.450
 8712ION    CL-12912   6.015   9.528  11.510
 8713ION    CL-12913   5.243  10.270   8.796
 8714ION    CL-12914   9.543  10.328   1.567
  11.50000  11.50000  12.00000
