Protein in INSANE! Membrane UpperLeaflet>POPC=1.0 LowerLeaflet>POPC=1.0
11530
    1AU     AUC    1   1.775   1.386   5.926 -0.0188 -0.1005 -0.0363
    1AU     AUC    2   2.074   1.211   5.926 -0.0470  0.0237 -0.0443
    1AU     AUC    3   1.758   1.110   5.795  0.0106 -0.0201 -0.0370
    1AU     AUC    4   1.777   1.676   6.107  0.0191 -0.0517  0.0098
    1AU     AUC    5   1.513   1.530   5.956  0.0908 -0.0176 -0.0281
    1AU     AUC    6   1.631   1.407   6.210 -0.0435  0.0659 -0.0909
    1AU     AUC    7   1.788   1.124   6.106  0.0396  0.0631  0.0612
    1AU     AUC    8   1.769   1.659   5.744  0.0929  0.0217  0.0153
    1AU     AUC    9   1.944   1.380   5.674 -0.0099 -0.1235 -0.0247
    1AU     AUC   10   1.601   1.362   5.659  0.0784  0.0568 -0.0151
    1AU     AUC   11   1.491   1.196   5.977  0.0935  0.0013 -0.0207
    1AU     AUC   12   2.044   1.557   5.942 -0.0563 -0.0530 -0.0453
    1AU     AUC   13   1.949   1.372   6.209  0.0442  0.0076 -0.1036
    1AU     AUC   14   2.362   0.999   5.898  0.0147 -0.0039  0.0679
    1AU     AUC   15   2.109   0.873   5.752  0.0030 -0.0105 -0.0257
    1AU     AUC   16   1.734   0.809   5.583  0.0372  0.1406 -0.0764
    1AU     AUC   17   1.721   1.956   6.256 -0.1099 -0.1296  0.0050
    1AU     AUC   18   1.439   1.878   6.107  0.1034 -0.0525 -0.0065
    1AU     AUC   19   1.182   1.689   5.954 -0.0793  0.0915  0.0190
    1AU     AUC   20   1.492   1.351   6.553 -0.1205  0.0282  0.1151
    1AU     AUC   21   1.656   1.041   6.489 -0.0514 -0.0156  0.0571
    1AU     AUC   22   1.809   0.816   6.330 -0.0607 -0.0748  0.0178
    1AU     AUC   23   1.759   1.964   5.570 -0.0550 -0.0172  0.0104
    1AU     AUC   24   1.981   1.738   5.492  0.0277 -0.0136  0.0051
    1AU     AUC   25   2.125   1.405   5.370 -0.1274 -0.0605 -0.0971
    1AU     AUC   26   1.412   1.379   5.379  0.0447  0.1191 -0.0432
    1AU     AUC   27   1.248   1.181   5.670  0.0401  0.0314  0.0011
    1AU     AUC   28   1.217   1.019   6.022  0.0995  0.0924  0.0188
    1AU     AUC   29   2.347   1.737   5.932 -0.0239  0.0082 -0.0479
    1AU     AUC   30   2.264   1.589   6.201 -0.0226  0.0509  0.0537
    1AU     AUC   31   2.192   1.405   6.463 -0.0765  0.0404  0.0451
    1AU     AUC   32   1.578   1.093   5.461  0.0292 -0.0589 -0.0212
    1AU     AUC   33   1.439   0.861   5.746  0.0356  0.1091  0.0851
    1AU     AUC   34   2.397   1.379   5.937  0.0408 -0.0025 -0.0248
    1AU     AUC   35   2.341   1.200   6.207 -0.0235 -0.0002 -0.0362
    1AU     AUC   36   1.256   1.518   5.640  0.0244  0.0163 -0.0796
    1AU     AUC   37   1.151   1.359   6.001 -0.1012 -0.0311 -0.0620
    1AU     AUC   38   2.029   1.895   6.087  0.2108 -0.0815  0.0593
    1AU     AUC   39   1.966   1.705   6.380  0.0773  0.0332 -0.0623
    1AU     AUC   40   2.103   0.884   6.079 -0.0128  0.0697  0.0052
    1AU     AUC   41   1.772   0.822   5.941 -0.0013 -0.0177  0.0462
    1AU     AUC   42   1.623   1.676   6.416  0.0143 -0.1480  0.0079
    1AU     AUC   43   1.305   1.549   6.263 -0.0269  0.0402  0.0119
    1AU     AUC   44   2.241   1.213   5.635  0.0362  0.0561  0.0677
    1AU     AUC   45   1.983   1.097   5.469  0.0635 -0.0074 -0.0019
    1AU     AUC   46   1.694   1.988   5.908  0.0041 -0.0101 -0.0083
    1AU     AUC   47   1.440   1.834   5.727 -0.0380  0.1036 -0.0699
    1AU     AUC   48   1.332   1.168   6.326  0.0664  0.0039  0.0333
    1AU     AUC   49   1.490   0.923   6.199  0.0260 -0.0666 -0.0705
    1AU     AUC   50   1.605   1.677   5.448  0.0006 -0.0609 -0.0916
    1AU     AUC   51   1.824   1.412   5.338 -0.0237 -0.0225 -0.0607
    1AU     AUC   52   1.858   1.399   6.490  0.0323  0.0352 -0.0378
    1AU     AUC   53   2.072   1.098   6.381  0.0003  0.1613  0.0262
    1AU     AUC   54   2.034   1.913   5.770  0.0333 -0.0630  0.0819
    1AU     AUC   55   2.261   1.591   5.659 -0.0125 -0.0074 -0.0297
    1AU    AUSL   56   1.477   0.741   5.331 -0.0159  0.0217  0.0042
    1AU    AUSL   57   1.583   1.165   5.071 -0.0782 -0.0516  0.0511
    1AU     AUL   58   1.557   0.806   4.986 -0.0400 -0.0327  0.0599
    1AU       S   59   1.834   1.048   4.691  0.2448 -0.0009 -0.4348
    1AU     LIG   60   2.097   1.415   4.450  0.1451 -0.0643  0.2953
    1AU     LIG   61   2.374   1.861   4.453  0.0591 -0.0323  0.1614
    1AU       S   62   1.108   0.730   5.120  0.1232  0.3548 -0.0039
    1AU     LIG   63   0.798   0.229   5.221 -0.0113 -0.2186  0.0446
    1AU     LIG   64   0.616  -0.071   5.398 -0.0942  0.2832 -0.1683
    1AU    AUSL   65   1.232   1.123   5.350 -0.0132  0.0120  0.0135
    1AU    AUSL   66   1.055   1.138   5.816  0.0120 -0.0156  0.0585
    1AU     AUL   67   0.820   1.012   5.508 -0.0257 -0.0369  0.0650
    1AU       S   68   1.103   0.990   5.142  0.4474  0.0444 -0.0907
    1AU     LIG   69   1.287   1.166   4.720 -0.0317 -0.0377 -0.0101
    1AU     LIG   70   1.477   0.994   4.389  0.0892  0.3179 -0.2623
    1AU       S   71   0.512   1.550   5.176  0.0405 -0.0836  0.2247
    1AU     LIG   72   0.052   1.414   5.171 -0.2278 -0.2026  0.1842
    1AU     LIG   73  -0.027   0.983   5.092  0.1055 -0.1742 -0.3938
    1AU    AUSL   74   1.160   0.782   5.619  0.0256 -0.0057  0.0455
    1AU    AUSL   75   1.493   0.527   5.749 -0.0917  0.0405 -0.0336
    1AU     AUL   76   1.324   0.433   5.422  0.1037 -0.0760 -0.0285
    1AU       S   77   0.902   0.562   5.595  0.0812 -0.2875 -0.1321
    1AU     LIG   78   0.449   0.668   5.599  0.1555  0.1955  0.0596
    1AU     LIG   79   0.036   0.799   5.584  0.0940 -0.0035 -0.1286
    1AU       S   80   1.267   0.303   5.855 -0.1073 -0.4777 -0.2625
    1AU     LIG   81   1.591  -0.120   5.872  0.2477 -0.2055 -0.1585
    1AU     LIG   82   1.504  -0.451   6.139 -0.2383  0.0248  0.0102
    1AU    AUSL   83   2.675   1.173   6.141  0.0207  0.0892  0.0158
    1AU    AUSL   84   2.448   0.988   6.500  0.0141  0.0786  0.1167
    1AU     AUL   85   2.827   1.059   6.463  0.0249 -0.0276  0.0577
    1AU       S   86   3.055   1.413   6.302  0.1615  0.4821  0.0859
    1AU     LIG   87   3.230   1.043   6.115 -0.3374  0.2240 -0.0610
    1AU     LIG   88   3.615   1.116   5.898  0.0027  0.2478 -0.1056
    1AU       S   89   2.640   0.664   6.537  0.1153  0.1702  0.4681
    1AU     LIG   90   2.410   0.379   6.941  0.1133  0.2596  0.0231
    1AU     LIG   91   2.536   0.510   7.354  0.1119 -0.1475 -0.2033
    1AU    AUSL   92   2.573   1.576   6.064 -0.0040  0.0461  0.1536
    1AU    AUSL   93   2.482   1.221   5.748  0.0792 -0.0083 -0.0821
    1AU     AUL   94   2.851   1.250   5.884 -0.0727  0.0282  0.0220
    1AU       S   95   3.098   1.314   5.353 -0.2366 -0.2767  0.0443
    1AU     LIG   96   3.127   0.981   5.117  0.0750 -0.1113  0.0731
    1AU     LIG   97   3.410   0.933   4.795 -0.0570 -0.1625 -0.5144
    1AU       S   98   2.959   1.677   6.051 -0.0232  0.1444  0.1650
    1AU     LIG   99   2.986   1.938   5.734 -0.0134 -0.0854  0.1734
    1AU     LIG  100   2.804   2.289   5.843  0.0469 -0.1221  0.0771
    1AU    AUSL  101   2.522   1.417   6.468  0.0898  0.0526 -0.0216
    1AU    AUSL  102   2.465   1.963   6.189 -0.0276  0.0403  0.0413
    1AU     AUL  103   2.652   1.740   6.399 -0.0799  0.0221  0.0500
    1AU       S  104   2.597   2.250   6.518 -0.0878 -0.0478  0.1702
    1AU     LIG  105   2.998   2.171   6.247  0.0983 -0.2732 -0.3357
    1AU     LIG  106   3.271   2.434   6.089 -0.1778  0.1773  0.2860
    1AU       S  107   3.101   1.644   6.241 -0.1741  0.0218 -0.3218
    1AU     LIG  108   3.533   1.582   6.515  0.0078 -0.4335  0.1965
    1AU     LIG  109   3.863   1.714   6.765 -0.1127 -0.2021 -0.3016
    1AU    AUSL  110   0.897   1.556   5.871  0.0157  0.0494  0.0810
    1AU    AUSL  111   0.948   1.115   6.233  0.1170  0.0409  0.0826
    1AU     AUL  112   0.713   1.233   5.953 -0.0514 -0.0459  0.0309
    1AU       S  113   0.520   1.423   5.498 -0.1864 -0.0546 -0.0807
    1AU     LIG  114   0.191   1.180   5.800 -0.0433 -0.0155  0.1751
    1AU     LIG  115   0.011   0.944   6.096  0.1504  0.1353  0.0201
    1AU       S  116   0.667   1.299   6.532  0.1970  0.0579  0.2718
    1AU     LIG  117   0.437   0.944   6.457  0.0782 -0.0417 -0.0713
    1AU     LIG  118   0.044   0.768   6.584 -0.1349 -0.4469 -0.0556
    1AU    AUSL  119   0.968   1.441   5.458  0.0312 -0.0266  0.0660
    1AU    AUSL  120   1.207   1.727   5.649  0.0171  0.0528  0.0107
    1AU     AUL  121   0.793   1.775   5.678  0.0709  0.0305 -0.0400
    1AU       S  122   0.922   1.890   5.265  0.0157 -0.2014 -0.1899
    1AU     LIG  123   0.484   2.094   5.297  0.0513  0.0163  0.4350
    1AU     LIG  124   0.093   2.364   5.436 -0.0333  0.2919  0.0406
    1AU       S  125   0.781   1.448   5.299  0.0622 -0.4368 -0.3376
    1AU     LIG  126   0.899   1.453   4.935  0.2186  0.1172 -0.0151
    1AU     LIG  127   1.183   1.636   4.614  0.0117 -0.0721 -0.2123
    1AU    AUSL  128   2.095   2.117   6.386  0.0566  0.0556  0.0221
    1AU    AUSL  129   2.120   1.993   5.944  0.1162 -0.0472  0.0837
    1AU     AUL  130   2.308   2.264   6.135  0.0736 -0.0121  0.0272
    1AU       S  131   2.374   2.432   6.549 -0.2117 -0.2067 -0.0485
    1AU     LIG  132   2.513   2.391   6.961 -0.0910 -0.3161  0.2519
    1AU     LIG  133   2.234   2.410   7.293 -0.1928  0.0200 -0.3109
    1AU       S  134   2.080   2.686   5.927  0.4171 -0.2531  0.0507
    1AU     LIG  135   2.484   2.778   5.961 -0.0262 -0.3297 -0.3689
    1AU     LIG  136   2.936   2.812   6.016 -0.3176 -0.0083 -0.3950
    1AU    AUSL  137   2.204   1.675   6.396 -0.0588 -0.0092 -0.0456
    1AU    AUSL  138   1.815   1.872   6.564 -0.0228 -0.1554  0.0302
    1AU     AUL  139   2.276   1.979   6.643  0.0051  0.0897 -0.0530
    1AU       S  140   1.923   2.005   6.933 -0.0869 -0.1528  0.1407
    1AU     LIG  141   1.983   2.453   6.845  0.0565 -0.0926  0.2480
    1AU     LIG  142   1.657   2.846   6.786  0.1455 -0.2664  0.1518
    1AU       S  143   2.708   2.517   6.467  0.2469 -0.1210 -0.1808
    1AU     LIG  144   2.973   2.816   6.753 -0.2316 -0.1210  0.1630
    1AU     LIG  145   2.958   3.176   7.026 -0.1074  0.2369  0.1263
    1AU    AUSL  146   1.962   0.520   6.161  0.1132 -0.0781 -0.0618
    1AU    AUSL  147   2.413   0.844   6.101 -0.0882 -0.0504 -0.0552
    1AU     AUL  148   2.281   0.474   6.295  0.0598 -0.0504 -0.0762
    1AU       S  149   2.639   0.699   6.158  0.3376  0.3560 -0.0306
    1AU     LIG  150   2.941   0.670   5.853  0.0722  0.0333 -0.0495
    1AU     LIG  151   3.171   0.859   5.629  0.0160  0.0524 -0.2133
    1AU       S  152   1.989   0.131   5.696 -0.2703 -0.3791 -0.3194
    1AU     LIG  153   2.337  -0.174   5.594 -0.2434 -0.1222  0.1044
    1AU     LIG  154   2.738  -0.361   5.777 -0.0886  0.0285 -0.1155
    1AU    AUSL  155   2.274   0.556   5.828 -0.0501 -0.0533 -0.0449
    1AU    AUSL  156   2.114   0.673   5.387 -0.0388 -0.0067 -0.0773
    1AU     AUL  157   2.396   0.363   5.450 -0.0757  0.0650 -0.0220
    1AU       S  158   2.162   0.241   5.854 -0.0731 -0.0230  0.6433
    1AU     LIG  159   2.403  -0.119   6.093  0.6012 -0.1184  0.0240
    1AU     LIG  160   2.739  -0.323   6.321 -0.1909  0.0026  0.0322
    1AU       S  161   2.456   0.662   5.087  0.0174  0.2561  0.0033
    1AU     LIG  162   2.581   0.117   5.062  0.1589 -0.1280 -0.1663
    1AU     LIG  163   2.764  -0.146   5.291 -0.2738  0.0179 -0.0606
    1AU    AUSL  164   1.888   0.658   5.748  0.0197 -0.0696  0.0180
    1AU    AUSL  165   1.599   0.727   6.121 -0.0092 -0.1321  0.0829
    1AU     AUL  166   1.680   0.369   6.036  0.1294 -0.0483  0.0758
    1AU       S  167   1.118   0.155   6.098 -0.1300  0.3207  0.0971
    1AU     LIG  168   1.310  -0.070   6.316  0.1949  0.1254  0.3463
    1AU     LIG  169   1.804  -0.019   6.321 -0.2420  0.2415  0.3736
    1AU       S  170   1.922   0.340   5.625  0.4128  0.4934  0.2601
    1AU     LIG  171   1.733   0.322   5.196 -0.2288  0.2490  0.3471
    1AU     LIG  172   1.687  -0.020   4.936 -0.5379 -0.2861 -0.2884
    1AU    AUSL  173   1.310   1.680   6.584 -0.1023  0.0221  0.1224
    1AU    AUSL  174   0.952   1.549   6.278  0.0206 -0.1306 -0.0352
    1AU     AUL  175   0.968   1.787   6.571  0.0106  0.0860 -0.0091
    1AU       S  176   0.604   1.536   6.392  0.1742 -0.2078  0.1152
    1AU     LIG  177   0.374   1.648   6.040  0.0723  0.1023  0.2792
    1AU     LIG  178   0.247   1.854   5.667 -0.0027  0.3041 -0.1590
    1AU       S  179   1.222   1.569   7.000 -0.0926  0.1866 -0.1731
    1AU     LIG  180   1.496   1.217   7.216  0.2014 -0.1615  0.2320
    1AU     LIG  181   1.915   1.242   7.387  0.0856  0.2476 -0.3193
    1AU    AUSL  182   1.462   2.071   6.472  0.0219 -0.0094  0.0524
    1AU    AUSL  183   1.633   1.588   6.846  0.0307  0.1312 -0.0395
    1AU     AUL  184   1.453   1.957   6.797 -0.1087  0.0787 -0.0445
    1AU       S  185   1.602   2.329   6.568 -0.3854  0.5210 -0.1884
    1AU     LIG  186   1.277   2.618   6.545 -0.0911  0.1076 -0.1315
    1AU     LIG  187   1.247   3.066   6.837  0.1279  0.2278 -0.0882
    1AU       S  188   1.672   1.682   7.194  0.0278  0.2665 -0.4807
    1AU     LIG  189   1.428   1.885   7.426  0.1245 -0.1870  0.0511
    1AU     LIG  190   1.086   1.667   7.713 -0.1546 -0.1246 -0.3029
    1AU    AUSL  191   1.245   1.837   6.180  0.0013  0.0432 -0.0689
    1AU    AUSL  192   1.395   2.257   6.099  0.0273 -0.0181  0.0272
    1AU     AUL  193   1.161   2.163   6.397 -0.0088  0.0852 -0.1086
    1AU       S  194   1.049   2.505   6.057  0.1162  0.0210 -0.1430
    1AU     LIG  195   1.140   2.704   5.695 -0.0418 -0.0564 -0.1951
    1AU     LIG  196   1.034   3.014   5.401 -0.1689 -0.1024 -0.2878
    1AU       S  197   0.797   1.945   6.178  0.3376 -0.0967  0.0129
    1AU     LIG  198   0.485   1.979   6.565 -0.1641 -0.0074  0.0936
    1AU     LIG  199   0.526   1.966   6.946 -0.5282 -0.0379  0.1272
    1AU    AUSL  200   2.246   1.080   5.356 -0.0574  0.0269  0.0900
    1AU    AUSL  201   1.817   0.980   5.382  0.0136  0.0228  0.0506
    1AU     AUL  202   2.009   0.789   5.102 -0.0660 -0.0157  0.0245
    1AU       S  203   2.442   0.999   5.073 -0.2398 -0.0131  0.2796
    1AU     LIG  204   2.705   1.134   4.924 -0.1567  0.0965  0.1765
    1AU     LIG  205   2.951   1.065   4.639  0.0457  0.2475 -0.4837
    1AU       S  206   2.147   0.981   4.666 -0.2675 -0.2387  0.0703
    1AU     LIG  207   2.252   0.628   4.432 -0.3277 -0.0402  0.0740
    1AU     LIG  208   2.113   0.218   4.325 -0.2580 -0.1165 -0.0416
    1AU    AUSL  209   2.484   0.830   5.608 -0.0304 -0.0149 -0.0330
    1AU    AUSL  210   2.494   1.417   5.294 -0.0287 -0.0832 -0.1113
    1AU     AUL  211   2.642   1.094   5.466  0.0267  0.0188 -0.0397
    1AU       S  212   2.615   0.719   5.245  0.0996  0.4343  0.0686
    1AU     LIG  213   3.019   0.515   5.233  0.4846 -0.0110 -0.3484
    1AU     LIG  214   3.113   0.116   4.947 -0.1078 -0.1115  0.0099
    1AU       S  215   2.843   1.477   5.222  0.1419  0.2693  0.4467
    1AU     LIG  216   3.046   1.929   5.129 -0.0188 -0.1146  0.3159
    1AU     LIG  217   3.484   2.199   5.172 -0.0842  0.1647  0.0357
    1AU    AUSL  218   1.524   2.094   5.704 -0.0226 -0.0785 -0.0814
    1AU    AUSL  219   1.803   2.225   6.106  0.0433 -0.0322 -0.0021
    1AU     AUL  220   1.511   2.436   5.884 -0.0307 -0.1135  0.0378
    1AU       S  221   1.899   2.520   6.117  0.1251 -0.4171  0.0213
    1AU     LIG  222   1.645   2.762   6.229 -0.0753  0.5299  0.0680
    1AU     LIG  223   1.279   3.004   6.088  0.0776 -0.0125 -0.1814
    1AU       S  224   0.902   2.466   6.187  0.1001  0.5766  0.4439
    1AU     LIG  225   0.578   2.515   6.453  0.1672 -0.0509 -0.1764
    1AU     LIG  226   0.299   2.467   6.866 -0.0571  0.1033 -0.0628
    1AU    AUSL  227   1.104   2.079   5.850  0.0186  0.0702  0.0293
    1AU    AUSL  228   1.331   2.014   5.341  0.0265  0.0562  0.0518
    1AU     AUL  229   1.142   2.164   5.596  0.0231  0.0159 -0.0251
    1AU       S  230   1.068   2.026   5.130 -0.1105 -0.1600  0.0938
    1AU     LIG  231   0.946   2.464   5.206 -0.2384 -0.0686  0.0134
    1AU     LIG  232   0.656   2.591   5.466  0.0779  0.1250  0.1467
    1AU       S  233   0.941   2.373   5.993 -0.3855 -0.4745  0.2456
    1AU     LIG  234   0.534   2.294   5.869 -0.3072 -0.2705  0.1848
    1AU     LIG  235   0.231   2.089   6.156 -0.1944  0.0025 -0.0637
    1AU    AUSL  236   1.240   0.848   6.412  0.0446 -0.0116 -0.0103
    1AU    AUSL  237   1.164   1.276   6.550 -0.0757  0.0125 -0.0339
    1AU     AUL  238   0.948   0.919   6.523 -0.0756 -0.0346 -0.1240
    1AU       S  239   0.924   1.305   6.762 -0.0762 -0.1170 -0.0914
    1AU     LIG  240   1.007   0.996   7.009 -0.2405  0.0246 -0.1325
    1AU     LIG  241   1.294   0.706   7.298  0.2787 -0.2720 -0.2190
    1AU       S  242   1.187   0.587   6.744 -0.3334  0.0025 -0.0432
    1AU     LIG  243   0.854   0.486   6.458  0.1652 -0.0202  0.1286
    1AU     LIG  244   0.629   0.743   6.028 -0.2486 -0.1364  0.2645
    1AU    AUSL  245   1.421   1.010   6.780  0.0502 -0.0358  0.0290
    1AU    AUSL  246   1.871   0.869   6.729  0.1360 -0.0315 -0.0311
    1AU     AUL  247   1.664   0.823   6.979  0.1468 -0.0741 -0.1054
    1AU       S  248   1.250   0.331   6.853  0.1255 -0.1328  0.5864
    1AU     LIG  249   0.955   0.032   6.671 -0.1931 -0.6659 -0.3220
    1AU     LIG  250   0.739  -0.280   6.319  0.2964 -0.1439  0.1189
    1AU       S  251   2.189   0.886   7.090 -0.0154 -0.1202  0.0890
    1AU     LIG  252   2.063   0.575   7.333  0.3119  0.0283 -0.0541
    1AU     LIG  253   2.136   0.390   7.748  0.1392 -0.0607 -0.1545
    1AU    AUSL  254   1.601   0.632   6.523  0.0077 -0.0074 -0.0432
    1AU    AUSL  255   1.173   0.723   6.027  0.0786  0.0484  0.0249
    1AU     AUL  256   1.341   0.519   6.304  0.1734  0.0474  0.0087
    1AU       S  257   1.001   0.434   6.040 -0.0922  0.3424  0.3133
    1AU     LIG  258   0.729   0.070   5.821  0.1529 -0.3117  0.2355
    1AU     LIG  259   0.245   0.020   5.848  0.2180 -0.2723 -0.0858
    1AU       S  260   1.516   0.452   6.692 -0.1463  0.2357  0.0551
    1AU     LIG  261   1.653   0.365   7.173  0.1105 -0.1112 -0.1943
    1AU     LIG  262   1.779   0.180   7.475  0.1506 -0.2261 -0.1112
    1AU    AUSL  263   1.678   1.548   5.239  0.0814 -0.0624  0.0274
    1AU    AUSL  264   2.003   1.269   5.071 -0.0302  0.0122 -0.0425
    1AU     AUL  265   1.662   1.460   4.890 -0.1489  0.0652 -0.0281
    1AU       S  266   1.489   2.464   5.377  0.7185  0.0874 -0.0288
    1AU     LIG  267   1.370   2.812   5.089 -0.1367 -0.2411  0.2931
    1AU     LIG  268   1.523   2.986   4.707 -0.0178  0.0818 -0.1421
    1AU       S  269   2.062   1.227   4.894 -0.1089  0.1851  0.0174
    1AU     LIG  270   2.412   1.520   4.827  0.0673 -0.0138  0.1679
    1AU     LIG  271   2.589   1.942   4.855 -0.2492 -0.1382 -0.1131
    1AU    AUSL  272   1.743   1.956   5.297 -0.0436  0.0145  0.0679
    1AU    AUSL  273   1.270   1.597   5.203 -0.0625  0.0237  0.0553
    1AU     AUL  274   1.527   1.879   5.023 -0.0962 -0.0312  0.0056
    1AU       S  275   1.679   2.263   5.231  0.2198  0.0463 -0.1455
    1AU     LIG  276   1.339   2.364   4.890  0.1697  0.5898  0.1421
    1AU     LIG  277   1.067   2.697   4.667  0.0207  0.5570  0.1610
    1AU       S  278   0.884   1.937   4.990  0.1161  0.0657 -0.0303
    1AU     LIG  279   0.977   2.133   4.659 -0.1284  0.0634  0.1801
    1AU     LIG  280   0.999   1.988   4.245  0.1385  0.5748 -0.0771
    1AU    AUSL  281   2.060   1.693   5.109  0.1079  0.0225 -0.0516
    1AU    AUSL  282   2.147   2.074   5.421  0.0040 -0.1366  0.0332
    1AU     AUL  283   2.059   2.056   5.059 -0.0420 -0.0973 -0.0099
    1AU       S  284   2.205   2.462   5.286  0.4589  0.1407 -0.1376
    1AU     LIG  285   2.695   2.308   5.272  0.1221 -0.1156 -0.3028
    1AU     LIG  286   3.122   2.373   5.482  0.1421  0.0790  0.2550
    1AU       S  287   1.725   2.508   5.211  0.3645 -0.1991 -0.0477
    1AU     LIG  288   1.929   2.634   4.778  0.0742 -0.2036  0.1780
    1AU     LIG  289   2.097   3.010   4.676  0.0301  0.0278  0.1692
    1AU    AUSL  290   2.129   1.190   6.659  0.0207 -0.0569 -0.1033
    1AU    AUSL  291   2.050   0.874   6.346 -0.1143  0.0087  0.0660
    1AU     AUL  292   2.208   0.758   6.628  0.0744 -0.0673 -0.0039
    1AU       S  293   2.306   1.137   6.911 -0.2372 -0.0935 -0.0505
    1AU     LIG  294   2.548   1.500   6.932 -0.1158 -0.3079 -0.0065
    1AU     LIG  295   2.664   1.897   6.926 -0.2530 -0.2917 -0.0175
    1AU       S  296   2.767   0.488   6.277  0.2545 -0.4355  0.4457
    1AU     LIG  297   2.696   0.271   5.893  0.1899 -0.0208 -0.1693
    1AU     LIG  298   2.899   0.129   5.649  0.2154 -0.3759 -0.0280
    1AU    AUSL  299   1.709   1.254   6.608  0.0612  0.0101  0.0119
    1AU    AUSL  300   2.081   1.592   6.794 -0.0242 -0.0043  0.0100
    1AU     AUL  301   1.914   1.303   6.927 -0.0138 -0.0410 -0.0659
    1AU       S  302   2.343   1.101   7.153  0.4307 -0.3716 -0.4152
    1AU     LIG  303   2.623   0.795   6.980  0.0917 -0.3044 -0.3005
    1AU     LIG  304   2.873   0.495   7.012 -0.3343 -0.0173  0.0863
    1AU       S  305   2.048   1.750   7.040  0.0807 -0.4395  0.0599
    1AU     LIG  306   2.307   1.960   7.311 -0.2327  0.3727 -0.0757
    1AU     LIG  307   2.484   2.058   7.674 -0.2379 -0.1468  0.0180
    1AU    AUSL  308   2.464   1.958   5.723 -0.0419 -0.0254  0.0043
    1AU    AUSL  309   1.907   2.295   5.700 -0.0704  0.0582 -0.0914
    1AU     AUL  310   2.292   2.274   5.697 -0.0142 -0.0190  0.0735
    1AU       S  311   1.924   2.536   5.692  0.0553  0.3750 -0.1242
    1AU     LIG  312   1.881   2.991   5.645  0.0917  0.3590  0.1765
    1AU     LIG  313   1.903   3.460   5.501  0.0085 -0.0540  0.1675
    1AU       S  314   2.291   2.656   5.391 -0.0304  0.1017  0.1854
    1AU     LIG  315   2.378   3.081   5.590  0.0995  0.1371 -0.0338
    1AU     LIG  316   2.615   3.489   5.745 -0.1851  0.3705  0.2946
    1AU    AUSL  317   2.226   1.658   5.496  0.0070 -0.0059 -0.0011
    1AU    AUSL  318   2.663   1.596   5.649  0.0353 -0.0372 -0.0420
    1AU     AUL  319   2.542   1.800   5.371 -0.0063 -0.1335 -0.0898
    1AU       S  320   2.234   2.763   5.160 -0.1773  0.7071  0.1517
    1AU     LIG  321   2.231   3.267   5.174 -0.0628 -0.4653  0.0534
    1AU     LIG  322   2.326   3.653   5.159  0.3296 -0.2303  0.1808
    1AU       S  323   2.921   1.499   5.479 -0.1688 -0.2077 -0.1469
    1AU     LIG  324   3.302   1.468   5.812  0.1493  0.0869  0.0824
    1AU     LIG  325   3.526   1.631   6.021  0.3446 -0.0146 -0.0505
    2POPC   NC3  326   1.646   6.881   7.573 -0.0335  0.0055 -0.3245
    2POPC   PO4  327   1.821   6.615   7.340 -0.1804  0.0281  0.0547
    2POPC   GL1  328   1.843   6.485   6.999  0.0826  0.3393  0.2781
    2POPC   GL2  329   2.135   6.610   6.876  0.2573  0.3708 -0.2398
    2POPC   C1A  330   1.746   6.553   6.552  0.1479  0.0773 -0.4001
    2POPC   D2A  331   1.565   6.841   6.291  0.0840 -0.0941 -0.2755
    2POPC   C3A  332   1.231   6.739   6.006  0.1154 -0.1491 -0.1160
    2POPC   C4A  333   1.172   6.449   5.669  0.1322 -0.1233  0.2510
    2POPC   C1B  334   2.226   6.793   6.498 -0.5906 -0.1771 -0.2282
    2POPC   C2B  335   2.009   6.744   6.050 -0.0601 -0.1357  0.1327
    2POPC   C3B  336   2.121   6.358   5.813  0.0358 -0.0735 -0.2065
    2POPC   C4B  337   2.055   5.919   5.547 -0.0905  0.0298 -0.0606
    3POPC   NC3  338   1.736   6.172   7.362  0.2569 -0.1847 -0.0269
    3POPC   PO4  339   2.266   6.251   7.512 -0.0635  0.0654  0.0688
    3POPC   GL1  340   2.209   6.068   7.140 -0.3104 -0.0432 -0.1519
    3POPC   GL2  341   2.017   5.908   7.075 -0.0675  0.0522  0.1376
    3POPC   C1A  342   2.409   6.083   6.735 -0.1068  0.0113 -0.0428
    3POPC   D2A  343   2.660   6.349   6.438 -0.0563  0.2734 -0.0779
    3POPC   C3A  344   2.956   6.462   6.291  0.2867  0.0272 -0.0591
    3POPC   C4A  345   2.883   6.657   5.906  0.2798  0.0586 -0.0750
    3POPC   C1B  346   2.138   5.662   6.660  0.0060 -0.5452 -0.1901
    3POPC   C2B  347   2.100   5.569   6.240  0.0421 -0.0818 -0.0357
    3POPC   C3B  348   2.106   5.456   5.748 -0.1808  0.4739 -0.1172
    3POPC   C4B  349   1.952   5.231   5.379 -0.1618 -0.0560 -0.1154
    4POPC   NC3  350   9.718   9.681   8.161  0.1019  0.3624 -0.2810
    4POPC   PO4  351  10.008  10.087   8.134 -0.1141  0.0143  0.0063
    4POPC   GL1  352   9.883   9.994   7.707  0.2078 -0.1152  0.1684
    4POPC   GL2  353   9.799   9.671   7.447  0.1859 -0.1064 -0.0577
    4POPC   C1A  354   9.962  10.144   7.414 -0.1867  0.0357 -0.6234
    4POPC   D2A  355  10.313  10.239   7.241 -0.1046  0.2887  0.0103
    4POPC   C3A  356  10.428  10.118   6.807 -0.0315 -0.1414  0.1687
    4POPC   C4A  357  10.384   9.983   6.394 -0.0290 -0.3489  0.2194
    4POPC   C1B  358   9.562   9.844   7.018 -0.2760  0.0520 -0.0366
    4POPC   C2B  359   9.395   9.795   6.503  0.1028 -0.3395  0.0969
    4POPC   C3B  360   9.316   9.831   6.054 -0.4205  0.1238 -0.0939
    4POPC   C4B  361   9.604   9.863   5.735  0.4196  0.1219 -0.0127
    5POPC   NC3  362   7.988   3.858   7.836  0.3025  0.1676 -0.0858
    5POPC   PO4  363   8.344   4.076   7.648  0.0321 -0.0819 -0.1118
    5POPC   GL1  364   8.461   4.042   7.216  0.1667 -0.2544 -0.0738
    5POPC   GL2  365   8.369   4.314   7.090  0.0801  0.2030  0.0644
    5POPC   C1A  366   8.569   3.937   6.777 -0.2539 -0.3224 -0.1082
    5POPC   D2A  367   8.593   3.947   6.362 -0.2251  0.1543 -0.1835
    5POPC   C3A  368   8.556   3.759   6.095 -0.1082  0.1168 -0.0100
    5POPC   C4A  369   8.535   3.375   6.244 -0.1201  0.2340 -0.1852
    5POPC   C1B  370   8.472   4.616   6.793 -0.0853 -0.0311 -0.2698
    5POPC   C2B  371   8.757   4.806   6.408  0.0412  0.0804 -0.2247
    5POPC   C3B  372   8.975   4.909   6.084  0.2219  0.0285  0.0862
    5POPC   C4B  373   9.408   5.040   6.113 -0.1693 -0.0961 -0.2051
    6POPC   NC3  374   6.102   4.373   7.459 -0.1051 -0.2583 -0.0040
    6POPC   PO4  375   5.721   4.515   7.360 -0.1520 -0.2171 -0.0242
    6POPC   GL1  376   5.954   4.645   6.999 -0.0724 -0.0036 -0.3796
    6POPC   GL2  377   6.240   4.513   6.910  0.0029  0.4494 -0.1713
    6POPC   C1A  378   5.954   5.072   6.910  0.1642 -0.0194  0.2034
    6POPC   D2A  379   5.668   5.326   6.676  0.2286  0.1008 -0.0997
    6POPC   C3A  380   5.275   5.096   6.571 -0.1643 -0.1501  0.0853
    6POPC   C4A  381   5.135   4.734   6.595  0.2010  0.1099  0.0324
    6POPC   C1B  382   6.123   4.593   6.449  0.3043 -0.1668 -0.2375
    6POPC   C2B  383   6.034   5.062   6.355  0.0658  0.1753  0.1015
    6POPC   C3B  384   6.235   5.420   6.491 -0.1563  0.2053 -0.1817
    6POPC   C4B  385   6.333   5.845   6.771  0.3574  0.0663 -0.1019
    7POPC   NC3  386   1.453   7.802   7.822  0.2340  0.4776 -0.0671
    7POPC   PO4  387   1.085   7.810   7.487  0.1328  0.0460 -0.2452
    7POPC   GL1  388   1.471   7.952   7.246  0.0458 -0.0735 -0.2608
    7POPC   GL2  389   1.405   8.119   6.855 -0.0289 -0.1329 -0.0212
    7POPC   C1A  390   1.861   7.839   7.012  0.2327  0.0857  0.2818
    7POPC   D2A  391   2.023   8.037   6.681  0.0004  0.3148 -0.0895
    7POPC   C3A  392   1.655   8.047   6.412 -0.1867 -0.1599  0.0283
    7POPC   C4A  393   1.225   8.230   6.355 -0.1361  0.1882  0.2385
    7POPC   C1B  394   1.202   8.573   6.803  0.1403  0.2068  0.2229
    7POPC   C2B  395   1.049   8.924   6.516 -0.0524  0.1084 -0.0423
    7POPC   C3B  396   0.979   9.449   6.390  0.1292 -0.4186 -0.0368
    7POPC   C4B  397   1.075   9.641   5.954 -0.0872 -0.0127  0.2453
    8POPC   NC3  398   2.620   2.177   8.844 -0.2848 -0.0151 -0.0074
    8POPC   PO4  399   2.377   2.335   8.501 -0.1103 -0.3130  0.1247
    8POPC   GL1  400   2.321   2.441   8.085 -0.0726  0.0060  0.1230
    8POPC   GL2  401   2.137   2.515   7.917 -0.2225  0.1174 -0.0482
    8POPC   C1A  402   2.793   2.498   7.784 -0.0691  0.2244 -0.0152
    8POPC   D2A  403   3.187   2.524   7.641 -0.1305  0.1425 -0.3766
    8POPC   C3A  404   3.285   2.342   7.127 -0.0199  0.2196  0.0115
    8POPC   C4A  405   3.014   2.346   6.806  0.3057  0.1620 -0.1426
    8POPC   C1B  406   1.842   2.606   7.512 -0.0000 -0.0918  0.0846
    8POPC   C2B  407   1.684   2.372   7.232 -0.0599 -0.0744  0.0006
    8POPC   C3B  408   1.305   2.389   6.971 -0.0390  0.2554  0.3310
    8POPC   C4B  409   0.910   2.497   6.806 -0.0175  0.3000 -0.1034
    9POPC   NC3  410   0.557   8.098   7.518  0.0768 -0.2780 -0.1444
    9POPC   PO4  411   0.230   7.953   7.348 -0.0698  0.2336 -0.1605
    9POPC   GL1  412   0.294   7.688   6.958 -0.2840  0.0107  0.0848
    9POPC   GL2  413   0.206   8.010   6.822  0.1540 -0.2645  0.1010
    9POPC   C1A  414   0.623   7.471   6.711  0.0708  0.2403  0.0830
    9POPC   D2A  415   0.703   7.437   6.273 -0.0491 -0.2790 -0.0506
    9POPC   C3A  416   0.846   7.078   6.021 -0.0227  0.3302 -0.1309
    9POPC   C4A  417   1.047   7.006   5.593 -0.3863 -0.1155  0.0400
    9POPC   C1B  418  -0.178   8.001   6.621 -0.2175 -0.0953  0.0456
    9POPC   C2B  419  -0.604   8.100   6.547  0.1773 -0.0848  0.0652
    9POPC   C3B  420  -0.757   8.115   6.137 -0.2979 -0.2680 -0.3193
    9POPC   C4B  421  -1.040   7.920   6.012  0.3509 -0.0664 -0.0396
   10POPC   NC3  422   5.401   4.200   7.552 -0.0583  0.0588 -0.0506
   10POPC   PO4  423   5.221   4.461   7.474 -0.2688 -0.0718 -0.1988
   10POPC   GL1  424   5.267   4.425   7.012  0.2160 -0.0549  0.3201
   10POPC   GL2  425   5.431   4.098   7.058  0.2328 -0.0415  0.2291
   10POPC   C1A  426   5.095   4.252   6.649  0.1148 -0.0649 -0.4905
   10POPC   D2A  427   4.879   4.324   6.276  0.0068  0.0033  0.0054
   10POPC   C3A  428   4.888   4.689   6.067 -0.3776 -0.1133 -0.4399
   10POPC   C4A  429   4.645   5.027   5.882  0.1831 -0.2574  0.2027
   10POPC   C1B  430   5.464   3.929   6.625 -0.0945  0.4285  0.0752
   10POPC   C2B  431   5.670   3.980   6.331  0.3807  0.3389  0.2004
   10POPC   C3B  432   5.848   4.325   6.131 -0.0001 -0.3781 -0.1938
   10POPC   C4B  433   5.870   4.727   5.996  0.2557 -0.0417  0.1431
   11POPC   NC3  434   9.227   1.267   8.153 -0.1039 -0.0594 -0.0083
   11POPC   PO4  435   9.021   1.172   7.773 -0.0824  0.1819  0.1607
   11POPC   GL1  436   9.155   0.934   7.504  0.1220  0.1940 -0.0103
   11POPC   GL2  437   9.084   1.028   7.282  0.1147 -0.2373 -0.2780
   11POPC   C1A  438   9.554   0.920   7.327  0.1458  0.0102  0.0932
   11POPC   D2A  439   9.911   1.257   7.275 -0.3379  0.0278  0.2293
   11POPC   C3A  440   9.858   1.523   6.998 -0.1451  0.0689 -0.1993
   11POPC   C4A  441   9.525   1.647   6.724 -0.3592  0.0383 -0.1919
   11POPC   C1B  442   9.336   1.197   6.904  0.0352 -0.1554  0.2545
   11POPC   C2B  443   9.525   1.125   6.506  0.2120 -0.1630 -0.0217
   11POPC   C3B  444   9.654   1.134   6.131  0.0760 -0.4549  0.1035
   11POPC   C4B  445   9.753   1.203   5.707  0.1754  0.0609  0.4005
   12POPC   NC3  446   1.762   9.712   8.425 -0.1998  0.0022  0.3528
   12POPC   PO4  447   1.303   9.696   8.283 -0.4107  0.1339  0.3007
   12POPC   GL1  448   1.424  10.009   8.016 -0.0126 -0.2044  0.0287
   12POPC   GL2  449   1.709  10.202   8.030 -0.0206  0.1661  0.3810
   12POPC   C1A  450   1.619   9.974   7.550  0.0721  0.1654 -0.0362
   12POPC   D2A  451   1.608   9.930   7.114 -0.5232  0.0315  0.0088
   12POPC   C3A  452   1.260   9.664   6.933 -0.0985 -0.1541  0.0597
   12POPC   C4A  453   0.951   9.366   6.855 -0.0256 -0.3288  0.0143
   12POPC   C1B  454   1.462  10.415   7.672 -0.4663 -0.1296 -0.0345
   12POPC   C2B  455   1.534  10.476   7.255 -0.2260  0.1202  0.1351
   12POPC   C3B  456   1.710  10.610   6.786 -0.3076 -0.1163 -0.0701
   12POPC   C4B  457   2.018  10.887   6.664 -0.1229 -0.2097  0.3275
   13POPC   NC3  458   1.124   0.002   8.698  0.3548  0.2995 -0.1122
   13POPC   PO4  459   0.624   0.076   8.696 -0.1146 -0.3385 -0.1347
   13POPC   GL1  460   0.767   0.213   8.216  0.2905 -0.1408 -0.1667
   13POPC   GL2  461   0.615   0.012   7.965 -0.0825 -0.0303  0.0459
   13POPC   C1A  462   0.754   0.459   7.881  0.3359  0.4948 -0.1867
   13POPC   D2A  463   1.028   0.787   7.776 -0.1705  0.0723  0.0859
   13POPC   C3A  464   1.238   0.877   8.112  0.1062 -0.0257 -0.0785
   13POPC   C4A  465   1.648   1.107   8.184 -0.1329  0.4015  0.1980
   13POPC   C1B  466   0.882   0.039   7.597  0.2213 -0.0398  0.0287
   13POPC   C2B  467   0.994  -0.016   7.177 -0.1008 -0.0000  0.1191
   13POPC   C3B  468   1.165  -0.444   7.066  0.2779 -0.1891  0.0933
   13POPC   C4B  469   1.456  -0.425   6.672  0.1144 -0.0212  0.2407
   14POPC   NC3  470   9.750   0.593   8.170 -0.0114 -0.1331 -0.0502
   14POPC   PO4  471   9.866   0.264   8.035  0.0017  0.2595  0.1367
   14POPC   GL1  472   9.778   0.236   7.509  0.1379 -0.1031 -0.0821
   14POPC   GL2  473  10.003   0.003   7.399 -0.1303 -0.0532 -0.2846
   14POPC   C1A  474   9.860   0.509   7.121  0.0873 -0.0212 -0.0621
   14POPC   D2A  475   9.948   0.921   6.828 -0.0340  0.0715 -0.2185
   14POPC   C3A  476  10.263   1.010   6.462  0.1365 -0.1715 -0.1134
   14POPC   C4A  477  10.156   1.293   6.069  0.0390  0.2307 -0.3085
   14POPC   C1B  478  10.069   0.055   7.072 -0.1704  0.3218 -0.1607
   14POPC   C2B  479  10.122   0.036   6.661 -0.0299 -0.0846 -0.2668
   14POPC   C3B  480  10.139   0.093   6.204 -0.1170  0.2652  0.1057
   14POPC   C4B  481  10.486   0.279   5.866  0.0400  0.2346  0.2754
   15POPC   NC3  482   0.207   3.015   8.001  0.1671  0.2255  0.0157
   15POPC   PO4  483  -0.160   3.268   8.003  0.1322 -0.0515 -0.0483
   15POPC   GL1  484  -0.040   3.123   7.532 -0.2970  0.3728 -0.0636
   15POPC   GL2  485  -0.239   2.924   7.312  0.0372  0.1191  0.1758
   15POPC   C1A  486   0.189   3.342   7.159  0.1740 -0.0086 -0.2326
   15POPC   D2A  487   0.405   3.440   6.721  0.1882  0.2385 -0.0373
   15POPC   C3A  488   0.694   3.749   6.441  0.0375 -0.2544 -0.1574
   15POPC   C4A  489   0.946   3.829   6.056  0.2666 -0.1242  0.1118
   15POPC   C1B  490   0.115   2.892   7.076  0.0933  0.0523  0.0725
   15POPC   C2B  491   0.276   2.913   6.589  0.0359  0.1625  0.1052
   15POPC   C3B  492   0.199   2.686   6.190  0.2483 -0.1103 -0.1257
   15POPC   C4B  493   0.208   2.721   5.746  0.2393 -0.1482 -0.1010
   16POPC   NC3  494   0.137   0.827   8.385  0.0513  0.0917  0.1795
   16POPC   PO4  495   0.234   0.307   8.325  0.2291 -0.1194 -0.2072
   16POPC   GL1  496   0.178   0.305   7.953 -0.1493  0.0857 -0.1155
   16POPC   GL2  497   0.111   0.620   7.918 -0.3574 -0.1276  0.0984
   16POPC   C1A  498   0.374   0.282   7.535 -0.1684 -0.2484 -0.1283
   16POPC   D2A  499   0.462   0.015   7.157  0.0327 -0.1468 -0.0023
   16POPC   C3A  500   0.183  -0.435   7.092 -0.2549  0.3052  0.0475
   16POPC   C4A  501   0.163  -0.901   7.056 -0.2924 -0.0812 -0.1089
   16POPC   C1B  502   0.068   0.650   7.387 -0.0393 -0.0812  0.0287
   16POPC   C2B  503   0.255   0.617   6.961  0.0744  0.3144 -0.1612
   16POPC   C3B  504   0.389   0.249   6.685 -0.0662 -0.0999  0.0295
   16POPC   C4B  505   0.446   0.121   6.327 -0.0251 -0.1194  0.0490
   17POPC   NC3  506   9.139   2.956   7.816 -0.1003 -0.0126 -0.1522
   17POPC   PO4  507   9.260   3.023   7.569 -0.0999 -0.1165  0.1497
   17POPC   GL1  508   9.013   3.171   7.233  0.1863  0.2432 -0.4509
   17POPC   GL2  509   8.617   3.089   7.105 -0.0836 -0.1566 -0.3095
   17POPC   C1A  510   9.107   3.204   6.847 -0.1918 -0.0029 -0.0893
   17POPC   D2A  511   9.168   2.999   6.405  0.1284 -0.1108 -0.0941
   17POPC   C3A  512   9.397   2.673   6.205  0.1126  0.2800 -0.0809
   17POPC   C4A  513   9.494   2.517   5.889  0.0532 -0.1004  0.2249
   17POPC   C1B  514   8.907   2.720   7.007  0.0352 -0.2449  0.0830
   17POPC   C2B  515   9.144   2.514   6.664 -0.1787  0.1726 -0.0653
   17POPC   C3B  516   9.054   2.322   6.178  0.3407 -0.1483 -0.2841
   17POPC   C4B  517   9.145   2.066   5.814 -0.2315  0.1216 -0.2009
   18POPC   NC3  518   2.719   8.495   7.748  0.2919  0.1536 -0.4124
   18POPC   PO4  519   2.506   8.764   8.083 -0.0178 -0.0427  0.0741
   18POPC   GL1  520   2.470   8.916   7.733 -0.1627  0.1993 -0.0408
   18POPC   GL2  521   2.268   8.766   7.565  0.1404  0.4791 -0.0357
   18POPC   C1A  522   2.674   9.190   7.458  0.1399  0.2176 -0.0142
   18POPC   D2A  523   3.106   9.236   7.242  0.0260  0.0257 -0.1692
   18POPC   C3A  524   3.211   9.618   6.927  0.1452  0.0100 -0.1030
   18POPC   C4A  525   3.575   9.696   6.661 -0.1846  0.0245 -0.1779
   18POPC   C1B  526   2.401   8.800   7.108 -0.0091 -0.0497 -0.1614
   18POPC   C2B  527   2.248   8.599   6.812  0.0723  0.3966 -0.1072
   18POPC   C3B  528   2.046   8.525   6.401 -0.1991 -0.2561 -0.0177
   18POPC   C4B  529   1.900   8.838   6.023 -0.1590  0.3051  0.1658
   19POPC   NC3  530   0.204   5.967   8.047  0.0739  0.1207  0.0666
   19POPC   PO4  531   0.129   6.117   7.683 -0.0428 -0.2749  0.2120
   19POPC   GL1  532   0.360   6.124   7.287 -0.2499  0.1194 -0.0443
   19POPC   GL2  533   0.097   6.158   6.991 -0.1057  0.2625 -0.0189
   19POPC   C1A  534   0.604   6.051   6.899 -0.0484 -0.0981 -0.0574
   19POPC   D2A  535   0.906   6.106   6.531  0.2135  0.2271  0.0385
   19POPC   C3A  536   1.054   6.584   6.480 -0.1622  0.2620  0.0392
   19POPC   C4A  537   1.366   6.730   6.825  0.0164  0.0978  0.3743
   19POPC   C1B  538   0.158   5.942   6.593 -0.2528 -0.3083 -0.0339
   19POPC   C2B  539   0.469   6.097   6.333  0.3508 -0.0421  0.0353
   19POPC   C3B  540   0.861   6.143   5.994 -0.1188  0.0170  0.0659
   19POPC   C4B  541   1.217   5.954   5.774  0.2916 -0.0693  0.4153
   20POPC   NC3  542   2.000   5.017   7.625  0.2225  0.0457 -0.0084
   20POPC   PO4  543   2.113   5.432   7.605  0.2303  0.0187  0.1636
   20POPC   GL1  544   1.990   5.296   7.167 -0.0789  0.3280  0.1245
   20POPC   GL2  545   2.268   5.310   6.959  0.1472  0.3095 -0.1334
   20POPC   C1A  546   1.871   5.181   6.708 -0.3900  0.0545 -0.1828
   20POPC   D2A  547   1.928   4.784   6.377  0.1690  0.0695  0.1096
   20POPC   C3A  548   1.548   4.816   6.117  0.0855 -0.2587  0.1711
   20POPC   C4A  549   1.179   4.881   5.778 -0.0741 -0.0446  0.1673
   20POPC   C1B  550   2.374   5.210   6.535 -0.2900  0.0212  0.0216
   20POPC   C2B  551   2.251   4.994   6.122 -0.0100  0.1665  0.1384
   20POPC   C3B  552   2.449   4.805   5.738  0.0148  0.0964 -0.0675
   20POPC   C4B  553   2.455   4.978   5.307 -0.2392 -0.1683 -0.0051
   21POPC   NC3  554   6.162   0.724   7.704  0.2175  0.1365 -0.3340
   21POPC   PO4  555   5.995   0.405   7.383  0.2914  0.2387  0.0384
   21POPC   GL1  556   5.958   0.503   6.959 -0.0019  0.0178 -0.1990
   21POPC   GL2  557   5.888   0.299   6.736 -0.1548 -0.0401 -0.0933
   21POPC   C1A  558   6.034   0.704   6.503 -0.0270 -0.0107 -0.0370
   21POPC   D2A  559   5.903   0.491   6.040  0.1649  0.1158  0.1740
   21POPC   C3A  560   6.193   0.412   5.732  0.1799  0.1721 -0.0350
   21POPC   C4A  561   6.379  -0.031   5.513 -0.1642 -0.1864  0.0390
   21POPC   C1B  562   5.540   0.254   6.592 -0.1586 -0.1613 -0.2409
   21POPC   C2B  563   5.418   0.169   6.289  0.0762  0.1391 -0.0796
   21POPC   C3B  564   5.660  -0.042   5.917 -0.1013  0.2456 -0.4169
   21POPC   C4B  565   6.004  -0.348   5.703 -0.2076 -0.0179 -0.2862
   22POPC   NC3  566   7.806   0.882   7.439  0.4061 -0.0734 -0.0074
   22POPC   PO4  567   8.262   0.623   7.431  0.0246 -0.1509 -0.1285
   22POPC   GL1  568   8.010   0.458   7.237 -0.0877  0.1778 -0.4645
   22POPC   GL2  569   8.285   0.191   7.110 -0.0465  0.0122  0.0169
   22POPC   C1A  570   7.754   0.227   6.938  0.1370  0.1032 -0.0481
   22POPC   D2A  571   7.713   0.075   6.481  0.0680  0.1509  0.0467
   22POPC   C3A  572   7.360   0.130   6.349 -0.3786  0.2336  0.0903
   22POPC   C4A  573   7.059   0.092   6.024 -0.3829  0.0332 -0.1879
   22POPC   C1B  574   8.157   0.446   6.787 -0.0886  0.3242 -0.0452
   22POPC   C2B  575   7.982   0.494   6.332  0.1391  0.2547 -0.1636
   22POPC   C3B  576   7.721   0.408   6.025 -0.1884  0.1603  0.2295
   22POPC   C4B  577   7.607   0.315   5.456 -0.2037  0.2141  0.1075
   23POPC   NC3  578   9.365   3.870   7.549  0.1354 -0.1723  0.1783
   23POPC   PO4  579   9.804   3.548   7.491 -0.0933 -0.3211  0.3221
   23POPC   GL1  580   9.992   3.491   7.130 -0.1443  0.1469  0.0765
   23POPC   GL2  581  10.310   3.353   7.160 -0.0388  0.1153  0.2092
   23POPC   C1A  582  10.025   3.600   6.746  0.2012  0.1620  0.1329
   23POPC   D2A  583  10.209   3.875   6.395  0.0138 -0.1260 -0.0264
   23POPC   C3A  584  10.389   3.769   6.015 -0.1235  0.0965 -0.0513
   23POPC   C4A  585  10.505   3.582   5.629  0.0700 -0.3871  0.2812
   23POPC   C1B  586  10.433   3.214   6.791  0.1258  0.2107 -0.1202
   23POPC   C2B  587  10.492   3.109   6.367  0.1589  0.0998 -0.0914
   23POPC   C3B  588  10.389   2.744   6.017 -0.0812  0.0708 -0.5555
   23POPC   C4B  589  10.283   2.607   5.594  0.0982 -0.1010 -0.1334
   24POPC   NC3  590   0.261   9.743   8.466  0.1221  0.3047  0.0280
   24POPC   PO4  591   0.421   9.962   8.113  0.0255  0.1165 -0.0450
   24POPC   GL1  592   0.409  10.184   7.711  0.1154 -0.2624 -0.1282
   24POPC   GL2  593   0.185  10.455   7.687 -0.1626 -0.0169 -0.2889
   24POPC   C1A  594   0.657  10.252   7.342 -0.3248 -0.1457  0.0460
   24POPC   D2A  595   0.651  10.281   6.892 -0.1203  0.0171 -0.4576
   24POPC   C3A  596   0.372  10.348   6.636  0.0648 -0.1999 -0.0306
   24POPC   C4A  597  -0.091  10.407   6.371 -0.0956  0.0451 -0.1540
   24POPC   C1B  598   0.009  10.607   7.294  0.4101  0.0814  0.0729
   24POPC   C2B  599  -0.049  10.638   6.861  0.1132 -0.0409 -0.2776
   24POPC   C3B  600  -0.105  10.901   6.506 -0.2415 -0.0147  0.0677
   24POPC   C4B  601   0.119  11.118   6.210 -0.3353  0.2235 -0.1158
   25POPC   NC3  602   5.046   4.050   7.289  0.1232  0.1891  0.3141
   25POPC   PO4  603   4.792   4.197   7.573  0.0298 -0.0288  0.0402
   25POPC   GL1  604   4.765   4.532   7.278 -0.0819  0.1579 -0.1796
   25POPC   GL2  605   4.721   4.282   6.981  0.1795 -0.1078 -0.1407
   25POPC   C1A  606   4.528   4.706   6.860 -0.0562  0.0684  0.1361
   25POPC   D2A  607   4.371   4.708   6.511  0.2112  0.1621  0.1061
   25POPC   C3A  608   4.420   4.547   6.142  0.2009  0.0343  0.1274
   25POPC   C4A  609   4.557   4.388   5.836 -0.1655 -0.3011 -0.1781
   25POPC   C1B  610   4.516   4.137   6.586  0.0797  0.1828  0.0031
   25POPC   C2B  611   4.554   3.938   6.221 -0.0095  0.1899  0.0212
   25POPC   C3B  612   4.860   3.972   5.827 -0.0453  0.0600 -0.1060
   25POPC   C4B  613   5.046   4.305   5.708 -0.2780  0.0234  0.0823
   26POPC   NC3  614   1.659   3.380   8.110  0.0637 -0.1337 -0.0661
   26POPC   PO4  615   1.293   3.282   7.982 -0.0352  0.1600 -0.3021
   26POPC   GL1  616   1.446   3.439   7.658  0.0104  0.1669 -0.0707
   26POPC   GL2  617   1.250   3.650   7.646  0.0561  0.0632 -0.0432
   26POPC   C1A  618   1.269   3.301   7.253  0.1273  0.1351 -0.0067
   26POPC   D2A  619   1.452   3.561   6.875 -0.1081 -0.0549  0.0210
   26POPC   C3A  620   1.621   3.341   6.489  0.1843 -0.2714 -0.1079
   26POPC   C4A  621   1.725   3.204   6.112 -0.4589 -0.2239 -0.0586
   26POPC   C1B  622   1.089   3.826   7.329 -0.0123  0.1286  0.1223
   26POPC   C2B  623   0.785   4.201   7.246 -0.3030  0.0866 -0.4056
   26POPC   C3B  624   0.721   4.244   6.793  0.1948 -0.0537  0.0619
   26POPC   C4B  625   0.734   4.420   6.444  0.0492  0.0779 -0.1212
   27POPC   NC3  626   6.595   3.459   7.128  0.0168  0.2302  0.0202
   27POPC   PO4  627   7.132   3.484   7.184  0.0052  0.0773  0.3193
   27POPC   GL1  628   7.180   3.511   6.807  0.2547 -0.0665  0.0863
   27POPC   GL2  629   6.838   3.417   6.653 -0.0202  0.0807 -0.2062
   27POPC   C1A  630   7.182   3.693   6.375 -0.0695  0.2419 -0.0570
   27POPC   D2A  631   7.088   3.704   6.014 -0.0537  0.1408 -0.1246
   27POPC   C3A  632   6.848   3.332   5.803 -0.2677  0.2491  0.0240
   27POPC   C4A  633   6.718   3.098   5.436  0.1243 -0.2346  0.1705
   27POPC   C1B  634   6.919   3.173   6.302  0.0605 -0.1385 -0.0966
   27POPC   C2B  635   7.125   2.906   5.963 -0.2008  0.0005 -0.1391
   27POPC   C3B  636   7.157   2.866   5.501  0.1076 -0.1755 -0.1031
   27POPC   C4B  637   7.067   2.664   5.108  0.1572 -0.1250 -0.2296
   28POPC   NC3  638   5.991   9.415   7.404 -0.0985  0.0088  0.4643
   28POPC   PO4  639   5.931   9.862   7.606 -0.2136  0.1210 -0.0840
   28POPC   GL1  640   6.049   9.842   7.177  0.1170  0.0869  0.0937
   28POPC   GL2  641   6.128   9.621   6.953  0.5330 -0.0310 -0.0048
   28POPC   C1A  642   5.932  10.091   6.755 -0.0069 -0.0760 -0.1257
   28POPC   D2A  643   5.718  10.446   6.619  0.1446  0.0813  0.2932
   28POPC   C3A  644   5.995  10.717   6.348 -0.0066 -0.4310  0.0057
   28POPC   C4A  645   6.162  10.625   5.994 -0.2105 -0.0475  0.0357
   28POPC   C1B  646   5.960   9.372   6.683  0.0634 -0.1122 -0.0591
   28POPC   C2B  647   5.897   9.194   6.274 -0.0207  0.2423  0.3277
   28POPC   C3B  648   6.015   9.376   5.899 -0.1389 -0.2095  0.3725
   28POPC   C4B  649   5.944   9.203   5.485  0.0368 -0.2330  0.3317
   29POPC   NC3  650  10.273   2.012   8.213  0.1781  0.1765 -0.2169
   29POPC   PO4  651  10.453   1.705   8.512 -0.0137  0.0799  0.2589
   29POPC   GL1  652  10.601   1.622   8.108  0.0861 -0.2821  0.0099
   29POPC   GL2  653  10.405   1.683   7.898  0.1676  0.2643 -0.2603
   29POPC   C1A  654  10.862   1.324   7.891 -0.2511  0.1229  0.1567
   29POPC   D2A  655  11.103   0.949   7.839 -0.0296  0.1374 -0.0869
   29POPC   C3A  656  11.322   0.993   7.426  0.0995 -0.0589 -0.0987
   29POPC   C4A  657  11.696   1.236   7.409  0.1857 -0.2265 -0.2873
   29POPC   C1B  658  10.691   1.671   7.557 -0.0092 -0.1244 -0.0505
   29POPC   C2B  659  10.677   1.942   7.127  0.0415  0.0080  0.2465
   29POPC   C3B  660  10.547   2.115   6.686 -0.0389 -0.3390  0.1467
   29POPC   C4B  661  10.460   2.317   6.286 -0.2004  0.3571  0.1504
   30POPC   NC3  662   1.531   2.426   9.343 -0.1696  0.1322 -0.3975
   30POPC   PO4  663   1.480   2.061   8.998 -0.0445  0.1546  0.0406
   30POPC   GL1  664   1.595   2.141   8.537  0.2598  0.1589  0.0055
   30POPC   GL2  665   1.815   1.981   8.391  0.3844  0.0777 -0.3165
   30POPC   C1A  666   1.309   2.027   8.156  0.0465  0.0376 -0.3534
   30POPC   D2A  667   0.915   2.068   8.034  0.1661 -0.0665  0.3134
   30POPC   C3A  668   0.708   1.995   7.638 -0.3045  0.1417  0.1195
   30POPC   C4A  669   0.426   1.975   7.419  0.1091  0.4573 -0.0418
   30POPC   C1B  670   2.176   1.910   8.080  0.1274  0.0194  0.0917
   30POPC   C2B  671   2.544   1.793   8.102  0.4537  0.2713 -0.1095
   30POPC   C3B  672   2.775   1.665   7.767  0.1625  0.0652 -0.1229
   30POPC   C4B  673   2.749   1.590   7.357  0.1213 -0.0501  0.2059
   31POPC   NC3  674   7.947   2.637   7.159  0.0097 -0.3085 -0.0796
   31POPC   PO4  675   7.641   2.905   7.318 -0.2831  0.1277 -0.0672
   31POPC   GL1  676   7.575   3.167   6.921  0.1149 -0.0191  0.0211
   31POPC   GL2  677   7.710   3.438   6.828 -0.0223 -0.1184  0.0115
   31POPC   C1A  678   7.424   3.061   6.558  0.1524  0.1388  0.3318
   31POPC   D2A  679   7.451   3.256   6.067  0.0521 -0.4203  0.2217
   31POPC   C3A  680   7.357   3.267   5.731 -0.0195  0.2933 -0.2064
   31POPC   C4A  681   7.205   3.342   5.310  0.0313 -0.0925 -0.0887
   31POPC   C1B  682   7.679   3.643   6.395 -0.0475  0.0807 -0.0449
   31POPC   C2B  683   7.543   3.986   6.192  0.0069  0.1197  0.0650
   31POPC   C3B  684   7.426   4.161   5.770 -0.2901  0.1361 -0.4769
   31POPC   C4B  685   7.144   4.474   5.700 -0.0120 -0.1613 -0.3222
   32POPC   NC3  686   3.751   5.636   7.702 -0.0221 -0.4239 -0.0180
   32POPC   PO4  687   3.866   5.692   7.308  0.0450  0.2230  0.1409
   32POPC   GL1  688   4.039   5.851   7.043  0.0243 -0.2020  0.1596
   32POPC   GL2  689   4.142   5.543   6.901  0.0434 -0.0141 -0.0530
   32POPC   C1A  690   4.426   5.988   6.770 -0.1000  0.0742 -0.0323
   32POPC   D2A  691   4.414   6.080   6.352  0.2325 -0.0833 -0.3718
   32POPC   C3A  692   4.353   5.889   6.033  0.2531 -0.0694  0.1624
   32POPC   C4A  693   4.470   5.717   5.665  0.0385 -0.0839  0.0423
   32POPC   C1B  694   3.787   5.716   6.633 -0.1723 -0.1618  0.2091
   32POPC   C2B  695   3.582   5.666   6.197  0.2122 -0.1691  0.0428
   32POPC   C3B  696   3.542   5.842   5.804  0.2002 -0.0786  0.1127
   32POPC   C4B  697   3.474   6.181   5.457 -0.1381 -0.4170  0.2007
   33POPC   NC3  698   7.567   3.747   7.183  0.0545  0.1087  0.2603
   33POPC   PO4  699   7.730   3.993   7.318 -0.1959  0.1526 -0.2771
   33POPC   GL1  700   7.895   4.054   6.905 -0.2811 -0.1880  0.0038
   33POPC   GL2  701   7.587   4.033   6.708 -0.3968 -0.0806  0.0120
   33POPC   C1A  702   8.093   4.130   6.673 -0.1340  0.0704 -0.0034
   33POPC   D2A  703   8.310   4.394   6.406  0.2058  0.0574 -0.2729
   33POPC   C3A  704   8.407   4.697   6.121 -0.0230 -0.0116 -0.1681
   33POPC   C4A  705   8.418   5.076   5.858  0.2261 -0.1212  0.3331
   33POPC   C1B  706   7.157   4.222   6.557 -0.1598 -0.2082  0.1032
   33POPC   C2B  707   7.026   4.182   6.146  0.1287  0.1147 -0.2600
   33POPC   C3B  708   6.863   4.053   5.744  0.4656  0.2357  0.0105
   33POPC   C4B  709   7.143   3.767   5.525  0.0309 -0.3073  0.1936
   34POPC   NC3  710   2.525   9.635   8.389  0.5527  0.1158  0.1726
   34POPC   PO4  711   2.292   9.405   8.152  0.0217 -0.1222  0.1519
   34POPC   GL1  712   2.221   9.356   7.789 -0.1422 -0.1505  0.1030
   34POPC   GL2  713   2.005   9.205   7.578  0.1901  0.3726 -0.0054
   34POPC   C1A  714   2.411   9.631   7.470 -0.0502 -0.0748 -0.1261
   34POPC   D2A  715   2.110   9.791   7.176  0.1804  0.1963 -0.1010
   34POPC   C3A  716   2.374   9.903   6.816 -0.0127  0.2638 -0.1470
   34POPC   C4A  717   2.337  10.176   6.506  0.1117  0.1900  0.1499
   34POPC   C1B  718   2.098   9.329   7.244 -0.0365  0.1702  0.1076
   34POPC   C2B  719   2.187   9.423   6.749 -0.1389  0.0644 -0.1758
   34POPC   C3B  720   2.244   9.686   6.338 -0.0184 -0.0790  0.1186
   34POPC   C4B  721   2.252  10.050   6.025  0.2725 -0.2228 -0.0112
   35POPC   NC3  722   8.573   7.916   7.820 -0.0716  0.1900  0.1503
   35POPC   PO4  723   8.388   7.825   7.377 -0.1221  0.0937  0.2338
   35POPC   GL1  724   8.293   7.867   6.935  0.2849 -0.0215  0.1517
   35POPC   GL2  725   8.303   7.568   6.796  0.0512  0.0944 -0.3353
   35POPC   C1A  726   8.275   8.028   6.495 -0.0169  0.0594 -0.4868
   35POPC   D2A  727   8.054   8.175   6.061  0.3041 -0.0130 -0.2487
   35POPC   C3A  728   8.266   8.457   5.796 -0.0205  0.1842  0.0192
   35POPC   C4A  729   8.364   8.313   5.362 -0.0536  0.0440 -0.1028
   35POPC   C1B  730   8.577   7.592   6.508 -0.1031  0.0691 -0.3500
   35POPC   C2B  731   8.784   7.592   6.183 -0.1440  0.0843  0.3651
   35POPC   C3B  732   9.115   7.945   5.933  0.2972 -0.0918 -0.1324
   35POPC   C4B  733   9.486   8.040   5.583 -0.1412  0.0681 -0.0616
   36POPC   NC3  734   3.377   2.834   7.976 -0.0130  0.2710  0.0994
   36POPC   PO4  735   3.076   3.038   8.270  0.2376 -0.1143 -0.0094
   36POPC   GL1  736   2.910   3.039   7.878 -0.1633 -0.0618 -0.2446
   36POPC   GL2  737   3.140   3.252   7.722 -0.1041 -0.1625  0.1231
   36POPC   C1A  738   2.841   2.966   7.464  0.0578  0.0877  0.2962
   36POPC   D2A  739   2.831   2.631   7.233  0.2078 -0.3774 -0.0190
   36POPC   C3A  740   2.864   2.144   7.377  0.1301  0.0697 -0.1681
   36POPC   C4A  741   3.172   1.937   7.584  0.1259 -0.3420  0.0118
   36POPC   C1B  742   3.327   2.969   7.276  0.0724  0.0804  0.0479
   36POPC   C2B  743   3.504   2.827   6.881 -0.1978 -0.2228  0.3228
   36POPC   C3B  744   3.457   2.452   6.583  0.0664  0.0423  0.1614
   36POPC   C4B  745   3.473   2.043   6.313  0.1578 -0.2994 -0.0952
   37POPC   NC3  746   2.556   5.767   7.594 -0.1032 -0.1796 -0.3223
   37POPC   PO4  747   2.534   5.685   7.253 -0.2205 -0.4451 -0.0143
   37POPC   GL1  748   2.728   5.461   6.978  0.0602  0.2014 -0.0844
   37POPC   GL2  749   2.975   5.445   6.992 -0.1735  0.0072  0.2861
   37POPC   C1A  750   2.723   5.509   6.494 -0.0812 -0.0513  0.0035
   37POPC   D2A  751   2.486   5.934   6.214 -0.0186 -0.0890 -0.2001
   37POPC   C3A  752   2.579   6.269   5.959  0.0410 -0.1009 -0.2317
   37POPC   C4A  753   2.800   6.198   5.675  0.0176 -0.4756 -0.1961
   37POPC   C1B  754   3.195   5.186   6.754  0.2118 -0.2056  0.0054
   37POPC   C2B  755   3.189   4.865   6.359 -0.0022  0.1886  0.2781
   37POPC   C3B  756   3.365   4.595   6.042  0.0522 -0.1362 -0.0427
   37POPC   C4B  757   3.581   4.386   5.832 -0.1557  0.2413  0.0993
   38POPC   NC3  758   0.392   5.494   7.907  0.0005 -0.0704  0.2534
   38POPC   PO4  759   0.350   5.675   7.495 -0.1726  0.1885 -0.0430
   38POPC   GL1  760   0.495   5.544   7.092  0.0082 -0.0273 -0.2115
   38POPC   GL2  761   0.806   5.364   7.003  0.0729  0.0242 -0.4008
   38POPC   C1A  762   0.600   5.658   6.613  0.1333 -0.2130 -0.0435
   38POPC   D2A  763   0.663   5.610   6.161 -0.0328 -0.1103  0.0390
   38POPC   C3A  764   0.418   5.781   5.945  0.1609  0.1612  0.1502
   38POPC   C4A  765   0.220   5.843   5.562  0.1920  0.1180 -0.0069
   38POPC   C1B  766   0.889   5.236   6.603  0.3479 -0.0357 -0.3160
   38POPC   C2B  767   0.967   5.165   6.159 -0.0939  0.0631 -0.0078
   38POPC   C3B  768   1.090   5.450   5.739  0.3024  0.2628 -0.2564
   38POPC   C4B  769   1.162   5.425   5.333  0.1972  0.1481 -0.1029
   39POPC   NC3  770   4.743   2.954   7.756 -0.2364  0.2470  0.0068
   39POPC   PO4  771   5.090   2.774   7.848  0.2022 -0.0942 -0.0976
   39POPC   GL1  772   5.121   2.636   7.452  0.3102 -0.0977  0.3409
   39POPC   GL2  773   5.098   2.899   7.316  0.0951  0.0881 -0.1626
   39POPC   C1A  774   5.411   2.589   6.985  0.0503 -0.1560  0.3380
   39POPC   D2A  775   5.334   2.433   6.561  0.0477 -0.0025  0.2295
   39POPC   C3A  776   5.597   2.568   6.155  0.0050 -0.1153 -0.2077
   39POPC   C4A  777   5.467   2.885   5.900  0.2889 -0.1652 -0.4721
   39POPC   C1B  778   4.951   2.907   6.890 -0.2438 -0.0619 -0.0862
   39POPC   C2B  779   4.585   3.019   6.536  0.0305  0.1412  0.0074
   39POPC   C3B  780   4.208   3.282   6.450 -0.2925 -0.0173  0.0325
   39POPC   C4B  781   3.750   3.159   6.526 -0.2464  0.1305 -0.0754
   40POPC   NC3  782   7.197   2.710   7.497  0.0442  0.0477  0.0746
   40POPC   PO4  783   7.591   2.367   7.401 -0.0420 -0.0934 -0.1701
   40POPC   GL1  784   7.812   2.154   7.053 -0.1755 -0.0667 -0.2853
   40POPC   GL2  785   8.059   2.161   6.976  0.0386  0.2391 -0.0314
   40POPC   C1A  786   7.779   1.962   6.562  0.0650 -0.1491  0.0064
   40POPC   D2A  787   7.908   1.692   6.394 -0.0156 -0.0905  0.0989
   40POPC   C3A  788   8.280   1.729   6.153  0.1378 -0.1394  0.2117
   40POPC   C4A  789   8.487   1.472   5.824  0.2458  0.0580 -0.0350
   40POPC   C1B  790   8.251   2.253   6.640  0.2895  0.2304  0.1062
   40POPC   C2B  791   8.394   2.240   6.256 -0.1864  0.1909 -0.1984
   40POPC   C3B  792   8.367   2.453   5.839 -0.2441 -0.2734 -0.0809
   40POPC   C4B  793   8.747   2.454   5.713 -0.0166  0.0683  0.0222
   41POPC   NC3  794   6.361   1.712   7.467 -0.1721 -0.0287 -0.0721
   41POPC   PO4  795   6.519   2.194   7.416  0.0245 -0.1184  0.0857
   41POPC   GL1  796   6.659   2.022   7.014 -0.2358 -0.1639 -0.1679
   41POPC   GL2  797   6.920   1.900   6.816  0.1622 -0.0421 -0.2093
   41POPC   C1A  798   6.451   1.752   6.709  0.0194 -0.0115 -0.1308
   41POPC   D2A  799   6.134   1.546   6.460 -0.1285  0.1946 -0.3018
   41POPC   C3A  800   5.780   1.626   6.232  0.1674  0.0045  0.1953
   41POPC   C4A  801   5.495   1.763   5.828  0.1228 -0.0553 -0.3281
   41POPC   C1B  802   6.934   1.904   6.393  0.2136  0.0125  0.1238
   41POPC   C2B  803   6.978   1.745   5.974  0.1980  0.0549  0.0907
   41POPC   C3B  804   7.168   1.398   5.803  0.0059  0.2034  0.0547
   41POPC   C4B  805   7.482   1.194   5.601  0.3623 -0.1975  0.0543
   42POPC   NC3  806   1.247   8.799   8.014  0.0846 -0.1406  0.2213
   42POPC   PO4  807   1.508   9.099   8.270 -0.0317 -0.0350 -0.2751
   42POPC   GL1  808   1.675   9.350   7.918  0.5338 -0.0339 -0.1820
   42POPC   GL2  809   1.851   9.693   7.895 -0.2191 -0.1538  0.1827
   42POPC   C1A  810   1.633   9.485   7.469 -0.0733 -0.2486  0.1741
   42POPC   D2A  811   1.611   9.379   7.132  0.1234  0.1830  0.3327
   42POPC   C3A  812   1.734   9.553   6.759 -0.0689  0.0333  0.1091
   42POPC   C4A  813   1.515   9.713   6.516 -0.0442  0.0604 -0.1686
   42POPC   C1B  814   2.134   9.996   7.777 -0.0707  0.0810  0.0823
   42POPC   C2B  815   2.021  10.246   7.418  0.3030 -0.1432  0.0382
   42POPC   C3B  816   2.005  10.238   6.941 -0.0959  0.1210 -0.0679
   42POPC   C4B  817   1.869  10.014   6.493 -0.2267  0.0048 -0.2603
   43POPC   NC3  818   9.407   0.311   7.847  0.1051  0.1754 -0.0663
   43POPC   PO4  819   9.026   0.144   7.705 -0.3078  0.1675 -0.1394
   43POPC   GL1  820   9.340  -0.090   7.511  0.0105 -0.2056  0.1686
   43POPC   GL2  821   9.415  -0.380   7.399  0.0271  0.3334 -0.0390
   43POPC   C1A  822   9.568  -0.017   7.110  0.0581 -0.1755 -0.3696
   43POPC   D2A  823   9.660   0.114   6.661 -0.2117 -0.1030 -0.0254
   43POPC   C3A  824   9.863  -0.272   6.392  0.0159 -0.0223  0.2958
   43POPC   C4A  825   9.800  -0.610   6.129 -0.0818  0.1783 -0.5350
   43POPC   C1B  826   9.190  -0.476   6.917  0.0735  0.4481 -0.1515
   43POPC   C2B  827   9.413  -0.286   6.489  0.2722 -0.1027  0.3148
   43POPC   C3B  828   9.372  -0.299   6.083  0.1518 -0.1065  0.0677
   43POPC   C4B  829   9.297  -0.300   5.679  0.2046  0.0699 -0.1115
   44POPC   NC3  830   8.727   9.034   8.232  0.0449  0.3480  0.2765
   44POPC   PO4  831   8.521   9.169   7.883  0.1983 -0.0017  0.2635
   44POPC   GL1  832   8.414   9.305   7.370  0.1810  0.0731  0.1285
   44POPC   GL2  833   8.755   9.459   7.247  0.0344  0.2396  0.1662
   44POPC   C1A  834   8.371   9.452   6.870 -0.0039  0.1969  0.1516
   44POPC   D2A  835   8.568   9.550   6.587  0.2742 -0.1427  0.3352
   44POPC   C3A  836   8.539   9.753   6.135  0.1285 -0.0179 -0.1582
   44POPC   C4A  837   8.471   9.935   5.696  0.1400  0.2434  0.2119
   44POPC   C1B  838   9.001   9.539   6.810  0.1976 -0.0849 -0.1887
   44POPC   C2B  839   8.901   9.972   6.585  0.0611 -0.1012  0.0617
   44POPC   C3B  840   8.974  10.150   6.246 -0.1015 -0.0015  0.0920
   44POPC   C4B  841   8.800  10.277   5.810  0.1667 -0.1416  0.1562
   45POPC   NC3  842   6.575   1.332   8.076  0.0859 -0.2755 -0.0172
   45POPC   PO4  843   6.262   1.201   7.732  0.0711  0.1966 -0.0295
   45POPC   GL1  844   6.123   1.241   7.365  0.0264  0.0525 -0.0891
   45POPC   GL2  845   6.228   0.976   7.217  0.0658  0.2394  0.1559
   45POPC   C1A  846   6.050   1.498   6.956 -0.1502  0.0293  0.1399
   45POPC   D2A  847   5.675   1.457   6.675 -0.3375  0.0048 -0.2008
   45POPC   C3A  848   5.329   1.077   6.680 -0.1339 -0.0974  0.1494
   45POPC   C4A  849   5.509   0.691   6.795 -0.0134 -0.0736  0.0517
   45POPC   C1B  850   6.398   0.611   6.807 -0.1210 -0.2674  0.2437
   45POPC   C2B  851   6.415   0.364   6.350 -0.1363  0.0535  0.0332
   45POPC   C3B  852   6.602   0.292   6.004  0.3518  0.0631 -0.1670
   45POPC   C4B  853   6.791   0.202   5.549 -0.0107 -0.1510 -0.1171
   46POPC   NC3  854   7.753   6.674   7.503  0.2487  0.0627 -0.1028
   46POPC   PO4  855   7.845   7.078   7.451 -0.0824  0.1486  0.1605
   46POPC   GL1  856   8.089   7.090   6.996  0.0038 -0.0229 -0.1300
   46POPC   GL2  857   7.832   7.257   6.719  0.1806  0.0298  0.1444
   46POPC   C1A  858   8.425   7.050   6.640 -0.1911  0.3087 -0.1729
   46POPC   D2A  859   8.675   7.127   6.378 -0.0208 -0.1080  0.1449
   46POPC   C3A  860   8.800   6.977   5.926  0.3374  0.0375  0.1371
   46POPC   C4A  861   8.687   6.793   5.483  0.0454 -0.0274  0.3553
   46POPC   C1B  862   8.089   7.373   6.424 -0.0426  0.1902  0.0585
   46POPC   C2B  863   8.245   7.618   6.083 -0.0508  0.1628 -0.0357
   46POPC   C3B  864   8.173   7.891   5.627  0.0118  0.1966 -0.0557
   46POPC   C4B  865   8.099   7.889   5.204  0.1518 -0.0746 -0.2750
   47POPC   NC3  866   8.940   9.344   7.736 -0.1530  0.3604 -0.2247
   47POPC   PO4  867   9.213   9.667   8.046  0.1406 -0.1452  0.1027
   47POPC   GL1  868   9.333   9.755   7.641  0.2863  0.1554  0.1382
   47POPC   GL2  869   9.087   9.799   7.419 -0.1331 -0.0385 -0.0012
   47POPC   C1A  870   9.413   9.467   7.299 -0.1859 -0.0145 -0.0383
   47POPC   D2A  871   9.490   9.320   6.895  0.0561 -0.1497 -0.0308
   47POPC   C3A  872   9.429   9.326   6.471 -0.0102  0.0245  0.0398
   47POPC   C4A  873   9.543   9.411   6.079 -0.1106  0.1562 -0.0514
   47POPC   C1B  874   8.780   9.940   7.131 -0.3056  0.0596 -0.0121
   47POPC   C2B  875   8.419  10.036   6.809 -0.2880 -0.0108  0.0322
   47POPC   C3B  876   8.458  10.140   6.407  0.0666  0.0360  0.0313
   47POPC   C4B  877   8.311  10.226   6.061  0.4766 -0.1033 -0.2093
   48POPC   NC3  878   5.621   3.989   7.981  0.2425 -0.1995 -0.0755
   48POPC   PO4  879   5.830   3.985   7.680 -0.0190  0.0183 -0.2630
   48POPC   GL1  880   5.825   3.894   7.285 -0.3420  0.0695 -0.1266
   48POPC   GL2  881   5.915   4.120   7.058  0.2072  0.0659  0.1892
   48POPC   C1A  882   5.693   3.594   6.975 -0.1619  0.0663  0.0537
   48POPC   D2A  883   5.823   3.261   6.674 -0.2747  0.0180 -0.2639
   48POPC   C3A  884   5.467   2.921   6.531  0.2575  0.5155  0.0429
   48POPC   C4A  885   5.198   2.884   6.341  0.0032 -0.1101 -0.1648
   48POPC   C1B  886   5.739   4.336   6.703  0.1532 -0.1137 -0.1439
   48POPC   C2B  887   5.410   4.435   6.267 -0.1430 -0.1851  0.1933
   48POPC   C3B  888   5.398   4.704   5.890  0.0358  0.0625  0.4126
   48POPC   C4B  889   5.703   4.869   5.550 -0.1905  0.1122 -0.1520
   49POPC   NC3  890   0.928   3.615   8.022  0.1874  0.1316 -0.0150
   49POPC   PO4  891   0.687   4.009   8.092  0.1391 -0.0729 -0.1766
   49POPC   GL1  892   0.573   3.876   7.711 -0.4481 -0.0572 -0.0301
   49POPC   GL2  893   0.372   4.011   7.448  0.0178  0.0820 -0.1393
   49POPC   C1A  894   0.668   3.562   7.421  0.1372  0.0559  0.0245
   49POPC   D2A  895   0.825   3.475   7.014 -0.0353  0.1785 -0.0587
   49POPC   C3A  896   1.020   3.835   6.805 -0.1395 -0.4298 -0.2515
   49POPC   C4A  897   1.108   4.075   6.506 -0.1147  0.3896 -0.0153
   49POPC   C1B  898   0.345   3.838   7.101 -0.1344  0.0366  0.2601
   49POPC   C2B  899   0.298   3.936   6.741 -0.1076 -0.1582 -0.0536
   49POPC   C3B  900   0.325   4.068   6.292 -0.0557  0.0838 -0.1299
   49POPC   C4B  901   0.468   3.911   6.043  0.2099 -0.2836 -0.0673
   50POPC   NC3  902   2.809   1.290   9.565 -0.0641 -0.2058 -0.2491
   50POPC   PO4  903   2.705   1.342   9.098 -0.1607  0.0853  0.1191
   50POPC   GL1  904   2.514   1.534   8.655 -0.0779 -0.0958 -0.0587
   50POPC   GL2  905   2.235   1.825   8.624 -0.2560  0.0975  0.3751
   50POPC   C1A  906   2.365   1.289   8.369 -0.1150 -0.3089  0.3169
   50POPC   D2A  907   2.636   1.237   8.005 -0.0015  0.1289 -0.0300
   50POPC   C3A  908   3.033   1.260   7.994  0.1051  0.0358 -0.1636
   50POPC   C4A  909   3.324   1.527   7.932 -0.3346 -0.2140  0.2872
   50POPC   C1B  910   1.945   1.512   8.266 -0.0659  0.1444 -0.0916
   50POPC   C2B  911   2.035   1.224   7.899  0.0894  0.0644  0.0994
   50POPC   C3B  912   2.326   0.879   7.738 -0.1547  0.0482  0.2076
   50POPC   C4B  913   2.564   0.593   7.907 -0.0661 -0.2188 -0.1291
   51POPC   NC3  914   6.250   2.278   7.825  0.3865 -0.3091  0.0630
   51POPC   PO4  915   5.989   2.046   7.545 -0.0200  0.2134 -0.0181
   51POPC   GL1  916   5.675   1.790   7.250 -0.3487 -0.0059  0.0230
   51POPC   GL2  917   5.635   1.391   7.201  0.1102  0.2011  0.1345
   51POPC   C1A  918   5.570   1.972   6.904 -0.1529 -0.1242  0.1124
   51POPC   D2A  919   5.749   2.265   6.727  0.0738  0.0575  0.1379
   51POPC   C3A  920   6.008   2.223   6.407 -0.0417 -0.0580 -0.0081
   51POPC   C4A  921   6.262   2.005   6.227  0.3197  0.0039 -0.0200
   51POPC   C1B  922   5.855   1.044   6.857 -0.0077 -0.1348 -0.0630
   51POPC   C2B  923   5.803   1.125   6.395  0.3504  0.1492 -0.3080
   51POPC   C3B  924   5.817   1.182   6.001  0.2273  0.2593  0.2488
   51POPC   C4B  925   5.879   0.827   5.587  0.2235  0.3612  0.0550
   52POPC   NC3  926  10.479   5.937   7.356  0.1017  0.0899 -0.1174
   52POPC   PO4  927  10.145   5.678   7.271 -0.2149  0.0898  0.0082
   52POPC   GL1  928  10.408   5.656   6.935 -0.1050 -0.3999 -0.1729
   52POPC   GL2  929  10.324   5.614   6.545  0.0936  0.0937 -0.0527
   52POPC   C1A  930  10.744   5.416   6.765  0.0521  0.2430  0.1725
   52POPC   D2A  931  11.078   5.167   6.700 -0.1129 -0.1426  0.2767
   52POPC   C3A  932  11.194   4.915   6.342 -0.1698 -0.0349 -0.0077
   52POPC   C4A  933  11.320   4.784   5.982 -0.1953 -0.0350  0.2176
   52POPC   C1B  934  10.140   5.595   6.112 -0.0491 -0.0288  0.0543
   52POPC   C2B  935   9.758   5.486   5.754 -0.0471  0.0225  0.1064
   52POPC   C3B  936   9.481   5.088   5.645  0.1254  0.1802 -0.1437
   52POPC   C4B  937   9.144   4.771   5.626 -0.0482  0.0837  0.0306
   53POPC   NC3  938   5.771   3.354   7.571 -0.3134 -0.0754  0.1354
   53POPC   PO4  939   6.050   3.035   7.533 -0.0577 -0.2173 -0.1826
   53POPC   GL1  940   5.679   3.017   7.208  0.2581  0.1893 -0.0067
   53POPC   GL2  941   5.896   2.831   7.040  0.2542 -0.1014 -0.1199
   53POPC   C1A  942   5.363   3.201   6.979  0.1040 -0.1533 -0.0374
   53POPC   D2A  943   4.981   3.447   6.917  0.2591 -0.0714 -0.0581
   53POPC   C3A  944   5.046   3.761   6.668  0.0003  0.2534  0.3961
   53POPC   C4A  945   5.100   3.879   6.245  0.0236 -0.1587 -0.2284
   53POPC   C1B  946   6.052   2.704   6.649 -0.1280  0.0535 -0.2094
   53POPC   C2B  947   5.865   2.906   6.285  0.0532 -0.0304  0.2164
   53POPC   C3B  948   5.634   3.329   6.162  0.1523 -0.2723 -0.1694
   53POPC   C4B  949   5.373   3.492   6.439  0.0169  0.2152  0.0411
   54POPC   NC3  950  10.520  10.032   8.006  0.3775 -0.0431 -0.0846
   54POPC   PO4  951  10.722   9.581   7.956  0.0252 -0.2779  0.3678
   54POPC   GL1  952  10.737   9.426   7.515  0.2633  0.0619 -0.0738
   54POPC   GL2  953  10.582   9.192   7.450 -0.3663 -0.0709  0.1045
   54POPC   C1A  954  11.014   9.323   7.196 -0.2432  0.2052  0.1942
   54POPC   D2A  955  10.971   9.404   6.714  0.0163  0.2699  0.3571
   54POPC   C3A  956  10.872   9.825   6.557  0.0539  0.0694 -0.0644
   54POPC   C4A  957  10.893  10.068   6.092  0.0635  0.0248  0.0783
   54POPC   C1B  958  10.560   9.195   7.017  0.3818  0.1384  0.0613
   54POPC   C2B  959  10.517   9.038   6.603  0.0499  0.0615 -0.0116
   54POPC   C3B  960  10.439   8.976   6.107  0.2129 -0.0637 -0.3122
   54POPC   C4B  961  10.355   8.874   5.658  0.0654 -0.1269  0.1241
   55POPC   NC3  962   8.723   2.192   7.519  0.0682 -0.1931  0.1388
   55POPC   PO4  963   8.287   2.225   7.396  0.1398 -0.0857 -0.0932
   55POPC   GL1  964   8.590   2.391   7.132  0.0804 -0.1877 -0.1936
   55POPC   GL2  965   8.430   2.616   6.882  0.1402 -0.1003  0.1208
   55POPC   C1A  966   8.709   2.231   6.709 -0.0782 -0.1164 -0.0687
   55POPC   D2A  967   8.654   1.906   6.580  0.1249  0.1092  0.3568
   55POPC   C3A  968   8.891   1.820   6.228 -0.1850  0.4226 -0.0895
   55POPC   C4A  969   9.068   1.548   5.794  0.2080  0.1494 -0.0291
   55POPC   C1B  970   8.727   2.730   6.480 -0.4851  0.1110 -0.3334
   55POPC   C2B  971   8.898   2.801   6.034 -0.1794  0.2138 -0.0678
   55POPC   C3B  972   9.277   2.954   5.784  0.1694  0.2172 -0.0391
   55POPC   C4B  973   9.364   3.284   5.455 -0.1777  0.0808  0.1949
   56POPC   NC3  974   8.250   6.839   7.719 -0.0638  0.1530  0.3165
   56POPC   PO4  975   8.286   6.636   7.327 -0.2814  0.0767 -0.0875
   56POPC   GL1  976   8.387   6.509   6.927  0.0326  0.1071  0.5241
   56POPC   GL2  977   8.228   6.126   6.809  0.0902 -0.1066 -0.2897
   56POPC   C1A  978   8.079   6.636   6.621  0.1462 -0.4942 -0.2062
   56POPC   D2A  979   8.034   6.475   6.192 -0.0527  0.2822 -0.0457
   56POPC   C3A  980   7.703   6.140   6.124 -0.1948 -0.1482 -0.5924
   56POPC   C4A  981   7.382   5.887   5.881 -0.2094 -0.3065 -0.1801
   56POPC   C1B  982   8.099   5.995   6.400  0.0381  0.0314 -0.0135
   56POPC   C2B  983   7.876   5.692   6.076 -0.0384  0.1227  0.1329
   56POPC   C3B  984   7.738   5.523   5.696 -0.0414  0.1237 -0.1480
   56POPC   C4B  985   7.711   5.235   5.386  0.1883 -0.1768  0.0303
   57POPC   NC3  986   7.048   1.789   7.289  0.1002  0.0379  0.1281
   57POPC   PO4  987   7.056   2.228   7.455 -0.0437  0.1628  0.1370
   57POPC   GL1  988   7.066   2.356   7.068  0.1282  0.1659  0.4332
   57POPC   GL2  989   6.887   2.534   6.984 -0.1471 -0.0482 -0.0745
   57POPC   C1A  990   7.334   2.186   6.770  0.0764  0.2541  0.0958
   57POPC   D2A  991   7.382   2.136   6.299 -0.1633  0.4618 -0.4437
   57POPC   C3A  992   7.295   2.121   5.899  0.1933 -0.0302 -0.0890
   57POPC   C4A  993   7.022   2.423   5.719  0.3081 -0.0891  0.0428
   57POPC   C1B  994   6.671   2.351   6.629 -0.1321  0.1876  0.0518
   57POPC   C2B  995   6.490   2.576   6.406  0.1396 -0.3097 -0.1574
   57POPC   C3B  996   6.156   2.600   6.100 -0.0791 -0.3392 -0.0090
   57POPC   C4B  997   5.914   2.805   5.779 -0.1000  0.2496  0.1477
   58POPC   NC3  998   3.370   3.883   8.451  0.1539 -0.2933 -0.0148
   58POPC   PO4  999   3.695   3.857   8.032  0.0522  0.5002  0.2287
   58POPC   GL1 1000   3.514   3.794   7.571 -0.1064  0.1946 -0.1776
   58POPC   GL2 1001   3.447   3.527   7.442  0.2018  0.0054  0.4529
   58POPC   C1A 1002   3.194   3.939   7.191 -0.2967  0.1273  0.1077
   58POPC   D2A 1003   3.068   4.137   6.772  0.0312  0.1649  0.2700
   58POPC   C3A 1004   3.051   3.782   6.416  0.2545 -0.0436  0.3843
   58POPC   C4A 1005   2.964   3.727   5.974  0.1361  0.3501 -0.1228
   58POPC   C1B 1006   3.376   3.485   6.932  0.1282  0.3388  0.0923
   58POPC   C2B 1007   3.279   3.296   6.566  0.1100  0.2651 -0.0942
   58POPC   C3B 1008   3.341   2.914   6.300 -0.0130 -0.0904  0.3440
   58POPC   C4B 1009   3.343   2.741   5.767  0.1259 -0.0455  0.2568
   59POPC   NC3 1010   4.450   8.618   7.876  0.0646 -0.0823  0.2882
   59POPC   PO4 1011   4.057   8.566   7.660  0.0780 -0.5165 -0.1467
   59POPC   GL1 1012   4.300   8.612   7.262 -0.0890  0.0384 -0.3844
   59POPC   GL2 1013   4.670   8.685   7.420  0.2417  0.1803  0.2596
   59POPC   C1A 1014   4.374   8.822   6.899 -0.0943 -0.1742  0.2905
   59POPC   D2A 1015   4.630   8.968   6.619  0.1604 -0.0618  0.1921
   59POPC   C3A 1016   4.626   9.097   6.163  0.1423  0.0728  0.1732
   59POPC   C4A 1017   4.340   9.108   5.902  0.0416  0.0901 -0.0833
   59POPC   C1B 1018   4.583   9.070   7.260  0.0147 -0.4561  0.2264
   59POPC   C2B 1019   4.632   9.561   7.240  0.3763  0.2722  0.0753
   59POPC   C3B 1020   4.494   9.790   6.900  0.0859  0.0545  0.5446
   59POPC   C4B 1021   4.354  10.222   6.774 -0.1414 -0.0933 -0.2188
   60POPC   NC3 1022   2.506   2.845   8.375 -0.0811  0.1407 -0.1573
   60POPC   PO4 1023   2.048   3.110   8.259 -0.2113 -0.0997 -0.2167
   60POPC   GL1 1024   2.152   3.239   7.833  0.1593 -0.1351 -0.0400
   60POPC   GL2 1025   2.440   3.254   7.708 -0.0945  0.0311 -0.0029
   60POPC   C1A 1026   1.756   3.123   7.515 -0.0064 -0.0770 -0.0198
   60POPC   D2A 1027   1.488   2.890   7.244  0.0240  0.1494  0.1020
   60POPC   C3A 1028   1.054   2.869   7.229 -0.1463 -0.0160 -0.2765
   60POPC   C4A 1029   0.671   2.481   7.209  0.1175 -0.0714 -0.0734
   60POPC   C1B 1030   2.493   3.276   7.248 -0.0668  0.1783  0.0117
   60POPC   C2B 1031   2.465   3.002   6.915  0.0970 -0.0210 -0.0228
   60POPC   C3B 1032   2.591   3.048   6.429  0.0977  0.2835  0.0080
   60POPC   C4B 1033   2.827   3.341   6.202 -0.0408  0.0002  0.0832
   61POPC   NC3 1034  10.378   4.371   7.485 -0.0497  0.2180  0.1578
   61POPC   PO4 1035  10.596   4.105   7.730 -0.3031  0.0047  0.1290
   61POPC   GL1 1036  10.533   3.905   7.285 -0.3754  0.0099  0.0129
   61POPC   GL2 1037  10.171   3.976   7.176 -0.2741  0.0134  0.0329
   61POPC   C1A 1038  10.527   3.724   6.861 -0.3696  0.0551 -0.0917
   61POPC   D2A 1039  10.685   3.600   6.425 -0.2549 -0.1676  0.0436
   61POPC   C3A 1040  11.011   3.259   6.240  0.0977  0.0951  0.1431
   61POPC   C4A 1041  11.237   2.979   5.986  0.3473  0.0489 -0.2595
   61POPC   C1B 1042  10.008   4.147   6.761  0.2284  0.2734  0.3871
   61POPC   C2B 1043   9.633   4.153   6.604 -0.0161  0.2783  0.4470
   61POPC   C3B 1044   9.260   4.073   6.382  0.2196 -0.4064 -0.2387
   61POPC   C4B 1045   9.043   3.908   6.139 -0.1049 -0.0725  0.1012
   62POPC   NC3 1046   1.682   1.181   9.123 -0.3677  0.0973 -0.1691
   62POPC   PO4 1047   1.306   1.058   8.944  0.0604  0.0310  0.0154
   62POPC   GL1 1048   1.485   0.802   8.633 -0.0166  0.1678  0.0064
   62POPC   GL2 1049   1.719   0.762   8.892 -0.0892 -0.2482 -0.1670
   62POPC   C1A 1050   1.686   0.630   8.323  0.0993  0.1520 -0.2638
   62POPC   D2A 1051   1.669   0.548   7.952  0.0663 -0.0645  0.1227
   62POPC   C3A 1052   1.702   0.780   7.528  0.1147 -0.2705 -0.1382
   62POPC   C4A 1053   1.504   1.233   7.683  0.1759 -0.1242  0.3132
   62POPC   C1B 1054   2.003   0.981   8.567  0.1587  0.3806 -0.0527
   62POPC   C2B 1055   2.236   0.728   8.246 -0.2608 -0.1140  0.0110
   62POPC   C3B 1056   2.530   0.467   8.489  0.2013 -0.0037 -0.2175
   62POPC   C4B 1057   2.464   0.117   8.759  0.3186 -0.0896  0.0978
   63POPC   NC3 1058   7.569   0.689   7.908  0.1566  0.2888  0.2571
   63POPC   PO4 1059   7.578   0.456   7.509 -0.1819 -0.0302 -0.1402
   63POPC   GL1 1060   7.608   0.708   7.050  0.4124 -0.0380  0.3327
   63POPC   GL2 1061   7.692   0.958   6.974 -0.0251 -0.2555  0.1329
   63POPC   C1A 1062   7.433   0.499   6.644 -0.0002 -0.1595 -0.2251
   63POPC   D2A 1063   7.423   0.714   6.283  0.1764  0.1199  0.0274
   63POPC   C3A 1064   7.317   0.645   5.893  0.4437  0.2726 -0.1262
   63POPC   C4A 1065   7.194   0.514   5.484 -0.3527  0.2941  0.1197
   63POPC   C1B 1066   7.850   0.975   6.537 -0.1111  0.1687  0.3447
   63POPC   C2B 1067   8.109   1.266   6.240 -0.2132 -0.2874 -0.3790
   63POPC   C3B 1068   7.949   1.467   5.891  0.0373  0.0599 -0.1614
   63POPC   C4B 1069   8.121   1.260   5.557  0.1483 -0.2742 -0.0488
   64POPC   NC3 1070   3.850   1.162   8.732  0.1460  0.0007  0.0489
   64POPC   PO4 1071   3.742   1.552   8.485  0.1895 -0.3190 -0.0202
   64POPC   GL1 1072   3.819   1.472   8.087 -0.4043  0.4396 -0.0419
   64POPC   GL2 1073   3.930   1.256   8.018 -0.1783  0.1454 -0.2780
   64POPC   C1A 1074   3.752   1.511   7.605  0.0965 -0.2794 -0.0304
   64POPC   D2A 1075   3.887   1.500   7.199 -0.1518  0.0310  0.1971
   64POPC   C3A 1076   3.482   1.366   7.003 -0.1341  0.4010 -0.0452
   64POPC   C4A 1077   3.334   1.126   6.662 -0.0087 -0.1651  0.0946
   64POPC   C1B 1078   3.599   0.999   7.965 -0.1275  0.1944 -0.0929
   64POPC   C2B 1079   3.204   0.741   8.081 -0.1450  0.4035  0.0239
   64POPC   C3B 1080   2.876   0.869   8.347  0.1949 -0.1712  0.0606
   64POPC   C4B 1081   2.872   1.327   8.435  0.0513 -0.2044 -0.0544
   65POPC   NC3 1082   5.592   6.746   8.042 -0.1704 -0.0105  0.1134
   65POPC   PO4 1083   5.193   6.650   7.779 -0.2396  0.2033 -0.3247
   65POPC   GL1 1084   5.098   6.537   7.289  0.1739 -0.0708 -0.1703
   65POPC   GL2 1085   5.193   6.800   7.221 -0.1905  0.1420  0.0782
   65POPC   C1A 1086   5.191   6.292   6.870 -0.0882  0.0564 -0.0093
   65POPC   D2A 1087   4.914   6.001   6.636 -0.2634  0.4521  0.2162
   65POPC   C3A 1088   4.856   5.857   6.177 -0.1315  0.0584 -0.0541
   65POPC   C4A 1089   4.943   5.796   5.732 -0.3674 -0.0190  0.1581
   65POPC   C1B 1090   5.156   6.841   6.799  0.0565 -0.2113 -0.0248
   65POPC   C2B 1091   4.929   7.101   6.510 -0.1897 -0.1691  0.1062
   65POPC   C3B 1092   5.100   7.438   6.212 -0.0076 -0.1186 -0.1687
   65POPC   C4B 1093   4.710   7.794   6.004  0.1096  0.2017  0.1382
   66POPC   NC3 1094   6.890   9.819   7.577 -0.1792  0.1643 -0.1969
   66POPC   PO4 1095   6.678   9.980   7.230  0.0258  0.3308 -0.0354
   66POPC   GL1 1096   6.482   9.891   6.899 -0.2918 -0.3345  0.1805
   66POPC   GL2 1097   6.552  10.121   6.656 -0.1087 -0.0371  0.5162
   66POPC   C1A 1098   6.414   9.659   6.508 -0.0257 -0.1218 -0.2421
   66POPC   D2A 1099   6.370   9.371   6.355  0.1104 -0.1371 -0.0287
   66POPC   C3A 1100   6.659   9.370   5.997 -0.1752 -0.3022 -0.1857
   66POPC   C4A 1101   6.950   9.329   5.630 -0.2948 -0.2202  0.3108
   66POPC   C1B 1102   6.275  10.213   6.257  0.3684  0.0706  0.1053
   66POPC   C2B 1103   6.344   9.875   5.876 -0.1636 -0.0127  0.0653
   66POPC   C3B 1104   6.436   9.543   5.493  0.3703 -0.0682  0.3535
   66POPC   C4B 1105   6.470   9.180   5.366 -0.2332  0.1439  0.2831
   67POPC   NC3 1106   4.665   0.512   7.859  0.0786  0.0223 -0.0113
   67POPC   PO4 1107   4.457   0.299   7.628  0.1343 -0.0514  0.2388
   67POPC   GL1 1108   4.142   0.409   7.438 -0.0611 -0.3099 -0.0768
   67POPC   GL2 1109   3.847   0.389   7.657  0.3018 -0.0997  0.0388
   67POPC   C1A 1110   3.812   0.425   7.166  0.0743  0.1108 -0.2656
   67POPC   D2A 1111   3.376   0.488   6.939  0.1497  0.1841 -0.3435
   67POPC   C3A 1112   3.216   0.931   7.146 -0.0762 -0.2974  0.1334
   67POPC   C4A 1113   2.976   1.230   7.051 -0.2037 -0.0986  0.2018
   67POPC   C1B 1114   3.522   0.641   7.503  0.0600  0.0285 -0.0587
   67POPC   C2B 1115   3.284   1.109   7.606 -0.3457 -0.2257 -0.2200
   67POPC   C3B 1116   3.231   1.453   7.414 -0.1392 -0.3771 -0.0529
   67POPC   C4B 1117   3.147   1.808   7.132  0.1029 -0.1531 -0.2474
   68POPC   NC3 1118   5.214   7.415   7.735 -0.1393  0.1618 -0.1370
   68POPC   PO4 1119   5.667   7.419   7.713 -0.0755  0.1326  0.0818
   68POPC   GL1 1120   5.618   7.436   7.331  0.1066 -0.5275 -0.3043
   68POPC   GL2 1121   5.375   7.302   7.277 -0.0027  0.2834  0.0829
   68POPC   C1A 1122   5.800   7.566   6.880  0.0237 -0.5056 -0.2104
   68POPC   D2A 1123   5.770   7.952   6.507 -0.0581  0.1380 -0.0605
   68POPC   C3A 1124   5.788   7.910   5.991 -0.2121 -0.0181 -0.0296
   68POPC   C4A 1125   5.859   8.242   5.823 -0.1132 -0.1484 -0.0541
   68POPC   C1B 1126   5.323   7.394   6.858  0.1045  0.3223  0.0862
   68POPC   C2B 1127   5.475   7.342   6.522  0.0029 -0.0718 -0.0143
   68POPC   C3B 1128   5.819   7.033   6.147  0.2837  0.0759 -0.0057
   68POPC   C4B 1129   6.107   7.024   5.837  0.1070  0.1872 -0.3250
   69POPC   NC3 1130   1.793   5.596   8.269  0.2322 -0.1371 -0.2594
   69POPC   PO4 1131   1.690   5.529   7.872 -0.2157  0.0009  0.0878
   69POPC   GL1 1132   1.527   5.176   7.449  0.1506 -0.0634 -0.0268
   69POPC   GL2 1133   1.257   5.407   7.231  0.1161 -0.0064 -0.2276
   69POPC   C1A 1134   1.514   5.035   7.025 -0.0133 -0.1863  0.1131
   69POPC   D2A 1135   1.381   5.077   6.513 -0.3178  0.4197  0.1967
   69POPC   C3A 1136   1.709   5.250   6.232  0.2622  0.1673 -0.2078
   69POPC   C4A 1137   1.626   5.275   5.839  0.0574 -0.1697 -0.3484
   69POPC   C1B 1138   1.549   5.556   6.901 -0.0174 -0.1298 -0.1665
   69POPC   C2B 1139   1.638   5.658   6.587  0.2135 -0.2465 -0.1654
   69POPC   C3B 1140   1.824   6.027   6.516 -0.1819 -0.1017 -0.0369
   69POPC   C4B 1141   2.177   6.316   6.321  0.0857 -0.1374 -0.0373
   70POPC   NC3 1142   1.456   5.933   7.745 -0.1382 -0.0787  0.2152
   70POPC   PO4 1143   1.227   6.152   7.487  0.0715 -0.0358 -0.0873
   70POPC   GL1 1144   1.358   5.936   7.139  0.0206  0.2812  0.2776
   70POPC   GL2 1145   1.439   6.165   6.937 -0.0106 -0.0228 -0.0956
   70POPC   C1A 1146   1.061   5.719   6.785  0.0678 -0.1046  0.2427
   70POPC   D2A 1147   1.152   5.568   6.425 -0.0251 -0.0085  0.0157
   70POPC   C3A 1148   1.456   5.807   6.166 -0.1910 -0.1974 -0.2593
   70POPC   C4A 1149   1.909   5.949   6.070  0.0429  0.2132 -0.0013
   70POPC   C1B 1150   1.386   6.254   6.473  0.3110  0.3252  0.2642
   70POPC   C2B 1151   1.550   6.315   6.010  0.1370  0.3658  0.1383
   70POPC   C3B 1152   1.676   6.318   5.601 -0.0532 -0.1797 -0.2566
   70POPC   C4B 1153   1.863   6.249   5.192 -0.5525 -0.0508  0.3403
   71POPC   NC3 1154   9.913   9.236   8.182 -0.1269  0.0714 -0.0635
   71POPC   PO4 1155   9.910   8.977   7.800 -0.0363  0.1482  0.0819
   71POPC   GL1 1156  10.070   9.194   7.551 -0.2926  0.3014 -0.0937
   71POPC   GL2 1157   9.799   9.181   7.316  0.0232  0.3058  0.1064
   71POPC   C1A 1158  10.249   9.565   7.440 -0.0847  0.0294  0.2171
   71POPC   D2A 1159  10.152   9.819   7.074 -0.0843 -0.0687  0.1725
   71POPC   C3A 1160  10.450   9.612   6.735 -0.0221 -0.1246  0.3598
   71POPC   C4A 1161  10.603   9.475   6.321 -0.0094 -0.0817 -0.0484
   71POPC   C1B 1162  10.079   9.322   6.995  0.1054 -0.0672  0.0459
   71POPC   C2B 1163   9.893   9.559   6.661 -0.1166  0.3859  0.1381
   71POPC   C3B 1164   9.953   9.960   6.640 -0.1031 -0.1953  0.1477
   71POPC   C4B 1165   9.854  10.232   6.907  0.2350  0.0471 -0.0486
   72POPC   NC3 1166   2.396   6.712   7.305  0.2324 -0.0981  0.1323
   72POPC   PO4 1167   2.843   6.684   7.364 -0.1623 -0.1405  0.0230
   72POPC   GL1 1168   2.800   6.706   6.998 -0.1442 -0.1724  0.4640
   72POPC   GL2 1169   2.961   6.450   6.838 -0.0029 -0.0748 -0.2762
   72POPC   C1A 1170   2.881   6.916   6.559  0.2837 -0.0615  0.3528
   72POPC   D2A 1171   3.160   7.030   6.249 -0.1442  0.1934 -0.1560
   72POPC   C3A 1172   3.390   6.601   6.061  0.1332 -0.0862  0.0270
   72POPC   C4A 1173   3.276   6.251   5.876  0.1511 -0.4123  0.2480
   72POPC   C1B 1174   3.235   6.716   6.746 -0.4947 -0.1507 -0.0057
   72POPC   C2B 1175   3.596   6.583   6.509 -0.1036  0.0156 -0.1706
   72POPC   C3B 1176   3.938   6.679   6.200 -0.4081 -0.0935  0.1874
   72POPC   C4B 1177   4.228   6.393   5.964 -0.0496 -0.1632  0.0294
   73POPC   NC3 1178  10.087   5.223   7.537  0.1518 -0.1698  0.0290
   73POPC   PO4 1179  10.411   4.936   7.507 -0.1257  0.0467 -0.0323
   73POPC   GL1 1180  10.199   4.903   7.171  0.0346 -0.2408 -0.0528
   73POPC   GL2 1181  10.254   5.213   7.070 -0.0228  0.0394  0.3638
   73POPC   C1A 1182  10.300   4.699   6.761  0.0256 -0.0057  0.0254
   73POPC   D2A 1183  10.610   4.870   6.516 -0.0622  0.1973  0.0380
   73POPC   C3A 1184  10.747   5.138   6.276  0.0241 -0.2645 -0.4180
   73POPC   C4A 1185  10.801   5.554   6.308 -0.0615 -0.0693  0.0125
   73POPC   C1B 1186  10.174   5.167   6.634  0.2889  0.1277 -0.0353
   73POPC   C2B 1187  10.251   5.111   6.151  0.1324 -0.2983  0.2238
   73POPC   C3B 1188  10.566   5.412   5.845 -0.1471  0.0137  0.2687
   73POPC   C4B 1189  11.015   5.275   5.926 -0.1151 -0.0383 -0.2347
   74POPC   NC3 1190   6.765   5.012   7.843 -0.1092  0.1616 -0.2643
   74POPC   PO4 1191   6.512   5.282   7.585  0.0243 -0.2039 -0.0139
   74POPC   GL1 1192   6.569   5.158   7.249 -0.1582 -0.0820  0.0373
   74POPC   GL2 1193   6.318   5.373   7.082  0.1573  0.0269  0.2223
   74POPC   C1A 1194   6.530   4.960   6.847 -0.1859  0.2740  0.2076
   74POPC   D2A 1195   6.505   4.996   6.422  0.0954 -0.1187 -0.2084
   74POPC   C3A 1196   6.886   5.123   6.195  0.1246  0.1024  0.2532
   74POPC   C4A 1197   7.137   5.090   5.894  0.0217 -0.0759  0.2742
   74POPC   C1B 1198   5.949   5.622   6.965 -0.1986  0.0442  0.1596
   74POPC   C2B 1199   5.870   5.755   6.507 -0.3289 -0.2448  0.2645
   74POPC   C3B 1200   6.012   5.539   6.058 -0.0997 -0.1449 -0.1044
   74POPC   C4B 1201   6.126   5.801   5.685 -0.0588 -0.3172 -0.1641
   75POPC   NC3 1202   2.969   5.359   8.331 -0.0123 -0.1180 -0.1191
   75POPC   PO4 1203   3.038   5.117   7.894  0.0328  0.0563 -0.0737
   75POPC   GL1 1204   3.073   4.873   7.577 -0.0961 -0.0258 -0.2530
   75POPC   GL2 1205   2.815   4.859   7.409 -0.2164 -0.2944  0.1456
   75POPC   C1A 1206   3.297   5.062   7.250 -0.1887 -0.0222 -0.1245
   75POPC   D2A 1207   3.628   5.305   7.004 -0.0644 -0.1577  0.3749
   75POPC   C3A 1208   3.655   5.177   6.465  0.3232 -0.0212  0.2032
   75POPC   C4A 1209   3.596   5.203   6.063  0.0156  0.0536 -0.3595
   75POPC   C1B 1210   2.723   4.972   6.991  0.0710 -0.1415 -0.2314
   75POPC   C2B 1211   2.771   4.975   6.516  0.2037 -0.1597  0.0790
   75POPC   C3B 1212   2.676   5.179   6.052  0.0908 -0.1844 -0.2600
   75POPC   C4B 1213   2.692   5.328   5.645 -0.1054  0.1578 -0.3393
   76POPC   NC3 1214   9.923   2.700   7.534  0.0745  0.2873 -0.0500
   76POPC   PO4 1215  10.063   2.341   7.815 -0.1945 -0.0037 -0.1060
   76POPC   GL1 1216  10.300   2.324   7.439  0.1272  0.1670  0.1719
   76POPC   GL2 1217  10.244   1.918   7.451 -0.0657  0.0823  0.0207
   76POPC   C1A 1218  10.477   2.465   7.030 -0.0686 -0.1647 -0.1983
   76POPC   D2A 1219  10.448   2.745   6.654  0.0867  0.2003 -0.0291
   76POPC   C3A 1220  10.008   2.883   6.373  0.0086  0.0580  0.1093
   76POPC   C4A 1221   9.631   3.062   6.188  0.2308  0.1108 -0.0009
   76POPC   C1B 1222  10.145   2.041   7.002 -0.1131  0.1515  0.1945
   76POPC   C2B 1223  10.094   2.428   6.657 -0.1870 -0.3740 -0.4141
   76POPC   C3B 1224   9.976   2.424   6.196  0.0350  0.0268 -0.1282
   76POPC   C4B 1225   9.888   2.810   5.872 -0.0602 -0.0598 -0.0151
   77POPC   NC3 1226   4.622   0.985   8.630  0.0528 -0.2780  0.1048
   77POPC   PO4 1227   4.432   0.800   8.275 -0.1053  0.0610  0.1572
   77POPC   GL1 1228   4.221   0.823   7.861  0.1670  0.1080  0.1843
   77POPC   GL2 1229   4.405   0.808   7.593 -0.0905 -0.1997 -0.1293
   77POPC   C1A 1230   3.899   0.954   7.500  0.1953 -0.2097 -0.4527
   77POPC   D2A 1231   3.724   0.951   7.138 -0.0009  0.1198 -0.1623
   77POPC   C3A 1232   3.977   1.136   6.809  0.1247 -0.0566 -0.1218
   77POPC   C4A 1233   4.115   0.983   6.411  0.1167 -0.1384 -0.0146
   77POPC   C1B 1234   4.230   0.795   7.083  0.4412 -0.0248 -0.1110
   77POPC   C2B 1235   3.969   0.632   6.776 -0.1981 -0.0058  0.2575
   77POPC   C3B 1236   3.903   0.374   6.396  0.0442 -0.0859 -0.0185
   77POPC   C4B 1237   3.810   0.138   6.015 -0.1344 -0.1519 -0.1642
   78POPC   NC3 1238   0.995   7.002   7.452 -0.0565  0.0509  0.1861
   78POPC   PO4 1239   1.288   7.232   7.636 -0.1232  0.1345  0.1060
   78POPC   GL1 1240   1.453   7.112   7.163  0.1577  0.0323 -0.0736
   78POPC   GL2 1241   1.783   6.959   6.996  0.0439  0.1993 -0.2714
   78POPC   C1A 1242   1.429   7.222   6.711 -0.0873  0.0507 -0.0300
   78POPC   D2A 1243   1.400   7.642   6.624  0.2367 -0.2871 -0.0565
   78POPC   C3A 1244   1.009   7.810   6.493 -0.1105  0.3652 -0.1334
   78POPC   C4A 1245   0.634   7.942   6.538 -0.0252 -0.1218  0.2668
   78POPC   C1B 1246   1.900   7.150   6.550  0.0133 -0.0862  0.1947
   78POPC   C2B 1247   2.222   7.335   6.180 -0.4922  0.2332  0.1051
   78POPC   C3B 1248   2.354   7.589   5.878 -0.0548  0.0120 -0.1132
   78POPC   C4B 1249   2.540   7.892   5.540 -0.0271  0.1713 -0.2201
   79POPC   NC3 1250   8.962  10.008   8.289  0.1011 -0.0193 -0.0971
   79POPC   PO4 1251   8.938  10.163   7.745  0.0943  0.1511 -0.0362
   79POPC   GL1 1252   8.855  10.444   7.318  0.0087 -0.3821 -0.1004
   79POPC   GL2 1253   8.615  10.391   7.112 -0.1352  0.2036 -0.1190
   79POPC   C1A 1254   9.066  10.676   6.970 -0.4076  0.0667  0.1733
   79POPC   D2A 1255   9.097  10.932   6.541  0.3126  0.2035  0.0875
   79POPC   C3A 1256   9.351  10.823   6.276 -0.0539 -0.1385  0.2846
   79POPC   C4A 1257   9.681  10.730   6.067 -0.0098 -0.2481  0.1673
   79POPC   C1B 1258   8.662  10.619   6.668 -0.0332  0.1747  0.5324
   79POPC   C2B 1259   8.709  10.528   6.229 -0.0027 -0.1187  0.0224
   79POPC   C3B 1260   8.963  10.721   5.973 -0.0286  0.0293  0.1282
   79POPC   C4B 1261   9.274  10.813   5.745  0.0480  0.1051 -0.0414
   80POPC   NC3 1262   4.526  10.542   7.902  0.0237 -0.1146  0.5113
   80POPC   PO4 1263   4.817  10.210   7.693  0.1275 -0.2270  0.1475
   80POPC   GL1 1264   4.500  10.332   7.401  0.1348 -0.0106  0.1122
   80POPC   GL2 1265   4.721  10.082   7.216  0.2096 -0.2560  0.0005
   80POPC   C1A 1266   4.127  10.058   7.206  0.2731  0.2316 -0.0765
   80POPC   D2A 1267   3.941   9.937   6.850  0.0812  0.3518 -0.4361
   80POPC   C3A 1268   3.986   9.719   6.429 -0.1735  0.4551 -0.1021
   80POPC   C4A 1269   3.954   9.408   6.064  0.3758  0.0695  0.2265
   80POPC   C1B 1270   4.835  10.284   6.861 -0.0105 -0.1924  0.1526
   80POPC   C2B 1271   4.610  10.413   6.445 -0.0766 -0.2126  0.1712
   80POPC   C3B 1272   4.488  10.712   6.141 -0.0319  0.0840 -0.0008
   80POPC   C4B 1273   4.267  10.863   5.750  0.2226  0.0795  0.2132
   81POPC   NC3 1274   8.480   2.764   7.493  0.0242  0.4909 -0.1177
   81POPC   PO4 1275   8.682   3.104   7.612  0.1798  0.0151 -0.1053
   81POPC   GL1 1276   8.528   3.461   7.371 -0.1480 -0.1415  0.0284
   81POPC   GL2 1277   8.199   3.637   7.244  0.1616  0.2337 -0.3064
   81POPC   C1A 1278   8.772   3.553   6.974 -0.3332  0.3213  0.1849
   81POPC   D2A 1279   9.036   3.556   6.527 -0.1926  0.1932 -0.0161
   81POPC   C3A 1280   8.998   3.423   6.140  0.0469 -0.2754 -0.0626
   81POPC   C4A 1281   8.794   3.243   5.820 -0.1921  0.0898 -0.0975
   81POPC   C1B 1282   8.298   3.569   6.841 -0.0867  0.0669  0.0844
   81POPC   C2B 1283   8.172   3.663   6.383  0.0907  0.1434 -0.0200
   81POPC   C3B 1284   8.032   3.829   6.004  0.1772 -0.1946  0.1391
   81POPC   C4B 1285   7.650   3.654   5.736 -0.2107  0.0860 -0.3316
   82POPC   NC3 1286   4.408   4.113   7.315 -0.0221  0.0973 -0.1192
   82POPC   PO4 1287   4.107   3.949   7.519  0.0930  0.0428 -0.2573
   82POPC   GL1 1288   4.042   3.823   7.176 -0.1675  0.0963  0.0064
   82POPC   GL2 1289   3.770   3.744   7.121  0.0178  0.3100 -0.0226
   82POPC   C1A 1290   4.180   3.819   6.749 -0.0209 -0.0824 -0.2775
   82POPC   D2A 1291   4.009   3.806   6.317 -0.0065  0.1092 -0.0188
   82POPC   C3A 1292   3.879   3.422   6.078  0.3499  0.0463 -0.2306
   82POPC   C4A 1293   3.744   2.920   5.998 -0.0725 -0.3108 -0.2435
   82POPC   C1B 1294   3.945   3.294   6.955 -0.1054 -0.1933 -0.1424
   82POPC   C2B 1295   3.948   2.886   7.204  0.0132 -0.0401 -0.0985
   82POPC   C3B 1296   4.266   2.420   7.337 -0.4172  0.1413  0.0237
   82POPC   C4B 1297   4.707   2.462   7.265 -0.1568  0.0841 -0.0188
   83POPC   NC3 1298   5.369   8.315   7.793 -0.1645  0.1634  0.1222
   83POPC   PO4 1299   5.498   8.358   7.338 -0.1372  0.0071 -0.2848
   83POPC   GL1 1300   5.354   8.264   7.027 -0.1560  0.1204  0.0626
   83POPC   GL2 1301   5.420   7.872   7.032 -0.2331  0.0367  0.0574
   83POPC   C1A 1302   5.469   8.308   6.617 -0.2047  0.1755 -0.1364
   83POPC   D2A 1303   5.437   8.440   6.193 -0.0648  0.1976  0.2358
   83POPC   C3A 1304   5.476   8.782   6.133 -0.1615  0.0058 -0.1319
   83POPC   C4A 1305   5.546   9.117   5.915 -0.4728  0.0681 -0.0375
   83POPC   C1B 1306   5.288   7.856   6.610 -0.3431  0.0622 -0.0300
   83POPC   C2B 1307   5.337   7.959   6.142 -0.1024 -0.2115  0.0660
   83POPC   C3B 1308   5.145   7.854   5.704 -0.2132  0.0592  0.0326
   83POPC   C4B 1309   4.761   7.686   5.454  0.1178  0.1062 -0.3694
   84POPC   NC3 1310   8.152   5.771   7.726  0.0584  0.2153 -0.2388
   84POPC   PO4 1311   7.883   5.583   7.352 -0.0863 -0.0223  0.2353
   84POPC   GL1 1312   7.804   5.781   6.909  0.1658  0.1634  0.0831
   84POPC   GL2 1313   7.672   5.712   6.564 -0.1855  0.1089  0.0785
   84POPC   C1A 1314   7.772   6.193   6.688  0.2978  0.2204  0.0111
   84POPC   D2A 1315   7.436   6.504   6.317 -0.2573 -0.0533  0.1750
   84POPC   C3A 1316   7.669   6.700   5.929  0.2602  0.0489 -0.4035
   84POPC   C4A 1317   7.806   6.461   5.747  0.1753  0.1996  0.0817
   84POPC   C1B 1318   7.809   5.327   6.392 -0.2975 -0.0145  0.3043
   84POPC   C2B 1319   8.107   5.216   6.171 -0.2719 -0.1941 -0.0785
   84POPC   C3B 1320   8.314   5.532   5.895  0.1052 -0.0786 -0.1486
   84POPC   C4B 1321   8.557   5.790   5.555 -0.1704 -0.0854 -0.0049
   85POPC   NC3 1322   7.938   7.546   7.186 -0.0640 -0.1601  0.1630
   85POPC   PO4 1323   7.803   7.943   7.331 -0.1060 -0.0318  0.0750
   85POPC   GL1 1324   7.811   8.381   6.955 -0.2171  0.1265  0.1019
   85POPC   GL2 1325   8.007   8.763   7.029 -0.0091  0.1236 -0.2390
   85POPC   C1A 1326   7.704   8.377   6.518  0.3381 -0.0299 -0.3832
   85POPC   D2A 1327   7.457   8.731   6.202  0.0515  0.0515  0.0608
   85POPC   C3A 1328   7.279   9.074   6.409  0.1760  0.2688  0.1652
   85POPC   C4A 1329   7.129   9.186   6.869 -0.1570 -0.1555 -0.1671
   85POPC   C1B 1330   8.203   8.491   6.650  0.0852 -0.1173 -0.0360
   85POPC   C2B 1331   8.433   8.437   6.307  0.2425  0.1241 -0.0971
   85POPC   C3B 1332   8.517   8.748   6.115 -0.0846 -0.0811 -0.2448
   85POPC   C4B 1333   8.533   9.149   6.087 -0.1910 -0.1229  0.2429
   86POPC   NC3 1334  10.599   7.003   7.764  0.3305 -0.0665  0.0139
   86POPC   PO4 1335  10.286   7.341   7.634  0.1691  0.2787 -0.0777
   86POPC   GL1 1336  10.174   7.316   7.190 -0.0546 -0.0121 -0.1845
   86POPC   GL2 1337  10.236   7.277   6.999  0.4178 -0.0794  0.3286
   86POPC   C1A 1338   9.948   7.568   6.731  0.1370  0.1921 -0.2013
   86POPC   D2A 1339   9.644   7.675   6.441  0.1716  0.0838  0.4158
   86POPC   C3A 1340   9.251   7.459   6.309  0.3561  0.1365  0.0631
   86POPC   C4A 1341   9.187   7.009   6.176  0.2254 -0.4042 -0.1359
   86POPC   C1B 1342  10.507   7.380   6.576  0.1284  0.3700  0.0984
   86POPC   C2B 1343  10.839   7.627   6.448 -0.0322 -0.0797  0.5084
   86POPC   C3B 1344  11.002   7.788   6.115 -0.0280 -0.0608 -0.0308
   86POPC   C4B 1345  10.821   7.988   5.770 -0.0380 -0.0829  0.3466
   87POPC   NC3 1346   2.544   4.898   7.841 -0.1803 -0.1029 -0.0859
   87POPC   PO4 1347   2.243   4.619   7.480 -0.1810 -0.5243 -0.1183
   87POPC   GL1 1348   2.263   4.765   7.112  0.0086  0.0414 -0.1083
   87POPC   GL2 1349   1.967   4.786   6.998  0.1126  0.3296 -0.1357
   87POPC   C1A 1350   2.394   4.752   6.692 -0.2127  0.1549  0.5359
   87POPC   D2A 1351   2.296   4.497   6.285  0.0055  0.5905  0.1306
   87POPC   C3A 1352   1.893   4.530   5.988  0.0272 -0.3147  0.2687
   87POPC   C4A 1353   1.925   4.848   5.688  0.2223 -0.2278  0.0727
   87POPC   C1B 1354   1.660   4.633   6.773  0.1870  0.3773 -0.3141
   87POPC   C2B 1355   1.546   4.419   6.377  0.2565 -0.2048  0.1362
   87POPC   C3B 1356   1.351   4.254   6.096 -0.1130  0.1475  0.1377
   87POPC   C4B 1357   1.320   3.978   5.801 -0.1088  0.2630  0.0672
   88POPC   NC3 1358   8.631   3.724   7.811 -0.1426 -0.2375 -0.3377
   88POPC   PO4 1359   8.879   4.112   7.692  0.0092  0.2301  0.1924
   88POPC   GL1 1360   8.939   4.197   7.307  0.2313 -0.0331  0.2007
   88POPC   GL2 1361   8.883   4.567   7.142 -0.1717  0.0201 -0.1904
   88POPC   C1A 1362   9.065   3.956   6.965 -0.0465  0.2145  0.1033
   88POPC   D2A 1363   9.395   3.735   6.763 -0.1997  0.2686 -0.0365
   88POPC   C3A 1364   9.635   3.707   6.380 -0.4685 -0.1254  0.2781
   88POPC   C4A 1365   9.462   3.549   6.024  0.0808  0.3227  0.3932
   88POPC   C1B 1366   8.971   4.953   6.897  0.0215  0.0937 -0.0677
   88POPC   C2B 1367   8.798   5.274   6.876  0.2644  0.0525  0.0406
   88POPC   C3B 1368   8.498   5.535   6.717  0.1006  0.2004 -0.1023
   88POPC   C4B 1369   8.290   5.574   6.424 -0.3038 -0.0529  0.1587
   89POPC   NC3 1370   5.414   0.317   8.190 -0.1156  0.0257 -0.0387
   89POPC   PO4 1371   5.236   0.599   7.814 -0.1464  0.1825 -0.2373
   89POPC   GL1 1372   4.957   0.770   7.510  0.4654  0.3982 -0.1547
   89POPC   GL2 1373   4.839   0.502   7.347  0.3044  0.0236 -0.0440
   89POPC   C1A 1374   4.680   1.007   7.236  0.1195 -0.0391 -0.0622
   89POPC   D2A 1375   4.564   1.070   6.761 -0.2276 -0.0535 -0.0111
   89POPC   C3A 1376   4.914   0.906   6.516 -0.1259 -0.1388  0.3461
   89POPC   C4A 1377   5.240   0.641   6.318 -0.0273  0.3537  0.1528
   89POPC   C1B 1378   4.628   0.541   7.071  0.4512  0.2733  0.2191
   89POPC   C2B 1379   4.588   0.580   6.695  0.1657 -0.1880  0.0540
   89POPC   C3B 1380   4.402   0.633   6.245  0.0084 -0.0124 -0.2118
   89POPC   C4B 1381   4.022   0.758   5.981 -0.0969  0.1479 -0.0347
   90POPC   NC3 1382   0.825   3.270   8.751 -0.1001 -0.0539  0.2980
   90POPC   PO4 1383   0.723   3.211   8.251 -0.0695 -0.0473 -0.1663
   90POPC   GL1 1384   0.733   2.901   7.910 -0.1226  0.1182 -0.0342
   90POPC   GL2 1385   0.884   3.073   7.668 -0.1560  0.0331  0.3301
   90POPC   C1A 1386   0.903   2.463   7.706  0.0249 -0.1208 -0.1379
   90POPC   D2A 1387   1.268   2.357   7.529  0.2856  0.0337  0.1036
   90POPC   C3A 1388   1.591   2.174   7.753 -0.1738 -0.0923 -0.0315
   90POPC   C4A 1389   1.981   2.167   7.649  0.0599  0.3469  0.2087
   90POPC   C1B 1390   0.533   2.998   7.433  0.1196  0.1191 -0.0170
   90POPC   C2B 1391   0.657   3.001   6.978  0.1598  0.0639  0.2832
   90POPC   C3B 1392   0.876   3.147   6.493 -0.2099 -0.1060  0.0378
   90POPC   C4B 1393   1.117   3.400   6.498 -0.0449 -0.0125 -0.1381
   91POPC   NC3 1394   9.281   5.642   7.474 -0.2651  0.0338 -0.0558
   91POPC   PO4 1395   9.124   6.026   7.222 -0.0754 -0.0015 -0.2777
   91POPC   GL1 1396   9.209   6.285   6.905 -0.2154  0.1983 -0.2143
   91POPC   GL2 1397   9.609   6.416   6.895  0.2396  0.1417  0.0724
   91POPC   C1A 1398   9.250   6.342   6.537 -0.4044  0.1080  0.2158
   91POPC   D2A 1399   9.579   6.241   6.291 -0.1020  0.1107  0.0089
   91POPC   C3A 1400   9.536   6.017   5.860  0.1854  0.2265  0.2697
   91POPC   C4A 1401   9.310   5.744   5.623  0.1128 -0.1220 -0.0209
   91POPC   C1B 1402   9.948   6.404   6.601  0.0988  0.0844  0.2185
   91POPC   C2B 1403  10.298   6.593   6.419 -0.2067 -0.0625 -0.0428
   91POPC   C3B 1404  10.708   6.648   6.196  0.1271  0.0008 -0.1600
   91POPC   C4B 1405  10.933   6.835   5.950  0.0165  0.0422  0.0384
   92POPC   NC3 1406   2.200   0.527   9.653 -0.4114 -0.0918  0.0164
   92POPC   PO4 1407   1.844   0.430   9.322 -0.2694  0.0912 -0.1750
   92POPC   GL1 1408   2.133   0.487   9.034  0.4873  0.0724  0.1450
   92POPC   GL2 1409   2.029   0.431   8.727 -0.0550  0.2206 -0.1377
   92POPC   C1A 1410   2.541   0.570   8.999 -0.0328 -0.1088  0.0544
   92POPC   D2A 1411   2.884   0.455   8.868 -0.0161  0.1116 -0.2128
   92POPC   C3A 1412   3.111   0.456   8.459 -0.2923  0.1393  0.0381
   92POPC   C4A 1413   3.009   0.282   8.058  0.2769 -0.0012 -0.2071
   92POPC   C1B 1414   2.085   0.237   8.307 -0.1358  0.1089  0.1242
   92POPC   C2B 1415   2.485   0.104   7.999 -0.0365 -0.0337  0.2966
   92POPC   C3B 1416   2.780   0.058   7.670 -0.0280  0.1356 -0.1449
   92POPC   C4B 1417   2.731   0.084   7.199  0.1822  0.0442 -0.2811
   93POPC   NC3 1418   6.139   2.570   7.452 -0.1703  0.0492 -0.0248
   93POPC   PO4 1419   6.471   2.998   7.295  0.0922  0.3508  0.0724
   93POPC   GL1 1420   6.516   2.916   6.864 -0.0175 -0.2980  0.2021
   93POPC   GL2 1421   6.329   3.162   6.828  0.1113 -0.4048  0.0393
   93POPC   C1A 1422   6.965   2.846   6.665 -0.0388 -0.2831 -0.2072
   93POPC   D2A 1423   7.189   2.609   6.466 -0.2705  0.2160 -0.1401
   93POPC   C3A 1424   6.942   2.527   6.180 -0.0070  0.1226 -0.0400
   93POPC   C4A 1425   6.672   2.203   6.056  0.0247  0.0001 -0.0190
   93POPC   C1B 1426   6.351   3.093   6.337  0.0779 -0.1526 -0.0701
   93POPC   C2B 1427   6.518   2.990   5.970  0.0468 -0.0849 -0.2034
   93POPC   C3B 1428   6.651   2.722   5.786  0.3010  0.0824  0.2051
   93POPC   C4B 1429   6.671   2.598   5.371 -0.3838 -0.2993  0.0470
   94POPC   NC3 1430   7.980   6.069   7.280 -0.3016  0.0695 -0.0067
   94POPC   PO4 1431   7.533   6.182   7.383  0.1535  0.2506 -0.0749
   94POPC   GL1 1432   7.423   6.370   7.077  0.1768  0.1746  0.1193
   94POPC   GL2 1433   7.123   6.399   7.065 -0.2513 -0.2067 -0.2835
   94POPC   C1A 1434   7.305   6.108   6.691 -0.4269  0.1148 -0.3922
   94POPC   D2A 1435   7.085   6.074   6.366  0.0192  0.3765  0.1343
   94POPC   C3A 1436   7.234   6.336   5.930  0.2370  0.0205  0.2997
   94POPC   C4A 1437   7.304   6.715   5.631 -0.1969 -0.4048 -0.3708
   94POPC   C1B 1438   6.844   6.419   6.743 -0.1718  0.1607 -0.1363
   94POPC   C2B 1439   6.786   6.638   6.313  0.1347 -0.2136 -0.3276
   94POPC   C3B 1440   6.989   6.846   5.982 -0.3137 -0.0057 -0.0963
   94POPC   C4B 1441   7.333   7.226   6.016 -0.0223 -0.0380 -0.0541
   95POPC   NC3 1442   0.247   1.870   8.752 -0.3741 -0.1247 -0.1981
   95POPC   PO4 1443   0.590   1.599   8.684 -0.2831  0.0818 -0.2178
   95POPC   GL1 1444   0.742   1.294   8.400 -0.1676  0.0811  0.3623
   95POPC   GL2 1445   1.070   1.175   8.422  0.4313 -0.0178 -0.1632
   95POPC   C1A 1446   0.761   1.307   7.967 -0.0785  0.0651 -0.0628
   95POPC   D2A 1447   0.625   1.476   7.605 -0.4663 -0.1117  0.0052
   95POPC   C3A 1448   0.797   1.621   7.244 -0.0240 -0.2133  0.1564
   95POPC   C4A 1449   0.993   2.055   7.123 -0.2121  0.0509  0.2623
   95POPC   C1B 1450   1.285   1.391   8.121 -0.0929  0.0376 -0.1988
   95POPC   C2B 1451   1.645   1.660   7.886 -0.2732 -0.1294 -0.3398
   95POPC   C3B 1452   2.022   1.695   7.614 -0.1268  0.3564 -0.0468
   95POPC   C4B 1453   2.325   1.484   7.575  0.0228  0.0947 -0.1295
   96POPC   NC3 1454   4.741   6.561   7.620  0.1072 -0.0112  0.1544
   96POPC   PO4 1455   4.426   6.882   7.537  0.1130  0.0245 -0.2691
   96POPC   GL1 1456   4.660   6.799   7.148 -0.1151 -0.1056 -0.2460
   96POPC   GL2 1457   4.777   7.040   7.062  0.1835 -0.1016  0.3218
   96POPC   C1A 1458   4.777   6.539   6.826  0.0156  0.1561  0.0668
   96POPC   D2A 1459   4.849   6.371   6.361  0.1640 -0.4198  0.1582
   96POPC   C3A 1460   5.063   6.668   6.227  0.2972 -0.0382 -0.0603
   96POPC   C4A 1461   5.343   6.999   6.063 -0.1240  0.0607 -0.2057
   96POPC   C1B 1462   4.539   7.145   6.757 -0.0529  0.0997  0.1520
   96POPC   C2B 1463   4.150   7.099   6.425  0.1228 -0.1826 -0.0398
   96POPC   C3B 1464   4.121   7.329   6.024  0.1499  0.0149 -0.0072
   96POPC   C4B 1465   4.283   7.632   5.775 -0.0985 -0.2328  0.0974
   97POPC   NC3 1466   0.803   6.407   7.539 -0.1761  0.2612 -0.3382
   97POPC   PO4 1467   0.513   6.679   7.226 -0.2726 -0.3569  0.4121
   97POPC   GL1 1468   0.490   6.903   6.779  0.1144 -0.1306  0.1159
   97POPC   GL2 1469   0.859   6.968   6.951  0.1239 -0.0793  0.3740
   97POPC   C1A 1470   0.299   7.070   6.425 -0.0724  0.2976 -0.0277
   97POPC   D2A 1471   0.294   7.304   6.062  0.1359 -0.0446 -0.0633
   97POPC   C3A 1472  -0.097   7.518   5.931  0.2501 -0.0444  0.1462
   97POPC   C4A 1473  -0.498   7.428   5.788  0.0249 -0.0998  0.1420
   97POPC   C1B 1474   0.990   7.070   6.592  0.0993  0.0778  0.0720
   97POPC   C2B 1475   1.226   7.341   6.233  0.0316  0.2525 -0.0582
   97POPC   C3B 1476   1.534   7.273   5.988  0.0585  0.0966  0.1442
   97POPC   C4B 1477   2.007   7.212   5.773 -0.0148  0.2097 -0.1327
   98POPC   NC3 1478   9.700   3.094   7.333 -0.3342  0.1115 -0.3240
   98POPC   PO4 1479   9.941   2.972   7.100 -0.1181 -0.0912 -0.0145
   98POPC   GL1 1480   9.897   3.115   6.748  0.2237  0.0265 -0.0299
   98POPC   GL2 1481   9.602   3.193   6.737 -0.2468 -0.1226  0.5447
   98POPC   C1A 1482  10.108   3.380   6.292  0.0417  0.2440  0.0514
   98POPC   D2A 1483  10.175   3.319   5.910 -0.2571 -0.0894  0.0637
   98POPC   C3A 1484   9.770   3.412   5.679  0.1810 -0.2152  0.2491
   98POPC   C4A 1485   9.542   3.745   5.517  0.2450 -0.1708 -0.3972
   98POPC   C1B 1486   9.562   2.679   6.678 -0.0622 -0.0613 -0.2420
   98POPC   C2B 1487   9.660   2.248   6.654 -0.1072  0.5492  0.1700
   98POPC   C3B 1488   9.878   1.929   6.593  0.2418  0.2660 -0.2162
   98POPC   C4B 1489   9.902   1.555   6.367 -0.0250 -0.0687 -0.1539
   99POPC   NC3 1490   8.226   3.306   7.733 -0.3224  0.0949  0.4032
   99POPC   PO4 1491   8.117   3.066   7.364  0.2571 -0.4426  0.0771
   99POPC   GL1 1492   8.101   3.081   6.927  0.2405  0.1368  0.0215
   99POPC   GL2 1493   7.917   2.914   6.713  0.0761 -0.1513  0.1523
   99POPC   C1A 1494   8.382   3.064   6.642  0.3552 -0.1169 -0.1159
   99POPC   D2A 1495   8.323   2.944   6.154 -0.1053  0.0776 -0.0952
   99POPC   C3A 1496   8.051   2.669   6.353  0.1936  0.0567 -0.4627
   99POPC   C4A 1497   7.706   2.431   6.520 -0.1816 -0.0880 -0.4572
   99POPC   C1B 1498   7.891   3.177   6.365  0.1169 -0.2021 -0.1581
   99POPC   C2B 1499   7.994   3.336   6.018 -0.1854 -0.0244 -0.0553
   99POPC   C3B 1500   8.306   3.491   5.774  0.1668  0.3402  0.2008
   99POPC   C4B 1501   8.197   3.896   5.517 -0.3765  0.2446 -0.0408
  100POPC   NC3 1502   7.446   5.378   7.130  0.0797 -0.0502  0.1567
  100POPC   PO4 1503   7.318   4.984   7.209 -0.1856 -0.1637 -0.2491
  100POPC   GL1 1504   7.002   5.153   6.973  0.3210  0.1637 -0.0730
  100POPC   GL2 1505   7.015   4.936   6.737 -0.3991 -0.0528  0.1507
  100POPC   C1A 1506   6.814   5.413   6.594  0.3460 -0.0924 -0.2834
  100POPC   D2A 1507   6.535   5.581   6.184  0.0507 -0.2622  0.2476
  100POPC   C3A 1508   6.609   5.956   5.948 -0.0039 -0.0676 -0.0041
  100POPC   C4A 1509   6.676   6.423   5.902 -0.0608  0.2450 -0.0592
  100POPC   C1B 1510   7.227   4.820   6.401  0.6528  0.0062 -0.0610
  100POPC   C2B 1511   7.355   4.560   6.099  0.0844  0.0937  0.0881
  100POPC   C3B 1512   7.586   4.727   5.718 -0.1301  0.2743  0.0175
  100POPC   C4B 1513   7.988   4.820   5.681 -0.0851 -0.0453 -0.3276
  101POPC   NC3 1514   5.463   5.913   7.752 -0.2165  0.4350  0.0784
  101POPC   PO4 1515   5.100   6.165   7.612 -0.2411 -0.0516 -0.0287
  101POPC   GL1 1516   5.277   5.931   7.261 -0.0344  0.2022 -0.0407
  101POPC   GL2 1517   5.476   5.649   7.302  0.1047 -0.1827 -0.1412
  101POPC   C1A 1518   5.369   5.830   6.819 -0.1346 -0.3055 -0.1803
  101POPC   D2A 1519   5.351   5.600   6.498  0.0128 -0.0515  0.3202
  101POPC   C3A 1520   5.354   5.736   6.108 -0.0305  0.2766 -0.1202
  101POPC   C4A 1521   5.489   5.908   5.696  0.0370 -0.1825  0.2197
  101POPC   C1B 1522   5.223   5.419   7.094  0.2957  0.4983  0.0870
  101POPC   C2B 1523   4.955   5.484   6.767  0.0138  0.1953  0.2108
  101POPC   C3B 1524   4.613   5.562   6.523  0.1634  0.2467 -0.0625
  101POPC   C4B 1525   4.509   5.445   6.179 -0.1231 -0.1906 -0.0041
  102POPC   NC3 1526   0.793   0.831   8.769  0.2528 -0.3928  0.0267
  102POPC   PO4 1527   1.025   0.518   8.642 -0.1483  0.3676 -0.0369
  102POPC   GL1 1528   1.242   0.468   8.339 -0.3366  0.2767 -0.3237
  102POPC   GL2 1529   1.473   0.202   8.305  0.0334 -0.0902 -0.0610
  102POPC   C1A 1530   1.219   0.348   7.920 -0.1351 -0.1682  0.0535
  102POPC   D2A 1531   1.285   0.241   7.521  0.1188  0.1415 -0.1421
  102POPC   C3A 1532   0.904   0.456   7.393 -0.0075 -0.0176  0.3404
  102POPC   C4A 1533   0.776   0.476   7.022  0.3104 -0.0098  0.1979
  102POPC   C1B 1534   1.707   0.040   7.988  0.2358 -0.0768  0.0008
  102POPC   C2B 1535   2.052  -0.066   7.861 -0.1365  0.3525  0.0615
  102POPC   C3B 1536   2.299   0.019   7.476 -0.3364  0.1403 -0.0237
  102POPC   C4B 1537   2.120   0.080   7.081 -0.0205  0.0362 -0.3472
  103POPC   NC3 1538   7.531   8.763   7.752  0.0547  0.2364  0.1742
  103POPC   PO4 1539   7.027   8.930   7.571  0.0363  0.0596 -0.2141
  103POPC   GL1 1540   6.948   8.706   7.137  0.0004  0.3373 -0.1860
  103POPC   GL2 1541   7.180   8.583   6.814  0.1735  0.0816  0.3596
  103POPC   C1A 1542   6.793   8.874   6.697 -0.2137 -0.2465 -0.3209
  103POPC   D2A 1543   6.600   8.916   6.287  0.2237 -0.2328 -0.3611
  103POPC   C3A 1544   6.863   8.900   5.929  0.2602 -0.0310  0.1221
  103POPC   C4A 1545   7.168   8.709   5.673  0.1254 -0.1829  0.0125
  103POPC   C1B 1546   6.991   8.497   6.410  0.0024  0.4462 -0.1007
  103POPC   C2B 1547   6.955   8.387   5.966  0.0069  0.0996 -0.1577
  103POPC   C3B 1548   6.801   8.051   5.722 -0.1071 -0.1855 -0.1029
  103POPC   C4B 1549   6.970   7.679   5.566 -0.2693  0.0742  0.3770
  104POPC   NC3 1550   8.995   5.428   7.827 -0.0652 -0.1496  0.3741
  104POPC   PO4 1551   9.194   5.111   7.475 -0.1369  0.1971 -0.1105
  104POPC   GL1 1552   9.272   5.244   7.072 -0.1819 -0.0159  0.2944
  104POPC   GL2 1553   9.306   5.612   6.975 -0.2896  0.1370  0.1540
  104POPC   C1A 1554   9.183   5.283   6.638  0.0232 -0.1052  0.0810
  104POPC   D2A 1555   8.742   5.318   6.336  0.1073  0.1576 -0.0385
  104POPC   C3A 1556   8.401   5.073   6.581  0.1865  0.0599 -0.1334
  104POPC   C4A 1557   8.089   4.843   6.567  0.0018 -0.2536 -0.2748
  104POPC   C1B 1558   9.520   5.891   6.704  0.0793 -0.2223 -0.1390
  104POPC   C2B 1559   9.889   5.860   6.480  0.1323  0.0915 -0.1907
  104POPC   C3B 1560  10.028   6.037   6.091  0.0493 -0.2821  0.0241
  104POPC   C4B 1561   9.958   6.221   5.659  0.1041  0.2170  0.3155
  105POPC   NC3 1562   8.125   1.426   7.712 -0.0718 -0.1540  0.1084
  105POPC   PO4 1563   8.487   1.408   7.456  0.1376 -0.1559  0.5173
  105POPC   GL1 1564   8.590   1.310   7.033 -0.0709 -0.1278 -0.3291
  105POPC   GL2 1565   8.475   1.058   7.110 -0.3267  0.0555  0.1322
  105POPC   C1A 1566   8.892   1.013   6.730 -0.3714 -0.1056  0.1588
  105POPC   D2A 1567   9.164   0.801   6.420  0.1116  0.1661  0.1816
  105POPC   C3A 1568   9.001   0.586   5.971 -0.4759  0.0702 -0.1316
  105POPC   C4A 1569   8.829   0.307   5.572 -0.0072  0.2641  0.0485
  105POPC   C1B 1570   8.338   1.001   6.641 -0.1965 -0.4291  0.1654
  105POPC   C2B 1571   8.524   0.870   6.215  0.1018 -0.0222 -0.2047
  105POPC   C3B 1572   8.456   0.999   5.819 -0.2345  0.1304  0.1203
  105POPC   C4B 1573   8.787   1.125   5.519 -0.1560  0.1213 -0.1617
  106POPC   NC3 1574   6.924   7.118   7.653 -0.2074  0.0041 -0.0009
  106POPC   PO4 1575   6.498   7.162   7.588  0.0401 -0.1675 -0.0257
  106POPC   GL1 1576   6.501   7.188   7.185  0.2344  0.0624  0.0698
  106POPC   GL2 1577   6.710   7.085   6.861 -0.3288  0.2358  0.0052
  106POPC   C1A 1578   6.138   7.018   6.942 -0.2970  0.2386  0.1975
  106POPC   D2A 1579   5.888   6.879   6.613 -0.1190 -0.1134 -0.2246
  106POPC   C3A 1580   5.966   6.552   6.264 -0.0822  0.0149 -0.1722
  106POPC   C4A 1581   6.290   6.596   6.090  0.2015  0.2161 -0.1637
  106POPC   C1B 1582   6.838   7.104   6.444 -0.0425  0.2413 -0.2478
  106POPC   C2B 1583   6.536   7.047   6.058 -0.0872  0.1309 -0.1278
  106POPC   C3B 1584   6.264   7.412   6.101  0.1456  0.0829  0.3104
  106POPC   C4B 1585   5.904   7.482   6.361  0.1885  0.3037  0.0308
  107POPC   NC3 1586   3.752   0.356   8.120  0.0819  0.1773 -0.2790
  107POPC   PO4 1587   3.988  -0.035   8.061  0.0692  0.0974 -0.1401
  107POPC   GL1 1588   3.905  -0.126   7.706  0.1687  0.3180 -0.0883
  107POPC   GL2 1589   3.988  -0.041   7.442  0.1804  0.0152 -0.4840
  107POPC   C1A 1590   3.543  -0.215   7.334 -0.0935  0.2111 -0.0438
  107POPC   D2A 1591   3.417   0.075   7.168  0.2844 -0.0206  0.1984
  107POPC   C3A 1592   3.219  -0.026   6.843  0.0350  0.0148 -0.2063
  107POPC   C4A 1593   2.996   0.137   6.557  0.0427  0.1029 -0.0505
  107POPC   C1B 1594   3.933  -0.150   7.039 -0.1952  0.0210  0.0067
  107POPC   C2B 1595   3.722   0.122   6.792 -0.1179 -0.0147 -0.0564
  107POPC   C3B 1596   3.474   0.293   6.508 -0.1205  0.1516 -0.4346
  107POPC   C4B 1597   3.170   0.665   6.521  0.0114 -0.1582  0.2252
  108POPC   NC3 1598   1.886   4.373   8.317  0.1997 -0.1223 -0.1310
  108POPC   PO4 1599   1.944   4.103   7.998  0.1666  0.1954 -0.1344
  108POPC   GL1 1600   1.881   4.190   7.559 -0.2348  0.1333 -0.2036
  108POPC   GL2 1601   1.559   4.081   7.533  0.2087 -0.3183  0.0532
  108POPC   C1A 1602   1.904   4.110   7.025  0.4304  0.1991  0.0843
  108POPC   D2A 1603   1.956   4.258   6.589 -0.1946 -0.2683 -0.1136
  108POPC   C3A 1604   2.030   4.006   6.260  0.1348 -0.2061 -0.2639
  108POPC   C4A 1605   2.286   3.892   5.857 -0.0305  0.4210  0.1061
  108POPC   C1B 1606   1.664   3.692   7.303 -0.0577  0.1835 -0.1822
  108POPC   C2B 1607   1.799   3.332   7.091 -0.6993 -0.0255  0.1119
  108POPC   C3B 1608   2.023   2.943   7.161  0.4246  0.0256  0.0060
  108POPC   C4B 1609   2.258   2.832   7.590  0.4646 -0.2213  0.1795
  109POPC   NC3 1610  10.298   8.736   7.719 -0.1948 -0.2572  0.1407
  109POPC   PO4 1611  10.699   8.746   7.578  0.1961 -0.1166  0.1657
  109POPC   GL1 1612  10.859   8.812   7.237  0.1314  0.0363 -0.1066
  109POPC   GL2 1613  11.080   8.493   7.181 -0.0926 -0.2473  0.0596
  109POPC   C1A 1614  11.019   8.930   6.807 -0.1254 -0.0984  0.1789
  109POPC   D2A 1615  10.882   8.840   6.406 -0.3631 -0.1881  0.4941
  109POPC   C3A 1616  11.032   9.224   6.044 -0.1750 -0.0333  0.3089
  109POPC   C4A 1617  11.184   9.627   6.155  0.1721 -0.1824  0.3913
  109POPC   C1B 1618  11.340   8.377   6.815 -0.0152  0.0079 -0.0331
  109POPC   C2B 1619  11.326   8.579   6.404  0.0269 -0.1048  0.0024
  109POPC   C3B 1620  11.505   8.962   6.078 -0.6775 -0.1621  0.1175
  109POPC   C4B 1621  11.598   9.176   5.768 -0.0986  0.1468  0.0193
  110POPC   NC3 1622   8.474  10.382   7.668 -0.4715 -0.0026  0.0269
  110POPC   PO4 1623   8.154  10.376   7.471 -0.3336  0.1581 -0.0340
  110POPC   GL1 1624   8.142  10.372   7.029  0.0156  0.3528 -0.0542
  110POPC   GL2 1625   7.821  10.341   6.899 -0.2306 -0.2633  0.0060
  110POPC   C1A 1626   8.195  10.605   6.557  0.0046  0.2907  0.0576
  110POPC   D2A 1627   8.235  10.743   6.158 -0.0312 -0.0075  0.1294
  110POPC   C3A 1628   8.443  10.600   5.773 -0.0809  0.1907 -0.3579
  110POPC   C4A 1629   8.614  10.504   5.318  0.0813 -0.0343 -0.0318
  110POPC   C1B 1630   7.797  10.234   6.494  0.1144  0.1204  0.0168
  110POPC   C2B 1631   7.767  10.325   6.094 -0.2422  0.1461 -0.2649
  110POPC   C3B 1632   7.481  10.540   5.942 -0.0781  0.1962  0.2177
  110POPC   C4B 1633   7.292  10.627   5.496 -0.0624  0.1202 -0.1609
  111POPC   NC3 1634   0.986   9.099   8.423  0.1971 -0.1955 -0.1377
  111POPC   PO4 1635   0.775   8.963   8.041 -0.0984 -0.2612  0.0234
  111POPC   GL1 1636   0.748   9.171   7.535 -0.0232  0.2420 -0.2293
  111POPC   GL2 1637   0.574   9.595   7.559  0.1244 -0.1118 -0.1304
  111POPC   C1A 1638   0.953   9.436   7.339  0.2703 -0.1154 -0.1824
  111POPC   D2A 1639   1.166   9.811   7.433  0.4320  0.0547  0.2652
  111POPC   C3A 1640   1.000  10.164   7.720  0.1578 -0.1264 -0.1716
  111POPC   C4A 1641   1.223  10.459   8.075 -0.1362 -0.1702  0.1544
  111POPC   C1B 1642   0.720   9.775   7.138  0.0198  0.2464  0.0353
  111POPC   C2B 1643   0.745   9.818   6.619 -0.1581 -0.0469 -0.1575
  111POPC   C3B 1644   1.107   9.997   6.362  0.1965 -0.0486 -0.0659
  111POPC   C4B 1645   1.082  10.139   5.862  0.1663 -0.0229  0.0444
  112POPC   NC3 1646   4.693   8.979   8.035  0.0279  0.0162 -0.1893
  112POPC   PO4 1647   5.049   9.080   7.779 -0.1680 -0.0482  0.0408
  112POPC   GL1 1648   5.037   9.173   7.297  0.0463 -0.2983  0.0759
  112POPC   GL2 1649   5.119   9.523   7.144 -0.2276  0.0975  0.0296
  112POPC   C1A 1650   4.969   8.913   6.977 -0.3303  0.2788  0.0579
  112POPC   D2A 1651   4.810   8.494   6.783  0.4430  0.2266 -0.2825
  112POPC   C3A 1652   4.335   8.339   6.890 -0.1603  0.1593 -0.1361
  112POPC   C4A 1653   3.882   8.335   7.048  0.1791 -0.1354 -0.0840
  112POPC   C1B 1654   4.885   9.615   6.668  0.2721 -0.1454 -0.0156
  112POPC   C2B 1655   4.673   9.837   6.326 -0.0136  0.0227 -0.1129
  112POPC   C3B 1656   4.827  10.151   6.015 -0.2593  0.0037  0.2119
  112POPC   C4B 1657   5.258  10.295   5.851 -0.1081  0.1574 -0.1499
  113POPC   NC3 1658   7.146   6.195   7.860  0.0982 -0.0581  0.1423
  113POPC   PO4 1659   6.995   6.107   7.453 -0.4288  0.1469  0.0502
  113POPC   GL1 1660   6.763   6.044   7.207  0.0552  0.3005  0.2989
  113POPC   GL2 1661   6.547   6.320   7.190 -0.0827 -0.0184 -0.4351
  113POPC   C1A 1662   6.814   5.949   6.788  0.1969  0.1089 -0.1066
  113POPC   D2A 1663   6.605   6.150   6.429  0.2934 -0.0300 -0.3733
  113POPC   C3A 1664   6.244   6.100   6.297 -0.0038 -0.0883  0.0362
  113POPC   C4A 1665   5.823   6.050   6.074  0.0756  0.1670  0.3424
  113POPC   C1B 1666   6.334   6.420   6.736 -0.3672 -0.0943 -0.1190
  113POPC   C2B 1667   6.379   6.777   6.530  0.4359 -0.1662 -0.1442
  113POPC   C3B 1668   6.342   7.339   6.587 -0.5332  0.3287 -0.0266
  113POPC   C4B 1669   6.704   7.546   6.627  0.0408  0.1227 -0.2448
  114POPC   NC3 1670   8.940   1.512   7.394  0.0365  0.0487 -0.0100
  114POPC   PO4 1671   9.117   1.884   7.351  0.1270  0.3183 -0.3244
  114POPC   GL1 1672   8.998   1.896   6.907  0.0667  0.2160 -0.0008
  114POPC   GL2 1673   9.006   1.574   6.901  0.0214 -0.2155  0.4072
  114POPC   C1A 1674   9.205   2.021   6.546  0.5209 -0.0132 -0.1566
  114POPC   D2A 1675   9.518   2.052   6.193 -0.3300 -0.0383  0.0230
  114POPC   C3A 1676   9.993   1.915   6.068 -0.0193  0.2723 -0.1802
  114POPC   C4A 1677  10.345   2.132   5.807 -0.2043 -0.1278 -0.1429
  114POPC   C1B 1678   9.075   1.466   6.510  0.1962  0.1474  0.0779
  114POPC   C2B 1679   9.380   1.571   6.226 -0.1298 -0.0563 -0.0074
  114POPC   C3B 1680   9.517   1.753   5.806 -0.1872  0.0795  0.0829
  114POPC   C4B 1681   9.398   1.936   5.338 -0.1032  0.1714 -0.3077
  115POPC   NC3 1682   4.480   5.483   7.602 -0.1071  0.1612  0.1433
  115POPC   PO4 1683   4.742   5.207   7.757  0.2247 -0.0842 -0.0815
  115POPC   GL1 1684   4.648   5.169   7.259 -0.2644 -0.0090  0.0383
  115POPC   GL2 1685   4.512   5.234   6.940 -0.1581  0.4570  0.1467
  115POPC   C1A 1686   4.968   4.927   7.056  0.5006  0.0385  0.2160
  115POPC   D2A 1687   5.474   4.841   6.929 -0.3849 -0.0978 -0.2688
  115POPC   C3A 1688   5.676   4.776   6.516  0.2017  0.1699 -0.0632
  115POPC   C4A 1689   5.610   5.165   6.179  0.1970  0.0540 -0.1183
  115POPC   C1B 1690   4.703   5.084   6.520  0.0100  0.4366 -0.0732
  115POPC   C2B 1691   5.057   5.360   6.200 -0.2721 -0.0024  0.0346
  115POPC   C3B 1692   5.267   5.260   5.832 -0.2084 -0.0710 -0.1693
  115POPC   C4B 1693   5.414   5.246   5.374  0.2735  0.2358  0.2277
  116POPC   NC3 1694   9.847   1.690   7.673  0.0352 -0.0435 -0.1882
  116POPC   PO4 1695  10.051   1.363   7.897  0.3835 -0.0175 -0.0862
  116POPC   GL1 1696  10.323   1.312   7.591 -0.0597 -0.1115  0.0569
  116POPC   GL2 1697  10.458   1.161   7.747  0.1844 -0.0786 -0.2450
  116POPC   C1A 1698  10.385   1.530   7.170 -0.1558 -0.2968  0.1189
  116POPC   D2A 1699  10.276   1.452   6.725 -0.1449 -0.1756  0.0224
  116POPC   C3A 1700  10.337   1.768   6.399 -0.1321 -0.2557 -0.0346
  116POPC   C4A 1701  10.481   1.682   6.005 -0.0489 -0.3446 -0.2012
  116POPC   C1B 1702  10.789   1.175   7.395  0.0077  0.1082 -0.2877
  116POPC   C2B 1703  10.951   1.511   7.117 -0.3091 -0.2998 -0.1402
  116POPC   C3B 1704  10.843   1.634   6.721 -0.1069 -0.1240  0.0789
  116POPC   C4B 1705  10.680   1.385   6.399  0.2644 -0.0825 -0.0522
  117POPC   NC3 1706   6.061  10.398   7.543 -0.1585 -0.3008  0.0021
  117POPC   PO4 1707   6.375  10.773   7.546 -0.1571 -0.5150  0.1191
  117POPC   GL1 1708   6.283  10.773   7.065  0.0792  0.1519  0.0615
  117POPC   GL2 1709   6.724  10.735   6.919  0.1717 -0.2994 -0.0109
  117POPC   C1A 1710   6.313  10.574   6.655  0.1064  0.0521 -0.0453
  117POPC   D2A 1711   6.621  10.565   6.341 -0.1247  0.0789 -0.1031
  117POPC   C3A 1712   6.961  10.454   6.563 -0.4771  0.1001  0.0072
  117POPC   C4A 1713   7.327  10.599   6.836 -0.1836 -0.0465  0.0103
  117POPC   C1B 1714   6.884  10.967   6.627  0.3399 -0.1194  0.0068
  117POPC   C2B 1715   6.961  11.228   6.204  0.1111 -0.0111 -0.2198
  117POPC   C3B 1716   6.856  11.396   5.806 -0.1059 -0.0711 -0.0983
  117POPC   C4B 1717   6.993  11.671   5.570 -0.2040 -0.1057 -0.1314
  118POPC   NC3 1718   0.437   4.936   7.350  0.0552 -0.4915 -0.0904
  118POPC   PO4 1719   0.920   4.963   7.287 -0.0826 -0.0058 -0.0380
  118POPC   GL1 1720   0.972   4.609   7.151 -0.0430 -0.1933  0.1455
  118POPC   GL2 1721   1.185   4.462   7.254 -0.3382  0.1839  0.4278
  118POPC   C1A 1722   1.145   4.557   6.748 -0.3019  0.2594  0.0658
  118POPC   D2A 1723   1.107   4.647   6.228  0.1837  0.1629  0.1550
  118POPC   C3A 1724   0.928   4.356   5.915  0.1190 -0.0032  0.0579
  118POPC   C4A 1725   0.470   4.383   5.788  0.0966 -0.1116 -0.2677
  118POPC   C1B 1726   1.404   4.176   6.915 -0.5197  0.1741 -0.1072
  118POPC   C2B 1727   1.587   3.888   6.573 -0.1085  0.1040  0.3426
  118POPC   C3B 1728   1.630   3.744   6.157 -0.0901  0.0216 -0.1042
  118POPC   C4B 1729   1.302   3.505   5.991  0.1754 -0.0188  0.0772
  119POPC   NC3 1730   9.730   7.310   7.669 -0.2258 -0.0726  0.0387
  119POPC   PO4 1731   9.612   7.029   7.357 -0.5139 -0.1920 -0.0708
  119POPC   GL1 1732   9.679   7.018   6.875  0.3309 -0.0201 -0.0850
  119POPC   GL2 1733   9.935   6.811   6.859  0.1765 -0.0985  0.0456
  119POPC   C1A 1734   9.650   7.203   6.532  0.3405  0.2242 -0.1429
  119POPC   D2A 1735   9.809   7.254   6.119 -0.0461  0.0922 -0.0867
  119POPC   C3A 1736   9.558   7.087   5.904  0.0814 -0.3547  0.0667
  119POPC   C4A 1737   9.164   7.295   5.804  0.1291 -0.4750  0.1985
  119POPC   C1B 1738  10.069   6.974   6.545 -0.0012 -0.0110  0.1478
  119POPC   C2B 1739  10.314   7.017   6.154  0.1930 -0.2238  0.1107
  119POPC   C3B 1740  10.491   6.968   5.722  0.0086 -0.1093  0.3750
  119POPC   C4B 1741  10.741   6.684   5.518  0.2081  0.4000  0.2118
  120POPC   NC3 1742   5.506  10.000   7.802  0.3266 -0.1037  0.2064
  120POPC   PO4 1743   5.548   9.699   7.389  0.1698 -0.4355 -0.1924
  120POPC   GL1 1744   5.595   9.514   7.046  0.1736  0.0251 -0.2595
  120POPC   GL2 1745   5.690   9.222   7.038  0.1625  0.3515 -0.2235
  120POPC   C1A 1746   5.607   9.690   6.646 -0.1219 -0.0876 -0.1997
  120POPC   D2A 1747   5.266   9.784   6.344  0.1747 -0.2523 -0.4340
  120POPC   C3A 1748   5.426   9.590   5.998  0.2247  0.2125 -0.0221
  120POPC   C4A 1749   5.349   9.463   5.617 -0.2577  0.0851 -0.1185
  120POPC   C1B 1750   5.421   9.191   6.745  0.0997  0.2738  0.2046
  120POPC   C2B 1751   5.033   9.198   6.457  0.0112  0.1183  0.3432
  120POPC   C3B 1752   4.953   9.483   6.082  0.1291  0.1581  0.1018
  120POPC   C4B 1753   4.799   9.364   5.665  0.1162  0.1245  0.4560
  121POPC   NC3 1754   7.495   1.877   7.451  0.0919 -0.1008  0.2168
  121POPC   PO4 1755   7.613   1.413   7.488  0.2457  0.1558  0.1734
  121POPC   GL1 1756   7.591   1.460   7.070  0.0525  0.0289 -0.1545
  121POPC   GL2 1757   7.447   1.779   7.010 -0.1161  0.2370 -0.2478
  121POPC   C1A 1758   7.882   1.404   6.763  0.0771  0.2424  0.1685
  121POPC   D2A 1759   8.277   1.610   6.704  0.1673 -0.2699 -0.0561
  121POPC   C3A 1760   8.589   1.439   6.443  0.2751 -0.0015 -0.0371
  121POPC   C4A 1761   8.817   1.224   6.062  0.3440  0.1804  0.0978
  121POPC   C1B 1762   7.269   1.593   6.639  0.1094 -0.3440  0.2605
  121POPC   C2B 1763   7.410   1.680   6.194 -0.1076  0.1013 -0.0904
  121POPC   C3B 1764   7.726   1.910   5.974  0.1614 -0.2711 -0.0135
  121POPC   C4B 1765   8.060   1.900   5.630 -0.1010 -0.1388  0.1815
  122POPC   NC3 1766   6.883   4.699   7.312  0.2830 -0.0981  0.0089
  122POPC   PO4 1767   6.628   4.316   7.306 -0.0990 -0.1796  0.0082
  122POPC   GL1 1768   6.790   4.408   6.903 -0.3664  0.0267 -0.2415
  122POPC   GL2 1769   6.702   4.105   6.886  0.0617  0.0671 -0.0076
  122POPC   C1A 1770   6.694   4.479   6.531  0.1985 -0.1356 -0.1279
  122POPC   D2A 1771   6.770   4.664   6.220  0.0938 -0.0204  0.1941
  122POPC   C3A 1772   6.364   4.800   6.022 -0.1119 -0.1569  0.0564
  122POPC   C4A 1773   6.155   5.149   5.723 -0.1468  0.2503 -0.0180
  122POPC   C1B 1774   6.702   3.871   6.594  0.0286 -0.0157 -0.1103
  122POPC   C2B 1775   6.626   3.684   6.139 -0.2552 -0.1921  0.1797
  122POPC   C3B 1776   6.398   3.812   5.831 -0.0696 -0.1097  0.0890
  122POPC   C4B 1777   6.288   4.039   5.433  0.1054 -0.3024  0.0021
  123POPC   NC3 1778   9.877   6.538   7.478  0.2340 -0.3711 -0.2215
  123POPC   PO4 1779   9.991   6.109   7.459 -0.0668  0.2547 -0.0792
  123POPC   GL1 1780  10.086   6.200   7.105  0.1330 -0.2407 -0.1210
  123POPC   GL2 1781  10.043   6.037   6.933  0.2573 -0.3783 -0.0568
  123POPC   C1A 1782  10.362   6.526   6.904 -0.0246  0.0881  0.1209
  123POPC   D2A 1783  10.590   6.887   6.769  0.1350 -0.1989 -0.2203
  123POPC   C3A 1784  10.862   6.525   6.657  0.3796  0.1038 -0.0023
  123POPC   C4A 1785  11.233   6.581   6.381 -0.3147  0.2823 -0.1913
  123POPC   C1B 1786  10.301   6.117   6.587  0.0699  0.3115 -0.2872
  123POPC   C2B 1787  10.511   6.201   6.273  0.0203  0.1728  0.3044
  123POPC   C3B 1788  10.531   5.934   5.977  0.1514  0.0723  0.1097
  123POPC   C4B 1789  10.212   5.720   5.572 -0.1448 -0.0535  0.0036
  124POPC   NC3 1790   6.160   6.229   7.579  0.2293 -0.0532 -0.1262
  124POPC   PO4 1791   5.945   5.902   7.606 -0.0778  0.1701  0.1724
  124POPC   GL1 1792   5.832   6.095   7.195 -0.0095  0.2751 -0.4934
  124POPC   GL2 1793   6.122   6.115   7.106  0.3022  0.1185 -0.0358
  124POPC   C1A 1794   5.646   6.477   7.022  0.0306  0.0898  0.1570
  124POPC   D2A 1795   5.469   6.674   6.516  0.0196  0.2171 -0.1775
  124POPC   C3A 1796   5.557   6.571   6.006 -0.1596 -0.2706  0.0744
  124POPC   C4A 1797   5.687   6.354   5.674 -0.0770 -0.0101  0.1550
  124POPC   C1B 1798   5.917   6.227   6.704  0.0121  0.0474 -0.1453
  124POPC   C2B 1799   5.543   6.116   6.451 -0.1577  0.1040 -0.0193
  124POPC   C3B 1800   5.293   6.219   6.200 -0.1254  0.2041  0.1047
  124POPC   C4B 1801   5.179   6.241   5.714  0.3317 -0.0009  0.0751
  125POPC   NC3 1802   2.932   8.577   8.336  0.2364 -0.0448 -0.2332
  125POPC   PO4 1803   3.003   8.906   8.024  0.0620 -0.0213  0.0550
  125POPC   GL1 1804   3.134   8.791   7.590 -0.2348 -0.2521  0.0996
  125POPC   GL2 1805   2.791   8.760   7.324 -0.0250 -0.0093 -0.0964
  125POPC   C1A 1806   3.308   8.709   7.228 -0.3616  0.0127  0.2611
  125POPC   D2A 1807   3.436   8.563   6.806 -0.1220 -0.1111  0.0129
  125POPC   C3A 1808   3.353   8.484   6.357 -0.2037  0.0999 -0.3690
  125POPC   C4A 1809   3.597   8.777   6.105  0.2353 -0.3308  0.4165
  125POPC   C1B 1810   2.901   8.780   6.890  0.0115  0.2833  0.0296
  125POPC   C2B 1811   2.966   8.751   6.414  0.1846 -0.0903 -0.0312
  125POPC   C3B 1812   3.190   8.991   6.064  0.3219 -0.0377  0.0628
  125POPC   C4B 1813   3.370   9.072   5.745 -0.0031 -0.3448 -0.1690
  126POPC   NC3 1814   4.298   3.790   8.007  0.1105  0.0226 -0.2879
  126POPC   PO4 1815   4.318   3.217   7.873  0.1525 -0.0852  0.0587
  126POPC   GL1 1816   4.321   3.058   7.503 -0.1256 -0.1992 -0.0255
  126POPC   GL2 1817   4.326   3.502   7.401 -0.2069  0.2809 -0.1448
  126POPC   C1A 1818   4.427   2.912   7.056 -0.0737  0.1160 -0.0871
  126POPC   D2A 1819   4.495   2.525   6.857  0.3045  0.0729  0.0397
  126POPC   C3A 1820   4.414   2.481   6.414  0.1302 -0.0709 -0.1403
  126POPC   C4A 1821   4.704   2.804   6.101 -0.1024  0.0481 -0.4656
  126POPC   C1B 1822   4.470   3.443   6.942 -0.2258 -0.1143 -0.0212
  126POPC   C2B 1823   4.617   3.508   6.512 -0.1815  0.1324 -0.0192
  126POPC   C3B 1824   4.942   3.452   6.153  0.0275 -0.0351 -0.1867
  126POPC   C4B 1825   5.223   3.512   5.865 -0.2373  0.0588  0.1116
  127POPC   NC3 1826   2.029   8.955   8.011  0.0384  0.0066 -0.1455
  127POPC   PO4 1827   1.689   8.700   7.868  0.0733 -0.2801  0.0818
  127POPC   GL1 1828   1.562   8.964   7.532 -0.1203 -0.2592 -0.0902
  127POPC   GL2 1829   1.257   9.022   7.501  0.3526 -0.1983 -0.3166
  127POPC   C1A 1830   1.818   8.889   7.222  0.0247 -0.0544 -0.4284
  127POPC   D2A 1831   1.873   9.035   6.843 -0.1081  0.1851 -0.5213
  127POPC   C3A 1832   2.130   8.994   6.512  0.2856 -0.0622 -0.2540
  127POPC   C4A 1833   2.422   8.785   6.293  0.1968 -0.0002 -0.0123
  127POPC   C1B 1834   1.299   8.982   7.063 -0.0337 -0.0539 -0.0649
  127POPC   C2B 1835   1.453   9.132   6.565  0.2037  0.2293 -0.1509
  127POPC   C3B 1836   1.814   9.324   6.333  0.1296  0.0489  0.0672
  127POPC   C4B 1837   2.212   9.237   6.089  0.0196 -0.4820  0.0047
  128POPC   NC3 1838   7.174   7.842   7.414  0.1697 -0.0800  0.0613
  128POPC   PO4 1839   7.038   7.383   7.285  0.3300  0.0601 -0.3236
  128POPC   GL1 1840   7.132   7.385   6.746  0.1598 -0.0392 -0.1288
  128POPC   GL2 1841   7.348   7.155   6.573  0.2424 -0.4131 -0.0919
  128POPC   C1A 1842   7.093   7.595   6.307 -0.2385 -0.1839 -0.0901
  128POPC   D2A 1843   7.148   7.912   5.981 -0.1593 -0.1640 -0.1302
  128POPC   C3A 1844   7.413   7.742   5.769  0.0939  0.2389  0.2320
  128POPC   C4A 1845   7.761   7.591   5.664 -0.3962 -0.0859 -0.0117
  128POPC   C1B 1846   7.769   6.979   6.374  0.1255  0.1559  0.1043
  128POPC   C2B 1847   8.246   7.000   6.149 -0.1397  0.1016  0.0628
  128POPC   C3B 1848   8.397   7.169   5.710 -0.1106 -0.0997 -0.0675
  128POPC   C4B 1849   8.311   7.367   5.275  0.3587  0.3081  0.1573
  129POPC   NC3 1850   5.459   1.397   8.000  0.7076  0.2024 -0.0220
  129POPC   PO4 1851   5.259   1.102   7.844  0.1184  0.0807  0.5218
  129POPC   GL1 1852   5.125   1.240   7.409 -0.1449  0.1508  0.2605
  129POPC   GL2 1853   5.316   1.010   7.280 -0.1441 -0.1783  0.3927
  129POPC   C1A 1854   5.230   1.482   6.978 -0.3304 -0.0558  0.3007
  129POPC   D2A 1855   5.228   1.480   6.438 -0.2196 -0.1167 -0.0478
  129POPC   C3A 1856   5.332   1.217   6.139  0.0515 -0.0105 -0.4307
  129POPC   C4A 1857   5.502   0.766   5.951  0.0684 -0.1179 -0.1051
  129POPC   C1B 1858   5.039   0.851   6.988 -0.2331  0.1810  0.0454
  129POPC   C2B 1859   5.098   0.431   6.830 -0.3374 -0.2544 -0.3865
  129POPC   C3B 1860   4.862   0.214   6.481  0.0617  0.2157 -0.5403
  129POPC   C4B 1861   5.007   0.014   6.098  0.1728  0.0448 -0.0252
  130POPC   NC3 1862   3.960  10.305   8.437  0.0911 -0.4570  0.0751
  130POPC   PO4 1863   3.661  10.596   8.461  0.3100  0.1408 -0.3521
  130POPC   GL1 1864   3.504  10.549   8.029  0.1151 -0.0547 -0.1103
  130POPC   GL2 1865   3.395  10.373   7.858  0.0150  0.0220 -0.2626
  130POPC   C1A 1866   3.361  10.861   7.660  0.0757  0.0911 -0.2036
  130POPC   D2A 1867   3.054  11.062   7.454 -0.1416  0.0630  0.0979
  130POPC   C3A 1868   2.878  11.427   7.597 -0.1312 -0.1000 -0.0088
  130POPC   C4A 1869   2.794  11.774   7.544 -0.1909 -0.1246  0.1179
  130POPC   C1B 1870   3.077  10.181   7.602  0.0594  0.0383 -0.0174
  130POPC   C2B 1871   3.007  10.286   7.129 -0.1484 -0.3033 -0.3325
  130POPC   C3B 1872   3.006  10.008   6.684  0.2584 -0.0171  0.2902
  130POPC   C4B 1873   2.783   9.795   6.414  0.1797 -0.2979 -0.2144
  131POPC   NC3 1874   8.826   6.433   7.329 -0.3004  0.0764  0.2578
  131POPC   PO4 1875   8.468   6.194   7.383  0.2546  0.1217 -0.2029
  131POPC   GL1 1876   8.738   6.171   6.905  0.1325 -0.0086  0.1610
  131POPC   GL2 1877   8.834   5.881   6.887  0.3797  0.0231  0.1525
  131POPC   C1A 1878   8.573   6.157   6.489  0.1933  0.1556 -0.4097
  131POPC   D2A 1879   8.527   5.939   6.118  0.0807 -0.3565  0.0268
  131POPC   C3A 1880   8.262   6.098   5.863  0.1129  0.1859 -0.0195
  131POPC   C4A 1881   8.143   6.275   5.417 -0.2007 -0.3413  0.0966
  131POPC   C1B 1882   8.972   5.854   6.511  0.0334  0.1148  0.1593
  131POPC   C2B 1883   9.095   6.038   6.117 -0.1177 -0.1478 -0.0850
  131POPC   C3B 1884   9.247   6.446   5.945 -0.1248  0.3335 -0.1494
  131POPC   C4B 1885   9.164   6.829   5.651  0.1665  0.1042 -0.1578
  132POPC   NC3 1886   8.240   8.239   7.617  0.1933  0.1304  0.0744
  132POPC   PO4 1887   8.622   8.403   7.526  0.0896  0.0181  0.2787
  132POPC   GL1 1888   8.837   8.551   7.146 -0.1572 -0.1645  0.1268
  132POPC   GL2 1889   9.220   8.517   7.135 -0.1932 -0.1014 -0.0010
  132POPC   C1A 1890   8.795   8.644   6.698  0.0532 -0.0908  0.1707
  132POPC   D2A 1891   8.949   8.564   6.221  0.0043  0.2173 -0.1474
  132POPC   C3A 1892   9.017   8.884   6.030  0.2999 -0.0382 -0.2256
  132POPC   C4A 1893   9.261   9.136   5.724 -0.1217 -0.1776  0.3578
  132POPC   C1B 1894   9.262   8.795   6.785 -0.2292 -0.2455  0.0331
  132POPC   C2B 1895   9.440   8.797   6.361  0.2654  0.0992  0.3612
  132POPC   C3B 1896   9.597   8.832   5.853  0.2109  0.0530 -0.4208
  132POPC   C4B 1897   9.620   8.992   5.390  0.0218  0.1269  0.2439
  133POPC   NC3 1898   5.796   7.868   7.496  0.1984 -0.1292  0.0726
  133POPC   PO4 1899   5.393   7.871   7.525 -0.4206  0.0171 -0.1425
  133POPC   GL1 1900   5.041   7.682   7.306 -0.0055  0.1227  0.2103
  133POPC   GL2 1901   4.847   7.454   7.357  0.0372 -0.1319 -0.2010
  133POPC   C1A 1902   4.852   7.550   6.840  0.1011  0.1802  0.0153
  133POPC   D2A 1903   4.816   7.810   6.476  0.0386  0.0185  0.0568
  133POPC   C3A 1904   4.565   8.141   6.404 -0.3116 -0.0136 -0.4450
  133POPC   C4A 1905   4.471   8.580   6.390  0.2279 -0.1180  0.2049
  133POPC   C1B 1906   4.407   7.421   7.160 -0.0768 -0.1693  0.0654
  133POPC   C2B 1907   3.998   7.407   6.814 -0.0148  0.3400 -0.0688
  133POPC   C3B 1908   3.811   7.505   6.501  0.2772 -0.2145  0.0027
  133POPC   C4B 1909   3.693   7.533   6.050  0.2372 -0.2322  0.2883
  134POPC   NC3 1910   2.810   3.625   7.682  0.0622  0.1619  0.3892
  134POPC   PO4 1911   2.842   4.024   7.841 -0.2076  0.0478 -0.1103
  134POPC   GL1 1912   2.915   4.356   7.522 -0.0524  0.0551 -0.0491
  134POPC   GL2 1913   2.683   4.373   7.431 -0.3021 -0.1300  0.2375
  134POPC   C1A 1914   3.141   4.472   7.207 -0.1613  0.1975 -0.2298
  134POPC   D2A 1915   3.139   4.638   6.849 -0.1837 -0.3925  0.0528
  134POPC   C3A 1916   2.913   4.481   6.483 -0.2099  0.1253 -0.1887
  134POPC   C4A 1917   2.790   4.561   6.101  0.1710 -0.0692  0.0669
  134POPC   C1B 1918   2.650   4.475   7.022  0.1737  0.0235  0.0748
  134POPC   C2B 1919   2.528   4.292   6.673  0.4171  0.0639  0.0495
  134POPC   C3B 1920   2.573   4.104   6.248 -0.0906  0.0450  0.2314
  134POPC   C4B 1921   2.728   4.144   5.835  0.3066  0.1178  0.3706
  135POPC   NC3 1922   5.198  10.073   7.338  0.0260  0.1509  0.2122
  135POPC   PO4 1923   5.374  10.420   7.552  0.3209  0.0598 -0.2141
  135POPC   GL1 1924   5.256  10.633   7.209  0.1731  0.3069  0.2370
  135POPC   GL2 1925   4.931  10.675   7.140  0.1921 -0.1743 -0.2294
  135POPC   C1A 1926   5.227  10.562   6.788 -0.1616  0.1373 -0.2914
  135POPC   D2A 1927   5.271  10.291   6.366 -0.0103  0.1378  0.2444
  135POPC   C3A 1928   5.743  10.147   6.250  0.0756 -0.0030  0.1487
  135POPC   C4A 1929   5.975   9.794   6.294 -0.3233  0.0318  0.2490
  135POPC   C1B 1930   4.424  10.650   7.022 -0.3429 -0.1645  0.0720
  135POPC   C2B 1931   4.309  10.806   6.639 -0.1310  0.0954 -0.0234
  135POPC   C3B 1932   4.040  10.496   6.478  0.0729 -0.1470  0.1067
  135POPC   C4B 1933   3.901  10.169   6.319 -0.0376  0.1281 -0.1619
  136POPC   NC3 1934   7.859   9.481   7.473 -0.3021 -0.4732 -0.1691
  136POPC   PO4 1935   7.903   9.016   7.495 -0.2439  0.1536  0.4041
  136POPC   GL1 1936   8.000   9.207   7.124 -0.1689  0.1510 -0.1291
  136POPC   GL2 1937   7.667   9.261   6.968 -0.0702 -0.0669  0.1231
  136POPC   C1A 1938   7.964   9.331   6.619 -0.2721 -0.3681 -0.1266
  136POPC   D2A 1939   8.074   9.261   6.255 -0.0086 -0.1435 -0.0284
  136POPC   C3A 1940   7.769   9.259   5.996  0.1419  0.0122  0.0908
  136POPC   C4A 1941   7.373   9.136   5.860 -0.1271 -0.2614 -0.2138
  136POPC   C1B 1942   7.473   9.428   6.661  0.0518 -0.0596  0.4341
  136POPC   C2B 1943   7.621   9.748   6.432 -0.0097  0.1395  0.2590
  136POPC   C3B 1944   7.403  10.004   6.143  0.2601 -0.0095 -0.1510
  136POPC   C4B 1945   7.292  10.171   5.741  0.0420 -0.2473  0.2449
  137POPC   NC3 1946   3.427   7.870   7.689 -0.1471 -0.0847 -0.0854
  137POPC   PO4 1947   3.015   8.042   7.726  0.2589  0.0289 -0.2155
  137POPC   GL1 1948   2.910   7.815   7.423 -0.0609 -0.1267  0.1301
  137POPC   GL2 1949   3.085   7.722   7.229  0.0547  0.0746  0.2710
  137POPC   C1A 1950   2.620   7.748   7.071 -0.0028 -0.1425  0.1993
  137POPC   D2A 1951   2.528   8.131   6.766  0.1162  0.0318 -0.1730
  137POPC   C3A 1952   2.601   8.363   6.440 -0.0602 -0.2475 -0.3339
  137POPC   C4A 1953   2.732   8.523   6.046  0.1831 -0.0175  0.0052
  137POPC   C1B 1954   3.344   7.972   7.009 -0.1058  0.1307  0.1686
  137POPC   C2B 1955   3.480   8.111   6.648 -0.1033 -0.1934 -0.0081
  137POPC   C3B 1956   3.630   7.967   6.321  0.2276 -0.1080  0.2595
  137POPC   C4B 1957   3.408   7.970   6.057 -0.1782  0.1557  0.2719
  138POPC   NC3 1958   3.928   2.068   8.093 -0.0516  0.1593 -0.1822
  138POPC   PO4 1959   3.801   2.483   7.923 -0.0494 -0.0223  0.1127
  138POPC   GL1 1960   3.857   2.207   7.613  0.0978  0.0606 -0.0817
  138POPC   GL2 1961   3.767   2.514   7.441  0.2345  0.0132 -0.1039
  138POPC   C1A 1962   3.683   1.994   7.261  0.1138  0.0252 -0.1320
  138POPC   D2A 1963   3.496   2.045   6.844 -0.0640 -0.2519 -0.0730
  138POPC   C3A 1964   3.129   1.909   6.658 -0.3174  0.0578  0.0384
  138POPC   C4A 1965   2.987   1.571   6.751  0.2645  0.3604 -0.2251
  138POPC   C1B 1966   3.882   2.464   6.993  0.4214 -0.0274 -0.3111
  138POPC   C2B 1967   4.065   2.742   6.679  0.0464  0.0558  0.0548
  138POPC   C3B 1968   4.209   2.855   6.172  0.2197  0.0443  0.1854
  138POPC   C4B 1969   4.477   3.214   5.950  0.0899 -0.3331  0.0659
  139POPC   NC3 1970   9.103   4.556   7.596 -0.1484 -0.0298  0.0700
  139POPC   PO4 1971   9.498   4.332   7.633  0.1263  0.3510 -0.0537
  139POPC   GL1 1972   9.401   4.428   7.227 -0.0591  0.2439  0.1678
  139POPC   GL2 1973   9.420   4.687   7.154  0.1464  0.0382 -0.0960
  139POPC   C1A 1974   9.247   4.368   6.823  0.0013 -0.1650 -0.0509
  139POPC   D2A 1975   8.833   4.359   6.529  0.0090  0.4881  0.3310
  139POPC   C3A 1976   8.696   4.321   6.077 -0.1887  0.1651 -0.0353
  139POPC   C4A 1977   8.390   4.256   5.859 -0.0184  0.1127 -0.0302
  139POPC   C1B 1978   9.780   4.531   6.823  0.1906  0.0502 -0.0246
  139POPC   C2B 1979   9.807   4.562   6.374  0.0119  0.1555 -0.0110
  139POPC   C3B 1980   9.809   4.163   6.138  0.1132  0.4333 -0.2418
  139POPC   C4B 1981   9.941   3.758   5.952 -0.0928 -0.2541 -0.2374
  140POPC   NC3 1982   4.811   4.667   7.800 -0.2133 -0.1871  0.2932
  140POPC   PO4 1983   4.448   4.854   7.584  0.1709  0.1768  0.2450
  140POPC   GL1 1984   4.283   4.743   7.269  0.1375 -0.0179  0.0085
  140POPC   GL2 1985   4.118   4.502   7.222 -0.1023  0.0085 -0.0557
  140POPC   C1A 1986   4.045   4.918   6.877 -0.4352  0.1593  0.1065
  140POPC   D2A 1987   4.174   5.159   6.532  0.3425 -0.2483  0.1707
  140POPC   C3A 1988   4.000   5.484   6.277 -0.1149  0.3436  0.0845
  140POPC   C4A 1989   3.958   5.524   5.864 -0.0985 -0.3221  0.0724
  140POPC   C1B 1990   4.023   4.422   6.766  0.2029  0.3683 -0.1556
  140POPC   C2B 1991   3.872   4.292   6.347 -0.0440  0.0963 -0.0090
  140POPC   C3B 1992   3.459   4.296   6.381  0.1795 -0.1687 -0.0464
  140POPC   C4B 1993   3.130   4.182   6.147  0.0597  0.0619 -0.3528
  141POPC   NC3 1994   7.297   0.919   7.521  0.1082 -0.0810  0.0929
  141POPC   PO4 1995   7.118   1.302   7.360 -0.1123 -0.3675 -0.1749
  141POPC   GL1 1996   6.925   1.425   6.997 -0.1463  0.1690 -0.1757
  141POPC   GL2 1997   6.607   1.501   7.078  0.2000  0.0950  0.1092
  141POPC   C1A 1998   6.746   1.409   6.541  0.2784 -0.1733  0.2352
  141POPC   D2A 1999   6.553   1.583   6.174  0.0808 -0.0393  0.0021
  141POPC   C3A 2000   6.201   1.453   5.937 -0.1837  0.2756  0.1018
  141POPC   C4A 2001   5.954   1.669   5.720 -0.0871 -0.0831 -0.0902
  141POPC   C1B 2002   6.433   1.148   6.767  0.0156 -0.1959  0.2248
  141POPC   C2B 2003   6.321   1.046   6.364 -0.0306  0.1073  0.1557
  141POPC   C3B 2004   6.271   0.789   6.062  0.1622 -0.1232 -0.4543
  141POPC   C4B 2005   6.407   0.917   5.677  0.0387  0.1946  0.0378
  142POPC   NC3 2006   8.309   4.971   7.653  0.0189  0.2116 -0.3278
  142POPC   PO4 2007   8.403   5.369   7.575  0.3821 -0.0519 -0.2860
  142POPC   GL1 2008   8.293   5.197   7.137  0.1394  0.2112  0.0071
  142POPC   GL2 2009   8.304   4.884   7.138  0.1148 -0.0188  0.0688
  142POPC   C1A 2010   7.994   5.255   6.804  0.1561  0.4367  0.0033
  142POPC   D2A 2011   7.579   5.062   6.754  0.1510  0.0945 -0.2072
  142POPC   C3A 2012   7.321   5.355   6.419  0.1033  0.5801  0.3727
  142POPC   C4A 2013   7.069   5.614   6.118  0.2341 -0.1925  0.1953
  142POPC   C1B 2014   7.948   4.612   6.979 -0.1055  0.2185  0.4743
  142POPC   C2B 2015   7.701   4.548   6.593  0.0378 -0.0449 -0.3145
  142POPC   C3B 2016   7.687   4.851   6.296 -0.1616  0.0714  0.2426
  142POPC   C4B 2017   7.612   5.138   5.934  0.1743 -0.1386  0.3182
  143POPC   NC3 2018   8.528   0.606   7.884 -0.1510 -0.0017  0.1792
  143POPC   PO4 2019   8.938   0.620   7.815  0.0137  0.2313  0.2332
  143POPC   GL1 2020   8.900   0.463   7.346  0.2251 -0.3386  0.0527
  143POPC   GL2 2021   8.646   0.576   7.113  0.0389  0.2257 -0.0692
  143POPC   C1A 2022   9.122   0.624   6.961 -0.1347  0.1125  0.0432
  143POPC   D2A 2023   9.496   0.658   6.823  0.0275  0.0893  0.1276
  143POPC   C3A 2024   9.689   0.642   6.391  0.2184  0.1940 -0.4394
  143POPC   C4A 2025   9.645   0.630   6.014  0.0335  0.1139 -0.1804
  143POPC   C1B 2026   8.671   0.474   6.710 -0.0386  0.1218  0.1663
  143POPC   C2B 2027   8.627   0.398   6.297 -0.0617  0.1962  0.2097
  143POPC   C3B 2028   8.529   0.461   5.940  0.0748 -0.3213  0.3669
  143POPC   C4B 2029   8.108   0.447   5.782 -0.0839  0.0377  0.0230
  144POPC   NC3 2030   3.156   9.372   8.320  0.2139  0.0836  0.1795
  144POPC   PO4 2031   3.124   9.707   8.409 -0.1813 -0.1727  0.1496
  144POPC   GL1 2032   3.010   9.871   8.078  0.2713 -0.2557  0.0260
  144POPC   GL2 2033   2.591   9.999   8.001 -0.0853 -0.3670 -0.0291
  144POPC   C1A 2034   3.007   9.696   7.550 -0.0818 -0.0557 -0.0196
  144POPC   D2A 2035   2.813   9.793   7.177  0.0003  0.1751 -0.0100
  144POPC   C3A 2036   2.684   9.463   7.033 -0.2159  0.4598  0.0247
  144POPC   C4A 2037   2.637   9.140   6.627  0.2398 -0.1283  0.0374
  144POPC   C1B 2038   2.559  10.222   7.575 -0.1742  0.0053  0.4533
  144POPC   C2B 2039   2.464  10.291   7.182  0.0117  0.2509 -0.0864
  144POPC   C3B 2040   2.624  10.478   6.806  0.3159 -0.1710  0.2996
  144POPC   C4B 2041   2.441  10.707   6.520  0.0317  0.0060  0.0216
  145POPC   NC3 2042   5.184   2.166   7.673 -0.3285 -0.1008  0.1527
  145POPC   PO4 2043   5.286   1.696   7.580  0.0015  0.3953  0.2174
  145POPC   GL1 2044   5.142   1.849   7.300  0.0326  0.0308  0.3200
  145POPC   GL2 2045   5.180   2.200   7.196 -0.0263 -0.2692 -0.0738
  145POPC   C1A 2046   5.062   1.921   6.775  0.0577  0.0504  0.0653
  145POPC   D2A 2047   5.265   2.004   6.380  0.0315 -0.2293 -0.0904
  145POPC   C3A 2048   5.556   2.051   6.189 -0.0327  0.1458 -0.1310
  145POPC   C4A 2049   5.857   2.178   5.886 -0.4223 -0.0597  0.0188
  145POPC   C1B 2050   4.981   2.410   6.877  0.2067 -0.0448  0.1923
  145POPC   C2B 2051   4.855   2.577   6.548 -0.1217 -0.0166  0.2947
  145POPC   C3B 2052   4.905   2.311   6.098 -0.0033  0.1660 -0.3274
  145POPC   C4B 2053   5.045   2.022   5.828 -0.0562  0.0334  0.0761
  146POPC   NC3 2054   4.206   1.739   8.303 -0.0093 -0.0543  0.1872
  146POPC   PO4 2055   4.493   1.364   8.049 -0.0869 -0.2192  0.2028
  146POPC   GL1 2056   4.237   1.592   7.679 -0.0695 -0.1921 -0.1144
  146POPC   GL2 2057   4.271   1.298   7.602 -0.3052 -0.3099  0.2509
  146POPC   C1A 2058   4.206   1.827   7.357  0.0433 -0.0455  0.1576
  146POPC   D2A 2059   4.168   2.052   6.949  0.1225 -0.0886 -0.0391
  146POPC   C3A 2060   4.029   2.186   6.635 -0.0604  0.1702 -0.0280
  146POPC   C4A 2061   3.863   2.385   6.361  0.3270 -0.1561 -0.2826
  146POPC   C1B 2062   4.329   1.312   7.182 -0.0790 -0.5471  0.1391
  146POPC   C2B 2063   4.307   1.592   6.788  0.1074 -0.0027  0.2897
  146POPC   C3B 2064   4.387   1.461   6.401 -0.1282 -0.1571  0.0292
  146POPC   C4B 2065   4.655   1.221   6.231  0.2789  0.3648  0.2432
  147POPC   NC3 2066   8.085   9.924   7.728 -0.0185  0.2616 -0.3314
  147POPC   PO4 2067   7.655   9.966   7.708 -0.2159  0.1554  0.1326
  147POPC   GL1 2068   7.780  10.017   7.311  0.3623  0.0438  0.2907
  147POPC   GL2 2069   7.495  10.068   7.146  0.1203 -0.0420  0.1551
  147POPC   C1A 2070   7.898   9.825   6.841 -0.1384 -0.0013 -0.0930
  147POPC   D2A 2071   8.118   9.795   6.448  0.1733 -0.3384  0.2019
  147POPC   C3A 2072   8.065   9.733   5.995 -0.0046  0.1595 -0.0880
  147POPC   C4A 2073   7.865  10.052   5.676 -0.0417 -0.0983  0.1429
  147POPC   C1B 2074   7.354   9.983   6.791 -0.1549  0.4626 -0.0113
  147POPC   C2B 2075   6.953   9.891   6.517  0.5312 -0.2967  0.0190
  147POPC   C3B 2076   6.751  10.077   6.213 -0.2174  0.0972  0.0647
  147POPC   C4B 2077   6.782  10.378   5.856 -0.1415  0.0293 -0.0426
  148POPC   NC3 2078   4.107   8.097   7.762  0.1447  0.0772  0.0247
  148POPC   PO4 2079   4.540   8.240   7.572 -0.0563  0.0784 -0.0734
  148POPC   GL1 2080   4.646   8.010   7.160  0.2968 -0.1442  0.3682
  148POPC   GL2 2081   4.944   8.040   6.904  0.0368 -0.1163  0.0579
  148POPC   C1A 2082   4.436   7.842   6.762 -0.1580 -0.3657  0.2320
  148POPC   D2A 2083   4.362   7.571   6.542  0.1708  0.0741  0.0667
  148POPC   C3A 2084   4.164   7.836   6.256  0.0530 -0.0566  0.1867
  148POPC   C4A 2085   3.912   7.946   5.909  0.1507 -0.0860 -0.0225
  148POPC   C1B 2086   5.053   8.237   6.416 -0.3381 -0.0772  0.2484
  148POPC   C2B 2087   4.957   8.247   6.002  0.0930 -0.1354  0.1353
  148POPC   C3B 2088   5.115   8.409   5.664 -0.0592  0.1094  0.0228
  148POPC   C4B 2089   5.472   8.275   5.481  0.2626 -0.0713 -0.0211
  149POPC   NC3 2090   3.480   8.974   8.250  0.2573  0.1737 -0.0513
  149POPC   PO4 2091   3.613   8.785   7.916  0.1872 -0.2711  0.2628
  149POPC   GL1 2092   3.629   8.965   7.486  0.1433  0.1632 -0.0203
  149POPC   GL2 2093   3.732   9.278   7.584 -0.0455 -0.1248  0.1713
  149POPC   C1A 2094   3.861   8.835   7.087 -0.3128  0.2382 -0.0219
  149POPC   D2A 2095   3.851   8.798   6.650  0.0626 -0.1089 -0.1310
  149POPC   C3A 2096   4.184   8.993   6.371  0.0747  0.0089  0.1659
  149POPC   C4A 2097   4.402   9.435   6.469 -0.0026  0.0287 -0.2325
  149POPC   C1B 2098   3.595   9.414   7.202  0.2040  0.2432 -0.4790
  149POPC   C2B 2099   3.510   9.109   6.906  0.0069  0.1055  0.1893
  149POPC   C3B 2100   3.229   9.117   6.670 -0.3023  0.3463 -0.1335
  149POPC   C4B 2101   3.068   9.377   6.425  0.2016 -0.0719 -0.2549
  150POPC   NC3 2102   3.057   6.729   7.831  0.1944 -0.0237 -0.1907
  150POPC   PO4 2103   3.101   7.129   7.751  0.0595 -0.1039  0.1123
  150POPC   GL1 2104   3.373   6.847   7.439  0.1254  0.0295 -0.0262
  150POPC   GL2 2105   3.156   7.040   7.168 -0.2455 -0.2075 -0.1750
  150POPC   C1A 2106   3.592   6.679   7.125 -0.2701 -0.0364  0.0264
  150POPC   D2A 2107   3.955   6.316   6.904  0.1232 -0.0129 -0.0059
  150POPC   C3A 2108   3.904   6.208   6.473 -0.3562  0.0711  0.0500
  150POPC   C4A 2109   3.797   6.181   6.130 -0.2663 -0.0225  0.3264
  150POPC   C1B 2110   3.113   7.294   6.874 -0.0884 -0.0353 -0.1410
  150POPC   C2B 2111   2.908   7.602   6.714  0.2500 -0.0977 -0.0949
  150POPC   C3B 2112   2.607   7.702   6.506  0.0059 -0.1580 -0.1962
  150POPC   C4B 2113   2.309   8.021   6.290 -0.0143  0.5725 -0.3856
  151POPC   NC3 2114   6.870   3.925   7.388  0.2718 -0.0422  0.4187
  151POPC   PO4 2115   6.359   3.859   7.267 -0.1778  0.1841  0.0798
  151POPC   GL1 2116   6.277   3.800   6.876 -0.1990 -0.0182  0.0702
  151POPC   GL2 2117   5.983   3.844   6.664 -0.1709  0.3232  0.0220
  151POPC   C1A 2118   6.302   3.571   6.527  0.1415  0.0151  0.1696
  151POPC   D2A 2119   6.123   3.563   6.214  0.1634  0.2997 -0.2227
  151POPC   C3A 2120   5.910   3.913   5.869 -0.4765 -0.1663  0.0280
  151POPC   C4A 2121   5.444   4.116   5.859  0.0920  0.0809 -0.0012
  151POPC   C1B 2122   6.299   4.048   6.416  0.2045 -0.2814 -0.0470
  151POPC   C2B 2123   6.414   4.273   6.101 -0.0816  0.0260 -0.1818
  151POPC   C3B 2124   6.195   4.406   5.783  0.0435 -0.0239 -0.0794
  151POPC   C4B 2125   5.842   4.347   5.586 -0.2134 -0.4863 -0.2299
  152POPC   NC3 2126   8.751   7.035   7.795  0.5119  0.0701 -0.0666
  152POPC   PO4 2127   8.754   7.046   7.387 -0.0893 -0.3502 -0.1548
  152POPC   GL1 2128   8.760   6.845   7.042 -0.0098 -0.1347  0.1174
  152POPC   GL2 2129   9.112   6.869   7.031  0.0600 -0.1140 -0.0838
  152POPC   C1A 2130   8.847   6.604   6.646 -0.2186 -0.1316 -0.2059
  152POPC   D2A 2131   8.514   6.602   6.376 -0.0094 -0.0684 -0.0116
  152POPC   C3A 2132   8.667   6.467   5.924 -0.0261  0.1483  0.1566
  152POPC   C4A 2133   8.865   6.207   5.668  0.1656 -0.1015  0.1014
  152POPC   C1B 2134   9.298   6.807   6.675 -0.2698  0.0222 -0.0765
  152POPC   C2B 2135   9.612   6.733   6.402  0.1679  0.2207  0.1100
  152POPC   C3B 2136   9.851   6.710   6.028 -0.2080 -0.0272 -0.3137
  152POPC   C4B 2137  10.227   6.566   5.823 -0.1287  0.0768 -0.0872
  153POPC   NC3 2138   2.563   7.694   8.243 -0.1597 -0.0124  0.1057
  153POPC   PO4 2139   2.470   7.933   7.785  0.0825  0.0167 -0.2671
  153POPC   GL1 2140   2.625   8.184   7.401  0.0537  0.1163 -0.0071
  153POPC   GL2 2141   2.483   8.328   7.351  0.1365 -0.3778 -0.0278
  153POPC   C1A 2142   2.919   8.204   7.087  0.2762  0.0023  0.4025
  153POPC   D2A 2143   3.041   8.307   6.705  0.0874 -0.2346  0.3122
  153POPC   C3A 2144   3.020   7.971   6.426 -0.2848  0.0752  0.3232
  153POPC   C4A 2145   2.798   8.031   6.137  0.2006 -0.3975  0.3692
  153POPC   C1B 2146   2.007   8.422   7.212  0.4222  0.0810  0.2877
  153POPC   C2B 2147   1.729   8.591   6.854 -0.1957 -0.1390  0.1838
  153POPC   C3B 2148   1.552   8.703   6.425  0.0112 -0.0027 -0.1792
  153POPC   C4B 2149   1.311   8.675   6.141 -0.1361 -0.1061  0.1886
  154POPC   NC3 2150   4.889   1.493   7.806  0.1078  0.1489 -0.1923
  154POPC   PO4 2151   4.604   1.852   8.025  0.1100  0.1514  0.2555
  154POPC   GL1 2152   4.724   1.906   7.547 -0.0997  0.0217  0.1414
  154POPC   GL2 2153   4.685   1.628   7.374  0.4466 -0.0258 -0.2400
  154POPC   C1A 2154   4.628   1.971   7.021  0.0988 -0.0991  0.2770
  154POPC   D2A 2155   4.601   2.084   6.712  0.2848 -0.0168  0.0957
  154POPC   C3A 2156   4.280   1.948   6.284  0.1475  0.1288 -0.3065
  154POPC   C4A 2157   3.964   1.973   5.982 -0.0512 -0.0103 -0.2277
  154POPC   C1B 2158   4.762   1.424   7.042 -0.4068  0.0425  0.1270
  154POPC   C2B 2159   4.781   1.521   6.628  0.2685  0.0547 -0.6026
  154POPC   C3B 2160   4.831   1.750   6.324 -0.0363  0.0103  0.0305
  154POPC   C4B 2161   4.608   1.748   5.959 -0.0307 -0.0672  0.1747
  155POPC   NC3 2162   5.505   9.072   7.489  0.1599 -0.2508 -0.1691
  155POPC   PO4 2163   5.840   8.784   7.499  0.0909 -0.1040  0.3264
  155POPC   GL1 2164   6.000   8.570   7.069 -0.0368  0.0817  0.0027
  155POPC   GL2 2165   6.328   8.453   7.048  0.0881 -0.2249 -0.1441
  155POPC   C1A 2166   5.984   8.369   6.671 -0.1151 -0.2852 -0.0089
  155POPC   D2A 2167   5.967   8.550   6.227  0.3866 -0.2816  0.0381
  155POPC   C3A 2168   6.010   8.800   5.971  0.1496 -0.1969 -0.2151
  155POPC   C4A 2169   6.367   8.906   5.779  0.0551 -0.3410  0.0155
  155POPC   C1B 2170   6.486   8.495   6.665  0.0930 -0.1058  0.2982
  155POPC   C2B 2171   6.491   8.458   6.249  0.2818  0.3658  0.0240
  155POPC   C3B 2172   6.414   8.436   5.852  0.0688  0.2426  0.1395
  155POPC   C4B 2173   6.190   8.595   5.477  0.0399  0.4516  0.3946
  156POPC   NC3 2174   9.778   5.699   7.697 -0.0892  0.2756  0.1439
  156POPC   PO4 2175   9.618   5.289   7.687  0.0166  0.1914  0.0399
  156POPC   GL1 2176   9.739   5.397   7.247  0.0154 -0.2210 -0.0231
  156POPC   GL2 2177   9.728   5.064   7.141 -0.2289 -0.1228 -0.0659
  156POPC   C1A 2178   9.805   5.467   6.766 -0.2958 -0.0244 -0.1248
  156POPC   D2A 2179   9.641   5.409   6.333 -0.0402 -0.1709 -0.0564
  156POPC   C3A 2180   9.246   5.554   6.191 -0.2754  0.0558 -0.0446
  156POPC   C4A 2181   8.954   5.480   5.834  0.2572 -0.2095 -0.0378
  156POPC   C1B 2182   9.572   4.995   6.702  0.1060  0.0775 -0.2554
  156POPC   C2B 2183   9.258   4.736   6.500  0.0232  0.1548 -0.1752
  156POPC   C3B 2184   9.234   4.530   6.166 -0.1417  0.1743  0.0011
  156POPC   C4B 2185   9.302   4.250   5.866  0.0943  0.1143  0.1714
  157POPC   NC3 2186   6.857   0.237   7.465  0.0173 -0.0087 -0.5417
  157POPC   PO4 2187   7.074   0.514   7.276  0.0404 -0.2678  0.1484
  157POPC   GL1 2188   7.152   0.922   7.055  0.3740  0.0472  0.1321
  157POPC   GL2 2189   6.808   0.872   6.964 -0.0076 -0.2550 -0.4115
  157POPC   C1A 2190   7.264   1.100   6.670 -0.0129  0.0285 -0.0214
  157POPC   D2A 2191   7.236   1.233   6.338 -0.1789 -0.1292 -0.3140
  157POPC   C3A 2192   7.592   1.170   6.140 -0.1585 -0.0994  0.0654
  157POPC   C4A 2193   7.844   0.929   6.007 -0.1762  0.0171 -0.0452
  157POPC   C1B 2194   6.788   0.911   6.558 -0.1934 -0.1946  0.4152
  157POPC   C2B 2195   6.739   1.118   6.105 -0.1953 -0.0637  0.1251
  157POPC   C3B 2196   6.689   1.358   5.741 -0.4640 -0.2192  0.0379
  157POPC   C4B 2197   6.911   1.728   5.504 -0.3488  0.2871 -0.0830
  158POPC   NC3 2198   2.258   7.481   7.506  0.1417  0.0783  0.2019
  158POPC   PO4 2199   2.033   7.152   7.377 -0.1154 -0.3549 -0.0827
  158POPC   GL1 2200   2.223   7.151   7.013 -0.1268 -0.1947  0.0055
  158POPC   GL2 2201   2.196   7.491   7.015  0.2042 -0.2705  0.1902
  158POPC   C1A 2202   2.537   7.234   6.761  0.2061  0.0220  0.1266
  158POPC   D2A 2203   2.759   7.304   6.241  0.0557 -0.2265 -0.2708
  158POPC   C3A 2204   2.630   7.121   5.909  0.0317  0.2581 -0.3140
  158POPC   C4A 2205   2.427   6.767   5.884 -0.1897 -0.3243 -0.1310
  158POPC   C1B 2206   2.144   7.575   6.602  0.1930 -0.0135  0.1567
  158POPC   C2B 2207   1.786   7.568   6.262  0.0505 -0.0013  0.2505
  158POPC   C3B 2208   1.403   7.858   5.971 -0.3227 -0.0845 -0.1594
  158POPC   C4B 2209   1.616   7.888   5.507  0.0942 -0.0820  0.0628
  159POPC   NC3 2210   6.486   8.601   7.541  0.1355  0.1024 -0.2616
  159POPC   PO4 2211   6.651   9.062   7.331 -0.2843  0.0280  0.0589
  159POPC   GL1 2212   6.757   9.401   7.006  0.0383 -0.1194 -0.1962
  159POPC   GL2 2213   6.439   9.223   6.808 -0.0076 -0.0151  0.1019
  159POPC   C1A 2214   6.905   9.392   6.490 -0.1062 -0.1996 -0.0732
  159POPC   D2A 2215   7.193   9.561   6.159  0.1989 -0.2526 -0.2118
  159POPC   C3A 2216   7.517   9.641   5.850 -0.3231 -0.1591 -0.1288
  159POPC   C4A 2217   7.459   9.749   5.437 -0.0331 -0.0586 -0.2420
  159POPC   C1B 2218   6.142   8.884   6.636 -0.4177  0.2266  0.0545
  159POPC   C2B 2219   5.715   8.859   6.590  0.1348  0.1944  0.1371
  159POPC   C3B 2220   5.264   8.752   6.549  0.0245 -0.2812  0.1098
  159POPC   C4B 2221   4.937   8.722   6.292 -0.0272  0.0473  0.2950
  160POPC   NC3 2222   9.491   8.733   7.845 -0.2143  0.0670  0.0012
  160POPC   PO4 2223   9.657   8.614   7.591  0.1046 -0.0250  0.1805
  160POPC   GL1 2224   9.724   8.666   7.111  0.4295 -0.0870 -0.1688
  160POPC   GL2 2225   9.632   8.451   6.850 -0.0336 -0.2112  0.1628
  160POPC   C1A 2226   9.759   8.952   6.788 -0.2747 -0.0863  0.0222
  160POPC   D2A 2227  10.077   9.132   6.437  0.0893  0.2287  0.2770
  160POPC   C3A 2228  10.157   9.554   6.227  0.1453  0.1130 -0.1139
  160POPC   C4A 2229  10.092   9.785   5.790  0.3501 -0.4070 -0.1338
  160POPC   C1B 2230   9.814   8.544   6.474 -0.2407 -0.2182 -0.3250
  160POPC   C2B 2231  10.013   8.737   6.140 -0.0494 -0.4768 -0.0072
  160POPC   C3B 2232  10.011   9.191   5.875  0.0899  0.0341 -0.0177
  160POPC   C4B 2233   9.785   9.421   5.613 -0.1188 -0.2158 -0.2596
  161POPC   NC3 2234   7.104   8.597   7.946 -0.1244  0.1957  0.2609
  161POPC   PO4 2235   6.937   8.365   7.648 -0.1258 -0.0408  0.2112
  161POPC   GL1 2236   6.715   8.232   7.245 -0.1600  0.1114 -0.0010
  161POPC   GL2 2237   6.302   7.970   7.208 -0.2561 -0.1956  0.1621
  161POPC   C1A 2238   6.820   8.043   6.790 -0.0484  0.0435 -0.1005
  161POPC   D2A 2239   6.778   8.045   6.337 -0.0102  0.1815  0.1257
  161POPC   C3A 2240   6.672   7.748   6.146 -0.2371 -0.0893  0.2194
  161POPC   C4A 2241   6.806   7.427   5.968 -0.3315  0.0034 -0.1455
  161POPC   C1B 2242   6.305   8.015   6.695  0.0742 -0.1379  0.2304
  161POPC   C2B 2243   6.238   8.019   6.194 -0.1055 -0.0100 -0.2322
  161POPC   C3B 2244   6.325   7.824   5.781  0.1145  0.1557 -0.0849
  161POPC   C4B 2245   6.387   7.371   5.580 -0.3264 -0.2333  0.0637
  162POPC   NC3 2246   4.543  10.118   8.189  0.0075 -0.1142  0.2428
  162POPC   PO4 2247   4.162   9.883   8.205  0.2785 -0.1446  0.2859
  162POPC   GL1 2248   3.991   9.740   7.686 -0.0215  0.3641 -0.4947
  162POPC   GL2 2249   3.799  10.053   7.575  0.2064  0.3406 -0.2032
  162POPC   C1A 2250   4.070   9.562   7.260  0.0348 -0.2247  0.1153
  162POPC   D2A 2251   4.226   9.363   6.944 -0.0195  0.1779  0.3182
  162POPC   C3A 2252   3.924   9.295   6.651  0.0233 -0.1417  0.2629
  162POPC   C4A 2253   3.568   9.263   6.335  0.2995 -0.2334  0.0182
  162POPC   C1B 2254   3.471   9.913   7.212  0.0496  0.0021 -0.2099
  162POPC   C2B 2255   3.540  10.177   6.864 -0.1112 -0.2481 -0.1541
  162POPC   C3B 2256   3.492  10.399   6.450  0.2406 -0.0456  0.0689
  162POPC   C4B 2257   3.213  10.630   6.001 -0.1580 -0.2517 -0.2863
  163POPC   NC3 2258   8.391   8.822   7.463  0.3650  0.0146  0.1130
  163POPC   PO4 2259   8.779   8.909   7.496 -0.0713  0.1011  0.0563
  163POPC   GL1 2260   8.590   8.991   7.017 -0.0818 -0.0303 -0.0934
  163POPC   GL2 2261   8.795   9.044   6.907 -0.2791 -0.0739 -0.1004
  163POPC   C1A 2262   8.332   9.021   6.595 -0.1008  0.3736 -0.2464
  163POPC   D2A 2263   7.999   8.813   6.339  0.3624 -0.1631 -0.0174
  163POPC   C3A 2264   8.099   8.907   5.841 -0.3321  0.0129  0.0734
  163POPC   C4A 2265   8.279   8.792   5.425 -0.1368  0.1081 -0.1253
  163POPC   C1B 2266   8.842   9.061   6.492  0.0493  0.1660  0.0635
  163POPC   C2B 2267   8.945   9.482   6.251  0.1569  0.1744  0.0061
  163POPC   C3B 2268   8.913   9.506   5.860 -0.0758 -0.0415  0.0767
  163POPC   C4B 2269   8.719   9.527   5.487  0.0572  0.3478 -0.0669
  164POPC   NC3 2270   4.067   7.200   7.706 -0.0984 -0.3090 -0.0626
  164POPC   PO4 2271   3.932   7.681   7.558 -0.2262  0.0567  0.0613
  164POPC   GL1 2272   3.822   7.709   7.115 -0.0990 -0.1766 -0.2511
  164POPC   GL2 2273   3.591   7.536   7.047  0.1952  0.3082 -0.0329
  164POPC   C1A 2274   3.977   7.980   6.727  0.0017 -0.4990  0.1338
  164POPC   D2A 2275   3.948   8.361   6.518  0.0639  0.2414  0.1777
  164POPC   C3A 2276   4.010   8.509   6.084 -0.0757  0.2455 -0.1026
  164POPC   C4A 2277   4.060   8.366   5.625  0.0852  0.2322 -0.2705
  164POPC   C1B 2278   3.408   7.618   6.685 -0.2056  0.0295  0.1950
  164POPC   C2B 2279   3.232   7.457   6.366  0.0025 -0.0884 -0.4354
  164POPC   C3B 2280   3.111   7.493   5.949  0.1574 -0.0643 -0.0736
  164POPC   C4B 2281   2.864   7.461   5.550 -0.1068 -0.0097  0.1018
  165POPC   NC3 2282  10.406   8.199   7.508 -0.3148 -0.0614  0.0436
  165POPC   PO4 2283   9.985   8.298   7.423 -0.0811  0.4186 -0.0056
  165POPC   GL1 2284  10.182   8.363   7.026  0.2234 -0.4481 -0.0633
  165POPC   GL2 2285  10.552   8.410   7.071  0.1267 -0.0416 -0.2026
  165POPC   C1A 2286  10.261   8.565   6.642  0.0046 -0.2230  0.0461
  165POPC   D2A 2287  10.506   8.430   6.215  0.1198  0.1518  0.2724
  165POPC   C3A 2288  10.369   7.987   6.051  0.7090  0.2616 -0.1006
  165POPC   C4A 2289  10.132   7.642   6.230  0.1320  0.2493  0.0621
  165POPC   C1B 2290  10.708   8.528   6.760 -0.0342  0.1621  0.1826
  165POPC   C2B 2291  10.904   8.266   6.385 -0.1158 -0.2447  0.1829
  165POPC   C3B 2292  11.161   8.258   6.034  0.0078  0.0398 -0.2171
  165POPC   C4B 2293  11.516   8.025   6.061 -0.3267  0.2031  0.0110
  166POPC   NC3 2294   7.223   6.916   6.967 -0.3116  0.0519  0.0612
  166POPC   PO4 2295   7.467   7.241   7.082 -0.0736  0.0294 -0.0144
  166POPC   GL1 2296   7.498   7.700   6.921 -0.0307  0.0764  0.0034
  166POPC   GL2 2297   7.348   8.036   6.843  0.0815  0.3604  0.2031
  166POPC   C1A 2298   7.786   7.864   6.589 -0.1099 -0.2084  0.0737
  166POPC   D2A 2299   7.759   7.784   6.179 -0.0082  0.0865 -0.1075
  166POPC   C3A 2300   7.726   7.447   6.108 -0.1929  0.2187  0.0757
  166POPC   C4A 2301   7.901   7.095   5.813 -0.3511  0.0265  0.1012
  166POPC   C1B 2302   7.354   8.034   6.417 -0.1764  0.1612  0.0144
  166POPC   C2B 2303   7.500   8.255   6.098  0.1325  0.1741  0.3825
  166POPC   C3B 2304   7.619   8.564   5.734  0.3425  0.0162 -0.0039
  166POPC   C4B 2305   7.848   8.432   5.314 -0.0439 -0.1639  0.1198
  167POPC   NC3 2306   3.915   4.635   8.134 -0.0286  0.2022  0.2120
  167POPC   PO4 2307   3.494   4.752   7.839 -0.0149 -0.0127  0.1212
  167POPC   GL1 2308   3.577   4.547   7.432  0.1711 -0.0018  0.1382
  167POPC   GL2 2309   3.690   4.228   7.296  0.5192 -0.1862 -0.1475
  167POPC   C1A 2310   3.640   4.791   7.077 -0.0955 -0.3575  0.0396
  167POPC   D2A 2311   3.553   4.758   6.692 -0.2389  0.0045  0.0142
  167POPC   C3A 2312   3.847   4.764   6.300 -0.0415 -0.2215  0.1141
  167POPC   C4A 2313   4.124   5.035   6.074 -0.0229  0.1214  0.0385
  167POPC   C1B 2314   3.651   4.099   6.799 -0.0516  0.3274  0.0395
  167POPC   C2B 2315   3.562   3.769   6.505 -0.1450  0.0535 -0.2820
  167POPC   C3B 2316   3.353   3.483   6.144  0.2117  0.2750 -0.0208
  167POPC   C4B 2317   3.143   3.270   5.818 -0.1939  0.2146 -0.3257
  168POPC   NC3 2318   9.153   7.332   7.201  0.1293  0.1065  0.0679
  168POPC   PO4 2319   9.301   7.776   6.936  0.2096  0.0960  0.1042
  168POPC   GL1 2320   9.077   7.871   6.496 -0.2211 -0.1714 -0.2920
  168POPC   GL2 2321   9.173   8.193   6.647 -0.1076 -0.1748  0.0292
  168POPC   C1A 2322   8.794   8.085   6.309 -0.3387  0.0712 -0.1109
  168POPC   D2A 2323   8.646   8.100   6.006 -0.1851 -0.1363  0.0034
  168POPC   C3A 2324   8.652   7.661   5.684  0.1063  0.0952  0.0036
  168POPC   C4A 2325   8.803   7.276   5.386 -0.0370 -0.0472 -0.2318
  168POPC   C1B 2326   9.355   8.307   6.290 -0.2779  0.2587 -0.0045
  168POPC   C2B 2327   9.369   8.382   5.911  0.2675 -0.1509  0.1489
  168POPC   C3B 2328   9.638   8.455   5.424  0.3401 -0.3792  0.0596
  168POPC   C4B 2329   9.433   8.298   5.004 -0.1010 -0.0025  0.1585
  169POPC   NC3 2330   3.759   6.532   8.171  0.1516  0.0274  0.1131
  169POPC   PO4 2331   3.977   6.714   7.764 -0.0337 -0.2046 -0.2390
  169POPC   GL1 2332   4.004   6.852   7.331 -0.1737  0.2706  0.3418
  169POPC   GL2 2333   3.813   7.146   7.198 -0.1523  0.2262  0.0296
  169POPC   C1A 2334   4.041   6.849   6.876  0.0038  0.0320  0.0537
  169POPC   D2A 2335   4.225   6.609   6.620  0.0729  0.0282  0.3174
  169POPC   C3A 2336   4.422   6.857   6.190  0.1396  0.4766 -0.1383
  169POPC   C4A 2337   4.616   7.257   6.173  0.2893 -0.1373  0.1071
  169POPC   C1B 2338   3.577   7.100   6.715 -0.0275  0.1078  0.0682
  169POPC   C2B 2339   3.670   7.043   6.292  0.0196 -0.0210  0.0185
  169POPC   C3B 2340   3.705   7.029   5.906  0.0621 -0.1811  0.1087
  169POPC   C4B 2341   3.722   6.989   5.473 -0.0111  0.1265  0.1986
  170POPC   NC3 2342   2.089   3.697   8.181 -0.3463  0.0633 -0.0977
  170POPC   PO4 2343   2.378   3.787   7.928 -0.3269 -0.0198 -0.3382
  170POPC   GL1 2344   2.292   3.672   7.557 -0.3382  0.0808 -0.1477
  170POPC   GL2 2345   2.385   4.014   7.445 -0.0234 -0.0524  0.2440
  170POPC   C1A 2346   2.193   3.663   7.107  0.2688  0.1434 -0.1763
  170POPC   D2A 2347   2.064   3.651   6.678 -0.0631  0.1101  0.4661
  170POPC   C3A 2348   2.163   3.240   6.567  0.0155  0.2525 -0.0742
  170POPC   C4A 2349   2.078   2.780   6.479 -0.0722  0.1258 -0.1761
  170POPC   C1B 2350   2.615   3.922   7.046 -0.1764  0.2530 -0.1880
  170POPC   C2B 2351   2.587   3.667   6.680  0.2970 -0.5626 -0.3102
  170POPC   C3B 2352   2.375   3.599   6.277  0.1128  0.1309 -0.1311
  170POPC   C4B 2353   2.240   3.279   6.062  0.1676 -0.2162  0.1192
  171POPC   NC3 2354   0.369   4.373   7.854  0.1100 -0.0292 -0.1356
  171POPC   PO4 2355   0.222   4.537   7.477  0.5177 -0.5300 -0.1208
  171POPC   GL1 2356   0.221   4.304   7.052 -0.0806 -0.1851 -0.0515
  171POPC   GL2 2357  -0.109   4.297   6.973  0.0329  0.1009 -0.3050
  171POPC   C1A 2358   0.285   4.456   6.653 -0.3204  0.2352 -0.4895
  171POPC   D2A 2359   0.212   4.557   6.163 -0.2438 -0.3308  0.1445
  171POPC   C3A 2360  -0.071   4.535   5.878 -0.2716  0.1556 -0.1809
  171POPC   C4A 2361  -0.370   4.227   5.908  0.0978 -0.0217  0.1346
  171POPC   C1B 2362  -0.111   4.205   6.537  0.2736 -0.0512 -0.2593
  171POPC   C2B 2363  -0.337   4.480   6.317 -0.2959  0.1251 -0.0751
  171POPC   C3B 2364  -0.559   4.675   5.937 -0.3116 -0.1280 -0.0898
  171POPC   C4B 2365  -0.974   4.673   5.845 -0.0788 -0.0759 -0.1487
  172POPC   NC3 2366   2.993   5.880   7.393 -0.0992 -0.0060 -0.2019
  172POPC   PO4 2367   3.414   5.938   7.580  0.1606 -0.0258  0.3764
  172POPC   GL1 2368   3.409   5.984   7.106 -0.2644  0.0702 -0.3012
  172POPC   GL2 2369   3.406   5.758   7.024  0.0277 -0.1078 -0.1134
  172POPC   C1A 2370   3.369   6.220   6.805 -0.2595  0.1485 -0.0179
  172POPC   D2A 2371   3.367   6.104   6.380 -0.1144 -0.3522 -0.1715
  172POPC   C3A 2372   2.981   5.955   6.128  0.0864 -0.0184  0.2728
  172POPC   C4A 2373   2.668   5.763   5.772 -0.2046  0.1845  0.0930
  172POPC   C1B 2374   3.292   5.696   6.638 -0.0965 -0.0076  0.0472
  172POPC   C2B 2375   3.153   5.433   6.176 -0.0708  0.4511  0.0049
  172POPC   C3B 2376   3.144   5.492   5.711 -0.0708  0.1185  0.1358
  172POPC   C4B 2377   3.110   5.857   5.454 -0.0975 -0.0882 -0.1818
  173POPC   NC3 2378  10.117  10.525   8.242 -0.1139  0.0163  0.2982
  173POPC   PO4 2379  10.492  10.595   8.091 -0.2343  0.3791  0.2126
  173POPC   GL1 2380  10.290  10.847   7.751  0.3770  0.2378  0.0800
  173POPC   GL2 2381  10.265  11.244   7.769  0.3016 -0.0039 -0.0197
  173POPC   C1A 2382  10.317  11.011   7.298 -0.1405  0.1694 -0.2070
  173POPC   D2A 2383  10.312  11.200   6.917 -0.4060 -0.1151  0.0881
  173POPC   C3A 2384  10.088  11.150   6.637  0.1693  0.1780 -0.0891
  173POPC   C4A 2385  10.168  11.204   6.213 -0.0837 -0.0084  0.1158
  173POPC   C1B 2386  10.225  11.508   7.419 -0.0944 -0.1639 -0.0445
  173POPC   C2B 2387  10.331  11.689   7.016  0.0134  0.1468  0.0949
  173POPC   C3B 2388  10.697  11.799   6.914  0.0259  0.2223 -0.0364
  173POPC   C4B 2389  11.161  11.724   6.976 -0.1735 -0.1817  0.0677
  174POPC   NC3 2390   2.684   9.858   3.486  0.1009 -0.5092 -0.4270
  174POPC   PO4 2391   2.966  10.101   3.758 -0.2153  0.2350  0.1473
  174POPC   GL1 2392   2.944   9.982   4.182  0.0301  0.0324  0.0361
  174POPC   GL2 2393   2.949  10.242   4.491  0.0378 -0.0339 -0.0225
  174POPC   C1A 2394   2.851   9.577   4.426 -0.0223 -0.1389 -0.0521
  174POPC   D2A 2395   2.507   9.398   4.597  0.2182  0.1682  0.0202
  174POPC   C3A 2396   2.457   9.060   4.797 -0.0293  0.0167  0.0144
  174POPC   C4A 2397   2.528   8.821   5.194 -0.1756  0.1253 -0.0393
  174POPC   C1B 2398   2.764  10.325   4.827  0.0213  0.2819  0.0140
  174POPC   C2B 2399   2.372  10.218   5.151 -0.2851  0.1566 -0.0867
  174POPC   C3B 2400   2.369   9.877   5.561 -0.0083  0.5850 -0.0305
  174POPC   C4B 2401   2.523   9.461   5.685  0.1241  0.2388 -0.0742
  175POPC   NC3 2402   1.007   1.182   2.903  0.0295 -0.0875  0.1365
  175POPC   PO4 2403   1.379   1.063   3.204  0.0099 -0.1744  0.4330
  175POPC   GL1 2404   1.345   1.135   3.654 -0.1611  0.1046  0.1811
  175POPC   GL2 2405   1.627   1.107   3.907 -0.0830  0.2934 -0.4044
  175POPC   C1A 2406   1.170   1.160   4.051  0.1262 -0.0608 -0.0107
  175POPC   D2A 2407   1.055   1.327   4.318  0.3650  0.2439  0.1424
  175POPC   C3A 2408   0.751   1.284   4.318 -0.0968  0.2733  0.2451
  175POPC   C4A 2409   0.232   1.388   4.243  0.0959 -0.1058 -0.1327
  175POPC   C1B 2410   1.893   1.377   3.970  0.0200  0.0089  0.0380
  175POPC   C2B 2411   1.919   1.820   4.105 -0.0542  0.2517  0.2221
  175POPC   C3B 2412   1.670   1.999   4.182  0.0299  0.1430  0.0839
  175POPC   C4B 2413   1.459   2.008   4.545 -0.2679 -0.1575  0.3287
  176POPC   NC3 2414   2.477   6.361   3.416  0.1727  0.0368  0.1075
  176POPC   PO4 2415   2.258   5.876   3.332 -0.0113  0.0801 -0.0279
  176POPC   GL1 2416   2.141   5.637   3.688  0.1513  0.2213  0.0055
  176POPC   GL2 2417   1.992   5.298   3.822  0.0339 -0.2099 -0.0388
  176POPC   C1A 2418   2.381   5.537   4.007 -0.0741 -0.3800 -0.2451
  176POPC   D2A 2419   2.872   5.262   4.094  0.1475  0.0215 -0.1001
  176POPC   C3A 2420   2.830   4.990   4.347  0.0826  0.1327  0.0508
  176POPC   C4A 2421   2.500   4.867   4.708 -0.2260  0.1725  0.1817
  176POPC   C1B 2422   1.868   5.504   4.170  0.2965 -0.4534  0.0761
  176POPC   C2B 2423   1.681   5.627   4.574 -0.3097 -0.2414  0.0561
  176POPC   C3B 2424   1.534   5.818   4.987 -0.0415  0.0223 -0.1343
  176POPC   C4B 2425   1.582   5.697   5.472 -0.1305  0.0358 -0.0846
  177POPC   NC3 2426   5.159   1.688   3.281  0.0672 -0.3126 -0.1896
  177POPC   PO4 2427   5.489   1.822   3.626 -0.0746  0.0908  0.0652
  177POPC   GL1 2428   5.579   1.639   3.931 -0.1042  0.0337 -0.0759
  177POPC   GL2 2429   5.806   1.973   4.133 -0.0272 -0.1564 -0.4927
  177POPC   C1A 2430   5.454   1.569   4.473 -0.1797 -0.0615  0.0082
  177POPC   D2A 2431   5.657   1.425   4.829  0.4156 -0.1759 -0.0709
  177POPC   C3A 2432   5.544   1.761   5.108  0.0832 -0.0753 -0.0411
  177POPC   C4A 2433   5.383   2.101   5.381  0.0476  0.1106  0.2174
  177POPC   C1B 2434   6.089   1.760   4.386 -0.0369  0.1578  0.2680
  177POPC   C2B 2435   6.500   1.936   4.639  0.1263  0.0485  0.1233
  177POPC   C3B 2436   6.603   1.829   5.051  0.0623  0.0550 -0.1574
  177POPC   C4B 2437   6.613   2.123   5.404 -0.0741  0.1946  0.1326
  178POPC   NC3 2438   2.810  10.582   3.830 -0.2237 -0.0385  0.0853
  178POPC   PO4 2439   2.463  10.237   3.815 -0.1429  0.1264 -0.3069
  178POPC   GL1 2440   2.543  10.348   4.217 -0.2214  0.0161 -0.3419
  178POPC   GL2 2441   2.219  10.277   4.312  0.0806 -0.0244  0.0322
  178POPC   C1A 2442   2.621  10.667   4.457  0.0506 -0.0352 -0.0278
  178POPC   D2A 2443   2.691  11.130   4.597  0.1295 -0.0226 -0.0971
  178POPC   C3A 2444   3.124  11.200   4.771 -0.1493 -0.0125 -0.0021
  178POPC   C4A 2445   3.455  11.157   5.061  0.2176 -0.2494  0.4763
  178POPC   C1B 2446   2.466   9.946   4.494 -0.2280 -0.3428  0.2081
  178POPC   C2B 2447   2.512   9.739   4.940  0.3131  0.0726 -0.0363
  178POPC   C3B 2448   2.288   9.334   5.125  0.1309  0.0579 -0.2754
  178POPC   C4B 2449   2.127   9.189   5.606 -0.0267 -0.2338 -0.0944
  179POPC   NC3 2450   7.120   5.256   3.849  0.0438 -0.0775  0.1677
  179POPC   PO4 2451   7.069   5.595   3.711 -0.0390  0.2024 -0.1452
  179POPC   GL1 2452   7.101   5.705   4.190  0.1214 -0.1643 -0.0093
  179POPC   GL2 2453   7.452   5.758   4.279  0.1563 -0.3134  0.1883
  179POPC   C1A 2454   6.912   6.096   4.595 -0.0953  0.2025  0.1449
  179POPC   D2A 2455   6.675   6.215   4.987  0.0840  0.2221  0.1252
  179POPC   C3A 2456   6.710   6.588   5.296  0.0915  0.0902  0.0195
  179POPC   C4A 2457   6.544   6.863   5.591  0.0373  0.0068 -0.2660
  179POPC   C1B 2458   7.333   5.692   4.748  0.0316 -0.2914  0.1325
  179POPC   C2B 2459   6.931   5.667   4.983 -0.0676 -0.1876  0.0423
  179POPC   C3B 2460   6.863   5.688   5.427  0.2923  0.2816 -0.0026
  179POPC   C4B 2461   6.753   5.460   5.769  0.0365 -0.0959 -0.2506
  180POPC   NC3 2462   3.966   2.178   3.760  0.3082  0.0209 -0.2922
  180POPC   PO4 2463   3.906   2.553   3.751  0.1935 -0.3152 -0.1380
  180POPC   GL1 2464   3.588   2.489   4.089  0.0418  0.1215 -0.1664
  180POPC   GL2 2465   3.902   2.346   4.251  0.1644  0.0607 -0.0437
  180POPC   C1A 2466   3.332   2.161   4.227  0.1972 -0.3023 -0.2127
  180POPC   D2A 2467   3.267   1.933   4.613 -0.0103 -0.1352 -0.2594
  180POPC   C3A 2468   2.891   1.617   4.638  0.1066 -0.0896 -0.0731
  180POPC   C4A 2469   2.558   1.355   4.373 -0.1778 -0.0986 -0.1206
  180POPC   C1B 2470   3.701   2.807   4.574  0.1012 -0.2139 -0.1078
  180POPC   C2B 2471   3.412   2.919   4.863 -0.1405  0.1695 -0.0379
  180POPC   C3B 2472   3.179   2.873   5.309  0.2778  0.1406 -0.2519
  180POPC   C4B 2473   2.840   2.877   5.593  0.4117 -0.0134  0.1540
  181POPC   NC3 2474   0.398   3.310   2.715 -0.0910 -0.2105 -0.0839
  181POPC   PO4 2475   0.596   3.214   3.131 -0.1890 -0.3794  0.0609
  181POPC   GL1 2476   0.807   2.919   3.478 -0.0744  0.1009  0.2057
  181POPC   GL2 2477   0.547   2.764   3.611 -0.2507 -0.0435  0.0455
  181POPC   C1A 2478   0.845   3.017   3.946 -0.2744  0.0980  0.0483
  181POPC   D2A 2479   0.710   3.018   4.267 -0.1205  0.0379  0.0511
  181POPC   C3A 2480   0.971   3.204   4.753 -0.0951  0.1901 -0.0405
  181POPC   C4A 2481   1.219   3.448   5.046 -0.1907  0.0798 -0.2157
  181POPC   C1B 2482   0.454   2.545   4.047  0.0862  0.3110  0.2582
  181POPC   C2B 2483   0.578   2.536   4.328  0.0933  0.0504  0.2103
  181POPC   C3B 2484   0.580   2.809   4.727  0.3501 -0.2525 -0.1591
  181POPC   C4B 2485   0.366   2.779   5.179  0.0972  0.1014  0.1860
  182POPC   NC3 2486   3.336   8.977   4.093 -0.4095  0.4815  0.0491
  182POPC   PO4 2487   3.450   9.357   4.098  0.1678  0.3153  0.1978
  182POPC   GL1 2488   3.666   9.281   4.457  0.1284 -0.0797 -0.3791
  182POPC   GL2 2489   3.457   9.020   4.618 -0.1467 -0.1058  0.2265
  182POPC   C1A 2490   3.789   9.224   4.898 -0.0673  0.0711 -0.0854
  182POPC   D2A 2491   3.714   9.190   5.343 -0.0035 -0.2058 -0.1248
  182POPC   C3A 2492   3.575   9.555   5.691 -0.0268  0.2997  0.2331
  182POPC   C4A 2493   3.546   9.707   6.102  0.0420  0.0391 -0.3029
  182POPC   C1B 2494   3.391   8.949   5.034 -0.3453 -0.1279 -0.1837
  182POPC   C2B 2495   3.168   8.889   5.317 -0.0249 -0.0733 -0.1159
  182POPC   C3B 2496   3.135   8.634   5.662 -0.1994 -0.0509  0.0453
  182POPC   C4B 2497   3.504   8.339   5.731  0.0282  0.1375  0.0754
  183POPC   NC3 2498   6.399  10.448   3.397 -0.0489 -0.1135  0.0384
  183POPC   PO4 2499   6.316  10.963   3.270 -0.0009 -0.0841 -0.2308
  183POPC   GL1 2500   6.360  10.982   3.731  0.1989 -0.2969 -0.0973
  183POPC   GL2 2501   6.364  10.741   3.848  0.2056  0.1374  0.1856
  183POPC   C1A 2502   6.402  11.185   4.115 -0.2799 -0.2801  0.2304
  183POPC   D2A 2503   6.519  10.945   4.501 -0.3271 -0.1146  0.3035
  183POPC   C3A 2504   6.486  11.132   4.923 -0.2285 -0.0247  0.0636
  183POPC   C4A 2505   6.228  11.487   5.195 -0.0826  0.1047  0.3286
  183POPC   C1B 2506   6.247  10.521   4.164  0.0845 -0.0851  0.2772
  183POPC   C2B 2507   6.052  10.199   4.504  0.0560  0.1320  0.2741
  183POPC   C3B 2508   6.170   9.975   4.919  0.0075  0.0437  0.0524
  183POPC   C4B 2509   6.445  10.051   5.282 -0.0399 -0.0938  0.1724
  184POPC   NC3 2510   1.574  10.222   3.799 -0.2091  0.0436 -0.0343
  184POPC   PO4 2511   1.147  10.396   3.685  0.0111 -0.2303 -0.4126
  184POPC   GL1 2512   1.159  10.641   4.013 -0.0959  0.0830 -0.0182
  184POPC   GL2 2513   1.296  10.401   4.272 -0.0554  0.1524  0.2191
  184POPC   C1A 2514   0.948  10.607   4.469  0.1045  0.1921 -0.2757
  184POPC   D2A 2515   0.776  10.984   4.737  0.1163  0.0665 -0.0602
  184POPC   C3A 2516   0.614  11.247   5.034  0.1331 -0.0139  0.1617
  184POPC   C4A 2517   0.513  11.670   5.150 -0.1921 -0.0638  0.1446
  184POPC   C1B 2518   1.326  10.294   4.677  0.2022  0.0002  0.1215
  184POPC   C2B 2519   1.561  10.132   4.945  0.3462 -0.2104 -0.3335
  184POPC   C3B 2520   1.387  10.068   5.326 -0.1459  0.3422 -0.0879
  184POPC   C4B 2521   1.485   9.774   5.749 -0.6196 -0.0867 -0.0875
  185POPC   NC3 2522   5.380   2.187   3.322  0.1586 -0.2059 -0.0468
  185POPC   PO4 2523   5.233   2.210   3.793  0.1052  0.0756 -0.0264
  185POPC   GL1 2524   5.340   2.005   4.310 -0.1874 -0.1427 -0.0242
  185POPC   GL2 2525   5.121   1.901   4.509  0.0237  0.2639  0.2127
  185POPC   C1A 2526   5.457   2.085   4.781  0.0537 -0.2234  0.0024
  185POPC   D2A 2527   5.804   2.239   5.081  0.3544 -0.1486 -0.1114
  185POPC   C3A 2528   5.672   2.480   5.511 -0.0004 -0.1036  0.0994
  185POPC   C4A 2529   5.306   2.433   5.779  0.2909  0.1189  0.0750
  185POPC   C1B 2530   4.992   1.769   4.794 -0.1478 -0.0605  0.1658
  185POPC   C2B 2531   4.898   1.905   5.165  0.0009  0.2144 -0.0628
  185POPC   C3B 2532   4.647   2.093   5.526  0.0718 -0.4104 -0.1980
  185POPC   C4B 2533   4.335   2.224   5.828  0.0991 -0.2390 -0.1457
  186POPC   NC3 2534   2.934   7.669   3.887 -0.0243 -0.1881  0.3432
  186POPC   PO4 2535   3.044   7.213   3.764  0.1276  0.0490  0.3022
  186POPC   GL1 2536   3.238   7.300   4.153  0.2870  0.0839  0.0605
  186POPC   GL2 2537   3.328   7.545   4.250  0.1519  0.4858 -0.2434
  186POPC   C1A 2538   3.187   7.148   4.593 -0.3236  0.1639  0.0693
  186POPC   D2A 2539   3.464   7.140   4.946  0.0571  0.2176 -0.1933
  186POPC   C3A 2540   3.397   6.742   5.184 -0.1754 -0.0015  0.1287
  186POPC   C4A 2541   3.120   6.579   5.455 -0.2292  0.0710 -0.0105
  186POPC   C1B 2542   3.292   7.659   4.694 -0.0134  0.0914  0.1819
  186POPC   C2B 2543   3.168   7.569   5.116 -0.1657  0.1492 -0.0769
  186POPC   C3B 2544   3.310   7.222   5.470 -0.0614 -0.2488 -0.0543
  186POPC   C4B 2545   3.244   6.956   5.729  0.0995 -0.0107  0.0597
  187POPC   NC3 2546   4.802   7.601   3.592  0.0712  0.0811 -0.0428
  187POPC   PO4 2547   4.401   7.443   3.762  0.4350 -0.1212 -0.0414
  187POPC   GL1 2548   4.120   7.449   4.102 -0.0249 -0.3720  0.1893
  187POPC   GL2 2549   3.845   7.502   4.133  0.1733  0.1402  0.3917
  187POPC   C1A 2550   4.114   7.435   4.530  0.0654 -0.0169  0.2197
  187POPC   D2A 2551   4.024   7.235   4.944 -0.0911 -0.0939 -0.1173
  187POPC   C3A 2552   4.254   7.089   5.283 -0.0140  0.3364  0.0070
  187POPC   C4A 2553   4.502   7.289   5.477 -0.1972 -0.1211  0.4172
  187POPC   C1B 2554   3.637   7.190   4.397 -0.0671 -0.1101 -0.0125
  187POPC   C2B 2555   3.677   6.812   4.659  0.0445 -0.1083  0.0276
  187POPC   C3B 2556   3.581   6.430   4.858 -0.0864  0.1453 -0.0131
  187POPC   C4B 2557   3.197   6.265   5.008  0.0974  0.2424 -0.1099
  188POPC   NC3 2558   2.523   7.826   3.493 -0.0189 -0.1523  0.1896
  188POPC   PO4 2559   2.401   7.681   3.935 -0.0895  0.1555 -0.2070
  188POPC   GL1 2560   2.448   7.658   4.366 -0.1679 -0.1948 -0.0281
  188POPC   GL2 2561   2.243   7.548   4.622  0.1905 -0.0159  0.0888
  188POPC   C1A 2562   2.694   7.337   4.582  0.0183 -0.0898  0.1910
  188POPC   D2A 2563   2.737   7.114   4.846 -0.0262 -0.0040  0.2039
  188POPC   C3A 2564   2.922   7.138   5.135  0.0902 -0.0532 -0.1094
  188POPC   C4A 2565   2.798   6.913   5.522  0.0531  0.0377  0.3391
  188POPC   C1B 2566   2.277   7.257   4.880 -0.0550 -0.3650  0.0254
  188POPC   C2B 2567   2.325   6.842   5.041  0.0885 -0.0273  0.2551
  188POPC   C3B 2568   2.318   6.378   4.963  0.1284 -0.0353 -0.0955
  188POPC   C4B 2569   2.460   6.035   5.159  0.2325 -0.1866  0.0460
  189POPC   NC3 2570   6.967   8.055   3.639  0.0067 -0.0631  0.2365
  189POPC   PO4 2571   6.555   8.274   3.640  0.0036 -0.2396  0.0869
  189POPC   GL1 2572   6.660   8.359   4.069  0.0652 -0.2734  0.0479
  189POPC   GL2 2573   6.494   8.657   4.287 -0.3249 -0.1513  0.1616
  189POPC   C1A 2574   6.730   8.230   4.471 -0.1002  0.1300  0.2015
  189POPC   D2A 2575   6.853   8.135   4.849 -0.0721 -0.0455 -0.0013
  189POPC   C3A 2576   6.683   8.240   5.268  0.1285  0.0281  0.0888
  189POPC   C4A 2577   6.726   8.618   5.506 -0.2838 -0.0956  0.1054
  189POPC   C1B 2578   6.078   8.717   4.429  0.0472  0.0439  0.1816
  189POPC   C2B 2579   5.647   8.753   4.678 -0.1975  0.1028 -0.0371
  189POPC   C3B 2580   5.587   8.405   4.992 -0.0001 -0.3121  0.1224
  189POPC   C4B 2581   5.910   8.239   5.340 -0.1179  0.1079  0.1307
  190POPC   NC3 2582   7.924   7.071   3.518 -0.1067  0.0766 -0.1436
  190POPC   PO4 2583   7.516   7.318   3.761  0.0167  0.0387  0.0698
  190POPC   GL1 2584   7.281   7.145   4.207 -0.0882  0.0214 -0.1142
  190POPC   GL2 2585   7.259   6.823   4.203  0.0106  0.2614 -0.1847
  190POPC   C1A 2586   7.059   7.000   4.624 -0.1824 -0.1655  0.0005
  190POPC   D2A 2587   6.884   7.346   4.874 -0.1982  0.0130  0.1346
  190POPC   C3A 2588   6.729   7.195   5.253 -0.3386  0.2921 -0.0245
  190POPC   C4A 2589   7.013   7.195   5.569  0.0490  0.0397  0.0082
  190POPC   C1B 2590   7.555   7.015   4.566 -0.1843  0.3426 -0.0413
  190POPC   C2B 2591   7.722   6.853   4.969  0.2874  0.0615  0.2345
  190POPC   C3B 2592   8.043   6.848   5.355 -0.1277  0.0008 -0.1769
  190POPC   C4B 2593   8.219   6.708   5.746  0.2144 -0.4252 -0.0798
  191POPC   NC3 2594   0.036   9.284   3.909  0.2800 -0.1644 -0.0254
  191POPC   PO4 2595   0.345   9.704   3.833 -0.0933 -0.0657 -0.1655
  191POPC   GL1 2596   0.225   9.662   4.238 -0.3544  0.1175  0.1852
  191POPC   GL2 2597  -0.102   9.601   4.264  0.0169 -0.0077 -0.2661
  191POPC   C1A 2598   0.262   9.889   4.657  0.0957  0.4061 -0.1068
  191POPC   D2A 2599   0.432  10.082   5.031 -0.0361  0.0914  0.1115
  191POPC   C3A 2600   0.313   9.739   5.479  0.1072 -0.3296  0.2323
  191POPC   C4A 2601   0.583   9.558   5.638 -0.1062  0.1805 -0.1477
  191POPC   C1B 2602  -0.212   9.952   4.542  0.3633 -0.0800 -0.1970
  191POPC   C2B 2603  -0.144   9.978   5.048  0.4103  0.2518 -0.0686
  191POPC   C3B 2604  -0.214   9.985   5.447  0.0539 -0.0857  0.1228
  191POPC   C4B 2605   0.034   9.683   5.847 -0.0144  0.0406  0.2714
  192POPC   NC3 2606   4.186   1.582   3.792  0.1418  0.1094  0.0678
  192POPC   PO4 2607   3.726   1.656   3.799 -0.1223 -0.3031  0.1909
  192POPC   GL1 2608   3.755   1.598   4.154  0.3147  0.1365 -0.0136
  192POPC   GL2 2609   4.007   1.411   4.279  0.2195 -0.4108 -0.2331
  192POPC   C1A 2610   3.757   1.852   4.553  0.1133 -0.0528  0.1318
  192POPC   D2A 2611   3.827   1.828   4.940 -0.2557  0.0762  0.2482
  192POPC   C3A 2612   4.020   1.629   5.179 -0.1020 -0.2743  0.0080
  192POPC   C4A 2613   4.320   1.598   5.487 -0.1103  0.2061 -0.1878
  192POPC   C1B 2614   4.160   1.536   4.664 -0.2928  0.4104  0.0804
  192POPC   C2B 2615   4.496   1.640   4.915 -0.0272 -0.0173  0.0343
  192POPC   C3B 2616   4.759   1.486   5.364 -0.0722  0.1538  0.2343
  192POPC   C4B 2617   4.649   1.200   5.697 -0.1663  0.0776  0.0208
  193POPC   NC3 2618   8.465   8.870   3.527 -0.2690 -0.0578  0.0955
  193POPC   PO4 2619   8.319   9.243   3.649  0.1266  0.0411  0.1849
  193POPC   GL1 2620   7.925   9.234   4.027  0.0329 -0.1266  0.1258
  193POPC   GL2 2621   7.610   9.393   4.149 -0.0033 -0.1585 -0.1102
  193POPC   C1A 2622   7.752   9.048   4.502  0.0715 -0.3014  0.1485
  193POPC   D2A 2623   7.830   8.677   4.858 -0.2209  0.0520  0.3550
  193POPC   C3A 2624   8.211   8.431   4.948  0.2195 -0.1478 -0.0067
  193POPC   C4A 2625   8.432   8.001   4.785  0.2031  0.0172 -0.0997
  193POPC   C1B 2626   7.289   9.263   4.471  0.0110 -0.0232  0.0642
  193POPC   C2B 2627   7.377   9.067   4.870  0.0138 -0.0633 -0.2031
  193POPC   C3B 2628   7.437   8.864   5.224 -0.0825  0.0886 -0.1771
  193POPC   C4B 2629   7.743   8.988   5.509 -0.1689 -0.0252  0.6998
  194POPC   NC3 2630   6.410   4.544   3.609  0.1621 -0.3434  0.1027
  194POPC   PO4 2631   6.755   4.504   3.881 -0.3002  0.1964 -0.0193
  194POPC   GL1 2632   6.606   4.800   4.102  0.2704 -0.1287  0.1540
  194POPC   GL2 2633   6.890   4.976   4.203  0.2123  0.1923 -0.0058
  194POPC   C1A 2634   6.636   4.909   4.616 -0.0547  0.1292  0.2460
  194POPC   D2A 2635   6.748   5.185   4.950 -0.0591 -0.0062  0.1634
  194POPC   C3A 2636   7.075   5.261   5.234 -0.0463  0.1569  0.0733
  194POPC   C4A 2637   7.263   5.016   5.450  0.0145 -0.1245  0.2813
  194POPC   C1B 2638   7.145   4.768   4.578 -0.3260 -0.1021 -0.2013
  194POPC   C2B 2639   7.078   4.688   4.983  0.2504 -0.0726 -0.0249
  194POPC   C3B 2640   6.805   4.799   5.236  0.0285 -0.0578  0.1051
  194POPC   C4B 2641   6.787   5.012   5.604  0.2888 -0.0080  0.0300
  195POPC   NC3 2642   1.761   9.266   3.547 -0.3245  0.2029  0.2820
  195POPC   PO4 2643   1.953   9.101   3.930  0.1529 -0.3609 -0.3071
  195POPC   GL1 2644   2.107   8.918   4.415  0.2983 -0.0816  0.0833
  195POPC   GL2 2645   2.081   8.631   4.474  0.2053 -0.1821 -0.1306
  195POPC   C1A 2646   1.960   9.044   4.869 -0.1952 -0.0851  0.0122
  195POPC   D2A 2647   1.811   9.182   5.233  0.2818 -0.0375 -0.1753
  195POPC   C3A 2648   1.332   9.283   5.409  0.0948  0.0853 -0.2064
  195POPC   C4A 2649   1.067   9.615   5.407 -0.0714 -0.0926  0.1613
  195POPC   C1B 2650   2.122   8.565   4.921  0.1772 -0.1690 -0.2623
  195POPC   C2B 2651   1.977   8.706   5.330  0.1416 -0.0854 -0.0278
  195POPC   C3B 2652   1.702   8.418   5.629 -0.1725 -0.1230 -0.0729
  195POPC   C4B 2653   1.700   8.381   6.051  0.0442 -0.1305  0.0115
  196POPC   NC3 2654   0.466   3.783   3.868 -0.1306  0.1107 -0.0868
  196POPC   PO4 2655   0.797   3.819   3.898 -0.0418 -0.2920 -0.3458
  196POPC   GL1 2656   0.978   3.462   4.192 -0.3507 -0.0073  0.2239
  196POPC   GL2 2657   0.849   3.600   4.453 -0.1811 -0.3211 -0.0662
  196POPC   C1A 2658   1.240   3.128   4.351 -0.0139  0.1139  0.0287
  196POPC   D2A 2659   1.191   2.672   4.141  0.0474  0.0564 -0.1280
  196POPC   C3A 2660   1.043   2.544   3.787 -0.0500 -0.1159  0.0000
  196POPC   C4A 2661   1.303   2.813   3.443 -0.1521 -0.0750 -0.0771
  196POPC   C1B 2662   0.781   3.647   4.886 -0.2482  0.0840  0.0870
  196POPC   C2B 2663   0.798   3.643   5.224 -0.0225  0.0476  0.0702
  196POPC   C3B 2664   1.178   3.538   5.548  0.1037  0.1612 -0.1791
  196POPC   C4B 2665   1.476   3.103   5.497  0.1717  0.2251 -0.0827
  197POPC   NC3 2666   0.986   7.585   3.837  0.1501 -0.2580 -0.0962
  197POPC   PO4 2667   0.835   7.294   4.112  0.0089  0.2430  0.0780
  197POPC   GL1 2668   0.966   7.289   4.466  0.0225 -0.1542 -0.2463
  197POPC   GL2 2669   1.177   7.505   4.679 -0.1795  0.1046  0.1631
  197POPC   C1A 2670   0.913   7.227   4.963  0.2695  0.1995  0.0762
  197POPC   D2A 2671   0.709   7.210   5.311 -0.1106 -0.1928  0.1841
  197POPC   C3A 2672   0.582   6.855   5.537 -0.2026 -0.2580  0.0826
  197POPC   C4A 2673   0.756   6.642   5.886 -0.1591  0.1394  0.2690
  197POPC   C1B 2674   0.846   7.699   4.879  0.1768  0.0383 -0.1597
  197POPC   C2B 2675   0.607   7.755   5.256 -0.0322 -0.0616  0.0447
  197POPC   C3B 2676   0.325   7.535   5.532  0.1298 -0.1475 -0.1875
  197POPC   C4B 2677   0.222   7.171   5.551  0.0243  0.0485  0.0461
  198POPC   NC3 2678  10.167   3.610   3.876 -0.0050 -0.0789 -0.1932
  198POPC   PO4 2679  10.227   4.027   3.847 -0.1151  0.2895 -0.1104
  198POPC   GL1 2680  10.494   3.993   4.142 -0.6020 -0.1525 -0.1818
  198POPC   GL2 2681  10.761   4.003   4.079  0.1682  0.0288 -0.0814
  198POPC   C1A 2682  10.377   3.875   4.671 -0.2336 -0.0844 -0.1925
  198POPC   D2A 2683  10.454   4.088   5.138 -0.0264  0.1141  0.1701
  198POPC   C3A 2684  10.196   4.259   5.465 -0.3402  0.1961 -0.2451
  198POPC   C4A 2685   9.816   4.240   5.647  0.4000  0.1665  0.1254
  198POPC   C1B 2686  10.842   3.803   4.585 -0.1414 -0.1502  0.1453
  198POPC   C2B 2687  10.968   3.707   5.036  0.0749 -0.3003 -0.0936
  198POPC   C3B 2688  11.003   3.627   5.412  0.0946 -0.0926 -0.1374
  198POPC   C4B 2689  11.352   3.517   5.775  0.3189  0.0756  0.1194
  199POPC   NC3 2690   9.407   2.007   3.518  0.0089  0.1384  0.1492
  199POPC   PO4 2691   9.854   2.134   3.655 -0.0259 -0.5290 -0.0223
  199POPC   GL1 2692  10.021   2.197   4.068  0.1619 -0.5004  0.2832
  199POPC   GL2 2693  10.120   2.516   4.096  0.3084 -0.1523  0.2342
  199POPC   C1A 2694   9.856   2.098   4.493  0.0363 -0.3651 -0.2161
  199POPC   D2A 2695   9.638   2.058   4.855 -0.1193 -0.0685  0.0751
  199POPC   C3A 2696   9.723   2.260   5.265  0.1555 -0.2444  0.3969
  199POPC   C4A 2697   9.861   2.160   5.665  0.1094 -0.0450 -0.1096
  199POPC   C1B 2698  10.119   2.553   4.503  0.0706  0.0731 -0.0264
  199POPC   C2B 2699  10.044   2.433   4.903 -0.2806  0.0493 -0.1575
  199POPC   C3B 2700  10.293   2.252   5.257  0.0529  0.0586 -0.3509
  199POPC   C4B 2701  10.442   1.852   5.395 -0.0999  0.2262  0.1548
  200POPC   NC3 2702   6.811   3.059   3.846  0.0707  0.0754  0.1234
  200POPC   PO4 2703   6.381   3.182   3.839 -0.3788 -0.1241  0.1539
  200POPC   GL1 2704   6.394   2.872   4.137 -0.2117  0.2052  0.2772
  200POPC   GL2 2705   6.680   2.812   4.301  0.4010  0.1304  0.1410
  200POPC   C1A 2706   6.118   2.859   4.575 -0.0508 -0.1063  0.2118
  200POPC   D2A 2707   5.988   2.674   4.970 -0.1882 -0.3443  0.1080
  200POPC   C3A 2708   5.815   2.943   5.322  0.5039 -0.0703  0.4443
  200POPC   C4A 2709   5.678   3.204   5.635 -0.2600 -0.0787 -0.0270
  200POPC   C1B 2710   6.619   2.965   4.692  0.1275 -0.1205 -0.0334
  200POPC   C2B 2711   6.424   2.860   4.992 -0.2143  0.0566  0.1213
  200POPC   C3B 2712   6.261   2.964   5.433  0.0398  0.0105 -0.1742
  200POPC   C4B 2713   6.305   3.354   5.664  0.0213  0.0780  0.1276
  201POPC   NC3 2714   8.430   8.040   3.460  0.0768  0.1960  0.2923
  201POPC   PO4 2715   8.155   8.441   3.352  0.3286 -0.1483 -0.2357
  201POPC   GL1 2716   8.362   8.442   3.785 -0.1272  0.0445 -0.1370
  201POPC   GL2 2717   8.667   8.481   3.800 -0.3305  0.0525  0.0020
  201POPC   C1A 2718   8.552   8.199   4.174  0.0156 -0.2010 -0.1400
  201POPC   D2A 2719   8.223   8.352   4.454  0.4156  0.1169  0.0009
  201POPC   C3A 2720   7.911   8.106   4.735  0.0673 -0.0515  0.0289
  201POPC   C4A 2721   7.673   7.741   4.876  0.1850  0.1399  0.2500
  201POPC   C1B 2722   8.774   8.611   4.295 -0.1071 -0.1218 -0.0647
  201POPC   C2B 2723   8.673   8.475   4.685  0.2478 -0.1864 -0.1357
  201POPC   C3B 2724   8.823   8.113   5.041 -0.0070  0.0519 -0.2736
  201POPC   C4B 2725   8.916   8.109   5.444 -0.3160 -0.1548 -0.0558
  202POPC   NC3 2726   4.601   0.167   3.495 -0.2397 -0.2487 -0.2174
  202POPC   PO4 2727   4.310   0.248   3.938  0.0856 -0.0698 -0.0491
  202POPC   GL1 2728   4.673   0.443   4.209  0.2619  0.1877 -0.0931
  202POPC   GL2 2729   4.786   0.715   4.088  0.1256  0.0183  0.2633
  202POPC   C1A 2730   4.551   0.529   4.524 -0.1980  0.0685 -0.0592
  202POPC   D2A 2731   4.432   0.583   4.982 -0.3005 -0.2080 -0.0211
  202POPC   C3A 2732   4.609   0.852   5.297 -0.0754 -0.1034 -0.0135
  202POPC   C4A 2733   5.029   0.930   5.508 -0.1206  0.0537 -0.0814
  202POPC   C1B 2734   4.963   0.967   4.363  0.1187 -0.1557 -0.0745
  202POPC   C2B 2735   5.363   1.012   4.549  0.0174  0.3918 -0.1098
  202POPC   C3B 2736   5.692   0.964   4.871 -0.2384 -0.2874  0.0715
  202POPC   C4B 2737   5.764   1.098   5.163 -0.1043  0.1112  0.4377
  203POPC   NC3 2738   1.114   9.042   3.533 -0.3925 -0.0008 -0.2185
  203POPC   PO4 2739   0.718   8.753   3.575  0.1954  0.3329 -0.1835
  203POPC   GL1 2740   0.681   8.608   4.017  0.0927  0.1075 -0.2927
  203POPC   GL2 2741   0.445   8.309   4.094  0.0296  0.0048  0.1556
  203POPC   C1A 2742   0.728   8.642   4.441 -0.2435  0.1498  0.2025
  203POPC   D2A 2743   0.642   8.710   4.821 -0.2636 -0.0455  0.0549
  203POPC   C3A 2744   0.431   8.776   5.287  0.0904  0.0069  0.1922
  203POPC   C4A 2745   0.306   9.166   5.592 -0.1455 -0.3863 -0.1107
  203POPC   C1B 2746   0.384   8.194   4.518  0.0078 -0.0556  0.0118
  203POPC   C2B 2747   0.500   8.036   4.867  0.1411 -0.1199 -0.3262
  203POPC   C3B 2748   0.503   8.260   5.188  0.0224 -0.1295 -0.1212
  203POPC   C4B 2749   0.637   8.152   5.515 -0.2095 -0.3921  0.0289
  204POPC   NC3 2750   5.015   9.550   3.338  0.1554 -0.1547 -0.1637
  204POPC   PO4 2751   4.821   9.433   3.693 -0.1677  0.0894 -0.2706
  204POPC   GL1 2752   4.759   9.591   4.131  0.0677  0.2422 -0.1724
  204POPC   GL2 2753   4.759   9.999   4.094 -0.2050 -0.2198 -0.2899
  204POPC   C1A 2754   4.602   9.778   4.609 -0.0669 -0.0614 -0.1166
  204POPC   D2A 2755   4.823  10.063   4.806 -0.1402  0.1120  0.1487
  204POPC   C3A 2756   4.671  10.360   5.163 -0.0177 -0.2264 -0.2480
  204POPC   C4A 2757   4.737  10.473   5.639 -0.1052 -0.0496 -0.1259
  204POPC   C1B 2758   5.107   9.860   4.408 -0.3217 -0.1537  0.1347
  204POPC   C2B 2759   5.291   9.780   4.800  0.2978 -0.1227 -0.0488
  204POPC   C3B 2760   5.299   9.727   5.234 -0.0867 -0.1491  0.0925
  204POPC   C4B 2761   5.450   9.920   5.406 -0.3376 -0.0125  0.4305
  205POPC   NC3 2762   3.107   2.228   2.867 -0.1306 -0.4378  0.1655
  205POPC   PO4 2763   3.206   2.632   2.996  0.0643 -0.1900 -0.0492
  205POPC   GL1 2764   3.069   2.663   3.473 -0.4922  0.0787  0.0229
  205POPC   GL2 2765   2.875   2.857   3.662  0.1783  0.0619  0.0911
  205POPC   C1A 2766   3.273   3.006   3.836  0.3348  0.3760 -0.0198
  205POPC   D2A 2767   3.477   3.393   4.069 -0.0494 -0.1571 -0.0051
  205POPC   C3A 2768   3.634   3.378   4.560  0.0465 -0.3159  0.2067
  205POPC   C4A 2769   3.675   3.390   4.956 -0.0074 -0.1299 -0.0508
  205POPC   C1B 2770   2.764   2.648   4.183  0.0640 -0.1953 -0.1121
  205POPC   C2B 2771   2.733   2.778   4.643 -0.0214  0.2827 -0.1353
  205POPC   C3B 2772   2.721   2.852   5.034 -0.0949 -0.0714  0.1588
  205POPC   C4B 2773   2.778   3.273   5.303  0.3369 -0.1281 -0.1654
  206POPC   NC3 2774   4.991   2.610   3.639 -0.1605  0.2038 -0.1801
  206POPC   PO4 2775   5.243   2.753   3.915 -0.3447  0.3052 -0.0758
  206POPC   GL1 2776   5.361   2.517   4.188 -0.0822  0.1165 -0.3945
  206POPC   GL2 2777   5.620   2.393   4.287 -0.0663  0.0360 -0.1417
  206POPC   C1A 2778   5.110   2.425   4.548 -0.2905 -0.0231 -0.0138
  206POPC   D2A 2779   5.097   2.333   4.970 -0.0642 -0.5304  0.0184
  206POPC   C3A 2780   5.001   2.600   5.359 -0.4732 -0.0058 -0.1299
  206POPC   C4A 2781   4.612   2.591   5.624 -0.0748  0.3654 -0.0298
  206POPC   C1B 2782   5.574   2.568   4.718  0.1868 -0.1701 -0.1197
  206POPC   C2B 2783   5.496   2.675   5.103  0.1898 -0.0103  0.0133
  206POPC   C3B 2784   5.342   2.962   5.402  0.0716  0.0029 -0.0221
  206POPC   C4B 2785   4.974   3.094   5.748 -0.2935 -0.0354 -0.1370
  207POPC   NC3 2786  10.589   0.858   3.332 -0.0045  0.0116  0.1295
  207POPC   PO4 2787  10.379   0.700   3.659  0.2728  0.1582 -0.0709
  207POPC   GL1 2788  10.229   0.637   4.144 -0.1742  0.1078 -0.0859
  207POPC   GL2 2789   9.971   0.724   4.230 -0.7543 -0.1182  0.2391
  207POPC   C1A 2790  10.314   0.753   4.579  0.3151  0.0608 -0.3068
  207POPC   D2A 2791  10.164   0.840   4.894 -0.1819 -0.2243  0.0564
  207POPC   C3A 2792  10.166   0.950   5.419 -0.0605 -0.1721 -0.2451
  207POPC   C4A 2793  10.145   0.911   5.836  0.1460  0.0333  0.0683
  207POPC   C1B 2794   9.615   0.680   4.552  0.1892  0.3553 -0.2134
  207POPC   C2B 2795   9.428   0.628   5.055 -0.1208  0.1101  0.0499
  207POPC   C3B 2796   9.241   0.643   5.441  0.3688  0.2830 -0.1432
  207POPC   C4B 2797   9.288   0.966   5.706  0.2914  0.1846  0.1225
  208POPC   NC3 2798   6.513   0.420   2.824 -0.0022 -0.3229 -0.1357
  208POPC   PO4 2799   6.721   0.101   3.110 -0.2002  0.1875 -0.1385
  208POPC   GL1 2800   6.854   0.076   3.573  0.2444  0.1852  0.0755
  208POPC   GL2 2801   7.135  -0.002   3.655 -0.1044  0.0848 -0.1797
  208POPC   C1A 2802   6.817   0.320   3.931  0.0107  0.1737 -0.1291
  208POPC   D2A 2803   7.085   0.257   4.310  0.0031  0.2199 -0.2335
  208POPC   C3A 2804   6.921   0.150   4.761 -0.0392 -0.1069  0.3760
  208POPC   C4A 2805   7.051   0.239   5.085 -0.0123 -0.2217  0.4618
  208POPC   C1B 2806   7.193  -0.188   4.002  0.1265  0.0350 -0.0492
  208POPC   C2B 2807   7.091  -0.257   4.442 -0.2882  0.0823  0.3466
  208POPC   C3B 2808   6.982  -0.349   4.800  0.0277 -0.0792  0.3892
  208POPC   C4B 2809   7.201  -0.478   5.260  0.3283  0.1863  0.1558
  209POPC   NC3 2810   1.593   4.071   3.571  0.1338 -0.3442 -0.0326
  209POPC   PO4 2811   1.246   4.317   3.579  0.0129  0.1981 -0.1055
  209POPC   GL1 2812   1.160   4.212   3.943 -0.0541 -0.0666  0.0034
  209POPC   GL2 2813   1.329   4.516   4.089 -0.0667 -0.0192  0.3182
  209POPC   C1A 2814   1.219   4.068   4.358 -0.0694  0.0128 -0.1603
  209POPC   D2A 2815   1.267   3.753   4.673  0.0815 -0.1357  0.1692
  209POPC   C3A 2816   1.488   3.842   4.877 -0.0228  0.3361 -0.0078
  209POPC   C4A 2817   1.500   3.867   5.316  0.0355 -0.0526  0.0614
  209POPC   C1B 2818   1.484   4.423   4.514 -0.0610 -0.1601 -0.0197
  209POPC   C2B 2819   1.713   4.321   4.914  0.3908 -0.0664  0.0539
  209POPC   C3B 2820   1.586   4.330   5.266  0.1136  0.1725  0.1770
  209POPC   C4B 2821   1.542   4.440   5.664  0.1750  0.3051  0.0545
  210POPC   NC3 2822   8.575   3.884   3.570  0.3382 -0.0558  0.1023
  210POPC   PO4 2823   8.160   3.764   3.690 -0.1439 -0.3925 -0.1818
  210POPC   GL1 2824   8.226   3.476   4.015 -0.1154  0.1527  0.0114
  210POPC   GL2 2825   8.452   3.304   3.966 -0.0471 -0.2348 -0.2794
  210POPC   C1A 2826   8.257   3.640   4.391  0.1043  0.1886  0.2296
  210POPC   D2A 2827   8.232   3.366   4.756 -0.2908 -0.2233 -0.1187
  210POPC   C3A 2828   8.572   3.078   4.919  0.0575  0.0631  0.2976
  210POPC   C4A 2829   8.981   3.176   4.825 -0.2536 -0.1849 -0.1983
  210POPC   C1B 2830   8.494   3.162   4.388 -0.1411 -0.0330 -0.2502
  210POPC   C2B 2831   8.778   2.859   4.513  0.0398  0.2770 -0.0714
  210POPC   C3B 2832   9.035   2.785   5.011  0.1883  0.2256  0.0877
  210POPC   C4B 2833   8.942   2.865   5.479  0.2111  0.0876  0.0213
  211POPC   NC3 2834   5.541   4.008   3.835  0.2340  0.0138 -0.1673
  211POPC   PO4 2835   5.291   4.163   3.748 -0.0775 -0.1167 -0.2986
  211POPC   GL1 2836   4.946   4.405   4.061  0.4616 -0.1029  0.2653
  211POPC   GL2 2837   4.590   4.306   4.128 -0.0838 -0.0217 -0.2559
  211POPC   C1A 2838   4.992   4.489   4.521 -0.1697 -0.0806  0.1172
  211POPC   D2A 2839   5.338   4.471   4.733  0.3227 -0.1418  0.0803
  211POPC   C3A 2840   5.673   4.750   4.470 -0.0432 -0.2479 -0.1962
  211POPC   C4A 2841   5.760   5.085   4.236  0.1693  0.4874  0.2089
  211POPC   C1B 2842   4.585   4.675   4.501  0.2318  0.1518  0.0595
  211POPC   C2B 2843   4.685   4.824   4.771  0.0444  0.0312  0.0292
  211POPC   C3B 2844   4.856   5.065   5.155  0.0132  0.0669 -0.0724
  211POPC   C4B 2845   4.857   5.406   5.473  0.0022  0.1767 -0.0935
  212POPC   NC3 2846   2.476   8.593   3.923 -0.4718  0.1710 -0.0253
  212POPC   PO4 2847   2.661   8.260   3.692 -0.1380  0.0533  0.1320
  212POPC   GL1 2848   2.623   8.181   4.048 -0.0291  0.1610 -0.3243
  212POPC   GL2 2849   2.315   8.143   4.247  0.0392 -0.2556  0.2616
  212POPC   C1A 2850   2.787   8.050   4.523  0.1449  0.3270 -0.0805
  212POPC   D2A 2851   2.768   7.996   4.937 -0.2437 -0.2363 -0.0303
  212POPC   C3A 2852   2.651   7.551   5.088  0.0390  0.2258  0.2247
  212POPC   C4A 2853   2.437   7.208   5.412 -0.1856 -0.0236 -0.0788
  212POPC   C1B 2854   2.264   8.059   4.650 -0.0863  0.0647 -0.3603
  212POPC   C2B 2855   2.146   7.756   5.078  0.0019  0.1757 -0.1035
  212POPC   C3B 2856   2.038   7.666   5.506  0.1933 -0.0959  0.1476
  212POPC   C4B 2857   1.882   7.884   5.914  0.2575  0.1482 -0.0220
  213POPC   NC3 2858   2.907   3.643   3.324  0.0468 -0.0005 -0.3413
  213POPC   PO4 2859   2.602   3.253   3.434 -0.4718 -0.2885  0.1624
  213POPC   GL1 2860   2.758   3.425   3.805 -0.0877 -0.0401 -0.0026
  213POPC   GL2 2861   3.131   3.512   3.763 -0.1523  0.0409 -0.0340
  213POPC   C1A 2862   2.922   3.226   4.126  0.0086  0.2333 -0.0454
  213POPC   D2A 2863   3.197   3.016   4.304 -0.0473  0.2183 -0.1894
  213POPC   C3A 2864   3.229   2.536   4.517  0.0984 -0.0382  0.1275
  213POPC   C4A 2865   3.606   2.317   4.643  0.0181  0.3823 -0.0886
  213POPC   C1B 2866   3.020   3.680   4.194  0.1043 -0.3010  0.4296
  213POPC   C2B 2867   2.861   3.719   4.665 -0.1661 -0.3513  0.0139
  213POPC   C3B 2868   2.821   3.766   5.038  0.1661 -0.1645  0.2260
  213POPC   C4B 2869   2.919   3.773   5.477 -0.0232  0.0445 -0.0256
  214POPC   NC3 2870   0.166   7.565   3.802  0.1288 -0.3312 -0.0640
  214POPC   PO4 2871   0.565   7.825   3.834  0.0630  0.3382  0.0376
  214POPC   GL1 2872   0.655   7.901   4.263  0.2072  0.0139 -0.1413
  214POPC   GL2 2873   0.636   7.628   4.421  0.1288  0.1001  0.2098
  214POPC   C1A 2874   0.929   8.109   4.634 -0.0247 -0.0802 -0.0887
  214POPC   D2A 2875   0.991   8.163   5.066  0.0114 -0.0333  0.1449
  214POPC   C3A 2876   1.412   8.267   5.201 -0.0011 -0.1624 -0.0136
  214POPC   C4A 2877   1.796   8.106   5.144  0.1274  0.0347 -0.0765
  214POPC   C1B 2878   0.214   7.632   4.576  0.0489  0.2550  0.0981
  214POPC   C2B 2879  -0.240   7.559   4.469 -0.4895 -0.0522 -0.2601
  214POPC   C3B 2880  -0.373   7.693   4.747 -0.2765 -0.2144 -0.1949
  214POPC   C4B 2881  -0.657   7.570   5.183  0.0508 -0.2211  0.1328
  215POPC   NC3 2882   9.336  10.519   3.763 -0.2200 -0.0793  0.0412
  215POPC   PO4 2883   9.381  11.016   3.832 -0.1398  0.2380  0.0900
  215POPC   GL1 2884   9.518  10.919   4.164 -0.0829  0.0959  0.1095
  215POPC   GL2 2885   9.527  10.525   4.273 -0.0457  0.3769  0.2129
  215POPC   C1A 2886   9.821  10.835   4.490  0.0060 -0.3389  0.2097
  215POPC   D2A 2887   9.835  10.869   4.855 -0.2404  0.2625  0.0372
  215POPC   C3A 2888   9.907  11.149   5.143  0.0275  0.1211  0.0133
  215POPC   C4A 2889   9.695  11.432   5.403 -0.0235  0.1749  0.0616
  215POPC   C1B 2890   9.563  10.307   4.701 -0.1355  0.0658 -0.1886
  215POPC   C2B 2891   9.644  10.550   5.140 -0.1659  0.0236 -0.0893
  215POPC   C3B 2892   9.611  10.887   5.379 -0.1862  0.1831  0.0673
  215POPC   C4B 2893  10.032  11.081   5.730 -0.0167 -0.4183 -0.0715
  216POPC   NC3 2894   0.392   6.565   3.585 -0.1801 -0.1175  0.2234
  216POPC   PO4 2895   0.173   6.913   3.757 -0.0849 -0.0727  0.0067
  216POPC   GL1 2896   0.087   6.575   4.031 -0.2574  0.1330  0.0859
  216POPC   GL2 2897   0.156   6.250   4.018  0.2043 -0.3396  0.0620
  216POPC   C1A 2898  -0.109   6.488   4.362 -0.1227 -0.2715  0.2268
  216POPC   D2A 2899   0.184   6.605   4.654  0.2049 -0.0946 -0.0558
  216POPC   C3A 2900   0.559   6.409   4.756 -0.0339  0.0688 -0.1921
  216POPC   C4A 2901   0.930   6.261   4.843  0.1141 -0.0928 -0.2232
  216POPC   C1B 2902   0.258   6.146   4.424  0.2173 -0.2218  0.0953
  216POPC   C2B 2903   0.066   6.071   4.682 -0.0707  0.1083 -0.2247
  216POPC   C3B 2904   0.016   6.315   5.046  0.0403 -0.2635 -0.1923
  216POPC   C4B 2905   0.328   6.346   5.178 -0.4047 -0.0818  0.0442
  217POPC   NC3 2906   0.696   5.491   3.713 -0.0167  0.0526 -0.3870
  217POPC   PO4 2907   0.974   5.204   3.686  0.2032  0.2762  0.1522
  217POPC   GL1 2908   1.249   5.015   3.994 -0.4255 -0.2552  0.0009
  217POPC   GL2 2909   1.584   5.078   3.957  0.0062  0.1150  0.0453
  217POPC   C1A 2910   1.385   4.902   4.447  0.0869  0.1622 -0.2814
  217POPC   D2A 2911   1.373   4.803   4.901  0.0507 -0.1810  0.2523
  217POPC   C3A 2912   1.151   4.620   5.351  0.1136  0.0119  0.1646
  217POPC   C4A 2913   0.740   4.608   5.442 -0.1197 -0.3668 -0.3253
  217POPC   C1B 2914   1.822   5.123   4.432  0.2735 -0.0764  0.0660
  217POPC   C2B 2915   1.869   4.811   4.720 -0.2078  0.0969  0.0467
  217POPC   C3B 2916   1.811   4.785   5.090  0.0428  0.0640 -0.1811
  217POPC   C4B 2917   1.535   5.016   5.321  0.2631  0.0037  0.1771
  218POPC   NC3 2918   6.652   1.943   3.742  0.5268 -0.0244 -0.1146
  218POPC   PO4 2919   7.092   1.653   3.708 -0.5431 -0.0222  0.1743
  218POPC   GL1 2920   7.307   1.558   4.025  0.1559 -0.1281 -0.0836
  218POPC   GL2 2921   7.084   1.289   4.150  0.0231  0.0054 -0.2271
  218POPC   C1A 2922   7.450   1.441   4.441 -0.1363 -0.2238  0.2240
  218POPC   D2A 2923   7.739   1.708   4.793  0.1147  0.0130  0.1834
  218POPC   C3A 2924   8.009   1.773   5.157 -0.1202  0.3033 -0.0011
  218POPC   C4A 2925   8.382   1.696   5.343 -0.1284  0.0378 -0.2005
  218POPC   C1B 2926   6.976   1.741   4.440 -0.0065 -0.1657 -0.2376
  218POPC   C2B 2927   7.145   1.672   4.869 -0.0284  0.1806  0.2680
  218POPC   C3B 2928   7.155   1.282   5.146  0.2382 -0.0885 -0.0559
  218POPC   C4B 2929   7.443   0.909   5.187 -0.3813 -0.0285  0.2265
  219POPC   NC3 2930   6.361   2.557   3.345 -0.1535  0.0530  0.0212
  219POPC   PO4 2931   6.263   2.236   3.696  0.0980  0.1486  0.1688
  219POPC   GL1 2932   6.172   2.399   4.130  0.0928 -0.1570 -0.1604
  219POPC   GL2 2933   6.531   2.241   4.236  0.0494 -0.1631  0.1362
  219POPC   C1A 2934   6.019   2.243   4.573 -0.4747 -0.0423 -0.0285
  219POPC   D2A 2935   6.038   1.863   4.856  0.0707 -0.1738  0.0597
  219POPC   C3A 2936   6.155   1.869   5.255  0.1197  0.3062  0.0545
  219POPC   C4A 2937   6.429   1.726   5.599  0.0878 -0.0816  0.1903
  219POPC   C1B 2938   6.462   2.445   4.573 -0.0233 -0.0070  0.1739
  219POPC   C2B 2939   6.413   2.374   4.991  0.0468  0.0821  0.0559
  219POPC   C3B 2940   6.198   2.431   5.405 -0.0610 -0.1575  0.3298
  219POPC   C4B 2941   6.322   2.360   5.710 -0.0674  0.0276  0.1150
  220POPC   NC3 2942   3.738   5.558   3.549 -0.1333  0.1498  0.2560
  220POPC   PO4 2943   3.823   5.296   3.844 -0.0019  0.2941  0.0870
  220POPC   GL1 2944   3.901   5.137   4.209 -0.1071 -0.0856 -0.0170
  220POPC   GL2 2945   4.181   5.105   4.344 -0.0644 -0.1461  0.0792
  220POPC   C1A 2946   3.786   4.797   4.397 -0.1049  0.0184 -0.0372
  220POPC   D2A 2947   3.523   4.427   4.431  0.1313 -0.0997 -0.1887
  220POPC   C3A 2948   3.509   4.271   4.785 -0.0696 -0.0837  0.0881
  220POPC   C4A 2949   3.814   4.419   5.233  0.1742 -0.1867  0.2027
  220POPC   C1B 2950   4.137   5.048   4.771  0.2691 -0.1663  0.0272
  220POPC   C2B 2951   4.019   4.873   5.215 -0.0900 -0.1551  0.0259
  220POPC   C3B 2952   4.080   4.540   5.674  0.0479  0.1079  0.0583
  220POPC   C4B 2953   4.101   4.148   5.906 -0.1020  0.0784 -0.1357
  221POPC   NC3 2954   5.878   0.953   3.379 -0.1181  0.1255  0.1610
  221POPC   PO4 2955   6.212   0.793   3.527  0.1422  0.2399  0.1323
  221POPC   GL1 2956   6.186   0.924   3.883 -0.2320 -0.1098 -0.1510
  221POPC   GL2 2957   6.033   1.193   3.801 -0.0172 -0.1944 -0.0487
  221POPC   C1A 2958   6.543   0.985   4.215 -0.2723  0.2679 -0.1366
  221POPC   D2A 2959   6.772   1.242   4.576  0.1779 -0.2834  0.0681
  221POPC   C3A 2960   6.694   1.331   4.988  0.1403  0.0564  0.2071
  221POPC   C4A 2961   6.622   1.144   5.287  0.0659  0.1559 -0.2346
  221POPC   C1B 2962   6.249   1.354   4.185 -0.1033  0.2196  0.2058
  221POPC   C2B 2963   6.256   1.421   4.650  0.0576 -0.0155  0.0893
  221POPC   C3B 2964   6.203   1.409   5.048  0.0609  0.2099 -0.1216
  221POPC   C4B 2965   6.127   1.318   5.445  0.1537  0.0801 -0.2906
  222POPC   NC3 2966   2.071   3.713   3.256  0.3451  0.2378 -0.1592
  222POPC   PO4 2967   1.590   3.669   3.270 -0.2235  0.1553  0.0135
  222POPC   GL1 2968   1.792   3.594   3.623  0.0699 -0.4682 -0.0617
  222POPC   GL2 2969   1.503   3.641   3.886  0.1574  0.1255  0.4231
  222POPC   C1A 2970   2.051   3.367   3.854  0.2244  0.1339  0.1344
  222POPC   D2A 2971   2.387   3.130   4.006  0.1439 -0.2082  0.1163
  222POPC   C3A 2972   2.466   3.062   4.379 -0.3690 -0.0945 -0.2454
  222POPC   C4A 2973   2.611   3.270   4.807 -0.2970 -0.2641  0.3660
  222POPC   C1B 2974   1.522   3.527   4.305  0.0351 -0.1512 -0.0586
  222POPC   C2B 2975   1.707   3.518   4.599 -0.0786 -0.3805 -0.0995
  222POPC   C3B 2976   1.797   3.410   4.956 -0.1342  0.1058  0.2256
  222POPC   C4B 2977   1.813   3.004   5.141  0.2162  0.1545 -0.2064
  223POPC   NC3 2978   7.910   4.031   4.036  0.0943  0.0528 -0.2002
  223POPC   PO4 2979   8.051   4.456   4.011  0.1409 -0.2175 -0.0498
  223POPC   GL1 2980   8.121   4.590   4.478  0.1723 -0.2140  0.1812
  223POPC   GL2 2981   8.316   4.880   4.545 -0.0859 -0.1905  0.0518
  223POPC   C1A 2982   8.147   4.472   4.969 -0.4873 -0.1472 -0.1679
  223POPC   D2A 2983   8.228   4.500   5.378  0.1066  0.3746 -0.1726
  223POPC   C3A 2984   8.588   4.692   5.617 -0.0459 -0.0198  0.2734
  223POPC   C4A 2985   8.809   5.127   5.558  0.0044  0.2767 -0.2770
  223POPC   C1B 2986   8.557   4.881   4.842 -0.2489 -0.2510 -0.0091
  223POPC   C2B 2987   8.761   5.226   5.097 -0.0615  0.1921  0.0503
  223POPC   C3B 2988   8.452   5.491   5.180  0.0502  0.0005  0.2192
  223POPC   C4B 2989   8.094   5.585   5.402  0.0149  0.2699  0.1433
  224POPC   NC3 2990   8.366   4.313   3.614 -0.1253 -0.0058 -0.1613
  224POPC   PO4 2991   8.550   4.660   3.559 -0.3406 -0.1587 -0.3008
  224POPC   GL1 2992   8.575   4.969   3.888  0.1960  0.4211 -0.0941
  224POPC   GL2 2993   8.518   4.686   4.063 -0.0690  0.0321  0.3380
  224POPC   C1A 2994   8.624   5.148   4.285 -0.0294 -0.3190  0.3497
  224POPC   D2A 2995   8.488   5.348   4.663  0.0021 -0.1972  0.0260
  224POPC   C3A 2996   8.054   5.256   4.824  0.3084 -0.0242 -0.2849
  224POPC   C4A 2997   8.229   5.027   5.249  0.0831  0.0695  0.0764
  224POPC   C1B 2998   8.668   4.618   4.357 -0.1052  0.0812  0.2302
  224POPC   C2B 2999   8.831   4.500   4.643 -0.2050 -0.1147 -0.1005
  224POPC   C3B 3000   9.145   4.246   4.728 -0.0140  0.0500  0.0827
  224POPC   C4B 3001   9.297   4.158   5.200  0.1667 -0.0674  0.4154
  225POPC   NC3 3002   6.649   7.334   3.696  0.1768 -0.0833  0.2291
  225POPC   PO4 3003   6.593   7.768   3.775  0.3197  0.1983  0.0984
  225POPC   GL1 3004   6.417   7.824   4.210 -0.3243 -0.1305 -0.1526
  225POPC   GL2 3005   6.474   7.494   4.161 -0.1531  0.1105  0.2072
  225POPC   C1A 3006   6.539   7.818   4.617 -0.4903  0.4651  0.2356
  225POPC   D2A 3007   6.290   7.970   5.041 -0.1616  0.2843  0.0770
  225POPC   C3A 3008   6.046   7.662   5.288 -0.0884  0.2345  0.0277
  225POPC   C4A 3009   5.935   7.546   5.710 -0.2792  0.1685 -0.0007
  225POPC   C1B 3010   6.917   7.499   4.416  0.1900  0.1317  0.0625
  225POPC   C2B 3011   7.143   7.747   4.758 -0.1684 -0.0988 -0.4877
  225POPC   C3B 3012   7.139   7.962   5.193 -0.1844  0.1032  0.1205
  225POPC   C4B 3013   7.274   8.250   5.560 -0.0203  0.1853  0.1789
  226POPC   NC3 3014  10.118   5.853   3.790  0.1228 -0.1541 -0.0264
  226POPC   PO4 3015  10.515   5.781   3.859 -0.1367 -0.1292 -0.0383
  226POPC   GL1 3016  10.559   5.785   4.297 -0.2978 -0.0320  0.0634
  226POPC   GL2 3017  10.307   5.937   4.384  0.2535 -0.1204 -0.0405
  226POPC   C1A 3018  10.716   5.606   4.606 -0.0612 -0.1697 -0.3109
  226POPC   D2A 3019  10.586   5.375   4.934  0.1946 -0.2516  0.0532
  226POPC   C3A 3020  10.256   5.354   5.307 -0.1990  0.1299 -0.0258
  226POPC   C4A 3021  10.104   5.152   5.702  0.3338 -0.1572  0.1029
  226POPC   C1B 3022  10.189   6.155   4.786 -0.0214  0.0759 -0.2443
  226POPC   C2B 3023  10.138   6.170   5.196  0.1856 -0.1472 -0.0041
  226POPC   C3B 3024  10.486   6.201   5.537 -0.0425  0.0238 -0.0254
  226POPC   C4B 3025  10.892   6.317   5.912 -0.1899  0.6020 -0.1554
  227POPC   NC3 3026   9.613   5.332   3.587  0.3389 -0.0399 -0.2083
  227POPC   PO4 3027  10.043   5.361   3.734 -0.0086 -0.2451 -0.0686
  227POPC   GL1 3028   9.935   5.593   4.135  0.2507 -0.1070  0.0373
  227POPC   GL2 3029   9.610   5.543   4.125 -0.0206 -0.1723 -0.1595
  227POPC   C1A 3030   9.951   5.558   4.548  0.1161  0.2764  0.1330
  227POPC   D2A 3031  10.072   5.713   5.004 -0.2882 -0.2312  0.1718
  227POPC   C3A 3032  10.537   5.843   5.104  0.1689  0.0794 -0.4366
  227POPC   C4A 3033  10.922   5.694   5.049  0.1272  0.0715  0.3689
  227POPC   C1B 3034   9.478   5.299   4.467 -0.1159  0.1997  0.3722
  227POPC   C2B 3035   9.586   5.225   4.850  0.0331 -0.3176  0.0070
  227POPC   C3B 3036   9.771   5.198   5.208  0.2042  0.2816 -0.4653
  227POPC   C4B 3037  10.003   4.817   5.405  0.1611 -0.1751  0.3424
  228POPC   NC3 3038   9.931   9.114   3.758  0.0599 -0.0332 -0.2443
  228POPC   PO4 3039   9.641   8.859   3.931  0.0387 -0.1437 -0.0282
  228POPC   GL1 3040   9.380   8.742   4.199 -0.1930 -0.1516  0.1293
  228POPC   GL2 3041   9.175   9.011   4.205 -0.2076  0.3273 -0.1614
  228POPC   C1A 3042   9.216   8.609   4.647  0.0692 -0.1440  0.0797
  228POPC   D2A 3043   9.368   8.836   4.997  0.4165  0.1740 -0.1247
  228POPC   C3A 3044   9.174   8.727   5.518  0.1543 -0.2006  0.0917
  228POPC   C4A 3045   8.769   8.535   5.724 -0.0179 -0.1392 -0.0282
  228POPC   C1B 3046   9.432   9.133   4.528 -0.0452 -0.1852 -0.1879
  228POPC   C2B 3047   9.317   9.319   4.894  0.1253 -0.1261 -0.0717
  228POPC   C3B 3048   9.236   9.395   5.304 -0.3179  0.1798  0.0260
  228POPC   C4B 3049   9.187   9.777   5.530  0.0169  0.0550 -0.0204
  229POPC   NC3 3050   3.033   1.198   3.606 -0.0107 -0.0250 -0.1464
  229POPC   PO4 3051   2.744   0.848   3.706 -0.0220 -0.1345 -0.3629
  229POPC   GL1 3052   2.533   1.202   3.840 -0.2136  0.5346  0.0622
  229POPC   GL2 3053   2.274   1.217   3.668 -0.0882 -0.0060 -0.5833
  229POPC   C1A 3054   2.410   1.626   3.973  0.1087 -0.0839  0.1446
  229POPC   D2A 3055   2.721   1.815   4.130 -0.3111  0.1547  0.0160
  229POPC   C3A 3056   2.921   2.208   3.858 -0.0432 -0.1034  0.1127
  229POPC   C4A 3057   3.155   2.564   3.942 -0.2505 -0.1382 -0.0852
  229POPC   C1B 3058   2.203   0.984   4.069  0.0683 -0.1684 -0.0196
  229POPC   C2B 3059   1.856   0.687   4.213 -0.0571  0.2294 -0.2134
  229POPC   C3B 3060   1.809   0.570   4.669 -0.0578  0.2531  0.1757
  229POPC   C4B 3061   2.111   0.409   4.855  0.1062 -0.0457 -0.1819
  230POPC   NC3 3062   2.098   9.520   4.212  0.4456  0.0670 -0.1090
  230POPC   PO4 3063   1.677   9.371   4.342 -0.2135 -0.2538 -0.0400
  230POPC   GL1 3064   1.466   9.196   4.753  0.1124 -0.0499  0.3210
  230POPC   GL2 3065   1.256   9.490   4.878  0.4233 -0.0558  0.0625
  230POPC   C1A 3066   1.420   8.872   5.169  0.5399  0.0085 -0.2465
  230POPC   D2A 3067   1.418   8.825   5.603 -0.2955  0.1596 -0.0391
  230POPC   C3A 3068   1.262   8.368   5.772  0.2353  0.0495 -0.0668
  230POPC   C4A 3069   1.150   8.087   5.575  0.1376  0.0526  0.0844
  230POPC   C1B 3070   1.655   9.633   5.068 -0.0964  0.4958 -0.0762
  230POPC   C2B 3071   1.864   9.625   5.473  0.0392 -0.1425 -0.2075
  230POPC   C3B 3072   1.684   9.277   5.838 -0.0129 -0.1599  0.0771
  230POPC   C4B 3073   1.382   9.203   6.073  0.1122  0.4469  0.0336
  231POPC   NC3 3074   9.519   9.790   3.549  0.0061 -0.0760  0.2264
  231POPC   PO4 3075   9.172   9.573   3.689 -0.3642  0.0500  0.0808
  231POPC   GL1 3076   9.167   9.504   4.052  0.0215  0.3427 -0.0612
  231POPC   GL2 3077   8.985   9.767   4.142  0.3117  0.1110 -0.3790
  231POPC   C1A 3078   9.059   9.486   4.506  0.0805 -0.0287  0.3962
  231POPC   D2A 3079   9.021   9.723   4.898  0.3665  0.1779  0.0296
  231POPC   C3A 3080   9.211  10.160   5.063 -0.4203 -0.1320  0.0328
  231POPC   C4A 3081   9.109  10.540   5.232 -0.3740 -0.1021 -0.1386
  231POPC   C1B 3082   8.572   9.719   4.466  0.2104  0.3627  0.2751
  231POPC   C2B 3083   8.472   9.419   4.788  0.3604 -0.2307 -0.3133
  231POPC   C3B 3084   8.331   9.273   5.232 -0.2530  0.3513 -0.3669
  231POPC   C4B 3085   8.244   9.341   5.717 -0.0735  0.2657  0.2657
  232POPC   NC3 3086   0.291   1.333   3.422 -0.2123  0.1788  0.0299
  232POPC   PO4 3087   0.102   1.138   3.675  0.1979  0.2130  0.0601
  232POPC   GL1 3088   0.142   0.807   4.007 -0.1724 -0.1924  0.0379
  232POPC   GL2 3089   0.040   0.932   4.279  0.3815 -0.1378 -0.1119
  232POPC   C1A 3090   0.091   0.418   4.156 -0.2453  0.0595  0.1380
  232POPC   D2A 3091  -0.128   0.249   4.477  0.0298 -0.0167 -0.0843
  232POPC   C3A 3092  -0.272   0.384   4.943 -0.2657 -0.0578 -0.1370
  232POPC   C4A 3093  -0.288   0.479   5.317 -0.1532  0.0053  0.2797
  232POPC   C1B 3094  -0.090   1.173   4.649 -0.2305 -0.1610 -0.1748
  232POPC   C2B 3095  -0.387   1.369   4.889  0.0662 -0.4393 -0.1127
  232POPC   C3B 3096  -0.565   1.423   5.242  0.0413  0.2180  0.0587
  232POPC   C4B 3097  -0.662   1.660   5.602 -0.0352 -0.0374  0.0933
  233POPC   NC3 3098   4.485   3.767   3.975  0.0333 -0.0799 -0.1460
  233POPC   PO4 3099   4.454   3.403   4.161  0.0319  0.2030  0.1136
  233POPC   GL1 3100   4.232   3.113   4.371  0.1216 -0.1309  0.0662
  233POPC   GL2 3101   4.031   2.811   4.261 -0.3290 -0.0415  0.1178
  233POPC   C1A 3102   4.023   3.112   4.750  0.2452 -0.2568  0.0771
  233POPC   D2A 3103   3.923   2.921   5.113 -0.1960  0.2949  0.0483
  233POPC   C3A 3104   3.618   3.047   5.422  0.2356  0.5518 -0.1491
  233POPC   C4A 3105   3.517   3.477   5.584  0.4016  0.0890 -0.0546
  233POPC   C1B 3106   4.155   2.614   4.610 -0.1679 -0.1612  0.1900
  233POPC   C2B 3107   3.904   2.458   5.011 -0.0234  0.0181  0.0865
  233POPC   C3B 3108   3.721   2.582   5.479  0.0766 -0.2284 -0.1233
  233POPC   C4B 3109   3.775   2.471   5.859 -0.0118  0.0098 -0.1208
  234POPC   NC3 3110   3.365   5.800   3.324 -0.1996 -0.1918  0.2879
  234POPC   PO4 3111   3.297   5.386   3.515  0.2791 -0.2582 -0.2198
  234POPC   GL1 3112   3.340   5.293   3.973 -0.1268  0.1603  0.2173
  234POPC   GL2 3113   3.440   5.571   4.079 -0.0862 -0.0338 -0.0326
  234POPC   C1A 3114   3.316   5.096   4.300  0.2672 -0.0667 -0.3467
  234POPC   D2A 3115   3.423   4.997   4.746  0.2478 -0.0061 -0.0413
  234POPC   C3A 3116   3.701   4.758   4.857 -0.0130 -0.2395  0.0329
  234POPC   C4A 3117   4.054   4.471   4.693 -0.0791 -0.0334 -0.4621
  234POPC   C1B 3118   3.155   5.599   4.368 -0.2852  0.2364 -0.0563
  234POPC   C2B 3119   3.115   5.418   4.643  0.2520 -0.4497 -0.4492
  234POPC   C3B 3120   2.830   5.181   4.845  0.2533  0.0659 -0.0152
  234POPC   C4B 3121   2.958   4.969   5.293  0.2028  0.2067 -0.0750
  235POPC   NC3 3122  10.107   4.530   3.722  0.1137  0.3870 -0.3105
  235POPC   PO4 3123   9.855   4.894   3.600  0.1268  0.0397 -0.0663
  235POPC   GL1 3124  10.118   4.935   4.036 -0.1124  0.0794  0.0991
  235POPC   GL2 3125   9.905   5.114   4.214 -0.2060  0.0086 -0.1524
  235POPC   C1A 3126  10.171   4.829   4.507 -0.0572  0.0934  0.0920
  235POPC   D2A 3127  10.101   5.109   4.812 -0.0797 -0.0519  0.0193
  235POPC   C3A 3128   9.791   4.806   4.872 -0.0444 -0.0826 -0.0225
  235POPC   C4A 3129   9.432   4.719   4.836 -0.0676 -0.0547 -0.0655
  235POPC   C1B 3130   9.657   4.656   4.327 -0.1076 -0.1507  0.2968
  235POPC   C2B 3131   9.634   4.340   4.588  0.2530 -0.0468 -0.2402
  235POPC   C3B 3132   9.652   3.908   4.836 -0.0361  0.4217 -0.1393
  235POPC   C4B 3133   9.619   3.505   5.101 -0.1320 -0.1892 -0.0560
  236POPC   NC3 3134   4.942   0.145   3.887  0.3436  0.0050  0.0462
  236POPC   PO4 3135   5.165  -0.347   3.821  0.0990  0.2026  0.3064
  236POPC   GL1 3136   5.229  -0.333   4.229  0.0634 -0.0297 -0.0692
  236POPC   GL2 3137   4.960  -0.202   4.300 -0.0328  0.0925 -0.3949
  236POPC   C1A 3138   5.271  -0.365   4.701 -0.0159 -0.1283  0.1747
  236POPC   D2A 3139   5.180  -0.178   5.143  0.1111  0.0324  0.0952
  236POPC   C3A 3140   5.010  -0.518   5.418 -0.0176 -0.1593 -0.1208
  236POPC   C4A 3141   5.039  -0.813   5.704 -0.1760 -0.1816  0.0144
  236POPC   C1B 3142   4.887  -0.085   4.645 -0.3497  0.1265 -0.1162
  236POPC   C2B 3143   4.979   0.231   5.014  0.2020 -0.1616 -0.1031
  236POPC   C3B 3144   5.099   0.247   5.445 -0.1163 -0.2172  0.1739
  236POPC   C4B 3145   5.295   0.433   5.800  0.2185  0.5253  0.1557
  237POPC   NC3 3146   2.303   4.568   3.343 -0.0463 -0.0374 -0.2779
  237POPC   PO4 3147   2.043   4.165   3.400  0.2431 -0.2784 -0.1910
  237POPC   GL1 3148   1.976   3.972   3.851 -0.2107  0.0822  0.0792
  237POPC   GL2 3149   1.684   4.113   4.062  0.5915 -0.1449 -0.0473
  237POPC   C1A 3150   2.024   3.731   4.205  0.0976  0.1139  0.0995
  237POPC   D2A 3151   2.009   3.317   4.314  0.2711 -0.1928  0.0052
  237POPC   C3A 3152   1.685   2.989   4.268 -0.0491 -0.2170 -0.1563
  237POPC   C4A 3153   1.665   2.482   4.376 -0.1085  0.1660 -0.2070
  237POPC   C1B 3154   1.742   4.001   4.438  0.0286 -0.1545  0.2051
  237POPC   C2B 3155   1.953   3.960   4.843  0.1275  0.2465 -0.1142
  237POPC   C3B 3156   1.998   3.956   5.263  0.0681  0.3504 -0.0604
  237POPC   C4B 3157   1.798   3.998   5.697 -0.7659 -0.1456 -0.3193
  238POPC   NC3 3158   7.506   5.839   3.818  0.0637  0.2026  0.0573
  238POPC   PO4 3159   7.790   5.772   3.390 -0.2127  0.2769 -0.4267
  238POPC   GL1 3160   8.031   5.697   3.665  0.3994 -0.0205  0.0556
  238POPC   GL2 3161   8.145   5.992   3.773  0.0971 -0.1536  0.0468
  238POPC   C1A 3162   8.184   5.584   4.036 -0.3163  0.0850  0.0685
  238POPC   D2A 3163   8.119   5.338   4.353 -0.1819 -0.4027  0.0940
  238POPC   C3A 3164   7.665   5.342   4.524 -0.2010 -0.2481  0.0682
  238POPC   C4A 3165   7.452   5.123   4.831 -0.0080 -0.0712  0.1275
  238POPC   C1B 3166   7.952   6.022   4.201  0.0468  0.0643 -0.1905
  238POPC   C2B 3167   7.920   5.773   4.616  0.2402  0.1778  0.1510
  238POPC   C3B 3168   7.765   5.752   5.049  0.1077 -0.1191 -0.0733
  238POPC   C4B 3169   7.744   5.941   5.495 -0.0505 -0.4135  0.4389
  239POPC   NC3 3170   3.140   0.244   4.168  0.0229 -0.0093 -0.0145
  239POPC   PO4 3171   3.274  -0.195   4.024 -0.0502 -0.2629 -0.3287
  239POPC   GL1 3172   3.450  -0.148   4.415  0.1371  0.0852  0.1668
  239POPC   GL2 3173   3.521   0.176   4.661  0.0467  0.1608  0.1436
  239POPC   C1A 3174   3.334  -0.302   4.796 -0.0151 -0.1100 -0.0352
  239POPC   D2A 3175   3.227  -0.437   5.160 -0.2278  0.0941 -0.2833
  239POPC   C3A 3176   3.327  -0.217   5.561 -0.3892 -0.0904  0.1332
  239POPC   C4A 3177   3.547  -0.431   5.925 -0.0168 -0.3390  0.0183
  239POPC   C1B 3178   3.671   0.022   5.056  0.1836 -0.0828  0.1120
  239POPC   C2B 3179   3.797  -0.183   5.443  0.0448  0.0929 -0.0525
  239POPC   C3B 3180   4.047  -0.245   5.810  0.0402 -0.0492 -0.0558
  239POPC   C4B 3181   4.338  -0.520   6.095 -0.0164  0.3705 -0.1452
  240POPC   NC3 3182   1.962   7.724   3.835 -0.0230  0.0639  0.4562
  240POPC   PO4 3183   1.656   7.291   3.711  0.3093  0.1891 -0.1193
  240POPC   GL1 3184   1.619   7.033   4.026  0.0182  0.4395 -0.0226
  240POPC   GL2 3185   1.772   6.817   4.156 -0.3116  0.0708 -0.0962
  240POPC   C1A 3186   1.599   7.110   4.480 -0.0063  0.0309  0.0094
  240POPC   D2A 3187   1.334   7.043   4.840 -0.1980  0.0369  0.1082
  240POPC   C3A 3188   1.396   7.219   5.154 -0.0224  0.3047  0.1333
  240POPC   C4A 3189   1.540   7.414   5.506  0.2177  0.3516 -0.2106
  240POPC   C1B 3190   2.091   7.058   4.428  0.0337 -0.1621 -0.0060
  240POPC   C2B 3191   2.448   6.932   4.413 -0.2753  0.0336  0.0484
  240POPC   C3B 3192   2.578   6.606   4.575 -0.2017 -0.0055 -0.0983
  240POPC   C4B 3193   2.774   6.274   4.661  0.0990  0.2645  0.2156
  241POPC   NC3 3194   0.568   9.285   3.746 -0.0405  0.0126  0.0458
  241POPC   PO4 3195   0.906   9.113   4.012 -0.2136  0.3824 -0.2333
  241POPC   GL1 3196   0.986   9.151   4.471 -0.0275 -0.1292 -0.2027
  241POPC   GL2 3197   1.214   8.925   4.440 -0.1106  0.0775 -0.2600
  241POPC   C1A 3198   0.982   9.075   4.915  0.0651 -0.0170  0.1975
  241POPC   D2A 3199   0.807   9.169   5.287 -0.2040 -0.1492 -0.0844
  241POPC   C3A 3200   0.729   9.559   5.043 -0.0599  0.0481 -0.0214
  241POPC   C4A 3201   0.707   9.579   4.655  0.1739  0.1491 -0.2350
  241POPC   C1B 3202   1.122   8.602   4.875  0.0157 -0.1101  0.1124
  241POPC   C2B 3203   0.976   8.544   5.339 -0.1939 -0.2788  0.5207
  241POPC   C3B 3204   0.791   8.615   5.724  0.0937  0.1959 -0.4301
  241POPC   C4B 3205   0.409   8.787   5.896 -0.0953  0.0573 -0.2744
  242POPC   NC3 3206   6.799   6.315   3.570 -0.3866 -0.3637 -0.0850
  242POPC   PO4 3207   7.104   6.128   3.730  0.1758  0.2397  0.1681
  242POPC   GL1 3208   7.168   6.348   4.177 -0.2015  0.0196  0.0090
  242POPC   GL2 3209   6.887   6.476   4.270  0.3108  0.1226  0.1810
  242POPC   C1A 3210   7.328   6.562   4.603 -0.1259  0.0461 -0.1247
  242POPC   D2A 3211   7.287   6.645   5.075  0.2002 -0.0355 -0.0371
  242POPC   C3A 3212   7.276   7.066   5.088  0.0663  0.1041  0.0386
  242POPC   C4A 3213   7.317   7.503   5.193  0.1657  0.1852 -0.0119
  242POPC   C1B 3214   6.758   6.612   4.683 -0.0039  0.0934  0.2322
  242POPC   C2B 3215   6.583   6.964   4.832  0.0220 -0.5426  0.0469
  242POPC   C3B 3216   6.272   6.991   5.090 -0.0161 -0.1638 -0.3246
  242POPC   C4B 3217   5.996   7.130   5.311  0.1594  0.1314 -0.0006
  243POPC   NC3 3218   4.317  10.074   3.980  0.0592  0.3060  0.3363
  243POPC   PO4 3219   4.552  10.451   3.856 -0.2206  0.0608  0.3529
  243POPC   GL1 3220   4.412  10.576   4.354 -0.0023 -0.1147 -0.0076
  243POPC   GL2 3221   4.412  10.253   4.541 -0.2635 -0.1296  0.0927
  243POPC   C1A 3222   4.429  10.712   4.788 -0.2238  0.0077  0.0127
  243POPC   D2A 3223   4.410  10.803   5.262 -0.2835 -0.1436  0.0341
  243POPC   C3A 3224   4.662  11.015   5.466  0.3138 -0.1901 -0.0877
  243POPC   C4A 3225   4.761  11.027   5.887 -0.1314 -0.0047 -0.0744
  243POPC   C1B 3226   4.252   9.995   4.890  0.3354 -0.0648  0.2472
  243POPC   C2B 3227   4.525   9.664   5.169  0.1447 -0.0793  0.1693
  243POPC   C3B 3228   4.826   9.515   5.178  0.0715  0.2755  0.0890
  243POPC   C4B 3229   5.094   9.208   5.175 -0.2393  0.3350  0.2133
  244POPC   NC3 3230   4.060   6.132   3.805 -0.1168  0.1409  0.0934
  244POPC   PO4 3231   3.801   6.098   3.385 -0.0275  0.1524 -0.1321
  244POPC   GL1 3232   3.640   5.942   3.818 -0.1749  0.0287 -0.3813
  244POPC   GL2 3233   3.289   5.914   3.763  0.0111 -0.0118 -0.2785
  244POPC   C1A 3234   3.594   6.020   4.302  0.2285 -0.2073 -0.0454
  244POPC   D2A 3235   3.809   5.967   4.671 -0.2278 -0.0664 -0.1608
  244POPC   C3A 3236   3.567   5.772   5.034  0.1337  0.0973 -0.1103
  244POPC   C4A 3237   3.264   5.379   5.147  0.1571 -0.3639  0.1747
  244POPC   C1B 3238   2.838   5.702   3.940  0.2273 -0.0538 -0.2135
  244POPC   C2B 3239   2.687   5.795   4.334  0.0224  0.3416  0.0073
  244POPC   C3B 3240   2.353   6.061   4.415 -0.2739  0.2406  0.0403
  244POPC   C4B 3241   2.060   6.036   4.126  0.1474  0.1832 -0.0020
  245POPC   NC3 3242   5.788   2.730   3.996  0.0977 -0.1636  0.2506
  245POPC   PO4 3243   6.111   2.812   3.733 -0.0448  0.0193  0.1025
  245POPC   GL1 3244   5.987   3.249   4.086  0.1878  0.0013  0.5416
  245POPC   GL2 3245   6.228   3.511   4.173 -0.0008  0.0352 -0.1151
  245POPC   C1A 3246   5.736   3.308   4.528 -0.0510  0.1288  0.1696
  245POPC   D2A 3247   5.684   3.068   4.826  0.3581  0.0655  0.2698
  245POPC   C3A 3248   5.304   2.990   4.739  0.0351  0.2898 -0.0658
  245POPC   C4A 3249   5.001   2.858   4.899 -0.1426  0.1566  0.2065
  245POPC   C1B 3250   6.013   3.799   4.450 -0.4175 -0.1277 -0.2050
  245POPC   C2B 3251   5.771   3.676   4.837  0.0423 -0.0911 -0.1106
  245POPC   C3B 3252   5.527   3.338   5.146  0.1034  0.1666 -0.3170
  245POPC   C4B 3253   5.037   3.277   5.279 -0.0863 -0.0724  0.2401
  246POPC   NC3 3254   6.721   8.774   3.762  0.0329 -0.1755 -0.2182
  246POPC   PO4 3255   6.444   9.019   3.808 -0.1193 -0.0759 -0.1823
  246POPC   GL1 3256   6.574   9.121   4.165  0.0538 -0.2992 -0.3094
  246POPC   GL2 3257   6.299   9.161   4.389 -0.1870 -0.1234  0.0534
  246POPC   C1A 3258   6.833   9.011   4.625  0.0623  0.1681  0.1568
  246POPC   D2A 3259   6.637   8.764   4.979  0.1576 -0.1810  0.0252
  246POPC   C3A 3260   6.364   8.468   4.851 -0.1075  0.0701 -0.1224
  246POPC   C4A 3261   5.997   8.288   4.750  0.1455  0.0897  0.2735
  246POPC   C1B 3262   6.351   9.350   4.778  0.0392  0.1399 -0.0000
  246POPC   C2B 3263   6.189   9.479   5.075  0.4681 -0.3068  0.1320
  246POPC   C3B 3264   5.957   9.760   5.453  0.1164  0.0337  0.0050
  246POPC   C4B 3265   5.734   9.883   5.818 -0.4270 -0.0914  0.0063
  247POPC   NC3 3266   3.493   6.921   3.275 -0.0047  0.2161 -0.3329
  247POPC   PO4 3267   3.535   6.948   3.634  0.0339 -0.0615  0.0275
  247POPC   GL1 3268   3.528   6.846   4.054  0.0394  0.0670 -0.0906
  247POPC   GL2 3269   3.727   6.599   4.216 -0.0594 -0.0409 -0.1455
  247POPC   C1A 3270   3.243   6.611   4.425  0.0510 -0.2080  0.0162
  247POPC   D2A 3271   3.028   6.710   4.807 -0.0086  0.0520 -0.1154
  247POPC   C3A 3272   2.765   6.563   5.084 -0.0830  0.1173 -0.2522
  247POPC   C4A 3273   2.479   6.506   5.431  0.0257 -0.1067 -0.2510
  247POPC   C1B 3274   3.960   6.395   4.503 -0.1704 -0.1118 -0.0989
  247POPC   C2B 3275   4.167   6.228   4.868 -0.0192  0.2582  0.0092
  247POPC   C3B 3276   4.073   6.079   5.269  0.2493 -0.0623  0.2338
  247POPC   C4B 3277   3.938   6.074   5.671  0.0783  0.2620 -0.0602
  248POPC   NC3 3278   5.551  10.295   3.535 -0.0581 -0.1837  0.3024
  248POPC   PO4 3279   5.856  10.059   3.494  0.1572  0.2141 -0.0298
  248POPC   GL1 3280   6.002  10.281   3.837 -0.0870 -0.0560 -0.2222
  248POPC   GL2 3281   5.745  10.336   3.961  0.2831 -0.0896 -0.0493
  248POPC   C1A 3282   6.292   9.991   4.100 -0.2010  0.3533  0.0595
  248POPC   D2A 3283   6.343   9.763   4.437  0.0125  0.0463 -0.2208
  248POPC   C3A 3284   5.935   9.587   4.629  0.2488 -0.3151 -0.2996
  248POPC   C4A 3285   5.711   9.678   4.998 -0.1228 -0.0088 -0.1619
  248POPC   C1B 3286   5.722  10.541   4.417  0.3132 -0.2396 -0.0482
  248POPC   C2B 3287   5.512  10.734   4.798 -0.1561  0.5382 -0.1249
  248POPC   C3B 3288   5.504  10.954   5.057 -0.2970  0.2275  0.0184
  248POPC   C4B 3289   5.484  11.333   5.309 -0.0369 -0.1454  0.1677
  249POPC   NC3 3290   0.191   2.982   3.282 -0.0699 -0.3015  0.1576
  249POPC   PO4 3291  -0.161   2.844   3.326  0.0418 -0.5374  0.0382
  249POPC   GL1 3292   0.043   2.662   3.741  0.0808 -0.1404 -0.4282
  249POPC   GL2 3293   0.191   2.954   3.910  0.0752 -0.1728 -0.1171
  249POPC   C1A 3294   0.009   2.385   4.154 -0.1293 -0.0908  0.2327
  249POPC   D2A 3295   0.276   2.119   4.439  0.2510 -0.0988 -0.0255
  249POPC   C3A 3296   0.008   1.712   4.567  0.0064 -0.0608  0.0664
  249POPC   C4A 3297  -0.361   1.550   4.396  0.0566 -0.2040  0.1725
  249POPC   C1B 3298  -0.033   2.954   4.355 -0.0190 -0.1223  0.0975
  249POPC   C2B 3299   0.103   2.666   4.624 -0.0995 -0.0190  0.0208
  249POPC   C3B 3300  -0.030   2.400   4.828 -0.2308 -0.0690  0.1670
  249POPC   C4B 3301   0.109   2.002   4.986 -0.1441  0.1392  0.0739
  250POPC   NC3 3302   9.650   8.396   3.498  0.2640 -0.0415  0.0274
  250POPC   PO4 3303   9.392   8.060   3.682 -0.2078  0.1770 -0.0955
  250POPC   GL1 3304   9.625   8.250   4.168 -0.1672 -0.1205 -0.0478
  250POPC   GL2 3305   9.487   8.081   4.386  0.0300 -0.0732 -0.1270
  250POPC   C1A 3306   9.690   8.440   4.586 -0.1492 -0.2030  0.2353
  250POPC   D2A 3307   9.859   8.657   4.914  0.0182  0.0706  0.0782
  250POPC   C3A 3308  10.079   8.553   5.279 -0.4879 -0.0253  0.1473
  250POPC   C4A 3309  10.192   8.371   5.728  0.1251  0.1961  0.2405
  250POPC   C1B 3310   9.296   7.712   4.306 -0.0199  0.0061  0.1934
  250POPC   C2B 3311   8.958   7.421   4.489 -0.2774  0.0250  0.3168
  250POPC   C3B 3312   8.596   7.531   4.837 -0.1834  0.0649  0.0385
  250POPC   C4B 3313   8.618   7.695   5.168 -0.0930 -0.3420 -0.1202
  251POPC   NC3 3314   8.985   7.949   3.094  0.0710 -0.1233  0.1520
  251POPC   PO4 3315   8.941   8.207   3.471  0.2375 -0.2547  0.4927
  251POPC   GL1 3316   8.847   7.991   3.877 -0.1231 -0.4132  0.0481
  251POPC   GL2 3317   9.050   8.171   4.048  0.1561  0.2757  0.2090
  251POPC   C1A 3318   8.721   7.729   4.184 -0.1605 -0.3413 -0.5024
  251POPC   D2A 3319   8.495   7.283   4.235  0.3914 -0.3291 -0.0221
  251POPC   C3A 3320   8.644   6.964   4.562 -0.0004  0.2889 -0.2690
  251POPC   C4A 3321   8.512   7.037   4.982  0.1383 -0.0921 -0.0010
  251POPC   C1B 3322   8.978   8.104   4.433  0.0296  0.0907 -0.0162
  251POPC   C2B 3323   9.056   7.809   4.769  0.2939  0.1312  0.1837
  251POPC   C3B 3324   9.079   7.481   5.011  0.0727  0.0868  0.4917
  251POPC   C4B 3325   9.068   6.976   5.090  0.1492  0.2385  0.1899
  252POPC   NC3 3326   1.416   0.533   3.498  0.0856 -0.2048  0.1499
  252POPC   PO4 3327   1.045   0.297   3.512 -0.1694  0.0937 -0.3107
  252POPC   GL1 3328   0.781   0.440   3.844 -0.0470 -0.1755  0.0925
  252POPC   GL2 3329   0.819   0.822   3.854  0.0587  0.1850 -0.2522
  252POPC   C1A 3330   0.627   0.234   4.257  0.1672 -0.0804  0.2373
  252POPC   D2A 3331   0.325   0.197   4.597  0.0653 -0.2317  0.2874
  252POPC   C3A 3332   0.474  -0.005   4.920 -0.1608  0.0068  0.1182
  252POPC   C4A 3333   0.844  -0.175   4.933  0.0060  0.2260  0.1461
  252POPC   C1B 3334   0.615   0.739   4.385  0.1273 -0.0259  0.2799
  252POPC   C2B 3335   0.254   0.702   4.671  0.1135 -0.0040 -0.0396
  252POPC   C3B 3336   0.196   0.358   5.063 -0.1199 -0.1465 -0.1913
  252POPC   C4B 3337   0.162   0.295   5.424 -0.2120 -0.0599 -0.0652
  253POPC   NC3 3338   9.570   4.604   3.275  0.2530 -0.0417 -0.0586
  253POPC   PO4 3339   9.554   4.177   3.491 -0.4144 -0.2478 -0.5991
  253POPC   GL1 3340   9.333   4.124   3.862  0.0559 -0.0142  0.2411
  253POPC   GL2 3341   9.193   3.908   3.874  0.2321 -0.1939 -0.0749
  253POPC   C1A 3342   9.190   4.394   4.235 -0.0238  0.1279 -0.1034
  253POPC   D2A 3343   9.190   4.843   4.299 -0.0609  0.1045 -0.0948
  253POPC   C3A 3344   8.991   5.085   4.587 -0.1984 -0.2023  0.0724
  253POPC   C4A 3345   9.060   5.492   4.812  0.1529  0.0787 -0.0211
  253POPC   C1B 3346   9.280   3.781   4.328 -0.0196 -0.0568  0.1517
  253POPC   C2B 3347   9.229   3.639   4.724 -0.1071  0.2333 -0.0631
  253POPC   C3B 3348   9.147   3.624   5.141  0.1030 -0.1456 -0.1678
  253POPC   C4B 3349   9.052   3.730   5.643  0.5628 -0.0902  0.2686
  254POPC   NC3 3350   8.372   7.249   3.208 -0.5365  0.1218 -0.0370
  254POPC   PO4 3351   8.311   7.320   3.724  0.0104  0.1693 -0.4248
  254POPC   GL1 3352   8.160   7.566   4.025 -0.0495 -0.2812 -0.2030
  254POPC   GL2 3353   8.222   7.853   3.921  0.1377  0.1145 -0.1221
  254POPC   C1A 3354   8.268   7.740   4.387  0.0892  0.1050 -0.2681
  254POPC   D2A 3355   8.129   7.574   4.844  0.1328  0.3227 -0.0584
  254POPC   C3A 3356   7.805   7.302   5.106  0.2048 -0.0832  0.0918
  254POPC   C4A 3357   7.614   7.118   5.379 -0.0603  0.0812 -0.3750
  254POPC   C1B 3358   7.946   8.065   4.166  0.4886  0.1209 -0.0668
  254POPC   C2B 3359   7.763   8.454   4.394  0.1380 -0.3289  0.1740
  254POPC   C3B 3360   7.391   8.728   4.491 -0.1768  0.1921  0.0784
  254POPC   C4B 3361   7.062   8.596   4.621 -0.0085 -0.2059  0.0546
  255POPC   NC3 3362   6.619   5.412   3.420  0.1278 -0.0163 -0.1777
  255POPC   PO4 3363   6.350   5.693   3.662  0.0212 -0.3775  0.2997
  255POPC   GL1 3364   6.073   5.469   4.036  0.0919 -0.3205 -0.0890
  255POPC   GL2 3365   5.659   5.578   4.108 -0.4135 -0.2020 -0.0722
  255POPC   C1A 3366   5.954   5.400   4.525  0.1162  0.0713  0.0854
  255POPC   D2A 3367   5.871   5.586   4.882  0.0247  0.1252  0.1363
  255POPC   C3A 3368   5.491   5.578   5.040 -0.0265  0.1668  0.0565
  255POPC   C4A 3369   5.196   5.742   5.238 -0.2120 -0.1840 -0.1720
  255POPC   C1B 3370   5.900   5.902   4.359  0.1957  0.0918 -0.3059
  255POPC   C2B 3371   6.292   5.722   4.446  0.1960 -0.0139  0.1230
  255POPC   C3B 3372   6.671   5.610   4.542  0.1696 -0.1044 -0.2465
  255POPC   C4B 3373   7.012   5.330   4.576 -0.2412  0.2074  0.1731
  256POPC   NC3 3374   3.742   9.724   3.314 -0.1039  0.0600  0.1450
  256POPC   PO4 3375   3.801   9.603   3.753  0.0704  0.0285  0.0718
  256POPC   GL1 3376   3.876   9.715   4.210  0.1141 -0.1127  0.1698
  256POPC   GL2 3377   4.190   9.619   4.263 -0.1416 -0.3194 -0.2207
  256POPC   C1A 3378   3.596   9.741   4.622  0.2243  0.2597 -0.1659
  256POPC   D2A 3379   3.194   9.537   4.769  0.1417 -0.2992 -0.3188
  256POPC   C3A 3380   2.963   9.886   4.913 -0.1125 -0.0545  0.2066
  256POPC   C4A 3381   2.805   9.949   5.398 -0.0113 -0.1649  0.1903
  256POPC   C1B 3382   4.064   9.601   4.705 -0.3178  0.0460 -0.3119
  256POPC   C2B 3383   3.799   9.683   5.111  0.2667 -0.0497 -0.0823
  256POPC   C3B 3384   3.406   9.558   5.207  0.4722 -0.0831  0.0018
  256POPC   C4B 3385   3.077   9.469   5.548 -0.0298 -0.1911 -0.4804
  257POPC   NC3 3386   4.980   4.329   3.405  0.0067  0.2167  0.1187
  257POPC   PO4 3387   4.779   4.047   3.723  0.3242 -0.3447 -0.0834
  257POPC   GL1 3388   4.986   3.875   4.106  0.1683 -0.2846  0.1052
  257POPC   GL2 3389   4.819   3.729   4.362  0.0493 -0.0125 -0.2313
  257POPC   C1A 3390   5.165   3.980   4.628  0.1510  0.0955 -0.1777
  257POPC   D2A 3391   5.003   4.173   4.994  0.0239  0.0946 -0.1380
  257POPC   C3A 3392   4.864   4.460   5.237  0.3463  0.0197 -0.3029
  257POPC   C4A 3393   5.003   4.796   5.541  0.1819 -0.0390 -0.3115
  257POPC   C1B 3394   4.710   4.079   4.613  0.1066 -0.0180 -0.0063
  257POPC   C2B 3395   4.594   4.334   4.865  0.1647 -0.0417 -0.3292
  257POPC   C3B 3396   4.423   4.609   5.102 -0.0239 -0.0121  0.0782
  257POPC   C4B 3397   4.522   4.832   5.448  0.2384 -0.0939  0.3657
  258POPC   NC3 3398   7.520   8.913   3.836 -0.4358  0.1085 -0.0100
  258POPC   PO4 3399   7.236   8.499   3.796  0.1347 -0.2459  0.3622
  258POPC   GL1 3400   7.195   8.237   4.173  0.1833 -0.0444 -0.2515
  258POPC   GL2 3401   7.013   7.985   4.131  0.0985  0.1052  0.0308
  258POPC   C1A 3402   7.321   8.162   4.558  0.2396  0.0702  0.1097
  258POPC   D2A 3403   7.474   8.279   4.956 -0.1074  0.0137 -0.3268
  258POPC   C3A 3404   7.619   7.982   5.307  0.0815  0.2270  0.0714
  258POPC   C4A 3405   7.706   8.079   5.675  0.2345 -0.0016 -0.1092
  258POPC   C1B 3406   7.477   7.770   4.196  0.2192 -0.1129  0.0239
  258POPC   C2B 3407   7.792   7.385   4.284 -0.0913  0.2294 -0.3386
  258POPC   C3B 3408   8.044   7.122   4.395 -0.2516 -0.1436  0.0577
  258POPC   C4B 3409   8.141   6.906   4.685  0.1934 -0.0553  0.0420
  259POPC   NC3 3410   1.151   1.540   3.414  0.1199 -0.1687  0.1296
  259POPC   PO4 3411   1.028   1.992   3.242 -0.0613 -0.1921 -0.0465
  259POPC   GL1 3412   1.143   1.977   3.708 -0.2059  0.2332 -0.0370
  259POPC   GL2 3413   1.331   2.168   3.921 -0.0668 -0.0902 -0.0674
  259POPC   C1A 3414   1.359   1.645   4.083  0.2451  0.0531 -0.1087
  259POPC   D2A 3415   1.603   1.477   4.403  0.1360  0.5260  0.1258
  259POPC   C3A 3416   1.890   1.839   4.594 -0.3032  0.1692 -0.2153
  259POPC   C4A 3417   2.037   2.194   4.416  0.1954 -0.1014  0.1562
  259POPC   C1B 3418   1.645   2.369   3.854  0.2689 -0.3211 -0.2377
  259POPC   C2B 3419   2.036   2.507   4.003  0.3059  0.0926 -0.1110
  259POPC   C3B 3420   2.272   2.612   4.415  0.1871  0.1780 -0.0764
  259POPC   C4B 3421   2.421   2.466   4.801 -0.1469 -0.1302  0.2606
  260POPC   NC3 3422   9.261   3.571   3.543 -0.0639  0.0215  0.1300
  260POPC   PO4 3423   8.826   3.391   3.625  0.3171  0.0122  0.0795
  260POPC   GL1 3424   9.014   3.465   4.023 -0.1982  0.0044  0.0090
  260POPC   GL2 3425   8.722   3.711   4.028 -0.0753  0.0025 -0.0401
  260POPC   C1A 3426   9.092   3.191   4.320  0.0092  0.1180  0.0841
  260POPC   D2A 3427   9.284   2.863   4.563 -0.1141  0.4451  0.0768
  260POPC   C3A 3428   9.459   3.046   4.957 -0.2623  0.0596 -0.0111
  260POPC   C4A 3429   9.726   2.825   5.341 -0.4027 -0.0794  0.0111
  260POPC   C1B 3430   8.768   3.607   4.515 -0.0568  0.2411 -0.1971
  260POPC   C2B 3431   8.754   3.615   4.874  0.4928 -0.2548 -0.1515
  260POPC   C3B 3432   8.756   3.973   5.288  0.1321  0.0632 -0.0151
  260POPC   C4B 3433   8.868   4.291   5.529 -0.0038 -0.1409  0.3025
  261POPC   NC3 3434   3.017   4.971   3.695 -0.2715  0.0758 -0.0176
  261POPC   PO4 3435   2.751   4.734   3.473  0.2707 -0.2454  0.1978
  261POPC   GL1 3436   2.571   4.607   3.788 -0.3712  0.1112 -0.1567
  261POPC   GL2 3437   2.330   4.350   3.777 -0.3860 -0.0609 -0.1175
  261POPC   C1A 3438   2.556   4.594   4.203 -0.0703 -0.1642 -0.0514
  261POPC   D2A 3439   2.644   4.423   4.623 -0.2098  0.1165 -0.0694
  261POPC   C3A 3440   2.744   4.589   5.031  0.1172 -0.1196 -0.0581
  261POPC   C4A 3441   2.840   4.527   5.494  0.0755 -0.1766  0.3393
  261POPC   C1B 3442   2.321   4.190   4.132 -0.1021  0.2552 -0.0102
  261POPC   C2B 3443   2.386   3.995   4.519  0.1594 -0.0948 -0.1859
  261POPC   C3B 3444   2.440   4.068   4.914  0.2405 -0.1202  0.2260
  261POPC   C4B 3445   2.551   4.092   5.385  0.1649 -0.1230  0.0279
  262POPC   NC3 3446   8.971   4.818   3.793  0.0922 -0.0780 -0.0687
  262POPC   PO4 3447   9.284   5.036   3.479  0.2026  0.1814  0.0765
  262POPC   GL1 3448   9.141   5.400   3.784  0.1958 -0.0760  0.2859
  262POPC   GL2 3449   9.220   5.665   3.722  0.2475 -0.1012  0.1390
  262POPC   C1A 3450   9.024   5.421   4.215  0.0367 -0.0518 -0.1176
  262POPC   D2A 3451   8.772   5.675   4.416  0.1239  0.4539  0.0522
  262POPC   C3A 3452   8.764   5.861   4.787  0.1224  0.0834  0.1585
  262POPC   C4A 3453   8.733   6.157   5.198 -0.0184 -0.0836  0.0252
  262POPC   C1B 3454   9.052   5.871   4.052 -0.0861 -0.0491  0.0478
  262POPC   C2B 3455   9.221   5.987   4.536 -0.0154  0.1785  0.0192
  262POPC   C3B 3456   9.191   5.950   4.996  0.0675  0.1502 -0.1349
  262POPC   C4B 3457   8.943   5.668   5.273 -0.2055  0.2500 -0.1258
  263POPC   NC3 3458   1.471   5.304   3.528  0.2209  0.0190 -0.0790
  263POPC   PO4 3459   1.219   5.638   3.633 -0.3326  0.0269 -0.1106
  263POPC   GL1 3460   1.421   5.565   3.930  0.2736 -0.1680  0.0830
  263POPC   GL2 3461   1.596   5.923   3.915 -0.1662 -0.0888 -0.0382
  263POPC   C1A 3462   1.313   5.397   4.326 -0.0711 -0.0277 -0.2054
  263POPC   D2A 3463   1.357   5.346   4.851 -0.1050  0.0390  0.0679
  263POPC   C3A 3464   1.759   5.276   4.928 -0.0212 -0.0527 -0.1922
  263POPC   C4A 3465   2.133   5.272   4.855 -0.3892 -0.0343 -0.0094
  263POPC   C1B 3466   1.373   5.917   4.320  0.2446 -0.1680  0.1762
  263POPC   C2B 3467   1.138   5.773   4.628 -0.2431 -0.2201 -0.3216
  263POPC   C3B 3468   1.016   5.679   4.860 -0.0878 -0.1962  0.0275
  263POPC   C4B 3469   0.660   5.384   5.096  0.2669 -0.0084  0.1637
  264POPC   NC3 3470   6.612   5.242   2.954  0.4072 -0.0541 -0.0443
  264POPC   PO4 3471   6.444   4.980   3.250 -0.2380 -0.5147 -0.2956
  264POPC   GL1 3472   6.280   5.076   3.846 -0.2364  0.1202  0.0640
  264POPC   GL2 3473   6.003   4.825   3.889  0.3449  0.1594  0.1082
  264POPC   C1A 3474   6.286   5.142   4.280  0.0008 -0.0243 -0.1707
  264POPC   D2A 3475   6.241   5.151   4.775 -0.0267 -0.1844  0.0497
  264POPC   C3A 3476   5.970   5.251   5.228 -0.3016 -0.0333  0.1411
  264POPC   C4A 3477   5.772   5.465   5.617 -0.4087 -0.2321 -0.2484
  264POPC   C1B 3478   6.153   4.606   4.178  0.1913 -0.0679 -0.2262
  264POPC   C2B 3479   6.101   4.662   4.632 -0.0808  0.0033  0.0993
  264POPC   C3B 3480   6.309   4.591   5.014 -0.1931  0.2132 -0.0637
  264POPC   C4B 3481   6.217   4.736   5.465  0.3280 -0.1287 -0.5468
  265POPC   NC3 3482   5.793   1.534   3.402 -0.3239  0.3095 -0.0164
  265POPC   PO4 3483   5.548   1.352   3.218  0.0342 -0.2531 -0.0455
  265POPC   GL1 3484   5.522   1.203   3.731 -0.0103  0.2539 -0.2020
  265POPC   GL2 3485   5.228   0.983   3.868  0.1074  0.6506 -0.1647
  265POPC   C1A 3486   5.604   1.163   4.112  0.2170 -0.2088 -0.1617
  265POPC   D2A 3487   5.801   1.231   4.394 -0.1451  0.1139 -0.4654
  265POPC   C3A 3488   6.093   0.913   4.466  0.2205  0.2197 -0.2552
  265POPC   C4A 3489   6.349   0.930   4.726 -0.1336 -0.2215  0.0802
  265POPC   C1B 3490   5.373   0.680   4.153 -0.1479  0.1407  0.3731
  265POPC   C2B 3491   5.623   0.532   4.510  0.1142  0.0224 -0.1108
  265POPC   C3B 3492   5.957   0.551   4.883  0.0830 -0.3256  0.3294
  265POPC   C4B 3493   6.160   0.340   5.232  0.2922 -0.2417 -0.0869
  266POPC   NC3 3494   9.241   1.290   3.730 -0.0864  0.2287  0.0891
  266POPC   PO4 3495   9.131   1.685   3.779 -0.1031 -0.1708 -0.1545
  266POPC   GL1 3496   9.079   1.706   4.232  0.0510 -0.0694  0.2905
  266POPC   GL2 3497   8.891   1.880   4.271  0.3290  0.0809  0.2563
  266POPC   C1A 3498   8.971   1.468   4.608 -0.0625 -0.2668 -0.0883
  266POPC   D2A 3499   8.818   1.459   5.007  0.0728 -0.0401 -0.2547
  266POPC   C3A 3500   8.974   1.729   5.369  0.1584  0.0530  0.2487
  266POPC   C4A 3501   8.674   1.941   5.701 -0.2565 -0.2759  0.0539
  266POPC   C1B 3502   8.815   2.093   4.598  0.0649  0.0548  0.1549
  266POPC   C2B 3503   8.615   2.476   4.858  0.1302  0.1523 -0.0565
  266POPC   C3B 3504   8.549   2.702   5.254 -0.2293  0.2986 -0.0064
  266POPC   C4B 3505   8.422   2.981   5.681 -0.2473  0.1817  0.2913
  267POPC   NC3 3506   3.909   3.771   3.974  0.1412  0.0750 -0.2115
  267POPC   PO4 3507   3.591   3.765   3.714 -0.2721 -0.1196 -0.0105
  267POPC   GL1 3508   3.404   3.929   4.096 -0.0883 -0.0996  0.2840
  267POPC   GL2 3509   3.515   3.851   4.366 -0.1528 -0.1293 -0.1545
  267POPC   C1A 3510   3.110   4.120   4.436 -0.4429 -0.0519  0.2648
  267POPC   D2A 3511   2.997   4.193   4.860 -0.1985 -0.3508 -0.0713
  267POPC   C3A 3512   3.216   4.071   5.197 -0.2132  0.1315  0.0094
  267POPC   C4A 3513   3.317   4.079   5.561  0.2231 -0.4367 -0.1754
  267POPC   C1B 3514   3.325   3.792   4.753 -0.1587  0.1671 -0.1337
  267POPC   C2B 3515   3.236   3.511   5.173  0.1204 -0.0212  0.2010
  267POPC   C3B 3516   3.076   3.243   4.937 -0.1172 -0.4672 -0.0314
  267POPC   C4B 3517   3.139   3.367   4.614  0.0698  0.2320  0.2772
  268POPC   NC3 3518   3.997   9.170   4.056  0.1982  0.2859 -0.0232
  268POPC   PO4 3519   3.833   8.838   4.245 -0.1047 -0.0045 -0.0053
  268POPC   GL1 3520   4.025   8.843   4.563  0.3538  0.1171 -0.1678
  268POPC   GL2 3521   4.120   9.182   4.545 -0.0709  0.0774  0.3417
  268POPC   C1A 3522   4.029   8.807   5.008  0.1164 -0.0295 -0.1807
  268POPC   D2A 3523   4.249   8.705   5.224  0.0487 -0.0965  0.0630
  268POPC   C3A 3524   4.531   8.434   5.474  0.2305  0.0447 -0.0108
  268POPC   C4A 3525   4.456   8.223   5.937  0.2312  0.2366  0.0592
  268POPC   C1B 3526   4.368   9.216   4.904  0.3338 -0.1346 -0.2642
  268POPC   C2B 3527   4.351   9.248   5.406 -0.0582 -0.2495 -0.0936
  268POPC   C3B 3528   4.127   9.462   5.556  0.0062 -0.0826 -0.1238
  268POPC   C4B 3529   3.979   9.850   5.826 -0.2362 -0.1703 -0.1677
  269POPC   NC3 3530   0.989   6.445   3.512 -0.2299  0.0096  0.3541
  269POPC   PO4 3531   0.679   6.345   3.895  0.3229 -0.1295 -0.0122
  269POPC   GL1 3532   0.709   6.612   4.316 -0.2335  0.1954  0.2353
  269POPC   GL2 3533   0.454   6.835   4.288 -0.3172  0.0662 -0.1347
  269POPC   C1A 3534   0.889   6.775   4.724  0.0397 -0.2286  0.1153
  269POPC   D2A 3535   1.161   6.722   5.126 -0.4234  0.1633  0.0269
  269POPC   C3A 3536   0.838   6.507   5.303  0.1491  0.1505  0.2081
  269POPC   C4A 3537   0.584   6.171   5.594 -0.4217  0.2279 -0.0622
  269POPC   C1B 3538   0.482   7.162   4.604  0.1706  0.2214 -0.2689
  269POPC   C2B 3539   0.397   7.414   4.947 -0.0994 -0.1553  0.2273
  269POPC   C3B 3540   0.067   7.701   5.052 -0.0577  0.0977 -0.0540
  269POPC   C4B 3541  -0.208   7.474   5.396 -0.1218  0.2169 -0.0828
  270POPC   NC3 3542   3.459   8.560   3.870  0.2819  0.1968  0.0054
  270POPC   PO4 3543   2.996   8.555   3.987 -0.0845 -0.1954 -0.3433
  270POPC   GL1 3544   3.057   8.525   4.373  0.0814  0.1185 -0.0352
  270POPC   GL2 3545   3.402   8.591   4.384 -0.2226 -0.0772 -0.1637
  270POPC   C1A 3546   3.093   8.580   4.803 -0.0751 -0.1117 -0.1306
  270POPC   D2A 3547   2.969   8.376   5.214  0.1386 -0.2081  0.0622
  270POPC   C3A 3548   2.668   8.458   5.556  0.0561  0.0303 -0.2501
  270POPC   C4A 3549   2.422   8.774   5.783 -0.0053  0.0888 -0.1062
  270POPC   C1B 3550   3.616   8.448   4.781 -0.0036 -0.0054  0.0262
  270POPC   C2B 3551   3.603   8.515   5.149  0.0457 -0.0247 -0.1737
  270POPC   C3B 3552   3.701   8.678   5.473  0.1293 -0.0413 -0.0623
  270POPC   C4B 3553   3.983   8.918   5.708  0.1194 -0.1052  0.1582
  271POPC   NC3 3554   5.962   0.341   2.874  0.0239  0.2942  0.1289
  271POPC   PO4 3555   5.809   0.504   3.204 -0.1149 -0.1885  0.3587
  271POPC   GL1 3556   5.830   0.440   3.639  0.1386  0.0819 -0.0793
  271POPC   GL2 3557   5.617   0.705   3.737  0.1348 -0.1571 -0.6231
  271POPC   C1A 3558   5.724   0.171   3.967 -0.1234 -0.2240  0.1994
  271POPC   D2A 3559   5.300   0.153   4.247 -0.0260  0.0184  0.3181
  271POPC   C3A 3560   5.105   0.558   4.569 -0.3496  0.3580 -0.0088
  271POPC   C4A 3561   4.953   0.780   4.887 -0.0082 -0.0529  0.0743
  271POPC   C1B 3562   5.919   0.627   4.107 -0.3413 -0.2203  0.0814
  271POPC   C2B 3563   5.997   0.298   4.325 -0.0462 -0.1363 -0.0757
  271POPC   C3B 3564   6.027   0.025   4.798 -0.1179 -0.0111  0.2740
  271POPC   C4B 3565   6.061  -0.179   5.176 -0.2147 -0.0519  0.1157
  272POPC   NC3 3566   6.687   0.598   3.343 -0.1679  0.2142  0.0270
  272POPC   PO4 3567   7.134   0.447   3.304 -0.2839 -0.0309 -0.2807
  272POPC   GL1 3568   7.111   0.625   3.667 -0.0973  0.1499  0.0301
  272POPC   GL2 3569   7.326   0.515   3.876  0.1039 -0.4259 -0.2282
  272POPC   C1A 3570   6.980   0.791   4.076  0.3092 -0.0835  0.1312
  272POPC   D2A 3571   6.941   0.700   4.495  0.0851  0.2675 -0.2141
  272POPC   C3A 3572   7.236   0.521   4.693  0.1486  0.1837  0.1919
  272POPC   C4A 3573   7.488   0.487   4.987  0.5130 -0.1817 -0.0032
  272POPC   C1B 3574   7.582   0.500   4.250  0.0944  0.1783  0.0848
  272POPC   C2B 3575   7.869   0.696   4.546 -0.0721 -0.0431 -0.3387
  272POPC   C3B 3576   8.129   0.870   4.782 -0.1078 -0.1543 -0.4389
  272POPC   C4B 3577   8.502   0.544   4.712 -0.2631 -0.0851 -0.2492
  273POPC   NC3 3578   8.723   0.689   3.220 -0.1080  0.4522 -0.2648
  273POPC   PO4 3579   8.512   1.009   3.542 -0.3230 -0.0468  0.2944
  273POPC   GL1 3580   8.684   1.233   3.817 -0.2208  0.2800 -0.0667
  273POPC   GL2 3581   8.595   1.614   3.962 -0.0434  0.0176 -0.4414
  273POPC   C1A 3582   8.895   1.176   4.250 -0.0022  0.4508 -0.0446
  273POPC   D2A 3583   8.859   0.724   4.469  0.2956  0.1297  0.3362
  273POPC   C3A 3584   9.205   0.397   4.634  0.0930  0.1373  0.4936
  273POPC   C4A 3585   9.200  -0.006   4.785  0.3857  0.3216 -0.0660
  273POPC   C1B 3586   8.506   1.489   4.422  0.2568 -0.0009  0.0669
  273POPC   C2B 3587   8.348   1.425   4.817  0.0478  0.2990 -0.0007
  273POPC   C3B 3588   8.428   1.077   5.180 -0.2035 -0.0975 -0.1865
  273POPC   C4B 3589   8.413   0.741   5.411  0.3891 -0.1536  0.1086
  274POPC   NC3 3590   5.083   4.750   3.722  0.3145  0.0835  0.1412
  274POPC   PO4 3591   5.264   5.200   3.833 -0.1731  0.1532  0.2755
  274POPC   GL1 3592   5.179   5.404   4.186  0.1653 -0.1449 -0.1143
  274POPC   GL2 3593   4.915   5.268   4.245  0.1542 -0.0811  0.1328
  274POPC   C1A 3594   5.450   5.398   4.542  0.0058  0.1521  0.0389
  274POPC   D2A 3595   5.618   5.135   4.845 -0.0285 -0.0630 -0.1284
  274POPC   C3A 3596   5.345   4.842   5.101 -0.1766  0.1348 -0.0459
  274POPC   C4A 3597   5.316   4.498   5.258  0.1897  0.0880  0.1124
  274POPC   C1B 3598   4.596   5.424   4.475 -0.0011  0.0245  0.0240
  274POPC   C2B 3599   4.457   5.356   4.924  0.0172  0.0599 -0.1529
  274POPC   C3B 3600   4.397   5.328   5.308  0.0401 -0.0933  0.2309
  274POPC   C4B 3601   4.183   5.170   5.643 -0.0502  0.0779  0.0468
  275POPC   NC3 3602   4.481   8.381   3.808  0.1347 -0.1367 -0.1442
  275POPC   PO4 3603   4.503   7.922   3.857  0.0273 -0.1993 -0.1981
  275POPC   GL1 3604   4.459   7.933   4.350 -0.0628 -0.0957  0.0429
  275POPC   GL2 3605   4.156   7.961   4.192  0.3614 -0.0736 -0.1377
  275POPC   C1A 3606   4.266   7.864   4.800 -0.4860  0.0093  0.0112
  275POPC   D2A 3607   4.139   8.256   5.122  0.2271 -0.0312 -0.2038
  275POPC   C3A 3608   3.772   8.060   5.267  0.3599  0.0867  0.1353
  275POPC   C4A 3609   3.527   7.763   5.595 -0.3221  0.0215 -0.4825
  275POPC   C1B 3610   4.047   8.252   4.465  0.1550  0.1067 -0.1415
  275POPC   C2B 3611   4.337   8.460   4.740  0.0365  0.1076 -0.0072
  275POPC   C3B 3612   4.696   8.157   4.874  0.0090 -0.0462 -0.0423
  275POPC   C4B 3613   5.095   8.330   4.866  0.2014 -0.3360 -0.0855
  276POPC   NC3 3614   5.611   3.038   3.636  0.0706  0.2229  0.3618
  276POPC   PO4 3615   5.524   3.427   3.710 -0.2137 -0.2278  0.1055
  276POPC   GL1 3616   5.435   3.619   4.181  0.3423 -0.0470  0.3044
  276POPC   GL2 3617   5.550   3.753   4.362 -0.1212 -0.1920  0.1852
  276POPC   C1A 3618   5.339   3.504   4.728 -0.2111  0.0807  0.2945
  276POPC   D2A 3619   5.358   3.825   5.084  0.2815 -0.0154  0.1127
  276POPC   C3A 3620   5.715   4.132   5.145  0.0102 -0.0658 -0.0094
  276POPC   C4A 3621   5.851   4.540   5.131 -0.1394  0.1011 -0.0542
  276POPC   C1B 3622   5.673   4.181   4.626 -0.0868  0.0119  0.0889
  276POPC   C2B 3623   6.088   4.166   4.794  0.0011  0.0175  0.1214
  276POPC   C3B 3624   6.420   3.881   4.980 -0.1122  0.0464 -0.3987
  276POPC   C4B 3625   6.632   3.605   5.371 -0.1021 -0.0131 -0.0878
  277POPC   NC3 3626   8.950   6.625   3.418 -0.2410  0.0292  0.0598
  277POPC   PO4 3627   8.831   7.162   3.426  0.2194 -0.1768 -0.2368
  277POPC   GL1 3628   8.900   6.973   3.841 -0.0410 -0.0210 -0.3146
  277POPC   GL2 3629   9.077   7.101   4.110 -0.0102  0.3329  0.0820
  277POPC   C1A 3630   8.800   6.647   4.200 -0.0969  0.1367  0.0631
  277POPC   D2A 3631   8.808   6.177   4.361  0.0518  0.0638  0.1875
  277POPC   C3A 3632   8.372   5.995   4.553 -0.1251 -0.2214  0.0375
  277POPC   C4A 3633   8.218   6.024   5.031 -0.1777  0.1030  0.2039
  277POPC   C1B 3634   9.188   6.842   4.540 -0.3061 -0.2143  0.0877
  277POPC   C2B 3635   9.061   6.527   4.780  0.2380  0.4336 -0.0594
  277POPC   C3B 3636   9.242   6.509   5.182  0.0194  0.2247 -0.2583
  277POPC   C4B 3637   9.297   6.233   5.451 -0.1030  0.2227  0.2004
  278POPC   NC3 3638   2.264   0.541   3.296  0.3681 -0.2763 -0.1089
  278POPC   PO4 3639   1.909   0.359   3.447  0.2785 -0.0394 -0.2718
  278POPC   GL1 3640   1.656   0.365   3.922 -0.1152 -0.1077  0.1615
  278POPC   GL2 3641   1.667   0.040   4.034 -0.2462  0.0511 -0.3019
  278POPC   C1A 3642   1.316   0.535   4.168  0.0043  0.1637  0.0121
  278POPC   D2A 3643   1.106   0.680   4.594  0.3748  0.1206  0.0001
  278POPC   C3A 3644   0.858   0.955   4.748 -0.1352 -0.1911  0.0359
  278POPC   C4A 3645   0.399   1.248   4.715 -0.3536 -0.2959 -0.2195
  278POPC   C1B 3646   1.529   0.176   4.471  0.0795 -0.0368  0.1470
  278POPC   C2B 3647   1.274   0.264   4.819 -0.1376  0.0150  0.4088
  278POPC   C3B 3648   1.231   0.066   5.129  0.2258  0.1117 -0.0437
  278POPC   C4B 3649   1.186  -0.117   5.479 -0.2480 -0.1687 -0.0505
  279POPC   NC3 3650   1.218   9.621   4.281 -0.0685 -0.2576 -0.0526
  279POPC   PO4 3651   1.239   9.940   4.010 -0.1451 -0.1110  0.1793
  279POPC   GL1 3652   1.617  10.019   4.276  0.1082  0.0562  0.2937
  279POPC   GL2 3653   1.655   9.839   4.523 -0.1161 -0.2627  0.1891
  279POPC   C1A 3654   1.809  10.396   4.499  0.3588 -0.0456  0.0992
  279POPC   D2A 3655   2.172  10.516   4.774 -0.0636 -0.1679  0.2562
  279POPC   C3A 3656   2.086  10.650   5.207  0.1149  0.1008 -0.0234
  279POPC   C4A 3657   1.764  10.499   5.374 -0.0823  0.2329 -0.0740
  279POPC   C1B 3658   1.981  10.058   4.770 -0.6400  0.1687 -0.2424
  279POPC   C2B 3659   1.931  10.031   5.222  0.0579  0.0904 -0.0456
  279POPC   C3B 3660   1.923  10.125   5.671 -0.1824 -0.1631 -0.0440
  279POPC   C4B 3661   1.867   9.782   6.039  0.2451  0.1469 -0.0565
  280POPC   NC3 3662   6.871   9.249   3.711 -0.0805  0.0266 -0.2089
  280POPC   PO4 3663   7.304   9.386   3.727  0.4007  0.2709  0.0103
  280POPC   GL1 3664   7.181   9.644   4.041 -0.4117 -0.1234  0.3389
  280POPC   GL2 3665   6.899   9.519   4.164 -0.2877  0.4075 -0.1163
  280POPC   C1A 3666   7.234   9.854   4.431  0.3351 -0.4588  0.0071
  280POPC   D2A 3667   7.404  10.010   4.871  0.0884 -0.0857  0.0925
  280POPC   C3A 3668   7.781   9.999   5.047  0.0971  0.2552 -0.0806
  280POPC   C4A 3669   8.077   9.741   5.385 -0.4233  0.3237  0.3349
  280POPC   C1B 3670   6.789   9.556   4.591 -0.0120 -0.0146  0.1247
  280POPC   C2B 3671   6.785   9.328   4.992 -0.2631 -0.0345 -0.0946
  280POPC   C3B 3672   6.905   8.988   5.289  0.3554  0.0067  0.3915
  280POPC   C4B 3673   7.066   8.484   5.187 -0.3798  0.0102  0.1432
  281POPC   NC3 3674   9.309   7.124   3.679 -0.3279 -0.0974  0.0408
  281POPC   PO4 3675   9.722   6.917   3.525  0.0634 -0.2095  0.6199
  281POPC   GL1 3676   9.770   7.049   3.965 -0.1032 -0.1512 -0.2517
  281POPC   GL2 3677   9.808   6.747   4.029  0.1382  0.1504  0.0675
  281POPC   C1A 3678   9.543   7.281   4.273  0.0905 -0.0858  0.0696
  281POPC   D2A 3679   9.415   7.349   4.667  0.2538  0.0765 -0.0926
  281POPC   C3A 3680   9.583   7.234   5.094  0.0607 -0.1820 -0.1864
  281POPC   C4A 3681   9.631   7.413   5.513 -0.1366 -0.0614  0.0829
  281POPC   C1B 3682   9.682   6.842   4.465 -0.3689  0.2499 -0.0630
  281POPC   C2B 3683   9.677   6.827   4.830  0.2059 -0.2669 -0.0021
  281POPC   C3B 3684   9.787   6.632   5.232  0.0129 -0.3288  0.4061
  281POPC   C4B 3685   9.599   6.607   5.644 -0.1554  0.3233  0.2728
  282POPC   NC3 3686   7.347   1.397   3.247 -0.0744 -0.0594 -0.1747
  282POPC   PO4 3687   7.610   1.346   3.662 -0.2527  0.1010 -0.1731
  282POPC   GL1 3688   7.572   1.138   4.057 -0.0370 -0.0268 -0.0012
  282POPC   GL2 3689   7.849   0.895   4.096  0.1733  0.2916 -0.0422
  282POPC   C1A 3690   7.434   0.934   4.347 -0.0709 -0.0518  0.0207
  282POPC   D2A 3691   7.307   1.044   4.663 -0.1895  0.1510  0.1513
  282POPC   C3A 3692   6.929   0.815   5.049  0.1571  0.0632 -0.4919
  282POPC   C4A 3693   6.624   0.626   5.385  0.3078 -0.1328  0.2810
  282POPC   C1B 3694   7.975   1.183   4.448  0.1606 -0.0464 -0.0770
  282POPC   C2B 3695   7.826   1.211   4.819 -0.0544  0.1830 -0.3414
  282POPC   C3B 3696   7.679   1.407   5.152  0.3223 -0.0284  0.1090
  282POPC   C4B 3697   7.425   1.723   5.328 -0.3606  0.2323 -0.0274
  283POPC   NC3 3698   3.037   6.668   3.691 -0.1246 -0.1129 -0.1883
  283POPC   PO4 3699   2.643   6.838   3.561  0.3465 -0.0739 -0.0566
  283POPC   GL1 3700   2.564   6.663   3.949  0.1339  0.0357 -0.1837
  283POPC   GL2 3701   2.192   6.538   4.048 -0.0552  0.1839  0.2380
  283POPC   C1A 3702   2.736   6.358   4.185 -0.1558  0.1560  0.0845
  283POPC   D2A 3703   3.098   6.033   4.206  0.0318 -0.0241  0.2120
  283POPC   C3A 3704   3.216   5.968   4.647 -0.3598 -0.1503 -0.0215
  283POPC   C4A 3705   2.925   5.878   5.026 -0.1483 -0.0297  0.2142
  283POPC   C1B 3706   2.064   6.578   4.470  0.1641 -0.2513  0.0912
  283POPC   C2B 3707   1.915   6.614   4.798 -0.1536  0.0338 -0.3303
  283POPC   C3B 3708   1.656   6.676   5.228 -0.1270 -0.4640  0.1842
  283POPC   C4B 3709   1.545   6.891   5.659 -0.0201 -0.1322  0.3575
  284POPC   NC3 3710  10.046   1.470   3.464  0.0969 -0.1582 -0.0387
  284POPC   PO4 3711   9.649   1.539   3.638  0.1209  0.0777 -0.0386
  284POPC   GL1 3712   9.617   1.447   4.115  0.1642  0.1335 -0.0095
  284POPC   GL2 3713   9.933   1.264   4.119  0.0940  0.0820  0.1164
  284POPC   C1A 3714   9.389   1.346   4.390 -0.0893 -0.1965  0.0001
  284POPC   D2A 3715   9.201   1.016   4.706  0.1295 -0.0313  0.2299
  284POPC   C3A 3716   9.194   1.071   5.171 -0.0662  0.5807 -0.2804
  284POPC   C4A 3717   9.375   1.396   5.447 -0.2540 -0.2022 -0.1836
  284POPC   C1B 3718   9.973   1.118   4.471  0.0781 -0.0471 -0.1705
  284POPC   C2B 3719   9.653   1.101   4.814  0.1765 -0.1444  0.0086
  284POPC   C3B 3720   9.381   1.483   4.958  0.0683  0.1867  0.4109
  284POPC   C4B 3721   9.155   1.838   4.867  0.0219  0.1841 -0.1250
  285POPC   NC3 3722   9.916   0.359   3.852 -0.2175  0.2342 -0.1132
  285POPC   PO4 3723   9.866   0.076   3.704 -0.1334 -0.1076 -0.2351
  285POPC   GL1 3724   9.966  -0.085   4.080 -0.2554 -0.2348 -0.0556
  285POPC   GL2 3725  10.211  -0.088   4.201 -0.0668  0.1305 -0.2183
  285POPC   C1A 3726   9.962  -0.399   4.410  0.4355  0.1729 -0.1369
  285POPC   D2A 3727  10.041  -0.545   4.870  0.0895 -0.2238 -0.1616
  285POPC   C3A 3728   9.964  -0.531   5.319 -0.2489 -0.2205 -0.2314
  285POPC   C4A 3729   9.802  -0.305   5.682 -0.1303  0.0223 -0.0599
  285POPC   C1B 3730  10.230  -0.056   4.699  0.0393 -0.1996 -0.0442
  285POPC   C2B 3731  10.203  -0.038   5.131  0.0592 -0.0312  0.1299
  285POPC   C3B 3732  10.282  -0.003   5.485  0.1119 -0.0831 -0.1444
  285POPC   C4B 3733  10.345  -0.292   5.833 -0.0094 -0.0152 -0.2947
  286POPC   NC3 3734   4.381   1.036   4.086  0.2413  0.1639 -0.1538
  286POPC   PO4 3735   4.555   1.529   4.147 -0.0250 -0.0953 -0.4747
  286POPC   GL1 3736   4.590   1.331   4.521  0.1460  0.0984 -0.2880
  286POPC   GL2 3737   4.419   1.058   4.593 -0.2446  0.3779 -0.0774
  286POPC   C1A 3738   4.937   1.265   4.788 -0.0961 -0.2151 -0.2303
  286POPC   D2A 3739   5.269   1.180   5.083  0.3174 -0.0292 -0.0123
  286POPC   C3A 3740   5.249   1.465   5.467 -0.0158 -0.6033  0.1391
  286POPC   C4A 3741   5.018   1.499   5.859  0.1138  0.1776  0.1201
  286POPC   C1B 3742   4.266   1.184   5.030 -0.1919 -0.2422 -0.0823
  286POPC   C2B 3743   4.132   1.139   5.473 -0.1018  0.2944  0.0226
  286POPC   C3B 3744   4.137   1.250   5.935 -0.1509 -0.1499 -0.1234
  286POPC   C4B 3745   3.930   1.439   6.239  0.2000  0.1547 -0.3640
  287POPC   NC3 3746   6.917   3.915   4.209 -0.1747 -0.0008  0.1898
  287POPC   PO4 3747   7.172   3.467   4.266  0.0330  0.0826  0.0354
  287POPC   GL1 3748   7.301   3.509   4.607  0.2460  0.0588 -0.0943
  287POPC   GL2 3749   7.119   3.260   4.763  0.1703 -0.4808 -0.2665
  287POPC   C1A 3750   7.401   3.727   5.031 -0.2280  0.0486 -0.3007
  287POPC   D2A 3751   7.772   3.517   5.283 -0.1750  0.0053  0.1262
  287POPC   C3A 3752   8.265   3.461   5.261 -0.1025 -0.1044 -0.3354
  287POPC   C4A 3753   8.731   3.432   5.336 -0.0267 -0.0301 -0.1974
  287POPC   C1B 3754   7.511   3.120   4.976  0.1020  0.0678  0.0297
  287POPC   C2B 3755   7.623   3.008   5.442  0.1019 -0.0886 -0.0162
  287POPC   C3B 3756   7.825   2.896   5.838  0.2251  0.0648 -0.1491
  287POPC   C4B 3757   7.564   2.647   6.135  0.2303  0.2244 -0.1045
  288POPC   NC3 3758   3.354   0.728   3.890  0.1596  0.1028  0.0497
  288POPC   PO4 3759   3.536   1.000   3.584  0.2861 -0.1389 -0.2217
  288POPC   GL1 3760   3.477   1.221   4.006 -0.0903 -0.0970  0.0930
  288POPC   GL2 3761   3.628   1.048   4.339 -0.1238  0.0050  0.0062
  288POPC   C1A 3762   3.384   1.417   4.528  0.0585  0.0252 -0.1371
  288POPC   D2A 3763   3.303   1.448   4.945  0.0467 -0.3527  0.3669
  288POPC   C3A 3764   3.489   1.680   5.281  0.0083 -0.0958  0.0538
  288POPC   C4A 3765   3.790   1.595   5.590  0.1382  0.2754 -0.0392
  288POPC   C1B 3766   3.865   1.157   4.704 -0.1257 -0.0953 -0.1734
  288POPC   C2B 3767   3.770   1.236   5.107 -0.0229 -0.3307 -0.0252
  288POPC   C3B 3768   3.669   1.114   5.393 -0.0174  0.2511 -0.1943
  288POPC   C4B 3769   3.673   0.694   5.609  0.0262 -0.2945 -0.2059
  289POPC   NC3 3770  10.191   3.378   3.454  0.0598 -0.0982  0.2829
  289POPC   PO4 3771  10.583   3.350   3.556  0.2758 -0.0570  0.2045
  289POPC   GL1 3772  10.648   3.463   3.960  0.1569  0.1053 -0.0075
  289POPC   GL2 3773  10.975   3.373   4.231 -0.0599 -0.1710 -0.1042
  289POPC   C1A 3774  10.474   3.501   4.410 -0.0270  0.1496  0.2202
  289POPC   D2A 3775  10.487   3.367   4.842  0.0657 -0.2740  0.0545
  289POPC   C3A 3776  10.560   3.060   5.004  0.0119  0.2924  0.0423
  289POPC   C4A 3777  10.441   2.691   5.166 -0.0286 -0.1622 -0.1421
  289POPC   C1B 3778  10.921   3.258   4.667  0.1524 -0.0793  0.4604
  289POPC   C2B 3779  11.176   3.214   5.100  0.1575 -0.1476 -0.1939
  289POPC   C3B 3780  10.943   3.131   5.557 -0.0647 -0.2154 -0.2868
  289POPC   C4B 3781  10.634   3.174   5.900 -0.2958  0.1848 -0.2100
  290POPC   NC3 3782   7.329   2.531   3.350 -0.1382  0.0115  0.4616
  290POPC   PO4 3783   7.504   2.946   3.485 -0.0003 -0.1269  0.0621
  290POPC   GL1 3784   7.665   2.765   3.902 -0.0359  0.1425 -0.2736
  290POPC   GL2 3785   7.959   2.635   3.942  0.0654  0.0075  0.2485
  290POPC   C1A 3786   7.660   2.683   4.361  0.0240  0.2630 -0.0698
  290POPC   D2A 3787   7.763   2.794   4.715 -0.0575 -0.0121 -0.0798
  290POPC   C3A 3788   8.006   2.395   4.982 -0.0934 -0.7435  0.2480
  290POPC   C4A 3789   8.307   2.230   5.303 -0.1396  0.2494  0.1580
  290POPC   C1B 3790   7.991   3.076   4.278 -0.0714  0.2253 -0.1485
  290POPC   C2B 3791   7.710   3.328   4.531 -0.1645  0.0937  0.0166
  290POPC   C3B 3792   7.834   3.602   4.776  0.3058  0.3360 -0.2085
  290POPC   C4B 3793   8.163   3.857   5.012 -0.1589  0.0084 -0.2373
  291POPC   NC3 3794   5.949   3.653   3.807  0.0227 -0.0828  0.0580
  291POPC   PO4 3795   6.288   3.921   3.841 -0.1447  0.1678 -0.1247
  291POPC   GL1 3796   6.472   4.073   4.234  0.0982 -0.0237 -0.1738
  291POPC   GL2 3797   6.536   3.751   4.445 -0.0067  0.0317 -0.1681
  291POPC   C1A 3798   6.497   4.341   4.507 -0.0229 -0.2548  0.4592
  291POPC   D2A 3799   6.758   4.346   4.811  0.0154  0.4028 -0.2113
  291POPC   C3A 3800   6.687   4.251   5.235 -0.2996 -0.0895 -0.0097
  291POPC   C4A 3801   6.655   4.542   5.620  0.1162 -0.0663 -0.0425
  291POPC   C1B 3802   6.197   3.435   4.715  0.0243 -0.1999  0.2018
  291POPC   C2B 3803   6.163   3.312   5.081  0.0653  0.0673 -0.1847
  291POPC   C3B 3804   6.031   3.605   5.350  0.0178  0.2647 -0.0547
  291POPC   C4B 3805   5.583   3.775   5.519 -0.0943  0.0731 -0.0155
  292POPC   NC3 3806   5.763   7.253   3.517  0.0868  0.0487 -0.0182
  292POPC   PO4 3807   5.570   7.374   3.861 -0.0282  0.0475  0.1838
  292POPC   GL1 3808   5.342   7.572   4.306 -0.0545  0.3142  0.4750
  292POPC   GL2 3809   5.152   7.309   4.430 -0.3581 -0.1485  0.1244
  292POPC   C1A 3810   5.421   7.544   4.831 -0.0626  0.2609 -0.3258
  292POPC   D2A 3811   5.475   7.193   5.269 -0.1279  0.0565 -0.1687
  292POPC   C3A 3812   5.423   7.386   5.683 -0.1887  0.3011  0.0321
  292POPC   C4A 3813   5.535   7.477   6.019  0.0054  0.1562 -0.3281
  292POPC   C1B 3814   5.152   7.185   4.825 -0.0316 -0.2146 -0.2999
  292POPC   C2B 3815   4.929   7.237   5.298  0.0243 -0.0534  0.2410
  292POPC   C3B 3816   4.968   7.183   5.741 -0.1996  0.1234 -0.0546
  292POPC   C4B 3817   4.679   6.802   5.635 -0.1177 -0.3074 -0.2013
  293POPC   NC3 3818   4.637   7.081   3.975 -0.1254  0.0244  0.1064
  293POPC   PO4 3819   4.868   6.687   3.694  0.2616 -0.2678 -0.2895
  293POPC   GL1 3820   4.885   6.648   4.156 -0.1048  0.1491  0.1139
  293POPC   GL2 3821   4.758   6.830   4.419  0.0309 -0.1717 -0.1056
  293POPC   C1A 3822   5.265   6.678   4.423  0.0600 -0.0780 -0.0655
  293POPC   D2A 3823   5.707   6.771   4.477 -0.2674  0.0534  0.2079
  293POPC   C3A 3824   6.026   6.678   4.734  0.3772 -0.1852 -0.0786
  293POPC   C4A 3825   6.265   6.526   4.974 -0.1373  0.0758 -0.1278
  293POPC   C1B 3826   4.692   6.964   4.775 -0.2581 -0.0398  0.1674
  293POPC   C2B 3827   4.972   6.684   5.181 -0.1612  0.1745  0.1646
  293POPC   C3B 3828   5.302   6.786   5.510  0.1713 -0.0918 -0.0312
  293POPC   C4B 3829   5.654   6.904   5.696 -0.0091  0.2910 -0.0121
  294POPC   NC3 3830  10.417   5.315   4.088  0.0314 -0.3586 -0.3203
  294POPC   PO4 3831  10.720   5.011   4.157 -0.1292  0.1214  0.2263
  294POPC   GL1 3832  10.540   4.666   4.288 -0.0701 -0.0419 -0.1311
  294POPC   GL2 3833  10.353   4.501   4.134  0.1763 -0.0951  0.0356
  294POPC   C1A 3834  10.602   4.446   4.574  0.5361  0.1754 -0.2860
  294POPC   D2A 3835  10.735   4.317   4.851  0.2207  0.1063 -0.0442
  294POPC   C3A 3836  10.760   4.567   5.243 -0.0517  0.4851  0.1043
  294POPC   C4A 3837  10.521   4.853   5.449  0.4517 -0.1287  0.2926
  294POPC   C1B 3838  10.173   4.258   4.427  0.3311 -0.1885 -0.0764
  294POPC   C2B 3839  10.112   4.247   4.764  0.0922 -0.1229  0.0015
  294POPC   C3B 3840   9.866   4.321   5.095  0.1022  0.0822 -0.3706
  294POPC   C4B 3841   9.552   4.672   5.321 -0.0629 -0.2613 -0.0380
  295POPC   NC3 3842   5.595   5.487   3.613  0.1673  0.0119 -0.0477
  295POPC   PO4 3843   5.524   6.055   3.586  0.3148  0.2711  0.1376
  295POPC   GL1 3844   5.514   6.071   4.047  0.2551 -0.0565  0.2368
  295POPC   GL2 3845   5.368   6.233   4.210  0.1889 -0.0499  0.0607
  295POPC   C1A 3846   5.437   5.873   4.550 -0.0841  0.0733 -0.0490
  295POPC   D2A 3847   5.059   5.757   4.769  0.1751 -0.0873  0.2485
  295POPC   C3A 3848   4.998   5.425   4.850 -0.0909  0.2735  0.0266
  295POPC   C4A 3849   5.120   5.005   4.675 -0.1601 -0.0019 -0.3183
  295POPC   C1B 3850   5.620   6.304   4.520  0.1212  0.1495  0.1625
  295POPC   C2B 3851   5.726   6.146   4.884 -0.0829 -0.3377  0.0897
  295POPC   C3B 3852   6.225   6.127   5.295  0.2454 -0.0738  0.0750
  295POPC   C4B 3853   6.222   6.277   5.760  0.2739 -0.0142 -0.2963
  296POPC   NC3 3854   7.979  10.623   3.448  0.1484  0.1082  0.2215
  296POPC   PO4 3855   8.328  10.754   3.709  0.0975 -0.1854 -0.2554
  296POPC   GL1 3856   8.280  10.430   4.060 -0.3931 -0.2385 -0.0592
  296POPC   GL2 3857   8.056  10.198   3.988 -0.0186 -0.0294  0.0386
  296POPC   C1A 3858   8.330  10.268   4.468  0.1457 -0.0865  0.1063
  296POPC   D2A 3859   8.334   9.967   4.886 -0.0761 -0.0905  0.1506
  296POPC   C3A 3860   8.028   9.623   4.887  0.1326 -0.1003  0.2944
  296POPC   C4A 3861   7.801   9.334   5.154  0.0620 -0.1123  0.1113
  296POPC   C1B 3862   7.819  10.287   4.372  0.0537  0.1925  0.3284
  296POPC   C2B 3863   7.940  10.413   4.779  0.1469  0.2505 -0.1247
  296POPC   C3B 3864   8.116  10.374   5.282  0.0995 -0.4000 -0.0206
  296POPC   C4B 3865   7.944  10.574   5.723  0.0112  0.2028  0.1992
  297POPC   NC3 3866   0.702   5.997   3.438 -0.2294 -0.2154  0.1066
  297POPC   PO4 3867   0.325   5.902   3.733  0.0020 -0.1627 -0.1823
  297POPC   GL1 3868   0.652   5.893   4.057 -0.0815  0.1835  0.1466
  297POPC   GL2 3869   0.916   5.629   4.110 -0.4875  0.0264  0.0862
  297POPC   C1A 3870   0.783   6.034   4.425  0.0439 -0.1790  0.2819
  297POPC   D2A 3871   0.612   5.949   4.723 -0.1159  0.2455  0.1493
  297POPC   C3A 3872   0.670   5.987   5.157  0.0175  0.0306 -0.0184
  297POPC   C4A 3873   0.834   5.742   5.483  0.2003 -0.2029 -0.0460
  297POPC   C1B 3874   0.695   5.495   4.509  0.1568  0.0202 -0.0781
  297POPC   C2B 3875   0.403   5.210   4.717  0.1262 -0.1191 -0.1628
  297POPC   C3B 3876  -0.007   4.914   4.815  0.0082 -0.1171 -0.0891
  297POPC   C4B 3877  -0.348   4.646   4.973  0.0898 -0.2766 -0.0652
  298POPC   NC3 3878   8.285   0.613   3.593  0.1786 -0.1870  0.1571
  298POPC   PO4 3879   7.939   0.494   3.346 -0.0994  0.1634  0.0550
  298POPC   GL1 3880   7.816   0.443   3.747  0.0087  0.0737  0.3717
  298POPC   GL2 3881   8.113   0.464   4.089  0.3026  0.1945 -0.2990
  298POPC   C1A 3882   7.721   0.046   4.046 -0.1485  0.2473 -0.1121
  298POPC   D2A 3883   7.530   0.065   4.468  0.1012  0.1773 -0.1771
  298POPC   C3A 3884   7.529  -0.011   4.871 -0.0153 -0.1017  0.3561
  298POPC   C4A 3885   7.657  -0.151   5.249 -0.1152  0.3777  0.2284
  298POPC   C1B 3886   8.104   0.208   4.446 -0.2601  0.0622  0.4238
  298POPC   C2B 3887   7.950   0.326   4.826 -0.2904 -0.1675 -0.0683
  298POPC   C3B 3888   7.968   0.640   5.142  0.1392  0.5873  0.1472
  298POPC   C4B 3889   7.886   0.820   5.451  0.1501 -0.2107 -0.1419
  299POPC   NC3 3890   9.594   6.057   3.055  0.1725 -0.0595 -0.1523
  299POPC   PO4 3891   9.819   6.073   3.473  0.0545  0.0268  0.0870
  299POPC   GL1 3892   9.761   6.310   3.839 -0.1191 -0.3186  0.1225
  299POPC   GL2 3893   9.654   6.073   4.058  0.2434  0.0646 -0.3071
  299POPC   C1A 3894   9.933   6.380   4.275 -0.2832  0.0361  0.0305
  299POPC   D2A 3895  10.163   6.727   4.578 -0.0775 -0.2215 -0.0634
  299POPC   C3A 3896  10.270   6.671   4.905  0.1139  0.2187  0.0107
  299POPC   C4A 3897  10.276   6.623   5.291  0.1721 -0.3544 -0.1715
  299POPC   C1B 3898   9.725   5.973   4.472 -0.2529 -0.0141  0.0603
  299POPC   C2B 3899   9.544   5.710   4.764 -0.2037 -0.1284 -0.0453
  299POPC   C3B 3900   9.445   5.543   5.169 -0.0915  0.2064 -0.0883
  299POPC   C4B 3901   9.278   5.087   5.221  0.0522 -0.0710  0.0197
  300POPC   NC3 3902   7.595   4.851   3.257  0.1148  0.1928  0.2375
  300POPC   PO4 3903   7.603   4.914   3.788  0.0355  0.0114  0.2841
  300POPC   GL1 3904   7.677   4.777   4.252 -0.0415  0.0684 -0.3097
  300POPC   GL2 3905   7.616   4.480   4.414 -0.3638 -0.0863 -0.1722
  300POPC   C1A 3906   7.825   4.820   4.808 -0.1017  0.1701  0.0637
  300POPC   D2A 3907   7.815   4.778   5.200 -0.1615 -0.0984 -0.0156
  300POPC   C3A 3908   7.556   4.464   5.276  0.1638  0.2212  0.2244
  300POPC   C4A 3909   7.198   4.230   5.294  0.1588  0.0647 -0.0646
  300POPC   C1B 3910   7.478   4.430   4.786  0.1042 -0.2786 -0.1397
  300POPC   C2B 3911   7.202   4.133   4.808 -0.0526 -0.1984  0.1033
  300POPC   C3B 3912   6.900   3.855   4.939  0.0952  0.2656  0.0231
  300POPC   C4B 3913   6.685   3.441   4.929 -0.0486  0.1905 -0.3211
  301POPC   NC3 3914   3.554   4.174   3.439  0.0914 -0.0312  0.1970
  301POPC   PO4 3915   3.365   4.585   3.507 -0.2531 -0.1053  0.0903
  301POPC   GL1 3916   3.149   4.465   3.804 -0.2312 -0.1777 -0.0180
  301POPC   GL2 3917   3.107   4.599   4.137 -0.2170 -0.2193 -0.0868
  301POPC   C1A 3918   2.843   4.193   3.998 -0.1028  0.0533 -0.0980
  301POPC   D2A 3919   2.640   3.870   3.935  0.0470 -0.2163 -0.0987
  301POPC   C3A 3920   2.509   3.591   4.285  0.3173 -0.0805  0.0127
  301POPC   C4A 3921   2.189   3.555   4.698  0.1231  0.0258 -0.1338
  301POPC   C1B 3922   3.080   4.602   4.582 -0.0298 -0.1102 -0.0984
  301POPC   C2B 3923   3.214   4.560   5.127  0.1001 -0.3509  0.0513
  301POPC   C3B 3924   3.299   4.607   5.481 -0.1953  0.1544  0.1137
  301POPC   C4B 3925   3.245   5.001   5.706  0.0253  0.0160  0.0741
  302POPC   NC3 3926   8.583   5.987   3.045  0.0016 -0.0055  0.2420
  302POPC   PO4 3927   8.839   5.721   3.301 -0.0049  0.0239 -0.0247
  302POPC   GL1 3928   8.684   5.945   3.616  0.2046  0.3259  0.0844
  302POPC   GL2 3929   8.823   6.267   3.788  0.0463  0.0859  0.1320
  302POPC   C1A 3930   8.541   5.926   4.039 -0.4047 -0.4481 -0.0401
  302POPC   D2A 3931   8.358   6.372   4.136  0.1213 -0.2227 -0.2026
  302POPC   C3A 3932   8.415   6.466   4.655  0.0269  0.1041  0.2285
  302POPC   C4A 3933   8.392   6.571   5.015  0.2908  0.0480 -0.2290
  302POPC   C1B 3934   9.233   6.393   4.063 -0.2626  0.2050 -0.4240
  302POPC   C2B 3935   9.467   6.413   4.460 -0.1986  0.4036 -0.1492
  302POPC   C3B 3936   9.538   6.247   4.839 -0.0608 -0.0069 -0.1011
  302POPC   C4B 3937   9.669   5.988   5.303  0.0412  0.1005  0.2215
  303POPC   NC3 3938   3.435   7.497   3.760 -0.1166  0.0133 -0.0130
  303POPC   PO4 3939   3.379   7.929   3.748  0.0946  0.2868 -0.1736
  303POPC   GL1 3940   3.594   7.927   4.127  0.0691 -0.1252  0.1050
  303POPC   GL2 3941   3.642   8.195   4.175 -0.3059  0.1548  0.0097
  303POPC   C1A 3942   3.774   7.820   4.503 -0.1939  0.1397 -0.0536
  303POPC   D2A 3943   3.812   7.785   4.858 -0.1448 -0.1669 -0.0450
  303POPC   C3A 3944   3.724   7.446   5.214  0.2404  0.1492 -0.0407
  303POPC   C4A 3945   3.908   7.399   5.596 -0.3777 -0.1254 -0.0212
  303POPC   C1B 3946   3.311   8.102   4.580  0.2896 -0.1049  0.2331
  303POPC   C2B 3947   3.321   8.130   4.997  0.0795  0.1090 -0.0969
  303POPC   C3B 3948   3.275   8.035   5.307  0.1439 -0.2272 -0.0827
  303POPC   C4B 3949   3.021   8.149   5.658 -0.0677  0.0404 -0.2689
  304POPC   NC3 3950   1.647   8.743   4.273 -0.0405 -0.0166 -0.1479
  304POPC   PO4 3951   1.508   8.321   3.985 -0.2701 -0.2496 -0.5242
  304POPC   GL1 3952   1.663   8.010   4.299  0.1772 -0.0236 -0.1022
  304POPC   GL2 3953   1.796   8.225   4.519  0.1350  0.1586  0.2343
  304POPC   C1A 3954   1.811   7.774   4.713  0.0631  0.0430  0.0468
  304POPC   D2A 3955   1.809   7.322   4.895  0.2750  0.3215  0.0148
  304POPC   C3A 3956   1.895   7.163   5.247  0.0411 -0.3641 -0.1211
  304POPC   C4A 3957   2.087   6.769   5.486 -0.4244 -0.3304 -0.3931
  304POPC   C1B 3958   1.385   7.993   4.808  0.0445  0.2512  0.4425
  304POPC   C2B 3959   1.351   7.722   5.082  0.3206 -0.3134 -0.1233
  304POPC   C3B 3960   1.072   7.533   5.335 -0.0449 -0.1593 -0.1146
  304POPC   C4B 3961   0.887   7.578   5.766 -0.0216 -0.1088 -0.0718
  305POPC   NC3 3962   0.538   2.050   3.028  0.0569  0.2365  0.2159
  305POPC   PO4 3963   0.345   2.274   3.342 -0.0402 -0.1769  0.3359
  305POPC   GL1 3964   0.190   2.084   3.751 -0.2570 -0.0935 -0.0117
  305POPC   GL2 3965   0.064   1.649   3.767 -0.1494 -0.4055 -0.1276
  305POPC   C1A 3966   0.482   1.747   4.111  0.1641  0.0439  0.0870
  305POPC   D2A 3967   0.683   1.735   4.484  0.1188 -0.3223 -0.2205
  305POPC   C3A 3968   0.515   1.827   4.747 -0.1854 -0.3530 -0.2324
  305POPC   C4A 3969   0.556   2.338   4.870  0.2346  0.0823  0.2805
  305POPC   C1B 3970  -0.061   1.862   4.093 -0.1206 -0.2386  0.1790
  305POPC   C2B 3971  -0.301   2.024   4.393 -0.0922 -0.0147  0.1132
  305POPC   C3B 3972  -0.371   1.947   4.828 -0.1927 -0.0832  0.1974
  305POPC   C4B 3973  -0.608   1.861   5.140  0.4233  0.1035  0.1857
  306POPC   NC3 3974   4.362   2.979   3.900  0.1769 -0.1534  0.4483
  306POPC   PO4 3975   4.751   2.913   3.985  0.0776  0.0031  0.0377
  306POPC   GL1 3976   4.885   3.028   4.396 -0.2936  0.1137 -0.0233
  306POPC   GL2 3977   4.652   2.726   4.471 -0.1903 -0.0028 -0.1188
  306POPC   C1A 3978   4.798   3.339   4.814  0.2679  0.2145 -0.1779
  306POPC   D2A 3979   4.880   3.640   4.904 -0.2814  0.0236 -0.0385
  306POPC   C3A 3980   4.531   3.867   5.097 -0.0580 -0.2504  0.1510
  306POPC   C4A 3981   4.224   4.201   5.289 -0.1495 -0.2736  0.1124
  306POPC   C1B 3982   4.451   2.938   4.879 -0.4958 -0.1432 -0.1912
  306POPC   C2B 3983   4.522   3.173   5.294  0.0622 -0.1029 -0.1004
  306POPC   C3B 3984   4.647   3.500   5.549  0.2608  0.2250 -0.2918
  306POPC   C4B 3985   4.948   3.776   5.382  0.1529 -0.1772  0.2711
  307POPC   NC3 3986   0.648  10.537   3.712  0.0439 -0.0494 -0.1848
  307POPC   PO4 3987   0.249  10.196   3.708 -0.0182  0.0992 -0.2061
  307POPC   GL1 3988   0.476  10.117   4.123  0.0309  0.0226 -0.1226
  307POPC   GL2 3989   0.804  10.293   4.141  0.4946  0.1700 -0.1220
  307POPC   C1A 3990   0.439  10.328   4.484 -0.0117  0.2219 -0.0830
  307POPC   D2A 3991   0.079  10.396   4.772  0.1587  0.3389 -0.0439
  307POPC   C3A 3992   0.101  10.444   5.220  0.0505  0.1134  0.0442
  307POPC   C4A 3993   0.201  10.222   5.553  0.0834 -0.1702 -0.2070
  307POPC   C1B 3994   0.859  10.083   4.534 -0.1987  0.4405  0.1822
  307POPC   C2B 3995   1.020   9.930   4.970 -0.0517  0.0008 -0.1181
  307POPC   C3B 3996   0.912  10.050   5.396 -0.2071  0.3789 -0.0788
  307POPC   C4B 3997   0.619  10.103   5.734 -0.3639 -0.0189  0.3596
  308POPC   NC3 3998   5.298   9.352   3.965  0.0748  0.2948  0.0334
  308POPC   PO4 3999   5.028   9.017   3.940  0.0898  0.1073  0.1550
  308POPC   GL1 4000   5.170   8.988   4.388 -0.0546 -0.0653  0.1068
  308POPC   GL2 4001   5.047   9.296   4.537 -0.1380 -0.1740  0.2138
  308POPC   C1A 4002   5.164   8.843   4.809  0.0551  0.0880  0.4358
  308POPC   D2A 4003   5.198   8.657   5.221  0.3140 -0.0861 -0.0284
  308POPC   C3A 4004   5.268   8.902   5.548  0.0702  0.0976 -0.4123
  308POPC   C4A 4005   5.087   9.052   5.921  0.3545 -0.1582  0.0325
  308POPC   C1B 4006   5.422   9.317   4.805  0.0969 -0.2350 -0.0932
  308POPC   C2B 4007   5.634   9.170   5.114 -0.1046 -0.0628  0.0797
  308POPC   C3B 4008   5.686   8.797   5.297 -0.0091 -0.1004 -0.0018
  308POPC   C4B 4009   5.661   8.639   5.660 -0.2032 -0.2950  0.1395
  309POPC   NC3 4010   5.012   6.203   3.823 -0.1799  0.1676  0.2776
  309POPC   PO4 4011   5.190   5.768   3.883  0.0983  0.3837 -0.2228
  309POPC   GL1 4012   4.999   5.896   4.225  0.0393  0.3884  0.1460
  309POPC   GL2 4013   4.591   5.915   4.238 -0.1661 -0.0947  0.0960
  309POPC   C1A 4014   5.018   6.196   4.549  0.3058 -0.2923  0.0595
  309POPC   D2A 4015   5.007   6.222   4.982 -0.0917 -0.1277 -0.2431
  309POPC   C3A 4016   5.411   6.171   5.243 -0.0660  0.0932 -0.0387
  309POPC   C4A 4017   5.805   5.898   5.326  0.1387 -0.0212 -0.1007
  309POPC   C1B 4018   4.569   5.987   4.662  0.1827 -0.1128 -0.2035
  309POPC   C2B 4019   4.531   5.845   5.115  0.1393  0.0534 -0.1610
  309POPC   C3B 4020   4.731   6.064   5.397  0.3414  0.2454  0.0994
  309POPC   C4B 4021   4.671   6.223   5.838 -0.2702 -0.1680 -0.1331
  310POPC   NC3 4022   7.360   3.161   3.918  0.1912  0.0266 -0.0083
  310POPC   PO4 4023   7.167   2.689   3.827 -0.3241 -0.0074  0.2706
  310POPC   GL1 4024   7.060   2.309   4.116 -0.1364  0.1112  0.0818
  310POPC   GL2 4025   7.280   2.037   4.049  0.2804  0.0511  0.0272
  310POPC   C1A 4026   7.014   2.404   4.602  0.1698  0.1958  0.0342
  310POPC   D2A 4027   6.906   2.215   4.928  0.1199  0.2309 -0.1122
  310POPC   C3A 4028   7.239   2.196   5.153  0.2956 -0.1698 -0.0248
  310POPC   C4A 4029   7.647   2.169   5.403 -0.0499  0.2238 -0.1588
  310POPC   C1B 4030   7.434   2.119   4.378 -0.2933 -0.2103 -0.1668
  310POPC   C2B 4031   7.474   2.393   4.735  0.6289  0.0492 -0.0735
  310POPC   C3B 4032   7.532   2.580   5.171 -0.2989 -0.2323  0.1390
  310POPC   C4B 4033   7.500   2.536   5.587 -0.0755 -0.1270 -0.0385
  311POPC   NC3 4034  10.114   6.516   3.471  0.1430 -0.0495 -0.0223
  311POPC   PO4 4035  10.231   6.897   3.693  0.4217 -0.1634 -0.0999
  311POPC   GL1 4036  10.368   6.855   4.069  0.2132 -0.0573 -0.1388
  311POPC   GL2 4037  10.437   7.321   4.023  0.1331  0.1212  0.1296
  311POPC   C1A 4038  10.591   7.020   4.414 -0.3603 -0.1963  0.0581
  311POPC   D2A 4039  10.495   7.202   4.835 -0.1642 -0.1515 -0.1643
  311POPC   C3A 4040  10.716   6.975   5.128 -0.1484  0.1587  0.2668
  311POPC   C4A 4041  11.103   6.864   5.026  0.2730 -0.0852  0.0448
  311POPC   C1B 4042  10.042   7.273   4.303 -0.3179  0.0584  0.0208
  311POPC   C2B 4043  10.005   7.234   4.769  0.1791 -0.2197 -0.1406
  311POPC   C3B 4044  10.081   7.077   5.148  0.1183  0.0632 -0.0624
  311POPC   C4B 4045   9.992   6.992   5.575  0.4266  0.2329  0.3225
  312POPC   NC3 4046   2.160   1.708   3.336  0.1176 -0.1537 -0.0331
  312POPC   PO4 4047   2.578   1.831   3.182  0.1557 -0.0990  0.0031
  312POPC   GL1 4048   2.496   2.062   3.597 -0.1789  0.1489 -0.1357
  312POPC   GL2 4049   2.142   2.069   3.719 -0.2763  0.0489  0.1147
  312POPC   C1A 4050   2.434   2.516   3.608  0.2355  0.2235 -0.2165
  312POPC   D2A 4051   2.173   2.819   3.690 -0.1300 -0.1087  0.0272
  312POPC   C3A 4052   1.743   2.847   3.723 -0.2104 -0.0590 -0.1334
  312POPC   C4A 4053   1.440   3.107   3.858  0.0951  0.0874  0.0223
  312POPC   C1B 4054   2.441   2.187   4.053 -0.1487 -0.1796 -0.3397
  312POPC   C2B 4055   2.709   2.221   4.478 -0.4653  0.2020 -0.0746
  312POPC   C3B 4056   2.910   2.348   4.828 -0.2388 -0.2171  0.3593
  312POPC   C4B 4057   3.178   2.498   5.007  0.1248  0.3621 -0.0214
  313POPC   NC3 4058   8.195   1.388   3.468  0.0364 -0.1435 -0.1261
  313POPC   PO4 4059   7.992   0.996   3.628 -0.0311 -0.1791  0.0234
  313POPC   GL1 4060   8.355   0.939   3.999 -0.1542  0.0596 -0.3236
  313POPC   GL2 4061   8.586   0.671   4.040  0.0919 -0.0149 -0.3153
  313POPC   C1A 4062   8.417   0.966   4.397 -0.0029  0.1307 -0.0406
  313POPC   D2A 4063   8.644   1.061   4.754 -0.4491  0.3161  0.1778
  313POPC   C3A 4064   8.827   0.773   5.052 -0.2120  0.3507 -0.1827
  313POPC   C4A 4065   8.852   0.284   5.001 -0.0253 -0.1097  0.3064
  313POPC   C1B 4066   8.646   0.340   4.188 -0.1882  0.3090  0.0507
  313POPC   C2B 4067   8.637   0.044   4.487  0.2602 -0.4034  0.2484
  313POPC   C3B 4068   8.400   0.077   4.874 -0.0610  0.2179  0.0344
  313POPC   C4B 4069   8.362   0.297   5.268  0.2070  0.0952  0.0639
  314POPC   NC3 4070   4.595   5.946   3.687  0.2286 -0.0482  0.3856
  314POPC   PO4 4071   4.508   6.309   3.857  0.0495 -0.0543 -0.0197
  314POPC   GL1 4072   4.421   6.398   4.250  0.1039 -0.2731 -0.2190
  314POPC   GL2 4073   4.247   6.678   4.139 -0.0648  0.4454  0.0156
  314POPC   C1A 4074   4.524   6.520   4.655  0.0141  0.0457  0.0092
  314POPC   D2A 4075   4.524   6.454   5.151 -0.0639  0.3433 -0.3130
  314POPC   C3A 4076   4.316   6.520   5.491 -0.0961 -0.0858 -0.0355
  314POPC   C4A 4077   4.166   6.878   5.794 -0.5281 -0.0188 -0.1635
  314POPC   C1B 4078   4.149   6.870   4.566 -0.0824 -0.0297 -0.2939
  314POPC   C2B 4079   4.051   6.738   4.974 -0.1370  0.0238 -0.0200
  314POPC   C3B 4080   3.846   6.543   5.316 -0.0202 -0.0743 -0.4882
  314POPC   C4B 4081   3.751   6.543   5.766  0.2887 -0.0494  0.1984
  315POPC   NC3 4082   9.701  10.472   2.954 -0.2973 -0.1459  0.1352
  315POPC   PO4 4083   9.686  10.289   3.442 -0.0734  0.1651 -0.0371
  315POPC   GL1 4084   9.828  10.142   3.846 -0.2789  0.1399  0.0176
  315POPC   GL2 4085  10.060   9.951   4.043  0.1112  0.2946 -0.1304
  315POPC   C1A 4086   9.612  10.039   4.176  0.0295  0.4328 -0.1202
  315POPC   D2A 4087   9.461   9.873   4.428  0.0912 -0.2763  0.0447
  315POPC   C3A 4088   9.611   9.711   4.822  0.0793 -0.2508 -0.0943
  315POPC   C4A 4089   9.878   9.640   5.109 -0.0134  0.0876 -0.0274
  315POPC   C1B 4090   9.984   9.749   4.482 -0.0167  0.0606  0.1300
  315POPC   C2B 4091  10.265   9.466   4.700  0.3728 -0.3364  0.0022
  315POPC   C3B 4092  10.703   9.415   4.724 -0.1553  0.1082  0.0962
  315POPC   C4B 4093  11.063   9.177   4.791 -0.1922  0.0590 -0.0924
  316POPC   NC3 4094   6.231   6.632   3.121 -0.2047  0.0214 -0.3628
  316POPC   PO4 4095   6.214   6.572   3.597  0.0074  0.2167  0.0286
  316POPC   GL1 4096   6.366   6.646   3.933 -0.1133  0.0484 -0.1838
  316POPC   GL2 4097   6.272   6.375   4.144 -0.1832 -0.4344 -0.0329
  316POPC   C1A 4098   6.376   6.801   4.393  0.0822  0.2773  0.1587
  316POPC   D2A 4099   6.129   7.174   4.639 -0.0881  0.2701 -0.1657
  316POPC   C3A 4100   6.413   7.429   4.927  0.3130 -0.1334  0.1929
  316POPC   C4A 4101   6.656   7.652   5.180  0.0353  0.1203  0.0562
  316POPC   C1B 4102   6.322   6.237   4.489  0.5768 -0.1573  0.0489
  316POPC   C2B 4103   6.169   5.997   4.788  0.1116 -0.0743  0.0228
  316POPC   C3B 4104   6.439   5.659   5.009 -0.0266 -0.4093  0.1551
  316POPC   C4B 4105   6.406   5.422   5.405  0.1749  0.1477 -0.0711
  317POPC   NC3 4106   3.641   4.339   3.899  0.1871 -0.0951 -0.3236
  317POPC   PO4 4107   3.931   4.214   4.106 -0.2036 -0.0641  0.2840
  317POPC   GL1 4108   3.976   4.042   4.427  0.3563 -0.2413 -0.0478
  317POPC   GL2 4109   4.243   3.843   4.426  0.0285 -0.0730  0.5227
  317POPC   C1A 4110   3.852   3.878   4.778 -0.1416 -0.1246 -0.3343
  317POPC   D2A 4111   3.635   3.814   5.155  0.1216 -0.4228 -0.1491
  317POPC   C3A 4112   3.810   3.929   5.562  0.1621 -0.0992  0.0184
  317POPC   C4A 4113   3.631   3.884   6.004 -0.1230 -0.4160  0.0154
  317POPC   C1B 4114   4.250   3.568   4.785 -0.1632 -0.1420  0.1926
  317POPC   C2B 4115   4.080   3.515   5.211 -0.1878  0.3448 -0.1036
  317POPC   C3B 4116   4.026   3.435   5.613  0.1699 -0.2600  0.1112
  317POPC   C4B 4117   4.276   3.683   5.876  0.2783 -0.0141 -0.0749
  318POPC   NC3 4118   2.362   9.033   3.705 -0.1707  0.0770 -0.0245
  318POPC   PO4 4119   2.440   9.202   4.116 -0.2104 -0.0956  0.1395
  318POPC   GL1 4120   2.642   8.936   4.352 -0.2094  0.1018  0.0011
  318POPC   GL2 4121   2.549   8.643   4.390 -0.0079  0.2880 -0.1682
  318POPC   C1A 4122   2.956   9.046   4.733  0.0099 -0.0516  0.2703
  318POPC   D2A 4123   2.837   9.302   5.116 -0.0867 -0.1060 -0.0739
  318POPC   C3A 4124   2.806   9.053   5.617 -0.1294 -0.4536  0.2802
  318POPC   C4A 4125   2.768   9.236   6.018 -0.1235  0.0886 -0.1864
  318POPC   C1B 4126   2.594   8.486   4.759  0.1095  0.0133 -0.2084
  318POPC   C2B 4127   2.464   8.283   5.141 -0.2522  0.3714 -0.2075
  318POPC   C3B 4128   2.180   8.239   5.510  0.1173 -0.1425  0.1803
  318POPC   C4B 4129   2.191   8.354   5.941  0.0939  0.1864  0.0545
  319POPC   NC3 4130   8.716   9.428   3.897  0.1334  0.1695  0.3398
  319POPC   PO4 4131   8.946   8.978   3.738 -0.0311  0.1487 -0.2067
  319POPC   GL1 4132   8.560   8.986   3.980  0.1479 -0.0544  0.2622
  319POPC   GL2 4133   8.416   9.212   4.208 -0.0759 -0.0566  0.1418
  319POPC   C1A 4134   8.243   8.780   4.225 -0.2675 -0.1515  0.3358
  319POPC   D2A 4135   8.222   8.875   4.641 -0.1659  0.2182 -0.0312
  319POPC   C3A 4136   8.466   8.840   4.977  0.0960  0.0267 -0.3084
  319POPC   C4A 4137   8.847   8.640   5.149  0.5289  0.0501 -0.1101
  319POPC   C1B 4138   8.676   9.034   4.468 -0.1016  0.0313 -0.1923
  319POPC   C2B 4139   8.930   9.081   4.725  0.0671  0.3035 -0.1979
  319POPC   C3B 4140   8.842   9.198   5.134 -0.0725  0.0142  0.1062
  319POPC   C4B 4141   8.744   9.049   5.650  0.1799  0.2201 -0.0667
  320POPC   NC3 4142   4.566   9.068   3.694 -0.1454  0.1208  0.0605
  320POPC   PO4 4143   4.321   8.885   3.811  0.1307 -0.0253 -0.2957
  320POPC   GL1 4144   4.394   8.696   4.250  0.0715 -0.0801 -0.0869
  320POPC   GL2 4145   4.735   8.493   4.201  0.0019  0.3317 -0.0976
  320POPC   C1A 4146   4.619   8.844   4.616 -0.0889  0.3499 -0.0537
  320POPC   D2A 4147   4.686   8.765   5.048  0.1360  0.0011 -0.0461
  320POPC   C3A 4148   4.774   8.900   5.395  0.1213 -0.0075 -0.2118
  320POPC   C4A 4149   4.710   8.722   5.828 -0.1479 -0.1502 -0.2062
  320POPC   C1B 4150   5.189   8.497   4.370  0.0287  0.1164 -0.0573
  320POPC   C2B 4151   5.425   8.113   4.586 -0.2141 -0.1855 -0.1848
  320POPC   C3B 4152   5.798   7.953   4.453 -0.0491 -0.2348 -0.0846
  320POPC   C4B 4153   6.263   8.246   4.315  0.1441  0.0339  0.1607
  321POPC   NC3 4154   1.748   5.847   3.393  0.1962 -0.2086  0.4189
  321POPC   PO4 4155   1.469   6.271   3.511 -0.1082  0.1987 -0.0169
  321POPC   GL1 4156   1.508   6.456   3.850 -0.1246 -0.1062 -0.2513
  321POPC   GL2 4157   1.283   6.685   3.807 -0.2366  0.3713  0.0369
  321POPC   C1A 4158   1.689   6.324   4.232 -0.0239  0.3026  0.0216
  321POPC   D2A 4159   1.733   6.175   4.592 -0.1648  0.1704  0.1701
  321POPC   C3A 4160   2.016   6.000   4.806 -0.1645  0.0031 -0.1100
  321POPC   C4A 4161   2.003   5.721   5.091  0.1421 -0.0870 -0.1202
  321POPC   C1B 4162   1.140   6.413   4.248 -0.1483  0.3579  0.0516
  321POPC   C2B 4163   1.381   6.508   4.647 -0.3903 -0.1287  0.0503
  321POPC   C3B 4164   1.414   6.318   4.944 -0.1202 -0.1280 -0.0256
  321POPC   C4B 4165   1.240   6.074   5.287 -0.1554  0.0372 -0.3218
  322POPC   NC3 4166   9.985   7.402   3.655  0.0154 -0.0862  0.2447
  322POPC   PO4 4167  10.340   7.756   3.692  0.1124 -0.0875  0.0401
  322POPC   GL1 4168  10.248   7.815   4.059 -0.1123 -0.1782 -0.1504
  322POPC   GL2 4169   9.955   7.726   4.022  0.1142  0.1584  0.1632
  322POPC   C1A 4170  10.123   8.100   4.397  0.1415  0.1567  0.0998
  322POPC   D2A 4171   9.961   8.143   4.845 -0.2086  0.0085 -0.0071
  322POPC   C3A 4172   9.915   8.053   5.296  0.2629  0.1949 -0.1613
  322POPC   C4A 4173   9.971   7.849   5.680  0.2770  0.1433  0.0788
  322POPC   C1B 4174   9.800   7.703   4.489 -0.1462 -0.0128  0.0094
  322POPC   C2B 4175   9.619   7.784   4.850  0.0154  0.1390 -0.2597
  322POPC   C3B 4176   9.435   7.800   5.167  0.2196  0.0680  0.2119
  322POPC   C4B 4177   9.169   7.646   5.455  0.2122  0.1547  0.2417
  323POPC   NC3 4178   0.904   4.688   3.607  0.0909  0.0710 -0.1057
  323POPC   PO4 4179   0.840   4.589   4.031 -0.0497 -0.3777 -0.2844
  323POPC   GL1 4180   0.906   4.763   4.366 -0.0241 -0.0017  0.1793
  323POPC   GL2 4181   0.836   5.092   4.331 -0.0162  0.1442  0.1208
  323POPC   C1A 4182   0.902   4.559   4.762 -0.0346 -0.2546  0.2826
  323POPC   D2A 4183   1.132   4.300   4.954 -0.4800 -0.0834 -0.1666
  323POPC   C3A 4184   1.048   4.128   5.332 -0.1983 -0.0348 -0.1046
  323POPC   C4A 4185   0.737   4.003   5.599  0.0863 -0.0361 -0.3941
  323POPC   C1B 4186   0.944   5.185   4.721 -0.2168  0.0431 -0.1522
  323POPC   C2B 4187   0.897   4.942   5.095  0.0876  0.1276 -0.1338
  323POPC   C3B 4188   0.725   5.077   5.522 -0.0013 -0.1163  0.1103
  323POPC   C4B 4189   0.320   4.833   5.672 -0.0669  0.1764 -0.0132
  324POPC   NC3 4190   8.635   2.462   3.541  0.1718  0.0326  0.1104
  324POPC   PO4 4191   8.773   2.850   3.471 -0.0073 -0.1255 -0.1071
  324POPC   GL1 4192   8.803   2.918   3.892 -0.0424  0.0804 -0.1033
  324POPC   GL2 4193   8.805   2.700   3.989 -0.0583 -0.1541 -0.0007
  324POPC   C1A 4194   9.267   2.824   4.068  0.3194 -0.1618  0.1396
  324POPC   D2A 4195   9.678   2.641   4.312  0.0867  0.1020  0.0978
  324POPC   C3A 4196   9.602   2.537   4.735 -0.0834 -0.2752 -0.0688
  324POPC   C4A 4197   9.205   2.335   4.910  0.1904  0.2208  0.1529
  324POPC   C1B 4198   8.925   2.429   4.247 -0.1250  0.3165  0.0899
  324POPC   C2B 4199   9.312   2.185   4.312 -0.1008 -0.1753 -0.3408
  324POPC   C3B 4200   9.485   1.817   4.467  0.0927 -0.0408  0.4212
  324POPC   C4B 4201   9.860   1.593   4.698  0.0812  0.1310  0.0696
  325POPC   NC3 4202   9.205   3.206   3.195  0.0411 -0.1874 -0.0291
  325POPC   PO4 4203   9.637   3.339   3.391  0.1679 -0.0344  0.1021
  325POPC   GL1 4204   9.700   3.222   3.854  0.2258 -0.1606  0.0977
  325POPC   GL2 4205   9.518   3.518   3.963 -0.5528 -0.0652 -0.0090
  325POPC   C1A 4206   9.878   3.074   4.222 -0.1478 -0.0227  0.0607
  325POPC   D2A 4207  10.209   3.140   4.556 -0.0336  0.1131  0.0427
  325POPC   C3A 4208  10.026   3.118   5.043 -0.2282 -0.0482  0.0575
  325POPC   C4A 4209  10.206   3.148   5.448  0.1082  0.0373  0.0052
  325POPC   C1B 4210   9.548   3.344   4.443 -0.1213  0.0488  0.2607
  325POPC   C2B 4211   9.857   3.451   4.681 -0.2678  0.2166  0.1816
  325POPC   C3B 4212  10.143   3.611   5.094 -0.4050  0.0717 -0.4382
  325POPC   C4B 4213  10.000   3.778   5.431 -0.0142 -0.1281  0.1129
  326POPC   NC3 4214   7.176   4.284   3.724 -0.0636  0.1077  0.0622
  326POPC   PO4 4215   7.401   4.090   4.113 -0.1261 -0.3678 -0.0092
  326POPC   GL1 4216   7.654   4.017   4.448 -0.0147  0.1187 -0.3771
  326POPC   GL2 4217   7.986   4.086   4.564 -0.2072 -0.2311 -0.0358
  326POPC   C1A 4218   7.731   4.068   4.975 -0.2321  0.1039 -0.1079
  326POPC   D2A 4219   7.757   3.993   5.401  0.0785 -0.1512 -0.0928
  326POPC   C3A 4220   7.899   4.280   5.682 -0.0207  0.0764  0.0442
  326POPC   C4A 4221   7.941   4.512   6.066 -0.0622  0.1893 -0.1045
  326POPC   C1B 4222   8.358   4.183   4.562  0.0069  0.0290 -0.1139
  326POPC   C2B 4223   8.637   4.087   4.826  0.1944  0.0562  0.0413
  326POPC   C3B 4224   8.624   4.420   5.138  0.1012  0.0327  0.0474
  326POPC   C4B 4225   8.944   4.719   5.104 -0.1472 -0.1534 -0.3103
  327POPC   NC3 4226   3.899   0.149   4.317  0.0059  0.0844  0.3700
  327POPC   PO4 4227   3.616   0.560   4.295 -0.1595 -0.1836 -0.0299
  327POPC   GL1 4228   3.859   0.615   4.736  0.0225  0.2264 -0.1639
  327POPC   GL2 4229   4.003   0.329   4.896  0.3928  0.0580 -0.1807
  327POPC   C1A 4230   3.992   0.798   5.129  0.0602 -0.0668 -0.0237
  327POPC   D2A 4231   4.243   0.618   5.484  0.0525  0.3518  0.0815
  327POPC   C3A 4232   4.470   0.751   5.781 -0.3822 -0.2349 -0.4352
  327POPC   C4A 4233   4.961   0.854   5.984 -0.0431  0.0934 -0.0110
  327POPC   C1B 4234   3.843   0.327   5.372 -0.1255 -0.0817  0.0372
  327POPC   C2B 4235   3.481   0.247   5.633  0.0262  0.1672 -0.0899
  327POPC   C3B 4236   3.460   0.456   6.079  0.0960 -0.0168 -0.2203
  327POPC   C4B 4237   3.676   0.813   6.350  0.0744  0.2327 -0.1963
  328POPC   NC3 4238   3.574  10.205   3.607  0.0023 -0.0089  0.2376
  328POPC   PO4 4239   3.775  10.220   4.091 -0.2830 -0.0513 -0.0754
  328POPC   GL1 4240   3.852  10.213   4.508 -0.1860 -0.1432  0.2611
  328POPC   GL2 4241   3.936  10.516   4.706 -0.1032 -0.2404  0.2124
  328POPC   C1A 4242   3.764  10.158   5.016  0.3999  0.1605  0.1161
  328POPC   D2A 4243   3.618   9.980   5.412 -0.2318  0.0192 -0.0483
  328POPC   C3A 4244   3.289   9.901   5.671  0.1631 -0.2383 -0.3120
  328POPC   C4A 4245   2.945   9.792   5.964 -0.1010 -0.1791  0.1629
  328POPC   C1B 4246   4.144  10.416   5.142 -0.0399  0.0729  0.0577
  328POPC   C2B 4247   4.197  10.057   5.443 -0.3856 -0.4308  0.0110
  328POPC   C3B 4248   4.485   9.896   5.694 -0.0778  0.1930 -0.3647
  328POPC   C4B 4249   4.485   9.551   5.945 -0.0962 -0.4627 -0.1266
  329POPC   NC3 4250   0.728   4.232   3.626 -0.1657  0.2123  0.2275
  329POPC   PO4 4251   0.422   4.196   3.564 -0.5441  0.1023 -0.0788
  329POPC   GL1 4252   0.324   4.432   4.102  0.0599  0.1377  0.2241
  329POPC   GL2 4253   0.601   4.160   4.206  0.1579  0.1891  0.0914
  329POPC   C1A 4254   0.440   4.554   4.549 -0.4006 -0.0550 -0.0107
  329POPC   D2A 4255   0.460   4.641   4.891  0.1169  0.2171 -0.0441
  329POPC   C3A 4256   0.435   4.938   5.201  0.2483 -0.1276  0.0979
  329POPC   C4A 4257   0.265   5.325   5.426  0.1662  0.2401 -0.2372
  329POPC   C1B 4258   0.750   4.091   4.603 -0.4012 -0.0568 -0.1955
  329POPC   C2B 4259   0.601   4.153   5.071  0.1178  0.0115 -0.2322
  329POPC   C3B 4260   0.368   4.096   5.306  0.0346 -0.0341  0.3014
  329POPC   C4B 4261   0.118   4.081   5.690 -0.1508  0.0208  0.0099
  330POPC   NC3 4262   4.894   1.908   4.078 -0.0659 -0.0197  0.2126
  330POPC   PO4 4263   4.466   1.952   3.920 -0.1160  0.3182  0.1363
  330POPC   GL1 4264   4.242   1.878   4.290  0.4230  0.1715  0.0563
  330POPC   GL2 4265   4.552   1.901   4.501  0.0348  0.0522  0.4562
  330POPC   C1A 4266   4.156   2.148   4.684 -0.0414 -0.0115  0.2216
  330POPC   D2A 4267   4.273   2.058   5.093  0.0305 -0.0672 -0.3377
  330POPC   C3A 4268   4.034   2.076   5.484 -0.1432 -0.0629  0.0189
  330POPC   C4A 4269   3.527   2.001   5.635  0.1136  0.0942  0.1726
  330POPC   C1B 4270   4.637   2.169   4.684 -0.0135  0.0863 -0.0007
  330POPC   C2B 4271   4.598   2.414   5.012  0.0320 -0.1339 -0.0490
  330POPC   C3B 4272   4.294   2.608   5.240 -0.3556  0.0629 -0.5207
  330POPC   C4B 4273   4.203   2.878   5.604 -0.3891 -0.1364 -0.1146
  331POPC   NC3 4274   6.824   9.683   3.447 -0.1428  0.1141 -0.2777
  331POPC   PO4 4275   7.191   9.972   3.654 -0.0370 -0.0854  0.3124
  331POPC   GL1 4276   6.779   9.966   3.831 -0.0078  0.0659  0.1477
  331POPC   GL2 4277   6.616  10.262   3.761  0.2521  0.0282 -0.1295
  331POPC   C1A 4278   6.742  10.030   4.321  0.1643  0.0247 -0.3669
  331POPC   D2A 4279   6.613   9.953   4.779  0.0020 -0.4075 -0.0030
  331POPC   C3A 4280   6.880   9.811   5.145  0.3053 -0.0857 -0.1147
  331POPC   C4A 4281   6.835   9.900   5.601 -0.0872 -0.2719 -0.0271
  331POPC   C1B 4282   6.725  10.511   4.114 -0.0797 -0.2385  0.0336
  331POPC   C2B 4283   6.515  10.446   4.567  0.1739  0.0900 -0.0343
  331POPC   C3B 4284   6.535  10.542   5.007  0.4672  0.0022  0.2168
  331POPC   C4B 4285   6.844  10.450   5.242 -0.1590 -0.0043 -0.0134
  332POPC   NC3 4286   4.418   5.098   3.886  0.0526 -0.0899  0.0638
  332POPC   PO4 4287   4.223   5.586   3.778 -0.1439  0.3516  0.2840
  332POPC   GL1 4288   3.998   5.657   4.171 -0.1208 -0.3974 -0.1883
  332POPC   GL2 4289   4.083   5.973   4.255 -0.0253 -0.0278 -0.1380
  332POPC   C1A 4290   3.676   5.413   4.535  0.3076 -0.0632  0.0556
  332POPC   D2A 4291   3.719   5.261   5.004 -0.0234  0.0773  0.2663
  332POPC   C3A 4292   3.574   4.972   5.305  0.1200  0.0665 -0.4556
  332POPC   C4A 4293   3.740   4.861   5.701  0.0440 -0.0918 -0.1973
  332POPC   C1B 4294   4.162   5.659   4.642  0.1498  0.1119  0.1424
  332POPC   C2B 4295   4.069   5.647   5.036  0.0799  0.0801  0.3019
  332POPC   C3B 4296   3.936   5.579   5.363  0.0887 -0.2573  0.1382
  332POPC   C4B 4297   3.610   5.413   5.530  0.2559  0.1521 -0.1449
  333POPC   NC3 4298   7.704   1.779   3.939 -0.4156 -0.3981  0.2045
  333POPC   PO4 4299   8.045   2.140   4.048  0.2584  0.0608  0.1605
  333POPC   GL1 4300   7.990   2.270   4.470 -0.1128 -0.0438  0.0173
  333POPC   GL2 4301   8.285   2.474   4.427  0.1621 -0.2804  0.2089
  333POPC   C1A 4302   8.325   2.012   4.847  0.2095  0.2517 -0.0684
  333POPC   D2A 4303   8.691   1.956   5.030  0.2705  0.2592  0.1359
  333POPC   C3A 4304   8.880   2.205   5.254  0.0987  0.0410  0.2544
  333POPC   C4A 4305   9.290   2.421   5.416 -0.1334 -0.3217  0.2635
  333POPC   C1B 4306   8.276   2.825   4.694  0.5098 -0.1215  0.1705
  333POPC   C2B 4307   8.096   2.955   5.091  0.0090  0.1843  0.0792
  333POPC   C3B 4308   8.041   2.616   5.462 -0.0659  0.1464  0.0727
  333POPC   C4B 4309   7.886   2.329   5.810 -0.2226  0.0188  0.3393
  334POPC   NC3 4310   7.651   9.689   3.708 -0.0979 -0.2598 -0.4027
  334POPC   PO4 4311   8.041   9.964   3.490  0.0464  0.3328  0.0641
  334POPC   GL1 4312   8.135   9.715   3.838 -0.0675 -0.0629 -0.0643
  334POPC   GL2 4313   8.381   9.768   3.950  0.1288  0.0435  0.1272
  334POPC   C1A 4314   7.949   9.795   4.276 -0.0624 -0.1115 -0.1236
  334POPC   D2A 4315   7.621   9.621   4.645 -0.1001  0.0322 -0.0997
  334POPC   C3A 4316   7.231   9.554   4.906  0.1023 -0.0984  0.3097
  334POPC   C4A 4317   7.262   9.327   5.286 -0.1181 -0.0822 -0.2173
  334POPC   C1B 4318   8.607  10.072   4.067  0.2043 -0.1001 -0.0824
  334POPC   C2B 4319   8.854  10.188   4.420  0.3324 -0.0017 -0.2182
  334POPC   C3B 4320   8.803  10.171   4.836  0.1200 -0.0330  0.0926
  334POPC   C4B 4321   8.691   9.962   5.267  0.1158  0.0264 -0.1575
  335POPC   NC3 4322  10.476   8.650   3.299 -0.1532 -0.3549  0.1371
  335POPC   PO4 4323  10.094   8.667   3.555  0.2994 -0.1481 -0.3259
  335POPC   GL1 4324  10.310   8.783   3.935  0.0662  0.2617  0.3488
  335POPC   GL2 4325  10.683   8.638   3.968  0.2907  0.1539 -0.0127
  335POPC   C1A 4326  10.276   8.613   4.415 -0.0847  0.1201  0.1344
  335POPC   D2A 4327  10.356   8.762   4.865 -0.2001 -0.0420  0.4555
  335POPC   C3A 4328  10.596   9.035   5.047  0.0808 -0.1425  0.0103
  335POPC   C4A 4329  10.766   9.357   5.209 -0.3956 -0.4341  0.2364
  335POPC   C1B 4330  10.534   8.259   4.198 -0.2826 -0.0895 -0.1687
  335POPC   C2B 4331  10.543   8.152   4.690  0.2117  0.1783 -0.0218
  335POPC   C3B 4332  10.366   8.133   5.113  0.2129  0.4612  0.2644
  335POPC   C4B 4333  10.390   7.909   5.557  0.1839 -0.1382 -0.2559
  336POPC   NC3 4334   5.756   9.607   3.250  0.2346 -0.0550  0.3150
  336POPC   PO4 4335   5.468   9.591   3.506  0.0759  0.0095  0.1748
  336POPC   GL1 4336   5.730   9.708   3.859 -0.1101 -0.1045  0.0490
  336POPC   GL2 4337   5.523   9.886   4.076 -0.0230  0.1948 -0.3188
  336POPC   C1A 4338   5.977   9.421   4.108  0.1130 -0.1295 -0.1575
  336POPC   D2A 4339   5.725   9.150   4.343 -0.1363  0.0288  0.1697
  336POPC   C3A 4340   5.953   9.125   4.729  0.1567  0.3637 -0.1394
  336POPC   C4A 4341   6.122   8.949   5.055 -0.0004 -0.0168 -0.0595
  336POPC   C1B 4342   5.641   9.968   4.488  0.0522  0.2249 -0.1832
  336POPC   C2B 4343   5.720  10.212   4.896  0.1800  0.0048  0.0074
  336POPC   C3B 4344   5.610  10.430   5.418 -0.4408 -0.0862 -0.2683
  336POPC   C4B 4345   5.721  10.935   5.534  0.0506  0.4173  0.1349
  337POPC   NC3 4346   1.733   4.536   3.757 -0.0676  0.3032  0.0568
  337POPC   PO4 4347   1.920   4.860   3.517 -0.0109 -0.4272  0.1560
  337POPC   GL1 4348   2.072   4.870   4.009  0.0528  0.0731 -0.4078
  337POPC   GL2 4349   1.941   4.620   4.215 -0.1462  0.1309  0.0893
  337POPC   C1A 4350   2.328   5.135   4.356 -0.0128  0.1755  0.1075
  337POPC   D2A 4351   2.261   5.566   4.464  0.1094  0.0315 -0.1963
  337POPC   C3A 4352   2.484   5.618   4.904 -0.4021 -0.1749 -0.3472
  337POPC   C4A 4353   2.689   5.481   5.194 -0.1722 -0.6708 -0.1390
  337POPC   C1B 4354   2.062   4.352   4.522  0.1448  0.3606  0.1236
  337POPC   C2B 4355   2.210   4.509   4.978 -0.0854  0.0242 -0.1298
  337POPC   C3B 4356   2.186   4.457   5.383  0.2606  0.0390 -0.0211
  337POPC   C4B 4357   2.281   4.357   5.812 -0.3777 -0.0019  0.0476
  338POPC   NC3 4358   5.518   8.205   3.611  0.1931  0.1081  0.1167
  338POPC   PO4 4359   5.270   7.819   3.658  0.0652  0.2490  0.3445
  338POPC   GL1 4360   4.961   7.852   4.039  0.2847 -0.0131 -0.0044
  338POPC   GL2 4361   4.804   7.568   4.099 -0.0157  0.0234 -0.0649
  338POPC   C1A 4362   4.984   7.890   4.492  0.3470 -0.1173 -0.0521
  338POPC   D2A 4363   4.961   7.697   4.913 -0.0121  0.0587  0.1130
  338POPC   C3A 4364   5.230   7.587   5.267 -0.0563 -0.0161 -0.1294
  338POPC   C4A 4365   5.594   7.773   5.459  0.0564  0.0494 -0.1155
  338POPC   C1B 4366   4.650   7.520   4.560  0.0426 -0.1298 -0.1965
  338POPC   C2B 4367   4.520   7.429   4.971  0.2483 -0.2451  0.2587
  338POPC   C3B 4368   4.178   7.619   5.233 -0.4578 -0.1327 -0.1757
  338POPC   C4B 4369   4.371   7.989   5.446  0.1117  0.2081 -0.2198
  339POPC   NC3 4370   7.697   6.238   3.452  0.1189 -0.0341 -0.0072
  339POPC   PO4 4371   7.552   6.363   3.791  0.1837 -0.1839  0.1039
  339POPC   GL1 4372   7.683   6.383   4.248  0.5286  0.1479  0.1647
  339POPC   GL2 4373   7.962   6.551   4.362  0.2740  0.0034 -0.2335
  339POPC   C1A 4374   7.551   6.134   4.631  0.0892  0.0953  0.2080
  339POPC   D2A 4375   7.197   6.137   5.022 -0.0128 -0.0839 -0.0294
  339POPC   C3A 4376   7.324   5.800   5.271 -0.0772 -0.1835 -0.1958
  339POPC   C4A 4377   7.261   5.519   5.606  0.1800 -0.1827  0.0906
  339POPC   C1B 4378   7.910   6.369   4.810 -0.0757 -0.0780  0.1357
  339POPC   C2B 4379   7.684   6.341   5.207 -0.2183  0.1944 -0.0661
  339POPC   C3B 4380   7.382   6.290   5.452  0.1056  0.0653 -0.2230
  339POPC   C4B 4381   6.996   6.224   5.494  0.3950 -0.1236 -0.3324
  340POPC   NC3 4382  10.515   9.797   3.771 -0.0734 -0.0321  0.1511
  340POPC   PO4 4383  10.248   9.521   3.831 -0.0218 -0.0299  0.3468
  340POPC   GL1 4384  10.105   9.359   4.209 -0.0464  0.1183  0.1982
  340POPC   GL2 4385  10.394   9.126   4.347 -0.1065  0.2395 -0.1280
  340POPC   C1A 4386   9.919   9.094   4.539 -0.2501 -0.0199 -0.2375
  340POPC   D2A 4387   9.832   9.148   4.926 -0.0121  0.2142  0.0714
  340POPC   C3A 4388  10.155   9.196   5.272  0.1881  0.1398  0.1436
  340POPC   C4A 4389  10.434   9.362   5.604  0.1806 -0.1285 -0.2722
  340POPC   C1B 4390  10.708   8.858   4.481  0.1848  0.2957 -0.3297
  340POPC   C2B 4391  10.813   8.567   4.910  0.0838 -0.1884  0.0434
  340POPC   C3B 4392  10.586   8.553   5.324 -0.1006  0.1099  0.1618
  340POPC   C4B 4393  10.698   8.480   5.682  0.4858  0.1645  0.1426
  341POPC   NC3 4394   5.796   6.495   3.952 -0.3914  0.6224 -0.3290
  341POPC   PO4 4395   5.938   6.943   3.939 -0.1087 -0.0479 -0.0560
  341POPC   GL1 4396   5.711   7.199   4.289 -0.0406  0.0512  0.1253
  341POPC   GL2 4397   5.922   7.472   4.317  0.1205  0.0264  0.0686
  341POPC   C1A 4398   5.649   7.107   4.812  0.3058 -0.0132  0.1583
  341POPC   D2A 4399   5.484   6.660   4.960 -0.3899  0.0273 -0.2867
  341POPC   C3A 4400   5.818   6.459   5.213  0.0194  0.1065 -0.1452
  341POPC   C4A 4401   6.151   6.615   5.469  0.4558  0.2045  0.0892
  341POPC   C1B 4402   5.963   7.591   4.820  0.0433  0.1919 -0.0022
  341POPC   C2B 4403   5.765   7.918   4.992 -0.1648 -0.0487 -0.0177
  341POPC   C3B 4404   5.378   7.994   5.083  0.0099  0.1578  0.0355
  341POPC   C4B 4405   4.990   8.116   5.298 -0.2059  0.1413  0.0383
  342W        W 4406   4.826   5.611   1.512 -0.0706 -0.0713 -0.2161
  343W        W 4407   1.341   0.381   9.260  0.1057  0.0063 -0.2066
  344W        W 4408   8.592   4.947   2.138 -0.0485  0.1279 -0.1914
  345W        W 4409   4.456   3.814   8.751  0.1013 -0.4622  0.0391
  346W        W 4410   4.608   8.848   8.718  0.1198 -0.0416 -0.3186
  347W        W 4411   8.207   4.045   8.812  0.2232  0.3398 -0.3450
  348W        W 4412   9.026   3.378   0.178 -0.2496 -0.0435  0.2286
  349W        W 4413   8.209   1.372   2.920  0.1921 -0.1309 -0.0682
  350W        W 4414   1.662   4.622   0.067 -0.3106 -0.0452 -0.0756
  351W        W 4415   0.835  10.241   3.294 -0.1107 -0.4450  0.2899
  352W        W 4416   9.053   1.101   3.289 -0.1045 -0.0554 -0.2708
  353W        W 4417   3.665   3.438   1.830 -0.5631 -0.0638 -0.1880
  354W        W 4418   0.481   7.436   8.925  0.1105  0.0243  0.2399
  355W        W 4419   2.330   6.021   2.499  0.2685 -0.2991 -0.1049
  356W        W 4420   0.866   7.040   8.450  0.0369  0.0589  0.1776
  357W        W 4421   0.894   4.531   8.141  0.1244 -0.0310 -0.1396
  358W        W 4422   1.033   6.824   9.794 -0.4737 -0.3065  0.0707
  359W        W 4423   4.996   0.795   1.831 -0.1177  0.2345 -0.1274
  360W        W 4424   1.605   2.406   8.149 -0.0234  0.0646  0.3045
  361W        W 4425   7.808   6.521   9.679  0.2937 -0.0384  0.1119
  362W        W 4426   4.710   2.607   1.867  0.3197  0.0665  0.4247
  363W        W 4427  10.486   7.146   1.439  0.3020  0.0309 -0.3000
  364W        W 4428   3.775   4.296   7.785 -0.1174 -0.1787  0.2716
  365W        W 4429   4.601   1.408  10.505 -0.0845 -0.1418 -0.0392
  366W        W 4430   2.150   4.890   9.365 -0.0938  0.0678  0.3204
  367W        W 4431   5.698  10.163   7.255 -0.1197  0.3706 -0.1364
  368W        W 4432   1.094   5.115  10.811  0.0259 -0.1284 -0.0699
  369W        W 4433   3.520   2.665  10.852  0.1399 -0.0623 -0.0185
  370W        W 4434   5.134   1.082   0.973 -0.2167  0.0809  0.1756
  371W        W 4435   6.084   7.131   0.389 -0.3033  0.0286 -0.0382
  372W        W 4436   2.792   8.403   2.628  0.2845 -0.2594  0.1473
  373W        W 4437   6.082   6.181  11.541 -0.4502  0.3381  0.2419
  374W        W 4438   8.926   7.457   8.063  0.0996 -0.3491  0.3995
  375W        W 4439   4.654   8.317   1.937  0.1048 -0.0631  0.1851
  376W        W 4440   9.866   7.939   1.982  0.0646 -0.1332 -0.0250
  377W        W 4441   4.514   3.974   0.894 -0.1812 -0.0172 -0.0273
  378W        W 4442   1.584   9.275   1.298 -0.2168  0.1593 -0.1352
  379W        W 4443   0.623   2.536   8.789 -0.0557 -0.1702  0.2352
  380W        W 4444   2.628   6.607   1.765  0.0886 -0.1457 -0.0877
  381W        W 4445   4.919   0.374   3.211  0.1321 -0.1197  0.0809
  382W        W 4446   1.530   2.342  10.415 -0.0594 -0.1688 -0.0980
  383W        W 4447   1.239   2.346  11.383  0.2078 -0.2795  0.0980
  384W        W 4448   0.993   8.116  11.585 -0.1680 -0.1101 -0.3779
  385W        W 4449   4.312   3.729   2.289 -0.1595  0.0800  0.0588
  386W        W 4450   5.852   4.784  10.729 -0.2513 -0.2753  0.3632
  387W        W 4451   8.535   9.852   2.659 -0.3424  0.0149  0.0684
  388W        W 4452   8.810   2.561   9.977  0.4317 -0.0889 -0.0199
  389W        W 4453   1.123   1.502   2.493  0.0043 -0.0905  0.0265
  390W        W 4454   2.279   1.529   2.044 -0.3549  0.1180  0.1646
  391W        W 4455   7.918   5.271   3.083  0.1085  0.1936  0.1348
  392W        W 4456  10.293   8.416   1.140  0.1785 -0.0214 -0.0696
  393W        W 4457   3.086   3.304  10.225  0.3650  0.0217 -0.3205
  394W        W 4458   8.980   9.929   1.922  0.0784  0.2367 -0.1167
  395W        W 4459  10.260   2.514   8.251  0.0676 -0.0040 -0.0713
  396W        W 4460   5.985   5.787  10.351  0.0450  0.2721  0.1021
  397W        W 4461   3.915   0.289  11.333 -0.5174  0.0844  0.0587
  398W        W 4462   6.442   1.730   0.463 -0.0630 -0.2069  0.1323
  399W        W 4463   7.263   2.682  10.127  0.0662 -0.1142 -0.2669
  400W        W 4464   0.515   3.538   1.874 -0.1683  0.1373 -0.0861
  401W        W 4465   0.128   7.515   0.912  0.0535  0.1693  0.1689
  402W        W 4466   6.943   2.298   9.295 -0.0544  0.2874 -0.3806
  403W        W 4467   7.244   9.533  11.295 -0.2891 -0.3355  0.4906
  404W        W 4468   6.966   7.158  11.123  0.1578  0.1581 -0.3919
  405W        W 4469   2.140   2.920  11.155  0.1842  0.1333  0.0247
  406W        W 4470   6.271   7.838   8.663  0.1404 -0.0037  0.1025
  407W        W 4471   5.853   8.077   7.041  0.1972  0.1451 -0.0099
  408W        W 4472   6.709   9.199   0.800 -0.1832  0.3277 -0.0597
  409W        W 4473   1.395   3.138   9.903  0.3021  0.0225  0.0188
  410W        W 4474   7.870   0.200   8.767 -0.1353 -0.2382  0.0590
  411W        W 4475   0.502   1.244   3.879 -0.1667 -0.2590  0.0732
  412W        W 4476   9.008   7.321  11.364  0.1002  0.1043 -0.0512
  413W        W 4477   9.983   1.404   1.639  0.1710  0.2192  0.2114
  414W        W 4478   5.759   1.848   1.757  0.1792 -0.1883 -0.2397
  415W        W 4479   4.082   0.276   3.497  0.1720 -0.3115 -0.4053
  416W        W 4480   9.847   0.432  10.845 -0.2211 -0.0552 -0.1764
  417W        W 4481   4.572   5.959  11.011  0.1120 -0.0453  0.0798
  418W        W 4482  10.360   9.560   3.309 -0.1642  0.0343 -0.1999
  419W        W 4483   8.191   0.893   3.158 -0.1244  0.1136  0.4837
  420W        W 4484   5.741   7.411   0.094  0.0538  0.1441 -0.2152
  421W        W 4485   0.922   3.343  11.277 -0.1254 -0.1130 -0.1510
  422W        W 4486   7.032   7.544   3.918  0.2557 -0.1415  0.0198
  423W        W 4487   8.995   5.237  10.402 -0.0565 -0.3018 -0.1251
  424W        W 4488   9.315   4.263   0.354 -0.3426  0.0973  0.3900
  425W        W 4489   0.911   6.532   8.994  0.0812  0.0253  0.1424
  426W        W 4490   3.583   1.968   2.824  0.0525 -0.1085  0.0554
  427W        W 4491   9.075   0.111  10.759  0.0156 -0.0398 -0.3997
  428W        W 4492   0.937   9.922   2.134  0.0139 -0.3980  0.2321
  429W        W 4493   9.444   4.402   8.512 -0.1049 -0.2333  0.0949
  430W        W 4494   7.670  10.488   8.413  0.0843  0.1821 -0.0214
  431W        W 4495   9.472   3.757   0.345  0.2802 -0.0396 -0.0354
  432W        W 4496   6.940   9.743  10.769 -0.1231  0.2801 -0.1864
  433W        W 4497   9.818   4.135   2.926 -0.0288  0.0057 -0.2147
  434W        W 4498   7.336   4.497   9.846 -0.0464  0.0320 -0.4112
  435W        W 4499   9.042   0.764  10.344 -0.1133  0.1276  0.0954
  436W        W 4500   2.983   7.466   2.601 -0.1124 -0.0940 -0.2089
  437W        W 4501   6.431   7.676   9.230 -0.0736 -0.1337  0.2169
  438W        W 4502   7.752   0.622  10.808 -0.2853  0.0548 -0.2337
  439W        W 4503   3.791   0.745  11.095  0.2643 -0.1104 -0.1652
  440W        W 4504   4.765   9.347   9.470  0.3714 -0.0145 -0.3793
  441W        W 4505   3.735   7.885   8.470  0.0432  0.1330  0.1446
  442W        W 4506   3.919   9.615   9.012  0.3638  0.3122 -0.0301
  443W        W 4507   4.796   0.149  11.171  0.0766  0.0701  0.0056
  444W        W 4508   2.596   2.309   2.228 -0.0459 -0.0950  0.0388
  445W        W 4509   9.475   2.738   8.575 -0.3767 -0.0823 -0.0585
  446W        W 4510   8.757   6.193  11.223 -0.0505  0.0979 -0.0778
  447W        W 4511   3.999   5.850   2.120  0.0591  0.1313  0.0548
  448W        W 4512   6.178   8.253   8.313  0.5758 -0.0263 -0.1208
  449W        W 4513   3.451   6.392   3.500  0.0168 -0.0417 -0.2961
  450W        W 4514  10.440   7.838   8.270 -0.2585 -0.0784 -0.0702
  451W        W 4515   3.917   5.459  10.712  0.4337  0.1828  0.1238
  452W        W 4516   8.046   2.133   8.623  0.0298  0.3607  0.1949
  453W        W 4517   5.465   5.086   1.508 -0.1404 -0.2558  0.0957
  454W        W 4518   7.843   4.348   9.720  0.1247 -0.4324  0.1186
  455W        W 4519   5.373   0.130   3.502  0.0513  0.1425 -0.0595
  456W        W 4520   2.904   9.696   2.044  0.2083 -0.0404 -0.1535
  457W        W 4521   4.980   9.265   8.486  0.3682  0.1166 -0.1332
  458W        W 4522   5.997  10.632   8.873  0.5174 -0.1935 -0.0932
  459W        W 4523   8.500   2.206   8.740  0.3123 -0.0423  0.1278
  460W        W 4524   7.052   5.189   3.305 -0.0845  0.0333  0.2257
  461W        W 4525   6.855   4.862   0.807  0.1607 -0.2319 -0.1952
  462W        W 4526   5.318   9.680  11.018 -0.3957 -0.1065 -0.0332
  463W        W 4527  10.574  10.060   3.324  0.0207  0.1916  0.1968
  464W        W 4528   7.559   7.615   2.805  0.0246 -0.1024 -0.3034
  465W        W 4529   2.837   0.418   9.403  0.3057  0.1472 -0.0762
  466W        W 4530   9.251   4.245   3.038  0.3259 -0.1112  0.0285
  467W        W 4531   4.281   4.263  10.432 -0.1131 -0.1385  0.1988
  468W        W 4532   6.301   3.669   3.332 -0.1303  0.3076 -0.0425
  469W        W 4533   4.806   3.461  11.297 -0.1008  0.0193  0.0094
  470W        W 4534   8.041   7.712   3.431 -0.2575 -0.2136 -0.3672
  471W        W 4535   1.544   1.832   9.436 -0.2767 -0.0476 -0.1181
  472W        W 4536   9.768   3.782   3.625  0.0213 -0.1242 -0.1359
  473W        W 4537   8.425   5.971  10.854  0.2289 -0.0201 -0.1481
  474W        W 4538   1.468   1.886  10.107 -0.0716  0.0774  0.0981
  475W        W 4539   1.142   5.091   3.224 -0.1640  0.0818  0.0503
  476W        W 4540   4.566   0.789   9.076 -0.2860 -0.1479 -0.1823
  477W        W 4541  10.321   7.509   8.668  0.1298 -0.0068  0.0614
  478W        W 4542   9.487   4.892   1.495 -0.6355  0.2133 -0.0175
  479W        W 4543   5.220   8.602  11.022 -0.0850 -0.2110 -0.1680
  480W        W 4544  10.084   9.518   2.860  0.0155  0.0462  0.2350
  481W        W 4545   5.059   3.075   1.530 -0.1171 -0.0268  0.2767
  482W        W 4546   6.644   8.653   0.891 -0.1445  0.0772 -0.0285
  483W        W 4547   2.340   4.735   8.345 -0.0161  0.1241 -0.1006
  484W        W 4548   5.699   3.418   0.839 -0.0621 -0.1259  0.1496
  485W        W 4549   4.814   1.532   9.359  0.0921  0.0510 -0.0817
  486W        W 4550   8.813   4.737   0.293 -0.1292 -0.0132 -0.1139
  487W        W 4551   8.719   8.804  11.549  0.1579 -0.3814 -0.0809
  488W        W 4552   2.366   9.705   0.074 -0.1447 -0.4044  0.2181
  489W        W 4553   9.555   0.185   0.005 -0.2674  0.1426 -0.1890
  490W        W 4554   7.947  10.552   0.359  0.1750 -0.1964  0.0728
  491W        W 4555   4.327   7.748  11.564  0.2001  0.1723  0.1217
  492W        W 4556   7.645   7.885   1.656  0.1217 -0.1920 -0.3407
  493W        W 4557   1.463   7.554  10.903  0.0507  0.0910  0.2743
  494W        W 4558   8.250   4.604   9.615 -0.0405 -0.0804 -0.0015
  495W        W 4559   6.961   8.569  10.993 -0.3527  0.0047  0.4489
  496W        W 4560   6.962   0.986   8.032  0.0872 -0.3003  0.2154
  497W        W 4561   0.893   4.178   3.129  0.1518  0.0698 -0.0021
  498W        W 4562   1.967   5.760   0.903  0.2644  0.0883 -0.3261
  499W        W 4563   1.075   0.369  10.705  0.1993 -0.0200  0.1082
  500W        W 4564   6.092   9.420   9.838  0.2969  0.0187 -0.1580
  501W        W 4565   7.985   5.346  10.741  0.0808  0.1583  0.1763
  502W        W 4566   0.181   5.475  10.682 -0.1212  0.1618  0.0157
  503W        W 4567   9.203  10.285   0.609  0.0713  0.0063 -0.0464
  504W        W 4568   7.782   2.204   0.862 -0.1431 -0.0616 -0.0729
  505W        W 4569   7.155   7.527   7.839 -0.1271  0.2148 -0.0597
  506W        W 4570   1.564   4.047   9.708  0.0427  0.1990 -0.2734
  507W        W 4571   9.901   5.506   0.130 -0.0816 -0.1928  0.0593
  508W        W 4572   1.719   6.827   1.480 -0.2597  0.2318 -0.0136
  509W        W 4573   5.580   3.227   7.999 -0.2648 -0.0215 -0.1923
  510W        W 4574   4.044   5.339  11.590  0.4215 -0.0753  0.2011
  511W        W 4575   7.448   9.211   7.551 -0.0781  0.0797 -0.0724
  512W        W 4576   5.490   0.124  10.647 -0.0723 -0.3368 -0.3815
  513W        W 4577   4.281   7.103  10.197  0.2386 -0.0809 -0.0820
  514W        W 4578   1.420   3.392  11.171  0.4601  0.0203  0.0553
  515W        W 4579   7.570   7.520   7.536 -0.2693  0.1864  0.0702
  516W        W 4580   0.976  10.631   9.166  0.2015 -0.1330  0.0878
  517W        W 4581   2.698   9.361  10.397  0.0808 -0.0957  0.0023
  518W        W 4582  10.184   1.664  10.272  0.0042  0.2389 -0.1345
  519W        W 4583  10.586   2.341   2.494  0.1219 -0.1970 -0.2584
  520W        W 4584  10.204   1.061   2.665 -0.1680  0.0978  0.1548
  521W        W 4585   0.088   2.517   8.103  0.1183  0.0249  0.0053
  522W        W 4586   6.280   9.077   7.679 -0.2466 -0.1904  0.1003
  523W        W 4587   3.732   9.762   1.111  0.0147 -0.1027 -0.1666
  524W        W 4588   4.865   0.241   8.217 -0.2139  0.2757  0.1820
  525W        W 4589   9.959   8.380   8.566 -0.0735 -0.0324  0.1762
  526W        W 4590   2.362   0.001   0.765 -0.0341  0.2540  0.2977
  527W        W 4591   1.767   2.055   1.757 -0.0061  0.0871 -0.0753
  528W        W 4592   6.755   8.770  10.586 -0.1757  0.0708  0.2245
  529W        W 4593   4.772   4.873   0.523 -0.1813 -0.0023 -0.2458
  530W        W 4594   5.844   8.266   7.933 -0.2602 -0.3201  0.1156
  531W        W 4595  10.527   0.502   9.402  0.1428 -0.0948 -0.0349
  532W        W 4596   6.782   1.634   1.284  0.3128 -0.2547 -0.2395
  533W        W 4597   4.214  10.513  10.137 -0.0230 -0.1010 -0.1044
  534W        W 4598   2.526   0.507  11.166 -0.0425  0.2562 -0.0131
  535W        W 4599   2.694   0.607   2.178  0.1376 -0.0662 -0.0709
  536W        W 4600   5.123   5.878   8.112 -0.1038  0.2127  0.1125
  537W        W 4601   4.082   6.519   9.585  0.1558 -0.1006  0.1730
  538W        W 4602   3.842   2.754   1.856  0.1082  0.0335  0.0011
  539W        W 4603   9.144   8.361   7.635  0.3165  0.2013 -0.0847
  540W        W 4604   0.409   9.609   0.694 -0.0057  0.3267  0.1573
  541W        W 4605   2.946   9.639  10.045 -0.0080 -0.1131 -0.0744
  542W        W 4606   6.991   2.444   0.301 -0.0355  0.3464  0.1091
  543W        W 4607   6.643   5.344   9.506 -0.2746  0.1041  0.0168
  544W        W 4608   5.962   3.575   7.984 -0.1606 -0.1263 -0.0194
  545W        W 4609   8.911   7.459   2.955 -0.0957 -0.0062  0.1813
  546W        W 4610   9.332   3.662   9.373  0.0736 -0.1307  0.0138
  547W        W 4611   0.695  10.479   9.580  0.0409  0.0744 -0.1987
  548W        W 4612  10.419   5.033  10.267 -0.0693 -0.0862 -0.1564
  549W        W 4613   0.728   1.587   1.170 -0.1636 -0.0298 -0.1448
  550W        W 4614   4.748   5.582   1.024 -0.1557  0.0845 -0.3872
  551W        W 4615   2.143   8.300   3.168  0.1032 -0.0508  0.2190
  552W        W 4616   4.061   1.654   0.438 -0.1563 -0.3094 -0.0922
  553W        W 4617   4.598   5.462   3.356 -0.1317 -0.4049 -0.3218
  554W        W 4618   2.540  10.421   8.362  0.0530 -0.0223 -0.1710
  555W        W 4619   5.614   7.362  10.945  0.2728  0.1828 -0.1438
  556W        W 4620   6.179   9.349   2.996  0.0113 -0.0940 -0.2265
  557W        W 4621   7.754   0.270   0.059 -0.1997 -0.1079  0.2146
  558W        W 4622   3.209   5.292   1.170 -0.1762  0.0656 -0.0419
  559W        W 4623   3.112   1.326  10.917 -0.1723  0.0085  0.0968
  560W        W 4624   2.748   0.932   0.552 -0.1660 -0.3488  0.0011
  561W        W 4625   6.949   9.087   2.944  0.1641  0.1817  0.1202
  562W        W 4626   6.879   1.049  11.028  0.6303  0.0080 -0.2044
  563W        W 4627   9.273   0.486   2.092 -0.0382 -0.0498 -0.1599
  564W        W 4628   6.010   4.724   2.701 -0.1617  0.0691 -0.3574
  565W        W 4629   4.755   5.589   9.751  0.0692 -0.1919 -0.0982
  566W        W 4630   3.754   5.772   2.955 -0.0519  0.1378 -0.2057
  567W        W 4631   0.333   5.950  10.012 -0.2315  0.0719 -0.1330
  568W        W 4632  10.038   2.073  10.036  0.1004 -0.1356  0.2768
  569W        W 4633   5.163   7.037   8.865 -0.1409 -0.0614 -0.1736
  570W        W 4634   1.070   2.925   2.441  0.2426 -0.0283 -0.1272
  571W        W 4635   3.800   4.299   9.560 -0.1967  0.1430  0.0746
  572W        W 4636   3.238   6.404   7.295 -0.1095  0.1495  0.0086
  573W        W 4637   5.302   9.396   9.737 -0.1477  0.0178 -0.0583
  574W        W 4638   6.903   1.923   0.296 -0.3125 -0.1175  0.0814
  575W        W 4639   4.430   6.935  11.491 -0.0084  0.1759 -0.1996
  576W        W 4640   8.592   8.503   8.481 -0.0808 -0.2471 -0.0005
  577W        W 4641   5.084   3.103   9.175  0.0368  0.2343 -0.1007
  578W        W 4642   9.721   2.792   9.042  0.0058 -0.0229 -0.3033
  579W        W 4643   1.725   0.274  11.406 -0.1145  0.0555 -0.0513
  580W        W 4644   2.693   6.706   0.125  0.3271  0.1693 -0.0053
  581W        W 4645   4.498   1.617   2.815 -0.0071 -0.2761 -0.0234
  582W        W 4646   8.990   9.419   8.595  0.0061 -0.0900 -0.1625
  583W        W 4647   8.145   4.352   0.993  0.1342 -0.1023  0.0058
  584W        W 4648   7.168   7.600   8.868  0.0899  0.1332 -0.0710
  585W        W 4649   4.828   7.346   0.772  0.1990  0.1965 -0.0617
  586W        W 4650   5.757  10.368  10.443  0.0500  0.0860 -0.1089
  587W        W 4651   9.916   2.373   9.092  0.0102 -0.0898 -0.2206
  588W        W 4652   7.707   1.557   1.972 -0.2191  0.0399 -0.4000
  589W        W 4653   4.797   7.563   2.470 -0.0548  0.2476 -0.1154
  590W        W 4654   5.044   4.604   2.607 -0.2269  0.1099 -0.1274
  591W        W 4655  10.624   9.347   9.863 -0.1299 -0.0672  0.2724
  592W        W 4656   9.708   3.914   7.948  0.0012 -0.2179  0.3224
  593W        W 4657   7.112   5.348   9.717 -0.0857  0.1277  0.2208
  594W        W 4658  10.378   3.774   3.104  0.0326  0.0035 -0.1002
  595W        W 4659   4.476   7.207   1.721 -0.0445 -0.0975 -0.1239
  596W        W 4660   4.469   3.439  10.451 -0.0309  0.1331 -0.0486
  597W        W 4661   9.614   0.670   2.473  0.1807 -0.0341  0.2371
  598W        W 4662   0.848   6.510   1.157 -0.3013 -0.1422 -0.0197
  599W        W 4663   9.004   2.975   8.407  0.0066  0.1492 -0.3026
  600W        W 4664   8.769   6.897  11.095  0.0724 -0.1956  0.1528
  601W        W 4665   1.440   4.437  11.232  0.0927 -0.0718 -0.1701
  602W        W 4666   8.639   2.679   2.672 -0.0456  0.2811 -0.0754
  603W        W 4667   6.357   9.810  11.199 -0.1255 -0.3368  0.0822
  604W        W 4668   3.979   4.781  10.308  0.2729 -0.2057 -0.2306
  605W        W 4669   3.230   7.743   1.596 -0.2155 -0.1743  0.4060
  606W        W 4670   4.372   6.391   0.729 -0.3153  0.2812 -0.0844
  607W        W 4671   9.497   7.410  11.002 -0.3610 -0.2206 -0.0918
  608W        W 4672   3.278   0.736  10.135 -0.0821 -0.3112  0.0036
  609W        W 4673   7.756   3.119   1.114  0.2749  0.1949 -0.0666
  610W        W 4674  10.410   1.565   2.703 -0.2320  0.0595  0.1024
  611W        W 4675   5.455   8.496  10.640  0.1018 -0.0026 -0.0981
  612W        W 4676   9.838   8.197   1.106  0.0667  0.0693  0.0273
  613W        W 4677   6.101   8.635   8.880 -0.1258  0.3057  0.0165
  614W        W 4678   5.318   8.554   9.260 -0.1362 -0.0358 -0.0730
  615W        W 4679   7.971   6.411   2.228 -0.1721  0.1812  0.3887
  616W        W 4680   9.321   9.756   0.739  0.3124  0.2150  0.0976
  617W        W 4681   6.165   4.372   0.318 -0.0895  0.1281 -0.0131
  618W        W 4682   3.038   0.371   9.901 -0.1835  0.1021 -0.1870
  619W        W 4683   8.006   8.093   2.141 -0.0366  0.1362  0.0796
  620W        W 4684   6.390   8.957   0.008 -0.1831  0.0299 -0.1182
  621W        W 4685   0.662   5.243   0.352  0.0417  0.5983  0.1674
  622W        W 4686   5.185   6.915   1.723 -0.1090  0.1396 -0.2345
  623W        W 4687   4.952   9.797   1.209  0.0307 -0.1972  0.0446
  624W        W 4688   2.369   3.535   8.570 -0.0463 -0.1828  0.0816
  625W        W 4689   4.710   0.332   9.334  0.0711 -0.1387  0.2192
  626W        W 4690   9.039   9.387   2.396 -0.0678 -0.1947 -0.2837
  627W        W 4691   7.351   0.029   7.779 -0.0005  0.1757 -0.1666
  628W        W 4692   9.554   6.002  10.948  0.0891 -0.1605 -0.0045
  629W        W 4693   6.077   1.759   3.789 -0.0084 -0.1157 -0.2956
  630W        W 4694   9.394   7.798   9.422  0.2514  0.3281 -0.1950
  631W        W 4695   5.063   1.408   4.257 -0.0879 -0.1664 -0.0936
  632W        W 4696   5.021   2.413   8.145 -0.0543  0.0609  0.0571
  633W        W 4697   9.639   2.673   0.639  0.0139 -0.0417  0.0730
  634W        W 4698   6.280   7.607   0.913 -0.1848 -0.1412 -0.1796
  635W        W 4699   9.118  10.066   3.807 -0.0217 -0.2662  0.1679
  636W        W 4700   4.788   7.057   2.047  0.1812  0.0408 -0.2328
  637W        W 4701   8.041   4.385   7.956  0.0163 -0.0310 -0.0419
  638W        W 4702   3.903   3.964   2.617 -0.1545 -0.3689  0.1584
  639W        W 4703   5.335  10.065  11.327  0.0241  0.0308 -0.0044
  640W        W 4704   8.689   0.134   2.862 -0.1487  0.2282 -0.1074
  641W        W 4705   5.096   2.072   1.139  0.0227  0.0200  0.0272
  642W        W 4706   4.021   6.239  10.612 -0.1649  0.0665  0.1823
  643W        W 4707   2.361   9.773   9.651 -0.0648 -0.0583 -0.0688
  644W        W 4708   5.504   5.813   2.048 -0.2634 -0.1642 -0.2498
  645W        W 4709   9.355   8.613   2.590  0.1218 -0.2569 -0.0493
  646W        W 4710   6.256  10.283   7.096  0.2934  0.1588  0.0181
  647W        W 4711   1.910   1.873   2.200 -0.2896 -0.0446 -0.1057
  648W        W 4712   8.282   9.957   2.169 -0.0453 -0.1680 -0.0365
  649W        W 4713   1.427   5.010   2.256  0.2789  0.2086  0.0636
  650W        W 4714   3.690   6.759   0.755 -0.0057 -0.0395 -0.1216
  651W        W 4715   2.642   5.985  10.276 -0.2197  0.0902 -0.1105
  652W        W 4716   4.924   6.718   3.103 -0.3591  0.0135 -0.0372
  653W        W 4717   7.291   0.154  10.584 -0.1406  0.0896  0.0491
  654W        W 4718   2.692   7.487   7.734  0.0437  0.0223 -0.1932
  655W        W 4719   5.854   0.241  11.059  0.0283  0.2689  0.3506
  656W        W 4720   9.188   3.743   1.245  0.1185 -0.1682 -0.0739
  657W        W 4721   8.836   9.371   0.044  0.1386  0.1987  0.0658
  658W        W 4722   5.207   4.822   4.226  0.2766  0.0329  0.0243
  659W        W 4723   2.411   6.188  11.275  0.1603 -0.3835 -0.2498
  660W        W 4724   5.277   7.447   8.618 -0.0910  0.2530 -0.0110
  661W        W 4725   4.621   7.517   8.773  0.3719  0.0451 -0.1036
  662W        W 4726   5.277   8.208   2.762  0.0198 -0.4728  0.2112
  663W        W 4727   0.038   4.758   7.048 -0.0249 -0.0973  0.0541
  664W        W 4728   4.266   2.073  11.166  0.1459  0.0597  0.1004
  665W        W 4729   5.534   0.963   8.934 -0.3396 -0.1079  0.1622
  666W        W 4730   6.604   8.242   8.545 -0.3340  0.1089  0.1045
  667W        W 4731   4.707   4.615   3.055 -0.1487 -0.1254 -0.1743
  668W        W 4732   5.426   3.676   7.457 -0.1457  0.1930  0.0657
  669W        W 4733   6.405  10.023   7.699 -0.2050  0.1160 -0.1226
  670W        W 4734   8.447   6.964   8.834  0.0358 -0.1450  0.3318
  671W        W 4735   6.643   4.420   9.853 -0.0255  0.1366 -0.0454
  672W        W 4736  10.508   0.292   9.864  0.0348  0.0878  0.1899
  673W        W 4737   1.806   5.973  10.805 -0.1243  0.0705 -0.0010
  674W        W 4738   7.167   7.254  11.574 -0.2233  0.0345 -0.1339
  675W        W 4739   5.754   3.013   9.471  0.1534 -0.2170 -0.1918
  676W        W 4740   2.487   8.823   9.639 -0.4374 -0.0238  0.1946
  677W        W 4741   5.487   4.889   8.652 -0.0082  0.0168  0.1242
  678W        W 4742   3.935  10.237   3.150 -0.1693  0.2162 -0.2762
  679W        W 4743   6.215   0.492   2.392 -0.0224  0.1276  0.0145
  680W        W 4744   1.308   6.120  10.283 -0.1171  0.0781 -0.0298
  681W        W 4745   9.314   1.602   0.146 -0.2652 -0.2648  0.0086
  682W        W 4746   4.709   4.217   2.556 -0.0123  0.0083 -0.2633
  683W        W 4747   5.071   8.143   8.197 -0.2022 -0.1861  0.3819
  684W        W 4748   2.332   1.342  11.376 -0.1054 -0.1246 -0.1833
  685W        W 4749   2.024   9.951   3.994 -0.3366 -0.1503  0.0403
  686W        W 4750   9.681   2.820   3.548  0.3030 -0.2623 -0.1750
  687W        W 4751   1.168   1.718   9.732  0.1227  0.0119 -0.4212
  688W        W 4752   0.994   4.174   1.300  0.2286 -0.1033  0.1059
  689W        W 4753   5.620   2.719   1.413  0.0374  0.0895  0.0558
  690W        W 4754   9.138   9.556  10.775 -0.0000  0.1472 -0.2967
  691W        W 4755   2.370   6.052   3.793 -0.0218  0.1955 -0.1523
  692W        W 4756   6.197   7.549   7.522  0.1648 -0.0895  0.1032
  693W        W 4757   6.416  10.325   0.883  0.2666  0.1800  0.3598
  694W        W 4758   6.346   4.038   7.776 -0.1033 -0.1259  0.0416
  695W        W 4759   9.123   7.272   0.320  0.0394 -0.0334 -0.1076
  696W        W 4760   2.167   3.614   0.166  0.1101  0.0710  0.3800
  697W        W 4761   6.624   1.435   3.873  0.1133 -0.1552  0.0545
  698W        W 4762   8.024   3.742   0.213  0.0538  0.1882  0.1190
  699W        W 4763   0.682   3.809   2.368 -0.0909  0.0990  0.0718
  700W        W 4764   3.233   6.370   9.246 -0.2591 -0.1494  0.1237
  701W        W 4765   3.764   2.791   1.135 -0.0646 -0.1286 -0.0504
  702W        W 4766   1.499   5.516  10.757  0.0019 -0.0175  0.1685
  703W        W 4767   3.913   1.071   0.523  0.2528  0.0281  0.1078
  704W        W 4768   2.503   4.799  11.371  0.1345 -0.2222 -0.1950
  705W        W 4769   9.698   6.970   2.965 -0.1323  0.2742  0.2672
  706W        W 4770   0.591   5.729   9.652  0.1524  0.0657  0.2342
  707W        W 4771   7.692   0.806  11.266 -0.3616  0.2819  0.2225
  708W        W 4772   9.506   4.380   0.950 -0.0321 -0.1594 -0.2019
  709W        W 4773   4.166   3.766  10.728 -0.1727  0.3272  0.1837
  710W        W 4774   8.860   9.664   9.334  0.0404  0.2742  0.0820
  711W        W 4775   9.154   5.881  11.325  0.0012  0.1080 -0.1925
  712W        W 4776   1.698   1.737  11.157 -0.3422  0.1877  0.2050
  713W        W 4777   0.948   4.952   9.556  0.0280  0.0129 -0.1745
  714W        W 4778   6.154   8.146   9.466  0.1960 -0.2651  0.2563
  715W        W 4779   5.267  10.547   2.104  0.1600  0.1826 -0.1534
  716W        W 4780   0.730   2.348   9.334 -0.0335  0.0631  0.0616
  717W        W 4781  10.243   0.729   0.442  0.0021  0.3782 -0.1440
  718W        W 4782   6.242   5.487   8.792  0.0748  0.1031 -0.0096
  719W        W 4783   8.666   0.052  10.088  0.0281 -0.4376 -0.0049
  720W        W 4784   3.161   6.061   2.454  0.1434 -0.0039 -0.0355
  721W        W 4785   1.258   3.209   1.249  0.0318 -0.0038 -0.2125
  722W        W 4786   9.989   3.462   9.911 -0.5066 -0.1530  0.0201
  723W        W 4787   8.582   8.702   1.016  0.1838 -0.1983  0.0216
  724W        W 4788   6.511   1.185   8.560  0.1220 -0.1832  0.3331
  725W        W 4789   6.633   1.031   3.144  0.3023  0.1837 -0.2522
  726W        W 4790   9.895   4.053   0.536 -0.1119 -0.1375  0.0078
  727W        W 4791   9.394   6.402   8.096  0.3301  0.0618  0.0830
  728W        W 4792   1.230   3.860   9.301  0.1183 -0.5110  0.1102
  729W        W 4793   2.365   5.282   0.384  0.1356  0.2042 -0.0849
  730W        W 4794   5.296  10.056   6.839 -0.2526  0.1063 -0.4074
  731W        W 4795  10.315   4.557  10.024  0.2372  0.0262  0.2906
  732W        W 4796   8.667   5.803   7.716  0.2030 -0.1959  0.3356
  733W        W 4797   3.714  10.081   8.071 -0.0876 -0.0428  0.2430
  734W        W 4798   1.986   4.196   2.422  0.1014  0.1639 -0.2781
  735W        W 4799   6.633   5.186   9.020 -0.1504 -0.2122  0.0098
  736W        W 4800   6.243   0.478  11.346 -0.1399  0.2103  0.1110
  737W        W 4801   9.299   6.613   0.784  0.1871 -0.0274  0.2608
  738W        W 4802   4.015   9.114   9.397  0.2524 -0.3234 -0.0215
  739W        W 4803   3.891   6.251   7.392 -0.1560  0.0402  0.1942
  740W        W 4804   5.586  10.419   9.530 -0.1433  0.0428  0.1318
  741W        W 4805   4.938   9.858   2.468  0.0959  0.1998  0.2181
  742W        W 4806   2.598   2.006   1.382 -0.0936 -0.0356 -0.2512
  743W        W 4807   0.680   5.344   7.529  0.0209 -0.0177  0.1821
  744W        W 4808   5.493   8.760   7.089 -0.0725  0.2802  0.3431
  745W        W 4809   1.616   7.841   9.217 -0.1867 -0.2382  0.0998
  746W        W 4810   4.316   3.687   1.201  0.0349  0.0367 -0.3185
  747W        W 4811   0.368   4.714   3.638 -0.1367 -0.1291  0.2329
  748W        W 4812   4.023   0.665   0.853  0.2006 -0.5248 -0.1520
  749W        W 4813   0.456   8.717  10.474 -0.2868  0.0798 -0.1136
  750W        W 4814   4.361   2.934   9.597  0.1069 -0.0160  0.0729
  751W        W 4815   9.873   5.638   0.650  0.0375 -0.2113 -0.0524
  752W        W 4816   7.241   9.563   1.595 -0.1001  0.0751  0.2407
  753W        W 4817   6.999   2.936   9.810 -0.2662  0.0969 -0.1239
  754W        W 4818   0.002   6.848   3.215 -0.4898  0.0619  0.0695
  755W        W 4819   7.912   9.285   2.885  0.2058 -0.1274 -0.1560
  756W        W 4820   4.934   9.780   9.775  0.1770  0.1010 -0.1642
  757W        W 4821  10.488   0.793  10.232  0.0753 -0.1866 -0.2008
  758W        W 4822   1.425   4.134   0.096  0.2093  0.1256 -0.1190
  759W        W 4823   7.142  10.190   9.102 -0.1558 -0.4188  0.2832
  760W        W 4824   4.861   7.167   8.497  0.0306 -0.0076 -0.0741
  761W        W 4825   0.432   9.433   9.234 -0.1640 -0.4589  0.0341
  762W        W 4826   4.281   4.026   9.598 -0.0579  0.3307  0.1531
  763W        W 4827   6.800   7.344   8.563  0.2784  0.0031  0.1782
  764W        W 4828   0.086   8.058   8.644  0.1601  0.1100  0.0276
  765W        W 4829   8.497   3.246   9.521  0.0948 -0.1191  0.0489
  766W        W 4830   5.421   2.088   8.302 -0.0568 -0.0976 -0.1344
  767W        W 4831   6.695   4.164   8.201  0.0626 -0.1313  0.1441
  768W        W 4832   5.378   9.086   3.479  0.0168  0.1370  0.1723
  769W        W 4833   4.153   9.419   1.803 -0.0412 -0.1627 -0.1858
  770W        W 4834   6.943   3.800   3.282  0.5034 -0.0008 -0.2167
  771W        W 4835   4.234   0.322   9.069  0.1983  0.1878  0.1206
  772W        W 4836   9.875   9.464   3.348 -0.2081 -0.0610  0.0423
  773W        W 4837   8.102   6.536   8.114  0.1594  0.0484  0.1912
  774W        W 4838   8.970   6.072  10.136 -0.5922 -0.0575  0.2060
  775W        W 4839   2.506   8.933   1.318 -0.1000  0.0476 -0.0952
  776W        W 4840   3.371   5.697   8.444  0.1111  0.1183  0.0158
  777W        W 4841   9.869  10.205   1.774  0.3523  0.3744 -0.0523
  778W        W 4842   6.020   3.105   2.532  0.1790  0.0271  0.0283
  779W        W 4843   8.783   6.897   9.804  0.2422  0.0447  0.3495
  780W        W 4844   5.656   9.500   7.847  0.0532  0.0683 -0.1007
  781W        W 4845   3.205   2.804  10.467 -0.0848  0.1201  0.1702
  782W        W 4846   1.634   8.469   2.291  0.1771  0.2281 -0.2198
  783W        W 4847   6.458   6.694   7.577 -0.1444 -0.0534 -0.0880
  784W        W 4848   9.852   7.884   3.465  0.1036 -0.0710 -0.2750
  785W        W 4849   6.674   7.647   1.697  0.0873 -0.0058  0.2173
  786W        W 4850   4.447  10.294   3.404 -0.1380 -0.0593 -0.1344
  787W        W 4851   3.762   2.153   8.586 -0.0474  0.0754  0.3195
  788W        W 4852   5.582   7.807   1.396 -0.1435 -0.2401 -0.0073
  789W        W 4853   5.988   4.224   1.742  0.2215 -0.0207 -0.3278
  790W        W 4854   6.860   6.610   7.895  0.0225 -0.2411 -0.2138
  791W        W 4855   8.710   3.202  10.859 -0.1203 -0.1753 -0.0427
  792W        W 4856   3.731   2.681   8.418  0.0251  0.1576 -0.0690
  793W        W 4857   8.574   3.190  10.016 -0.1037 -0.0621 -0.1263
  794W        W 4858   3.167  10.406   1.863 -0.0578  0.0997  0.2460
  795W        W 4859   9.467   5.814  10.116  0.2122 -0.1527  0.1497
  796W        W 4860  10.314   4.354  11.459 -0.2076  0.1364  0.1448
  797W        W 4861   8.076   8.879   3.186  0.1168  0.2850  0.1104
  798W        W 4862  10.160   9.499   1.095 -0.0002 -0.1284  0.1466
  799W        W 4863   5.478   7.210   9.229  0.0927  0.0361 -0.3619
  800W        W 4864   6.551   2.539   8.906  0.0617 -0.0897  0.1806
  801W        W 4865   3.969   0.326   0.287  0.2104 -0.0969 -0.1014
  802W        W 4866   1.137   5.906  11.578 -0.0082 -0.2825  0.0552
  803W        W 4867   4.345   2.545   0.568  0.0978  0.0586  0.1823
  804W        W 4868   6.570   1.513   8.962 -0.1147  0.1170 -0.2294
  805W        W 4869   9.496   3.472   2.220 -0.2007 -0.2073  0.1318
  806W        W 4870   4.500   7.882   3.248  0.2783 -0.0829 -0.1147
  807W        W 4871   3.059   4.425   2.725  0.0518 -0.3705 -0.0731
  808W        W 4872   9.142   2.166   7.799 -0.1945  0.0583 -0.0550
  809W        W 4873   6.187   9.534   7.885  0.2987  0.0942  0.1649
  810W        W 4874   1.253   8.070   3.371  0.0378 -0.0471  0.1639
  811W        W 4875   8.119   6.053   3.232  0.0790 -0.2982  0.2480
  812W        W 4876   5.840   5.549   9.963 -0.0261  0.4933  0.1311
  813W        W 4877   7.207   3.461   0.652  0.1398  0.2795  0.1904
  814W        W 4878   9.483   9.211   1.300 -0.2769 -0.1752 -0.3872
  815W        W 4879   8.984  10.148   9.582  0.1581  0.0549 -0.0565
  816W        W 4880   1.613  10.492   9.555  0.0411 -0.0976  0.0367
  817W        W 4881   8.372   8.067   8.632 -0.1391  0.0824  0.0033
  818W        W 4882   7.332   8.736   9.111 -0.0778 -0.2489 -0.1639
  819W        W 4883   2.508   6.134   2.946 -0.1575 -0.0772 -0.4479
  820W        W 4884   8.847   3.501   9.168  0.1550 -0.1000 -0.1442
  821W        W 4885   5.922   0.421   1.151 -0.0325  0.1052 -0.0140
  822W        W 4886   7.413   2.250  11.293 -0.1254  0.0323 -0.1644
  823W        W 4887   1.151   2.680   9.558  0.1118  0.0927 -0.0755
  824W        W 4888   9.202   2.557   8.112  0.1347  0.0780 -0.0502
  825W        W 4889   7.091   7.633   3.437  0.0695 -0.1085  0.0035
  826W        W 4890   1.662   7.286   9.463  0.2438 -0.1016 -0.1746
  827W        W 4891   5.619   7.863   4.014  0.1203 -0.1296  0.1188
  828W        W 4892   4.410   0.477   3.166 -0.1689 -0.1855  0.0256
  829W        W 4893   1.205   3.430   8.460  0.1019  0.1124  0.0068
  830W        W 4894   9.083   6.940   8.195  0.2202 -0.2941  0.3179
  831W        W 4895   0.396   4.701   2.270 -0.3894 -0.0304 -0.2950
  832W        W 4896   5.700   8.397   1.828  0.0029  0.0055  0.1591
  833W        W 4897   0.222   8.499  11.103  0.2891  0.0874 -0.0833
  834W        W 4898   0.253   7.911   0.553 -0.1071 -0.0555 -0.0942
  835W        W 4899   2.712   5.738  11.205  0.2468 -0.1799 -0.2729
  836W        W 4900   3.003   1.826  10.709  0.0762  0.0642  0.1671
  837W        W 4901   6.533   9.301   2.590  0.0367  0.0434  0.0761
  838W        W 4902   1.069   1.740   8.554  0.0081  0.0059  0.1657
  839W        W 4903  10.394   0.220   3.843 -0.0160 -0.0167 -0.1792
  840W        W 4904   1.805   7.792   9.690 -0.2991  0.1724  0.1735
  841W        W 4905   0.440  10.171   9.846 -0.0556  0.0221 -0.1423
  842W        W 4906   5.279   0.199   9.611  0.0309 -0.2834 -0.0796
  843W        W 4907   2.145   4.784   2.547  0.5264 -0.1743 -0.0683
  844W        W 4908   5.314   7.973   8.601 -0.1286  0.1048  0.0837
  845W        W 4909   7.689   1.658   7.932 -0.2379  0.0931  0.0335
  846W        W 4910   7.499   6.901  10.983  0.1681  0.0634  0.0688
  847W        W 4911   9.185   7.506   0.891 -0.0146  0.3258 -0.0083
  848W        W 4912   7.177   5.899   8.776  0.3279 -0.2647 -0.1211
  849W        W 4913   1.999  10.379   1.588 -0.1167 -0.1503 -0.0486
  850W        W 4914   0.562   1.129   9.303 -0.3273 -0.1791  0.0230
  851W        W 4915   8.786   5.727   0.141  0.2732 -0.0268  0.2188
  852W        W 4916   2.956   1.337   4.097 -0.3650  0.1505 -0.0290
  853W        W 4917   7.028   3.250   8.398  0.2320 -0.1201  0.0376
  854W        W 4918   2.083   5.828   2.871  0.0727 -0.1470 -0.4071
  855W        W 4919   1.255   8.822   1.405 -0.0045  0.0160  0.0347
  856W        W 4920   8.251   1.690   8.777 -0.0208 -0.1838 -0.1926
  857W        W 4921   4.583  10.247   1.052 -0.0214  0.0088  0.1810
  858W        W 4922   3.064   7.918   3.325  0.3515  0.3184  0.0504
  859W        W 4923   2.102   0.003   9.670  0.2613 -0.1401 -0.1049
  860W        W 4924   4.904   7.908   7.776 -0.0010 -0.0744 -0.0618
  861W        W 4925   7.256   0.890   2.047 -0.0418  0.1032 -0.4446
  862W        W 4926   4.750   1.010   7.873  0.1497 -0.0367  0.0977
  863W        W 4927   9.090  10.278   8.680 -0.1532 -0.0258 -0.0050
  864W        W 4928   5.982   7.507  10.079  0.0632  0.0205 -0.2174
  865W        W 4929   8.411   9.149  11.347 -0.1517  0.0615 -0.1812
  866W        W 4930   7.477  10.261   2.142 -0.1330  0.0070  0.0647
  867W        W 4931   9.247   5.407  10.960  0.4874  0.0944 -0.0143
  868W        W 4932   2.944   1.647  10.007 -0.1930 -0.1744 -0.1497
  869W        W 4933   7.059  10.105   0.326 -0.1132  0.0280  0.1404
  870W        W 4934   3.047   0.875   9.385  0.0468 -0.1411  0.0254
  871W        W 4935   2.257   2.683   0.065 -0.1182  0.1184 -0.3101
  872W        W 4936   0.807   9.861   1.267 -0.1754 -0.0548 -0.4058
  873W        W 4937   6.245   7.610   0.088  0.2849 -0.4494 -0.0828
  874W        W 4938   9.901   1.200   1.161  0.0073  0.1348  0.3380
  875W        W 4939   4.959   8.512   0.966 -0.1862  0.0051  0.1780
  876W        W 4940   5.746   6.899  10.016  0.2816  0.0837 -0.2267
  877W        W 4941   2.948   8.309   0.876 -0.0367  0.0537  0.4616
  878W        W 4942   4.701   7.345  11.563  0.1195 -0.0976  0.1970
  879W        W 4943   2.145   9.205   0.820  0.1337 -0.1243 -0.0347
  880W        W 4944   9.098   2.987   2.762  0.2435  0.0096 -0.1148
  881W        W 4945   8.008   6.520   3.741 -0.1412  0.0415 -0.0241
  882W        W 4946   7.319   5.431  11.358 -0.0214  0.0857  0.0782
  883W        W 4947   4.185   8.279   8.359 -0.0339  0.1592 -0.0168
  884W        W 4948   7.725   0.561   0.867  0.3648  0.1304  0.0762
  885W        W 4949   0.113   8.377   1.937  0.1092 -0.1877 -0.2866
  886W        W 4950   0.413   0.321  11.049  0.3200 -0.1098 -0.1781
  887W        W 4951   5.930   5.078   2.247  0.2964  0.0857  0.0586
  888W        W 4952   3.876   4.521   1.614  0.1272  0.0056  0.0219
  889W        W 4953   9.560   6.218   9.848  0.2574 -0.2894  0.0982
  890W        W 4954   8.144   0.465   1.064  0.1063  0.0898  0.2499
  891W        W 4955   2.961   1.325   1.232 -0.4082 -0.3575  0.1084
  892W        W 4956   9.324   9.767   9.516  0.1946  0.1736  0.0747
  893W        W 4957   7.580   8.925   0.444 -0.2403  0.0367 -0.0441
  894W        W 4958   3.428   4.497   1.320  0.0284 -0.1194  0.2219
  895W        W 4959   6.712   3.819  11.468 -0.0305  0.0390  0.0320
  896W        W 4960   8.316   2.902   0.662 -0.0736 -0.2073 -0.0618
  897W        W 4961  10.023   9.606  11.200 -0.2688 -0.3456 -0.0277
  898W        W 4962  10.059   4.134   3.346  0.1619  0.0691  0.0866
  899W        W 4963   2.813   1.758   9.451  0.1289 -0.2090  0.1065
  900W        W 4964   1.813   5.279   9.343 -0.1069  0.1046  0.0343
  901W        W 4965   5.797   4.097   0.428  0.1286  0.0066 -0.0771
  902W        W 4966   7.672   0.433   9.683  0.0858  0.0401  0.2385
  903W        W 4967   1.905   4.176   1.338  0.0910  0.0958  0.1286
  904W        W 4968   7.910   1.266   8.156  0.1767 -0.0509  0.0948
  905W        W 4969   1.494   8.115   0.838 -0.2251  0.0553 -0.0765
  906W        W 4970   5.465   0.527   7.270 -0.3585 -0.0215  0.5291
  907W        W 4971   4.215   4.752   3.065  0.2758  0.2170 -0.1278
  908W        W 4972   3.139   1.259   0.615 -0.0590 -0.3195 -0.1278
  909W        W 4973   6.815  10.520  10.318 -0.0319 -0.2242 -0.0933
  910W        W 4974   1.172   9.728   2.616  0.0745 -0.1507  0.1847
  911W        W 4975  10.459   7.309   8.119 -0.0870  0.2272 -0.0788
  912W        W 4976   9.277   6.908  11.131 -0.2844  0.2888  0.1264
  913W        W 4977   3.161   0.245   2.039  0.4008 -0.4758 -0.2268
  914W        W 4978   7.046   2.322   2.971 -0.2136 -0.2998 -0.2659
  915W        W 4979   6.448   3.348   2.758  0.1813  0.1668  0.0029
  916W        W 4980   1.060   6.007   3.876 -0.2592 -0.0032  0.2274
  917W        W 4981   1.600   4.981   2.998  0.1943  0.2087 -0.3646
  918W        W 4982   9.750   1.280  10.594 -0.2465 -0.0200  0.2783
  919W        W 4983   1.837  10.521   8.604 -0.0898 -0.2198 -0.1518
  920W        W 4984   9.936   2.649   9.569  0.0878 -0.0346  0.1294
  921W        W 4985   9.468   5.995   8.569 -0.0881  0.0097  0.2323
  922W        W 4986   1.462   5.954   2.136 -0.0758  0.2921  0.1682
  923W        W 4987   3.628   3.862   0.004  0.2018  0.4470  0.4582
  924W        W 4988   8.152   3.167  10.321 -0.1521  0.1921  0.3345
  925W        W 4989   0.832  10.479   0.448 -0.1209 -0.2278  0.1452
  926W        W 4990   4.035   3.646   3.302 -0.3477  0.1471  0.0714
  927W        W 4991   1.985   6.646   9.954  0.3799 -0.0188  0.2975
  928W        W 4992   0.833   7.710  11.238 -0.0576  0.1745 -0.2087
  929W        W 4993   7.527   3.956   0.494 -0.3482 -0.2260 -0.0960
  930W        W 4994   1.516   2.966   2.108 -0.0307  0.1271  0.1337
  931W        W 4995   9.556  10.260   8.846  0.1682 -0.0179  0.1596
  932W        W 4996   4.680   0.013   2.964 -0.0624 -0.2679  0.0458
  933W        W 4997   3.756   5.473   9.937  0.2166 -0.0728 -0.0065
  934W        W 4998   1.512   3.170   0.422  0.2981  0.2566  0.1541
  935W        W 4999   5.499   4.297   9.504 -0.3887 -0.3250 -0.1399
  936W        W 5000   6.369   8.053   7.725  0.0398  0.1871 -0.0333
  937W        W 5001   8.456   6.507   9.092 -0.0268 -0.0993 -0.2349
  938W        W 5002   1.563   0.565   2.534 -0.2605 -0.0579 -0.1212
  939W        W 5003   2.862   6.532   1.308 -0.1096 -0.1685 -0.0714
  940W        W 5004   3.511   2.216  10.521  0.0562  0.3164  0.3186
  941W        W 5005   0.212   8.439   0.555 -0.0368 -0.4262  0.0340
  942W        W 5006   7.351   0.888  10.354 -0.0041 -0.0716  0.0805
  943W        W 5007   1.790   9.578   0.999 -0.0002  0.0129  0.1736
  944W        W 5008   9.972   4.209   8.265  0.0514 -0.2614  0.0653
  945W        W 5009   1.029   4.827   1.507  0.2358  0.0888  0.1338
  946W        W 5010   2.416   8.585  10.643  0.0235 -0.2390  0.0154
  947W        W 5011   2.128  10.565   0.256  0.0708 -0.0330 -0.3207
  948W        W 5012   2.838   7.930   2.825 -0.3396  0.3253 -0.1877
  949W        W 5013   4.459   4.567   8.151 -0.0875 -0.2131 -0.1090
  950W        W 5014   8.054   0.917   0.880 -0.0490 -0.0526 -0.1335
  951W        W 5015   7.424   9.974  11.554  0.3042  0.2164 -0.2061
  952W        W 5016   9.056   6.625   7.806 -0.3959 -0.1730  0.1348
  953W        W 5017   0.637   6.189  10.424  0.2889 -0.2398 -0.1838
  954W        W 5018   4.901   9.366   1.531 -0.0692  0.2364  0.1577
  955W        W 5019   1.148   6.859   9.274 -0.1711 -0.0878  0.2029
  956W        W 5020   3.189   5.110  10.722 -0.1517 -0.2103  0.3910
  957W        W 5021   4.130   8.436   2.073 -0.0191  0.1323 -0.1775
  958W        W 5022   9.211   0.606   9.122  0.1477  0.0330 -0.4239
  959W        W 5023   7.348   8.812   8.568 -0.1666  0.1770 -0.0329
  960W        W 5024   4.314   1.129   3.023 -0.3958 -0.0734  0.0983
  961W        W 5025   7.194   6.523   1.102 -0.3926 -0.2435 -0.1684
  962W        W 5026   5.234   7.637   9.817 -0.0488  0.0587  0.0078
  963W        W 5027   8.295   7.575   8.754 -0.3487  0.2322  0.5608
  964W        W 5028   1.568   9.112  10.909 -0.0157  0.0301  0.1851
  965W        W 5029  10.421   7.156   2.327  0.2195 -0.3405  0.1206
  966W        W 5030   4.839   9.857  10.271 -0.0818 -0.0821  0.2239
  967W        W 5031   4.204   1.718  10.145 -0.1068 -0.0476 -0.2320
  968W        W 5032   2.757   7.948   8.663  0.0917 -0.1016 -0.2847
  969W        W 5033   5.907   0.788   1.532  0.1676  0.0970 -0.0960
  970W        W 5034   6.076   4.823   0.082 -0.0855 -0.1133 -0.1084
  971W        W 5035   8.396   7.196   2.159  0.2425  0.1044 -0.0097
  972W        W 5036   3.171   1.182   9.919 -0.0779  0.0331 -0.3160
  973W        W 5037   3.475   2.246   3.275 -0.0743 -0.2108  0.0778
  974W        W 5038   9.515   7.014   0.449 -0.5892 -0.3120  0.0124
  975W        W 5039   5.334   7.374   3.352 -0.0597 -0.1566  0.0523
  976W        W 5040   6.475   7.851   8.133 -0.3963  0.1009  0.1095
  977W        W 5041   5.352   0.539   2.084 -0.1119 -0.1069  0.2394
  978W        W 5042   4.087   4.854   9.821 -0.0696 -0.2835  0.0909
  979W        W 5043   4.314   4.738   1.495 -0.1487  0.0224 -0.0856
  980W        W 5044   8.761   0.684   2.217  0.1294  0.0039  0.1612
  981W        W 5045  10.192   3.728  10.352  0.0405 -0.0720  0.0172
  982W        W 5046   1.186  10.249   9.508  0.0810 -0.2340  0.2650
  983W        W 5047   6.712   4.757   1.801 -0.0378 -0.1894  0.2480
  984W        W 5048   9.847   6.693   8.825  0.1965  0.1174 -0.2332
  985W        W 5049   1.295   6.822   2.569 -0.2644  0.0225  0.0166
  986W        W 5050   6.409   8.089   0.963 -0.1218 -0.0800  0.1470
  987W        W 5051   3.800   8.868   3.731 -0.3085  0.1036  0.1141
  988W        W 5052  10.484   1.800   1.330  0.2682  0.2210 -0.4013
  989W        W 5053   2.996   2.703   2.054  0.1171 -0.1580 -0.2692
  990W        W 5054   7.348   2.142   0.163  0.1541 -0.0285 -0.0909
  991W        W 5055   7.478   4.632   0.002  0.3217 -0.2796  0.2420
  992W        W 5056   8.944   0.714   1.293 -0.0757 -0.2108  0.0413
  993W        W 5057   3.121   9.274   0.005 -0.1942  0.1602 -0.0064
  994W        W 5058   4.738   1.486   0.259  0.2161  0.0853  0.2014
  995W        W 5059   5.626   4.319   2.576  0.0519  0.1446  0.0454
  996W        W 5060   1.268   6.755  11.066 -0.1109  0.3872  0.1457
  997W        W 5061   6.346   1.290   0.083  0.0983  0.4856  0.1310
  998W        W 5062   7.639   2.094   8.277 -0.0059  0.1025 -0.3007
  999W        W 5063   3.107   4.777   1.049  0.0704 -0.0315  0.0527
 1000W        W 5064  10.390   6.254   8.273 -0.1815  0.0826  0.1334
 1001W        W 5065   5.373  10.021   9.508 -0.1995  0.2252  0.0971
 1002W        W 5066   2.075   4.956   8.858  0.3123  0.3482  0.0198
 1003W        W 5067   1.318   7.243   8.685  0.0811 -0.0346 -0.0894
 1004W        W 5068   4.163   1.200  11.259 -0.0784  0.3151 -0.1616
 1005W        W 5069   1.619   5.074   7.975  0.2027  0.1524  0.4274
 1006W        W 5070   1.152   4.312   7.748 -0.3062  0.4607 -0.0772
 1007W        W 5071   6.279   7.101   3.420  0.1853  0.0446 -0.0125
 1008W        W 5072   9.092   6.518   9.861  0.0571  0.2292 -0.0742
 1009W        W 5073   9.685   4.806   7.608  0.3593 -0.0130 -0.1768
 1010W        W 5074   0.937   6.522  10.800 -0.0065  0.2143  0.0066
 1011W        W 5075   7.228   8.365  11.430 -0.1238 -0.0309  0.4956
 1012W        W 5076   7.393   9.833   2.537  0.2457 -0.1009  0.0793
 1013W        W 5077   5.577   0.383   0.848 -0.0326  0.0200  0.2219
 1014W        W 5078   6.925   6.709   9.162  0.1473  0.0143  0.0659
 1015W        W 5079   6.583   6.389   0.794  0.3551 -0.0694 -0.3491
 1016W        W 5080   0.479   0.393   2.658  0.1000 -0.0917  0.1702
 1017W        W 5081   4.732   3.449   7.943  0.0973  0.0202 -0.0021
 1018W        W 5082   2.323   4.419   2.125 -0.4145 -0.1816 -0.1333
 1019W        W 5083   9.653   9.803  11.530  0.1024  0.2057  0.1137
 1020W        W 5084   6.360   9.208   8.221  0.0230 -0.1909 -0.0384
 1021W        W 5085   7.489   1.224   8.494 -0.2259 -0.2279 -0.2128
 1022W        W 5086   2.250   0.627   1.230  0.3943  0.0371  0.1407
 1023W        W 5087   0.036   3.261   9.319 -0.0980  0.1129 -0.2706
 1024W        W 5088   2.562   4.960   2.931  0.0509  0.2492 -0.1534
 1025W        W 5089   3.029  10.158   1.152 -0.2044  0.1096  0.1469
 1026W        W 5090   9.578   8.048   7.608  0.2423 -0.2403  0.0901
 1027W        W 5091   7.438   6.283  10.073  0.2684 -0.1555 -0.2374
 1028W        W 5092   4.161   2.115   2.904  0.0430 -0.2051 -0.0491
 1029W        W 5093   0.684   3.376   0.921  0.0224 -0.0609 -0.0844
 1030W        W 5094   6.248   9.113  10.714  0.3850  0.0866 -0.0871
 1031W        W 5095   6.933   9.999   0.921 -0.0454  0.0601  0.1722
 1032W        W 5096   6.838   1.976   8.936  0.1118  0.0229 -0.1961
 1033W        W 5097   8.030   4.308   2.520  0.5370  0.0352 -0.1832
 1034W        W 5098   4.042   4.007   1.575  0.1754  0.0624  0.0011
 1035W        W 5099   5.283   7.661   0.562  0.1345 -0.5381  0.0832
 1036W        W 5100   0.463   2.409  10.916 -0.3345  0.0791 -0.0523
 1037W        W 5101   7.727   1.165  10.513 -0.2692  0.0901 -0.1516
 1038W        W 5102   9.135   5.595   8.538 -0.0544  0.0739 -0.1954
 1039W        W 5103   4.202  10.170   7.840  0.0786  0.0472  0.0651
 1040W        W 5104   8.903   2.138   9.614  0.1950 -0.2677  0.0440
 1041W        W 5105   1.510   8.334  10.522  0.2228  0.1051  0.2140
 1042W        W 5106   1.404   4.815   3.533  0.0154 -0.1701  0.1115
 1043W        W 5107   7.265   5.543   8.023 -0.1260  0.0887  0.2417
 1044W        W 5108   8.226  10.264   2.714 -0.1845  0.0269 -0.2658
 1045W        W 5109   8.812   5.562   7.321 -0.0114 -0.0847 -0.2457
 1046W        W 5110   6.840  10.214   3.282  0.3868  0.1076 -0.0052
 1047W        W 5111  10.275   3.441   9.500 -0.0118 -0.0435  0.1985
 1048W        W 5112   0.253   9.115   0.775  0.0487 -0.1265 -0.0441
 1049W        W 5113  10.105   2.162   1.277 -0.1906 -0.1193 -0.3472
 1050W        W 5114   8.166   6.758   0.698  0.1441 -0.1113 -0.3556
 1051W        W 5115   1.940   3.728   9.523 -0.0159  0.3470  0.3216
 1052W        W 5116   2.387   2.242   0.908  0.0819 -0.2960 -0.0285
 1053W        W 5117   7.700   9.649   8.099 -0.1768 -0.3828 -0.0069
 1054W        W 5118   4.041   5.120   9.359  0.1496 -0.3153 -0.0363
 1055W        W 5119   0.032   4.726   1.943  0.0067 -0.0846  0.0480
 1056W        W 5120   2.926   8.828   0.368 -0.0707  0.1017 -0.2294
 1057W        W 5121   4.563   4.880   9.150 -0.2830  0.1243  0.0018
 1058W        W 5122  10.558   5.631   8.232  0.1931  0.2951 -0.0767
 1059W        W 5123   8.215   3.949   8.321  0.0447 -0.0818  0.3058
 1060W        W 5124   0.660   5.895   2.956 -0.1744 -0.0737 -0.0404
 1061W        W 5125   9.463   8.549   9.691 -0.2405 -0.1453 -0.1088
 1062W        W 5126   8.850   8.165   8.712 -0.0426 -0.1517 -0.0116
 1063W        W 5127   7.484  10.462  11.553 -0.1968  0.2283  0.2239
 1064W        W 5128   4.315   7.748   1.823 -0.0610  0.4638 -0.3130
 1065W        W 5129   8.275   3.477   8.268  0.0745 -0.0647 -0.4710
 1066W        W 5130   3.887  10.478  11.123 -0.0632 -0.2553 -0.3522
 1067W        W 5131   5.997   0.922   2.477  0.0580 -0.3618  0.0347
 1068W        W 5132   7.641   3.441   3.541 -0.0531  0.0815  0.1054
 1069W        W 5133   7.549   6.390  10.889 -0.2291 -0.2022 -0.2486
 1070W        W 5134   9.112   4.409  11.150 -0.0729 -0.1268 -0.1880
 1071W        W 5135   3.854   9.870   0.019 -0.1081 -0.0674  0.0548
 1072W        W 5136   3.172   6.653  11.529  0.0922 -0.0728 -0.1124
 1073W        W 5137   6.755   4.696  11.082  0.0206 -0.0894  0.0505
 1074W        W 5138   9.886   6.290   8.490 -0.1459  0.0599 -0.1735
 1075W        W 5139   5.435   1.270   1.334  0.3601  0.2745 -0.0488
 1076W        W 5140   6.958   3.050   1.189 -0.1783 -0.0880  0.4466
 1077W        W 5141   9.117   3.521   2.785 -0.0700 -0.0781  0.1726
 1078W        W 5142   2.350   1.776   0.127 -0.0516  0.2530  0.0818
 1079W        W 5143   4.383   9.769   2.599 -0.4819  0.0366 -0.0454
 1080W        W 5144   7.103   1.324   0.780 -0.1921 -0.1442  0.0876
 1081W        W 5145   9.694   2.996   7.832  0.3171  0.1311 -0.1453
 1082W        W 5146   3.269   5.495   9.078 -0.2751  0.0045 -0.0698
 1083W        W 5147   4.995   5.177   1.697 -0.2685 -0.0016 -0.2080
 1084W        W 5148   6.828   7.051   0.346 -0.3662 -0.3135  0.3710
 1085W        W 5149   2.916   8.110   9.513  0.1187  0.1218 -0.3579
 1086W        W 5150   1.936   5.957   0.460  0.1180 -0.0780 -0.1120
 1087W        W 5151   5.495   4.322   2.044 -0.1645  0.0631  0.0572
 1088W        W 5152   9.920   1.382   2.990  0.5156  0.2463  0.1148
 1089W        W 5153   2.357   0.890   0.106 -0.0717 -0.1208 -0.2020
 1090W        W 5154   4.723   3.398   2.783  0.1442 -0.1221  0.1298
 1091W        W 5155   6.332   6.773   1.287 -0.0705 -0.0325  0.0685
 1092W        W 5156   6.322  10.130   8.420 -0.1011  0.0484 -0.1422
 1093W        W 5157   7.418   8.731   1.977 -0.3554 -0.1536  0.1273
 1094W        W 5158   6.065   1.071   1.945  0.3063 -0.2443 -0.2608
 1095W        W 5159  10.172   8.931   0.346  0.3418 -0.0379  0.1703
 1096W        W 5160  10.172   5.030  10.845  0.3616 -0.1738  0.2057
 1097W        W 5161  10.285  10.382   7.725 -0.1931 -0.0050  0.2744
 1098W        W 5162   4.664   4.256   8.570  0.4177 -0.1424 -0.1313
 1099W        W 5163   1.187   9.025   0.499  0.0142  0.0003 -0.0523
 1100W        W 5164   3.008  10.574   8.561 -0.0283  0.0620 -0.1253
 1101W        W 5165   7.759   1.149   3.169 -0.1122 -0.0724  0.1703
 1102W        W 5166   9.102   7.891   7.871 -0.0660  0.1571 -0.2509
 1103W        W 5167   0.746   7.255  11.523  0.1382  0.0873 -0.1089
 1104W        W 5168   8.395   6.855   3.555 -0.2359 -0.1521 -0.0560
 1105W        W 5169   8.083  10.022   8.305  0.1670  0.0801 -0.0792
 1106W        W 5170   3.389   7.420   9.039 -0.2851 -0.0826 -0.0545
 1107W        W 5171   8.639   6.197   1.479 -0.0931 -0.3487  0.3027
 1108W        W 5172   4.749   5.259  10.116  0.0181  0.4421 -0.1505
 1109W        W 5173   2.049   8.291   0.334  0.0478  0.2690  0.0737
 1110W        W 5174   0.933   4.393   0.261  0.1622  0.0233 -0.3061
 1111W        W 5175   0.626   1.366   2.556  0.0617 -0.1954 -0.1534
 1112W        W 5176   9.483   1.464  10.990 -0.1720  0.1075  0.1959
 1113W        W 5177   7.446   5.450   3.064  0.2731  0.0945 -0.3724
 1114W        W 5178   0.766   2.045   8.913  0.0365  0.0425  0.0140
 1115W        W 5179   0.792   5.367   9.150 -0.1311  0.3030 -0.1209
 1116W        W 5180   9.609   7.905   8.079  0.3123  0.1764  0.2416
 1117W        W 5181   2.220   1.262   0.878 -0.0876 -0.0834 -0.0409
 1118W        W 5182  10.416   5.424  11.140 -0.2237  0.1575 -0.3422
 1119W        W 5183   8.760  10.165  10.048 -0.1686 -0.2611 -0.4662
 1120W        W 5184   5.062   5.209   1.193 -0.1311 -0.5198 -0.1447
 1121W        W 5185   2.820   7.135  11.200  0.0380 -0.3950  0.0174
 1122W        W 5186   0.790   2.613   1.656  0.1738  0.0280  0.0731
 1123W        W 5187   8.800   1.434   8.485 -0.1541  0.1012 -0.1829
 1124W        W 5188   1.348   4.619  10.682  0.1477  0.0970 -0.2301
 1125W        W 5189   5.768   1.736   1.276  0.0853  0.0547  0.3624
 1126W        W 5190   5.867   3.680   8.908  0.1367  0.1050 -0.2722
 1127W        W 5191   8.250  10.155  10.459  0.1039 -0.3352  0.1442
 1128W        W 5192   9.321   2.484   9.804  0.0865 -0.1765  0.1057
 1129W        W 5193   0.195   4.572   2.749  0.0138 -0.1611 -0.1870
 1130W        W 5194   5.476   1.679   0.483 -0.3150  0.0115 -0.1751
 1131W        W 5195   5.259   7.616   2.698 -0.1027 -0.1081  0.0936
 1132W        W 5196   6.202   7.864   2.908  0.1777  0.2910  0.2939
 1133W        W 5197   4.241  10.124   1.837  0.0149  0.1502 -0.0667
 1134W        W 5198   0.100   6.655   8.690 -0.0831  0.0808  0.2770
 1135W        W 5199  10.589   9.556   0.889 -0.1173 -0.1511 -0.3464
 1136W        W 5200   0.119   0.760   9.785  0.1016  0.2049  0.0070
 1137W        W 5201   3.903   3.217  11.563  0.2940 -0.0358  0.3032
 1138W        W 5202   1.318   6.482   3.046  0.1653  0.0511  0.0312
 1139W        W 5203   6.465   7.588  10.640 -0.0440 -0.1044  0.0450
 1140W        W 5204   1.147   8.139  10.031  0.0600 -0.0008  0.2130
 1141W        W 5205   9.158   9.442   1.790 -0.0016  0.2041  0.1145
 1142W        W 5206   6.086   4.904   0.761  0.0298 -0.2141 -0.3242
 1143W        W 5207   6.640   9.251  10.158  0.0869 -0.1173 -0.1643
 1144W        W 5208   8.501   5.908   1.887 -0.0560 -0.0671  0.0167
 1145W        W 5209   0.543   9.031  11.194 -0.1152  0.2552  0.0772
 1146W        W 5210   5.730   7.580   2.233 -0.0378 -0.0748 -0.0833
 1147W        W 5211   5.661  10.315   0.083 -0.2170  0.0074 -0.1783
 1148W        W 5212   1.857   0.895   3.529 -0.0529  0.0726  0.2119
 1149W        W 5213   6.341   2.532   8.369  0.0808  0.2385  0.3361
 1150W        W 5214   5.056   0.173   1.653  0.3072  0.0601 -0.0315
 1151W        W 5215   9.528   4.264   2.597 -0.0193  0.4133  0.1143
 1152W        W 5216   8.622   3.680  10.923 -0.2140  0.1136 -0.0723
 1153W        W 5217   7.925   5.702   9.371  0.3695 -0.1978 -0.0070
 1154W        W 5218   4.769   2.103   8.491  0.0529 -0.4064  0.2114
 1155W        W 5219   9.357   2.784   7.076 -0.0480 -0.0809  0.2785
 1156W        W 5220   8.689   1.749  10.996 -0.0379 -0.1186  0.1194
 1157W        W 5221   0.894   1.373   0.391  0.2106 -0.2158 -0.0631
 1158W        W 5222   7.442   5.171   7.736 -0.0318 -0.4667 -0.1191
 1159W        W 5223   2.628   7.611  10.388 -0.0021  0.1850 -0.0004
 1160W        W 5224   0.644   2.478  10.226  0.1217  0.1073 -0.3560
 1161W        W 5225   8.641   5.991   9.221  0.0997  0.0006  0.2284
 1162W        W 5226   7.637   0.320   8.175  0.2286  0.0717 -0.0809
 1163W        W 5227   7.653   6.093   9.364  0.3242 -0.0557  0.0456
 1164W        W 5228   8.760   2.886   0.884 -0.2732 -0.1079 -0.2785
 1165W        W 5229   2.502   6.214   8.446  0.0618  0.0815  0.0834
 1166W        W 5230   9.735   9.005   1.758 -0.1064  0.0383  0.0282
 1167W        W 5231   6.299   4.243   9.528  0.3298  0.2581  0.3143
 1168W        W 5232   3.072   6.198   7.818  0.0294  0.1190  0.1752
 1169W        W 5233   9.248   5.331   1.564 -0.1427  0.0512  0.0959
 1170W        W 5234   1.923   0.375   0.864  0.2579 -0.2842 -0.1500
 1171W        W 5235   4.785   0.656  10.842  0.3698  0.3221  0.2834
 1172W        W 5236   4.082   9.519   1.322 -0.1749  0.4703  0.2039
 1173W        W 5237   9.019   2.205   3.278  0.2820 -0.0613 -0.3412
 1174W        W 5238   8.254   1.818   3.695 -0.1556 -0.0843 -0.0345
 1175W        W 5239   7.082   5.346   2.180 -0.3233  0.1867  0.0287
 1176W        W 5240   9.945   6.356  10.223  0.0410 -0.1346 -0.3252
 1177W        W 5241   2.837   5.866   3.277  0.3172  0.0030 -0.1464
 1178W        W 5242   3.914   0.834   8.285 -0.0501 -0.0296  0.1300
 1179W        W 5243   9.416   2.205   8.836  0.1828  0.3057  0.2586
 1180W        W 5244   2.213   6.212   0.848  0.1410  0.0728 -0.0256
 1181W        W 5245   4.337   2.421  10.701 -0.0648  0.1371 -0.2531
 1182W        W 5246   1.737  10.207   2.181 -0.0767 -0.4107  0.3403
 1183W        W 5247   7.552  10.364   0.592  0.2035  0.2944  0.1610
 1184W        W 5248   2.180   9.994   2.363 -0.0419  0.1071 -0.3753
 1185W        W 5249   4.367   6.750   3.595 -0.0004  0.0174 -0.0463
 1186W        W 5250   1.825   0.154   1.324  0.1080  0.1068 -0.0981
 1187W        W 5251   8.213  10.453   2.187  0.0756  0.2787 -0.1158
 1188W        W 5252   7.179   7.293   9.459  0.0888 -0.1541 -0.0379
 1189W        W 5253   4.822   8.105   3.554  0.2049 -0.1189 -0.2112
 1190W        W 5254   7.174   9.557   0.988  0.2887  0.0280 -0.3376
 1191W        W 5255   6.934   6.069   0.956  0.2370  0.0318  0.0770
 1192W        W 5256   2.687   4.433   3.051 -0.1025 -0.3063 -0.0241
 1193W        W 5257   0.081   4.048   0.101 -0.2372  0.1453 -0.0918
 1194W        W 5258  10.620   5.298   2.913 -0.0255  0.0216  0.0068
 1195W        W 5259   1.853   3.424   8.627  0.1251  0.0812  0.1823
 1196W        W 5260   1.004   4.234  11.368 -0.3323 -0.2730 -0.2523
 1197W        W 5261   2.909   4.080  10.185 -0.3365  0.1367  0.1864
 1198W        W 5262   6.526   8.984   1.411  0.0655 -0.1588 -0.1000
 1199W        W 5263   4.738   1.153   0.633 -0.0170 -0.1412 -0.0015
 1200W        W 5264   6.064   8.493   1.028 -0.1709 -0.5061 -0.1251
 1201W        W 5265   0.776   4.600   7.643  0.1110 -0.3718  0.0949
 1202W        W 5266   9.014   4.847   3.114  0.3039 -0.0451 -0.0457
 1203W        W 5267   7.583  10.464   9.690 -0.1073 -0.0571 -0.1469
 1204W        W 5268   6.131   0.823  10.947  0.0238 -0.2299 -0.2060
 1205W        W 5269   8.257   0.457  10.700  0.3080 -0.4073 -0.2112
 1206W        W 5270   6.156   2.605   1.284 -0.0326 -0.2200  0.0588
 1207W        W 5271   2.844   1.610   0.848  0.1894  0.1546 -0.2805
 1208W        W 5272   0.864   7.303   7.956 -0.1681 -0.0395 -0.0346
 1209W        W 5273   7.977   2.553   7.627 -0.4329 -0.2836 -0.1187
 1210W        W 5274   1.730   1.503  10.408  0.4162  0.1976 -0.0859
 1211W        W 5275  10.306   2.681   2.873  0.0624 -0.3623  0.0657
 1212W        W 5276   6.503   2.110   8.199  0.0875 -0.2083 -0.2783
 1213W        W 5277   4.134   3.404   3.706  0.0223  0.1769  0.0819
 1214W        W 5278   0.928   6.088   9.528 -0.1325  0.1959  0.0815
 1215W        W 5279   7.387   4.625  11.074 -0.0901  0.0758  0.2223
 1216W        W 5280   8.216   0.633   8.756 -0.2983  0.4814 -0.3860
 1217W        W 5281   5.940   9.605   8.972 -0.0887 -0.0432 -0.1657
 1218W        W 5282   6.004   8.053   9.943  0.0931  0.3795  0.0302
 1219W        W 5283   8.061   1.930   8.120 -0.1213  0.0728 -0.1479
 1220W        W 5284   1.296   6.621   7.276  0.0556 -0.2219 -0.2475
 1221W        W 5285   7.604   4.285   7.707  0.1883 -0.0830  0.0352
 1222W        W 5286   8.645   8.332  11.325 -0.1075 -0.0567  0.0973
 1223W        W 5287   3.253   6.539   2.344  0.0043 -0.0125 -0.1737
 1224W        W 5288   8.399   4.114   4.083 -0.0069 -0.0426  0.2819
 1225W        W 5289   0.568   5.924   1.262  0.0790 -0.2630 -0.2032
 1226W        W 5290   2.356   2.813   0.914  0.3368 -0.0076  0.0577
 1227W        W 5291   9.853   3.076   2.074 -0.0272 -0.0424  0.0948
 1228W        W 5292   2.656   9.192   0.133 -0.0471 -0.0641 -0.3776
 1229W        W 5293   3.225   5.055   0.592 -0.2153  0.1632  0.0457
 1230W        W 5294   6.026   8.818   1.429  0.0682 -0.1502  0.2380
 1231W        W 5295   4.430   3.963  11.477  0.1732  0.1967 -0.1512
 1232W        W 5296   0.545   9.093   3.270 -0.1567  0.3829 -0.0313
 1233W        W 5297   7.712   1.407   8.893  0.0123  0.0181  0.0439
 1234W        W 5298   1.826   9.587   0.011  0.0342  0.0033  0.3276
 1235W        W 5299   4.693   3.341   3.661  0.0592  0.0557 -0.3115
 1236W        W 5300   1.254   9.575  11.115 -0.3496  0.0626 -0.0761
 1237W        W 5301   2.613   1.267   3.343 -0.1438 -0.3088 -0.1682
 1238W        W 5302   5.085   6.507   1.440  0.3720  0.0350  0.1493
 1239W        W 5303   3.611   9.572   8.192  0.1943  0.0197 -0.0398
 1240W        W 5304   5.684   9.744  11.481  0.3623  0.2086  0.0942
 1241W        W 5305   7.156   7.712  11.387 -0.0456  0.0208 -0.3789
 1242W        W 5306   9.411   2.314   3.043 -0.1244 -0.0272  0.6539
 1243W        W 5307   8.541   7.014  10.679  0.0888  0.1967  0.0624
 1244W        W 5308   5.325   0.535  11.544  0.0928 -0.1094 -0.1065
 1245W        W 5309   7.599   7.604   3.299  0.3157 -0.4278  0.3255
 1246W        W 5310   1.397   5.305   8.370 -0.0817  0.2646  0.0707
 1247W        W 5311   5.783   9.602   2.753 -0.1629  0.1351 -0.0796
 1248W        W 5312   4.857   9.066  10.483 -0.0181  0.0163 -0.0185
 1249W        W 5313   5.253   6.145  10.995 -0.0400  0.2023  0.0972
 1250W        W 5314   2.276   8.658   0.956  0.2107 -0.1373 -0.2993
 1251W        W 5315   9.444   1.338   0.893 -0.3855  0.1359  0.0750
 1252W        W 5316   1.246   2.220   9.661  0.1073  0.0592  0.0264
 1253W        W 5317   6.384   7.925   0.455  0.0293  0.0960 -0.0150
 1254W        W 5318   5.139   2.169   0.221  0.0551  0.1659  0.1380
 1255W        W 5319   9.672  10.600   9.143 -0.0723  0.1647 -0.0945
 1256W        W 5320   3.680   5.123   7.535 -0.0718  0.0418 -0.2506
 1257W        W 5321   8.031   6.189  10.159 -0.1853  0.1377 -0.1054
 1258W        W 5322   8.275   7.795  10.178 -0.0736 -0.3001  0.1601
 1259W        W 5323  10.169   6.994   3.232  0.4319  0.1013 -0.2554
 1260W        W 5324   8.628   5.487   3.863  0.0559  0.2354  0.0281
 1261W        W 5325   0.428   3.243   1.339  0.2980 -0.1179 -0.0143
 1262W        W 5326   1.830   0.904   2.395  0.0302  0.3447 -0.1545
 1263W        W 5327   2.288   6.775   8.236 -0.0247  0.1055 -0.1739
 1264W        W 5328   1.721   1.371   9.567 -0.3162  0.0368 -0.2490
 1265W        W 5329   6.436   1.098  10.572  0.0888  0.1410  0.1158
 1266W        W 5330   4.218   2.827   0.100 -0.4713  0.3401  0.3006
 1267W        W 5331   9.486   6.546   3.260 -0.0725  0.2243 -0.0444
 1268W        W 5332   7.847   8.617   9.692  0.0837  0.2103 -0.0378
 1269W        W 5333   4.723   4.974   3.410 -0.4025  0.2833  0.4222
 1270W        W 5334   4.942   6.101  10.023  0.3395  0.2172 -0.3846
 1271W        W 5335   8.394   0.142   8.652  0.1942  0.0229 -0.4544
 1272W        W 5336   6.708   2.229   0.633 -0.1644  0.1681  0.1397
 1273W        W 5337   7.844   7.139   9.390 -0.1120  0.1189 -0.1551
 1274W        W 5338   6.993   0.398   0.717 -0.0005 -0.0626  0.0264
 1275W        W 5339   4.117   1.311  10.424 -0.0332 -0.2471  0.1673
 1276W        W 5340   6.680   3.560   1.984  0.1316 -0.1317  0.2385
 1277W        W 5341   5.791  10.597   7.096 -0.0988  0.1448 -0.2022
 1278W        W 5342   3.817   9.840   1.723 -0.3867 -0.2644  0.3198
 1279W        W 5343   5.181   4.263   1.542 -0.2576  0.4940 -0.0150
 1280W        W 5344   9.676   8.525   2.980  0.0833 -0.3495 -0.1610
 1281W        W 5345   7.784   2.983   8.843 -0.3238  0.0419  0.0164
 1282W        W 5346   6.207   5.318   9.287  0.1255 -0.0377  0.2261
 1283W        W 5347   6.917   9.537   8.748 -0.0818 -0.2684 -0.0082
 1284W        W 5348   5.191   5.756   9.417 -0.1081  0.2316 -0.0004
 1285W        W 5349   1.064   8.388   9.626 -0.3083  0.1289 -0.1300
 1286W        W 5350   4.329   0.338   8.129  0.0215 -0.1209  0.1786
 1287W        W 5351   6.590   1.767  11.553 -0.2305 -0.3531 -0.2268
 1288W        W 5352   5.333   9.728   0.812  0.1991 -0.2819 -0.0279
 1289W        W 5353   6.030   5.410   7.507 -0.2015 -0.0875  0.3363
 1290W        W 5354   0.561   7.319   3.704  0.0885 -0.1457 -0.4709
 1291W        W 5355   5.251   6.429   3.419 -0.1173 -0.1888  0.0954
 1292W        W 5356   3.933   1.539   9.747  0.0248 -0.0737 -0.1665
 1293W        W 5357   0.669   6.360   9.932 -0.2152 -0.2622 -0.1163
 1294W        W 5358   1.122   8.460   3.561 -0.1113 -0.0444  0.2666
 1295W        W 5359   6.000   9.556   1.857 -0.0283  0.2439 -0.0396
 1296W        W 5360   5.817   3.969   2.117 -0.2897 -0.0579 -0.1131
 1297W        W 5361   6.414   1.547   9.858 -0.1537 -0.1149  0.0025
 1298W        W 5362   8.114   8.526   8.387 -0.1428 -0.2045 -0.3080
 1299W        W 5363   1.540   8.358   9.006 -0.1068  0.0673  0.1083
 1300W        W 5364   4.519   1.075   9.548 -0.0694 -0.3102  0.0163
 1301W        W 5365   5.795   0.534   8.430 -0.0390 -0.3758  0.1731
 1302W        W 5366   4.646   2.914   2.830  0.0391 -0.3772 -0.1696
 1303W        W 5367   7.085   3.913  10.665 -0.0756  0.0564 -0.2302
 1304W        W 5368   3.362   3.464   2.410  0.0547  0.0745  0.1239
 1305W        W 5369   5.490   5.374   0.032 -0.1158  0.1405  0.1799
 1306W        W 5370   8.849   6.297   8.218 -0.0976  0.0698  0.1659
 1307W        W 5371   5.188   9.015   9.005 -0.1416  0.0351  0.1834
 1308W        W 5372   5.484   6.293   2.259  0.2567  0.1880  0.5737
 1309W        W 5373   8.085   8.370  11.567 -0.0479  0.3064 -0.0848
 1310W        W 5374   7.197   8.654   2.963  0.1535  0.1917  0.0029
 1311W        W 5375   0.291   9.963   0.974 -0.2998 -0.1211  0.0533
 1312W        W 5376   4.023   7.075  10.733  0.0732  0.2577 -0.1805
 1313W        W 5377   7.730   7.464   0.018  0.0073  0.0024 -0.1424
 1314W        W 5378   9.223  10.047  11.311 -0.1896  0.0353 -0.3282
 1315W        W 5379   2.082   8.779   0.532 -0.2237  0.0521 -0.3416
 1316W        W 5380   5.252   0.039  11.484  0.0078 -0.1824 -0.0731
 1317W        W 5381   0.566   2.671   3.090  0.1486 -0.1872 -0.0129
 1318W        W 5382   5.513   8.822   2.023  0.0862 -0.1972 -0.0328
 1319W        W 5383   3.065   9.663  10.513  0.2033 -0.1650  0.3320
 1320W        W 5384   1.467   3.613   0.222 -0.1968 -0.0273 -0.0458
 1321W        W 5385   9.690   4.662   9.699  0.0960  0.1473  0.2367
 1322W        W 5386   4.915   7.020   1.160 -0.0029  0.3650  0.3788
 1323W        W 5387   4.614   2.834   8.306  0.0251  0.2395  0.1655
 1324W        W 5388   4.420   6.768   8.246  0.4382  0.1840  0.0897
 1325W        W 5389   9.011   4.898  11.428 -0.1905  0.2617  0.2053
 1326W        W 5390   8.696   7.415  10.890  0.1767  0.1186 -0.1056
 1327W        W 5391   7.752   6.695   1.044 -0.1757  0.1577  0.1151
 1328W        W 5392  10.481  10.387   2.900  0.0970 -0.1313 -0.2317
 1329W        W 5393   5.731   5.050   7.315  0.0585 -0.0578  0.1034
 1330W        W 5394   7.418   6.095   1.146  0.1454 -0.0298  0.0371
 1331W        W 5395   8.153   2.410  10.458  0.2673 -0.1128  0.1091
 1332W        W 5396   3.326   4.655  10.967  0.0146  0.1650 -0.1669
 1333W        W 5397   5.691   4.182   1.304 -0.5920 -0.1710 -0.0339
 1334W        W 5398   4.545   0.630   9.857 -0.1497 -0.1538 -0.2511
 1335W        W 5399   6.442   9.669   8.400 -0.0860 -0.2500  0.0169
 1336W        W 5400   6.145   9.477   3.505  0.3581  0.2506  0.2308
 1337W        W 5401   1.998   3.216   3.346 -0.0651  0.0605  0.0265
 1338W        W 5402   8.010   6.911   2.314 -0.2448 -0.0906  0.4823
 1339W        W 5403   7.610   2.077   9.424  0.2116 -0.3430 -0.1444
 1340W        W 5404   9.457   2.046   1.834  0.1090 -0.2730  0.2018
 1341W        W 5405   8.262   2.870   7.967 -0.0156 -0.2869 -0.1329
 1342W        W 5406   2.808   4.956   0.221 -0.1773 -0.1984  0.2634
 1343W        W 5407   0.707   5.151   1.791 -0.0588 -0.1721 -0.0208
 1344W        W 5408   8.061   6.396  10.913  0.0136 -0.2676 -0.0917
 1345W        W 5409   9.434   4.374  10.003 -0.0625 -0.1850  0.1218
 1346W        W 5410   5.536   0.540  10.186 -0.1705 -0.0336 -0.0364
 1347W        W 5411   5.042  10.431   1.289 -0.0600 -0.1082  0.2033
 1348W        W 5412   2.656   1.000  11.219 -0.1566 -0.0520 -0.1150
 1349W        W 5413   4.507   9.434   3.241 -0.1566  0.0997 -0.3723
 1350W        W 5414   0.284   0.549   8.783  0.0346 -0.0728 -0.1071
 1351W        W 5415   6.569   8.941   8.862 -0.1343 -0.0921 -0.1559
 1352W        W 5416   1.378   5.164  10.298 -0.0921  0.1425 -0.4222
 1353W        W 5417   0.208   7.457   2.437 -0.0778 -0.1736 -0.1472
 1354W        W 5418   8.046   6.633   3.280 -0.0746  0.2708  0.1240
 1355W        W 5419   7.809   4.345   3.268 -0.2254 -0.1938 -0.0213
 1356W        W 5420   6.868   9.953  11.260  0.0524  0.0766  0.2708
 1357W        W 5421   3.911   7.425   3.600 -0.3046  0.2094 -0.0381
 1358W        W 5422   8.371   5.499  11.013 -0.1797 -0.0949  0.0610
 1359W        W 5423   0.259   3.932   9.787 -0.2031 -0.3745 -0.5093
 1360W        W 5424   1.866   6.378   1.437 -0.0535  0.0010  0.5727
 1361W        W 5425   2.978   5.248   2.706 -0.0750  0.6210  0.0775
 1362W        W 5426   6.460   4.856   0.475  0.0422  0.1248 -0.0301
 1363W        W 5427   9.213   6.389  11.133  0.4517  0.1003 -0.1062
 1364W        W 5428   2.406   9.746  10.192  0.2065  0.2956 -0.0084
 1365W        W 5429   7.857   0.039   1.846  0.2023 -0.0297 -0.1308
 1366W        W 5430   3.560   7.014   7.918 -0.0316  0.1437  0.0242
 1367W        W 5431   0.517   5.291   8.679  0.3562 -0.3430  0.0921
 1368W        W 5432   9.773   7.676   0.948 -0.1162  0.1347  0.3373
 1369W        W 5433   6.857   3.967   8.811  0.0172  0.1246 -0.2229
 1370W        W 5434  10.636   9.968   7.512  0.2965 -0.0756 -0.1413
 1371W        W 5435   6.204   6.213  10.377 -0.3245 -0.1531 -0.1940
 1372W        W 5436   4.339   7.507   0.909  0.2136  0.3516 -0.1092
 1373W        W 5437   7.781   6.192   0.029  0.1901  0.2068  0.3022
 1374W        W 5438   8.041   4.225  10.586  0.1752 -0.3357 -0.2476
 1375W        W 5439   2.613   0.316   4.097  0.2082 -0.1226  0.0117
 1376W        W 5440   4.557   8.807   0.933 -0.0208 -0.1402 -0.0093
 1377W        W 5441   1.266   2.777   1.558  0.0585 -0.0777 -0.0720
 1378W        W 5442   1.290   0.954  10.933  0.0567 -0.3144 -0.2715
 1379W        W 5443   9.003   3.350   2.293  0.3575  0.1920 -0.3401
 1380W        W 5444  10.362   0.450   1.862  0.3137  0.0575 -0.0336
 1381W        W 5445   2.639   4.461  10.136 -0.1246 -0.1832  0.1199
 1382W        W 5446   5.304   5.678   1.080  0.3662  0.1417 -0.0635
 1383W        W 5447   6.099   8.873  11.124  0.0363 -0.1943  0.4373
 1384W        W 5448   7.187   6.366   3.289  0.0984  0.2610  0.0793
 1385W        W 5449   4.159   8.128  11.215  0.0645  0.0465  0.0044
 1386W        W 5450   6.188   5.808   8.347  0.0997  0.1897 -0.1301
 1387W        W 5451   1.260   0.803   2.190  0.1185  0.0479 -0.0116
 1388W        W 5452   2.270   7.629   0.852 -0.0870 -0.0666 -0.0801
 1389W        W 5453   8.826   1.048   9.178 -0.3337  0.1479  0.1025
 1390W        W 5454   4.356   7.968   2.448  0.3257  0.0750  0.2820
 1391W        W 5455   9.120   1.385   9.040  0.0366  0.1397  0.3464
 1392W        W 5456   8.781   4.980   7.869  0.1944 -0.1416 -0.1079
 1393W        W 5457   4.154   9.651  11.087  0.3797  0.0379 -0.2044
 1394W        W 5458   1.894   3.247  10.258 -0.1377 -0.1519  0.1571
 1395W        W 5459   9.095   5.259   2.028 -0.0306  0.1130  0.0996
 1396W        W 5460   5.210   7.967   2.344 -0.0924  0.1106 -0.1993
 1397W        W 5461   9.925   4.740  11.195  0.1105 -0.1736  0.1948
 1398W        W 5462   3.646   5.323   2.560 -0.0873 -0.0208  0.1002
 1399W        W 5463   4.760   9.001  10.939  0.2766 -0.2324  0.0623
 1400W        W 5464   7.141   1.479   2.136  0.0715 -0.0895  0.1195
 1401W        W 5465   5.217   5.084   0.383  0.0603 -0.1485 -0.0952
 1402W        W 5466   6.090   4.960  10.249 -0.0540 -0.4123  0.0401
 1403W        W 5467   3.023   7.451   0.683  0.2856  0.0184  0.1909
 1404W        W 5468   2.522   5.862   1.102  0.0373  0.2051  0.1944
 1405W        W 5469   5.931  10.167  11.286 -0.1876  0.1914  0.1125
 1406W        W 5470  10.409   0.384   3.150  0.0522  0.0447  0.0359
 1407W        W 5471   7.248   9.633   7.861 -0.0931  0.2629  0.2489
 1408W        W 5472   9.437   3.071   8.237  0.1074 -0.2141 -0.0405
 1409W        W 5473   2.462   3.765   3.558  0.0342  0.1035 -0.1818
 1410W        W 5474   4.072   1.077   9.286  0.1207  0.1806 -0.1993
 1411W        W 5475   5.316   5.063  11.234 -0.5533 -0.1901  0.0552
 1412W        W 5476   4.041   7.313   8.707 -0.2562  0.2108  0.1289
 1413W        W 5477   3.328   6.392   4.023  0.1093 -0.0835  0.0809
 1414W        W 5478   7.698   3.777  11.346  0.1171  0.0804 -0.0649
 1415W        W 5479   2.106   6.519  11.482  0.2098  0.0285 -0.1712
 1416W        W 5480   0.106   7.653   1.384  0.0032  0.1661 -0.1397
 1417W        W 5481   0.618   3.682   9.261 -0.3971  0.1502 -0.0954
 1418W        W 5482   6.087   3.420   7.182 -0.2832 -0.0295  0.1159
 1419W        W 5483  10.327   2.412   9.819 -0.0126 -0.3555  0.2082
 1420W        W 5484   4.388   8.692   1.749  0.0752  0.4613 -0.0946
 1421W        W 5485  10.431   4.081   1.982  0.1858  0.1715  0.1142
 1422W        W 5486   7.536   2.647   7.846  0.0732 -0.0294  0.1286
 1423W        W 5487   3.572   4.992  11.335  0.1184 -0.1009  0.1609
 1424W        W 5488   5.020   7.161   0.344  0.0657 -0.1873 -0.1037
 1425W        W 5489   1.088   1.526  10.346  0.0442 -0.2192  0.1401
 1426W        W 5490   3.766   5.890  10.955 -0.1477  0.2355  0.0509
 1427W        W 5491   2.734   3.255   9.759 -0.1223 -0.2797 -0.2582
 1428W        W 5492   0.946   2.877   0.796  0.2088  0.0290  0.2075
 1429W        W 5493   5.018   3.377   4.093 -0.1555 -0.2082  0.0331
 1430W        W 5494   7.663   2.957   9.353 -0.0864  0.3497  0.0177
 1431W        W 5495   9.536   1.444   9.352 -0.2206  0.2580  0.0372
 1432W        W 5496   0.339   4.331   8.445 -0.1179  0.1447  0.0706
 1433W        W 5497   3.937   1.139   1.117 -0.4713  0.2019  0.3672
 1434W        W 5498   0.312   8.583   3.229 -0.3017 -0.2338 -0.3149
 1435W        W 5499   3.531   0.755   3.102  0.0166 -0.3176  0.0187
 1436W        W 5500   5.595   2.385   7.383 -0.0147 -0.4754  0.1105
 1437W        W 5501   0.266   1.455  11.419 -0.1860 -0.0785  0.0214
 1438W        W 5502   6.543   5.272   8.472 -0.1510  0.0138 -0.0244
 1439W        W 5503   1.574   8.650   1.738 -0.0688 -0.1043  0.2240
 1440W        W 5504   5.154   8.219   1.368  0.0137 -0.2368 -0.1785
 1441W        W 5505   9.891   9.164   0.710  0.0293 -0.0121 -0.0930
 1442W        W 5506   6.935   9.905   9.834  0.2452  0.5364  0.2431
 1443W        W 5507   0.941   7.689   8.898 -0.0032  0.2422 -0.2279
 1444W        W 5508   8.779   6.773  10.301  0.2892 -0.1401  0.1313
 1445W        W 5509   7.972   9.202   0.251 -0.0955  0.4520 -0.1624
 1446W        W 5510   1.728   3.786   2.340 -0.0996 -0.2054  0.0846
 1447W        W 5511   5.487   8.836   3.998  0.2474 -0.0204  0.0729
 1448W        W 5512   2.041   9.328   8.565  0.3518  0.0381  0.2017
 1449W        W 5513   2.413   5.358   0.905  0.2445  0.0644  0.0337
 1450W        W 5514   1.643   4.716  10.214  0.0095 -0.1692 -0.1981
 1451W        W 5515   5.414   0.889   8.273 -0.2718 -0.2272  0.0578
 1452W        W 5516   0.313   7.074   0.134 -0.1973  0.2376 -0.1157
 1453W        W 5517   4.552   0.257  10.165 -0.3221 -0.0311  0.1029
 1454W        W 5518   9.219   3.507   8.378  0.0769  0.3024 -0.3073
 1455W        W 5519   9.280  10.257  10.825  0.5563  0.3610 -0.0667
 1456W        W 5520   4.887   0.422   8.889  0.1283 -0.0833  0.0188
 1457W        W 5521   6.446   7.678  10.156 -0.0559 -0.0213  0.3012
 1458W        W 5522   9.989   9.838   9.295  0.0230  0.0546  0.3527
 1459W        W 5523   8.748   3.006   9.204 -0.0042  0.0606 -0.1983
 1460W        W 5524   3.390   9.974   0.747  0.0817  0.2678  0.0780
 1461W        W 5525   8.819   2.249   1.691 -0.1983  0.0215  0.1739
 1462W        W 5526   1.422   3.959   8.006  0.1071 -0.1123  0.0366
 1463W        W 5527   9.902   7.741  10.169 -0.0140 -0.0033  0.0860
 1464W        W 5528   5.612   9.262  10.114 -0.2944  0.1702  0.2499
 1465W        W 5529   0.881   7.838   2.153 -0.3452 -0.1218  0.2011
 1466W        W 5530   0.752   6.839   3.857 -0.2258 -0.0160  0.0208
 1467W        W 5531   8.811   6.626   1.694  0.2319  0.2334 -0.3445
 1468W        W 5532   4.834   0.202  10.655 -0.0482 -0.1705  0.0578
 1469W        W 5533   1.272   1.652   2.956 -0.0318 -0.1790 -0.2138
 1470W        W 5534   7.963   0.495   9.208 -0.0705  0.3624 -0.2352
 1471W        W 5535   5.051   1.477  10.328 -0.2367 -0.1165  0.0792
 1472W        W 5536   2.179   4.765   1.540  0.1667  0.1921  0.5039
 1473W        W 5537   2.184   7.172   3.932  0.0384  0.0180 -0.1543
 1474W        W 5538   5.467   5.395  10.338  0.2535 -0.1004 -0.2154
 1475W        W 5539   0.960   6.533   1.745 -0.1086 -0.2574 -0.2773
 1476W        W 5540   7.645   2.030   8.911  0.0341 -0.2670  0.2391
 1477W        W 5541   1.390   2.906   9.184  0.0883  0.1402 -0.0138
 1478W        W 5542   2.614   2.246   0.051 -0.2286 -0.0001 -0.4206
 1479W        W 5543   1.172  10.406  11.467 -0.1306 -0.2747  0.0046
 1480W        W 5544   8.246   7.191   0.456 -0.1421  0.2483  0.2660
 1481W        W 5545   2.053   4.643   7.927 -0.0596 -0.1960  0.1176
 1482W        W 5546   1.851   7.193   1.805  0.0239 -0.3839  0.0606
 1483W        W 5547   6.461   9.718   9.946  0.0470  0.3353  0.0743
 1484W        W 5548   8.392   2.726   3.180 -0.2192 -0.0791 -0.0408
 1485W        W 5549  10.527   0.106  10.319  0.0894 -0.0541  0.0156
 1486W        W 5550   4.401   7.371  10.664  0.1752  0.0401 -0.3092
 1487W        W 5551   1.385   1.267   2.039  0.2282 -0.0356 -0.1622
 1488W        W 5552   5.158   8.693   7.478 -0.1811 -0.0621 -0.1632
 1489W        W 5553   8.125   1.216   1.311  0.0491 -0.3690 -0.1062
 1490W        W 5554   0.172  10.489   9.467  0.0764 -0.1989  0.0392
 1491W        W 5555   7.276   8.594   2.438  0.2507  0.0184 -0.1341
 1492W        W 5556   7.522   3.872   9.898 -0.0543  0.1635 -0.1065
 1493W        W 5557   2.494   8.484   8.578  0.2660 -0.1354  0.1553
 1494W        W 5558   0.937   1.137  10.041  0.0878  0.1481  0.4183
 1495W        W 5559   3.874   8.920   2.534 -0.1722  0.3278 -0.2383
 1496W        W 5560   7.888   3.667   3.163 -0.0617  0.1049  0.0310
 1497W        W 5561   8.096   5.919   2.364  0.1149 -0.2835  0.1729
 1498W        W 5562   7.367   1.255  11.402  0.0691  0.1380  0.0191
 1499W        W 5563   8.689   4.181   8.357 -0.0298 -0.0193  0.2878
 1500W        W 5564   1.042   4.591   8.781  0.0437 -0.0334 -0.1308
 1501W        W 5565   2.511   5.090   3.883 -0.2405 -0.1309 -0.1206
 1502W        W 5566   0.754   2.286   9.804  0.1073  0.1437 -0.2738
 1503W        W 5567   3.898   7.069   2.330 -0.0106  0.0523  0.2549
 1504W        W 5568   3.594   8.716   1.351 -0.3543  0.2710 -0.1742
 1505W        W 5569   4.411   4.212   3.160 -0.0043 -0.1324 -0.1487
 1506W        W 5570   0.568   4.558   3.124 -0.3346  0.3282  0.0625
 1507W        W 5571   8.129   6.996   0.012  0.1610  0.0906  0.2954
 1508W        W 5572   8.926   6.617  11.488  0.0073  0.2782  0.4462
 1509W        W 5573   7.795   0.154   2.328  0.2577  0.2312 -0.4186
 1510W        W 5574   3.113  10.589   0.078  0.3433 -0.3225  0.4424
 1511W        W 5575  10.530   1.978   9.104 -0.0322 -0.1086  0.0906
 1512W        W 5576   3.659   5.981   9.191 -0.2776  0.3545 -0.0721
 1513W        W 5577   9.571   7.285   2.600 -0.0690 -0.0135 -0.1171
 1514W        W 5578   5.741   3.089  10.428 -0.0920  0.0926  0.1979
 1515W        W 5579  10.104   5.536   1.084 -0.0291 -0.2069  0.1654
 1516W        W 5580   8.728   2.978   0.375 -0.1527  0.1423 -0.1705
 1517W        W 5581   6.638   0.277   9.625 -0.1795 -0.1713 -0.0450
 1518W        W 5582   2.756   3.893   0.897 -0.0744  0.2786 -0.2397
 1519W        W 5583   6.445   6.955  11.207  0.0232 -0.0802 -0.1005
 1520W        W 5584   1.827   6.802   2.340  0.4027  0.2744 -0.1232
 1521W        W 5585   8.298   7.840   2.481  0.0577  0.0700 -0.0576
 1522W        W 5586   6.618   3.274  11.256 -0.1170 -0.0826  0.0810
 1523W        W 5587   4.907   8.511   7.863  0.0192 -0.0625  0.1924
 1524W        W 5588   5.703   5.498   1.397  0.2861 -0.0244  0.1586
 1525W        W 5589   9.481   6.815   2.408  0.2666  0.1122  0.1337
 1526W        W 5590   2.115   8.674   1.615 -0.3945 -0.0454  0.0053
 1527W        W 5591   4.755   6.152   1.585  0.1316 -0.0031 -0.2316
 1528W        W 5592   5.554   1.577   8.929  0.0154 -0.1794  0.1366
 1529W        W 5593   1.224   3.752  10.705 -0.1005  0.0483  0.0430
 1530W        W 5594   0.594   5.652  10.388 -0.0300  0.3282  0.5744
 1531W        W 5595   6.192   4.725   1.821 -0.3050  0.1124  0.0587
 1532W        W 5596   2.606  10.224   0.950  0.2085 -0.0089  0.1123
 1533W        W 5597   6.670  10.523   8.374 -0.2329 -0.1428  0.2248
 1534W        W 5598   6.950   8.674   1.430 -0.2275  0.0544 -0.1757
 1535W        W 5599   0.687   2.148   3.776  0.0017 -0.1535 -0.2573
 1536W        W 5600   4.768  10.006   3.047  0.3552  0.2882 -0.0952
 1537W        W 5601   7.510   2.387   2.267 -0.3327  0.1748 -0.2468
 1538W        W 5602   7.371  10.540   1.115 -0.0197  0.2659  0.1924
 1539W        W 5603   2.465   5.692   1.582  0.0425 -0.3257  0.1079
 1540W        W 5604   9.172  10.515   9.283 -0.2330  0.4297  0.2747
 1541W        W 5605   2.988   0.246  10.399  0.3489 -0.0861 -0.2404
 1542W        W 5606   2.614   7.856   2.379 -0.0491  0.0975 -0.1117
 1543W        W 5607   3.898   2.364  10.262  0.1724 -0.0462 -0.0338
 1544W        W 5608   5.817   1.282   9.217 -0.1721 -0.0514  0.0641
 1545W        W 5609   1.787   3.174  10.821 -0.0304  0.0659  0.0556
 1546W        W 5610   6.180   3.755   1.812  0.2127  0.2815 -0.0005
 1547W        W 5611   8.939   7.906   1.503 -0.1826  0.2420  0.0061
 1548W        W 5612   9.213   0.016   1.306 -0.1031 -0.0321 -0.0379
 1549W        W 5613   4.623   5.973   3.110 -0.1295  0.1034  0.0642
 1550W        W 5614   8.165   0.415   1.551  0.0555  0.1915  0.1231
 1551W        W 5615   3.078   6.627   9.693  0.2025  0.0521 -0.2547
 1552W        W 5616   7.513   3.461   9.065 -0.1780  0.2388  0.3230
 1553W        W 5617   1.942   6.933   0.673  0.1178 -0.1128 -0.0724
 1554W        W 5618   2.355   6.157   0.261  0.0196 -0.1660 -0.0608
 1555W        W 5619   9.681   7.333   9.174 -0.4890  0.2577  0.0969
 1556W        W 5620   6.994   4.353   2.880 -0.0451  0.1778  0.3529
 1557W        W 5621   3.066   9.957   2.731  0.1044 -0.0529 -0.0566
 1558W        W 5622   9.719   1.892   9.207  0.4050  0.2024  0.0520
 1559W        W 5623   1.310   0.194   2.167 -0.1244 -0.1224 -0.2027
 1560W        W 5624   7.594   3.146   1.622 -0.0510  0.0171  0.2017
 1561W        W 5625   1.268   5.446   8.892 -0.0312  0.2231  0.0179
 1562W        W 5626   3.157   0.742   1.836 -0.0270 -0.0114 -0.2157
 1563W        W 5627  10.328   5.090   0.954 -0.0404  0.1998  0.0850
 1564W        W 5628   6.421   2.830   2.505  0.0446 -0.1354 -0.0790
 1565W        W 5629   5.049   4.407   9.244 -0.0393  0.2172 -0.1693
 1566W        W 5630   4.558   7.878   0.398 -0.0705 -0.1143 -0.0446
 1567W        W 5631   2.202   9.123  10.037  0.2750 -0.1347  0.1940
 1568W        W 5632   5.892   7.702  10.649  0.1395  0.5786  0.2249
 1569W        W 5633   3.118   3.181   3.409  0.1000 -0.2066 -0.1782
 1570W        W 5634   6.234  10.587   1.857  0.2765  0.0217  0.1038
 1571W        W 5635   3.615   6.740   2.059  0.3655  0.0147  0.0733
 1572W        W 5636   7.699   0.502   1.807  0.2021  0.3241  0.0945
 1573W        W 5637   5.461   2.153   2.013 -0.1763  0.0627 -0.1103
 1574W        W 5638   4.145   1.558  10.873 -0.1220  0.0721  0.0668
 1575W        W 5639   1.010   8.235   7.212 -0.2638  0.3144  0.2476
 1576W        W 5640  10.288   7.951   8.923 -0.0501  0.2794  0.2298
 1577W        W 5641   1.832   5.326  11.115 -0.1266  0.0966  0.1517
 1578W        W 5642   1.524   6.419   9.546 -0.1503  0.1578 -0.3267
 1579W        W 5643   1.174   9.803   1.740  0.0158 -0.1279 -0.2192
 1580W        W 5644   3.366   2.045   0.265 -0.2422 -0.0278 -0.1232
 1581W        W 5645   8.706   2.703  11.101  0.2439 -0.1614 -0.1487
 1582W        W 5646   4.744   6.559   1.084 -0.1679 -0.0757  0.2487
 1583W        W 5647   0.865   7.110   8.961 -0.0692  0.0510  0.2092
 1584W        W 5648   0.220   5.608   1.489  0.1638 -0.3613  0.2748
 1585W        W 5649   7.275   4.148  10.276 -0.0871 -0.0836  0.1099
 1586W        W 5650   5.110   6.099   3.013 -0.2385  0.1634  0.1407
 1587W        W 5651   7.784   8.932   0.959 -0.0209  0.2806 -0.0701
 1588W        W 5652   9.695   2.097   2.640  0.2912  0.1172  0.4196
 1589W        W 5653  10.380   7.395   0.061 -0.1686 -0.0441 -0.1439
 1590W        W 5654   6.812   7.348   3.132  0.5114 -0.2680 -0.0065
 1591W        W 5655   8.705   6.978   2.976  0.1183  0.1603  0.1549
 1592W        W 5656  10.462   3.668   0.375  0.2636  0.0286  0.0528
 1593W        W 5657   3.548   6.454   1.186  0.0286  0.2049  0.0846
 1594W        W 5658   5.204   4.066   2.524  0.1916  0.2054 -0.0355
 1595W        W 5659   5.510   3.544  10.150  0.1099 -0.1924 -0.3095
 1596W        W 5660   6.115   9.342   1.276 -0.0969 -0.0502  0.0241
 1597W        W 5661   3.770   3.034   3.823  0.4552  0.2645 -0.1083
 1598W        W 5662   0.082   7.851   9.978  0.2750 -0.0563 -0.0582
 1599W        W 5663   1.145   7.207  11.007  0.0621 -0.2028 -0.2121
 1600W        W 5664   3.851   3.548   2.301  0.1773 -0.2964 -0.2468
 1601W        W 5665   0.745   7.804  10.726  0.0867  0.0083  0.0797
 1602W        W 5666   3.176   0.452   1.420  0.2929  0.1248 -0.1348
 1603W        W 5667   0.020   5.830   2.995  0.1017  0.1799  0.3560
 1604W        W 5668   1.580   8.809   3.661  0.0566 -0.0045 -0.2412
 1605W        W 5669   0.436   1.923   9.630 -0.2261  0.3291 -0.1577
 1606W        W 5670   5.436   5.702   3.202  0.0864  0.2584 -0.3290
 1607W        W 5671   2.886   2.152   9.880 -0.2048  0.0745 -0.1335
 1608W        W 5672   2.439   8.021   1.739 -0.2912 -0.1687 -0.0717
 1609W        W 5673   4.108   7.612   0.471  0.1719  0.1237  0.2222
 1610W        W 5674   8.386   1.954  10.461 -0.2312  0.3656 -0.2664
 1611W        W 5675   5.491   3.018   1.781 -0.0389  0.5390 -0.0481
 1612W        W 5676   8.987   5.821   2.067  0.1687  0.0941 -0.1357
 1613W        W 5677   5.901   5.441  10.828  0.1045 -0.1111 -0.0202
 1614W        W 5678   5.692   6.179   9.184 -0.0741 -0.0526 -0.2493
 1615W        W 5679   7.790   8.123   3.200 -0.1768 -0.1890  0.3037
 1616W        W 5680   7.996   8.141   0.576  0.0090  0.3998 -0.0088
 1617W        W 5681   7.470   9.483   2.819 -0.1913 -0.0751 -0.1327
 1618W        W 5682   9.924   5.956   8.962 -0.0132  0.0362  0.0528
 1619W        W 5683   3.864   3.894   9.869 -0.2736 -0.1888  0.2181
 1620W        W 5684   8.292   0.923   9.243  0.1770  0.1054 -0.1386
 1621W        W 5685   9.121   2.516  11.411 -0.1754 -0.1224  0.0567
 1622W        W 5686   0.091   4.558  10.312  0.1659  0.2338  0.3947
 1623W        W 5687  10.070   7.876  11.017  0.3033 -0.0957  0.2152
 1624W        W 5688  10.227   7.584   1.629 -0.1044 -0.0866 -0.0623
 1625W        W 5689   0.143   4.928   9.822  0.0239  0.1178 -0.0566
 1626W        W 5690   7.247  10.189   1.553 -0.4991  0.0863 -0.2511
 1627W        W 5691  10.295   4.256   2.879  0.2663 -0.0146 -0.3391
 1628W        W 5692   9.279   4.248   8.044  0.2711 -0.1412 -0.1744
 1629W        W 5693   1.813   7.611   2.148  0.2962  0.2251 -0.1235
 1630W        W 5694   5.003   3.615   9.246  0.0170  0.0876 -0.2971
 1631W        W 5695   9.856   4.366   0.071 -0.2331  0.0042  0.0836
 1632W        W 5696   8.495   7.741   2.026  0.0834  0.2367  0.3598
 1633W        W 5697   1.487   3.927   1.198 -0.1353 -0.2465 -0.1368
 1634W        W 5698   2.532   9.039   0.586 -0.0048  0.0883 -0.0516
 1635W        W 5699   9.795  10.310  10.141 -0.0392 -0.1326  0.1952
 1636W        W 5700   9.208  10.293   3.357 -0.1387  0.1236 -0.0237
 1637W        W 5701  10.416   2.296   3.257  0.2393 -0.0778 -0.3100
 1638W        W 5702  10.507   0.035   8.636  0.2177  0.0074 -0.0797
 1639W        W 5703   7.769   0.101  10.670 -0.0946  0.1984  0.1347
 1640W        W 5704   3.592   1.474   0.510  0.0259  0.0692 -0.0498
 1641W        W 5705   9.352   8.360  11.400  0.1929  0.0941  0.1466
 1642W        W 5706   4.267   0.116   2.582  0.0300  0.1818  0.1699
 1643W        W 5707   8.679   1.974   0.548  0.0718  0.0321  0.0396
 1644W        W 5708   6.139   6.897   2.672 -0.3466 -0.0718 -0.1457
 1645W        W 5709   5.239   2.922   9.676 -0.2301  0.0532 -0.1104
 1646W        W 5710   9.673   4.560   8.070 -0.0244  0.1786 -0.2121
 1647W        W 5711   5.247   7.242  10.094 -0.1767 -0.0846  0.0149
 1648W        W 5712   7.400   7.182   9.033 -0.0335  0.0916 -0.1990
 1649W        W 5713   0.236   7.537  11.458  0.2178 -0.1407 -0.0588
 1650W        W 5714   5.806   5.610   9.022 -0.2146 -0.0835  0.0754
 1651W        W 5715   8.559   6.792   8.166 -0.2079  0.1440 -0.0897
 1652W        W 5716   1.394   2.602   2.581 -0.1558 -0.2123  0.0886
 1653W        W 5717   5.908   6.337   8.000  0.1025  0.1854  0.1982
 1654W        W 5718   2.134   0.590   2.616  0.1430  0.0974  0.0449
 1655W        W 5719   6.470   2.112  11.178 -0.1972 -0.0602  0.3554
 1656W        W 5720   7.272   0.835   1.552  0.0275 -0.0373  0.0703
 1657W        W 5721   5.247   5.383   2.501 -0.2731  0.0538 -0.1447
 1658W        W 5722   2.971   5.055   9.116  0.0187 -0.0241 -0.2394
 1659W        W 5723   7.767   4.467   1.770  0.0275 -0.2805  0.0379
 1660W        W 5724   9.089   4.011   2.647  0.0253  0.1807 -0.0404
 1661W        W 5725   7.198   1.764  11.376  0.0141  0.2416 -0.1100
 1662W        W 5726   4.918   3.512   3.232 -0.1976  0.1691  0.3055
 1663W        W 5727   1.975   6.271   3.540 -0.1288  0.1260 -0.3169
 1664W        W 5728   2.298   2.015   1.897 -0.0637 -0.2256  0.0565
 1665W        W 5729   5.733   3.769   8.436 -0.0046 -0.0810 -0.1650
 1666W        W 5730   7.675   9.325  11.065  0.1320 -0.1108  0.4014
 1667W        W 5731  10.406   1.109  11.248 -0.0708  0.2949  0.1278
 1668W        W 5732   1.414   2.545   0.658 -0.2960 -0.2372  0.1480
 1669W        W 5733   1.244   4.853   7.704 -0.0839 -0.2090 -0.2556
 1670W        W 5734   4.990   4.358   2.149 -0.0879  0.1150 -0.1239
 1671W        W 5735   2.863   6.177   3.706 -0.1376  0.1519  0.1143
 1672W        W 5736   5.655   3.546  11.111 -0.0870 -0.1346  0.1137
 1673W        W 5737   0.622   6.727   0.052  0.0705  0.1263  0.3286
 1674W        W 5738  10.085   1.339   8.898 -0.2286 -0.1040  0.2004
 1675W        W 5739   8.318  10.131  11.428  0.1029 -0.0005 -0.1634
 1676W        W 5740   6.306   3.785   8.321  0.1502  0.0204  0.2437
 1677W        W 5741  10.422  10.268  10.532  0.3043  0.1315  0.0308
 1678W        W 5742   0.543   9.014   1.135 -0.1009 -0.0956  0.2709
 1679W        W 5743   4.683   4.708   9.928 -0.0103 -0.0291  0.1231
 1680W        W 5744  10.247   5.776   8.606 -0.2792 -0.1584  0.4937
 1681W        W 5745   2.202   0.588   2.152  0.0967  0.0613  0.0621
 1682W        W 5746   6.166   8.913   3.415  0.0990 -0.2586  0.1603
 1683W        W 5747   5.433   3.640   2.240 -0.1784  0.1997  0.0562
 1684W        W 5748   6.631   5.982   2.240 -0.1791 -0.1301  0.0512
 1685W        W 5749   0.112   2.913   2.666  0.4882  0.2080 -0.1276
 1686W        W 5750   6.590   0.286   7.953 -0.1027  0.0159 -0.0075
 1687W        W 5751   7.680   9.809   1.425  0.0554  0.0638 -0.1218
 1688W        W 5752   8.071   3.798   0.789  0.1437 -0.1251 -0.0056
 1689W        W 5753   9.634  10.126   0.899  0.0516  0.0251  0.0859
 1690W        W 5754   7.550   7.759   2.228 -0.4561  0.0893 -0.1760
 1691W        W 5755   6.052   2.579   9.738  0.1198  0.3479 -0.3050
 1692W        W 5756   3.916   8.917   3.209  0.0297 -0.1401  0.2260
 1693W        W 5757   0.602   3.738   2.883 -0.1236  0.1266 -0.0262
 1694W        W 5758   3.211   2.678   0.164  0.4018  0.3902  0.0173
 1695W        W 5759  10.503   2.793   0.600  0.0806 -0.2720  0.0970
 1696W        W 5760   3.418   4.780   1.747  0.0758 -0.1354 -0.0891
 1697W        W 5761   6.540   0.672   9.855 -0.3288  0.1303 -0.0819
 1698W        W 5762   3.799   5.228   8.552  0.0184  0.1694  0.0916
 1699W        W 5763   1.702   5.335   8.715  0.0717  0.4888  0.1506
 1700W        W 5764   5.964   1.405  10.748  0.0931  0.2154  0.1411
 1701W        W 5765   9.556   6.014   0.645 -0.1972  0.0335 -0.1383
 1702W        W 5766   2.175  10.420  11.147  0.1326 -0.0617 -0.0168
 1703W        W 5767   7.393   4.685  10.547 -0.0986  0.2120  0.0035
 1704W        W 5768   7.572   7.615   9.522  0.1541 -0.1755  0.1399
 1705W        W 5769   2.158   5.402   8.578 -0.0739 -0.0567  0.1452
 1706W        W 5770   4.594   1.121  11.009  0.0847  0.0998 -0.0361
 1707W        W 5771   7.247   4.426   9.009 -0.2155  0.0500 -0.2811
 1708W        W 5772   6.304   1.573  10.383 -0.0888  0.2301  0.0762
 1709W        W 5773   8.984   4.655   8.208  0.1026  0.3580  0.2762
 1710W        W 5774   1.545   1.886   1.381 -0.0403 -0.0311  0.0173
 1711W        W 5775   9.082   6.239   0.505 -0.1885 -0.0195 -0.1584
 1712W        W 5776   5.387   1.390   9.966  0.0393  0.2277  0.0947
 1713W        W 5777   6.340   6.574   8.076  0.0461 -0.0763  0.0841
 1714W        W 5778   3.120   7.499   8.143  0.2841  0.0972  0.4811
 1715W        W 5779   5.429   1.505   9.489  0.1741 -0.3636  0.0053
 1716W        W 5780   7.434   9.405   8.432  0.3884  0.2459 -0.0557
 1717W        W 5781   9.074   1.778   1.553 -0.0203 -0.1411 -0.0291
 1718W        W 5782   1.090   6.091   1.405 -0.0434  0.1024  0.1539
 1719W        W 5783   8.678   2.491   1.147 -0.0506  0.0581  0.0376
 1720W        W 5784   3.361   0.321   0.922  0.2806 -0.3464  0.0108
 1721W        W 5785   2.534   9.227   2.799  0.1347 -0.2359 -0.2739
 1722W        W 5786   7.263   6.035   0.584 -0.0097 -0.2783 -0.2370
 1723W        W 5787   3.321   2.802   8.688 -0.3646  0.1981 -0.0900
 1724W        W 5788  10.581   4.021   9.017 -0.0512  0.1061  0.4029
 1725W        W 5789   9.012   8.717   9.619 -0.0587  0.3513  0.1282
 1726W        W 5790   6.908   5.994   8.257 -0.0524 -0.2386 -0.1197
 1727W        W 5791   5.424   3.933   9.819  0.1266  0.0811 -0.0169
 1728W        W 5792   9.828   0.645  10.001 -0.2375  0.1685  0.2753
 1729W        W 5793   6.855   5.705   7.664  0.0847  0.1231  0.0300
 1730W        W 5794   3.218   9.162   3.201  0.1434  0.1502 -0.2454
 1731W        W 5795   5.720   9.020   8.999 -0.0917 -0.2307 -0.0979
 1732W        W 5796   2.276   5.865   9.888  0.0400 -0.0591 -0.0064
 1733W        W 5797  10.235   9.034   1.613  0.0410  0.0764 -0.0865
 1734W        W 5798   7.359   3.937   9.006  0.1748  0.2605 -0.3469
 1735W        W 5799   7.641   7.914  11.332  0.1215  0.2420 -0.0832
 1736W        W 5800   4.087   3.087   1.585  0.2539 -0.1890  0.0820
 1737W        W 5801   8.892   9.191   1.393  0.3227  0.0529 -0.2520
 1738W        W 5802   4.824  10.596   2.442  0.3199  0.2158 -0.2062
 1739W        W 5803   9.155   4.092   9.723 -0.1590 -0.0501  0.3878
 1740W        W 5804   9.934   6.469   9.704 -0.0977 -0.0636  0.0200
 1741W        W 5805   3.471   9.449   0.809 -0.2881  0.0876  0.0823
 1742W        W 5806  10.448   4.865  11.288  0.0875  0.0007  0.0214
 1743W        W 5807   5.852   7.673   0.538  0.0208 -0.0184 -0.0282
 1744W        W 5808   1.004   2.013   1.495  0.0558  0.0023  0.3393
 1745W        W 5809   1.039   3.002   2.950  0.5077 -0.2898 -0.2362
 1746W        W 5810   0.430   1.446   0.823 -0.0565  0.3615  0.2341
 1747W        W 5811   9.282   4.921   0.438  0.1428 -0.0003  0.0981
 1748W        W 5812   0.997   7.345   1.894  0.1413 -0.3903  0.0275
 1749W        W 5813   9.931   8.452   9.758 -0.0785 -0.3524  0.1861
 1750W        W 5814   9.696   8.942  10.415 -0.3666 -0.1662  0.1721
 1751W        W 5815   9.382   0.465   7.383  0.1751  0.3842  0.2048
 1752W        W 5816   9.501   6.188   7.649  0.3358 -0.0147 -0.3825
 1753W        W 5817   7.796   6.086   1.878  0.4982 -0.0683  0.0649
 1754W        W 5818   4.456   9.154   4.233 -0.1464  0.0178  0.4572
 1755W        W 5819   7.685   4.428  10.204  0.0856  0.1073  0.2249
 1756W        W 5820   2.217   5.750  11.131 -0.1287  0.0811 -0.1394
 1757W        W 5821   3.596   0.685   1.224 -0.4519 -0.1372  0.0493
 1758W        W 5822  10.190   4.402  10.904  0.4847 -0.1838 -0.0779
 1759W        W 5823   3.727   3.178   8.629  0.0391  0.2005  0.0541
 1760W        W 5824   4.763   6.924  10.060  0.3062 -0.4004 -0.5515
 1761W        W 5825   5.792   2.700  11.347 -0.0274  0.1567  0.0486
 1762W        W 5826   6.434   4.351   8.594 -0.1196  0.0112  0.0672
 1763W        W 5827   0.478   1.078   3.004  0.1889 -0.2359  0.3010
 1764W        W 5828  10.302  10.603   9.526  0.0154  0.3057 -0.1682
 1765W        W 5829  10.180   5.649   2.781 -0.0342  0.1745 -0.3597
 1766W        W 5830   2.339   8.146   2.654  0.0214 -0.1844  0.1075
 1767W        W 5831   5.356   0.194   2.991 -0.0849  0.3472 -0.1506
 1768W        W 5832   4.238   1.224   8.429  0.0216 -0.0984 -0.1542
 1769W        W 5833   1.262   6.768   8.618 -0.0431 -0.1665 -0.2632
 1770W        W 5834  10.448   9.392  10.973 -0.0595  0.0515 -0.2591
 1771W        W 5835   9.127   2.640   1.741  0.1299  0.0514  0.2723
 1772W        W 5836   5.892   4.554   8.705  0.2611 -0.5248 -0.0313
 1773W        W 5837   9.966   2.589  10.697  0.0723 -0.0304 -0.1088
 1774W        W 5838   5.939  10.634   3.542 -0.2336  0.0749 -0.0886
 1775W        W 5839   6.957   2.328  10.521 -0.0108  0.3366 -0.1041
 1776W        W 5840   0.680   6.544   8.005 -0.4039  0.1078  0.1703
 1777W        W 5841   5.062  10.349   9.708 -0.0487 -0.1453  0.1616
 1778W        W 5842   1.025   2.467   1.254 -0.0407  0.2783  0.1404
 1779W        W 5843   6.251   1.578   9.370  0.1310 -0.1115  0.1462
 1780W        W 5844   1.308   8.606  10.961  0.0605 -0.4956 -0.0627
 1781W        W 5845   3.539   0.115   1.790  0.0308  0.1576  0.0349
 1782W        W 5846   8.156   2.592   8.657 -0.3467 -0.3204 -0.0765
 1783W        W 5847   7.531   9.348   0.046 -0.0784 -0.0382 -0.2654
 1784W        W 5848   6.505   1.515   2.899 -0.2563  0.0749 -0.1586
 1785W        W 5849   2.290   9.325   9.513 -0.1666  0.4325 -0.0704
 1786W        W 5850   1.146   3.839   3.576 -0.1107 -0.3955  0.1610
 1787W        W 5851   1.185   3.843  10.007  0.0610 -0.1280 -0.1459
 1788W        W 5852   6.993   4.415  10.691 -0.3409  0.1147  0.0771
 1789W        W 5853   9.233  10.306   1.703  0.1123 -0.2925  0.2142
 1790W        W 5854   4.460   8.869   9.203 -0.5058 -0.1511  0.0338
 1791W        W 5855   1.828   6.756   8.150  0.2790  0.1738  0.0670
 1792W        W 5856   6.687   7.827   3.248  0.0747  0.3524  0.0802
 1793W        W 5857   4.293   0.599  11.150  0.0594 -0.0718  0.1529
 1794W        W 5858   0.292   0.505   1.766  0.2344  0.0915  0.1680
 1795W        W 5859   7.070   6.304  10.943 -0.0502  0.3624  0.1739
 1796W        W 5860   6.816   1.387   0.338 -0.1164  0.1998 -0.1459
 1797W        W 5861  10.507   5.256   1.972  0.1345 -0.3316  0.3367
 1798W        W 5862   9.138   1.703  10.730  0.2387  0.2358 -0.0422
 1799W        W 5863   0.876   2.212   1.931 -0.2493  0.2295  0.2675
 1800W        W 5864   4.268   7.180   9.713 -0.0671  0.0371  0.1741
 1801W        W 5865   8.667  10.525  10.561 -0.0901  0.0170 -0.1904
 1802W        W 5866   0.947   6.403   7.012 -0.0340 -0.1161  0.0730
 1803W        W 5867   9.836   0.850   3.719 -0.0044 -0.3856  0.0987
 1804W        W 5868   0.826   9.180  10.436  0.2225  0.0121  0.1273
 1805W        W 5869   8.962   0.252   1.792  0.1920 -0.1870 -0.0515
 1806W        W 5870   4.299   2.697   7.831  0.1834  0.2695 -0.0806
 1807W        W 5871   3.730   7.865   0.266  0.0202  0.1258 -0.1683
 1808W        W 5872   9.004   1.363   9.543  0.1051 -0.3423  0.0585
 1809W        W 5873   6.980   9.088   1.791  0.1460 -0.1732  0.2644
 1810W        W 5874   1.418   3.631   2.751  0.0543 -0.0867  0.0346
 1811W        W 5875   4.394   1.805   1.725 -0.3635  0.0382  0.1502
 1812W        W 5876   6.162   8.993   7.212 -0.0147 -0.0182 -0.1261
 1813W        W 5877   4.339   2.582   3.050  0.2979 -0.0178 -0.0852
 1814W        W 5878  10.563   9.837  11.163 -0.0031 -0.0550  0.0210
 1815W        W 5879   5.564   2.196   1.384 -0.1380 -0.1279  0.5329
 1816W        W 5880   3.455   9.051   2.374 -0.0617  0.3493  0.2426
 1817W        W 5881   0.256   4.095   3.051  0.0232  0.2733 -0.0126
 1818W        W 5882   4.856   0.732   0.266  0.0911  0.1986 -0.3233
 1819W        W 5883   4.219   5.631  11.196  0.1172  0.0040 -0.0544
 1820W        W 5884   5.006   3.675  10.050 -0.1940  0.0884 -0.3503
 1821W        W 5885   7.057   8.337  10.554 -0.4384 -0.2437  0.1175
 1822W        W 5886   6.725   2.218   3.308  0.1570  0.1917  0.0896
 1823W        W 5887   8.932   6.467   1.187 -0.1793  0.1708 -0.4816
 1824W        W 5888   4.633   1.603   8.488 -0.1138 -0.3351  0.0325
 1825W        W 5889   7.205   6.867   8.682  0.0720 -0.1731  0.4476
 1826W        W 5890   7.823   0.115  10.074  0.1021  0.0726 -0.0347
 1827W        W 5891   9.832   1.433  11.472 -0.4727  0.0216 -0.2843
 1828W        W 5892   3.688  10.236   8.877  0.1309 -0.1054  0.0139
 1829W        W 5893   0.475   8.908   8.434  0.1984 -0.0619 -0.0847
 1830W        W 5894   0.001   0.561  11.306 -0.2273 -0.1720  0.0542
 1831W        W 5895   0.699   9.891   2.747 -0.0167 -0.1575 -0.1904
 1832W        W 5896   4.593   6.516   2.165  0.0476 -0.0962  0.0198
 1833W        W 5897   6.642   2.787  10.251 -0.0619  0.0447 -0.1017
 1834W        W 5898   8.847   5.203   3.485  0.2641 -0.1067 -0.1299
 1835W        W 5899   0.927   1.571   3.846  0.2954 -0.2018 -0.4404
 1836W        W 5900   6.731   9.997   8.100 -0.0671 -0.0418  0.0664
 1837W        W 5901   9.059   8.700   8.997 -0.3896  0.1366  0.1841
 1838W        W 5902   5.170   3.662   2.850 -0.2875  0.2514  0.1020
 1839W        W 5903   3.402   5.310   3.055 -0.0617 -0.0606  0.1782
 1840W        W 5904   8.623   7.361   9.213  0.1786 -0.0828 -0.1170
 1841W        W 5905   4.562   8.174  11.553 -0.0749 -0.1550  0.2266
 1842W        W 5906   0.001   5.225   9.257 -0.1841 -0.0732  0.1208
 1843W        W 5907   8.397   6.777   1.952  0.0310  0.3251 -0.0153
 1844W        W 5908   8.614   2.691   1.584 -0.3193 -0.4588  0.0297
 1845W        W 5909   2.499   5.341  11.009 -0.0348 -0.0398  0.0849
 1846W        W 5910   1.736   0.327   9.839  0.0016  0.0502 -0.3365
 1847W        W 5911   9.262   4.853   8.637  0.0146 -0.2693 -0.1739
 1848W        W 5912   1.822   9.434   2.154  0.0045  0.1265  0.2964
 1849W        W 5913   4.659   5.549   8.165 -0.3710 -0.2372  0.0117
 1850W        W 5914   7.979  10.531  11.394 -0.1573  0.1141  0.1238
 1851W        W 5915  10.010   6.956   2.490  0.0338 -0.2423  0.3733
 1852W        W 5916   4.321   6.348   7.271  0.0268 -0.2545  0.1653
 1853W        W 5917   9.511   4.179   8.945 -0.2543  0.2419  0.2054
 1854W        W 5918   0.639   8.193  10.158  0.1755 -0.2042  0.0238
 1855W        W 5919   1.129   6.436   2.227  0.0589  0.0196  0.2087
 1856W        W 5920   1.154   4.703   1.993 -0.1884  0.1245 -0.1155
 1857W        W 5921   6.302   1.332   3.389 -0.0946 -0.0090 -0.3632
 1858W        W 5922   5.462   0.493   1.543  0.1630 -0.0027 -0.1818
 1859W        W 5923   6.244   1.831  10.821 -0.2661  0.2636 -0.2822
 1860W        W 5924   5.818   7.841   8.438 -0.1252  0.1789  0.2685
 1861W        W 5925   6.257   0.312  10.841  0.1644 -0.1508 -0.2320
 1862W        W 5926   1.766   2.144   9.718 -0.1144 -0.1254 -0.3003
 1863W        W 5927   4.600   9.875  11.550  0.0620 -0.2845 -0.1614
 1864W        W 5928   2.926   0.566  10.835  0.1357  0.1785 -0.2327
 1865W        W 5929   3.527  10.636  11.438  0.2367 -0.1614 -0.1115
 1866W        W 5930   0.726  10.124   0.805  0.0397  0.0315  0.0335
 1867W        W 5931   6.137   8.391   0.509  0.0453 -0.2775 -0.0163
 1868W        W 5932   7.984   3.215  11.580 -0.0835 -0.1890  0.3077
 1869W        W 5933  10.527   1.547   0.893  0.3762 -0.2879  0.2869
 1870W        W 5934   6.832   4.482   3.336  0.0056  0.0932  0.0119
 1871W        W 5935   7.328   5.070   4.260  0.2154 -0.2105  0.3421
 1872W        W 5936   7.234   5.655  10.152 -0.2470  0.3361 -0.1438
 1873W        W 5937   0.043   3.680   2.113  0.1441  0.1510 -0.1679
 1874W        W 5938   2.549   7.087   9.485 -0.3541 -0.1003  0.0377
 1875W        W 5939   2.761   5.040   0.722  0.3513 -0.0709 -0.0443
 1876W        W 5940   6.469   8.421   1.344  0.1497 -0.2616 -0.2396
 1877W        W 5941   2.665   0.511   0.251  0.2059  0.1174 -0.0455
 1878W        W 5942   5.069   4.113   1.087 -0.2792  0.2394  0.0339
 1879W        W 5943  10.408   7.735   2.749  0.1307  0.1291  0.3502
 1880W        W 5944   2.864  10.513  10.131 -0.2140  0.1408 -0.1580
 1881W        W 5945   6.677   5.706   9.072 -0.0788  0.2627 -0.0961
 1882W        W 5946  10.371   3.724   8.182  0.0636 -0.0066  0.0561
 1883W        W 5947   2.855   6.865   0.557  0.0268 -0.3011  0.2891
 1884W        W 5948   4.002   4.032   2.095 -0.0419  0.2097 -0.2174
 1885W        W 5949   2.096   7.688   9.116 -0.0886  0.0603  0.0217
 1886W        W 5950   0.751   0.332   9.920 -0.0262 -0.0362 -0.0473
 1887W        W 5951   4.733   6.536   8.586  0.1639  0.1679 -0.2189
 1888W        W 5952   7.194   9.448   3.291  0.1263 -0.0751  0.0198
 1889W        W 5953   9.974   3.009   3.158  0.0014  0.1365  0.1825
 1890W        W 5954   0.816   3.837  11.105  0.2986  0.2662  0.0166
 1891W        W 5955   8.029   7.644   1.509 -0.0963  0.2239  0.0402
 1892W        W 5956   9.501   9.248   2.196  0.2011  0.1696 -0.3210
 1893W        W 5957   9.149   4.023   8.470  0.0228 -0.3424  0.0438
 1894W        W 5958   1.957   8.333   0.825 -0.0705 -0.2207 -0.1068
 1895W        W 5959   2.027  10.523   3.742 -0.1791 -0.0532  0.1470
 1896W        W 5960   8.911   5.214   0.229 -0.0183 -0.0545 -0.0201
 1897W        W 5961   1.678   7.516   7.433  0.3085  0.1281  0.3705
 1898W        W 5962   4.189   2.974  11.163  0.1933 -0.1438  0.2333
 1899W        W 5963   5.417   2.384  11.462  0.1304  0.2487  0.0457
 1900W        W 5964   0.822   5.017   2.278  0.1000 -0.0506  0.1105
 1901W        W 5965   0.983   6.081   1.909  0.1803  0.2242  0.0011
 1902W        W 5966   9.481   7.757   2.210 -0.1995 -0.0003  0.0470
 1903W        W 5967   9.739  10.620  11.017 -0.2347 -0.0889 -0.1657
 1904W        W 5968   4.295   3.344  10.009  0.3144 -0.1715  0.0257
 1905W        W 5969   4.288   4.378   7.726 -0.0802  0.0795  0.0380
 1906W        W 5970   2.670   6.252   7.209 -0.1619 -0.0111 -0.0314
 1907W        W 5971   9.570   9.387  10.517  0.1595  0.0961 -0.1611
 1908W        W 5972   7.524   1.242   1.158 -0.0376 -0.1427  0.2710
 1909W        W 5973   3.316   4.663   9.037  0.1334  0.1551  0.0098
 1910W        W 5974   7.106   0.611  10.734 -0.2881  0.2382  0.1657
 1911W        W 5975   6.015   4.772   3.358  0.0134 -0.2957  0.0048
 1912W        W 5976   8.261   0.351   9.944  0.0222 -0.3569 -0.2772
 1913W        W 5977   0.584   4.308  11.001 -0.0898 -0.0997  0.1789
 1914W        W 5978   1.166   5.291   1.280 -0.0824  0.1137 -0.2737
 1915W        W 5979   4.338   7.621   2.808  0.1133 -0.2234 -0.0167
 1916W        W 5980   8.773   4.463   2.217 -0.2923 -0.0485 -0.1454
 1917W        W 5981   7.151   4.066   7.892  0.1093  0.3810 -0.0695
 1918W        W 5982   3.952   6.309  10.131 -0.0477 -0.2626 -0.0468
 1919W        W 5983   9.545   2.144   0.516  0.2739 -0.0671  0.1058
 1920W        W 5984  10.294   3.828  11.463  0.0893 -0.0034 -0.0314
 1921W        W 5985   1.735   6.760   2.906 -0.0801 -0.0330  0.2725
 1922W        W 5986   9.226   4.492   1.346 -0.0678  0.0193 -0.1815
 1923W        W 5987   4.684   3.622   9.649  0.3503  0.2284 -0.1342
 1924W        W 5988   1.901   7.934   1.132 -0.1412  0.3371 -0.1272
 1925W        W 5989   6.451   5.834   0.741  0.2651 -0.0883  0.0334
 1926W        W 5990  10.405   5.298   0.074 -0.0063 -0.1172 -0.0558
 1927W        W 5991   0.515   8.253  10.712 -0.0359 -0.0729 -0.1650
 1928W        W 5992   0.531   3.775  10.660  0.3103  0.2264 -0.2374
 1929W        W 5993   7.958   5.010   9.604 -0.0832 -0.1355 -0.3523
 1930W        W 5994   0.040   9.000   0.180 -0.0059  0.2346  0.1938
 1931W        W 5995   2.001   8.709   2.074 -0.1407 -0.3302  0.0773
 1932W        W 5996   0.404   6.162   2.639  0.1434 -0.0044 -0.0727
 1933W        W 5997   3.449   3.243   9.172 -0.0113 -0.0889  0.0021
 1934W        W 5998   1.724   9.204  10.349 -0.1748 -0.3330  0.2277
 1935W        W 5999   8.785   2.220  11.194 -0.1930 -0.1282 -0.0817
 1936W        W 6000   2.567   7.338   3.637  0.1834  0.3254 -0.2159
 1937W        W 6001   8.668   9.615   2.257  0.2827  0.1969  0.0710
 1938W        W 6002   3.894   7.687   0.976 -0.0234 -0.0108  0.3309
 1939W        W 6003  10.289   8.192   3.386 -0.0107  0.1254  0.1027
 1940W        W 6004  10.333   6.668   9.546  0.0969 -0.2272  0.0427
 1941W        W 6005   9.693   0.688  11.336  0.0607 -0.0791 -0.1418
 1942W        W 6006   3.044   1.746   3.022  0.0233 -0.2110 -0.0679
 1943W        W 6007   2.341   6.582   9.242  0.0719  0.1100 -0.1626
 1944W        W 6008   0.949   1.586  10.831 -0.1150 -0.1211 -0.3676
 1945W        W 6009   9.866   5.988   1.063  0.2719 -0.2448 -0.3738
 1946W        W 6010   1.697   3.882  10.407  0.0713  0.4680 -0.0136
 1947W        W 6011   8.388   1.509  11.544  0.3755 -0.0292  0.1675
 1948W        W 6012   3.849   8.650  10.550 -0.0938 -0.0140 -0.0170
 1949W        W 6013   1.678   6.515   8.594  0.1106  0.0025 -0.3495
 1950W        W 6014   7.998   1.361   2.341 -0.2080  0.2210  0.1030
 1951W        W 6015   9.051   9.795   3.228 -0.4144  0.0291  0.2182
 1952W        W 6016   6.807   5.924   3.271  0.0286  0.0270 -0.0329
 1953W        W 6017   3.463   5.966   8.054  0.0756 -0.0437 -0.2128
 1954W        W 6018   5.654   1.407   2.696 -0.1873  0.1056  0.0393
 1955W        W 6019   3.364   8.224   1.467  0.1838  0.2064  0.2389
 1956W        W 6020   8.824   0.491   0.911 -0.0247  0.0262  0.1755
 1957W        W 6021   2.726   6.305   9.519 -0.0310 -0.0167  0.0239
 1958W        W 6022   2.712   3.472   2.521 -0.7768  0.1175 -0.0750
 1959W        W 6023   1.757   2.996   1.473 -0.1026 -0.0279 -0.3563
 1960W        W 6024   7.939   7.988   8.929 -0.3099 -0.1775  0.3202
 1961W        W 6025   7.167   0.827   0.545  0.2398  0.1575  0.1100
 1962W        W 6026   3.168   2.978   2.577 -0.1390  0.1018 -0.2313
 1963W        W 6027  10.109   8.693  10.546 -0.0106  0.3437 -0.3687
 1964W        W 6028   1.663   9.005   2.294  0.4103 -0.3881  0.0599
 1965W        W 6029   7.518   5.450   0.450 -0.3000 -0.1571 -0.4086
 1966W        W 6030   0.769   8.861  10.042 -0.1536 -0.0015  0.2219
 1967W        W 6031   6.883   6.480   2.457 -0.0640  0.2418  0.2471
 1968W        W 6032   6.910   7.181   9.023  0.1326  0.0005 -0.1212
 1969W        W 6033   0.166   3.528   3.162  0.2057 -0.5947 -0.0654
 1970W        W 6034  10.318   4.220   0.365 -0.0340 -0.1453  0.0878
 1971W        W 6035   2.854   0.205   3.224 -0.2082  0.4962  0.2703
 1972W        W 6036   7.379   9.872  11.001 -0.2985  0.0666 -0.0236
 1973W        W 6037   9.040   6.117   7.772 -0.0182 -0.0797  0.0789
 1974W        W 6038   7.111   9.745   7.106  0.3051 -0.1343 -0.0092
 1975W        W 6039   0.601   7.503   1.071 -0.3050 -0.0457  0.1090
 1976W        W 6040   0.989   5.105   8.642 -0.0515  0.4138  0.2674
 1977W        W 6041   3.373   8.731   3.340 -0.0530  0.2942 -0.1051
 1978W        W 6042  10.367   6.542  10.414  0.0158 -0.1745  0.0057
 1979W        W 6043   4.560   4.997   1.896 -0.2464 -0.2371 -0.2195
 1980W        W 6044   4.868   4.377   0.727 -0.1209 -0.0986 -0.0138
 1981W        W 6045   4.035   4.635   1.063  0.3348 -0.0254 -0.4102
 1982W        W 6046   5.519  10.177   1.192 -0.1502 -0.1721  0.0469
 1983W        W 6047   4.905   7.798   0.047 -0.0836 -0.0282  0.3169
 1984W        W 6048   4.777   9.775   0.685  0.0032 -0.0594 -0.1308
 1985W        W 6049   1.786   1.571   1.834 -0.1028  0.1590 -0.3948
 1986W        W 6050   9.651  10.358   1.329  0.0341  0.2248 -0.0242
 1987W        W 6051   0.817   8.932   2.443  0.4238 -0.1533 -0.0658
 1988W        W 6052   1.370   7.687   0.581  0.1199  0.0567 -0.0699
 1989W        W 6053   3.557   2.392   9.662 -0.0026 -0.0172  0.1307
 1990W        W 6054   2.670  10.547   2.866 -0.1053  0.0952 -0.2091
 1991W        W 6055   0.077   0.179   1.019 -0.2453  0.1354 -0.1855
 1992W        W 6056   2.674   4.193   3.486 -0.0050 -0.0113 -0.0360
 1993W        W 6057   1.731   7.454   8.875 -0.0650  0.2327  0.0745
 1994W        W 6058  10.552   7.198   9.627 -0.2407  0.0595  0.0073
 1995W        W 6059   6.418   6.328   2.609 -0.0063  0.2075  0.1100
 1996W        W 6060   2.717   1.634   1.788  0.1759  0.2208 -0.5377
 1997W        W 6061   1.965   9.532   9.893  0.0188  0.2432 -0.2811
 1998W        W 6062   9.977   3.483   0.501 -0.0523 -0.1914  0.0147
 1999W        W 6063   7.949   3.850   9.651  0.1213  0.3093 -0.3757
 2000W        W 6064  10.509   6.146   0.013 -0.0292  0.2733  0.2611
 2001W        W 6065   8.039   0.862   7.855 -0.2554 -0.0722  0.1434
 2002W        W 6066   4.619   1.937   8.992 -0.0531  0.3730  0.0659
 2003W        W 6067   6.825   3.464   2.488  0.1878  0.1230 -0.2472
 2004W        W 6068   8.047   3.866   2.728 -0.0171  0.2576  0.1456
 2005W        W 6069   1.150   8.148   0.506  0.0911 -0.1910 -0.1172
 2006W        W 6070   6.193   7.635   1.939  0.3075  0.3194 -0.0480
 2007W        W 6071   0.923   5.616  10.874 -0.0421  0.1034  0.2049
 2008W        W 6072   2.919   6.842  10.112 -0.1373  0.3186 -0.0318
 2009W        W 6073   8.764   4.411  10.429 -0.0094  0.0092  0.1402
 2010W        W 6074   2.662   9.124   3.237 -0.0013  0.0896 -0.1175
 2011W        W 6075   0.648   2.045   8.455 -0.3278  0.1573 -0.0666
 2012W        W 6076   5.355   6.925   9.738  0.1309  0.3517  0.2537
 2013W        W 6077   4.384   0.850   0.470  0.1342  0.1557  0.0561
 2014W        W 6078   2.693   6.316   0.836 -0.2401  0.1929  0.1229
 2015W        W 6079   3.330   7.715   2.830  0.0237 -0.0265  0.1548
 2016W        W 6080   1.127   1.886  11.196  0.1298 -0.0900  0.3447
 2017W        W 6081   7.527   0.682   3.013  0.0679 -0.0114  0.0322
 2018W        W 6082   1.176   6.386   9.879  0.4201  0.3189  0.3317
 2019W        W 6083   5.184  10.448   0.404  0.1427 -0.1489  0.3009
 2020W        W 6084   7.657   0.117   9.257 -0.0176 -0.0840  0.0524
 2021W        W 6085   4.190   9.306   2.376  0.1089 -0.1568  0.1081
 2022W        W 6086  10.207   0.884   1.700  0.3601  0.2653  0.3918
 2023W        W 6087   0.335   7.311   9.428 -0.1048 -0.1393  0.1556
 2024W        W 6088   2.690   5.357   1.300  0.3890  0.0956  0.0962
 2025W        W 6089   2.656   8.093  10.795  0.1035  0.0588 -0.0744
 2026W        W 6090   2.915  10.419   8.023  0.0477  0.0243  0.1772
 2027W        W 6091   3.033   0.084  11.118 -0.2548  0.1333  0.1998
 2028W        W 6092   6.318   5.431   1.621  0.0762  0.0397 -0.0588
 2029W        W 6093   4.971   6.128  11.390 -0.0635  0.4705 -0.2066
 2030W        W 6094   4.481   7.175   0.389  0.0071 -0.0137  0.2866
 2031W        W 6095   2.036   3.954   8.686  0.0009 -0.1556  0.3249
 2032W        W 6096   6.746   6.350   1.373  0.2649  0.1097  0.2939
 2033W        W 6097   1.107   2.466   9.046  0.1581 -0.0212  0.1761
 2034W        W 6098   6.976   1.178   1.253 -0.0494  0.2188  0.0476
 2035W        W 6099   3.164   4.567   0.544 -0.0102 -0.1620 -0.2081
 2036W        W 6100   8.391   8.299   2.291 -0.0636 -0.0616 -0.1477
 2037W        W 6101   5.912   3.031   9.959 -0.1200 -0.0000 -0.0733
 2038W        W 6102   4.834   2.714   9.800 -0.0834  0.0611 -0.0039
 2039W        W 6103   2.670   7.299   4.123 -0.0556  0.0127 -0.4621
 2040W        W 6104   1.054   7.456  10.545 -0.0481 -0.0796  0.0035
 2041W        W 6105   5.924   2.641  10.212 -0.0685  0.1547 -0.4865
 2042W        W 6106   3.952   7.895  10.063  0.0750 -0.1317 -0.1188
 2043W        W 6107   9.216   1.120   9.979  0.2340  0.0064 -0.0983
 2044W        W 6108   5.167   8.125   9.456  0.4072  0.0704  0.0762
 2045W        W 6109   9.485   5.635   1.911  0.2855 -0.1101  0.3028
 2046W        W 6110   0.023   5.939   0.466 -0.2010 -0.0509  0.2667
 2047W        W 6111   5.347   6.962  11.108 -0.0346  0.1016  0.2773
 2048W        W 6112   1.160   8.070   9.216  0.0853 -0.1405  0.1187
 2049W        W 6113   4.833   1.749   1.445  0.1021  0.0253 -0.1278
 2050W        W 6114   4.246   9.095   0.524  0.2809 -0.0313 -0.1312
 2051W        W 6115   1.036   6.650  10.301 -0.2274 -0.1901 -0.0420
 2052W        W 6116   9.925   1.102  11.095  0.1558  0.1386 -0.0805
 2053W        W 6117   9.442   4.912   0.966 -0.1455  0.1365  0.0202
 2054W        W 6118   1.875   2.642   3.324 -0.1677 -0.1742 -0.2480
 2055W        W 6119   0.345  10.601   2.415 -0.1356 -0.0022 -0.1173
 2056W        W 6120   6.274   1.757   7.943 -0.3098  0.2721 -0.1800
 2057W        W 6121   2.708  10.078  10.461 -0.1041  0.1679  0.1498
 2058W        W 6122   1.780   6.894  11.226 -0.0070 -0.1023 -0.2079
 2059W        W 6123   8.546   8.655   7.939 -0.0419 -0.1514  0.3193
 2060W        W 6124   5.995   1.240   2.988 -0.1205  0.1089 -0.0359
 2061W        W 6125  10.311   1.604   9.353 -0.1595 -0.0431 -0.1446
 2062W        W 6126   3.341   9.551   2.894  0.0921  0.1305 -0.1522
 2063W        W 6127   1.576   4.468   3.217  0.2193 -0.3171 -0.0352
 2064W        W 6128   7.810   9.220   3.447 -0.1882  0.2373  0.1874
 2065W        W 6129   4.622   6.437  11.228 -0.2159 -0.0432  0.0389
 2066W        W 6130   6.726   5.534   2.523  0.1612 -0.2000 -0.1146
 2067W        W 6131   6.547   4.637  11.575  0.2704 -0.2803 -0.1169
 2068W        W 6132   1.001   8.935   3.028 -0.3170 -0.2896 -0.2138
 2069W        W 6133   5.888   8.219   8.746 -0.2556  0.0938 -0.0819
 2070W        W 6134  10.406   0.143  11.006  0.0068  0.0351  0.0055
 2071W        W 6135   5.619  10.135  10.888  0.4425  0.0607 -0.1490
 2072W        W 6136   4.759   7.146   9.169  0.0879  0.1505  0.1837
 2073W        W 6137   3.294   9.257   7.786  0.1300 -0.0324  0.1170
 2074W        W 6138   4.459   0.371   8.632 -0.0099  0.1248 -0.0165
 2075W        W 6139   3.627   7.600   8.053  0.1749 -0.3072 -0.1460
 2076W        W 6140   4.486   5.254   2.913 -0.3453  0.0189 -0.4599
 2077W        W 6141   5.840   0.119   9.835 -0.1684  0.2879 -0.2709
 2078W        W 6142   1.902   7.861   0.555  0.1949 -0.1271 -0.0100
 2079W        W 6143   8.007   7.360   2.477 -0.0397 -0.2413 -0.1799
 2080W        W 6144   5.029   5.651  10.137 -0.2910 -0.0345  0.2279
 2081W        W 6145   3.129   6.657   2.880 -0.2979 -0.0131  0.3140
 2082W        W 6146   4.755   5.483   3.824 -0.1062  0.0647  0.3977
 2083W        W 6147   7.450   7.094   0.865 -0.3117  0.2876 -0.1645
 2084W        W 6148   9.444   3.235   8.705 -0.0984 -0.2067 -0.1623
 2085W        W 6149   2.408   6.345   1.381  0.2381 -0.1561  0.0248
 2086W        W 6150   3.460   4.781  10.436  0.0235  0.0483  0.2679
 2087W        W 6151   6.802   2.523   7.987  0.1768  0.1480 -0.0590
 2088W        W 6152   3.735   0.255   9.575 -0.3987 -0.1926  0.0926
 2089W        W 6153   1.408   3.289   1.790  0.3501  0.3042  0.1573
 2090W        W 6154   9.984   3.181   8.890  0.0662  0.1016  0.1346
 2091W        W 6155   3.940   6.857   1.646 -0.0646  0.2338 -0.1357
 2092W        W 6156   9.513   1.435   1.341 -0.2641  0.2727 -0.0997
 2093W        W 6157   3.958   1.128   3.846  0.0103 -0.4272  0.0379
 2094W        W 6158   4.342   1.145   3.524 -0.1973 -0.1011  0.0758
 2095W        W 6159   2.129   3.668  10.365  0.0533 -0.0155  0.0920
 2096W        W 6160   6.606   3.726  10.967 -0.2567  0.0371 -0.0507
 2097W        W 6161   6.265   1.940   8.591  0.2666  0.2051 -0.1666
 2098W        W 6162   9.850   2.674   2.660  0.2142 -0.0259 -0.0766
 2099W        W 6163   9.681   9.874   3.083  0.2123 -0.0077 -0.0655
 2100W        W 6164   1.464   8.522   7.396  0.3080 -0.3466  0.0551
 2101W        W 6165   2.109   6.601   3.191  0.1827  0.3144 -0.0823
 2102W        W 6166   2.948   8.891   3.584  0.1017  0.0681  0.0341
 2103W        W 6167   3.788   8.164   0.671  0.1601 -0.1480  0.2063
 2104W        W 6168   1.625  10.382   2.883  0.1717  0.0078 -0.0802
 2105W        W 6169   1.125   3.913   8.391  0.0469  0.2465 -0.1095
 2106W        W 6170   8.479   6.760   2.513  0.3090  0.0778  0.0650
 2107W        W 6171   2.963   5.492  10.540  0.5030  0.1153 -0.0394
 2108W        W 6172   9.558   1.919   3.988  0.2299 -0.0469  0.0542
 2109W        W 6173   4.760   5.665   7.200 -0.3567 -0.0899 -0.2726
 2110W        W 6174  10.121   0.982   3.253 -0.1335 -0.3033 -0.0077
 2111W        W 6175   4.846   4.346  11.219 -0.1479  0.0826  0.0339
 2112W        W 6176   8.843   8.538   2.106  0.0605 -0.4402  0.0427
 2113W        W 6177   7.314   5.435   1.709 -0.2289 -0.0968 -0.1053
 2114W        W 6178   9.955   8.672   9.247 -0.3039 -0.1520 -0.6222
 2115W        W 6179   5.272   1.592   0.017 -0.0030  0.3762 -0.0762
 2116W        W 6180   8.404   0.435   9.472 -0.0092  0.0397  0.0365
 2117W        W 6181   0.763   9.217   0.718  0.3124  0.0294 -0.3039
 2118W        W 6182   3.815   0.170   0.777 -0.0565 -0.1106 -0.2922
 2119W        W 6183   5.535   3.331   1.386  0.0386  0.0670  0.1880
 2120W        W 6184   0.545   8.127   8.765  0.0605  0.1649 -0.1209
 2121W        W 6185   1.130   5.502   2.093  0.0848 -0.1321 -0.0815
 2122W        W 6186   2.816   0.074   1.003 -0.0370  0.2058  0.4297
 2123W        W 6187   7.241   4.638   4.043  0.1935  0.0032 -0.2193
 2124W        W 6188   7.218   5.185   0.738  0.2704 -0.0423 -0.0503
 2125W        W 6189   1.441   7.570   1.683  0.4257  0.0785  0.1720
 2126W        W 6190   0.933   0.452   2.435  0.0834  0.0144  0.1055
 2127W        W 6191   2.902   4.213   8.296 -0.1247  0.2014 -0.1564
 2128W        W 6192   7.015   7.309   1.723 -0.2923  0.1739 -0.2065
 2129W        W 6193   5.366   6.289   8.067  0.0977 -0.0608 -0.1478
 2130W        W 6194   7.766   3.392  10.580  0.1217  0.0066 -0.1001
 2131W        W 6195   2.659   1.920  11.275  0.2091 -0.2364  0.1445
 2132W        W 6196   8.412   4.940   9.893  0.2136 -0.5172 -0.0661
 2133W        W 6197   9.780   1.332   2.058  0.2327 -0.1154  0.0474
 2134W        W 6198   1.666   4.517   9.751  0.0572 -0.1659  0.0376
 2135W        W 6199   9.378   1.604   2.311  0.2368  0.0333 -0.0439
 2136W        W 6200   7.422   9.125   1.372  0.0140 -0.0841  0.1093
 2137W        W 6201   4.917   0.771   9.467 -0.0686 -0.0284  0.2247
 2138W        W 6202   7.172   8.072  11.004 -0.1979  0.2310 -0.0096
 2139W        W 6203   3.863   8.770   0.405  0.2680 -0.0381 -0.1174
 2140W        W 6204   0.477   7.039   7.624 -0.0572  0.1242 -0.1210
 2141W        W 6205   5.162   7.108   2.905 -0.1464  0.0583 -0.0200
 2142W        W 6206   2.210   2.249   3.199  0.0331  0.1880  0.0306
 2143W        W 6207   4.085   3.324   8.907 -0.1771 -0.2562  0.1178
 2144W        W 6208   7.109   3.664   1.596  0.2937 -0.0229 -0.1860
 2145W        W 6209   5.246   3.896  10.431  0.3380 -0.4781  0.1400
 2146W        W 6210   7.323   9.308   2.089 -0.0183  0.1600  0.1047
 2147W        W 6211   4.551   9.696   1.603  0.0722  0.0347 -0.1068
 2148W        W 6212   2.302   5.464   2.542 -0.0315 -0.3081  0.0357
 2149W        W 6213   6.080   6.925   8.817 -0.0524  0.0500  0.2191
 2150W        W 6214   6.902   4.312   9.382  0.0851 -0.1619  0.0815
 2151W        W 6215   1.419   1.004   1.031 -0.0736 -0.0920  0.2523
 2152W        W 6216   0.463   6.033   1.712 -0.1155 -0.1552  0.0082
 2153W        W 6217   7.165   5.354   9.061  0.1727 -0.1984 -0.0596
 2154W        W 6218   5.778   6.735   0.486 -0.0886 -0.0128 -0.2916
 2155W        W 6219   3.386   5.200   9.474 -0.0588 -0.0462  0.1427
 2156W        W 6220   4.363  10.610  10.575  0.0422  0.0417  0.3704
 2157W        W 6221   4.339   9.149   2.790  0.0385 -0.2873 -0.1760
 2158W        W 6222   2.418   4.473   0.809  0.1376  0.1239 -0.2070
 2159W        W 6223   7.282   4.073  11.138  0.1125 -0.1394  0.2018
 2160W        W 6224   9.838   3.247   9.421  0.0647  0.2143 -0.0593
 2161W        W 6225   1.692   0.588   1.227  0.0220  0.1811  0.0729
 2162W        W 6226   7.892   9.679   0.371  0.2621 -0.0438 -0.1155
 2163W        W 6227   2.629   9.648  10.824 -0.2646 -0.0487 -0.3539
 2164W        W 6228   6.092   8.131   3.370  0.5309 -0.0965  0.1817
 2165W        W 6229   8.231   9.335  10.931 -0.1246 -0.2706 -0.1389
 2166W        W 6230   1.335   0.008   1.337  0.3484 -0.2763 -0.3211
 2167W        W 6231   2.362   8.309   9.647 -0.1335 -0.4420 -0.0213
 2168W        W 6232   6.576   4.739   8.297 -0.0440 -0.0967 -0.0911
 2169W        W 6233   3.504   2.123   1.055  0.1796 -0.2084 -0.1291
 2170W        W 6234   2.135  10.053   8.353  0.1335  0.0631 -0.1772
 2171W        W 6235   1.819   0.739   2.946  0.0184  0.0381  0.1604
 2172W        W 6236   5.043   5.714  11.114  0.1406 -0.2569  0.0599
 2173W        W 6237   6.749   0.432  11.326 -0.1281  0.2831  0.3085
 2174W        W 6238   4.445   2.512   3.730  0.0260  0.0611  0.2078
 2175W        W 6239   5.065   5.107  10.436  0.1303 -0.1437 -0.1536
 2176W        W 6240  10.041   8.327   0.204 -0.0572 -0.2958  0.0526
 2177W        W 6241   6.494   3.254  10.091 -0.0174 -0.0755  0.1050
 2178W        W 6242   9.331   6.653   1.404  0.1115  0.1542 -0.0759
 2179W        W 6243   9.125   6.662   2.861 -0.2336 -0.2499 -0.1181
 2180W        W 6244   9.183  10.462   8.197  0.0693 -0.1987  0.2035
 2181W        W 6245   5.536   8.760   7.887 -0.0187  0.1142 -0.1393
 2182W        W 6246   9.504   0.227   8.355 -0.0335  0.2093  0.0230
 2183W        W 6247   2.935   0.979   2.443  0.2671  0.1737  0.1378
 2184W        W 6248   7.315   5.750   2.615  0.2941  0.1030 -0.0171
 2185W        W 6249   8.679   3.126   1.322 -0.0230 -0.0389 -0.0156
 2186W        W 6250   9.745   7.230  10.108  0.0637 -0.1808  0.0173
 2187W        W 6251   0.603   8.269   0.250  0.0016 -0.1207  0.1340
 2188W        W 6252   0.646   5.507   2.518 -0.1460 -0.1077  0.1297
 2189W        W 6253   5.294   2.646   3.264 -0.0704 -0.2648  0.1430
 2190W        W 6254  10.363   8.488   8.945  0.1065  0.2656  0.0085
 2191W        W 6255   5.562   4.524  11.030  0.0562 -0.1422  0.0053
 2192W        W 6256   6.455   0.035  11.295  0.0483 -0.3111  0.2781
 2193W        W 6257   7.294   3.647   9.453  0.0744  0.1970  0.0997
 2194W        W 6258   0.696   4.866   0.011  0.0248 -0.1662  0.0035
 2195W        W 6259   8.066   9.773  10.903  0.0175  0.1502  0.1903
 2196W        W 6260   2.810   4.904   8.298  0.5133 -0.1505 -0.0298
 2197W        W 6261   6.812   9.194   8.400 -0.0102  0.1105  0.2110
 2198W        W 6262   1.757   5.514   1.434 -0.3415 -0.0167 -0.0020
 2199W        W 6263   1.941   2.223  10.229 -0.0062 -0.1505  0.2747
 2200W        W 6264   2.201   8.370   7.863 -0.2065 -0.0065 -0.1688
 2201W        W 6265   8.000   3.480   2.404 -0.1374  0.0369 -0.2860
 2202W        W 6266   2.625   6.071   7.993  0.3283 -0.3987 -0.2338
 2203W        W 6267   7.351   1.735   8.567  0.3401 -0.0014  0.0429
 2204W        W 6268   2.028   3.989   9.952 -0.0974 -0.0867 -0.2492
 2205W        W 6269   3.178   6.135   9.758 -0.1811 -0.2024  0.1349
 2206W        W 6270   9.288   6.664   1.939 -0.1701  0.3810 -0.2391
 2207W        W 6271   9.107   6.215   2.998  0.0886  0.0929  0.1084
 2208W        W 6272   9.775   2.423  11.380  0.0558  0.1573 -0.0776
 2209W        W 6273   4.155   8.580  11.539 -0.1454 -0.2845 -0.5001
 2210W        W 6274   3.816   9.251   0.320 -0.1661  0.0222  0.2353
 2211W        W 6275   8.284   5.714   8.348  0.1462 -0.1876  0.0766
 2212W        W 6276   1.509   0.828   9.468  0.2475 -0.0518 -0.3314
 2213W        W 6277   4.542   3.966   1.675 -0.1363  0.0451 -0.2144
 2214W        W 6278   3.211   1.794   0.680  0.0087  0.3234  0.0336
 2215W        W 6279   2.985   7.072   9.660 -0.1478 -0.1989  0.0846
 2216W        W 6280   5.715   0.111   2.054 -0.0459 -0.1002 -0.3351
 2217W        W 6281   3.463   0.370  11.127  0.1109  0.4060 -0.0209
 2218W        W 6282   2.379   2.437   0.475 -0.3526 -0.0333 -0.3498
 2219W        W 6283  10.560  10.284   9.912  0.1778 -0.0187  0.3303
 2220W        W 6284   2.137   7.624   2.639 -0.0741 -0.2792  0.3713
 2221W        W 6285   0.896   2.441   2.714 -0.2382  0.0390 -0.0109
 2222W        W 6286   7.834   1.655   8.481 -0.0952 -0.1690  0.1422
 2223W        W 6287   7.076   9.645   0.181 -0.1061  0.2414  0.0702
 2224W        W 6288  10.247   1.377   2.215 -0.2162 -0.0173 -0.0595
 2225W        W 6289   2.285   5.332   9.105 -0.5588  0.0840 -0.0752
 2226W        W 6290   3.494   9.353   8.741 -0.2645  0.3466  0.0121
 2227W        W 6291   9.503  10.332   0.106  0.1305  0.2762 -0.0709
 2228W        W 6292   1.353   4.319   8.379 -0.2049 -0.1548  0.2169
 2229W        W 6293   2.189   6.962   0.165  0.0992 -0.3067  0.0969
 2230W        W 6294   9.478   7.245  11.562  0.1745  0.1504  0.1047
 2231W        W 6295   3.017   9.333  10.959 -0.0219  0.0378  0.1551
 2232W        W 6296   9.783   5.422   2.258  0.1944 -0.0618  0.0087
 2233W        W 6297   8.099   1.911   9.655 -0.4459  0.2661 -0.4150
 2234W        W 6298   4.226  10.458   8.870  0.3377 -0.1217  0.1827
 2235W        W 6299   9.140   4.098   0.845  0.2487 -0.2622 -0.1437
 2236W        W 6300   5.559   3.315   2.735 -0.3230  0.0860 -0.1408
 2237W        W 6301  10.485   8.589   1.568  0.3540 -0.0528 -0.0848
 2238W        W 6302  10.020   2.632   1.936  0.0496 -0.2155 -0.1977
 2239W        W 6303   4.409   7.627  10.209 -0.0167  0.4871  0.2025
 2240W        W 6304   0.916   5.701   8.043  0.0054  0.3346  0.2281
 2241W        W 6305   5.092   1.867   8.047  0.0630 -0.0893 -0.1079
 2242W        W 6306   3.175   9.318   3.665 -0.0582 -0.0133  0.2175
 2243W        W 6307   9.376   8.842   9.309  0.0971 -0.1774  0.0265
 2244W        W 6308   4.142   4.196  10.984 -0.0639 -0.1980 -0.1753
 2245W        W 6309   6.397  10.465   7.958  0.0554  0.0008  0.3523
 2246W        W 6310   1.758   2.871   7.951 -0.1999  0.0495  0.2977
 2247W        W 6311   8.475   7.929   9.130  0.3508 -0.0513 -0.1754
 2248W        W 6312   3.699   8.223  11.518 -0.2156 -0.4197 -0.1316
 2249W        W 6313   6.383   0.599   0.627 -0.1686 -0.0162  0.2080
 2250W        W 6314   6.815   0.521   8.346 -0.0311 -0.4570 -0.1968
 2251W        W 6315   8.809   7.494   7.554  0.0289  0.2567  0.3485
 2252W        W 6316   3.676   7.717  11.373 -0.2897  0.4213 -0.3875
 2253W        W 6317   9.341   0.540   9.880  0.1843 -0.1512  0.1894
 2254W        W 6318   3.962   3.003  10.251 -0.1720 -0.0147  0.1679
 2255W        W 6319   0.533   7.888   2.504 -0.0337  0.1657 -0.0356
 2256W        W 6320   9.017   2.130  10.391 -0.1599 -0.2350  0.2948
 2257W        W 6321   7.896   4.774   1.387 -0.1147 -0.0183 -0.1544
 2258W        W 6322   8.820   9.960   0.523  0.3805  0.0144 -0.1992
 2259W        W 6323   8.023   7.577   2.021 -0.1878 -0.2355 -0.2906
 2260W        W 6324   1.883   1.666   9.071  0.2247  0.1724  0.0397
 2261W        W 6325   9.939   3.003  10.997  0.4032  0.3074  0.2427
 2262W        W 6326   2.486   0.573   1.689 -0.1694  0.0718  0.2813
 2263W        W 6327   2.893  10.046   1.645 -0.0343 -0.0119 -0.0090
 2264W        W 6328  10.361   3.509   9.017 -0.0381  0.1497  0.2952
 2265W        W 6329  10.475   2.536   9.117  0.1078  0.2208 -0.0122
 2266W        W 6330   1.512  10.043   9.847  0.2999  0.0840 -0.1507
 2267W        W 6331   2.145   7.406   0.358  0.1312  0.1967  0.2498
 2268W        W 6332   7.525   5.321   9.402 -0.0862 -0.0509 -0.1203
 2269W        W 6333   5.361   6.532  11.385 -0.1375  0.2429  0.1983
 2270W        W 6334   4.753   2.150  10.997  0.0743  0.4571  0.0453
 2271W        W 6335   4.903  10.097   1.986 -0.1524  0.1188 -0.1776
 2272W        W 6336   8.254   7.899  10.709  0.0581 -0.0210 -0.0014
 2273W        W 6337   1.845   4.909   8.396  0.1780  0.0355 -0.3026
 2274W        W 6338   5.190   8.928   1.054 -0.0172 -0.0186  0.2375
 2275W        W 6339   9.326   3.127   1.913  0.3160  0.4811  0.3441
 2276W        W 6340   1.579   3.780   8.433 -0.1576 -0.2591 -0.4205
 2277W        W 6341   9.791   0.507   0.273 -0.1231  0.0409  0.1276
 2278W        W 6342   0.807   8.340   3.176 -0.1158  0.2110  0.1021
 2279W        W 6343   8.097   7.498   9.845 -0.2810 -0.0898  0.0474
 2280W        W 6344  10.260  10.005   8.892 -0.1485 -0.0015  0.2195
 2281W        W 6345   9.349   6.635   3.720 -0.0561 -0.2445 -0.2451
 2282W        W 6346   9.154   1.351   2.776  0.3026 -0.0210  0.1049
 2283W        W 6347   5.666   7.280  10.484 -0.2749 -0.0264  0.2285
 2284W        W 6348   9.667   0.197  10.134 -0.0375 -0.1383  0.0032
 2285W        W 6349   8.013   9.484  11.462  0.1002  0.1537 -0.1908
 2286W        W 6350  10.564   1.488   8.915 -0.4519 -0.1790 -0.1238
 2287W        W 6351  10.179   7.164   1.872  0.1678  0.2329  0.2243
 2288W        W 6352   5.376  10.233   1.712 -0.2453 -0.1978  0.2673
 2289W        W 6353  10.011  10.152   9.730 -0.0129  0.0565 -0.0413
 2290W        W 6354   1.481   0.097  10.929  0.2019  0.1016 -0.2095
 2291W        W 6355   2.575   9.345   1.031  0.0383 -0.1341  0.1496
 2292W        W 6356   8.289   0.377   3.015  0.2091  0.0219 -0.2911
 2293W        W 6357   3.766   0.074   9.079 -0.0062 -0.0468 -0.0214
 2294W        W 6358   2.371   3.228   0.389  0.1344  0.1870 -0.1318
 2295W        W 6359   2.103   4.015  10.766 -0.1459  0.0235 -0.0444
 2296W        W 6360  10.222   8.242   9.428 -0.2206 -0.3023 -0.1141
 2297W        W 6361   2.953   6.659  11.087  0.2001 -0.1740  0.1384
 2298W        W 6362   4.854   6.340   8.140  0.3019  0.1777  0.1175
 2299W        W 6363  10.317   7.158  11.231  0.1057  0.0240 -0.1053
 2300W        W 6364   5.215   6.760   9.316 -0.0418 -0.3382  0.0968
 2301W        W 6365   5.284   9.561   8.246  0.1410  0.3167 -0.0148
 2302W        W 6366   0.043   9.997   0.034  0.1359 -0.2336 -0.0012
 2303W        W 6367   9.294   2.127   0.002 -0.0693  0.0966  0.0551
 2304W        W 6368   7.650   1.494   2.849 -0.0942  0.2476  0.2380
 2305W        W 6369   0.918   9.371   9.908 -0.2943  0.3399 -0.1606
 2306W        W 6370   3.731   8.420   1.737  0.1318 -0.1260 -0.0355
 2307W        W 6371   5.040   9.666   7.624  0.4009 -0.3459  0.2195
 2308W        W 6372   2.517   4.796   8.790  0.2864  0.0557 -0.1327
 2309W        W 6373   3.055   1.828   1.270 -0.1893  0.1723 -0.4210
 2310W        W 6374   3.414   7.404   3.247  0.0885 -0.4018  0.2686
 2311W        W 6375   7.130   7.709   1.488 -0.2078 -0.1129 -0.1337
 2312W        W 6376   6.224   4.049   1.239  0.3629  0.0798  0.0282
 2313W        W 6377   0.015  10.218   2.481 -0.0067  0.1053  0.2517
 2314W        W 6378   9.730   8.780  10.880  0.5243 -0.1774  0.0093
 2315W        W 6379   7.261   3.470   9.934 -0.1264  0.0052  0.2018
 2316W        W 6380   9.200   2.630   0.870 -0.0995  0.0303  0.3887
 2317W        W 6381   1.493   5.524   3.108  0.1267 -0.3500 -0.1026
 2318W        W 6382   8.596   1.037   8.722 -0.0421  0.1413  0.1003
 2319W        W 6383   5.731   1.923   2.501 -0.0488  0.0763 -0.2532
 2320W        W 6384   4.472   2.574  11.210  0.1647 -0.0138 -0.0842
 2321W        W 6385   4.107   2.920   3.464  0.2033  0.0857  0.2432
 2322W        W 6386   8.177   6.318   2.708 -0.2765  0.2488  0.1845
 2323W        W 6387   9.025   2.380   8.585 -0.0714  0.0552 -0.1627
 2324W        W 6388   2.218   9.883  11.179 -0.3033 -0.0794  0.0371
 2325W        W 6389   6.091   9.004  10.215  0.0525 -0.0492  0.1922
 2326W        W 6390   6.422   9.094   9.666 -0.0482  0.1453  0.1953
 2327W        W 6391   7.015   8.616  10.122 -0.1151 -0.1907 -0.2719
 2328W        W 6392   8.967   6.140  10.779 -0.3894 -0.1952  0.2505
 2329W        W 6393   5.675   7.926   1.862 -0.2943  0.5127 -0.2239
 2330W        W 6394   8.729   5.363  11.398 -0.0530 -0.4218 -0.2877
 2331W        W 6395   8.313  10.439   9.966  0.0672  0.0545 -0.0902
 2332W        W 6396   2.039   1.564  10.820  0.4604  0.0286  0.1188
 2333W        W 6397   6.042   1.225   1.233  0.0354 -0.1585 -0.0793
 2334W        W 6398   6.450   5.741  10.758  0.0736 -0.0925  0.0739
 2335W        W 6399   8.766   2.952  10.376  0.1885 -0.1603 -0.0061
 2336W        W 6400   2.433   4.715  10.497 -0.4058 -0.1625 -0.0997
 2337W        W 6401   2.237   7.271   8.016 -0.0402  0.4520 -0.2253
 2338W        W 6402   2.534   6.751   1.020 -0.1536 -0.2362 -0.0622
 2339W        W 6403   9.287   1.845   1.107 -0.0468  0.3410 -0.3315
 2340W        W 6404   5.476   3.854   1.617 -0.3439 -0.1193  0.2064
 2341W        W 6405   1.241   6.994  11.545  0.0787 -0.1339 -0.1104
 2342W        W 6406   9.600   6.242   1.495  0.0522  0.1489  0.0006
 2343W        W 6407   4.973   9.525   2.044 -0.0898  0.1706  0.0992
 2344W        W 6408   1.469   0.335   1.653  0.1758  0.4039 -0.0256
 2345W        W 6409   6.054  10.003   3.018 -0.1024  0.2096  0.0087
 2346W        W 6410   3.350   5.679   9.612 -0.0012  0.0178 -0.0186
 2347W        W 6411   3.750   6.126   8.421  0.2317 -0.1660 -0.1581
 2348W        W 6412   2.581   1.965   0.531  0.1033 -0.0706  0.4429
 2349W        W 6413   9.552   5.544   1.000  0.2456 -0.0343 -0.3294
 2350W        W 6414   7.976   7.064  11.126 -0.2439 -0.1211 -0.2148
 2351W        W 6415   5.707   0.256  11.564 -0.0908 -0.0373  0.1261
 2352W        W 6416   9.709   9.240  11.559 -0.0699  0.2450 -0.0018
 2353W        W 6417   1.729  10.111   8.863  0.0758  0.4305  0.2171
 2354W        W 6418   9.646   0.027   0.877  0.2209  0.0108 -0.3882
 2355W        W 6419   7.803   4.814   8.733 -0.0293 -0.1394 -0.0761
 2356W        W 6420   1.559   8.077   1.548 -0.1679 -0.0716  0.3166
 2357W        W 6421   7.272   6.636   7.553  0.1131 -0.0992  0.3480
 2358W        W 6422   9.469   4.086  11.419  0.3299  0.1475 -0.1252
 2359W        W 6423   8.065   1.233   8.600 -0.2610  0.0653  0.1184
 2360W        W 6424   5.129   4.519   9.726  0.2341  0.1027 -0.1571
 2361W        W 6425   3.958   5.605   0.551 -0.1195  0.1464  0.0803
 2362W        W 6426   7.815   1.533  10.154 -0.0450 -0.3751 -0.1463
 2363W        W 6427   3.164   9.765   9.582 -0.1195  0.2257 -0.1271
 2364W        W 6428   1.821  10.078  10.991 -0.2311 -0.1941  0.1252
 2365W        W 6429   0.280   9.712   2.469  0.1788 -0.1077  0.0418
 2366W        W 6430   7.659   5.052  11.040  0.3518  0.1240 -0.0408
 2367W        W 6431   8.130   6.290   0.512 -0.3156  0.0446  0.1958
 2368W        W 6432   7.241  10.181   7.524  0.3764 -0.2355 -0.3538
 2369W        W 6433   5.235   6.438   2.647  0.2823  0.0445  0.0047
 2370W        W 6434   4.054   6.786   0.323 -0.1771 -0.1129 -0.2849
 2371W        W 6435   7.994   3.298   9.245 -0.0878 -0.1102 -0.2139
 2372W        W 6436   7.334   7.310  10.215 -0.2119 -0.0112 -0.2718
 2373W        W 6437   6.970   3.447  10.741 -0.1057  0.1697  0.2590
 2374W        W 6438   4.804   6.763   2.531 -0.0054  0.0165 -0.3361
 2375W        W 6439   6.450   0.859   8.075  0.1280 -0.2018 -0.0358
 2376W        W 6440   1.038   7.934   1.691  0.0653  0.1014 -0.1906
 2377W        W 6441   0.998   0.809   9.258 -0.2349 -0.0546  0.0354
 2378W        W 6442   9.897   0.510   3.277  0.2138  0.0625  0.0642
 2379W        W 6443   1.006   0.338   0.638  0.0014 -0.0047 -0.1256
 2380W        W 6444   5.699   3.055  10.970  0.4230 -0.0236 -0.1275
 2381W        W 6445   1.456  10.542  10.004  0.3083 -0.0207  0.1851
 2382W        W 6446   2.901   1.941   2.466 -0.0572  0.4130 -0.0281
 2383W        W 6447   6.675   2.328   2.542 -0.0154 -0.0528  0.0367
 2384W        W 6448   8.692   1.121  10.534 -0.0065 -0.1748  0.0351
 2385W        W 6449   5.400   2.810   8.260  0.0243 -0.1353  0.4381
 2386W        W 6450   1.996   8.557   4.004  0.0957  0.1592 -0.1685
 2387W        W 6451   1.796   6.392  11.041  0.1291 -0.0673  0.0197
 2388W        W 6452   4.283   1.234   2.491  0.0575  0.0427  0.1863
 2389W        W 6453  10.549   1.871   9.753 -0.2480  0.1542 -0.0878
 2390W        W 6454   3.414   3.142   0.044  0.2627  0.0378 -0.1620
 2391W        W 6455   2.062   7.338  11.448 -0.2315 -0.2834  0.0141
 2392W        W 6456   6.961   3.194  10.302 -0.2785  0.1249 -0.0211
 2393W        W 6457   9.691   5.260  10.855  0.2459  0.0838 -0.0402
 2394W        W 6458   4.468   3.027   1.920 -0.0212 -0.2175  0.0588
 2395W        W 6459   9.156   4.743  10.244  0.0394  0.3344  0.2596
 2396W        W 6460   5.061   7.229   9.548  0.1361  0.1325 -0.1402
 2397W        W 6461  10.577   8.901   8.602  0.2997 -0.0922 -0.2500
 2398W        W 6462   6.357   5.484  11.183  0.2081 -0.0882 -0.1134
 2399W        W 6463   7.626   2.261   3.737  0.3136  0.0312 -0.0943
 2400W        W 6464  10.528   6.449   2.970  0.3860  0.0916 -0.4203
 2401W        W 6465   4.409   6.418   9.007 -0.2150 -0.0989 -0.1407
 2402W        W 6466   8.119  10.290   9.219 -0.0688 -0.0275 -0.1757
 2403W        W 6467  10.325   2.064   3.725 -0.0897  0.1975 -0.1042
 2404W        W 6468   5.778   5.559   2.399 -0.2121 -0.0730 -0.2505
 2405W        W 6469   3.545   4.237   2.370 -0.0422 -0.0322  0.0122
 2406W        W 6470   1.443   6.443  10.673  0.1447  0.0271  0.2476
 2407W        W 6471   3.008   3.505   9.277  0.1011  0.0929  0.1644
 2408W        W 6472   3.353   0.824  10.730 -0.0027  0.0652  0.1574
 2409W        W 6473  10.186   0.739  11.501 -0.1147 -0.0688  0.0717
 2410W        W 6474   3.017   0.643   2.900 -0.0369 -0.0203 -0.2574
 2411W        W 6475   7.885   8.083   7.934 -0.2120  0.0991 -0.1125
 2412W        W 6476  10.123   2.747   8.706  0.2968 -0.0755 -0.0608
 2413W        W 6477  10.114   0.918   8.128  0.0253  0.1598 -0.1413
 2414W        W 6478   9.905   4.581   9.254 -0.1608  0.2672  0.3039
 2415W        W 6479   1.631  10.174  10.461 -0.1827  0.0597 -0.1752
 2416W        W 6480   1.486   0.860   1.640  0.0033  0.0395  0.3234
 2417W        W 6481   5.809   9.335   9.412  0.0971 -0.1788  0.1561
 2418W        W 6482   7.026   1.789   3.145  0.1428 -0.3581  0.1935
 2419W        W 6483   3.781   7.330   9.909 -0.2549 -0.0712 -0.1731
 2420W        W 6484   0.168   8.146   3.252  0.0729 -0.0340 -0.2605
 2421W        W 6485   3.203   8.254  10.155 -0.1235  0.1680  0.0313
 2422W        W 6486   0.626   2.858  10.780  0.1294  0.0302  0.1558
 2423W        W 6487   8.308   3.876   2.290  0.1446 -0.3530 -0.1466
 2424W        W 6488   7.973   1.662   9.220 -0.0484 -0.0626  0.2400
 2425W        W 6489   0.026   9.102   9.447  0.0357  0.1118 -0.1003
 2426W        W 6490   5.959   9.305   2.375 -0.2109 -0.1093  0.1628
 2427W        W 6491   3.832   0.315   3.020 -0.0742 -0.2530  0.3034
 2428W        W 6492   7.370   0.982  10.888  0.1337 -0.0375  0.0513
 2429W        W 6493   7.997   5.634   1.059 -0.0928  0.0017 -0.4150
 2430W        W 6494   9.424   9.427   3.191 -0.2429  0.1889 -0.0619
 2431W        W 6495   0.630   3.924  10.159  0.0213 -0.0104 -0.0881
 2432W        W 6496   7.358   8.782  10.647  0.0174 -0.1474  0.0168
 2433W        W 6497   0.998   9.869  11.473  0.0640  0.0987 -0.0042
 2434W        W 6498   8.390   0.719  10.244  0.2396  0.0728  0.0129
 2435W        W 6499   2.925   0.183   2.492 -0.1471 -0.5665 -0.2582
 2436W        W 6500   8.751   6.345   2.640  0.2239  0.1330  0.2396
 2437W        W 6501   5.121   3.281   2.487 -0.3568  0.2061  0.0626
 2438W        W 6502   1.051   7.523   0.223  0.4362 -0.2261  0.1619
 2439W        W 6503   2.988   0.383   3.672 -0.1229  0.0923  0.0373
 2440W        W 6504   0.988   5.762   0.448  0.2303  0.0299  0.3091
 2441W        W 6505   8.788   5.162  10.936 -0.0870  0.1754  0.0463
 2442W        W 6506   0.301   4.988  10.325  0.0070 -0.0223 -0.2054
 2443W        W 6507   3.645   6.820   2.672  0.2250  0.2160  0.0201
 2444W        W 6508   8.771   5.031   0.652  0.2329 -0.1386 -0.2237
 2445W        W 6509   3.180   5.052   2.114  0.0302 -0.0081  0.0778
 2446W        W 6510   2.508   4.412   7.918 -0.2825  0.1068  0.1610
 2447W        W 6511   2.733   4.939  10.837 -0.0365  0.1509 -0.3717
 2448W        W 6512   9.217   5.191   2.820  0.2518  0.0247  0.0449
 2449W        W 6513   7.274   8.807   0.064  0.4696 -0.2498 -0.3098
 2450W        W 6514   8.222   8.980   8.212 -0.2045 -0.1440 -0.0717
 2451W        W 6515   7.906   4.738   2.181 -0.2581 -0.2850  0.0853
 2452W        W 6516   7.410   3.580   8.473  0.1375  0.0143 -0.0001
 2453W        W 6517   0.282   0.474  10.245 -0.0971  0.0068  0.5278
 2454W        W 6518   7.795   5.632   0.060 -0.0590 -0.0845 -0.0307
 2455W        W 6519   5.637   2.844   0.663  0.0507 -0.1579  0.0121
 2456W        W 6520   6.571   4.469   1.112 -0.0732 -0.0760  0.0492
 2457W        W 6521   4.479   9.144   1.307 -0.2002  0.0378  0.0405
 2458W        W 6522   7.854   4.647  10.842  0.1417 -0.0402  0.0997
 2459W        W 6523   9.416   3.478   7.182  0.2462 -0.0819  0.0118
 2460W        W 6524   7.558   7.260   2.333  0.0699  0.1709 -0.0787
 2461W        W 6525   7.634   4.422   0.841 -0.1267 -0.0485  0.2509
 2462W        W 6526   3.768  10.332   1.048 -0.0593 -0.0067  0.1165
 2463W        W 6527   2.714   1.980  10.325 -0.3424  0.1909  0.3670
 2464W        W 6528   3.751   3.015   7.631 -0.2160  0.2897  0.0639
 2465W        W 6529   7.434   6.058   8.237  0.2514  0.2714  0.1564
 2466W        W 6530   3.062   3.299  10.775 -0.0914  0.0956  0.0204
 2467W        W 6531  10.367   4.837   9.493 -0.5621  0.0988 -0.1531
 2468W        W 6532   0.960   8.633  11.317  0.5803  0.2492 -0.1942
 2469W        W 6533   9.127   1.751  11.258 -0.0388  0.0392 -0.1147
 2470W        W 6534   1.456   8.716   9.946  0.1872 -0.1560  0.3073
 2471W        W 6535   5.983   7.249   9.170 -0.0216 -0.2869 -0.1398
 2472W        W 6536   6.321   1.680   0.914  0.1338 -0.2477 -0.0197
 2473W        W 6537   3.390   6.112   8.800  0.0069  0.0415 -0.0410
 2474W        W 6538   4.947   0.268   0.672  0.0290  0.1799  0.0819
 2475W        W 6539   1.679   7.811   8.332 -0.0665  0.2745 -0.1079
 2476W        W 6540   9.705   0.985   0.657 -0.1717  0.1243  0.2637
 2477W        W 6541   1.748   9.114  11.377  0.3203  0.2595  0.0593
 2478W        W 6542   2.705   3.669   0.410 -0.0494 -0.2399  0.1026
 2479W        W 6543   0.846   0.757   0.914 -0.0037 -0.1065  0.2335
 2480W        W 6544   4.956   5.060   2.269  0.0528  0.1042 -0.1095
 2481W        W 6545   8.228   8.836   0.125 -0.0429  0.1515 -0.1189
 2482W        W 6546   4.436   6.033   1.141  0.2150  0.2305  0.1583
 2483W        W 6547   0.337   7.889   8.118 -0.2611 -0.0178  0.0160
 2484W        W 6548   3.151   0.763   3.412  0.1576 -0.1805  0.1376
 2485W        W 6549  10.024   3.080   1.016  0.1570  0.0768 -0.2709
 2486W        W 6550   6.772   8.065  11.388  0.0713 -0.0477  0.1397
 2487W        W 6551   3.797   8.009   9.362  0.0253 -0.0557  0.1520
 2488W        W 6552   5.837   7.325   2.656 -0.0742  0.0523  0.1334
 2489W        W 6553   9.979   3.526   8.026 -0.1262  0.1942  0.1060
 2490W        W 6554   3.442   2.570  11.329  0.2331 -0.3148  0.1204
 2491W        W 6555   8.288   1.644  10.042  0.2225  0.1023 -0.1110
 2492W        W 6556   0.585  10.333   1.258  0.2585  0.3473  0.2936
 2493W        W 6557   7.176   4.774   3.576  0.1974  0.3177  0.1183
 2494W        W 6558   2.082   7.960   7.477  0.0053 -0.1177  0.1960
 2495W        W 6559  10.149   1.317   0.728 -0.1125 -0.0744 -0.1234
 2496W        W 6560   9.253   9.174   8.232 -0.1652 -0.2245 -0.0531
 2497W        W 6561   8.459   5.960   8.739  0.2596  0.0906 -0.2239
 2498W        W 6562   9.982   3.030   8.309  0.0031 -0.0196  0.1785
 2499W        W 6563   2.568   0.016  10.931  0.1424  0.1644  0.0239
 2500W        W 6564   8.276   6.333  11.550  0.2840 -0.2703 -0.3337
 2501W        W 6565   8.772   3.676   9.684  0.2784  0.0639  0.0226
 2502W        W 6566   8.422   1.414   9.154  0.2048 -0.3515  0.2348
 2503W        W 6567  10.570  10.637   3.405 -0.2004  0.0083 -0.0119
 2504W        W 6568   8.725   1.937   1.218 -0.0254 -0.2183 -0.1633
 2505W        W 6569   5.964   8.561   2.222  0.3730  0.1955 -0.1039
 2506W        W 6570   9.634   3.311  10.217  0.1888 -0.2326  0.1464
 2507W        W 6571   0.381   5.620   9.100  0.1540 -0.0565  0.0462
 2508W        W 6572   0.157   6.366  10.175  0.0438  0.0134 -0.3040
 2509W        W 6573   5.987   7.115   7.382  0.3337 -0.1471  0.0499
 2510W        W 6574   4.930   4.612  10.394  0.0348  0.1108  0.2150
 2511W        W 6575   5.606   6.997   8.540 -0.0839  0.0957 -0.2875
 2512W        W 6576   4.197   0.814   8.749  0.0171  0.0453  0.0014
 2513W        W 6577   2.537   4.713   9.637 -0.0012  0.0751 -0.3472
 2514W        W 6578   9.176   1.093   8.634 -0.1215 -0.1258 -0.1837
 2515W        W 6579   0.904   1.891   2.701 -0.2645  0.2666 -0.0450
 2516W        W 6580   6.463   1.774   3.340 -0.1116  0.0607  0.0324
 2517W        W 6581   9.120   5.270   0.835 -0.0087  0.0106 -0.2797
 2518W        W 6582   2.944   8.769   3.037 -0.0960  0.2524 -0.1820
 2519W        W 6583   9.774   4.897   8.465  0.0078 -0.2350  0.2600
 2520W        W 6584   3.183   9.682   9.005 -0.0270  0.0473  0.0900
 2521W        W 6585   5.183   9.749   2.908  0.2134 -0.0733 -0.4087
 2522W        W 6586   6.746   4.060   3.701 -0.3138  0.2548 -0.3077
 2523W        W 6587   9.983   5.972   9.823 -0.0584  0.0382 -0.1720
 2524W        W 6588   5.089   6.575   2.113  0.0371  0.0812 -0.0820
 2525W        W 6589   1.749   1.064  10.623  0.2086 -0.2437  0.0289
 2526W        W 6590   9.871   6.826   9.279 -0.0622  0.1978  0.0878
 2527W        W 6591   8.061   5.575   8.784  0.0445 -0.0905  0.0829
 2528W        W 6592   8.102   1.899   1.702 -0.1151 -0.0240  0.0588
 2529W        W 6593   8.820   0.961   8.234 -0.2264  0.0201  0.0164
 2530W        W 6594   4.386   7.383   3.238 -0.2578  0.1818 -0.3188
 2531W        W 6595   2.925   6.907   4.221 -0.0305 -0.1372 -0.1153
 2532W        W 6596   7.138   7.149  10.637  0.3020  0.0775 -0.0387
 2533W        W 6597   8.503   4.014   1.790  0.1038  0.1833  0.1199
 2534W        W 6598   3.259  10.241  11.313  0.0261 -0.2175 -0.0688
 2535W        W 6599   6.763   7.636   1.098  0.1655  0.1155 -0.0124
 2536W        W 6600   7.873  10.128   2.389 -0.0701 -0.1339 -0.0129
 2537W        W 6601   6.196   5.815   0.295  0.2314 -0.0080 -0.0166
 2538W        W 6602   8.871   6.977   2.055  0.1419 -0.1564 -0.1068
 2539W        W 6603   2.631   5.273   8.688 -0.2367 -0.1686  0.0522
 2540W        W 6604   6.699   8.160   1.846 -0.2500 -0.0784 -0.1529
 2541W        W 6605   5.136   4.918   9.968  0.1597  0.0967 -0.0309
 2542W        W 6606   9.619   8.811   1.079 -0.1442 -0.1830 -0.1020
 2543W        W 6607   6.253   5.211   9.809 -0.0787  0.1026 -0.1867
 2544W        W 6608   8.129   8.167  11.144 -0.0860  0.2269 -0.0321
 2545W        W 6609   5.101  10.209   9.035 -0.0642  0.1064 -0.1012
 2546W        W 6610   0.319  10.634   9.981  0.1026 -0.2996  0.3453
 2547W        W 6611   9.991   6.336   9.245 -0.1039 -0.2788  0.2970
 2548W        W 6612   5.770   2.309   3.740  0.0042  0.4367 -0.0641
 2549W        W 6613   0.625   2.860   2.654 -0.3378 -0.3263  0.2790
 2550W        W 6614   7.901   2.797  11.212 -0.0807  0.0396 -0.0090
 2551W        W 6615   5.147   3.074   3.484  0.0969 -0.1151  0.2678
 2552W        W 6616   8.253   3.303  10.764 -0.0053 -0.1345 -0.4028
 2553W        W 6617   6.257   8.991   0.916  0.1901 -0.3770 -0.2088
 2554W        W 6618   6.775   6.059   0.431 -0.1147 -0.2211 -0.1607
 2555W        W 6619   5.630   9.254   0.030 -0.0392 -0.2122 -0.0009
 2556W        W 6620   2.014   9.115   2.793 -0.1744 -0.3102 -0.0962
 2557W        W 6621   1.088   4.223  10.888 -0.0619 -0.0333 -0.2620
 2558W        W 6622   3.828   8.987   8.595 -0.0958  0.0650 -0.2723
 2559W        W 6623   5.069   1.959  10.577  0.2093  0.0195 -0.1162
 2560W        W 6624   7.996   4.773  10.388  0.1594 -0.3070  0.0005
 2561W        W 6625   0.613   9.817   8.955 -0.0908 -0.2696  0.1468
 2562W        W 6626   8.620   0.538   8.394  0.0966  0.4447 -0.1330
 2563W        W 6627   5.087   2.572   1.291 -0.0275  0.2946  0.0104
 2564W        W 6628   8.582   2.453   8.339  0.0849  0.2199  0.2204
 2565W        W 6629   1.318   1.886  10.603  0.0546  0.1754 -0.0324
 2566W        W 6630   6.306   9.552   0.667 -0.0832 -0.0754  0.0391
 2567W        W 6631   0.518   2.297   8.037  0.0824  0.0177 -0.1098
 2568W        W 6632   7.863   1.421   9.698  0.0672  0.1499 -0.0128
 2569W        W 6633   5.782  10.451   7.955  0.0336 -0.0505 -0.2244
 2570W        W 6634   4.515   4.164   2.081 -0.2406  0.1588 -0.2494
 2571W        W 6635  10.417   6.920  10.758 -0.1470 -0.0716  0.1257
 2572W        W 6636   9.278   0.765   8.191 -0.0525 -0.1755  0.1421
 2573W        W 6637   2.215   3.681   2.598 -0.3288 -0.1704 -0.1702
 2574W        W 6638  10.369   7.276  10.175 -0.1357  0.2516  0.0526
 2575W        W 6639   4.013   8.345   2.542 -0.2453 -0.1588  0.0523
 2576W        W 6640   5.714   5.820   9.484 -0.1633  0.0941  0.1961
 2577W        W 6641   7.746   1.837  11.153 -0.1977 -0.1619 -0.1169
 2578W        W 6642   1.442  10.440   9.059  0.0383  0.0011 -0.0554
 2579W        W 6643   7.998   7.145   1.833  0.3120  0.4559  0.2596
 2580W        W 6644   8.028   8.817   3.771 -0.1157 -0.2409  0.2030
 2581W        W 6645   9.022   4.008   3.397 -0.2053  0.1446  0.1261
 2582W        W 6646   2.451   7.929   9.342  0.2296  0.1901 -0.3432
 2583W        W 6647   8.058   2.323   9.111 -0.1967  0.2898 -0.0514
 2584W        W 6648   2.839  10.146   9.803 -0.2895  0.2249  0.1778
 2585W        W 6649   1.369   3.914  11.139  0.1953  0.0049 -0.0458
 2586W        W 6650   6.412  10.221   1.472  0.1155  0.1662 -0.0030
 2587W        W 6651   4.193   9.527   0.083 -0.0778 -0.0105  0.1184
 2588W        W 6652   3.931   5.803  10.270  0.0765  0.0217  0.0247
 2589W        W 6653  10.369   3.291  10.290 -0.1237  0.0033  0.0156
 2590W        W 6654   1.934   4.192   1.872 -0.0318 -0.2891  0.0013
 2591W        W 6655   8.007   7.302   0.826  0.1933 -0.1545 -0.1814
 2592W        W 6656   0.082   8.078   0.999 -0.0937  0.2542 -0.0684
 2593W        W 6657   6.452  10.084   9.605  0.3155  0.0520  0.2568
 2594W        W 6658   8.093   1.702   4.401 -0.1529 -0.3952  0.1911
 2595W        W 6659   7.560   3.455   0.271  0.1291 -0.0663 -0.0988
 2596W        W 6660   2.118   1.840   0.597  0.2364 -0.4977  0.3013
 2597W        W 6661   6.520  10.153   0.452 -0.0446 -0.0189 -0.1583
 2598W        W 6662   5.744   6.699   3.461  0.1235 -0.0751  0.0936
 2599W        W 6663   8.835   4.046   4.321  0.0059  0.0539 -0.0895
 2600W        W 6664   6.873   3.680  10.263  0.0776  0.0939  0.1302
 2601W        W 6665   6.799   0.811  10.350 -0.0958 -0.0210 -0.0489
 2602W        W 6666   1.592   7.322  11.359 -0.0245 -0.1961 -0.0670
 2603W        W 6667   2.419   3.153  10.153  0.0485 -0.1896  0.0494
 2604W        W 6668   7.733   3.922  10.337 -0.0179 -0.0635 -0.1721
 2605W        W 6669   6.101   2.370   8.762 -0.1552 -0.2468 -0.2092
 2606W        W 6670   6.442   5.750   7.385 -0.0275  0.1912  0.1281
 2607W        W 6671   7.817   3.817   9.205 -0.1890 -0.1187 -0.1390
 2608W        W 6672   6.438   6.846   0.667 -0.0923 -0.0820 -0.0509
 2609W        W 6673   5.799   3.845   3.378  0.1046 -0.1766 -0.1205
 2610W        W 6674   3.829   9.775   0.606 -0.0532 -0.0173  0.1452
 2611W        W 6675   8.778   9.508   2.923 -0.1214  0.0550 -0.1270
 2612W        W 6676   9.245   7.958   2.625 -0.0418 -0.1415 -0.2975
 2613W        W 6677   9.354   9.928  10.475 -0.0342  0.2422 -0.6584
 2614W        W 6678   6.011   1.729   2.961 -0.2319  0.2577  0.1179
 2615W        W 6679   7.460   8.242   2.072  0.3587  0.3357 -0.1966
 2616W        W 6680   4.496   9.665   1.115  0.2320  0.2524  0.0039
 2617W        W 6681   4.509   4.896  10.379 -0.0102 -0.2667  0.1633
 2618W        W 6682   8.947   9.092   9.223  0.0343 -0.0797 -0.0567
 2619W        W 6683   5.241   0.698   0.643  0.2675  0.2048 -0.1592
 2620W        W 6684   5.186   5.344   8.089  0.4209 -0.2223  0.3864
 2621W        W 6685   6.292   8.360   0.062 -0.0860 -0.3197 -0.1421
 2622W        W 6686   6.080   1.913  10.105  0.0182  0.1259  0.1992
 2623W        W 6687   9.378   7.888   1.227 -0.2017  0.1010  0.2488
 2624W        W 6688   2.074   7.103   9.829 -0.2931 -0.0147  0.1312
 2625W        W 6689   8.177   4.176   9.312 -0.2543 -0.1555 -0.0474
 2626W        W 6690   6.858   2.750   3.437 -0.1090 -0.1492 -0.2667
 2627W        W 6691   0.930   0.104   1.629 -0.2027  0.2415 -0.0830
 2628W        W 6692   0.567   7.999   1.278  0.1841  0.0070 -0.2186
 2629W        W 6693   4.402   0.973   1.111  0.1495 -0.3029  0.1150
 2630W        W 6694   9.526   0.922   4.115  0.0601  0.0223 -0.2113
 2631W        W 6695  10.393   2.218   8.698  0.0233  0.0422  0.4546
 2632W        W 6696   6.471   2.365   9.460  0.1170 -0.4282 -0.1195
 2633W        W 6697   8.455   0.112   0.814  0.2109 -0.1338 -0.1868
 2634W        W 6698   2.513   8.928   1.982  0.1594  0.4446  0.1222
 2635W        W 6699   5.683   1.288   8.532  0.3643  0.0164 -0.4852
 2636W        W 6700   5.649   3.871   2.895  0.0400 -0.1662  0.0747
 2637W        W 6701   5.409   9.224  10.692  0.0694 -0.3965  0.1422
 2638W        W 6702  10.331   9.799   8.428  0.1248  0.3653  0.0053
 2639W        W 6703   5.254   1.694   2.364  0.0428 -0.0589  0.1377
 2640W        W 6704   6.307   0.103   9.267  0.0147  0.0399  0.3066
 2641W        W 6705   3.747   3.953  11.108 -0.0618 -0.0738  0.1714
 2642W        W 6706   4.441   6.562  10.047  0.2385 -0.2355  0.2993
 2643W        W 6707   7.793   7.766   0.939  0.3013  0.1413  0.0311
 2644W        W 6708   8.452   6.363   3.467 -0.2294 -0.0176 -0.1234
 2645W        W 6709   9.434   0.278   9.438  0.0346 -0.3037  0.2082
 2646W        W 6710   2.825   0.836   9.809  0.0855  0.1339 -0.0304
 2647W        W 6711   0.896   4.440   1.708  0.0984 -0.0160  0.2658
 2648W        W 6712  10.616   4.354   3.717  0.0910 -0.0769  0.0142
 2649W        W 6713   8.119   0.759   9.738 -0.1794  0.3533 -0.0636
 2650W        W 6714   5.501   3.465   3.209 -0.1442  0.2482 -0.0741
 2651W        W 6715   6.176   7.150   2.258 -0.0498 -0.0116 -0.1778
 2652W        W 6716  10.367   6.373   9.963 -0.2091  0.0495 -0.3470
 2653W        W 6717   3.671   1.123   9.693  0.4126 -0.2088 -0.0496
 2654W        W 6718   8.629   7.747   8.300 -0.1084 -0.0212 -0.3131
 2655W        W 6719   2.026   9.522   4.727 -0.1743  0.1420 -0.1833
 2656W        W 6720   2.260   2.431  11.154 -0.0763  0.3708  0.0233
 2657W        W 6721  10.113   6.845   9.949  0.1574  0.0507  0.0768
 2658W        W 6722   1.673   5.670   7.374 -0.1618  0.2176  0.2619
 2659W        W 6723   2.894   3.186   2.160 -0.0976  0.0173 -0.3822
 2660W        W 6724   3.866   9.660  10.638 -0.1187  0.0759 -0.2493
 2661W        W 6725   5.511   9.836   9.024  0.0250 -0.2051  0.4586
 2662W        W 6726   9.880   6.862   0.179 -0.2784  0.1517  0.0614
 2663W        W 6727   1.414   1.072   2.624  0.0236 -0.0803  0.1300
 2664W        W 6728   2.124   9.939   9.200 -0.1294 -0.0162 -0.1542
 2665W        W 6729   5.241   6.468   8.920 -0.4582  0.2150  0.0686
 2666W        W 6730   8.173   4.516   3.024 -0.1606  0.0765  0.3795
 2667W        W 6731   6.658   3.790   2.872  0.1235 -0.0761  0.1010
 2668W        W 6732  10.494   6.376   0.431 -0.1080 -0.1828 -0.3379
 2669W        W 6733   1.873   8.174  11.439 -0.2057 -0.1287  0.0227
 2670W        W 6734   3.487   6.805  11.047 -0.0915  0.0835 -0.1355
 2671W        W 6735   7.498   3.589   1.876  0.0414 -0.4449  0.0019
 2672W        W 6736   7.574   8.590   1.392  0.1777  0.1091 -0.0643
 2673W        W 6737   3.895   6.300   0.350 -0.1224  0.2996  0.2313
 2674W        W 6738   0.798   8.877   7.158 -0.3247 -0.1356 -0.0768
 2675W        W 6739   5.561   0.253   7.722 -0.0755  0.4362 -0.1684
 2676W        W 6740   8.546   6.516  10.811 -0.3901  0.1464 -0.0226
 2677W        W 6741   6.191   1.161   0.560  0.0553 -0.1730 -0.1633
 2678W        W 6742   3.289   0.644   2.342 -0.3491 -0.2795  0.0394
 2679W        W 6743   8.737   1.477   3.407  0.0630  0.3010  0.1639
 2680W        W 6744   6.777   6.967   4.067  0.0706 -0.1240 -0.1048
 2681W        W 6745   8.716   7.275  10.192 -0.1823 -0.0593  0.0707
 2682W        W 6746   9.541   2.033  10.117 -0.0171  0.3201 -0.0758
 2683W        W 6747   2.458  10.298   1.503 -0.1065 -0.0824  0.0628
 2684W        W 6748   8.895  10.044  10.604  0.0626  0.1621 -0.4942
 2685W        W 6749   3.387   3.687   9.464 -0.1593 -0.0782 -0.1500
 2686W        W 6750   0.099   1.251   2.409 -0.0500 -0.2257 -0.0369
 2687W        W 6751   1.182   7.536   8.274 -0.1588  0.0943  0.0981
 2688W        W 6752   2.101   7.346   3.459 -0.2258 -0.1065 -0.3795
 2689W        W 6753   8.395   8.597   2.690  0.0258  0.0989  0.0946
 2690W        W 6754   7.596   9.974   8.515 -0.3693 -0.0446  0.0495
 2691W        W 6755   7.484   6.478   0.632 -0.2991 -0.0441 -0.1700
 2692W        W 6756   8.143   2.950   2.795  0.0460 -0.1009 -0.0692
 2693W        W 6757   8.728   3.618   1.185  0.1791  0.2714  0.0547
 2694W        W 6758   2.607   3.125  11.002 -0.1297  0.2938 -0.1577
 2695W        W 6759   2.378   3.579   1.190 -0.1840 -0.0157  0.0493
 2696W        W 6760   5.763   2.654   2.041 -0.1533  0.1260 -0.2936
 2697W        W 6761   5.229   0.863   9.920  0.1937 -0.0834  0.1242
 2698W        W 6762   8.509   1.028  11.583 -0.1124 -0.0246 -0.3703
 2699W        W 6763   5.080   6.248   9.361 -0.0052 -0.3394 -0.1502
 2700W        W 6764   3.621   0.609   0.565 -0.0783  0.1833 -0.0167
 2701W        W 6765  10.407   2.249   1.936 -0.1499 -0.0099  0.2012
 2702W        W 6766   6.451   9.585   7.427  0.1404  0.2315 -0.1572
 2703W        W 6767   4.708   0.645   0.829 -0.3810  0.2494  0.1319
 2704W        W 6768   9.186   7.067  10.063  0.2466 -0.1420 -0.0035
 2705W        W 6769   6.170   8.630   7.944 -0.1865 -0.2061 -0.0761
 2706W        W 6770   4.684   9.347   7.630  0.1125  0.0855 -0.2363
 2707W        W 6771   9.525   2.722   0.137  0.0743  0.0820 -0.0272
 2708W        W 6772   9.057   8.793   1.085 -0.2195  0.0773 -0.1326
 2709W        W 6773   0.029   4.744   8.433 -0.1924  0.0794  0.0908
 2710W        W 6774   9.023   0.867   1.758  0.1159 -0.1351 -0.1656
 2711W        W 6775   1.911  10.436  10.099 -0.0368  0.2246 -0.0133
 2712W        W 6776   1.424   5.002   9.623  0.3203 -0.0776 -0.0840
 2713W        W 6777   0.454   3.316   3.624 -0.0846 -0.0333 -0.1444
 2714W        W 6778   0.223   8.888   3.599 -0.0375  0.3716 -0.0564
 2715W        W 6779   5.453   3.811   1.035 -0.2640 -0.2743 -0.0313
 2716W        W 6780   9.995   4.220   2.367  0.3899 -0.1676 -0.1785
 2717W        W 6781   0.810   7.519   9.319 -0.0147  0.2064 -0.1227
 2718W        W 6782   8.251   8.157   2.934  0.0204  0.2236 -0.1463
 2719W        W 6783   1.466   0.069   0.839 -0.0593 -0.1437 -0.0269
 2720W        W 6784   5.899   6.471   2.780  0.0727  0.1934  0.1477
 2721W        W 6785   8.900   4.466   2.711  0.3293  0.2051  0.1204
 2722W        W 6786   0.176   8.069  11.422 -0.0966  0.0182 -0.1579
 2723W        W 6787   2.821   6.236   0.034 -0.0747 -0.0850 -0.1609
 2724W        W 6788   2.557   9.096  10.901 -0.1702 -0.1018  0.0815
 2725W        W 6789   4.710   3.544   1.962  0.1875  0.0587 -0.1607
 2726W        W 6790   7.046   1.430   9.786  0.0007  0.1053  0.0862
 2727W        W 6791   2.680   6.813   8.820 -0.5523 -0.0413 -0.0631
 2728W        W 6792   2.150   4.495  10.030  0.1538 -0.0434 -0.3682
 2729W        W 6793   8.965   0.887  11.377 -0.0492 -0.0775 -0.2496
 2730W        W 6794   6.109   3.271  10.801  0.2757  0.2762  0.0340
 2731W        W 6795   2.601   1.338  10.864  0.1536  0.0979  0.1228
 2732W        W 6796   4.822  10.342  10.525  0.2684 -0.3197 -0.0047
 2733W        W 6797   6.928   4.807   9.819  0.0929 -0.0567 -0.2671
 2734W        W 6798   8.645   2.451   0.600  0.0808 -0.2064  0.1144
 2735W        W 6799   3.840   7.877   1.558  0.1284 -0.1725 -0.1602
 2736W        W 6800   4.728   1.346   3.191 -0.0637  0.0809 -0.0337
 2737W        W 6801   9.551   2.649  11.031  0.0872  0.2637  0.0502
 2738W        W 6802   8.421   8.870   9.732 -0.1941  0.1666  0.2337
 2739W        W 6803   2.115   1.829   9.560 -0.0456 -0.0129 -0.1083
 2740W        W 6804   2.347   6.627   0.535  0.1638 -0.2617  0.0662
 2741W        W 6805   6.581   1.961  10.472  0.0259  0.1437 -0.2103
 2742W        W 6806  10.206   3.805   2.609  0.0205  0.0074  0.2161
 2743W        W 6807   1.876   8.068   2.546 -0.0471 -0.1265 -0.2279
 2744W        W 6808   1.055   0.915  11.442 -0.0503  0.0352 -0.1277
 2745W        W 6809   9.271   0.967   9.480  0.2662  0.0673 -0.2855
 2746W        W 6810   4.003   9.772   2.230 -0.1854 -0.1826 -0.1452
 2747W        W 6811   5.541  10.562   2.586 -0.4372  0.4608  0.0405
 2748W        W 6812  10.503   0.088   2.457 -0.0475  0.3316 -0.1126
 2749W        W 6813   6.044   5.353   0.088  0.2267 -0.2022 -0.0105
 2750W        W 6814   7.823   3.971   2.172 -0.0733 -0.1504  0.2092
 2751W        W 6815   3.389   7.075   0.480 -0.2708  0.0077 -0.0739
 2752W        W 6816   5.746   6.956   1.446 -0.0488 -0.0847 -0.1349
 2753W        W 6817   8.209   2.463   1.831 -0.0576 -0.0523  0.1524
 2754W        W 6818   3.969   1.621   2.831 -0.0582  0.0125  0.0262
 2755W        W 6819   3.726  10.565   2.736  0.0749 -0.3363 -0.2657
 2756W        W 6820   2.185   1.380   2.616  0.0701  0.2101 -0.0908
 2757W        W 6821  10.187   2.106   2.776  0.1004 -0.2085  0.2619
 2758W        W 6822   9.412   8.886   0.622 -0.0513  0.1665  0.1378
 2759W        W 6823   4.241   9.205   8.842 -0.1066  0.1660  0.3701
 2760W        W 6824   6.543   9.527   1.539  0.1612 -0.1005 -0.2073
 2761W        W 6825   9.468   5.050   3.951  0.4181  0.1539  0.3010
 2762W        W 6826   0.277   8.548   1.080  0.2351  0.0404  0.2888
 2763W        W 6827   4.876   0.795  10.298 -0.1382  0.0477  0.4519
 2764W        W 6828   7.041   1.978   8.257 -0.0784 -0.0614  0.2063
 2765W        W 6829   1.073   3.382   0.591 -0.1190  0.0983 -0.0717
 2766W        W 6830   6.540   4.170  10.770  0.1073 -0.3366  0.1952
 2767W        W 6831   8.070   6.313   7.677  0.1548  0.0905 -0.4398
 2768W        W 6832   1.736  10.297   3.353  0.0583  0.0574  0.0113
 2769W        W 6833   3.662   0.165   3.894 -0.0192 -0.1934 -0.1571
 2770W        W 6834   7.225  10.588   0.329 -0.4116  0.0954  0.2947
 2771W        W 6835   9.888   1.782   0.258  0.0429  0.2157  0.3732
 2772W        W 6836   4.426   4.422   9.073  0.0860 -0.0789  0.0045
 2773W        W 6837   1.598   2.852  10.395 -0.0429  0.0706 -0.0855
 2774W        W 6838   1.876   9.541   0.505 -0.1567  0.2762 -0.0681
 2775W        W 6839   3.220   1.729   4.000 -0.0950 -0.3773 -0.2233
 2776W        W 6840   2.622   3.987   1.862 -0.0161  0.0386 -0.0545
 2777W        W 6841   0.782   6.841  11.141  0.3102  0.0213 -0.0771
 2778W        W 6842   1.943  10.457  10.676 -0.1268  0.0995 -0.0871
 2779W        W 6843   4.691   2.703   9.260  0.2827  0.1904  0.2816
 2780W        W 6844   1.277   7.583   3.414 -0.2106 -0.0433  0.1606
 2781W        W 6845   8.689   0.277   1.313  0.1773 -0.1497  0.1651
 2782W        W 6846   4.278   0.490   2.210  0.0317 -0.1889 -0.3595
 2783W        W 6847  10.224   1.268  10.749  0.1287 -0.1164 -0.0486
 2784W        W 6848  10.476   2.785   1.853  0.1774 -0.3325 -0.1134
 2785W        W 6849   0.436   3.946   8.864 -0.0590  0.0047  0.0192
 2786W        W 6850   3.548   6.972  11.551  0.0607 -0.1679  0.2547
 2787W        W 6851   9.283   5.725   0.168  0.0731 -0.2778  0.1349
 2788W        W 6852  10.063   3.232   2.568  0.1083 -0.0437 -0.0809
 2789W        W 6853   2.075   8.615   8.380  0.0523  0.1826  0.0775
 2790W        W 6854   3.917   0.365   8.563 -0.1622 -0.1430  0.1291
 2791W        W 6855   1.526   8.084   0.185  0.1691 -0.3195  0.0542
 2792W        W 6856   5.000   8.177  11.271  0.0411 -0.1537  0.1345
 2793W        W 6857   0.885   9.764   7.913 -0.0657  0.2594  0.0750
 2794W        W 6858   2.784   8.949  10.164  0.1952 -0.1818  0.1620
 2795W        W 6859   4.295  10.501   1.495  0.1751 -0.0932 -0.2914
 2796W        W 6860   7.280   2.637   9.509 -0.2224  0.2152 -0.2045
 2797W        W 6861   8.413   5.800  11.426 -0.0037 -0.4492 -0.0048
 2798W        W 6862   7.985   4.755   8.286 -0.2238  0.1953 -0.2149
 2799W        W 6863   8.957   1.300   2.085 -0.0115 -0.1889  0.1029
 2800W        W 6864   8.536   9.719  10.403 -0.1204 -0.0588  0.0939
 2801W        W 6865   5.651   7.516   0.964 -0.2533 -0.1428  0.1536
 2802W        W 6866   4.958  10.352   8.427  0.4280  0.5943 -0.2968
 2803W        W 6867   7.882   2.356  10.889  0.0517  0.1019 -0.3130
 2804W        W 6868   6.495   6.044   1.698 -0.1824  0.0996  0.0278
 2805W        W 6869   8.239   0.101  10.400 -0.1392 -0.1242  0.0691
 2806W        W 6870   0.019   5.357   8.657  0.2124 -0.1546  0.1402
 2807W        W 6871   2.268   2.682  10.321  0.1369 -0.2356  0.4337
 2808W        W 6872   9.601   1.562   8.105  0.0976  0.0576 -0.1960
 2809W        W 6873   3.477   0.341  10.607  0.0938  0.2060  0.4448
 2810W        W 6874   2.608   1.207  10.041 -0.1703 -0.0866 -0.0737
 2811W        W 6875   1.475   2.668   3.030  0.0137  0.2704 -0.1236
 2812W        W 6876   6.949   6.794   0.784 -0.1036  0.0940 -0.0984
 2813W        W 6877   9.750   6.904   2.000 -0.1497  0.0796  0.2055
 2814W        W 6878   2.906   8.116   0.200  0.0067 -0.2802 -0.0024
 2815W        W 6879   4.435   6.841  10.979 -0.3080  0.2058  0.1523
 2816W        W 6880   3.528   8.966   1.816  0.2468  0.0302  0.0745
 2817W        W 6881   8.298   0.951   8.264  0.1805 -0.5350  0.3656
 2818W        W 6882  10.365   6.124   9.479  0.2329  0.2229 -0.0413
 2819W        W 6883   4.622   3.323   1.490  0.1258 -0.5225 -0.0013
 2820W        W 6884   2.538   2.892   2.322  0.2152 -0.2723  0.2550
 2821W        W 6885   9.684   4.573   0.488  0.2530  0.1096  0.2216
 2822W        W 6886   5.386   9.324   3.002 -0.1020  0.1044 -0.0065
 2823W        W 6887   4.835   7.116   3.354  0.0626 -0.0222  0.3544
 2824W        W 6888   2.878   5.451   1.734  0.0408 -0.1149 -0.1071
 2825W        W 6889   5.404  10.059   8.439  0.1527  0.0881 -0.1995
 2826W        W 6890   2.112   8.876   9.329 -0.2968  0.1236  0.2822
 2827W        W 6891   2.684   1.477  10.407  0.0902 -0.0709  0.0253
 2828W        W 6892   9.570   8.817   8.347 -0.0162 -0.0283  0.2923
 2829W        W 6893   5.308   4.049   0.099  0.1589 -0.2327 -0.1158
 2830W        W 6894   2.304   9.806   8.762 -0.0287 -0.5310 -0.0614
 2831W        W 6895   4.875   2.434   3.152 -0.1621 -0.0924  0.0546
 2832W        W 6896   5.646   2.830   2.642  0.3430  0.1193 -0.0964
 2833W        W 6897   2.521   0.875   9.384  0.0285  0.0421  0.2383
 2834W        W 6898   3.130   4.870   3.127 -0.1288 -0.0857 -0.0262
 2835W        W 6899   9.269   5.559   2.408 -0.0542 -0.2050 -0.0544
 2836W        W 6900   9.688   9.805  10.093 -0.1140  0.1144 -0.2796
 2837W        W 6901  10.553   6.510   0.891 -0.0980 -0.1365 -0.0383
 2838W        W 6902   2.466   4.593   0.255 -0.0355 -0.0122 -0.2863
 2839W        W 6903   3.356   7.513   0.102  0.0745  0.0936  0.1157
 2840W        W 6904   1.547   4.350   2.142  0.1789 -0.0791 -0.1393
 2841W        W 6905   6.042   8.271   2.630 -0.3620 -0.2346  0.1073
 2842W        W 6906   0.879   3.384   1.520  0.0207 -0.1117 -0.1263
 2843W        W 6907  10.519   7.095   8.604  0.0140 -0.2042 -0.2097
 2844W        W 6908   4.937   6.017   1.108  0.1307  0.0084 -0.1473
 2845W        W 6909   2.132   8.023   8.283  0.1512 -0.1363 -0.0437
 2846W        W 6910   4.596   9.144   1.820 -0.0223 -0.0512  0.1453
 2847W        W 6911   4.868   2.410   4.098  0.2943 -0.0327 -0.1257
 2848W        W 6912   9.526  10.584  10.567  0.1154 -0.1746 -0.1390
 2849W        W 6913   4.183   0.271   9.804  0.1697 -0.0943 -0.0532
 2850W        W 6914   8.286   8.654  11.224 -0.1735  0.3128  0.0813
 2851W        W 6915   7.269   2.661  11.535  0.0703  0.0952  0.3087
 2852W        W 6916   7.790  10.339   7.948 -0.3538 -0.3101  0.0975
 2853W        W 6917   8.156   1.091  11.256  0.0084 -0.1225 -0.0112
 2854W        W 6918   1.631  10.017   0.647  0.4740  0.0052 -0.3897
 2855W        W 6919   9.344   6.561   7.357  0.3866 -0.2497  0.0754
 2856W        W 6920   9.493   9.263   7.730  0.1756  0.0799 -0.0660
 2857W        W 6921   0.406   9.161  10.709 -0.1422 -0.0835  0.2002
 2858W        W 6922   7.205   0.126   9.060 -0.1855  0.1821  0.3085
 2859W        W 6923   4.150   2.034   1.267  0.3968  0.1279 -0.1385
 2860W        W 6924   3.898  10.427   0.042  0.0906  0.1843 -0.2419
 2861W        W 6925   8.067   4.075  11.461 -0.1998 -0.0111  0.0003
 2862W        W 6926   6.985   8.102   9.802 -0.3553 -0.0808 -0.2116
 2863W        W 6927   9.945   7.464  11.320  0.0796 -0.1346 -0.0985
 2864W        W 6928   0.608   3.955   0.875  0.1192 -0.2988  0.0442
 2865W        W 6929   7.668   8.594   3.380 -0.3964 -0.0241  0.0501
 2866W        W 6930   4.662   7.376   9.885  0.1993 -0.1520  0.1462
 2867W        W 6931  10.102   0.012   1.873  0.0454  0.1219  0.0638
 2868W        W 6932  10.267   7.591   9.794  0.4056  0.1574 -0.1685
 2869W        W 6933   7.754   9.052   2.144  0.0144  0.0131  0.2118
 2870W        W 6934   0.530   6.867   9.888 -0.1520  0.0739  0.0367
 2871W        W 6935   4.985  10.185   0.797 -0.2052 -0.0907  0.1457
 2872W        W 6936   2.570   7.260   2.311 -0.4908 -0.0636  0.2391
 2873W        W 6937   2.691   2.592   1.237 -0.0762  0.0021  0.0492
 2874W        W 6938   1.788   3.227  11.557  0.2237 -0.2613 -0.0366
 2875W        W 6939   2.902   3.550   1.239  0.3137  0.1306 -0.1050
 2876W        W 6940   4.655   5.318   0.393  0.4410 -0.1175  0.3202
 2877W        W 6941   1.034   8.571   0.240 -0.1386 -0.2116 -0.3144
 2878W        W 6942   5.171   7.116  10.555 -0.3615  0.0314 -0.2209
 2879W        W 6943   9.776   3.639   8.989 -0.3641 -0.1099  0.1446
 2880W        W 6944   9.699   0.964   0.108 -0.0377  0.4332 -0.0397
 2881W        W 6945   1.136  10.404   1.925 -0.0367 -0.2573  0.1614
 2882W        W 6946   9.855   8.004   0.573 -0.0364 -0.4890  0.2393
 2883W        W 6947   1.245   1.404  11.256 -0.1311 -0.1679  0.1584
 2884W        W 6948   5.349   3.609   8.727 -0.1303 -0.1732  0.1983
 2885W        W 6949   5.471   4.767   2.417 -0.1407  0.0186  0.0219
 2886W        W 6950   3.929   9.276   0.881  0.2376  0.1643  0.2183
 2887W        W 6951   6.650   2.544   3.843 -0.1588 -0.0591  0.3407
 2888W        W 6952   8.946   1.724   2.503 -0.1165 -0.0038 -0.0739
 2889W        W 6953   1.079   7.390   0.910 -0.1942 -0.2591  0.3979
 2890W        W 6954   1.268   4.154   8.891 -0.0513 -0.0285  0.2653
 2891W        W 6955   6.790   2.833   0.051  0.2864  0.0926  0.3526
 2892W        W 6956   6.644   6.191   7.814  0.1240 -0.3309 -0.0588
 2893W        W 6957   2.048   0.675  11.336 -0.1205  0.1397 -0.0884
 2894W        W 6958   0.523   8.845   2.820 -0.0601 -0.1230 -0.1916
 2895W        W 6959   2.691   6.374   2.565 -0.0513 -0.0259 -0.2133
 2896W        W 6960   3.198  10.554   3.455 -0.0161  0.0299 -0.1953
 2897W        W 6961   5.594   6.483   8.558  0.0141 -0.1689  0.0225
 2898W        W 6962   8.949   7.386   1.772  0.2972  0.0331  0.5625
 2899W        W 6963  10.144   6.061   3.101 -0.0254 -0.1121  0.3649
 2900W        W 6964   1.833   7.998   8.728  0.1351  0.0474  0.0545
 2901W        W 6965  10.327   3.259   2.026  0.0109  0.0426  0.0822
 2902W        W 6966   0.853   6.280   0.291 -0.1621  0.1483  0.2064
 2903W        W 6967   1.689   3.568   9.941  0.3910 -0.0732  0.1264
 2904W        W 6968  10.386  10.413   0.292 -0.1983 -0.0634 -0.0523
 2905W        W 6969   6.366   4.324   2.081  0.2312 -0.0247 -0.0584
 2906W        W 6970   8.914   8.307   1.224 -0.0137  0.1351 -0.0723
 2907W        W 6971   7.690   9.393   1.729 -0.1172 -0.0103  0.1117
 2908W        W 6972  10.402   5.146   8.035  0.3345 -0.0294  0.0800
 2909W        W 6973   8.376   1.006   2.148  0.1416 -0.3394 -0.0258
 2910W        W 6974   4.133   4.930   8.894  0.0631 -0.0684  0.1106
 2911W        W 6975   6.425  10.237   2.207  0.2202 -0.1830  0.1641
 2912W        W 6976   9.665   5.018   0.116 -0.0427 -0.1219  0.4613
 2913W        W 6977   9.516   3.410   9.758 -0.0597  0.0957  0.1227
 2914W        W 6978   8.903   0.322  11.300  0.1815 -0.0263  0.1419
 2915W        W 6979   4.558   3.074   8.789  0.1463 -0.0468  0.0429
 2916W        W 6980   0.913   1.109   1.977 -0.1355  0.0920  0.3545
 2917W        W 6981   0.655   7.714  10.225  0.1839  0.0394  0.3649
 2918W        W 6982   8.925   1.537   0.838 -0.1531  0.3663 -0.3464
 2919W        W 6983   2.240   6.135   8.981 -0.2693  0.0642 -0.2478
 2920W        W 6984   2.361   7.573   1.954  0.1696 -0.3611 -0.0524
 2921W        W 6985  10.070   0.641   2.829 -0.0778  0.2595 -0.2525
 2922W        W 6986   3.907   6.155   7.896  0.1291  0.2798 -0.0031
 2923W        W 6987   4.414  10.614  11.495 -0.0301  0.2050 -0.0535
 2924W        W 6988   8.451   1.643   2.609 -0.1856  0.1121 -0.2015
 2925W        W 6989   8.489   8.063   0.121 -0.0109 -0.5242 -0.3283
 2926W        W 6990   3.351   8.418   9.554  0.1117  0.1036  0.2117
 2927W        W 6991   7.641   5.296   1.311 -0.3330 -0.3612  0.0627
 2928W        W 6992   1.069   2.183  10.166 -0.2194  0.0909 -0.3448
 2929W        W 6993   0.976   3.731   8.839  0.2056  0.1294  0.0689
 2930W        W 6994   2.515  10.083   2.013  0.0336  0.2210 -0.1158
 2931W        W 6995   4.727   1.963   3.103  0.0016 -0.0956  0.0143
 2932W        W 6996   3.845  10.388   1.594 -0.0760  0.1315 -0.2167
 2933W        W 6997   0.960   0.230   2.908 -0.2896  0.1936  0.0471
 2934W        W 6998   1.863   3.510   0.529  0.0757 -0.0655  0.3402
 2935W        W 6999   3.246   4.583   2.224  0.0587  0.0968  0.0498
 2936W        W 7000   2.089   5.933   1.393  0.1514 -0.0336  0.2047
 2937W        W 7001   5.321   4.221   4.279 -0.1899  0.3447  0.2296
 2938W        W 7002   1.855   6.291   2.153 -0.0243  0.1401 -0.1190
 2939W        W 7003  10.113   7.404  10.835 -0.1675 -0.1703 -0.1746
 2940W        W 7004  10.625   8.734   8.147 -0.0593 -0.2495  0.1614
 2941W        W 7005   9.116   4.829   1.868  0.0808  0.2044 -0.1792
 2942W        W 7006   7.766   4.778   7.796  0.2439 -0.1093  0.0362
 2943W        W 7007   9.871   3.848   4.378  0.2156  0.0673  0.1711
 2944W        W 7008   9.639   9.252  11.001 -0.1714 -0.1132  0.1453
 2945W        W 7009   7.688  10.309   8.881  0.3748 -0.2294 -0.2770
 2946W        W 7010   2.684   3.974   1.370 -0.5596 -0.1998 -0.1522
 2947W        W 7011   3.482   6.600   0.297  0.1062  0.3727 -0.0686
 2948W        W 7012   3.890   4.549   3.444 -0.0013 -0.0797  0.2350
 2949W        W 7013   1.079   3.303   9.225 -0.0568 -0.0620  0.3280
 2950W        W 7014   3.820   5.593   8.215 -0.3647  0.0029 -0.2809
 2951W        W 7015   6.799   0.922   7.525  0.1777 -0.0632  0.0503
 2952W        W 7016   1.912   5.662   8.989  0.2021 -0.0870 -0.1426
 2953W        W 7017   3.322   5.458   7.463  0.0658 -0.0825 -0.0670
 2954W        W 7018   3.397   2.045   2.386 -0.1436  0.4117 -0.0996
 2955W        W 7019   8.456   8.179   1.281 -0.0164  0.1748  0.2206
 2956W        W 7020   1.446   8.572   0.527 -0.4688  0.0404  0.1130
 2957W        W 7021   8.366   5.622   3.308  0.3987  0.0375  0.2276
 2958W        W 7022   6.567   2.041   1.085  0.2307  0.0524 -0.1804
 2959W        W 7023  10.323   5.542   0.615 -0.1153 -0.1034 -0.1007
 2960W        W 7024   1.519   9.795  10.711 -0.0931 -0.0504 -0.0651
 2961W        W 7025   2.422   2.245   9.390 -0.0339  0.2871 -0.0642
 2962W        W 7026   3.626   8.382   7.499  0.0358 -0.2588 -0.0204
 2963W        W 7027   2.645   9.761   2.503  0.1308  0.1551  0.1214
 2964W        W 7028   2.925   4.236   2.191  0.0981  0.0054 -0.0332
 2965W        W 7029   9.421   6.160   1.935  0.1065  0.0428 -0.3684
 2966W        W 7030   0.691   8.252   0.813  0.2000  0.0429  0.1475
 2967W        W 7031   2.933   8.774  11.442 -0.2788  0.2399  0.1520
 2968W        W 7032   3.228   2.494   2.435  0.2856 -0.4307  0.1280
 2969W        W 7033   0.233   4.453   8.905  0.3104  0.1588  0.2464
 2970W        W 7034   4.619   2.871   1.387 -0.1509 -0.0326  0.1465
 2971W        W 7035   0.773   2.079  10.551 -0.1127  0.2841 -0.0950
 2972W        W 7036   5.883   9.120   3.768  0.0546  0.3538 -0.1809
 2973W        W 7037   0.078   2.442  11.544 -0.1956 -0.1402 -0.0198
 2974W        W 7038   4.968   2.448  11.330 -0.0901 -0.1287 -0.4838
 2975W        W 7039   9.553   2.266  10.534 -0.0283 -0.2005 -0.0965
 2976W        W 7040   6.919   6.129  11.479 -0.0052  0.1061 -0.1626
 2977W        W 7041   5.779   6.386  10.592 -0.1600  0.0911 -0.1376
 2978W        W 7042   5.717   8.714   0.589  0.1562  0.1534 -0.0111
 2979W        W 7043   9.953   5.067   0.627  0.0807  0.1031 -0.0589
 2980W        W 7044   8.302   2.147   0.165  0.0844 -0.0950 -0.1341
 2981W        W 7045   4.559   3.888  11.000 -0.0320  0.2646 -0.1587
 2982W        W 7046   8.451   6.687   0.285  0.4671 -0.2536 -0.3325
 2983W        W 7047   6.947   3.993   2.445 -0.2294 -0.0461  0.2187
 2984W        W 7048  10.490   6.126   3.448  0.2222 -0.0025  0.1230
 2985W        W 7049   2.043   0.216   2.910  0.2176  0.1096 -0.1933
 2986W        W 7050   3.126   4.007   3.672  0.2161  0.0399 -0.2309
 2987W        W 7051   3.714   1.914   0.642  0.1067  0.2520 -0.2578
 2988W        W 7052   9.377   7.628   2.929 -0.0927  0.0711  0.2519
 2989W        W 7053   0.246   1.588   2.962  0.1566  0.1531  0.0317
 2990W        W 7054   8.566   1.305  11.022  0.0231  0.0418  0.0455
 2991W        W 7055   5.446   8.749   9.869 -0.2606 -0.0804 -0.1902
 2992W        W 7056   8.874   8.902   3.082 -0.3711 -0.5633  0.3485
 2993W        W 7057   3.711   7.812  10.642 -0.2238 -0.0277  0.2342
 2994W        W 7058   3.388   9.698   0.347 -0.0717  0.2480 -0.0557
 2995W        W 7059   2.705   9.783   1.243 -0.2320  0.3160 -0.0849
 2996W        W 7060   6.661   0.944   0.417  0.1446  0.0099  0.1234
 2997W        W 7061   6.500   6.753   2.301  0.0161  0.0966  0.1994
 2998W        W 7062  10.299   6.202   2.179 -0.2598  0.1115  0.1296
 2999W        W 7063   9.415   6.810   9.032 -0.2096  0.1221  0.1295
 3000W        W 7064   6.788   8.047   1.375 -0.2888  0.0633 -0.0136
 3001W        W 7065   4.238   8.846  10.872 -0.1089  0.1803 -0.0066
 3002W        W 7066   9.034   4.143   1.641  0.1360  0.3366  0.0967
 3003W        W 7067   2.986   9.517   1.616 -0.0349 -0.0559  0.2576
 3004W        W 7068   3.132   6.732  10.584 -0.5102  0.1746 -0.2168
 3005W        W 7069   8.538   2.730   2.108  0.1680  0.0056  0.1914
 3006W        W 7070   0.532   5.057   3.933  0.0083  0.3060  0.0842
 3007W        W 7071   9.594   1.197   2.568  0.0552  0.1723 -0.0144
 3008W        W 7072   1.134   8.553   9.184  0.0104  0.0277  0.2477
 3009W        W 7073  10.043   5.817   1.499 -0.2370 -0.2918  0.0406
 3010W        W 7074  10.004   7.189   8.372 -0.0246 -0.0486 -0.1314
 3011W        W 7075   6.976   9.175  11.590  0.0928 -0.1072  0.0112
 3012W        W 7076  10.048   6.210   2.626 -0.0600 -0.1089 -0.0500
 3013W        W 7077   3.186   2.045   9.486  0.1595 -0.3101  0.0024
 3014W        W 7078   1.336   4.052   3.110 -0.1028  0.0196 -0.1221
 3015W        W 7079   0.888   3.475  10.273 -0.0214  0.4042 -0.0177
 3016W        W 7080   6.639   6.239   9.346 -0.0089  0.0345  0.0555
 3017W        W 7081   1.129   7.127   3.652  0.0568 -0.1868 -0.0928
 3018W        W 7082   7.746   2.980   0.538  0.1367 -0.1776  0.0293
 3019W        W 7083   1.873   3.411   2.904  0.1557  0.1012 -0.1461
 3020W        W 7084   7.887   5.109   1.756 -0.1932  0.0445 -0.1535
 3021W        W 7085   1.411   5.622   0.318 -0.2845 -0.1404  0.0041
 3022W        W 7086   6.850   4.029   1.886  0.0421  0.0802  0.0840
 3023W        W 7087   3.548  10.052  10.641 -0.1819  0.2439  0.0945
 3024W        W 7088  10.548   3.060   8.852  0.0771  0.3617  0.0855
 3025W        W 7089   6.591   2.979   2.078 -0.0109 -0.3177  0.0973
 3026W        W 7090   6.065   9.225   8.704 -0.2062  0.0248  0.4054
 3027W        W 7091   7.586   9.272   8.894  0.4155 -0.0535  0.1829
 3028W        W 7092   8.653   4.659  11.121 -0.1741  0.1386  0.0245
 3029W        W 7093   9.866   0.624   1.259 -0.1363 -0.3414  0.1598
 3030W        W 7094   4.834   7.953   0.826  0.0072  0.1759  0.3698
 3031W        W 7095   7.903   8.953   1.676  0.0335  0.0545 -0.0823
 3032W        W 7096   2.703   6.201   9.022  0.1669 -0.1163  0.1664
 3033W        W 7097   3.185   7.165  10.786  0.1104  0.0832 -0.2567
 3034W        W 7098   0.015   9.856  10.662  0.1658  0.0550 -0.1557
 3035W        W 7099   6.825  10.378   1.240  0.0171 -0.0815  0.1433
 3036W        W 7100   0.341   2.706   9.179 -0.2138 -0.1793 -0.0571
 3037W        W 7101   1.234   7.929  10.521 -0.5156 -0.1781 -0.1138
 3038W        W 7102   3.536   2.876   9.509 -0.0031  0.3229 -0.2253
 3039W        W 7103   1.672   2.859   9.596 -0.2856  0.1485 -0.1224
 3040W        W 7104   1.395   1.770   2.041  0.0358 -0.2713 -0.0457
 3041W        W 7105  10.256   1.748   1.806  0.0802 -0.1734  0.2170
 3042W        W 7106   4.997   4.216  10.752  0.3057  0.1799  0.0483
 3043W        W 7107   6.869   3.331   2.997  0.1647 -0.3776 -0.2206
 3044W        W 7108   4.617   3.961   9.216 -0.5005  0.1143 -0.2063
 3045W        W 7109   1.516   4.700   1.674 -0.0301  0.1792  0.5464
 3046W        W 7110   5.110   5.955   2.307  0.1390 -0.0611 -0.1348
 3047W        W 7111   0.534   9.443   8.140 -0.1038 -0.3449  0.0866
 3048W        W 7112   8.753   7.975  10.926  0.0303  0.1057  0.0038
 3049W        W 7113   2.705   3.640  10.260  0.1905  0.3160 -0.0101
 3050W        W 7114   0.362   4.417   0.875  0.1530  0.3444  0.0098
 3051W        W 7115   3.893   2.267   0.346  0.0377 -0.0277  0.3620
 3052W        W 7116   5.606   8.831  11.239  0.0593 -0.3918  0.3369
 3053W        W 7117   3.134   1.268   1.754  0.0486 -0.2358 -0.1394
 3054W        W 7118   6.884   8.830   0.398  0.0326 -0.0095  0.0582
 3055W        W 7119   8.056   7.913  11.577  0.3327  0.1794 -0.0393
 3056W        W 7120   0.632   1.269   1.618  0.2022 -0.1440 -0.0810
 3057W        W 7121  10.234   2.508  10.289 -0.3738 -0.0454 -0.0291
 3058W        W 7122  10.504   3.589   9.915 -0.4177 -0.1788  0.1213
 3059W        W 7123   6.239   2.850  10.543  0.0995  0.0868 -0.2206
 3060W        W 7124   1.310   5.526  11.277 -0.2690  0.0724  0.1745
 3061W        W 7125   3.472   2.120   3.764  0.0509  0.3127  0.1021
 3062W        W 7126   1.653   6.437   7.790 -0.0224  0.1162 -0.2309
 3063W        W 7127   9.472   3.472   7.913  0.0888 -0.1756  0.0366
 3064W        W 7128   6.916   2.927   2.587  0.0979  0.1796 -0.1114
 3065W        W 7129   4.024   3.534   0.851  0.0313  0.1045  0.2419
 3066W        W 7130   0.336   1.775  10.710 -0.2353 -0.1060  0.1934
 3067W        W 7131   5.332   2.831   2.222  0.2256 -0.0573  0.1656
 3068W        W 7132   6.604   9.321   0.293  0.2199 -0.2519 -0.0582
 3069W        W 7133  10.066   0.153   2.802  0.0978 -0.0346 -0.4424
 3070W        W 7134   0.237   3.183  10.779  0.0372  0.0704 -0.1668
 3071W        W 7135   6.197   8.617  10.579  0.2122  0.1676 -0.0222
 3072W        W 7136   5.354   7.267   1.277 -0.1098 -0.0672  0.0157
 3073W        W 7137   2.445   7.875   9.918  0.0798  0.2683 -0.4227
 3074W        W 7138   3.330   1.534   3.488  0.0794  0.0127  0.2497
 3075W        W 7139   4.626   2.380   1.022  0.0674 -0.0163  0.0009
 3076W        W 7140   3.394   9.788   7.799 -0.2059  0.1684  0.0436
 3077W        W 7141   3.899   1.628   1.058  0.1833  0.0527  0.2726
 3078W        W 7142   6.987   7.970   7.964  0.0884  0.0760  0.1643
 3079W        W 7143   5.354   8.868  10.334  0.0554  0.0566  0.1121
 3080W        W 7144   2.054   8.996  10.967  0.0376  0.1901  0.0022
 3081W        W 7145   1.650   5.265  11.588  0.0604  0.0808 -0.1918
 3082W        W 7146   5.066   5.624   7.643 -0.4079  0.0751  0.1281
 3083W        W 7147   7.289   6.934   0.394  0.2673 -0.2118 -0.0783
 3084W        W 7148   7.430   8.179   7.777 -0.1687 -0.0953  0.0051
 3085W        W 7149   0.243   2.338   9.940  0.0794  0.0384 -0.1422
 3086W        W 7150  10.124   8.059   7.929  0.1282 -0.4380  0.0415
 3087W        W 7151   1.338   8.851  11.581  0.1061  0.4470 -0.0557
 3088W        W 7152   9.204   2.989   0.440 -0.0134  0.3822 -0.1549
 3089W        W 7153   3.320   4.932   8.240 -0.1342 -0.0957 -0.0189
 3090W        W 7154   6.636   9.656   2.913 -0.0571  0.3343 -0.1646
 3091W        W 7155   9.773   8.292  10.820  0.0744  0.1043 -0.0388
 3092W        W 7156   1.903   4.688   2.058 -0.0537 -0.1551 -0.1331
 3093W        W 7157   5.533   1.834   2.972  0.3078  0.0918 -0.0565
 3094W        W 7158   0.527   2.322   1.342 -0.0276  0.0680 -0.0759
 3095W        W 7159   0.987   8.336  10.508 -0.0526 -0.2583  0.1642
 3096W        W 7160   1.746   8.312   3.559 -0.0378 -0.0392 -0.2033
 3097W        W 7161   9.631   3.914   8.578  0.0228 -0.5147  0.1398
 3098W        W 7162   6.384   2.334  10.028 -0.1498 -0.3021  0.1298
 3099W        W 7163   8.756  10.469   0.483 -0.0684  0.1841  0.0364
 3100W        W 7164   5.212   2.568   1.766  0.3500  0.1580 -0.2085
 3101W        W 7165   0.132   5.897  10.481  0.1458 -0.0920  0.0741
 3102W        W 7166   9.822   6.955  11.292 -0.3698  0.0496  0.2053
 3103W        W 7167  10.419   5.803   1.820 -0.1656  0.0495  0.0498
 3104W        W 7168   6.401   4.587  10.303 -0.0577 -0.0855 -0.1336
 3105W        W 7169  10.214   9.484  10.213  0.0683 -0.2238  0.1842
 3106W        W 7170   5.987  10.439  10.863 -0.2166 -0.0970 -0.3726
 3107W        W 7171   7.626   6.741   8.881 -0.1179 -0.2488 -0.2069
 3108W        W 7172   7.587   6.942   1.445  0.2316 -0.1530  0.0236
 3109W        W 7173   7.460  10.077   1.025  0.0310 -0.2583 -0.3317
 3110W        W 7174   5.666   5.137   2.690 -0.1843  0.2240  0.1241
 3111W        W 7175   9.028   8.746   7.915  0.0504  0.0815  0.2854
 3112W        W 7176   0.777   6.828   2.101  0.0314 -0.5865 -0.0596
 3113W        W 7177   5.565  10.420   9.018  0.0739  0.3070 -0.0045
 3114W        W 7178   9.988   5.397   1.798  0.0533 -0.0638 -0.3636
 3115W        W 7179   1.081  10.133   2.917  0.0328  0.0468  0.2390
 3116W        W 7180   5.840   1.590   7.696  0.1873  0.0637 -0.1286
 3117W        W 7181   7.724   5.996   7.835  0.0151 -0.1340 -0.0822
 3118W        W 7182  10.096   5.139   2.766  0.1959 -0.5239  0.0998
 3119W        W 7183   5.488   5.103  10.723  0.1109 -0.0524 -0.0669
 3120W        W 7184   7.760   0.852   0.462  0.0533  0.1304 -0.1499
 3121W        W 7185   2.464   1.671   9.846  0.0605  0.2530  0.1178
 3122W        W 7186   2.480   6.724  10.816 -0.1425 -0.0437  0.0735
 3123W        W 7187   9.505   7.429   9.717  0.2637  0.1651 -0.4499
 3124W        W 7188   9.409   7.056   1.677 -0.1996  0.1708  0.0733
 3125W        W 7189   1.247   3.145  10.756 -0.0561  0.4686 -0.1376
 3126W        W 7190   7.373   2.100  10.849 -0.1592  0.2046  0.1330
 3127W        W 7191   2.721   4.142  10.668 -0.1702  0.2496  0.0364
 3128W        W 7192   3.138   0.754   0.999  0.1586 -0.0188 -0.0029
 3129W        W 7193   6.152   6.153   1.167  0.0193  0.1478  0.0953
 3130W        W 7194   6.445  10.276  10.978  0.1439  0.2108 -0.0027
 3131W        W 7195   1.746   9.142   9.667 -0.1641  0.0941  0.0738
 3132W        W 7196  10.064   6.958   7.924  0.2524 -0.3450 -0.0708
 3133W        W 7197   6.878   8.717   8.393  0.1418  0.2253 -0.1023
 3134W        W 7198   3.379   4.269  10.369 -0.2393 -0.0297 -0.2172
 3135W        W 7199   6.379   8.435  11.071 -0.2306 -0.0741 -0.0931
 3136W        W 7200   3.290   8.475  11.250 -0.1790  0.0999 -0.1025
 3137W        W 7201   6.538   0.288   2.086 -0.0256  0.0566  0.0137
 3138W        W 7202   2.892   6.761   9.248 -0.0227  0.1399 -0.0283
 3139W        W 7203   4.179   6.207  11.078  0.1279  0.2201 -0.1107
 3140W        W 7204  10.451   4.847   2.911 -0.4172  0.0486  0.0947
 3141W        W 7205   7.678   8.891   2.695  0.4290 -0.0220  0.1485
 3142W        W 7206   7.152   2.933   3.009 -0.0206  0.0430 -0.4685
 3143W        W 7207   4.857   3.719   8.363  0.1209  0.3308 -0.1742
 3144W        W 7208   8.049   1.291   7.192 -0.0135 -0.0895 -0.4777
 3145W        W 7209   6.804   3.257   7.596  0.0421  0.0233 -0.1679
 3146W        W 7210  10.241   8.549  10.115 -0.4107  0.2226  0.1931
 3147W        W 7211   1.090   7.268   2.458 -0.2505  0.4107 -0.2069
 3148W        W 7212   5.252   8.562   0.579  0.3070  0.2352  0.1766
 3149W        W 7213   2.645   9.131   8.362 -0.2320 -0.1420  0.0331
 3150W        W 7214   5.990   8.121  10.888 -0.0876 -0.0865  0.3264
 3151W        W 7215   9.490   5.282  10.376  0.1615 -0.1666 -0.1326
 3152W        W 7216   7.076   2.791  10.645  0.3498 -0.1787  0.1702
 3153W        W 7217  10.124   1.168   0.249  0.1086 -0.1739 -0.1298
 3154W        W 7218   4.632   1.612   3.604 -0.2467  0.1967 -0.2013
 3155W        W 7219   1.140   5.612  10.341  0.2429 -0.1081  0.0033
 3156W        W 7220   8.424   4.453  11.540  0.1730 -0.1974 -0.2392
 3157W        W 7221   1.823   7.416   1.326 -0.0926  0.1186  0.2468
 3158W        W 7222   0.625   7.800   0.060 -0.0049  0.2299  0.1390
 3159W        W 7223   8.971   7.957   2.053 -0.0674  0.0492 -0.0814
 3160W        W 7224  10.617   8.369  10.539 -0.1293 -0.2344 -0.2538
 3161W        W 7225   5.951   0.184  10.352  0.2355  0.2402  0.3679
 3162W        W 7226   0.042   7.631   8.981 -0.2907 -0.0545 -0.0391
 3163W        W 7227  10.363   3.957   9.429 -0.3110 -0.0922  0.1569
 3164W        W 7228   9.644   0.868   2.919 -0.1052  0.1715  0.1478
 3165W        W 7229   2.307   6.900   2.579 -0.0169  0.1293 -0.4859
 3166W        W 7230   0.332   5.466   4.140  0.0878  0.3912  0.3021
 3167W        W 7231   5.315   4.324  10.144  0.0747  0.0991  0.2357
 3168W        W 7232  10.172  10.398   1.430 -0.1394  0.2183 -0.0172
 3169W        W 7233   7.272   0.761   1.041  0.0063  0.0941  0.1450
 3170W        W 7234   8.302   1.542   8.265 -0.1715 -0.0599 -0.1498
 3171W        W 7235   2.551   8.651   3.413 -0.1603  0.1716 -0.3181
 3172W        W 7236   5.760   8.358   4.008 -0.2420 -0.0712  0.1795
 3173W        W 7237   1.203   7.090   1.428 -0.1567 -0.2520 -0.1305
 3174W        W 7238   6.191   2.234   2.971  0.0830 -0.2163 -0.0757
 3175W        W 7239   8.102   2.984   2.225 -0.0039  0.2387 -0.3825
 3176W        W 7240   4.672   7.131   2.808  0.0896  0.1186 -0.2678
 3177W        W 7241   2.126   7.954   2.154 -0.1166 -0.1599 -0.2205
 3178W        W 7242   0.340   5.040   2.607 -0.0023 -0.1463 -0.4350
 3179W        W 7243   3.105   6.216  11.180  0.1990  0.1455 -0.0710
 3180W        W 7244  10.381   5.413   1.476  0.0306  0.3563 -0.0389
 3181W        W 7245   2.424   4.969   2.188  0.3694 -0.1867 -0.2064
 3182W        W 7246   0.223   8.654   9.249  0.1799  0.1658 -0.4381
 3183W        W 7247   0.617   6.598   8.522  0.1336  0.0583 -0.1156
 3184W        W 7248   4.952   1.543   8.850  0.3717  0.2067 -0.1169
 3185W        W 7249   5.719   4.359  11.592  0.0446 -0.0278 -0.2143
 3186W        W 7250   8.386   3.673   9.359  0.0147  0.0381 -0.0385
 3187W        W 7251   0.789   5.181  11.225 -0.0070  0.2031  0.3468
 3188W        W 7252   5.812   8.226   1.380  0.1524  0.3822  0.0207
 3189W        W 7253   9.099   7.629  10.816  0.1409  0.0386 -0.0734
 3190W        W 7254   4.408   0.442   0.045 -0.2619 -0.0290 -0.1082
 3191W        W 7255   5.322   9.448   2.516 -0.0258 -0.0508 -0.1510
 3192W        W 7256   2.940   8.126   1.911  0.1092 -0.1300 -0.1915
 3193W        W 7257   8.331   5.921   0.833 -0.4076  0.0981  0.0359
 3194W        W 7258   3.627   1.503   2.510  0.1439 -0.0078 -0.0484
 3195W        W 7259   1.411   9.483   0.569  0.1769  0.0280 -0.2163
 3196W        W 7260   3.301   8.778   0.952 -0.0376  0.2488  0.2996
 3197W        W 7261   7.149   4.987  10.818  0.1628 -0.0789 -0.1975
 3198W        W 7262   2.691   9.405   3.629  0.0944 -0.2200 -0.0612
 3199W        W 7263   7.106   2.977   7.081 -0.1042 -0.1388  0.1285
 3200W        W 7264   6.383   2.003   9.099  0.0545 -0.2296  0.0593
 3201W        W 7265   9.058   2.453  10.840 -0.0936 -0.0987  0.0288
 3202W        W 7266   8.501   9.277   9.439 -0.4184 -0.2080 -0.0007
 3203W        W 7267   5.372   9.885   2.126 -0.2971  0.2785  0.0765
 3204W        W 7268   3.554   2.742   3.388  0.1769 -0.0108 -0.0196
 3205W        W 7269   7.558   6.659   2.494 -0.1367  0.0745 -0.0279
 3206W        W 7270   2.516   1.825  10.767  0.0526  0.1480 -0.0676
 3207W        W 7271   9.771  10.615   9.623 -0.1802 -0.0834 -0.0856
 3208W        W 7272   5.093   5.305   3.352  0.0123 -0.1482 -0.0404
 3209W        W 7273  10.459   1.872   2.227  0.1060 -0.1221 -0.1780
 3210W        W 7274   3.459   1.171   8.378  0.1113 -0.2277 -0.1054
 3211W        W 7275   0.191   6.386  10.675  0.1860 -0.3242  0.1108
 3212W        W 7276  10.358   2.731   7.787  0.0371 -0.0655 -0.0252
 3213W        W 7277   7.090   0.969   3.257  0.0093  0.2181 -0.0312
 3214W        W 7278   1.872   1.680   0.148 -0.4646 -0.0918  0.2185
 3215W        W 7279   9.714   9.243   9.293  0.2771  0.0138  0.1975
 3216W        W 7280   3.569   4.864   3.887 -0.4937  0.2443  0.0359
 3217W        W 7281   9.658   3.945   7.117  0.0091  0.2980  0.0755
 3218W        W 7282   1.195   3.181   0.028  0.0992 -0.0285 -0.2622
 3219W        W 7283   0.040   2.342   1.236 -0.0383  0.2663  0.1114
 3220W        W 7284   8.932   7.105   2.541 -0.2140 -0.3010  0.4504
 3221W        W 7285   0.399   0.948   0.613 -0.2461  0.2084 -0.0443
 3222W        W 7286   4.383   2.349   4.236 -0.4064  0.2652  0.0252
 3223W        W 7287   4.973   8.590  10.371  0.1767  0.0841  0.3202
 3224W        W 7288   2.361   7.739   1.293 -0.0124 -0.1266 -0.1004
 3225W        W 7289   6.131   7.433   3.818  0.2267 -0.0529 -0.0655
 3226W        W 7290   0.072   2.615   8.639 -0.2070  0.0886 -0.1659
 3227W        W 7291   0.188   2.686  10.582  0.0046 -0.0320  0.3327
 3228W        W 7292  10.292   6.836   0.520  0.1913  0.1417 -0.0705
 3229W        W 7293   4.902   6.657   0.079 -0.0837  0.1387 -0.0186
 3230W        W 7294   5.124   9.755   8.723  0.1503 -0.2071  0.2545
 3231W        W 7295   0.696   4.215  10.527  0.4189 -0.3242  0.3118
 3232W        W 7296   1.876   9.659   8.918  0.0435 -0.0146  0.3028
 3233W        W 7297   0.765   8.557   1.308 -0.1430  0.0301 -0.2495
 3234W        W 7298  10.268   2.096  11.473 -0.1567 -0.0648  0.0287
 3235W        W 7299   9.663   5.914   2.488  0.0943  0.0934  0.0309
 3236W        W 7300   8.027   8.607   7.884  0.0099 -0.0300  0.0845
 3237W        W 7301   2.223   6.543   8.725 -0.6216 -0.0769 -0.0402
 3238W        W 7302   0.972   8.594   7.536 -0.1872 -0.0332 -0.1431
 3239W        W 7303   3.720   1.384   1.554 -0.2622 -0.0238 -0.1802
 3240W        W 7304   9.420   9.169   3.634 -0.4624  0.2173 -0.0097
 3241W        W 7305   1.648   9.048   0.309 -0.1806 -0.4534  0.1667
 3242W        W 7306   8.008   6.885  10.606 -0.0194 -0.0848  0.0345
 3243W        W 7307   5.020   4.914   9.062  0.0126  0.0156  0.0383
 3244W        W 7308   2.134   7.609   8.596  0.1018  0.0128  0.2872
 3245W        W 7309   7.806   6.674   1.843  0.1509  0.0765 -0.0638
 3246W        W 7310   2.864   8.258   9.012 -0.0851  0.0093  0.3509
 3247W        W 7311   9.507   2.620   2.155 -0.1578  0.1177  0.0142
 3248W        W 7312   0.033   0.029   1.977  0.1971 -0.1561  0.1049
 3249W        W 7313   0.482  10.592   0.813 -0.0025 -0.2385  0.0768
 3250W        W 7314   4.842   2.963  11.128  0.0268  0.2069  0.3038
 3251W        W 7315   8.494   1.173   7.876 -0.0082 -0.0030  0.0335
 3252W        W 7316   9.887   2.305   8.557  0.0736  0.0034 -0.1679
 3253W        W 7317   1.884   5.346   3.318 -0.0452  0.2479 -0.1002
 3254W        W 7318   0.172   3.232   0.321 -0.2306 -0.2313 -0.1758
 3255W        W 7319   3.342   3.522   1.419  0.2376 -0.1040  0.0043
 3256W        W 7320   8.479   9.201  10.359 -0.1365 -0.0619  0.1496
 3257W        W 7321   7.379   9.798   0.581 -0.0289 -0.0070 -0.4256
 3258W        W 7322   2.434   7.434  10.976  0.2369  0.2244  0.2710
 3259W        W 7323  10.578   8.783   2.771 -0.0992  0.3395  0.0012
 3260W        W 7324   8.771   8.404   9.264 -0.0363 -0.1990 -0.0858
 3261W        W 7325   3.471   3.815   2.067 -0.3847 -0.3433 -0.1659
 3262W        W 7326  10.027   2.648   1.400 -0.1592  0.1297 -0.0094
 3263W        W 7327   8.613   5.897   2.502  0.2962  0.0009  0.1273
 3264W        W 7328   3.238   5.732   2.843 -0.1300  0.4262  0.4536
 3265W        W 7329   6.750   2.979   8.886  0.3070  0.1755  0.1643
 3266W        W 7330   9.549   5.044   9.422  0.0794 -0.1278 -0.1364
 3267W        W 7331   5.806  10.457   3.025 -0.1110  0.0076  0.3219
 3268W        W 7332   0.030   2.730  10.113  0.3084  0.0449 -0.2239
 3269W        W 7333   4.248   6.899   2.061  0.1677  0.2606 -0.3066
 3270W        W 7334   0.062   1.458  11.018  0.2739 -0.2863  0.2609
 3271W        W 7335   5.090   2.135   1.637 -0.3200  0.1287 -0.2676
 3272W        W 7336   2.578   1.050   2.780  0.2195 -0.0793  0.2176
 3273W        W 7337   1.464   2.929   8.405  0.1788 -0.6497 -0.2794
 3274W        W 7338   5.143   1.403  11.135  0.2368 -0.0465  0.0674
 3275W        W 7339   0.875   0.676  10.256  0.0666 -0.0465 -0.1749
 3276W        W 7340   1.762   1.434   2.332 -0.2122  0.2413  0.0842
 3277W        W 7341   7.161   5.178   0.214  0.1574  0.0071  0.2605
 3278W        W 7342   6.439   6.456  11.276  0.1757 -0.0217  0.0507
 3279W        W 7343   0.886   8.832  10.808  0.0002 -0.1958  0.1774
 3280W        W 7344   9.357   8.265   2.209  0.1561  0.2956 -0.0253
 3281W        W 7345   6.140   3.168   0.714 -0.0386 -0.0059 -0.1675
 3282W        W 7346   1.703   9.795   3.499 -0.1131  0.0172  0.1657
 3283W        W 7347   4.908   9.076   3.148 -0.3016  0.1394 -0.0144
 3284W        W 7348   8.824   6.401   9.467  0.1983  0.0562 -0.1056
 3285W        W 7349   1.468   3.411  10.425 -0.1772  0.0455  0.4419
 3286W        W 7350   5.852   2.758   8.437  0.2452 -0.1930 -0.0830
 3287W        W 7351   9.293   8.718   3.336  0.2055  0.3624 -0.2599
 3288W        W 7352   7.633  10.223   3.569 -0.2339  0.4020  0.1751
 3289W        W 7353   2.225   3.792   9.095 -0.1920 -0.1810  0.1716
 3290W        W 7354   3.033   6.459   8.791 -0.2169 -0.0160 -0.0946
 3291W        W 7355   0.709   5.623  11.589 -0.3214  0.2355  0.0186
 3292W        W 7356   1.408   6.157  11.198  0.2928  0.1057 -0.1788
 3293W        W 7357  10.092   8.727  11.474  0.2491 -0.1394 -0.3054
 3294W        W 7358   0.687   0.068  10.333  0.2468 -0.2126 -0.0687
 3295W        W 7359   4.069  10.165  10.818 -0.2522  0.3361 -0.2217
 3296W        W 7360   2.217   0.490   3.866  0.1182 -0.0556  0.1260
 3297W        W 7361   3.470   3.689  10.168 -0.0648 -0.0749 -0.0404
 3298W        W 7362   2.621   9.077   9.235 -0.1170  0.1452  0.0839
 3299W        W 7363   2.052   5.994   8.547  0.4296  0.0631 -0.3344
 3300W        W 7364   7.171   2.960   4.357 -0.0502  0.3713 -0.0884
 3301W        W 7365   6.076  10.351   0.518  0.2496 -0.0637 -0.0308
 3302W        W 7366   4.696   3.926  10.500  0.2790  0.2647  0.0621
 3303W        W 7367   9.928   2.908  11.485  0.0211 -0.1144  0.1914
 3304W        W 7368   7.339   0.575   9.246  0.0260 -0.0960  0.0573
 3305W        W 7369   1.596   1.495   8.685  0.1444 -0.0835 -0.1483
 3306W        W 7370   1.542   3.075   2.653  0.0530 -0.0286 -0.0012
 3307W        W 7371   7.759   5.587  11.167 -0.1153  0.1211  0.0938
 3308W        W 7372   3.582   7.382   8.489 -0.0862  0.3037  0.0463
 3309W        W 7373   6.700   0.170   1.072 -0.3096 -0.4326  0.0904
 3310W        W 7374   6.807   4.386   7.758  0.0787 -0.0303  0.1383
 3311W        W 7375   0.434   5.955  10.831 -0.1425 -0.0615 -0.1396
 3312W        W 7376   8.791   3.527  11.365  0.0302  0.0473  0.0841
 3313W        W 7377   4.557   0.537   2.649  0.1947 -0.0386  0.0533
 3314W        W 7378   9.282   6.558   8.589 -0.0089  0.0808 -0.0648
 3315W        W 7379   9.617   8.500   8.952 -0.0744 -0.0926 -0.1164
 3316W        W 7380   8.309   4.404   1.438 -0.0204 -0.1362  0.1006
 3317W        W 7381   5.776   0.569  10.622 -0.1798 -0.0282  0.1698
 3318W        W 7382   3.526   9.176   1.195 -0.1125  0.1362  0.0064
 3319W        W 7383   6.461   5.167   2.040 -0.0847  0.1328  0.2319
 3320W        W 7384   6.710   9.447  11.283  0.1343 -0.0599 -0.0910
 3321W        W 7385   7.425   7.393  11.096  0.0407  0.2024 -0.1403
 3322W        W 7386   4.692   1.894  10.143 -0.0482 -0.4056 -0.0699
 3323W        W 7387   0.185   3.323   8.385  0.0003  0.0915  0.0589
 3324W        W 7388   2.318   5.109   3.396  0.2143 -0.2357 -0.0061
 3325W        W 7389  10.125   8.935   2.125  0.0141 -0.0180  0.2145
 3326W        W 7390   3.112   0.939   8.856 -0.1759  0.1303  0.2745
 3327W        W 7391   7.282   5.825   3.308 -0.2509  0.3785 -0.0112
 3328W        W 7392   2.256   1.808  10.346  0.1904 -0.1409 -0.1204
 3329W        W 7393   9.945   9.948   2.442  0.2013  0.0129  0.0971
 3330W        W 7394   7.667   8.357  11.112 -0.1481  0.2435 -0.2983
 3331W        W 7395   5.717   0.997   9.967  0.0960 -0.3956  0.3096
 3332W        W 7396   9.824   6.695   1.527 -0.3008 -0.1128 -0.0962
 3333W        W 7397   0.451   1.725   8.164  0.0621 -0.0829 -0.0019
 3334W        W 7398   4.335   9.415   8.038  0.1812 -0.0818  0.0905
 3335W        W 7399  10.451   4.446   9.181 -0.0914  0.1622  0.0261
 3336W        W 7400   9.736   7.052  10.822  0.2168  0.0640 -0.1371
 3337W        W 7401   3.958   3.016   8.139  0.0404  0.2015 -0.3242
 3338W        W 7402   7.057   7.772   9.337  0.1049  0.0569 -0.0986
 3339W        W 7403   0.564   4.295   9.879 -0.3769 -0.0044 -0.0179
 3340W        W 7404   1.701   1.233  11.115  0.3271  0.0628  0.1213
 3341W        W 7405   9.085   2.161   0.796  0.0846 -0.0176  0.5218
 3342W        W 7406   0.778   7.847   0.563  0.3115  0.0059  0.3784
 3343W        W 7407   2.922   0.724   4.238 -0.0482 -0.1000 -0.3235
 3344W        W 7408   0.049   7.343  10.851  0.0455 -0.1177  0.2343
 3345W        W 7409   5.593   0.031   1.346 -0.2133 -0.1288 -0.0121
 3346W        W 7410   3.522   8.907   2.913  0.0169 -0.0734  0.1008
 3347W        W 7411   2.935   9.229   4.073  0.1804  0.1177  0.2961
 3348W        W 7412   3.203   3.715   8.023  0.1665  0.0478  0.0370
 3349W        W 7413   0.255   3.052   0.933 -0.3968 -0.0083 -0.2092
 3350W        W 7414   9.131   0.760   2.958 -0.0332 -0.1337  0.2163
 3351W        W 7415   4.083   5.068  11.166  0.0172  0.0334  0.1062
 3352W        W 7416   4.110   8.632   1.263  0.0610 -0.0256  0.1329
 3353W        W 7417   5.720   4.631   0.419 -0.1071  0.2023 -0.0690
 3354W        W 7418   7.250   6.839   8.166 -0.0994 -0.3130 -0.2545
 3355W        W 7419   7.028   9.517   2.448 -0.1760 -0.0035  0.1419
 3356W        W 7420   8.383   3.355   3.451  0.1710  0.1854 -0.2771
 3357W        W 7421   0.451   3.373   7.844  0.0614  0.2692 -0.1112
 3358W        W 7422   3.251   1.529   9.322  0.1446 -0.0340 -0.0502
 3359W        W 7423   9.994   7.189   0.713  0.4160  0.0868 -0.1046
 3360W        W 7424   8.222   5.880   0.298  0.1699 -0.0915 -0.1256
 3361W        W 7425   4.505   5.750   8.906  0.1035 -0.1266 -0.3508
 3362W        W 7426   0.949  10.516   2.406  0.2755 -0.0847  0.0386
 3363W        W 7427   1.420   9.809   0.190  0.1637  0.1659  0.0184
 3364W        W 7428   5.862   5.000   7.794 -0.2823 -0.0376  0.1716
 3365W        W 7429   2.927   4.936  10.213 -0.1749  0.2396  0.1441
 3366W        W 7430   3.697   1.704   2.078 -0.2432  0.1318  0.0205
 3367W        W 7431   6.216   8.592   3.858  0.1208 -0.2265 -0.1852
 3368W        W 7432   2.729   9.298   2.297 -0.1997 -0.4758  0.0775
 3369W        W 7433   1.917   2.836   2.893  0.1508  0.1066  0.1077
 3370W        W 7434   7.768   0.716   1.361 -0.3628 -0.0620  0.0913
 3371W        W 7435   0.316   7.371   7.979  0.0149 -0.1949 -0.2250
 3372W        W 7436   7.348   1.070   8.962  0.3275  0.0176 -0.1130
 3373W        W 7437   5.401   7.825   0.013  0.2033 -0.0616  0.1231
 3374W        W 7438   3.430   9.115  11.203  0.3436 -0.0579 -0.1013
 3375W        W 7439   0.897   9.508   0.321 -0.1919  0.0271 -0.3084
 3376W        W 7440   6.206   2.766  11.067  0.1048  0.1659 -0.0103
 3377W        W 7441  10.307   6.708   9.073 -0.3760  0.1175  0.1885
 3378W        W 7442   5.057   2.329   2.286  0.4079  0.1499 -0.2321
 3379W        W 7443   7.084   7.314   2.791 -0.4229  0.3530 -0.0250
 3380W        W 7444   5.583   5.105   8.195  0.1050 -0.0178 -0.1838
 3381W        W 7445   6.769   0.779   1.452  0.2555  0.1333 -0.0402
 3382W        W 7446   2.781   9.597   9.374  0.2146 -0.1363  0.0214
 3383W        W 7447   7.901   2.060   7.666 -0.0418 -0.0416 -0.0125
 3384W        W 7448   3.029  10.116   2.234 -0.0798 -0.1001  0.0440
 3385W        W 7449   9.024   2.273   3.799 -0.2069  0.2329  0.2125
 3386W        W 7450   4.776   2.777   2.326 -0.0528  0.0620  0.0671
 3387W        W 7451   2.931   7.444   3.109 -0.0154 -0.0870 -0.4432
 3388W        W 7452   7.775   3.441  10.095  0.2223 -0.2035  0.0360
 3389W        W 7453   3.197   1.618   2.183 -0.0342 -0.0714  0.2087
 3390W        W 7454   5.737   4.006  10.213  0.1825  0.0020 -0.0788
 3391W        W 7455   1.850   7.750  11.148 -0.0872  0.3026  0.2493
 3392W        W 7456   7.484  10.056   4.040 -0.0299  0.0858  0.2884
 3393W        W 7457   4.711   6.974  10.548 -0.2517  0.1564  0.2122
 3394W        W 7458   8.453   5.210  10.584  0.0176 -0.0279  0.2147
 3395W        W 7459   4.226  10.561   0.421 -0.0735 -0.4126  0.0407
 3396W        W 7460   0.372   8.323   2.787  0.1933  0.1133  0.1090
 3397W        W 7461   3.246   7.987  11.496 -0.2878  0.0594 -0.1622
 3398W        W 7462   0.262   1.942   1.147  0.0809  0.0751  0.2386
 3399W        W 7463   8.716   4.590   1.667 -0.0254 -0.2675  0.1047
 3400W        W 7464   1.719   8.502   1.241  0.0840 -0.0413 -0.1091
 3401W        W 7465   0.209   0.065   2.869  0.1264 -0.1906 -0.1737
 3402W        W 7466   6.454   0.901  11.395 -0.1916 -0.1088 -0.4222
 3403W        W 7467   8.406   6.096   8.058 -0.1547 -0.2165 -0.0211
 3404W        W 7468   7.186   5.833   9.268  0.4974 -0.3315  0.1867
 3405W        W 7469   3.018  10.173   9.347  0.1005  0.0212 -0.1448
 3406W        W 7470   9.501   8.071   3.089 -0.0392  0.3207 -0.0023
 3407W        W 7471  10.150   8.841   8.338  0.0008 -0.0050  0.0294
 3408W        W 7472   3.558   4.308   0.826  0.1807 -0.2421 -0.0011
 3409W        W 7473   6.312   5.670   9.765 -0.2641 -0.0836 -0.4048
 3410W        W 7474   1.080  10.220   1.450  0.0147 -0.2857  0.2067
 3411W        W 7475  10.006   5.208   9.482  0.1541 -0.0033  0.0489
 3412W        W 7476   9.583   7.532   8.524  0.1344  0.1989 -0.0401
 3413W        W 7477  10.218   0.272   1.166  0.0923  0.0631 -0.0307
 3414W        W 7478   3.663   5.212   0.322  0.3270 -0.0465 -0.0275
 3415W        W 7479   4.257   4.396   9.949 -0.2159  0.2459  0.2720
 3416W        W 7480   2.009   9.911   1.863  0.2492 -0.5043 -0.0488
 3417W        W 7481   0.411   9.657   1.967 -0.0069  0.2154 -0.0157
 3418W        W 7482   0.603   1.790   0.261  0.4454 -0.1029  0.3077
 3419W        W 7483   5.994   5.946   0.669 -0.0109  0.0444 -0.0566
 3420W        W 7484   2.754   7.527   9.603  0.2047  0.0552  0.0649
 3421W        W 7485   0.222   1.814  10.146  0.3742  0.0695 -0.0005
 3422W        W 7486  10.459   5.850   9.895  0.2705  0.1161  0.1563
 3423W        W 7487   3.722   2.834   0.669  0.2508 -0.0466  0.1806
 3424W        W 7488  10.415  10.000   1.110 -0.3005 -0.0017  0.0695
 3425W        W 7489   5.042   9.972   0.244 -0.1411 -0.1890  0.2172
 3426W        W 7490   7.922   1.940  10.596 -0.1072  0.2287 -0.0259
 3427W        W 7491   6.490   8.900   2.874  0.1883 -0.1582 -0.0396
 3428W        W 7492   1.654   0.577  10.994  0.0404 -0.3120 -0.1258
 3429W        W 7493   5.288   6.492   0.966 -0.1376 -0.0870 -0.1837
 3430W        W 7494   8.813   5.352   2.438  0.0954  0.1019 -0.2080
 3431W        W 7495   6.503   2.260   0.127  0.1411  0.0751 -0.2713
 3432W        W 7496   1.577   0.617  10.313 -0.1073 -0.2839  0.0466
 3433W        W 7497   7.076   2.922   7.954  0.1276  0.1375  0.0760
 3434W        W 7498   6.442   6.170   9.837  0.0844 -0.0838 -0.3499
 3435W        W 7499   0.826   5.074   0.864  0.0694  0.0708 -0.0154
 3436W        W 7500   1.833   6.154  10.012  0.1976 -0.0285  0.2826
 3437W        W 7501   2.060   7.202   2.306  0.0207 -0.0818  0.0635
 3438W        W 7502   7.449   1.450   9.315 -0.0892 -0.1054  0.0296
 3439W        W 7503   7.615   5.783   1.482 -0.2444  0.2855 -0.0503
 3440W        W 7504  10.623   6.787   9.984  0.2589  0.1277 -0.1653
 3441W        W 7505   7.055   1.203  10.593 -0.2168 -0.0016 -0.2229
 3442W        W 7506   2.463   8.197   0.990  0.2424  0.1091 -0.1240
 3443W        W 7507   9.909  10.078   0.304  0.1182 -0.2340  0.6141
 3444W        W 7508   8.263   3.533   9.859 -0.1132  0.2381 -0.0407
 3445W        W 7509   5.798   7.869   2.591 -0.0752  0.2714 -0.1439
 3446W        W 7510   4.504   8.064   8.049  0.3133  0.1377  0.3980
 3447W        W 7511   5.864   3.308   8.565 -0.4458 -0.0991  0.0713
 3448W        W 7512  10.105   4.521   1.980  0.0757  0.1093 -0.1517
 3449W        W 7513   6.973   4.958   8.752 -0.0173  0.1672  0.0154
 3450W        W 7514   6.155   3.309   1.496  0.3450  0.1492 -0.0480
 3451W        W 7515   1.548   7.210   3.155  0.0435  0.1646  0.0094
 3452W        W 7516   0.831   5.878   7.310  0.1087  0.0778 -0.1773
 3453W        W 7517  10.527   7.802   9.407 -0.2109  0.0178  0.1401
 3454W        W 7518   9.833   8.305  11.315  0.3131  0.1539 -0.1578
 3455W        W 7519   3.308   1.016   1.422 -0.1753  0.1049  0.0961
 3456W        W 7520   2.416   5.206   1.734  0.0472 -0.0486  0.0007
 3457W        W 7521   8.538   0.063  11.457 -0.0214 -0.1435 -0.0126
 3458W        W 7522   9.318   6.134   3.551  0.0012  0.1122  0.1232
 3459W        W 7523   7.808   2.734  10.197  0.3098  0.0616 -0.2784
 3460W        W 7524   9.643   3.009   1.555  0.0592 -0.0143 -0.0737
 3461W        W 7525   8.091   5.284  10.211 -0.1487  0.1197  0.0541
 3462W        W 7526   6.324   4.886   8.740 -0.2993  0.1018  0.1815
 3463W        W 7527   6.742   7.881   8.894 -0.1279  0.2233  0.0713
 3464W        W 7528   6.824  10.540   8.821 -0.2344 -0.1809 -0.1906
 3465W        W 7529   5.264   5.664  10.645  0.1531  0.1964  0.0944
 3466W        W 7530   5.505   8.663   1.382  0.1086  0.1406  0.2035
 3467W        W 7531   5.878   8.819   8.485  0.1893  0.0093  0.0492
 3468W        W 7532   8.593   3.357   0.664  0.2856 -0.1370  0.1928
 3469W        W 7533   6.384   6.154   3.384  0.1295 -0.2871 -0.0616
 3470W        W 7534   1.307   2.317   1.746  0.0936 -0.1310 -0.2565
 3471W        W 7535   5.902   3.919   0.916 -0.0908  0.1874  0.3007
 3472W        W 7536  10.332   9.111   9.095 -0.2530 -0.1187 -0.1905
 3473W        W 7537   1.503   2.464   1.289 -0.1678 -0.1889 -0.1703
 3474W        W 7538   9.182  10.035   9.110  0.0589 -0.0961 -0.0570
 3475W        W 7539   4.200   5.898   7.571 -0.1881 -0.0292  0.2530
 3476W        W 7540   4.346   0.844  10.321 -0.2761  0.2913 -0.0158
 3477W        W 7541   9.956   9.437   2.339 -0.0132  0.3098  0.2947
 3478W        W 7542   8.947   6.923   8.777 -0.0614 -0.0248 -0.4034
 3479W        W 7543   7.471   2.899   8.286 -0.0675 -0.2104 -0.0550
 3480W        W 7544   7.752   5.239   0.822  0.1291 -0.1559 -0.2085
 3481W        W 7545  10.371   7.615   2.261 -0.3218  0.1269  0.1243
 3482W        W 7546   9.423   0.443  10.473  0.0371 -0.1444 -0.2347
 3483W        W 7547   4.640   5.881   2.599 -0.3839  0.0854  0.1412
 3484W        W 7548   9.260   3.196  10.453 -0.1619 -0.1558  0.0605
 3485W        W 7549   3.662   4.710   8.616 -0.1334 -0.2355 -0.1246
 3486W        W 7550   2.034   6.643   1.053  0.1631 -0.0483  0.0132
 3487W        W 7551   1.160   9.151   1.012 -0.1791  0.2192 -0.0478
 3488W        W 7552   3.266   7.493   9.565 -0.2256 -0.0664  0.2093
 3489W        W 7553   1.430   9.127   1.829 -0.1575 -0.2974  0.1485
 3490W        W 7554   8.505   4.568   7.988  0.1854  0.0794  0.1838
 3491W        W 7555   3.219   5.556   2.341 -0.0111  0.0727 -0.2342
 3492W        W 7556   7.122   3.138   9.223 -0.2040 -0.3149 -0.1059
 3493W        W 7557   2.108   0.228  10.327  0.0453  0.1662 -0.2038
 3494W        W 7558  10.382   1.191   8.392  0.1590  0.5545  0.2098
 3495W        W 7559   4.378   3.867  10.051  0.0350  0.2636 -0.2754
 3496W        W 7560   4.904   6.930  11.260  0.0429  0.0028 -0.1329
 3497W        W 7561   9.997   2.931   0.442 -0.0694 -0.0198 -0.0600
 3498W        W 7562   1.282   6.589   1.412 -0.1855 -0.0884  0.3650
 3499W        W 7563   6.347   9.954   3.405  0.2837  0.0386 -0.4880
 3500W        W 7564   5.751   5.360   9.512  0.3962  0.2448 -0.0517
 3501W        W 7565   8.666   5.584   0.673 -0.0927  0.1372  0.0243
 3502W        W 7566   6.507   8.086   2.551  0.4263 -0.2714 -0.3321
 3503W        W 7567   3.651   9.432   1.584 -0.0758  0.1459  0.0111
 3504W        W 7568  10.390   8.524   2.303 -0.1465 -0.4827  0.1238
 3505W        W 7569   5.264   7.112   0.827  0.0494 -0.2017  0.2953
 3506W        W 7570   4.817   8.252   2.375  0.2422  0.1038  0.1763
 3507W        W 7571   4.240   4.535   1.972  0.1502  0.0695  0.0037
 3508W        W 7572   7.558   3.670   2.519 -0.1865  0.0315 -0.0861
 3509W        W 7573   9.117   7.358   8.587  0.0250 -0.2405 -0.0791
 3510W        W 7574   9.354   9.876   8.574  0.1436  0.4901 -0.1690
 3511W        W 7575   2.961   1.802   8.981  0.0913  0.1164  0.1168
 3512W        W 7576   4.201   8.203   9.704 -0.3251 -0.0469 -0.1270
 3513W        W 7577   5.784   2.828   8.975  0.1591  0.0131 -0.0548
 3514W        W 7578   1.217  10.499   3.203 -0.0943 -0.2252  0.2840
 3515W        W 7579   7.641   2.863   3.034 -0.1246 -0.3052  0.0021
 3516W        W 7580  10.414   3.281   0.721 -0.0926 -0.1182  0.2682
 3517W        W 7581   5.332  10.580   0.839 -0.1419  0.1386 -0.1299
 3518W        W 7582   0.105   2.396   0.764 -0.1718 -0.0533 -0.0206
 3519W        W 7583   3.211   6.632   0.863  0.0962 -0.0799  0.2052
 3520W        W 7584   0.869   3.397   2.688 -0.2155  0.3323 -0.3018
 3521W        W 7585   3.502   4.015   2.871  0.0045 -0.1063 -0.4326
 3522W        W 7586   5.116   1.167   3.440  0.3007 -0.1056  0.2526
 3523W        W 7587   1.096   9.524   3.791 -0.1274  0.0017  0.2593
 3524W        W 7588   2.390   9.832   1.591  0.2856  0.3437  0.2068
 3525W        W 7589   3.254   7.155   2.807  0.0178 -0.0470 -0.0958
 3526W        W 7590   8.458   4.945  11.550 -0.0701 -0.0781 -0.3404
 3527W        W 7591   2.439   7.857  11.239  0.4772 -0.3853 -0.1095
 3528W        W 7592  10.141   6.875   1.107 -0.1248  0.4388 -0.0072
 3529W        W 7593  10.264   8.082   9.974 -0.1604  0.0235  0.0381
 3530W        W 7594   4.404   3.352   0.047 -0.2411 -0.1208  0.0226
 3531W        W 7595   5.276   5.855   8.941  0.0946 -0.1314  0.4274
 3532W        W 7596   9.968  10.499  11.559 -0.1771 -0.0207 -0.2512
 3533W        W 7597  10.588   0.570   2.677 -0.0677 -0.5889  0.3338
 3534W        W 7598   2.037   8.553   2.576  0.0317 -0.1794  0.3790
 3535W        W 7599   1.616   9.612   3.926  0.1003 -0.3461  0.0893
 3536W        W 7600   5.796   1.823   9.253  0.0026  0.1547  0.1018
 3537W        W 7601   5.989   1.728   0.267  0.0635  0.0380  0.0672
 3538W        W 7602   0.574   0.255   3.294 -0.0579 -0.1029  0.0255
 3539W        W 7603   8.266   4.142   0.411  0.1920  0.0016 -0.0927
 3540W        W 7604   5.931   2.399   0.848  0.1796 -0.3821 -0.1488
 3541W        W 7605   1.642   1.767   3.641  0.0475  0.0126 -0.5039
 3542W        W 7606   0.281   9.173   2.556 -0.0006 -0.2265  0.1670
 3543W        W 7607   7.542   5.109   2.716 -0.4897 -0.0276 -0.2886
 3544W        W 7608   2.279   8.617  10.087 -0.0200  0.2786  0.0490
 3545W        W 7609   1.817   1.546   1.015  0.0851  0.0274 -0.0308
 3546W        W 7610   8.801   6.010   1.027  0.0757 -0.1475 -0.0678
 3547W        W 7611   9.062   7.047   0.829 -0.0541  0.0454  0.0395
 3548W        W 7612   3.335   5.617   0.468  0.0043  0.2416 -0.1937
 3549W        W 7613   6.183   2.247  10.539  0.0921  0.1182  0.1185
 3550W        W 7614   7.942   5.259   7.857 -0.3158  0.1657  0.1564
 3551W        W 7615   7.125   2.001   2.612 -0.0052 -0.1932 -0.0637
 3552W        W 7616   5.779   8.880  10.640 -0.3078 -0.1506  0.2441
 3553W        W 7617   3.124   6.209  10.402 -0.3795 -0.4630  0.2724
 3554W        W 7618   2.538   3.312   9.018 -0.0448  0.1557 -0.0991
 3555W        W 7619   7.142   2.091   9.724 -0.0111 -0.0685  0.0175
 3556W        W 7620   1.281   8.277   7.768  0.0696  0.3151  0.3376
 3557W        W 7621   3.733   3.774   0.546 -0.2071 -0.1779 -0.3174
 3558W        W 7622   3.821   1.859   3.363 -0.2864  0.2280  0.0530
 3559W        W 7623   6.123   7.148   0.913 -0.1165  0.1767 -0.2675
 3560W        W 7624   1.196   2.715   0.254  0.3306  0.0208  0.0226
 3561W        W 7625   3.873   2.381   0.824 -0.2755  0.0734  0.0628
 3562W        W 7626   3.409   5.427   7.994 -0.0481  0.1056 -0.0901
 3563W        W 7627   7.204   3.459   8.002 -0.2615  0.4976 -0.1599
 3564W        W 7628   3.251   2.259  10.979  0.0198  0.2244 -0.1004
 3565W        W 7629   5.971   4.028   9.759  0.4142 -0.1546 -0.0165
 3566W        W 7630   7.351   1.878   1.732 -0.2027  0.0462 -0.2845
 3567W        W 7631   8.599   1.173   1.661 -0.1810  0.0766  0.0632
 3568W        W 7632   0.038   7.341   1.879  0.1703 -0.3336  0.1325
 3569W        W 7633   4.550   7.232   7.823  0.0566 -0.2875 -0.3908
 3570W        W 7634   6.564  10.103  10.520 -0.0345 -0.0706 -0.1517
 3571W        W 7635   2.079   4.282   9.560  0.1626 -0.1715 -0.1921
 3572W        W 7636   4.325   2.096   3.421 -0.2230  0.0420  0.2051
 3573W        W 7637   2.089   6.365   2.697  0.2171 -0.0801  0.0332
 3574W        W 7638   4.198   7.797  10.824  0.2200  0.3308  0.0277
 3575W        W 7639   2.150  10.407   2.661 -0.0873 -0.2915  0.0389
 3576W        W 7640   4.797   3.715   0.141  0.1431  0.4909  0.2151
 3577W        W 7641   1.775   5.914   1.772 -0.1000  0.2474 -0.1793
 3578W        W 7642   9.539   3.826  10.973 -0.1204 -0.0955  0.0546
 3579W        W 7643   2.940   8.647  10.933  0.1850  0.1252 -0.1004
 3580W        W 7644   6.201   5.710   2.136 -0.1044 -0.0660 -0.2698
 3581W        W 7645  10.477   7.282   3.534 -0.2390 -0.0077  0.1716
 3582W        W 7646   7.241   2.890   2.179 -0.1184  0.1719  0.2296
 3583W        W 7647   7.875   6.551  11.299  0.0575 -0.3023 -0.0139
 3584W        W 7648  10.634   9.023   1.233  0.0450 -0.1089  0.0364
 3585W        W 7649   0.622   4.305   2.673 -0.0559 -0.1844 -0.0491
 3586W        W 7650   4.451   4.633   0.185  0.1064  0.4217 -0.1133
 3587W        W 7651   6.775   9.297  10.651 -0.2672  0.3017  0.0484
 3588W        W 7652   6.323   4.749   2.293 -0.0958 -0.3635  0.1096
 3589W        W 7653   7.106   1.182   3.671  0.0385 -0.2579 -0.1649
 3590W        W 7654   0.510   2.726   9.733 -0.2642  0.0352 -0.1719
 3591W        W 7655   9.224   2.311   7.215 -0.0082  0.1600  0.2568
 3592W        W 7656   7.715   6.352   1.445  0.0741 -0.1812  0.1788
 3593W        W 7657   9.223   3.199   9.149  0.1660 -0.2708 -0.0983
 3594W        W 7658   3.901   2.065   2.442  0.1963 -0.1624  0.2301
 3595W        W 7659   7.855   8.112   8.420 -0.1596 -0.0940  0.2607
 3596W        W 7660   3.353   9.769   1.903  0.0131  0.1206  0.2012
 3597W        W 7661   5.500   2.426   8.628 -0.1046  0.0404 -0.2702
 3598W        W 7662   3.385   4.275   1.832 -0.3487 -0.2489  0.0253
 3599W        W 7663   5.751   7.355   8.239 -0.0978 -0.1934 -0.0975
 3600W        W 7664  10.560   8.516   0.126 -0.0461  0.1047  0.1791
 3601W        W 7665   3.809   0.210   2.346  0.1641  0.2583 -0.1202
 3602W        W 7666   0.774   6.980   2.688 -0.0522  0.3808 -0.0097
 3603W        W 7667   6.159   0.432   9.640 -0.1468  0.2523 -0.0406
 3604W        W 7668   8.760   3.271   8.050 -0.1097 -0.1816  0.2356
 3605W        W 7669   2.596   3.081   1.353 -0.0969  0.2368 -0.0424
 3606W        W 7670   2.283   7.271  10.443 -0.4105  0.1946 -0.0865
 3607W        W 7671   7.881   1.687   3.250 -0.0573  0.1749 -0.1407
 3608W        W 7672   2.994   7.797   9.966 -0.0195 -0.1060  0.0350
 3609W        W 7673   8.630   6.111   0.489 -0.0722  0.0823  0.1588
 3610W        W 7674   3.888   6.603   3.670 -0.0121  0.0544 -0.0123
 3611W        W 7675   5.652   3.709   9.440 -0.0463 -0.2361  0.2150
 3612W        W 7676   0.581   7.333  11.058 -0.1115  0.1352 -0.0962
 3613W        W 7677  10.523   6.670  11.202  0.0655  0.1029  0.0165
 3614W        W 7678   4.163   7.666   9.634 -0.3529 -0.2135 -0.0863
 3615W        W 7679   4.660   8.348   0.587 -0.1304  0.0161  0.4344
 3616W        W 7680   2.568   6.694   9.785 -0.0336  0.3633 -0.0389
 3617W        W 7681   9.871   6.474   7.995  0.0765 -0.1253 -0.2559
 3618W        W 7682   9.618   3.736  10.461 -0.1140 -0.1290 -0.1029
 3619W        W 7683   1.656   4.666   2.601  0.1692  0.2804  0.0535
 3620W        W 7684   1.715   5.798  11.238  0.0177  0.0549 -0.1366
 3621W        W 7685   3.029   5.730   0.016  0.0758  0.0113  0.1626
 3622W        W 7686   4.796   7.699   9.431 -0.0644 -0.1942 -0.1922
 3623W        W 7687   3.088   8.389   3.518 -0.0080 -0.1806  0.1018
 3624W        W 7688   0.337   7.280   4.161  0.0803 -0.0474  0.0474
 3625W        W 7689   8.341   8.229   8.100 -0.0807  0.1019  0.0946
 3626W        W 7690   0.159   9.929   9.149  0.1255 -0.0700  0.1844
 3627W        W 7691   1.325   7.752   9.653  0.1111 -0.0184  0.2137
 3628W        W 7692   8.543   1.060   0.790  0.1311 -0.0602 -0.1650
 3629W        W 7693   7.320   5.568  10.763  0.1329  0.0137 -0.0318
 3630W        W 7694   2.827   1.884   8.469 -0.2868 -0.0872  0.3005
 3631W        W 7695   7.099   9.395   9.225 -0.1275  0.0195  0.4917
 3632W        W 7696   0.118   2.520   2.990  0.2430 -0.0202  0.0611
 3633W        W 7697   0.358   7.760  11.062  0.2159 -0.1445  0.2473
 3634W        W 7698   2.981   6.336   3.223 -0.0643  0.3530 -0.0937
 3635W        W 7699   5.803   3.670   0.027  0.1819 -0.1036  0.2731
 3636W        W 7700   5.720   6.463   1.284  0.1723  0.1245 -0.1717
 3637W        W 7701   7.398   4.182   9.455 -0.0507 -0.1577  0.0835
 3638W        W 7702   2.328   9.381   8.939  0.1549 -0.2678 -0.0701
 3639W        W 7703   4.153   3.358   2.675  0.0793  0.1889  0.2075
 3640W        W 7704   8.129   5.229   1.266 -0.1803 -0.1085  0.0211
 3641W        W 7705   6.326   7.417   8.336 -0.0389 -0.0614 -0.0245
 3642W        W 7706   2.540   6.551   7.841 -0.1703  0.0685 -0.2205
 3643W        W 7707   1.856   8.555  10.774  0.0851 -0.2460 -0.3342
 3644W        W 7708   6.300   0.130   0.643 -0.1766 -0.0596  0.1063
 3645W        W 7709   5.507   7.440   1.726  0.1638  0.0220 -0.3122
 3646W        W 7710   0.637   3.619   8.482 -0.2066  0.1686  0.0830
 3647W        W 7711   1.263  10.235  10.945  0.1361 -0.1016  0.0547
 3648W        W 7712   2.076   8.928  10.507 -0.1331  0.3053  0.2966
 3649W        W 7713   2.696   7.057   1.426 -0.0237 -0.1016 -0.0505
 3650W        W 7714   4.729   2.404   7.777 -0.2059  0.1888  0.3888
 3651W        W 7715   0.128   5.356   3.660  0.3959 -0.1130 -0.1553
 3652W        W 7716   9.128   6.168   1.542 -0.3327 -0.1555 -0.0242
 3653W        W 7717   2.167  10.001   3.467  0.0571 -0.2138  0.1207
 3654W        W 7718   3.703   1.572  11.147  0.1788 -0.1399 -0.2485
 3655W        W 7719  10.127   4.789   0.122 -0.0854 -0.3197  0.0753
 3656W        W 7720   8.775   4.963   8.815 -0.2937  0.1678 -0.0136
 3657W        W 7721   6.088   4.520   1.318 -0.0671 -0.0188 -0.1322
 3658W        W 7722   4.090   0.695   2.815 -0.1029  0.1977  0.1650
 3659W        W 7723   0.237   8.559   8.756  0.2286 -0.0659  0.1447
 3660W        W 7724   3.370   4.030   9.859  0.3823  0.1318 -0.2245
 3661W        W 7725   9.926   3.579   3.018 -0.2232  0.0259 -0.1732
 3662W        W 7726   6.176   9.825   1.270 -0.0155 -0.0179  0.1315
 3663W        W 7727   6.773   3.831   9.352 -0.3927  0.1215 -0.1486
 3664W        W 7728   3.612   4.789   0.717 -0.2364  0.0576 -0.0790
 3665W        W 7729   8.531   8.194  10.274  0.2780 -0.0571 -0.0116
 3666W        W 7730   9.617   5.921   7.184 -0.1103  0.0690  0.0755
 3667W        W 7731   3.034   8.543   1.312 -0.1226  0.0969 -0.1020
 3668W        W 7732   6.419   8.360   3.074  0.0012  0.3670  0.2381
 3669W        W 7733   2.099   1.871   2.872 -0.0610  0.2333  0.1424
 3670W        W 7734   6.834   6.272   8.870  0.2317  0.0463  0.0624
 3671W        W 7735   3.994   7.039   3.328  0.1631  0.3680  0.1040
 3672W        W 7736   8.688   9.784   3.569 -0.1352  0.0504 -0.4066
 3673W        W 7737  10.301   3.061   3.911 -0.1040  0.0955  0.5217
 3674W        W 7738   1.003   2.482   3.209 -0.1713 -0.0617 -0.0549
 3675W        W 7739   6.071  10.544   0.022 -0.2061 -0.0692  0.0813
 3676W        W 7740   2.240   5.243  11.494 -0.2146 -0.4134 -0.1957
 3677W        W 7741   8.212   9.510   2.529  0.0251 -0.1301 -0.2070
 3678W        W 7742   7.157   6.935   2.457  0.0546  0.1048 -0.1718
 3679W        W 7743   2.357   0.213  11.535 -0.0368 -0.2153 -0.0708
 3680W        W 7744   8.390   6.615   9.613 -0.3240 -0.4669  0.1107
 3681W        W 7745   7.116   0.868   9.931  0.0493 -0.2836  0.2307
 3682W        W 7746   8.782  10.057  11.574 -0.3068  0.3032 -0.1745
 3683W        W 7747   9.606   9.766  10.960 -0.0771  0.0738  0.1032
 3684W        W 7748   5.849   6.185   1.992 -0.1112 -0.0299  0.1310
 3685W        W 7749   7.588   5.100  10.490 -0.0642 -0.0370  0.0185
 3686W        W 7750   2.557   3.313   8.167 -0.0487  0.3211  0.1659
 3687W        W 7751   0.334   9.022   8.907  0.1069 -0.0825  0.0570
 3688W        W 7752   3.171  10.169   8.864 -0.0885  0.0592  0.0036
 3689W        W 7753   0.553   9.875   9.474 -0.3852 -0.0284 -0.2281
 3690W        W 7754   5.007   1.204   9.695 -0.1712 -0.2913 -0.1297
 3691W        W 7755   2.747   5.315  11.468  0.1628 -0.0412  0.2156
 3692W        W 7756   7.646   4.007   8.141 -0.3051  0.1229 -0.2503
 3693W        W 7757   8.618   3.478  10.450  0.2488  0.2147 -0.0066
 3694W        W 7758   8.420   9.657  11.249 -0.2835 -0.0540  0.0545
 3695W        W 7759   6.490   1.289   2.186 -0.1597 -0.0571  0.1100
 3696W        W 7760   9.132  10.160   1.100  0.0793  0.0967 -0.1428
 3697W        W 7761   4.658   6.384   2.841  0.2228 -0.1766  0.1507
 3698W        W 7762   7.413   1.210   7.928 -0.0303  0.0914  0.1448
 3699W        W 7763   0.904   5.673   0.974  0.0848 -0.1662  0.2941
 3700W        W 7764   8.166   7.508   9.254  0.2105  0.2459  0.2612
 3701W        W 7765   7.291   2.173   0.752 -0.2690  0.3060  0.1843
 3702W        W 7766  10.052   5.584   8.126  0.1225  0.0578 -0.1443
 3703W        W 7767   9.228   4.293   2.144  0.3592  0.1136  0.2328
 3704W        W 7768   6.200   2.764   9.300  0.1723 -0.2297  0.2489
 3705W        W 7769   8.156   2.805   9.221 -0.0541  0.0833  0.3436
 3706W        W 7770   6.566   7.248   1.997 -0.1236 -0.4357  0.3435
 3707W        W 7771   9.567  10.226   9.423 -0.0144  0.1572 -0.1337
 3708W        W 7772   8.590   6.200  10.425 -0.2565  0.0501  0.3656
 3709W        W 7773   2.467   4.379   2.662  0.0840 -0.2292 -0.0285
 3710W        W 7774   5.896   1.151   8.087  0.3057  0.0494  0.0082
 3711W        W 7775   1.504   6.610  10.197 -0.3921  0.0240 -0.2248
 3712W        W 7776   2.456   4.942  10.045 -0.1076 -0.0610 -0.2346
 3713W        W 7777   4.379  10.140  10.415  0.0424  0.1639  0.1247
 3714W        W 7778   5.227   9.749   1.699  0.1011 -0.2140  0.1704
 3715W        W 7779   7.717   7.562   9.033  0.2452 -0.3152  0.2412
 3716W        W 7780   3.521   9.578  10.293  0.0359  0.0400 -0.4713
 3717W        W 7781   6.050   5.309   3.488 -0.1345 -0.1405  0.0919
 3718W        W 7782   1.929   8.642  11.520  0.0646 -0.0419 -0.1145
 3719W        W 7783   1.184   8.711   3.986 -0.1324 -0.0652  0.3002
 3720W        W 7784   1.803   2.557  11.257  0.3617  0.1309  0.1344
 3721W        W 7785   6.557   6.267   8.441 -0.3241 -0.0934 -0.5985
 3722W        W 7786   1.269   8.379   4.430  0.0027 -0.0311 -0.3707
 3723W        W 7787   7.071   5.271   2.768  0.2483 -0.1193 -0.0696
 3724W        W 7788   4.650   2.102   0.502 -0.2717 -0.1065 -0.1243
 3725W        W 7789   3.448  10.496  10.946  0.2134 -0.2194  0.0373
 3726W        W 7790   5.146   6.179   8.534 -0.2954 -0.0835  0.1744
 3727W        W 7791   8.470   3.002   8.405  0.1028 -0.1632  0.0643
 3728W        W 7792   5.570   6.440  10.065  0.0892 -0.1598  0.2154
 3729W        W 7793   3.227   9.662   1.237  0.1482  0.2163  0.1343
 3730W        W 7794   9.484   2.062  11.010  0.1305  0.2153  0.0472
 3731W        W 7795   8.509   7.286   9.708 -0.0493  0.1749  0.0250
 3732W        W 7796   3.661   3.266   0.434 -0.0376  0.0777 -0.2365
 3733W        W 7797   0.042   2.035   2.873 -0.1345 -0.3471 -0.1495
 3734W        W 7798   2.939   7.304   8.603  0.1113  0.1804 -0.1699
 3735W        W 7799   0.746   7.070   9.474 -0.3710  0.0067  0.1227
 3736W        W 7800   7.661   3.171   2.173  0.2641 -0.1039  0.3868
 3737W        W 7801   0.388   4.194   9.343 -0.1523 -0.0928  0.0484
 3738W        W 7802   8.318   5.380   2.567 -0.0771  0.1502 -0.3035
 3739W        W 7803   0.190   7.502   8.456  0.1178 -0.2045 -0.0269
 3740W        W 7804   8.074   8.237   9.918 -0.2686 -0.1357  0.0708
 3741W        W 7805   7.502   4.864   1.089  0.0089 -0.3235  0.1133
 3742W        W 7806   0.976   9.364   2.800 -0.1344  0.1607 -0.2037
 3743W        W 7807   9.146   2.322   1.322 -0.3338  0.4303 -0.5014
 3744W        W 7808   3.183   8.765   9.840  0.1390 -0.1091 -0.0239
 3745W        W 7809   4.638   4.359   9.553  0.2931  0.2296  0.0108
 3746W        W 7810   4.160   8.623   8.672 -0.0390 -0.1954  0.0201
 3747W        W 7811   0.142   8.287   9.581 -0.2211  0.1568  0.1720
 3748W        W 7812   3.913   6.624  10.928  0.2365  0.1664  0.2732
 3749W        W 7813   7.258   8.349   8.786  0.2336  0.1633 -0.1130
 3750W        W 7814   8.675   7.695  10.476 -0.1656 -0.1988 -0.1167
 3751W        W 7815   5.282   3.488   9.665  0.3718 -0.2706  0.1867
 3752W        W 7816   1.600   4.213  10.801  0.1480 -0.1188 -0.2748
 3753W        W 7817   2.207   3.860   2.082  0.0389 -0.2986  0.1045
 3754W        W 7818   1.357   6.214   0.381 -0.1713 -0.2680  0.1246
 3755W        W 7819   5.213   4.531   0.402 -0.3058  0.1098  0.5086
 3756W        W 7820   8.445   2.772   9.591 -0.0280 -0.1239 -0.0318
 3757W        W 7821   3.851   6.968   9.517  0.0252 -0.2032  0.3550
 3758W        W 7822   6.151   7.632   9.619 -0.1503 -0.1497  0.1790
 3759W        W 7823   8.054   5.238  11.510  0.3090  0.1856 -0.1196
 3760W        W 7824   2.714   4.257   8.770 -0.0234 -0.1196 -0.0799
 3761W        W 7825   9.640   1.062   8.450 -0.2110 -0.0494 -0.2101
 3762W        W 7826   3.702  10.375   9.425 -0.2994  0.1674  0.0466
 3763W        W 7827   6.446   3.537  10.522 -0.1564 -0.2160 -0.1988
 3764W        W 7828   3.029   2.081   8.052 -0.0303 -0.0810  0.0137
 3765W        W 7829  10.149   9.786  10.750 -0.3617 -0.2243  0.0784
 3766W        W 7830   6.322   5.754   7.846  0.0924  0.0354  0.1821
 3767W        W 7831   8.257   8.431   9.455 -0.0478  0.1235 -0.4097
 3768W        W 7832   2.703   1.371   2.269 -0.0028  0.2397 -0.0416
 3769W        W 7833   0.902   8.988   1.726 -0.1256  0.2129  0.0774
 3770W        W 7834   0.551   7.753   3.364  0.0265  0.0226 -0.2305
 3771W        W 7835   7.370   0.323   8.629  0.2414 -0.1172  0.1256
 3772W        W 7836   7.070   3.513   8.838  0.3113 -0.0331 -0.1404
 3773W        W 7837   4.483   0.257   1.745  0.1259 -0.1136 -0.0665
 3774W        W 7838   0.586  10.385  11.566 -0.2810 -0.0131 -0.1149
 3775W        W 7839   2.084   9.497   1.391  0.1988  0.0822  0.3324
 3776W        W 7840   8.410   9.355   8.507  0.1685  0.3796 -0.0849
 3777W        W 7841   1.563   5.428   0.949 -0.1663 -0.0830  0.1287
 3778W        W 7842   6.107   6.461   8.540 -0.0048 -0.3495 -0.0172
 3779W        W 7843   7.211   4.750   2.532  0.0007 -0.0852  0.0580
 3780W        W 7844   6.805   6.818   7.254 -0.1456 -0.1603  0.0138
 3781W        W 7845   7.231   4.268   7.442 -0.0840 -0.0348  0.0919
 3782W        W 7846  10.161   7.318   2.823  0.0373 -0.6245  0.1817
 3783W        W 7847   2.705  10.486  11.422 -0.0053  0.1938 -0.0304
 3784W        W 7848   7.142   0.474   7.916 -0.0548  0.1420 -0.0473
 3785W        W 7849   6.255   9.749   2.614 -0.0142 -0.1031 -0.1762
 3786W        W 7850   0.275   2.146   2.147  0.3869 -0.1007  0.2187
 3787W        W 7851   4.135   9.251   9.923 -0.2938  0.2449 -0.0778
 3788W        W 7852   1.362   5.798   8.243  0.0353 -0.0646  0.0123
 3789W        W 7853  10.285   6.689   2.137  0.0638 -0.0885  0.1412
 3790W        W 7854  10.456   9.583   9.301 -0.0592 -0.0138 -0.0152
 3791W        W 7855   5.016   4.014   9.548  0.0866 -0.1288  0.0436
 3792W        W 7856   4.344   0.364   0.641 -0.2046  0.0683  0.2231
 3793W        W 7857   1.026   2.756   8.655 -0.0963  0.1388 -0.0903
 3794W        W 7858   1.031   0.544   1.832 -0.1326 -0.0323  0.1538
 3795W        W 7859   7.834   4.336   8.501 -0.0737 -0.3039 -0.0559
 3796W        W 7860  10.360   3.618   1.722 -0.1720  0.1591 -0.1241
 3797W        W 7861   1.491   7.459  10.418  0.0724 -0.2059  0.0215
 3798W        W 7862   0.116   9.268   8.313 -0.0528 -0.2695 -0.2087
 3799W        W 7863  10.025   9.803   0.731  0.2077  0.0181  0.1692
 3800W        W 7864   3.380   1.030   0.114  0.0033 -0.0134 -0.1367
 3801W        W 7865   0.772   9.763   8.414 -0.1113 -0.1518 -0.0631
 3802W        W 7866   0.571  10.156   2.340 -0.1370  0.1898  0.1316
 3803W        W 7867  10.039   9.952   3.451  0.0493 -0.1509 -0.2361
 3804W        W 7868   3.565   5.765   1.003  0.3806  0.1057 -0.0042
 3805W        W 7869   4.566  10.138   9.949  0.1881  0.1561  0.1626
 3806W        W 7870   3.524   8.171   2.680  0.0490  0.0820 -0.1224
 3807W        W 7871   6.725   3.586   3.881 -0.3990  0.1146  0.0347
 3808W        W 7872   0.989   3.066   1.937 -0.3832  0.3309 -0.1830
 3809W        W 7873   5.902   0.609   2.021  0.1407 -0.0058  0.1688
 3810W        W 7874   0.777   2.935   1.257 -0.2887 -0.0795 -0.0125
 3811W        W 7875   1.293   7.073  10.197 -0.0379 -0.2342 -0.1746
 3812W        W 7876   1.992   1.128   1.340  0.2996  0.6339 -0.2480
 3813W        W 7877   8.955   7.308   6.742  0.0422  0.2597  0.0704
 3814W        W 7878   1.851   7.024  10.301 -0.0941 -0.0094  0.1952
 3815W        W 7879   4.685   7.746  11.188  0.0280 -0.0532 -0.0266
 3816W        W 7880   7.757   4.255  11.154  0.1549 -0.3122  0.1216
 3817W        W 7881   6.834   1.049   9.056 -0.1517 -0.4050 -0.3450
 3818W        W 7882   3.163   8.164  10.846  0.3615 -0.0121  0.2098
 3819W        W 7883   5.907   2.026   3.364  0.1193 -0.0805  0.0136
 3820W        W 7884   0.420   1.150   8.843  0.0756 -0.0619  0.1664
 3821W        W 7885   4.414   7.925   9.093  0.4020 -0.2279  0.3362
 3822W        W 7886  10.270   0.235   0.618 -0.0947  0.0839 -0.1522
 3823W        W 7887  10.468   9.498   1.426 -0.1333  0.1842 -0.0162
 3824W        W 7888   0.243   2.534   1.744  0.2162 -0.2095 -0.2506
 3825W        W 7889   3.858   4.025  10.443 -0.0517  0.6562  0.2122
 3826W        W 7890   9.646   9.473   3.982  0.2291  0.0616 -0.0461
 3827W        W 7891   4.390   9.038  10.378  0.4918 -0.1111  0.2081
 3828W        W 7892   6.972   6.053   9.979  0.0671  0.4376  0.0995
 3829W        W 7893   5.641   6.911   0.021 -0.0482 -0.0365 -0.5171
 3830W        W 7894   2.399   7.914   0.421  0.0689 -0.1298 -0.1489
 3831W        W 7895   0.106   4.438  11.117  0.0349 -0.0501 -0.2100
 3832W        W 7896   6.720  10.376   7.486 -0.0528 -0.2529 -0.2464
 3833W        W 7897   3.384   3.046   2.102 -0.1326 -0.0756  0.0467
 3834W        W 7898   8.316   7.273   7.401  0.0336 -0.0735  0.1008
 3835W        W 7899   5.020   5.211  10.886 -0.0557  0.1405  0.1546
 3836W        W 7900   7.469   8.013   0.631 -0.1905 -0.0243  0.2236
 3837W        W 7901   1.084   8.112  10.987  0.3580  0.0092  0.4389
 3838W        W 7902   0.399   7.081   8.617  0.1433 -0.2494 -0.6112
 3839W        W 7903   4.196  10.636   1.055 -0.0062  0.0456  0.0631
 3840W        W 7904   2.943   5.600   0.913 -0.0213 -0.0904  0.0566
 3841W        W 7905   8.553   0.527   0.038 -0.2724  0.2037 -0.0805
 3842W        W 7906   5.282   1.593   8.434  0.1784  0.0552 -0.1629
 3843W        W 7907   9.070   8.154   9.581 -0.0846  0.2480 -0.3010
 3844W        W 7908  10.280   9.463   1.965 -0.1842 -0.1254 -0.1899
 3845W        W 7909   8.582   2.052  10.000  0.3245  0.1556 -0.1607
 3846W        W 7910   1.954   4.509  11.031 -0.0452 -0.0222  0.0426
 3847W        W 7911  10.005   0.889   2.254  0.0696 -0.0223  0.2376
 3848W        W 7912   3.059   2.261   1.448 -0.1111  0.0705 -0.2825
 3849W        W 7913   1.491   7.993   2.025 -0.2371 -0.1139 -0.1819
 3850W        W 7914   2.934   4.922   1.460  0.0659 -0.2492 -0.1421
 3851W        W 7915   9.617   0.995   9.027 -0.1477  0.3726  0.0559
 3852W        W 7916   5.014   2.416   0.662 -0.0760  0.2199  0.2786
 3853W        W 7917   8.240   9.773   7.243  0.1737 -0.0725  0.1237
 3854W        W 7918   2.909   2.545   8.263 -0.2235  0.2378 -0.1384
 3855W        W 7919   8.353   2.815  10.694  0.2465  0.4040  0.0094
 3856W        W 7920   3.999   2.489   8.813 -0.0044  0.1316  0.6197
 3857W        W 7921   3.394   9.051   0.457  0.2912  0.6950 -0.3554
 3858W        W 7922   5.532   9.037   2.592 -0.0890  0.5656  0.4157
 3859W        W 7923   0.248   0.015  10.625 -0.1622 -0.0556  0.1017
 3860W        W 7924   3.001   0.458  11.534 -0.0947 -0.2239  0.2717
 3861W        W 7925   3.786  10.298   0.518  0.0376  0.0187 -0.1455
 3862W        W 7926   8.825   8.847   0.591  0.2590 -0.0737 -0.0569
 3863W        W 7927   1.496  10.375   0.331 -0.0518 -0.0999  0.0103
 3864W        W 7928   5.445   5.190   2.028 -0.1536 -0.2560  0.1178
 3865W        W 7929   7.711   5.959   0.454 -0.1568  0.2402  0.1482
 3866W        W 7930   9.907   9.865   1.268  0.1103 -0.1756 -0.0525
 3867W        W 7931   2.159   9.248   0.190 -0.0804 -0.1523 -0.1087
 3868W        W 7932   4.961   5.533   2.077  0.0252 -0.1459 -0.3266
 3869W        W 7933   7.176   0.723  11.272 -0.2187  0.2585  0.2632
 3870W        W 7934   6.039   3.195  11.551 -0.2917 -0.2517 -0.1078
 3871W        W 7935   8.205   4.669   9.029  0.0193  0.0856  0.1321
 3872W        W 7936   8.244   3.577   8.850 -0.0269  0.2021 -0.1149
 3873W        W 7937   4.696   9.292   2.374 -0.0805 -0.2171 -0.0406
 3874W        W 7938  10.215   7.425   1.099  0.1437  0.1168 -0.1141
 3875W        W 7939   0.089   6.919   7.261 -0.2162 -0.0917 -0.0193
 3876W        W 7940   1.037   2.981  10.263 -0.5228  0.2213 -0.0237
 3877W        W 7941   8.526   7.108   1.629 -0.0260 -0.0471  0.1768
 3878W        W 7942   7.837   8.086   2.613 -0.0052  0.1945  0.0837
 3879W        W 7943   9.789   7.723   2.651  0.1959 -0.0117  0.1166
 3880W        W 7944   8.027   3.400   1.941  0.2477  0.0279 -0.2677
 3881W        W 7945   1.360   1.250   0.096  0.3212  0.0277 -0.0003
 3882W        W 7946   1.511   7.043  10.680 -0.0175 -0.3221  0.2555
 3883W        W 7947   8.220   6.324   1.733  0.3642 -0.1032  0.2337
 3884W        W 7948  10.151   9.034  10.986  0.2191 -0.0579 -0.1488
 3885W        W 7949   8.654  10.539   9.587 -0.0178 -0.0091  0.0192
 3886W        W 7950   9.707   1.907  11.418 -0.1288 -0.2230  0.0178
 3887W        W 7951   0.277   2.765   1.335  0.1216  0.0443  0.1160
 3888W        W 7952   3.996   7.458  10.398  0.1546 -0.3056  0.0299
 3889W        W 7953   8.928   7.764   9.329  0.2567  0.1341 -0.1846
 3890W        W 7954   3.852   4.561  11.184 -0.0710 -0.0374  0.0034
 3891W        W 7955   7.576   5.660   8.989  0.2341 -0.0467  0.3339
 3892W        W 7956   6.418   0.145   8.730 -0.0566  0.1912 -0.2694
 3893W        W 7957   6.925   4.424   2.224  0.1719 -0.4086  0.0180
 3894W        W 7958   4.936   3.317  10.544  0.1264  0.1940  0.2108
 3895W        W 7959   6.063   6.941   8.321  0.1347  0.2957 -0.1289
 3896W        W 7960   8.804  10.530   3.328  0.0501 -0.1598 -0.3894
 3897W        W 7961   5.667   6.946   7.032 -0.2228  0.1403  0.1853
 3898W        W 7962   3.423   7.168   0.943  0.4182 -0.0340  0.1625
 3899W        W 7963  10.136   6.294   1.699  0.2211 -0.0166  0.1291
 3900W        W 7964   2.062   7.230   2.958 -0.0812 -0.0177  0.1275
 3901W        W 7965   1.110   5.659   2.712  0.4418 -0.1399 -0.1854
 3902W        W 7966   4.666   0.131   1.077 -0.1304  0.1859  0.1099
 3903W        W 7967   6.243   9.471  10.312 -0.1015 -0.0796  0.1604
 3904W        W 7968   4.806   9.466   2.828  0.1926  0.0743  0.0518
 3905W        W 7969   0.826   4.129   9.126 -0.0835  0.0480 -0.1877
 3906W        W 7970   8.357   9.405   9.886  0.0914 -0.0308 -0.1193
 3907W        W 7971   3.605   5.306   0.867 -0.2883  0.1068  0.1040
 3908W        W 7972   7.356   4.698   8.615 -0.1617 -0.0273  0.4803
 3909W        W 7973  10.039   6.640   2.903  0.0692 -0.4860  0.0674
 3910W        W 7974   4.577   4.431  10.823 -0.1702 -0.0879  0.0353
 3911W        W 7975   2.305   9.583   2.092  0.2776  0.0277 -0.2458
 3912W        W 7976   0.446   9.145   4.199 -0.0764  0.0910 -0.0674
 3913W        W 7977   7.363   0.317   2.137  0.3271  0.1229  0.0745
 3914W        W 7978   7.348   9.807   2.058 -0.1010  0.1486 -0.0925
 3915W        W 7979   5.865  10.089   8.743  0.0582 -0.0686 -0.0441
 3916W        W 7980   4.550   5.344   2.417  0.2635  0.0652  0.0624
 3917W        W 7981   5.932   7.394   1.357  0.2117  0.2472 -0.0548
 3918W        W 7982   3.313   3.628   0.363  0.0119  0.3463 -0.0375
 3919W        W 7983   2.294   6.317  10.076  0.2078 -0.0518  0.1739
 3920W        W 7984   5.442   2.668  10.051 -0.1589  0.0658  0.3086
 3921W        W 7985   0.478   4.769   0.471 -0.0995  0.2994 -0.1181
 3922W        W 7986   1.148   4.762   9.978 -0.0980 -0.0727  0.0192
 3923W        W 7987   7.090   5.411   8.562  0.0240 -0.0621  0.0027
 3924W        W 7988   5.235  10.480   8.046 -0.1092  0.2274 -0.1433
 3925W        W 7989   8.547   0.712  10.998  0.0512 -0.3505 -0.0332
 3926W        W 7990   4.655   6.036   2.090  0.3662 -0.1775  0.0055
 3927W        W 7991  10.258   6.708   8.528  0.1476 -0.1688 -0.5940
 3928W        W 7992   6.619   9.360   9.117 -0.0862 -0.0830  0.3194
 3929W        W 7993   0.751   8.024   8.367 -0.0272  0.2736  0.3228
 3930W        W 7994   7.254   6.928   9.852  0.1533 -0.0588  0.0005
 3931W        W 7995   5.766   1.258   0.239 -0.0880  0.2411  0.2334
 3932W        W 7996   1.259   0.664   2.955 -0.2078  0.0080 -0.1201
 3933W        W 7997   3.116   1.414   2.633 -0.0067  0.2257  0.0466
 3934W        W 7998   8.267   6.055   9.563  0.0808 -0.0747 -0.0126
 3935W        W 7999  10.507  10.205   8.489  0.0741 -0.2955 -0.1621
 3936W        W 8000  10.609   0.501  10.637  0.1892  0.0415  0.0653
 3937W        W 8001   6.765   8.609   2.559  0.0557 -0.0512 -0.2635
 3938W        W 8002  10.401   9.149   0.765  0.0659 -0.1108  0.0197
 3939W        W 8003   9.106   6.646  10.646  0.4121  0.1148  0.0939
 3940W        W 8004   0.407   8.732  11.563 -0.1309 -0.0820  0.2077
 3941W        W 8005   0.030   6.616   1.352  0.1977 -0.0629  0.2029
 3942W        W 8006   9.459   0.922   1.185 -0.0401  0.0493 -0.0100
 3943W        W 8007   8.202  10.545  10.887 -0.1084 -0.2856  0.1236
 3944W        W 8008   5.976   6.796  10.454 -0.1965 -0.0116 -0.0730
 3945W        W 8009   1.895   2.759   2.391  0.0552 -0.1011 -0.2371
 3946W        W 8010   5.163  10.341   2.855 -0.1421 -0.1081  0.0710
 3947W        W 8011   4.237   2.609   2.129  0.0783  0.0524 -0.1779
 3948W        W 8012   6.259   2.618   2.002  0.2378 -0.1221 -0.3275
 3949W        W 8013   0.484  10.088  10.813 -0.2816 -0.0503 -0.1281
 3950W        W 8014   6.024   8.866   2.670  0.0722  0.2165 -0.1939
 3951W        W 8015   0.849   0.910   2.488 -0.2008  0.0517 -0.1141
 3952W        W 8016   0.813   6.991  10.669 -0.0614 -0.2697 -0.0292
 3953W        W 8017   7.116   6.003   2.261 -0.0166  0.2727  0.2188
 3954W        W 8018   1.874   2.262   0.585  0.1163  0.0030  0.1874
 3955W        W 8019   6.646   4.609   8.966  0.2078  0.0264 -0.1401
 3956W        W 8020   9.828   6.003   8.080  0.1361  0.3104 -0.1488
 3957W        W 8021  10.243   1.815   3.185 -0.0523 -0.2470  0.1465
 3958W        W 8022   1.185   0.110   0.222 -0.1303 -0.1851 -0.0898
 3959W        W 8023   7.064   2.187   3.647 -0.0831  0.1985 -0.1135
 3960W        W 8024  10.273   1.149   3.782  0.0187  0.0415  0.0900
 3961W        W 8025   8.168  10.529   8.285  0.2943 -0.2489  0.0233
 3962W        W 8026   1.524   5.454   2.440  0.0944 -0.1104  0.0503
 3963W        W 8027   0.511   1.334  10.845 -0.1338 -0.0227  0.0677
 3964W        W 8028   0.496   3.207   9.355 -0.2144  0.0577  0.2720
 3965W        W 8029   7.512   4.977   8.192  0.2266  0.0679 -0.1399
 3966W        W 8030   9.652   2.112   7.984  0.1406 -0.0407 -0.3250
 3967W        W 8031   4.067   5.295   2.218  0.0655  0.0887  0.0778
 3968W        W 8032   0.471   5.320   9.955 -0.0697  0.1066  0.2693
 3969W        W 8033   4.084   5.293  10.284  0.0771 -0.0637  0.0040
 3970W        W 8034   2.930   7.619  11.334 -0.0290  0.1646 -0.0910
 3971W        W 8035   5.515   0.990   1.806 -0.0960 -0.1116 -0.0938
 3972W        W 8036   9.118   0.977   2.500 -0.0333  0.2190  0.1233
 3973W        W 8037   3.737   6.408   1.615 -0.2784  0.2101 -0.1101
 3974W        W 8038   5.267   8.897   0.163 -0.2240 -0.2260  0.1050
 3975W        W 8039   7.858   9.887  10.273  0.0805  0.2053 -0.2337
 3976W        W 8040   2.741   7.879   0.797  0.0486  0.0817  0.2416
 3977W        W 8041   1.993   0.903   9.373 -0.1489 -0.1305 -0.2938
 3978W        W 8042   7.548   5.363   3.561 -0.1336 -0.0487  0.1536
 3979W        W 8043   1.822   8.541  10.197  0.1563  0.0571  0.0683
 3980W        W 8044   3.605   0.499   3.507 -0.2362 -0.0534 -0.0827
 3981W        W 8045   0.416   8.728   1.656  0.0254  0.2747  0.0310
 3982W        W 8046   8.157   1.047  10.724  0.1956  0.0809  0.0054
 3983W        W 8047   6.627   3.807   1.450 -0.1649  0.0532  0.3247
 3984W        W 8048   0.508   1.893  11.281 -0.0467  0.0398  0.1152
 3985W        W 8049   7.406   6.132  10.512 -0.3721 -0.0791 -0.2120
 3986W        W 8050   9.971   7.899   8.446  0.0582  0.0605 -0.3391
 3987W        W 8051   7.952   2.969   8.370 -0.1663 -0.1667 -0.4126
 3988W        W 8052   6.527  10.620   2.498 -0.1181  0.0175  0.1032
 3989W        W 8053   0.020   4.464   3.249 -0.3132 -0.0081  0.0940
 3990W        W 8054   0.093   8.106   1.540 -0.1935 -0.3919 -0.2203
 3991W        W 8055   8.165   7.728   8.211  0.3364 -0.0483 -0.0910
 3992W        W 8056   7.125   9.769   8.360 -0.0569  0.0281 -0.0257
 3993W        W 8057   6.641   2.010   2.869 -0.2849 -0.0421  0.0267
 3994W        W 8058   1.085   1.790   0.637 -0.3109  0.1008  0.1773
 3995W        W 8059   2.248   5.410   9.633  0.1246 -0.1167  0.0192
 3996W        W 8060   0.272   7.876  10.550  0.1558  0.1784 -0.1170
 3997W        W 8061   0.267   1.571   1.958 -0.0665  0.0518  0.1151
 3998W        W 8062   4.694   0.610   1.332  0.0761 -0.1429  0.1204
 3999W        W 8063   6.859   5.638  11.554 -0.1043 -0.2717 -0.2360
 4000W        W 8064   1.360   7.756   8.709 -0.1582 -0.0579 -0.2262
 4001W        W 8065   4.807   6.844   0.624  0.0154  0.1133  0.0344
 4002W        W 8066   8.594   9.550   1.791 -0.0616  0.0072 -0.0825
 4003W        W 8067   5.925   8.837   0.057  0.2009 -0.3496 -0.1638
 4004W        W 8068   9.723   8.920   3.255 -0.2217 -0.2114  0.0217
 4005W        W 8069   1.912   7.430  10.754 -0.0198  0.3232 -0.1113
 4006W        W 8070   4.769   1.141   3.770 -0.0011 -0.0492 -0.0305
 4007W        W 8071   0.888   9.915   9.841  0.0625  0.0982  0.1059
 4008W        W 8072   5.529   1.981   9.673  0.3106  0.2165 -0.2654
 4009W        W 8073   1.075   4.267   0.805 -0.2799  0.1151 -0.2461
 4010W        W 8074   4.765   6.026   0.327  0.2985 -0.0647 -0.0288
 4011W        W 8075   8.884   0.082   8.572  0.0896  0.0362 -0.0223
 4012W        W 8076   7.530   4.479   8.163  0.3674 -0.0401 -0.0852
 4013W        W 8077   0.415   7.136   0.753 -0.1977  0.2177 -0.0131
 4014W        W 8078   8.986   2.136   9.102  0.1251 -0.1016  0.3978
 4015W        W 8079   8.651  10.321   8.431 -0.0768 -0.1447  0.1854
 4016W        W 8080  10.057   4.715   3.193  0.1815  0.1870  0.0425
 4017W        W 8081   3.695   6.991   8.930 -0.0060 -0.1189  0.1500
 4018W        W 8082   2.299   3.536   9.889  0.2853  0.2256  0.0900
 4019W        W 8083   6.863   2.678   1.571  0.0955 -0.1110  0.2176
 4020W        W 8084   4.353   6.084   9.843 -0.1836 -0.0643 -0.0829
 4021W        W 8085   7.007   5.799   1.416  0.0466  0.1138  0.0919
 4022W        W 8086   5.563   9.373   2.053 -0.2560  0.0049  0.2132
 4023W        W 8087   2.100   9.987   0.561  0.1126 -0.1787 -0.2098
 4024W        W 8088   2.148   1.896  11.256  0.0899 -0.1263 -0.2153
 4025W        W 8089   8.614   3.151   2.576 -0.1253  0.3934  0.1581
 4026W        W 8090   4.763   1.979  11.548 -0.0995 -0.0898 -0.0376
 4027W        W 8091   6.325   1.107   9.149 -0.0776 -0.1953 -0.1750
 4028W        W 8092   6.103   1.528   8.886 -0.1055  0.1680 -0.4465
 4029W        W 8093   0.059   7.278   2.887  0.1748 -0.0509  0.0447
 4030W        W 8094   3.934   0.270  10.290 -0.0790  0.3105  0.0925
 4031W        W 8095   9.841   6.709   0.687  0.0001 -0.2155 -0.1777
 4032W        W 8096   9.978   8.082   2.922 -0.0819 -0.0161 -0.3172
 4033W        W 8097   8.425   2.139   2.526  0.2310 -0.0978 -0.1479
 4034W        W 8098   0.634   4.767   9.990 -0.0460 -0.1631 -0.0668
 4035W        W 8099   4.811   8.056   2.846 -0.2467  0.2777 -0.0264
 4036W        W 8100   0.506   4.252   1.374 -0.2199 -0.3132 -0.2610
 4037W        W 8101   7.976   0.398   0.511 -0.0625 -0.0197 -0.2196
 4038W        W 8102   1.488   1.347   1.483  0.0208 -0.2363 -0.0296
 4039W        W 8103   9.954   1.641   9.791  0.0844  0.0407  0.0337
 4040W        W 8104   3.800   4.536   2.099  0.1946 -0.2492  0.4497
 4041W        W 8105   1.747   7.661   2.930  0.1365 -0.1242 -0.0064
 4042W        W 8106   4.487   6.414  10.741  0.5642 -0.0298  0.0236
 4043W        W 8107   6.193   8.119   1.731  0.1007  0.0578 -0.0905
 4044W        W 8108  10.190   8.866   7.202 -0.0835  0.0173 -0.0999
 4045W        W 8109   9.494   9.812   1.656 -0.3012  0.1206  0.2814
 4046W        W 8110   9.976   3.545   1.201 -0.1843 -0.1388 -0.1697
 4047W        W 8111   9.902   2.365   3.145 -0.1550  0.2189  0.1592
 4048W        W 8112   9.025   5.192   8.300 -0.0899 -0.0126 -0.1730
 4049W        W 8113   2.616   5.525   3.575 -0.4967  0.0478  0.0414
 4050W        W 8114   9.016   4.968   1.317 -0.3850 -0.2112 -0.1440
 4051W        W 8115   7.818   1.318   0.677  0.0760  0.0821  0.1118
 4052W        W 8116   2.595   2.399   1.687  0.0712  0.1115  0.0042
 4053W        W 8117   7.366   5.938  11.148 -0.0703 -0.1147 -0.1398
 4054W        W 8118   3.510   9.459   9.823  0.2206  0.3384  0.1450
 4055W        W 8119   7.891   9.762   0.922  0.1965 -0.1321 -0.1940
 4056W        W 8120   6.794   6.677  10.893  0.1801  0.2390 -0.1715
 4057W        W 8121   1.316   8.541   3.127 -0.1075 -0.0277  0.3352
 4058W        W 8122   2.861   2.694   0.777  0.1015 -0.1609 -0.0578
 4059W        W 8123   4.123   8.348  10.303  0.1605  0.1964  0.1208
 4060W        W 8124  10.442   7.782   7.178  0.1252 -0.2648  0.1438
 4061W        W 8125   9.161   8.564   8.485 -0.0031  0.2009 -0.0222
 4062W        W 8126   8.797   9.903   1.463 -0.0444 -0.2950  0.0771
 4063W        W 8127   6.469   2.883   7.821  0.1148  0.1251 -0.1629
 4064W        W 8128   1.541   0.226   8.836 -0.0822  0.0202  0.2755
 4065W        W 8129   1.754   9.808   2.499 -0.0260  0.2351  0.1349
 4066W        W 8130   5.524   7.990  10.726 -0.0519 -0.0341  0.1827
 4067W        W 8131   3.836   1.145   2.821 -0.3784 -0.1693 -0.0547
 4068W        W 8132   2.001   8.970   1.275 -0.1825 -0.2982  0.1125
 4069W        W 8133   7.256   8.225   8.304 -0.2146 -0.0893  0.4243
 4070W        W 8134   4.980   5.309  11.490 -0.1890  0.1460 -0.1239
 4071W        W 8135   1.104   7.831   4.279 -0.6191 -0.0392  0.1286
 4072W        W 8136   6.118   1.637   1.987  0.3014  0.1939 -0.0605
 4073W        W 8137   1.741   2.565   0.181 -0.0761 -0.0192  0.1196
 4074W        W 8138   4.129   8.503   3.403 -0.1347  0.0985 -0.1092
 4075W        W 8139  10.593  10.084   4.146  0.0574 -0.5554  0.2163
 4076W        W 8140   7.242   4.151   8.419 -0.3488  0.2319 -0.0770
 4077W        W 8141   6.313   6.035   8.845  0.0404  0.2143 -0.0267
 4078W        W 8142   9.683   1.783  10.620 -0.0733  0.0044 -0.2012
 4079W        W 8143   1.986   4.545   0.470 -0.0346  0.1211  0.1606
 4080W        W 8144   7.601  10.369  10.308 -0.3759  0.1213 -0.0888
 4081W        W 8145   5.603  10.502  11.204  0.0829 -0.0685 -0.1382
 4082W        W 8146   4.359   2.331   9.190 -0.1086  0.1173  0.2652
 4083W        W 8147   0.000   8.928  11.307  0.3629  0.1324  0.2749
 4084W        W 8148   2.764   5.332   2.250 -0.0132  0.0002 -0.0504
 4085W        W 8149   3.355   6.998   9.344  0.0756 -0.2489  0.3466
 4086W        W 8150   0.962   5.682   8.540 -0.1839  0.1637  0.1252
 4087W        W 8151   4.786   6.657   9.109 -0.3569  0.1965  0.3929
 4088W        W 8152   3.532   6.606   8.628  0.1082 -0.2510  0.2825
 4089W        W 8153   7.019   4.569   8.150 -0.1273  0.2554  0.1002
 4090W        W 8154   1.758   6.121   8.191 -0.0417  0.1503  0.1577
 4091W        W 8155   0.232   9.995   2.875 -0.0449 -0.0399  0.1888
 4092W        W 8156   3.557   1.150  11.285 -0.0076 -0.1399  0.0410
 4093W        W 8157   1.224   1.756   0.076 -0.0068 -0.0840 -0.1513
 4094W        W 8158   9.287   8.716   2.101  0.0650 -0.3843 -0.2663
 4095W        W 8159   3.248   9.603   2.378 -0.0159  0.0767 -0.0373
 4096W        W 8160   3.034   2.317  10.568  0.2837  0.0048 -0.1412
 4097W        W 8161   5.688   8.148   3.101 -0.1583  0.2000  0.1902
 4098W        W 8162   5.867   5.738  11.318 -0.2423 -0.0671  0.3152
 4099W        W 8163   7.187   3.880   1.030 -0.1709  0.0470 -0.0297
 4100W        W 8164   8.178   0.416   8.175  0.1958  0.1480  0.1287
 4101W        W 8165   9.512   0.083   1.847 -0.2307  0.2175  0.0544
 4102W        W 8166   5.646   3.920  10.760  0.1569  0.0211  0.2045
 4103W        W 8167   1.312   8.255   2.683  0.0142  0.1356 -0.0805
 4104W        W 8168   1.163   6.915   4.289 -0.2280  0.2412 -0.3090
 4105W        W 8169   5.287   8.794   3.011  0.0256 -0.0968  0.2804
 4106W        W 8170   8.152   8.088   1.670  0.0383 -0.0927  0.0436
 4107W        W 8171   2.358   2.247  10.555 -0.0799 -0.0605 -0.3089
 4108W        W 8172  10.213   6.852   7.320  0.0510 -0.3060 -0.1016
 4109W        W 8173  10.371   3.242   3.006 -0.1854  0.2906  0.0969
 4110W        W 8174   5.562   2.011   0.893  0.0294 -0.2265 -0.2002
 4111W        W 8175   4.194   6.710   2.558 -0.1607  0.3182  0.4652
 4112W        W 8176   9.000   7.894   0.418  0.0176  0.0078 -0.3242
 4113W        W 8177   9.127   4.491   3.484 -0.5993  0.1319  0.1889
 4114W        W 8178   4.530  10.197   2.303  0.0999  0.1823 -0.3957
 4115W        W 8179   9.023   5.765   2.783 -0.1584  0.2780  0.0693
 4116W        W 8180   4.466   5.436   9.314  0.3676  0.1984  0.0900
 4117W        W 8181   7.741  10.177   1.712  0.1451  0.0844  0.0437
 4118W        W 8182   6.656   5.174   0.003 -0.3448 -0.0321  0.1706
 4119W        W 8183   8.372   9.722   0.619 -0.3980  0.3477 -0.0625
 4120W        W 8184  10.193  10.060  11.463  0.1996 -0.0171  0.0901
 4121W        W 8185   7.151   0.100   8.254 -0.0750 -0.1276  0.0436
 4122W        W 8186  10.399   9.166   7.936  0.4249  0.0975 -0.0778
 4123W        W 8187   8.095   9.702   9.496 -0.2371 -0.2685  0.1810
 4124W        W 8188   8.032   3.101   3.279 -0.0860  0.0513 -0.0338
 4125W        W 8189   0.240   7.890   2.054  0.1829 -0.0103 -0.3434
 4126W        W 8190   3.115   5.769  10.134  0.1426  0.0597  0.1877
 4127W        W 8191   7.980   6.593   9.188 -0.0334  0.0634  0.1625
 4128W        W 8192   5.839   0.237   0.427 -0.4907  0.0391 -0.0410
 4129W        W 8193   5.736   4.509   9.877 -0.1213  0.1237 -0.2538
 4130W        W 8194   3.570   3.246   1.005  0.0834  0.0769  0.3583
 4131W        W 8195   2.969   3.672   2.064  0.0874 -0.1884  0.0461
 4132W        W 8196   8.115   3.315   0.471 -0.0358  0.0134 -0.1868
 4133W        W 8197   3.800   5.975   9.769 -0.4885  0.0432  0.0744
 4134W        W 8198   2.113   7.782   0.048  0.2376  0.0946  0.0229
 4135W        W 8199   6.013   3.384   2.989 -0.0118  0.1764 -0.1496
 4136W        W 8200   0.160   9.440   3.413 -0.0968  0.2966  0.0280
 4137W        W 8201   0.684   0.182   2.077  0.0829  0.3111  0.1004
 4138W        W 8202   8.205   3.406   1.049  0.0255  0.2702 -0.6633
 4139W        W 8203   3.931   2.494   9.395  0.1228 -0.0435 -0.0487
 4140W        W 8204   9.319   8.992   8.706  0.1207 -0.2555  0.0547
 4141W        W 8205   3.911  10.131  10.314  0.1579 -0.2374  0.0886
 4142W        W 8206   3.564   5.405  11.121 -0.0084  0.3785  0.1373
 4143W        W 8207   8.676   8.312   9.831  0.3592 -0.0908  0.0742
 4144W        W 8208   6.963  10.492  11.328 -0.0523 -0.1076 -0.2671
 4145W        W 8209   7.732   5.371   9.839 -0.0577  0.2436 -0.3678
 4146W        W 8210   4.289   7.372   9.175 -0.1406 -0.2838 -0.3339
 4147W        W 8211   5.458   2.518   1.019  0.0557  0.1694 -0.0427
 4148W        W 8212   5.061   7.255   3.892 -0.0766  0.2688  0.2997
 4149W        W 8213   2.494   4.089   9.805 -0.0935  0.2049  0.0826
 4150W        W 8214   4.465   3.325  10.922 -0.0197 -0.0213  0.0244
 4151W        W 8215   6.776   8.559   9.640 -0.2667 -0.2247  0.1844
 4152W        W 8216   7.622   5.081   0.119  0.2130  0.1479 -0.0835
 4153W        W 8217   3.265   6.954   8.276  0.0888 -0.2295  0.2689
 4154W        W 8218  10.413   2.061   0.904  0.1075  0.0562  0.2847
 4155W        W 8219   0.313   7.848   2.889 -0.1500  0.0397  0.0067
 4156W        W 8220   9.042  10.634   0.065 -0.1968 -0.0945 -0.3222
 4157W        W 8221   2.078   5.230   8.113 -0.0725  0.2541 -0.0170
 4158W        W 8222  10.208   8.103   2.493  0.0185  0.1686  0.1976
 4159W        W 8223   0.848   2.080   0.967 -0.1166 -0.0336 -0.1117
 4160W        W 8224   9.391   0.977   2.099  0.1115 -0.1254 -0.3595
 4161W        W 8225   7.852   6.223   0.927 -0.1272  0.1156  0.2551
 4162W        W 8226   2.768  10.461   9.025  0.1706 -0.0552 -0.2521
 4163W        W 8227   5.671  10.261   2.189 -0.1874  0.0281  0.5119
 4164W        W 8228   0.226   4.932   8.873  0.0797 -0.0383  0.3025
 4165W        W 8229   2.554  10.007   2.924  0.0573 -0.0526  0.4349
 4166W        W 8230   2.631   6.524  10.419  0.0677  0.0175 -0.0852
 4167W        W 8231   5.142   0.317   2.568  0.0036 -0.1270  0.1988
 4168W        W 8232   0.496   7.381  10.580  0.1353 -0.1060  0.0503
 4169W        W 8233   5.895   4.254   3.656 -0.4138 -0.0761  0.2849
 4170W        W 8234   9.453   7.985   9.879 -0.2346 -0.1255  0.1610
 4171W        W 8235   6.386   0.653   9.287  0.0820 -0.2607 -0.0579
 4172W        W 8236   3.164   4.063   0.634 -0.3406  0.3121  0.1147
 4173W        W 8237   3.809   0.626   8.982 -0.0014  0.1549 -0.2599
 4174W        W 8238  10.569   9.393  10.482 -0.1257 -0.1163  0.2159
 4175W        W 8239   2.203   0.833   0.631  0.0401  0.0499 -0.1841
 4176W        W 8240   5.547   9.799  10.529 -0.3311 -0.1329 -0.1776
 4177W        W 8241   4.087   9.979   3.547  0.2696 -0.1384  0.0919
 4178W        W 8242   2.773   4.263   0.486 -0.3065 -0.0392 -0.2424
 4179W        W 8243   4.580   8.134  10.941  0.0160  0.1913 -0.0035
 4180W        W 8244   0.233   1.439   1.325  0.0727 -0.4059  0.2359
 4181W        W 8245   6.706  10.100   1.820 -0.3033 -0.1558 -0.0098
 4182W        W 8246  10.190   4.669   8.297  0.0705  0.0928 -0.1741
 4183W        W 8247   1.661  10.309   1.152  0.0934 -0.2704 -0.2442
 4184W        W 8248   0.551   3.049   0.536 -0.1788  0.2982 -0.0661
 4185W        W 8249   7.043   7.630   9.955  0.0438  0.3532  0.2748
 4186W        W 8250   8.700   4.953   2.687 -0.0947 -0.0299  0.5470
 4187W        W 8251   9.705   7.530   7.206 -0.2591 -0.0869  0.3522
 4188W        W 8252   9.718   1.801   0.847 -0.0342  0.2615 -0.1086
 4189W        W 8253   0.200   2.776  11.070  0.1688 -0.0269 -0.2394
 4190W        W 8254   5.998   6.729   7.688 -0.3593 -0.1360  0.1589
 4191W        W 8255  10.380   6.926   0.058 -0.2550  0.5032  0.0295
 4192W        W 8256   1.243   6.322   0.925 -0.0008 -0.1570  0.0572
 4193W        W 8257  10.464   3.949  10.972 -0.2118  0.1325 -0.2557
 4194W        W 8258   3.027   3.196   1.655  0.0278  0.0267 -0.0813
 4195W        W 8259   9.410   6.762   0.017  0.2458  0.1340 -0.2902
 4196W        W 8260   1.453   9.959  11.302  0.1355  0.2316 -0.0180
 4197W        W 8261   8.980   6.469   8.999  0.1226  0.0301 -0.1655
 4198W        W 8262   6.274   7.989  11.341  0.2499 -0.0582 -0.1452
 4199W        W 8263   4.889   3.405   8.729  0.3418  0.2068 -0.1704
 4200W        W 8264   3.536   1.044   9.070  0.0048  0.0816  0.0700
 4201W        W 8265   7.572   8.442   0.828  0.1829  0.1082  0.0778
 4202W        W 8266   5.784   7.276   9.660  0.1016 -0.0605 -0.1295
 4203W        W 8267   7.472   7.822   8.122  0.0320 -0.2866  0.0323
 4204W        W 8268   0.578   8.174   1.761 -0.1768  0.0237 -0.1943
 4205W        W 8269   5.476   4.437   3.421 -0.0475  0.1889 -0.0287
 4206W        W 8270   0.789   7.192  10.205 -0.1070  0.1920  0.0022
 4207W        W 8271   1.321  10.174   2.446  0.0806  0.1258  0.1440
 4208W        W 8272   6.976   4.940   9.305 -0.3268 -0.1921 -0.0816
 4209W        W 8273  10.040   4.213   1.060 -0.0501 -0.0739  0.0122
 4210W        W 8274   5.317   3.562   8.197 -0.1454 -0.0872 -0.0461
 4211W        W 8275   4.818   2.891   0.878  0.0297  0.0797 -0.3166
 4212W        W 8276   7.180   8.859   0.962 -0.1002 -0.0061 -0.1453
 4213W        W 8277   8.709   8.918   8.734  0.1232  0.0647 -0.0119
 4214W        W 8278   8.566   4.524   0.784 -0.1541  0.1703 -0.1392
 4215W        W 8279   9.025   9.121  10.379 -0.3336  0.1711  0.0485
 4216W        W 8280   6.156   6.785   0.037 -0.1803 -0.2315  0.0047
 4217W        W 8281   6.154   2.873   2.955  0.1879  0.1772 -0.0983
 4218W        W 8282   1.639   8.712   4.803  0.1771  0.0754 -0.2258
 4219W        W 8283   9.228   7.081   9.516 -0.1417  0.1817 -0.2558
 4220W        W 8284   7.685   0.097   1.434  0.0639 -0.0683 -0.0831
 4221W        W 8285   7.779   3.491   7.551 -0.4819  0.2540  0.1239
 4222W        W 8286   7.171   1.591   7.744  0.3769  0.2081 -0.2387
 4223W        W 8287   8.015   2.430   2.899 -0.5295 -0.1235 -0.0417
 4224W        W 8288   0.734   9.496   2.368 -0.0911 -0.2924  0.2404
 4225W        W 8289   9.358   8.066  10.945 -0.2327 -0.0314 -0.1586
 4226W        W 8290   9.293   9.013   7.358  0.0633 -0.0082 -0.0254
 4227W        W 8291   6.911   9.016   9.806  0.0765  0.2027 -0.3117
 4228W        W 8292   2.827   4.786   2.557  0.1992 -0.3835  0.1316
 4229W        W 8293   1.306   9.448   3.274 -0.3392 -0.2294 -0.1277
 4230W        W 8294   5.392   3.700   0.450  0.3206 -0.1098 -0.1962
 4231W        W 8295   4.739   1.675  10.927 -0.0693  0.0584  0.3113
 4232W        W 8296   8.850   9.145   9.910  0.1061 -0.1542 -0.3007
 4233W        W 8297   2.672   8.187   8.157 -0.1076  0.0373 -0.0892
 4234W        W 8298   1.857   3.309   2.380  0.1598  0.3295 -0.0051
 4235W        W 8299   6.678   3.343   1.558  0.1764  0.1497  0.5014
 4236W        W 8300   5.437   1.031  11.497 -0.1043  0.0043  0.1085
 4237W        W 8301   5.936   4.903   9.510  0.0127 -0.1094 -0.1927
 4238W        W 8302   2.551   7.286   0.562  0.0718  0.2567 -0.4184
 4239W        W 8303   3.345  10.521   2.392  0.1110 -0.1246  0.2611
 4240W        W 8304   9.534   6.755  10.319 -0.5080 -0.0093  0.1000
 4241W        W 8305   5.358   0.578   9.245  0.0722  0.2335  0.2397
 4242W        W 8306   6.679   5.422   4.000  0.1610  0.1654 -0.2319
 4243W        W 8307   5.689   2.971   3.102 -0.0035 -0.0799 -0.0605
 4244W        W 8308   0.975   1.232   0.837  0.0621 -0.0614  0.2255
 4245W        W 8309   5.232   3.292  11.007 -0.1314  0.1519  0.2598
 4246W        W 8310   1.396   7.146   0.525  0.0780 -0.0859  0.1575
 4247W        W 8311   1.384   3.948   0.604  0.0033 -0.3622  0.0296
 4248W        W 8312   9.074   5.586   1.202  0.0179  0.2460  0.1915
 4249W        W 8313   4.381   6.973   1.281 -0.0816  0.1261  0.3627
 4250W        W 8314   9.226   3.114   3.674 -0.0518  0.3109 -0.1939
 4251W        W 8315   0.079   6.448   2.325  0.1279  0.1872 -0.1966
 4252W        W 8316   9.293   6.243   0.029 -0.1152  0.0323 -0.0764
 4253W        W 8317   6.533   4.668   2.833  0.1119 -0.1472  0.1442
 4254W        W 8318   4.860   8.482   9.087  0.0548  0.2255 -0.3316
 4255W        W 8319  10.041   2.082   0.588  0.0680 -0.3916 -0.0429
 4256W        W 8320   7.026   9.072  11.048  0.1336  0.0730  0.2249
 4257W        W 8321   2.520   9.322   1.610  0.0585  0.0750  0.3012
 4258W        W 8322   3.490  10.048   3.030  0.0219  0.4318 -0.2970
 4259W        W 8323  10.069   4.183   7.810  0.0193  0.1814  0.0995
 4260W        W 8324   7.843   2.853  10.715  0.0907  0.1165  0.2508
 4261W        W 8325   6.652   8.070  10.861 -0.0258 -0.0136 -0.2306
 4262W        W 8326   0.086   8.168   9.107  0.5744  0.3110 -0.2609
 4263W        W 8327   0.256   3.542  11.511 -0.0651 -0.1034  0.4297
 4264W        W 8328   9.611   4.827  10.684 -0.0614 -0.1296  0.0456
 4265W        W 8329   4.821   8.895   0.542  0.1163  0.0586  0.0155
 4266W        W 8330   6.356   0.280  10.070  0.2351  0.2133  0.0998
 4267W        W 8331   7.653   3.602   4.029 -0.1749  0.0522 -0.2014
 4268W        W 8332  10.413   1.536  11.590  0.2161 -0.0305 -0.0099
 4269W        W 8333   4.561   1.550  11.374 -0.1637  0.0977  0.1495
 4270W        W 8334   7.014   5.615   0.432  0.0482  0.1123 -0.0328
 4271W        W 8335   2.496   8.346   2.169 -0.1197 -0.1028 -0.1180
 4272W        W 8336   5.924   5.799   3.419  0.1871  0.0003 -0.1595
 4273W        W 8337   8.764   0.949   9.648  0.0388  0.0811  0.0826
 4274W        W 8338   6.920  10.525   0.682  0.0347  0.2325 -0.1373
 4275W        W 8339   5.337   5.810  11.487  0.1823  0.1627 -0.2267
 4276W        W 8340   6.419   6.661   9.535 -0.1745  0.2953 -0.2144
 4277W        W 8341   9.098   0.259   2.575  0.0036  0.2776  0.3999
 4278W        W 8342   9.494  10.601   2.512 -0.1387  0.0417  0.0653
 4279W        W 8343   8.291   5.186   0.807  0.1559  0.0980  0.3018
 4280W        W 8344   6.288   0.064   1.297 -0.4953 -0.3041  0.0348
 4281W        W 8345  10.277  10.117   2.076  0.3514  0.1966  0.0019
 4282W        W 8346   0.294   7.162   1.283 -0.3711 -0.3294  0.3054
 4283W        W 8347   3.445   7.451   2.363 -0.2293 -0.0004 -0.2333
 4284W        W 8348   8.524   7.391   2.643  0.1829  0.0082 -0.0929
 4285W        W 8349   3.193   2.303   8.682  0.1491  0.4917  0.3566
 4286W        W 8350   7.854  10.170   0.116 -0.0965 -0.0669  0.0452
 4287W        W 8351   2.554   7.528   8.953 -0.1350 -0.1530  0.2962
 4288W        W 8352   9.977   2.103  11.024 -0.2547 -0.5567 -0.0501
 4289W        W 8353   2.617   8.502   1.657 -0.0609  0.0279  0.1309
 4290W        W 8354   2.707   9.906   8.990 -0.1981 -0.1493 -0.1012
 4291W        W 8355   6.181   1.457   8.359  0.1228 -0.0383  0.4241
 4292W        W 8356   8.627   8.485   3.205  0.2150 -0.3935 -0.0062
 4293W        W 8357   7.926   7.314   3.088 -0.1818 -0.1090 -0.2599
 4294W        W 8358   9.773  10.156  10.653  0.1388  0.1767 -0.0652
 4295W        W 8359   8.419   9.153   2.830  0.0385 -0.0613 -0.1139
 4296W        W 8360   6.849   0.637   2.363  0.1712 -0.1588  0.4201
 4297W        W 8361   4.024   7.857   3.715 -0.0204 -0.5431 -0.0954
 4298W        W 8362   9.329   2.406   9.334  0.2540  0.2290  0.0596
 4299W        W 8363   6.469   6.631  10.356 -0.0705  0.0824 -0.1749
 4300W        W 8364   8.356   1.822   3.225  0.1415  0.0001  0.0926
 4301W        W 8365   4.946   5.653   8.575  0.0605 -0.0903  0.2221
 4302W        W 8366   9.213   5.434   9.434 -0.2856 -0.2805 -0.1754
 4303W        W 8367   1.409  10.242   8.494 -0.1294  0.0578 -0.2938
 4304W        W 8368  10.486   4.919   3.711  0.0741  0.1103 -0.1068
 4305W        W 8369   0.657   8.270   9.214  0.2053  0.1532  0.0914
 4306W        W 8370   5.048   8.402   8.647  0.5618  0.0110 -0.3690
 4307W        W 8371   8.463  10.282   3.595 -0.0165  0.0149 -0.0926
 4308W        W 8372   5.574   5.241   3.208  0.1069  0.3669  0.2720
 4309W        W 8373   0.276   8.694   2.400 -0.0576  0.1966  0.1140
 4310W        W 8374   5.818   7.755  11.218  0.4330 -0.0759  0.0437
 4311W        W 8375   5.112  10.462  10.926  0.5339  0.0484 -0.1598
 4312W        W 8376   9.028   4.735  10.784 -0.3358 -0.0227  0.3285
 4313W        W 8377   9.035   6.809   0.371  0.2649  0.1344 -0.2062
 4314W        W 8378   3.991   3.550  10.321 -0.3760 -0.1014 -0.2171
 4315W        W 8379   1.720   4.210   9.195  0.1195 -0.2657 -0.2796
 4316W        W 8380   9.788   1.873   2.136 -0.0248 -0.0920  0.1816
 4317W        W 8381   4.101   5.122   1.197 -0.2396 -0.0530  0.1940
 4318W        W 8382   9.429  10.103   7.956 -0.2502  0.2140 -0.3483
 4319W        W 8383   2.665   0.621  10.248  0.0638 -0.0921  0.0847
 4320W        W 8384   0.816   3.367  10.764 -0.1658 -0.3561  0.0094
 4321W        W 8385   9.619   6.521  10.768 -0.1701 -0.0259  0.1880
 4322W        W 8386   6.386   1.296  11.153 -0.0949  0.1294 -0.1368
 4323W        W 8387   6.630   0.971   3.669  0.1118 -0.0900  0.1541
 4324W        W 8388   5.955   3.554  10.438  0.0913 -0.2668 -0.1450
 4325W        W 8389   0.119   0.975  10.694  0.0722 -0.0016 -0.1440
 4326W        W 8390   8.087   9.454  10.483 -0.0059  0.1135  0.1401
 4327W        W 8391  10.465   2.329  10.668  0.1825 -0.0610  0.2237
 4328W        W 8392   4.790   0.377   2.139  0.0340 -0.2240  0.1653
 4329W        W 8393   1.217  10.125   0.998  0.2737 -0.0893  0.1866
 4330W        W 8394   4.377   3.123   0.998 -0.0046  0.1417  0.2106
 4331W        W 8395   8.836   9.854  11.094  0.3281 -0.3242  0.4772
 4332W        W 8396   9.543   0.135   3.315 -0.2400  0.5313  0.0356
 4333W        W 8397   2.905   8.501  10.466 -0.0621  0.1335  0.1797
 4334W        W 8398   6.860   5.571   7.144 -0.0392  0.3252  0.2852
 4335W        W 8399   2.576   6.596   3.012  0.0450 -0.0243  0.0186
 4336W        W 8400   0.227   0.388   3.674  0.0291 -0.3050  0.0905
 4337W        W 8401   0.289   2.272   9.036  0.3430  0.1161  0.1210
 4338W        W 8402   6.904   6.872  10.251 -0.0587 -0.1186  0.0732
 4339W        W 8403   2.182   8.189   3.693 -0.1356  0.1296 -0.5400
 4340W        W 8404   6.023   0.031   2.419 -0.1474  0.0161 -0.0838
 4341W        W 8405   2.995   4.067   9.328  0.0750  0.2475  0.2207
 4342W        W 8406   8.112   9.656   1.636 -0.1419 -0.0639 -0.0334
 4343W        W 8407   0.787   6.503   2.566 -0.1484  0.1395  0.1632
 4344W        W 8408   3.774   0.775   2.456 -0.0608 -0.1291  0.0863
 4345W        W 8409   4.509   4.529   3.698  0.1570  0.0575  0.0076
 4346W        W 8410   3.640   4.963   2.267  0.2574  0.1346 -0.2031
 4347W        W 8411   5.132   2.641   2.737 -0.1091 -0.0549 -0.0156
 4348W        W 8412   5.194   7.739  11.083 -0.1373 -0.1137 -0.0093
 4349W        W 8413   0.066   6.178  11.175 -0.1119 -0.2287 -0.1581
 4350W        W 8414   5.641   1.509   2.168  0.2907  0.2877  0.0865
 4351W        W 8415   8.397   3.512   1.568  0.0030  0.2224  0.1485
 4352W        W 8416   8.799   3.986   2.211  0.3502 -0.0963 -0.0797
 4353W        W 8417   1.442   2.135   0.340  0.0057  0.3424 -0.5040
 4354W        W 8418   3.602   4.119   9.101 -0.1070  0.3861  0.0370
 4355W        W 8419   1.289   9.149  10.095 -0.0138  0.0846  0.1441
 4356W        W 8420   7.091   7.373   2.211  0.0542  0.1032  0.0426
 4357W        W 8421   0.538   0.697  10.617  0.2773 -0.0848 -0.0675
 4358W        W 8422   5.543   6.522   1.751  0.1093 -0.1224 -0.0836
 4359W        W 8423   3.667   3.692   8.783 -0.1177  0.2222  0.0689
 4360W        W 8424   4.408   8.830   2.357  0.1443  0.1328 -0.0564
 4361W        W 8425   8.357   7.752   0.536 -0.2794 -0.1173  0.0937
 4362W        W 8426   4.238   5.794  10.634  0.2667 -0.0647 -0.1634
 4363W        W 8427   5.472   2.261   9.131  0.0046 -0.1841  0.0408
 4364W        W 8428   5.640   0.897   2.880 -0.2258  0.0499  0.0135
 4365W        W 8429   6.977   6.348  10.365  0.1058 -0.2464  0.3696
 4366W        W 8430   8.880   2.260   2.695 -0.1367  0.0235 -0.0656
 4367W        W 8431   2.391   0.940  10.551 -0.1699  0.0571  0.0450
 4368W        W 8432   8.795   4.225   0.474 -0.3540 -0.2005  0.4979
 4369W        W 8433   4.658   4.743   1.129 -0.0162 -0.0242  0.1211
 4370W        W 8434   8.118   9.305   0.807 -0.2308  0.0741 -0.0646
 4371W        W 8435   4.800   7.819   2.004 -0.1542 -0.0374  0.2032
 4372W        W 8436  10.289   6.747   1.643 -0.3017  0.0621  0.0461
 4373W        W 8437   8.406   4.617  10.685 -0.2267 -0.0971  0.1036
 4374W        W 8438   3.528   3.161  10.421  0.2977 -0.2369  0.4575
 4375W        W 8439   2.385   4.048  10.296 -0.0597  0.1766 -0.3028
 4376W        W 8440   8.008   2.136  10.069  0.1232  0.0152  0.0838
 4377W        W 8441  10.526   7.819   0.228 -0.1398 -0.0155  0.1494
 4378W        W 8442   2.350   0.154   1.320  0.0014  0.2693  0.0584
 4379W        W 8443   7.825   3.420   8.536  0.2507  0.0473 -0.0672
 4380W        W 8444   9.584   3.309  10.784  0.1316 -0.0345 -0.1162
 4381W        W 8445   4.928   5.577   2.939 -0.2338 -0.1948 -0.1109
 4382W        W 8446   5.188   3.357   0.735 -0.1580 -0.0381  0.0614
 4383W        W 8447   1.787   9.521  11.131 -0.0746  0.1945  0.0266
 4384W        W 8448   2.284   6.825   1.494 -0.0514  0.0130  0.3224
 4385W        W 8449  10.068   2.284   2.278  0.0207  0.1794  0.0166
 4386W        W 8450   7.700   0.721   8.820  0.0211  0.2095  0.0998
 4387W        W 8451   4.473   3.580   0.611  0.0065  0.0132  0.2827
 4388W        W 8452   0.268   6.392   8.264 -0.2125 -0.0596  0.1006
 4389W        W 8453   8.406   2.386   7.894  0.0121 -0.0948  0.0108
 4390W        W 8454   6.853   3.046   0.563  0.3164 -0.0529  0.3082
 4391W        W 8455   6.104   4.366   0.857 -0.2956 -0.1198  0.2779
 4392W        W 8456   6.107   9.997   0.185  0.0565 -0.0243 -0.1246
 4393W        W 8457   0.726   4.815   2.726 -0.0151 -0.0758 -0.3423
 4394W        W 8458   4.293   1.570   9.317  0.1282 -0.3471 -0.3120
 4395W        W 8459   8.715  10.336   2.444  0.0792 -0.2872  0.0332
 4396W        W 8460   2.642   9.362   9.846 -0.2021 -0.1336  0.1757
 4397W        W 8461   4.444   6.112  10.329 -0.5560 -0.1402 -0.1400
 4398W        W 8462   0.229   1.487   0.309  0.2171  0.1709  0.0501
 4399W        W 8463   2.853   4.520  11.048  0.2469  0.1378  0.1844
 4400W        W 8464   1.338   3.422   2.316 -0.0208  0.2369  0.1600
 4401W        W 8465   1.180   0.679   9.774 -0.0941  0.1783 -0.0663
 4402W        W 8466   8.723   7.936   2.594 -0.3674  0.2601  0.3917
 4403W        W 8467  10.617   9.481   8.829 -0.2399 -0.0991 -0.0376
 4404W        W 8468   9.689   5.493   9.221  0.0846 -0.0730  0.1997
 4405W        W 8469   1.355   6.513   8.184 -0.1595  0.0134  0.0170
 4406W        W 8470   3.830   3.659   9.281  0.0964  0.2578  0.1920
 4407W        W 8471   7.654   8.169   0.153  0.2673 -0.2195  0.1156
 4408W        W 8472   6.701   1.514  10.761  0.2660 -0.1157  0.0591
 4409W        W 8473   5.749  10.208   9.955  0.0941  0.2115 -0.1074
 4410W        W 8474   0.109   9.410  11.445  0.2301  0.3626  0.1246
 4411W        W 8475  10.006   4.111   9.081 -0.2474  0.1709 -0.0240
 4412W        W 8476   9.780   8.420  10.303  0.1976 -0.1671  0.2529
 4413W        W 8477   7.268   8.250   3.269  0.0538 -0.1048  0.0041
 4414W        W 8478   6.240   8.614   1.807 -0.4226 -0.0377  0.1708
 4415W        W 8479   1.594   0.135  10.456  0.2109 -0.2079  0.0770
 4416W        W 8480   8.194   8.868   0.624 -0.0978  0.4595 -0.0657
 4417W        W 8481   0.080   7.865   4.180 -0.0342  0.5008 -0.1855
 4418W        W 8482   8.077   0.858   1.727  0.0973  0.0713 -0.3051
 4419W        W 8483   9.553   2.796   3.060  0.1652  0.0693 -0.0026
 4420W        W 8484   5.761   7.759   3.526  0.1013  0.0995 -0.2098
 4421W        W 8485   3.825   4.163   8.616  0.1574 -0.2996  0.2163
 4422W        W 8486   8.736   0.432  10.506 -0.0048  0.4927  0.1138
 4423W        W 8487   0.596   0.750   8.300  0.2654  0.1268  0.0640
 4424W        W 8488   0.548   5.257   1.284 -0.2200  0.0267 -0.0004
 4425W        W 8489   8.799   1.949   0.021  0.0796 -0.2650  0.2553
 4426W        W 8490   9.356   1.560   3.283  0.4879  0.0445 -0.3414
 4427W        W 8491   4.246   8.030   0.760  0.0589  0.5284  0.0875
 4428W        W 8492   4.209   6.689  10.458  0.2742 -0.5508 -0.1162
 4429W        W 8493   6.534   5.434   0.413  0.0237  0.2471  0.5071
 4430W        W 8494  10.565   0.178   1.518  0.0753 -0.1653 -0.0013
 4431W        W 8495  10.020   2.935  10.390  0.3237 -0.2681 -0.1010
 4432W        W 8496   6.992   2.035   2.113  0.3139 -0.4834 -0.0171
 4433W        W 8497   4.233   5.594   8.481 -0.3995 -0.2499 -0.2597
 4434W        W 8498   3.539   4.247   0.282 -0.0626  0.1568 -0.1797
 4435W        W 8499   6.123   3.835  10.873 -0.1387  0.0328 -0.0303
 4436W        W 8500  10.630   7.222   0.491 -0.4387 -0.0848  0.1182
 4437W        W 8501   3.373   3.275   9.782 -0.3393 -0.4600 -0.2769
 4438W        W 8502   0.437   9.242   9.704  0.3374  0.0050  0.1687
 4439W        W 8503   2.646   3.535   1.676 -0.3030  0.0891  0.5053
 4440W        W 8504   4.191  10.118  11.323 -0.1060 -0.1766  0.1012
 4441W        W 8505   6.247  10.106  10.119 -0.0028  0.0589 -0.2133
 4442W        W 8506   9.621   3.974   2.183 -0.1647  0.1676  0.3446
 4443W        W 8507   9.049   7.899   7.385  0.0812  0.4130  0.1179
 4444W        W 8508   8.357   3.043  11.177 -0.0332  0.0040 -0.2624
 4445W        W 8509   9.402   5.094   9.881 -0.1129  0.0559 -0.2432
 4446W        W 8510   4.999   9.064   2.670  0.1394 -0.3765 -0.1181
 4447W        W 8511   3.313   8.839   8.673 -0.0584  0.0012 -0.2729
 4448W        W 8512   2.958   5.725   7.973 -0.2443  0.1139  0.0950
 4449W        W 8513   9.988   0.329  11.341 -0.2061  0.0509 -0.0665
 4450W        W 8514   3.962   4.001   1.053  0.0751 -0.2431 -0.0452
 4451W        W 8515   4.858   8.698   3.520 -0.0263 -0.1251  0.1474
 4452W        W 8516   9.517   0.834  10.878  0.3569  0.2076 -0.3196
 4453W        W 8517  10.052   1.159  10.233 -0.2053  0.0698  0.3053
 4454W        W 8518   0.634   6.123   8.767 -0.2683  0.1270  0.1488
 4455W        W 8519   7.121   7.819   2.990 -0.3737 -0.2093 -0.0631
 4456W        W 8520   7.159   0.332   1.348 -0.0955 -0.0226 -0.0356
 4457W        W 8521   8.467   5.338   0.298  0.3181  0.1774  0.2648
 4458W        W 8522   2.544   7.263  11.565 -0.1504  0.1042  0.1695
 4459W        W 8523   3.782   7.446   9.358  0.0427  0.1720  0.0758
 4460W        W 8524   5.678   6.894   0.970  0.3134  0.0014 -0.0414
 4461W        W 8525   1.040   9.995   0.432 -0.2704 -0.1899 -0.0642
 4462W        W 8526   6.436   0.471   1.630  0.0900 -0.2468  0.3923
 4463W        W 8527   8.268   0.454   2.226  0.3032 -0.0290  0.0914
 4464W        W 8528   6.397   7.329   1.466 -0.2960  0.1531  0.2366
 4465W        W 8529   8.377   2.200  10.887 -0.0482 -0.0401 -0.0191
 4466W        W 8530   0.031   4.393   9.616 -0.2979  0.2110  0.1325
 4467W        W 8531   0.682   9.505   1.581 -0.1020 -0.0883  0.4563
 4468W        W 8532   7.615   1.096   1.745  0.0285  0.1523  0.1545
 4469W        W 8533  10.621   8.866  10.761  0.1774  0.1373  0.0204
 4470W        W 8534   7.741   1.278  11.013  0.1689 -0.3804 -0.2272
 4471W        W 8535   7.616   7.006  11.472 -0.1767  0.1960 -0.1766
 4472W        W 8536   8.555   5.447   2.001  0.1405 -0.2246  0.3644
 4473W        W 8537   6.120   6.081   2.981  0.2910  0.0458  0.1392
 4474W        W 8538   3.725   2.007  11.460 -0.1561 -0.0994 -0.0687
 4475W        W 8539   5.153   6.721   8.427 -0.1401 -0.1982  0.0032
 4476W        W 8540   3.956   3.110   2.144  0.2976  0.1197 -0.2566
 4477W        W 8541   7.385   6.936   1.954 -0.1785  0.1460 -0.2019
 4478W        W 8542  10.183   5.981   0.356  0.1816 -0.2491  0.0508
 4479W        W 8543   0.032   4.403   1.524  0.1342 -0.2073  0.4000
 4480W        W 8544  10.177   5.231   8.534 -0.0612  0.1437  0.0857
 4481W        W 8545   2.846   5.388   7.532  0.2566 -0.1989  0.3656
 4482W        W 8546   2.435   3.205  11.470  0.1781 -0.0967 -0.1767
 4483W        W 8547   3.493   7.545   0.631  0.3287 -0.1589 -0.2086
 4484W        W 8548  10.253   9.272  11.528  0.1902  0.0250  0.5430
 4485W        W 8549   1.985  10.170   9.656 -0.0775  0.1109  0.1350
 4486W        W 8550   4.180  10.047   1.354  0.2394 -0.1407  0.0774
 4487W        W 8551  10.235   7.599   3.245 -0.0786 -0.0167 -0.2144
 4488W        W 8552   3.964   4.491   0.421  0.1413 -0.0298  0.1876
 4489W        W 8553   5.216   7.028   2.385 -0.0812 -0.3221 -0.2490
 4490W        W 8554   1.185   4.580   2.618  0.2654  0.0609  0.1570
 4491W        W 8555   8.266   4.802   1.753  0.1965 -0.1198 -0.0406
 4492W        W 8556   9.721   1.859   8.542 -0.0388 -0.2617 -0.0531
 4493W        W 8557   6.986  10.409   2.785  0.0090 -0.1189  0.1454
 4494W        W 8558   5.230   6.275   0.207  0.0859 -0.1972 -0.1170
 4495W        W 8559   2.186   7.164   1.056 -0.1401 -0.1075  0.2679
 4496W        W 8560   7.617   6.479   7.940 -0.1730 -0.0580 -0.0807
 4497W        W 8561   0.691   9.485  11.398 -0.0533 -0.1511 -0.1323
 4498W        W 8562   7.616   6.080   2.420  0.0752 -0.1546  0.2025
 4499W        W 8563   3.322   4.886   2.643 -0.1075  0.0012 -0.0732
 4500W        W 8564   6.416   9.742   2.091 -0.2763 -0.3300 -0.3686
 4501W        W 8565   3.757   9.402   2.625 -0.4379 -0.1725 -0.1686
 4502W        W 8566   1.857  10.107   0.144 -0.0566 -0.1431  0.0577
 4503W        W 8567   5.055   3.148   8.296  0.3484  0.4496 -0.0265
 4504W        W 8568   2.084   8.669   3.508 -0.0125  0.0992 -0.1429
 4505W        W 8569   4.815   3.658   7.500  0.1284  0.2023 -0.0940
 4506W        W 8570   4.026   0.971   1.566  0.2941  0.0469 -0.1539
 4507W        W 8571   6.486   9.523   3.891  0.1454 -0.0876 -0.0109
 4508W        W 8572   8.767   2.036   8.125  0.4477 -0.1990  0.0201
 4509W        W 8573   7.898  10.028  11.254  0.1260 -0.0858 -0.0056
 4510W        W 8574   7.667   7.082   2.770  0.2674 -0.1739  0.3301
 4511W        W 8575   7.769   8.335   3.797  0.3842  0.2192  0.0485
 4512W        W 8576   2.078   4.867   3.050 -0.1467 -0.3555  0.2952
 4513W        W 8577   1.888   8.583   9.715 -0.1187 -0.2271 -0.0817
 4514W        W 8578   5.699   1.027   7.574  0.2534 -0.0809 -0.3839
 4515W        W 8579   5.001   1.146  10.689 -0.1241 -0.1229  0.5210
 4516W        W 8580   3.999   7.000  11.264 -0.1223  0.1684  0.1311
 4517W        W 8581   5.516   9.153   0.616 -0.0705 -0.1281 -0.0595
 4518W        W 8582   7.339   3.579  10.425  0.2257 -0.1019 -0.1735
 4519W        W 8583   6.152   6.090  11.009  0.2416  0.0011  0.3419
 4520W        W 8584   4.064   3.677   0.188 -0.0474  0.3320  0.2706
 4521W        W 8585   8.483   7.604   1.544 -0.1916  0.0709 -0.1691
 4522W        W 8586   1.142   4.183  10.415  0.0952 -0.0963  0.0214
 4523W        W 8587   3.625   7.114  10.363  0.0665 -0.2824  0.0151
 4524W        W 8588   4.315   1.427   1.409 -0.1208 -0.1337  0.1819
 4525W        W 8589   6.482   0.771   8.779  0.1283 -0.1002  0.0059
 4526W        W 8590   6.721   7.674   7.088 -0.1858  0.1068  0.0435
 4527W        W 8591   7.650   4.438   3.730 -0.1468  0.2023  0.0739
 4528W        W 8592   2.439   7.220   8.500 -0.2805  0.1078  0.0314
 4529W        W 8593   3.416   0.653   9.663 -0.1499 -0.2784  0.1861
 4530W        W 8594   5.028   5.109   8.635 -0.1690 -0.1698  0.1694
 4531W        W 8595  10.360   5.410  10.614  0.0199 -0.3089 -0.1548
 4532W        W 8596   7.342   3.209   7.568 -0.2638 -0.2871  0.2659
 4533W        W 8597   2.223   1.320   8.925  0.0653  0.0178 -0.0311
 4534W        W 8598   3.226   4.281   8.721  0.1600 -0.1590  0.2747
 4535W        W 8599   8.871   1.780   2.981  0.0664 -0.0448  0.0033
 4536W        W 8600   4.153   6.023   9.325 -0.1600  0.1913 -0.1039
 4537W        W 8601   9.133   4.929   2.413  0.2391  0.0563  0.1232
 4538W        W 8602   6.702   9.423   7.918 -0.0418  0.0770  0.4139
 4539W        W 8603   0.854   7.168   0.539  0.2255 -0.2452 -0.1811
 4540W        W 8604   4.000   0.809   0.091 -0.3696  0.0728  0.3373
 4541W        W 8605  10.403   8.042   2.004 -0.1088 -0.0673  0.0678
 4542W        W 8606   8.823   4.275   3.851  0.1958 -0.0383 -0.0133
 4543W        W 8607   2.327   8.732   2.976 -0.1402 -0.0126  0.0514
 4544W        W 8608   9.260   6.226   2.504  0.1322  0.2067 -0.1188
 4545W        W 8609   9.586   1.113   3.347 -0.0763  0.3551  0.1670
 4546W        W 8610   8.741   0.541   9.959 -0.0811 -0.0722 -0.0876
 4547W        W 8611   7.756   5.857  10.777  0.3175  0.0815  0.0261
 4548W        W 8612   6.518   7.378   0.515  0.0411  0.3020 -0.0791
 4549W        W 8613   3.248  10.499   2.902  0.3511  0.0498  0.4167
 4550W        W 8614   8.834  10.340  11.136 -0.3585 -0.2175 -0.0438
 4551W        W 8615   7.277   6.688  10.468 -0.1908 -0.2451 -0.0100
 4552W        W 8616   6.846   9.901   1.395  0.0670  0.2679 -0.0657
 4553W        W 8617   6.632   7.185   1.002  0.1982  0.0707  0.2168
 4554W        W 8618   0.928   9.686   0.804  0.2865  0.4556 -0.0449
 4555W        W 8619  10.441   4.086   9.940  0.3213  0.1613 -0.0427
 4556W        W 8620   7.607   2.427   9.887 -0.2623 -0.1185  0.0252
 4557W        W 8621   5.286   5.587   1.702  0.1174 -0.2289  0.0179
 4558W        W 8622   0.859   5.194  10.343  0.2386  0.2978  0.0609
 4559W        W 8623   4.243   1.589   3.262 -0.1084 -0.0708  0.0170
 4560W        W 8624   8.505   5.373   8.033  0.0197  0.3569 -0.0594
 4561W        W 8625   7.361   1.015   9.495 -0.1380 -0.0760  0.1160
 4562W        W 8626   3.744   8.296   3.621 -0.0835  0.0243  0.1543
 4563W        W 8627   4.787   3.195   9.927  0.0659 -0.1961 -0.0088
 4564W        W 8628   5.316   2.307  10.911  0.0822 -0.0683  0.0486
 4565W        W 8629   1.926   6.437  10.463 -0.1216 -0.1653 -0.3080
 4566W        W 8630   4.341   9.592  10.394  0.0446 -0.4074  0.0457
 4567W        W 8631   0.548   2.418  11.379  0.0170 -0.0003 -0.1925
 4568W        W 8632   2.004   2.639   8.402 -0.0901 -0.1065  0.1509
 4569W        W 8633   4.876   2.341   9.004  0.0774  0.2979  0.3408
 4570W        W 8634   3.085   5.413  11.097 -0.1024 -0.0767  0.3468
 4571W        W 8635   9.670   5.509   2.798  0.2179  0.0093 -0.0277
 4572W        W 8636   5.964   3.535   9.933 -0.0177  0.0434 -0.1624
 4573W        W 8637   0.281   5.104   0.747 -0.2425 -0.1524 -0.2363
 4574W        W 8638   5.312   3.904   3.307 -0.0517 -0.2454 -0.2670
 4575W        W 8639   4.884   7.455  10.339  0.3180 -0.0668  0.0296
 4576W        W 8640   1.209   8.697   8.725  0.0921 -0.0230  0.0247
 4577W        W 8641  10.045   4.959   2.260 -0.1311  0.0883 -0.0786
 4578W        W 8642   4.218   0.528   1.301  0.0439 -0.0885  0.1406
 4579W        W 8643   5.792   1.385   1.645  0.0164 -0.0526  0.0914
 4580W        W 8644  10.376   0.277   0.123  0.1263 -0.3475  0.2164
 4581W        W 8645   8.238   1.701   1.273  0.2125 -0.1188 -0.2080
 4582W        W 8646   7.284   4.371   0.368  0.0496 -0.1419  0.1369
 4583W        W 8647   9.195   1.220  10.462 -0.0252  0.1091 -0.0762
 4584W        W 8648   9.034   7.586   2.407  0.2004  0.0927 -0.0280
 4585W        W 8649   4.643   5.660  11.543 -0.4755  0.0491 -0.1861
 4586W        W 8650   4.522   9.608   8.531 -0.0585  0.1534  0.4387
 4587W        W 8651   3.411   6.991   9.901  0.2261 -0.1555  0.1522
 4588W        W 8652   5.202   4.722   1.897  0.0742  0.2498 -0.1450
 4589W        W 8653   9.896   3.828   0.108  0.0129 -0.2841  0.2008
 4590W        W 8654   3.300   7.279  11.242  0.2028 -0.2492 -0.0203
 4591W        W 8655   2.505  10.209   9.449 -0.0026  0.2306  0.0107
 4592W        W 8656   3.591   9.926   9.821  0.1372  0.1091 -0.0346
 4593W        W 8657   7.411   4.198   2.557  0.0182 -0.2671 -0.2015
 4594W        W 8658   6.707   7.574  11.186 -0.1035  0.1870  0.0230
 4595W        W 8659   8.498   3.298   0.083 -0.1029 -0.1035  0.1617
 4596W        W 8660   8.756   5.730  10.388 -0.0060  0.0500 -0.1311
 4597W        W 8661   5.240   9.174  11.243 -0.2627  0.1792 -0.1034
 4598W        W 8662   6.853   8.607   3.305  0.0431 -0.1657 -0.1068
 4599W        W 8663   2.892   4.339   9.726  0.2106 -0.0487  0.1475
 4600W        W 8664   4.226   5.779   0.197  0.3655 -0.2343  0.2703
 4601W        W 8665   2.305   9.389  11.283 -0.1001 -0.1096  0.1302
 4602W        W 8666   8.521   7.729   3.058 -0.0622 -0.2719  0.3382
 4603W        W 8667   5.308   2.764  11.131  0.0764 -0.1571  0.0711
 4604W        W 8668   7.648   1.044  10.009 -0.1365 -0.0094  0.0994
 4605W        W 8669   3.946   9.050   1.494 -0.1531 -0.1110 -0.0588
 4606W        W 8670   5.484   8.287  10.147  0.1487  0.0103  0.3003
 4607W        W 8671   5.655   6.780   8.989 -0.2005 -0.2220 -0.1221
 4608W        W 8672   1.735   1.394   2.874  0.2204  0.0321  0.3570
 4609W        W 8673   6.678   3.306   4.336  0.2528  0.0894 -0.2582
 4610W        W 8674   1.692   0.968   9.944  0.0188  0.1237 -0.4350
 4611W        W 8675   9.479   2.860   9.478 -0.1441 -0.1694 -0.1676
 4612W        W 8676   2.798   5.873   2.196 -0.4510  0.1904  0.1673
 4613W        W 8677   4.996   1.754   1.952  0.0985 -0.3891 -0.0874
 4614W        W 8678   7.133   8.276   9.364  0.1592 -0.1110  0.1085
 4615W        W 8679   7.999   7.594  11.178 -0.0157 -0.1351 -0.0618
 4616W        W 8680   5.208   2.664   9.043 -0.0544  0.1045  0.2875
 4617W        W 8681   9.688   4.785  10.209 -0.0436 -0.0109  0.1136
 4618W        W 8682   4.320   0.140  11.048  0.4485 -0.0029 -0.1359
 4619W        W 8683   7.744   9.502   2.414  0.2299 -0.1742 -0.1198
 4620W        W 8684   1.491   2.106   0.870  0.1018 -0.0008  0.1440
 4621W        W 8685   5.321   6.722   0.495  0.1372 -0.0439 -0.1433
 4622W        W 8686   7.007   3.961   9.764 -0.3923 -0.0793 -0.1206
 4623W        W 8687   4.370   5.247  10.708  0.2731  0.0726 -0.1740
 4624W        W 8688   0.161   6.787   1.922  0.0713  0.5159 -0.1629
 4625W        W 8689   7.300   8.608   9.667 -0.3360 -0.2129  0.2453
 4626W        W 8690   7.868   8.550   0.403  0.1665 -0.0747 -0.1945
 4627W        W 8691   9.218   8.221   9.073 -0.2211  0.0297 -0.3962
 4628W        W 8692   5.750   5.149   0.447  0.3350 -0.3683  0.2182
 4629W        W 8693   0.461   4.388  11.503 -0.1409 -0.1608  0.3409
 4630W        W 8694   5.864   8.033   0.063  0.2542  0.0490  0.0978
 4631W        W 8695   8.966   0.018   0.882 -0.3013  0.0508 -0.0153
 4632W        W 8696   5.430   3.423  10.598 -0.0558 -0.2526 -0.2580
 4633W        W 8697   3.516  10.053   2.475 -0.4584 -0.0223  0.1849
 4634W        W 8698   4.487   0.898  11.490  0.1284 -0.4372  0.0815
 4635W        W 8699  10.144   0.779   9.139  0.0922 -0.2085 -0.3443
 4636W        W 8700   4.033   9.715   9.988  0.1688 -0.0693 -0.2362
 4637W        W 8701   5.615   2.302   0.467 -0.1078  0.0575  0.0108
 4638W        W 8702   4.607   2.391   2.611 -0.1833  0.2905  0.3953
 4639W        W 8703   0.898   2.206   0.146 -0.1112 -0.1717 -0.2189
 4640W        W 8704   5.570   8.110   9.109 -0.1041 -0.0543  0.0951
 4641W        W 8705   9.895   4.031  11.219  0.3452  0.2950  0.0530
 4642W        W 8706   1.628   1.816   2.635 -0.0211 -0.1644  0.4785
 4643W        W 8707   1.059   1.099   1.362 -0.0651  0.1386  0.1212
 4644W        W 8708   1.940   5.956   7.794 -0.1768 -0.3937  0.1659
 4645W        W 8709   2.795   2.681   8.755  0.0093  0.0457 -0.1894
 4646W        W 8710   0.972  10.569   0.879  0.0314  0.0807  0.0894
 4647W        W 8711   3.801   6.417   9.047  0.0674  0.0346 -0.1091
 4648W        W 8712   6.289   5.135  10.728  0.1505  0.1463  0.3029
 4649W        W 8713   5.491   1.051   9.495 -0.2521  0.2158  0.0724
 4650W        W 8714   7.356   2.764   1.405 -0.1433  0.0373 -0.0539
 4651W        W 8715   0.099   2.266   9.468 -0.0323 -0.1022  0.0021
 4652W        W 8716  10.492   4.519   1.073 -0.0882 -0.2284 -0.0048
 4653W        W 8717   8.788   7.655   8.783 -0.0135 -0.3193  0.4339
 4654W        W 8718  10.388   1.244   1.332  0.2785 -0.0702  0.2660
 4655W        W 8719   1.733   3.656  10.837 -0.4745  0.0631  0.1372
 4656W        W 8720   9.445   2.546   7.649 -0.0640 -0.1359  0.2136
 4657W        W 8721   1.329   1.591   9.101 -0.1478  0.3676  0.0260
 4658W        W 8722   8.799   9.688   9.832 -0.2691 -0.2844  0.1050
 4659W        W 8723   4.234   3.109   0.541  0.0885  0.0435 -0.0608
 4660W        W 8724   5.606   7.752   9.512 -0.0969  0.4168 -0.1050
 4661W        W 8725   0.811   3.971   9.617  0.0833  0.0526  0.2387
 4662W        W 8726   1.985   5.472  10.101 -0.3099 -0.3853  0.0589
 4663W        W 8727   7.600   8.866   6.657 -0.1637  0.0437  0.3376
 4664W        W 8728   9.269  10.563  11.226  0.1177  0.0086 -0.0254
 4665W        W 8729   5.615   6.852   2.589 -0.2652 -0.0754  0.0874
 4666W        W 8730   9.265   9.246   0.241  0.2555 -0.1061 -0.2229
 4667W        W 8731   8.986   8.351   2.504 -0.1997 -0.0331  0.0727
 4668W        W 8732   7.468   1.974   2.981  0.0833  0.1681  0.0585
 4669W        W 8733   8.328   4.472   8.558 -0.2275  0.0905 -0.0111
 4670W        W 8734   8.248   2.825   0.120  0.4418  0.3743  0.0391
 4671W        W 8735  10.164   6.493   0.059 -0.0888 -0.1596  0.2608
 4672W        W 8736   3.224   8.262   8.617  0.3376  0.3032  0.2612
 4673W        W 8737  10.221   2.953   9.268  0.0319 -0.0026  0.0585
 4674W        W 8738   2.910   3.725   8.430  0.2720 -0.1359 -0.1815
 4675W        W 8739   1.523   9.053   3.170 -0.1321  0.2408  0.0441
 4676W        W 8740   4.987   0.716   2.904  0.0619 -0.3992 -0.0874
 4677W        W 8741   1.579   2.551   8.855 -0.0820 -0.0468 -0.1431
 4678W        W 8742   8.260   3.605  11.381 -0.3930 -0.1046  0.0641
 4679W        W 8743   6.819   6.854   1.377  0.3589 -0.0134 -0.0351
 4680W        W 8744   7.876   0.884   2.212 -0.1585  0.2646 -0.1281
 4681W        W 8745   2.184   9.585   2.658  0.1413  0.2274 -0.2450
 4682W        W 8746   4.247   3.492   9.526 -0.2860  0.0912  0.1327
 4683W        W 8747   4.792   9.316   8.962  0.2515 -0.1783 -0.2639
 4684W        W 8748   1.108   2.242   8.541  0.2109  0.2346 -0.2505
 4685W        W 8749   4.236   1.993   9.657  0.1370  0.0149  0.0170
 4686W        W 8750   2.957   9.341   0.647 -0.1101  0.1095 -0.0841
 4687W        W 8751   6.043   0.996   8.719 -0.1429 -0.0058  0.1386
 4688W        W 8752   2.162   9.149   3.265  0.0409  0.0650 -0.0311
 4689W        W 8753  10.424   9.750   2.405  0.2720  0.1539 -0.0681
 4690W        W 8754   3.998   4.791   7.643  0.2572  0.3741 -0.2490
 4691W        W 8755   4.157   4.169   8.223  0.1145 -0.2485 -0.0154
 4692W        W 8756   1.390   2.673  10.879 -0.0100  0.0869  0.4843
 4693W        W 8757   6.409   7.347   8.846 -0.1329 -0.1595 -0.1144
 4694W        W 8758   8.540   8.850  10.852 -0.0073 -0.0756  0.2071
 4695W        W 8759   7.288   5.853   7.093  0.4930  0.1140  0.0466
 4696W        W 8760   7.494   9.065   9.436 -0.0461 -0.1470 -0.1453
 4697W        W 8761   8.664  10.356   1.956 -0.0459 -0.2978  0.1357
 4698W        W 8762   1.982   3.346   9.116 -0.0929  0.1216 -0.2464
 4699W        W 8763   8.988   3.490   7.601 -0.1309 -0.6352  0.1223
 4700W        W 8764   0.789   9.903   3.739 -0.0893 -0.0600 -0.0741
 4701W        W 8765   9.139   3.443  10.984 -0.0193 -0.1079  0.0035
 4702W        W 8766   7.701   4.866   9.985 -0.0939  0.0128  0.0389
 4703W        W 8767   2.519   4.223   9.313 -0.1309 -0.0795  0.2520
 4704W        W 8768   7.758   2.152   1.865 -0.1952 -0.1363  0.0937
 4705W        W 8769   0.848  10.318   8.381  0.1453 -0.0020  0.2358
 4706W        W 8770   1.346   6.404   9.051 -0.0699 -0.2053 -0.2031
 4707W        W 8771   4.311   7.376  11.175  0.1345  0.1237 -0.0431
 4708W        W 8772   6.677   2.908   8.388 -0.0812 -0.3152  0.3303
 4709W        W 8773   6.933   0.520   1.874 -0.1812  0.0845  0.1268
 4710W        W 8774   8.969   6.011   8.741 -0.3095  0.1589 -0.0188
 4711W        W 8775   4.155   8.020   7.287 -0.0846  0.0309  0.0173
 4712W        W 8776   0.060   1.042   0.985 -0.2577 -0.1784 -0.1769
 4713W        W 8777   2.496   1.430   1.360  0.1939  0.2626 -0.2435
 4714W        W 8778   2.088   6.797   3.656 -0.1757  0.0558  0.0376
 4715W        W 8779   4.822   2.133   3.579 -0.0888  0.0073 -0.1750
 4716W        W 8780  10.145   8.884   1.142 -0.2023 -0.4805  0.0078
 4717W        W 8781   4.588  10.180   9.373 -0.0480 -0.1253  0.4266
 4718W        W 8782   1.035   5.489   9.852 -0.0099  0.4119 -0.1067
 4719W        W 8783   3.873   8.571   9.534  0.0420  0.3425 -0.0727
 4720W        W 8784  10.590  10.358   9.033  0.3606  0.4962 -0.1999
 4721W        W 8785   8.750   2.693   7.942 -0.1155  0.0600  0.1556
 4722W        W 8786   7.349   8.226   2.715 -0.1211  0.2028 -0.2213
 4723W        W 8787   0.193   3.166   9.834 -0.1167  0.1281 -0.1378
 4724W        W 8788   3.360   0.534   9.200  0.0112  0.2030  0.1690
 4725W        W 8789   7.708   3.515   0.771 -0.1307  0.1553 -0.0059
 4726W        W 8790   8.441   0.118   1.803 -0.1105  0.2856  0.2308
 4727W        W 8791  10.480   0.657   1.345 -0.2240  0.0422 -0.0043
 4728W        W 8792   8.803   0.372   3.651 -0.0565 -0.2428  0.1253
 4729W        W 8793   4.813   7.336  10.911 -0.1512  0.1980  0.0260
 4730W        W 8794   6.274   0.636  10.477 -0.0881  0.2303 -0.1628
 4731W        W 8795   9.555   4.385  10.486  0.1580 -0.2599 -0.4607
 4732W        W 8796   5.967   3.605   0.483 -0.3474 -0.1271  0.0407
 4733W        W 8797   4.326   2.211  10.073 -0.0116  0.3592 -0.2127
 4734W        W 8798   0.356   1.061   2.034 -0.1855 -0.1641  0.2074
 4735W        W 8799   6.636   7.160  10.724 -0.1978  0.0372 -0.1512
 4736W        W 8800  10.594   0.988   8.905  0.2243 -0.2121 -0.1899
 4737W        W 8801   8.343   5.500   9.169  0.2394  0.0095 -0.1619
 4738W        W 8802   1.898  10.608   9.110  0.0677 -0.3947 -0.1578
 4739W        W 8803   5.877   1.457   9.769  0.0123  0.1045 -0.2050
 4740W        W 8804   3.227   1.421  10.386  0.1187  0.2602  0.2102
 4741W        W 8805   1.515   8.230   9.515  0.0933 -0.1323  0.4209
 4742W        W 8806   5.260   4.795   0.808  0.1023  0.0833 -0.4180
 4743W        W 8807   0.361   6.958   2.367  0.0479  0.0411  0.0081
 4744W        W 8808   9.290   1.748   0.595  0.0180 -0.1217 -0.3017
 4745W        W 8809   7.407   8.055   1.140 -0.2341  0.0309  0.0057
 4746W        W 8810   8.046   7.969   9.504 -0.0962 -0.4156  0.1280
 4747W        W 8811   0.186   1.393   8.468  0.0062  0.5732 -0.2851
 4748W        W 8812   1.919   9.891  10.209 -0.1587 -0.3729  0.4759
 4749W        W 8813   4.590   2.240   1.508 -0.0086 -0.1108  0.1186
 4750W        W 8814   2.131   3.478  11.084 -0.2013  0.0378  0.0357
 4751W        W 8815   6.899   9.589   1.921 -0.3303  0.0447 -0.0363
 4752W        W 8816   5.548   6.481   9.569 -0.3454 -0.1224 -0.0349
 4753W        W 8817   4.674   9.489  11.250 -0.1919  0.1043  0.4484
 4754W        W 8818   2.074   6.828   7.752 -0.0834 -0.1234 -0.2950
 4755W        W 8819  10.146   5.394   8.992 -0.1329 -0.0895 -0.0636
 4756W        W 8820  10.175  10.230  10.973 -0.1667  0.1717  0.0780
 4757W        W 8821   6.371   8.597   9.353  0.1694 -0.0095 -0.2524
 4758W        W 8822   2.030   6.374   9.515  0.0372 -0.1066 -0.4552
 4759W        W 8823  10.319   3.792   0.820  0.0331 -0.3301  0.1290
 4760W        W 8824   6.885   1.123   2.455  0.0662 -0.2976 -0.0925
 4761W        W 8825   4.247   2.579   1.556 -0.0219 -0.0221 -0.2759
 4762W        W 8826   7.475   4.490   2.121 -0.2355 -0.0857  0.0459
 4763W        W 8827  10.016  10.411   8.727  0.2084  0.0355  0.0133
 4764W        W 8828   1.009   1.940   9.352  0.1330 -0.1511 -0.0248
 4765W        W 8829   6.278   6.639  10.853  0.0124 -0.1681 -0.1858
 4766W        W 8830   6.871   6.326   1.895 -0.0792  0.2470  0.2823
 4767W        W 8831   4.656   9.974   8.875  0.1412 -0.0445  0.1680
 4768W        W 8832   1.852   5.070   1.749  0.1355 -0.0282 -0.3144
 4769W        W 8833   3.077   7.857  10.484  0.3068  0.2147 -0.1520
 4770W        W 8834   1.766   8.172   7.945  0.1041  0.2553  0.2533
 4771W        W 8835   7.569   3.995   3.024 -0.2440  0.0707 -0.0908
 4772W        W 8836   8.483   9.231   0.364 -0.1645  0.2746  0.1011
 4773W        W 8837   3.002   8.891   1.657  0.1563 -0.1758  0.0909
 4774W        W 8838  10.541   2.118   7.808  0.0040  0.2026  0.0606
 4775W        W 8839   9.527   4.605   3.820 -0.1496  0.1937 -0.1756
 4776W        W 8840   6.951  10.258   6.972 -0.2129 -0.0330 -0.2425
 4777W        W 8841   8.624   3.641   2.610 -0.0615 -0.3161  0.0217
 4778W        W 8842   1.256   7.524   2.907 -0.2890  0.2438 -0.0355
 4779W        W 8843  10.017   7.546   8.047 -0.0233 -0.0088  0.1073
 4780W        W 8844   0.116   7.447   7.457 -0.1819  0.1191  0.1199
 4781W        W 8845   3.882   9.148  10.914 -0.1445  0.0795  0.1877
 4782W        W 8846   8.749  10.393   1.427 -0.1574  0.0473  0.1422
 4783W        W 8847   6.350   3.746   2.340  0.0750 -0.2071  0.1733
 4784W        W 8848   2.697   2.799   0.292 -0.3904  0.0510  0.1732
 4785W        W 8849   0.092   6.330   9.096  0.1854 -0.1653  0.0402
 4786W        W 8850  10.105   0.418  10.374  0.5527  0.0108  0.0095
 4787W        W 8851   0.497   6.806   9.024 -0.2136 -0.2696  0.0170
 4788W        W 8852   9.230   5.746  10.583  0.1555  0.1097  0.2852
 4789W        W 8853   9.652   2.300   1.018  0.0330  0.0541 -0.1382
 4790W        W 8854   0.143   3.201   2.108 -0.0519  0.1129 -0.0243
 4791W        W 8855   8.336   8.452   8.942 -0.3811 -0.0498  0.1328
 4792W        W 8856   9.635   3.285   0.216 -0.0680 -0.0348 -0.1672
 4793W        W 8857   8.771   9.299   3.382  0.0986  0.0948 -0.0822
 4794W        W 8858   2.976   7.251   9.157  0.0903  0.0584 -0.2154
 4795W        W 8859   9.912   0.260   2.294 -0.0497  0.0462  0.2502
 4796W        W 8860  10.082   4.341   9.655  0.3373  0.2649 -0.1655
 4797W        W 8861   8.240   7.472   0.059 -0.0617 -0.0171  0.4492
 4798W        W 8862   9.801   9.001   8.772  0.0757  0.0502  0.0121
 4799W        W 8863   4.548   8.638  11.259  0.0102 -0.1050  0.2771
 4800W        W 8864   3.518   0.075   0.361  0.0608  0.0968  0.2014
 4801W        W 8865   2.792  10.615   9.585  0.0410  0.2086 -0.1153
 4802W        W 8866   0.995   3.949   2.734 -0.0396  0.0165  0.0643
 4803W        W 8867   4.502   3.767   3.436 -0.1035  0.0734 -0.0410
 4804W        W 8868  10.624   3.570  10.611  0.1972 -0.1465  0.0518
 4805W        W 8869   6.416   3.532   0.171  0.2874  0.1544 -0.1949
 4806W        W 8870   0.357   9.455   1.201  0.1027 -0.0548  0.2648
 4807W        W 8871  10.216   8.088   1.519  0.0894 -0.2195 -0.1478
 4808W        W 8872   5.988   2.265  11.538 -0.3511 -0.2196 -0.0422
 4809W        W 8873   6.921   4.470   8.629 -0.2602 -0.0206 -0.1780
 4810W        W 8874   4.854   6.914   8.071 -0.3321 -0.0262 -0.1230
 4811W        W 8875   2.485   0.144   3.508 -0.0928  0.1348 -0.2612
 4812W        W 8876   9.387   3.817   1.779  0.1387 -0.0045  0.0130
 4813W        W 8877   3.248   2.650   1.086  0.0312  0.2326 -0.0702
 4814W        W 8878   6.122  10.538   8.391 -0.2476  0.2197  0.6709
 4815W        W 8879   3.721   2.692   0.153 -0.1011  0.2150  0.2806
 4816W        W 8880   7.101   8.018   0.173 -0.0143  0.1540 -0.4125
 4817W        W 8881   7.652  10.055   9.378 -0.0803  0.2102  0.3314
 4818W        W 8882   8.618   5.346  10.109  0.0836  0.1545  0.1287
 4819W        W 8883   3.264   1.417   8.786  0.2093  0.1190 -0.2286
 4820W        W 8884   8.895   9.008   1.904  0.1909  0.0140  0.0218
 4821W        W 8885   8.774   1.939   3.547  0.1623  0.1551 -0.0236
 4822W        W 8886   8.426   9.781   9.106  0.0246 -0.0821 -0.1573
 4823W        W 8887   6.835   9.677  10.290 -0.3462  0.0361 -0.0127
 4824W        W 8888   3.408   8.281   0.956  0.0241 -0.2416 -0.0305
 4825W        W 8889   0.075   4.576   0.095  0.0204 -0.2090 -0.1917
 4826W        W 8890   1.095   8.285   2.238 -0.1586  0.1215 -0.2983
 4827W        W 8891   6.817   3.440   9.713  0.1465  0.3260  0.0541
 4828W        W 8892   8.817  10.173   2.902 -0.3938 -0.1476  0.0051
 4829W        W 8893   0.450   4.693  10.734  0.1022  0.3176 -0.0405
 4830W        W 8894   3.759   1.487   9.273 -0.0449 -0.2293  0.0895
 4831W        W 8895   8.605   1.322   1.162  0.1967 -0.2249 -0.1064
 4832W        W 8896   3.496   8.953   9.471 -0.2170  0.3549 -0.0654
 4833W        W 8897   0.332   5.186   2.105  0.0675  0.2251  0.0608
 4834W        W 8898  10.160   0.002  10.043  0.1936 -0.3288 -0.0418
 4835W        W 8899   5.946   4.471  10.352  0.2183 -0.0196 -0.0508
 4836W        W 8900   1.557   0.055   3.565  0.0517  0.0129  0.0087
 4837W        W 8901  10.126  10.468   3.269  0.0848 -0.1647  0.2188
 4838W        W 8902  10.547   7.737   7.792 -0.1676  0.2453  0.0725
 4839W        W 8903   9.702  10.181  11.228 -0.0699  0.3201 -0.3554
 4840W        W 8904   2.154   5.247   1.319  0.2457  0.1846 -0.1223
 4841W        W 8905   6.813   9.487   9.597  0.2483 -0.0248  0.1016
 4842W        W 8906   8.303   3.892   1.238 -0.0840 -0.1057  0.1329
 4843W        W 8907   8.643   9.181   0.935 -0.0615 -0.0874 -0.3199
 4844W        W 8908   3.978   4.178  11.519 -0.2702  0.5698  0.1079
 4845W        W 8909   8.958   2.628   7.476 -0.0254 -0.1005  0.1594
 4846W        W 8910   6.508   6.620   1.765  0.0082 -0.1174  0.2535
 4847W        W 8911   5.174   4.733  10.801  0.0934 -0.1112 -0.0482
 4848W        W 8912   3.056   1.205   3.104  0.1706 -0.1469  0.0752
 4849W        W 8913   8.535   0.214   7.542 -0.2190  0.4362 -0.0235
 4850W        W 8914   8.334  10.225   0.336  0.1708 -0.0631  0.0471
 4851W        W 8915   2.870   5.328   3.226 -0.2039  0.2598 -0.0946
 4852W        W 8916   2.324   4.064   0.451 -0.0723  0.0705  0.2639
 4853W        W 8917   8.201   2.974   1.677 -0.2169 -0.0155 -0.1575
 4854W        W 8918   7.081   2.626   8.943 -0.4565 -0.1673 -0.1411
 4855W        W 8919   1.892   8.249   1.846 -0.1848 -0.1350  0.0618
 4856W        W 8920   5.536   1.092   0.664 -0.1594 -0.1972  0.3771
 4857W        W 8921   9.420   0.583   1.630 -0.1051  0.0950  0.1285
 4858W        W 8922   9.916   5.881   2.014 -0.1626 -0.0814 -0.2961
 4859W        W 8923   5.309   6.920   3.491 -0.2889 -0.1591  0.2732
 4860W        W 8924   3.462   7.329   7.490  0.1384  0.1864 -0.2272
 4861W        W 8925   2.146   2.263   1.492  0.1293 -0.0765  0.2490
 4862W        W 8926   7.979   9.170   9.550 -0.1729  0.1808 -0.1288
 4863W        W 8927   9.208   1.673   8.654  0.1894  0.1963 -0.0794
 4864W        W 8928   8.094   7.707   7.730 -0.0693 -0.0796 -0.1837
 4865W        W 8929   9.526   7.024   1.031  0.0956 -0.4553 -0.1569
 4866W        W 8930   3.210   8.439   7.974 -0.0268 -0.1932 -0.1348
 4867W        W 8931  10.183   4.508   1.489 -0.0956  0.2890 -0.2016
 4868W        W 8932   2.323   1.697   1.025  0.0953  0.0114 -0.0225
 4869W        W 8933   6.942   4.351   4.325 -0.1357 -0.1816  0.1850
 4870W        W 8934   9.383   6.228  10.422 -0.2042 -0.0650 -0.1389
 4871W        W 8935  10.039   7.815   0.136 -0.0226 -0.1086 -0.0951
 4872W        W 8936   6.176   3.268   2.090  0.0430 -0.0882  0.0289
 4873W        W 8937   4.976   7.033   7.566  0.0951  0.1726  0.0284
 4874W        W 8938   5.272   7.104   8.187  0.2111 -0.1231 -0.2519
 4875W        W 8939   5.792   1.960   8.699 -0.1019 -0.1308  0.0015
 4876W        W 8940   9.829   7.828   1.484  0.0755  0.1386  0.2784
 4877W        W 8941   8.596   6.339   9.927 -0.0730  0.0493 -0.1160
 4878W        W 8942   7.270   9.450   9.947 -0.0760 -0.1651 -0.0459
 4879W        W 8943   4.326   9.076   8.380  0.0083 -0.0241 -0.0192
 4880W        W 8944   9.262   8.785   1.613 -0.0134  0.0435  0.2651
 4881W        W 8945   1.052   7.966   0.997  0.1343  0.2287  0.2735
 4882W        W 8946   9.474   2.398   3.908 -0.4886 -0.2501  0.0884
 4883W        W 8947  10.092   1.845   8.865 -0.1145  0.0579 -0.1949
 4884W        W 8948  10.371   6.539   7.846 -0.0540  0.2869  0.1177
 4885W        W 8949   8.345   9.965   3.105 -0.3633 -0.1111 -0.0205
 4886W        W 8950   6.463   0.792   2.012 -0.2894 -0.0394 -0.3848
 4887W        W 8951  10.613   4.526   0.583  0.1395  0.1361  0.4221
 4888W        W 8952  10.373   1.790   0.473 -0.1226  0.0200  0.2039
 4889W        W 8953  10.324   6.293   3.905  0.2893  0.2670 -0.1387
 4890W        W 8954  10.119   7.576   9.311 -0.2698  0.5804  0.3951
 4891W        W 8955  10.032   2.083  10.539  0.2128 -0.2855 -0.0062
 4892W        W 8956  10.095   0.858   8.630 -0.0191 -0.1490  0.0920
 4893W        W 8957   0.461   5.808   0.338  0.2843 -0.1494 -0.0331
 4894W        W 8958   4.295   1.277   0.245  0.2661 -0.2066  0.3162
 4895W        W 8959   2.272   6.147   1.882  0.0126  0.3972  0.2093
 4896W        W 8960   7.306   6.358   9.087  0.1178  0.2455 -0.0495
 4897W        W 8961   6.708   2.595   7.523 -0.1418  0.0347  0.0971
 4898W        W 8962   6.377   4.649  10.822  0.1337 -0.3425  0.1419
 4899W        W 8963   5.577   2.841   7.655 -0.3003  0.3225  0.2626
 4900W        W 8964   3.620   4.769   9.531  0.1130 -0.2335 -0.1361
 4901W        W 8965   4.419   5.720   0.641 -0.3428 -0.0560 -0.2799
 4902W        W 8966   1.928   2.534   1.019  0.0289  0.2494  0.0311
 4903W        W 8967   5.186   6.167   1.845 -0.0782 -0.1276 -0.0296
 4904W        W 8968   4.130   8.132   3.016  0.1133  0.0443 -0.2080
 4905W        W 8969   8.203   7.169  10.275  0.4619 -0.1517  0.1732
 4906W        W 8970   6.707   0.085   1.637 -0.0416  0.0207 -0.5602
 4907W        W 8971   6.927   7.918  10.338 -0.0021 -0.0360  0.2471
 4908W        W 8972   9.563   9.312  10.018 -0.5298 -0.1184 -0.0336
 4909W        W 8973  10.015   8.622   0.731  0.1017 -0.3157 -0.0576
 4910W        W 8974   5.274   3.114  10.166  0.2511  0.0187 -0.2579
 4911W        W 8975   0.183   3.681   1.549 -0.1028  0.1011  0.1969
 4912W        W 8976   6.348   2.597   0.668 -0.1680 -0.0812 -0.2130
 4913W        W 8977   5.918   8.940   9.752 -0.0292 -0.0521  0.1622
 4914W        W 8978   3.071   4.572   8.008  0.2943 -0.0914 -0.2768
 4915W        W 8979  10.454   5.543   7.743 -0.2275 -0.0594  0.2241
 4916W        W 8980   9.088   3.689  10.552 -0.0789  0.2585 -0.1476
 4917W        W 8981   2.756   6.070   1.671 -0.0345 -0.0807  0.0802
 4918W        W 8982   4.685  10.516   1.950 -0.1068 -0.1156 -0.1866
 4919W        W 8983   0.179   7.076  11.259 -0.0062  0.2718 -0.0814
 4920W        W 8984   1.659   5.758  10.342  0.1445  0.0965 -0.0975
 4921W        W 8985   7.517   1.194   2.323 -0.1546  0.1861  0.0547
 4922W        W 8986   3.064   2.900   9.982  0.3371  0.3312 -0.0241
 4923W        W 8987   0.044   8.162   3.750 -0.0162  0.1252  0.1042
 4924W        W 8988   0.452   4.214   0.401 -0.2389 -0.6059  0.0923
 4925W        W 8989   7.475   2.640   6.951 -0.3441 -0.0491  0.1877
 4926W        W 8990   9.926   4.623   2.683 -0.1490  0.1092 -0.0013
 4927W        W 8991   1.941   2.823   0.574  0.0720  0.0531 -0.4505
 4928W        W 8992   3.235   7.720   8.624 -0.1064  0.1435 -0.1896
 4929W        W 8993   7.088   7.136   3.601 -0.1741  0.2422 -0.1456
 4930W        W 8994   6.248   5.301   2.552  0.0963 -0.2120 -0.0848
 4931W        W 8995   9.153   2.953  10.936 -0.0739  0.2895 -0.2437
 4932W        W 8996   7.657   9.181  10.445 -0.0256  0.0657 -0.0272
 4933W        W 8997   5.602   1.985   0.066 -0.0951  0.1598  0.1749
 4934W        W 8998   3.052   7.283  10.162 -0.1704 -0.1365  0.0983
 4935W        W 8999   7.255   1.667   1.125 -0.3263 -0.1920 -0.0217
 4936W        W 9000   4.667   5.913   9.385  0.0429 -0.3135  0.0391
 4937W        W 9001   4.130   9.219   3.510 -0.0989 -0.0575  0.0645
 4938W        W 9002   9.931   4.759   1.124  0.1022 -0.1898  0.1291
 4939W        W 9003   6.788   6.411   3.031  0.0590 -0.2307 -0.1221
 4940W        W 9004   5.968   9.992   8.084  0.0258  0.0445  0.0849
 4941W        W 9005   8.592   0.054   8.083  0.1233  0.2692  0.0252
 4942W        W 9006   7.426   0.330  11.028 -0.0294  0.2188 -0.0201
 4943W        W 9007   0.573   1.788   1.565 -0.0936 -0.2941  0.2533
 4944W        W 9008   7.809   0.037   0.921 -0.1344 -0.1338  0.3148
 4945W        W 9009   1.351   9.588   9.710 -0.3521  0.0679 -0.2006
 4946W        W 9010   3.924   0.324  10.823 -0.1924  0.1510  0.0662
 4947W        W 9011   9.343   6.479   9.373 -0.2550  0.2355 -0.2244
 4948W        W 9012  10.158   2.481   0.930 -0.0828 -0.2582  0.2356
 4949W        W 9013   6.125   6.567   9.987  0.2199  0.3515  0.2104
 4950W        W 9014   0.858   7.327   3.258 -0.1194  0.0334  0.1418
 4951W        W 9015   5.172   1.898   9.285 -0.0438 -0.2843  0.1557
 4952W        W 9016   3.642   4.934   1.257  0.3210 -0.1386 -0.0208
 4953W        W 9017   8.835   4.424   9.931  0.0629 -0.2534 -0.2896
 4954W        W 9018   8.712   4.333   3.180 -0.0184 -0.0787 -0.0202
 4955W        W 9019   4.862   4.322   0.124  0.0155  0.0862 -0.2541
 4956W        W 9020   1.949   2.169   9.241 -0.0323 -0.0193  0.0049
 4957W        W 9021   1.375   2.615  10.020  0.0863 -0.2630 -0.1348
 4958W        W 9022   3.792   8.508   3.008  0.0820  0.3437 -0.0631
 4959W        W 9023   4.312   2.105   8.691 -0.1705 -0.0053  0.2787
 4960W        W 9024  10.127   4.686   7.830 -0.0814  0.0169  0.1512
 4961W        W 9025   9.755   9.580   9.662 -0.2067  0.0885 -0.4656
 4962W        W 9026   8.488   9.834   8.512 -0.3362 -0.0102 -0.3375
 4963W        W 9027   5.511   2.385   2.447 -0.0642 -0.2952 -0.0332
 4964W        W 9028   7.801   3.559   1.412 -0.2101 -0.0893 -0.0452
 4965W        W 9029   3.019   4.569  10.552 -0.0874 -0.1499 -0.0497
 4966W        W 9030   8.133   1.617  10.987  0.0135  0.0355 -0.0582
 4967W        W 9031   3.916   1.226   2.060 -0.3336  0.1956 -0.1400
 4968W        W 9032  10.256   2.634  11.136  0.0467  0.2374 -0.3588
 4969W        W 9033   4.225   8.543   0.735 -0.0974 -0.0548  0.2450
 4970W        W 9034   9.865   7.850   9.577 -0.1037 -0.0911  0.3855
 4971W        W 9035   5.513   6.974   7.583  0.2128 -0.0325 -0.1397
 4972W        W 9036   0.980   2.399   0.598  0.2228  0.2590  0.0380
 4973W        W 9037   0.994   0.785   3.372 -0.1820 -0.0000  0.0678
 4974W        W 9038   3.466   4.334  11.363  0.0275 -0.1779 -0.1085
 4975W        W 9039   3.738   2.599   2.346  0.2237  0.1070  0.1945
 4976W        W 9040   7.246   8.432   0.438 -0.0501  0.3380  0.0894
 4977W        W 9041  10.198   8.984   3.067 -0.1793  0.4136 -0.4663
 4978W        W 9042   5.517   2.731   0.184  0.0529 -0.1019  0.3607
 4979W        W 9043  10.393   9.111   3.531 -0.0375  0.4137 -0.3274
 4980W        W 9044   9.088   2.860   1.323 -0.1397 -0.0451  0.0409
 4981W        W 9045   5.443   1.078  10.475 -0.2327  0.1654  0.0734
 4982W        W 9046   8.592   4.056  11.298  0.2628  0.0316 -0.1394
 4983W        W 9047   1.541   9.887   2.900  0.1031 -0.0158 -0.2195
 4984W        W 9048   3.536   1.042   0.835  0.0620 -0.0065  0.1557
 4985W        W 9049   2.185   2.562   1.984 -0.0744  0.2232  0.0952
 4986W        W 9050   0.335   6.702   1.011 -0.3488 -0.0305 -0.0442
 4987W        W 9051   5.074   3.673   3.705  0.2469 -0.1568 -0.0435
 4988W        W 9052   9.643   9.573   1.000 -0.1331  0.0127  0.0484
 4989W        W 9053   8.700   0.621   2.690  0.1257 -0.0035 -0.0423
 4990W        W 9054   8.584   7.822   9.695 -0.2817 -0.1630  0.0521
 4991W        W 9055   7.992   7.202   1.281  0.0666  0.2234 -0.1527
 4992W        W 9056   5.301   5.451   9.783 -0.1267 -0.0180 -0.1167
 4993W        W 9057   0.189   6.345   9.662  0.2005  0.0948 -0.1410
 4994W        W 9058   2.552   0.464   0.765  0.1905  0.0609 -0.2379
 4995W        W 9059   5.041   9.934   8.063  0.1930 -0.1752 -0.1286
 4996W        W 9060   6.749   5.000   2.493  0.1708  0.0076  0.1758
 4997W        W 9061   5.142   3.304   7.754  0.0344  0.0218  0.0833
 4998W        W 9062   4.325   5.893   1.656 -0.0225 -0.0191  0.0831
 4999W        W 9063   1.502   6.330   1.818  0.0611  0.0260  0.2169
 5000W        W 9064   0.567   1.090   1.142  0.2607  0.0442  0.2060
 5001W        W 9065   5.976   1.105  11.415 -0.0207 -0.1484  0.1044
 5002W        W 9066   8.862   9.800   8.838  0.0559 -0.0739 -0.2772
 5003W        W 9067   8.817   5.820   8.198 -0.3084  0.0115  0.0278
 5004W        W 9068   3.921   4.121   3.130 -0.0454  0.1634  0.3299
 5005W        W 9069   8.630   1.697   9.674  0.1668  0.0615  0.2471
 5006W        W 9070   2.149   1.054  11.027  0.1977  0.0639 -0.0426
 5007W        W 9071   3.100   3.107  11.247 -0.0251 -0.1223  0.0221
 5008W        W 9072   3.403   5.803  11.267  0.3709 -0.0268  0.0445
 5009W        W 9073  10.049   9.468   8.893 -0.2365 -0.0654 -0.0906
 5010W        W 9074   8.688   3.086   3.067  0.1528  0.1259  0.0008
 5011W        W 9075   9.935   9.413   1.596  0.0087 -0.2109 -0.0807
 5012W        W 9076   2.765   9.560  11.332 -0.0385  0.1871 -0.0119
 5013W        W 9077   6.399   1.188   1.578 -0.0676  0.0569 -0.0710
 5014W        W 9078   1.435   7.806   3.844  0.3511  0.0098 -0.1859
 5015W        W 9079   1.978   1.268   0.435 -0.2079  0.0303  0.0405
 5016W        W 9080   6.842   9.028   2.274  0.2349  0.1453 -0.1623
 5017W        W 9081   6.203   9.337  11.223  0.2074 -0.0942  0.0250
 5018W        W 9082   1.533   3.842   1.869 -0.2997  0.1003  0.0889
 5019W        W 9083   3.524   3.734   0.977 -0.2862 -0.0709 -0.1040
 5020W        W 9084   8.229   8.589   1.529  0.1923  0.0285  0.1525
 5021W        W 9085   4.909   1.251   1.583  0.2341 -0.2656  0.2051
 5022W        W 9086   2.363   1.835   2.431 -0.2783  0.0074  0.0733
 5023W        W 9087   7.211   6.282   9.601  0.0371  0.0898  0.2843
 5024W        W 9088   0.620   6.050   7.785  0.0323 -0.0965  0.1142
 5025W        W 9089   1.037   9.379   1.970  0.1607 -0.0398  0.1164
 5026W        W 9090   9.622   4.634   2.248  0.0382  0.1680 -0.3133
 5027W        W 9091   0.375   0.362   9.586  0.3669  0.0161 -0.0383
 5028W        W 9092   4.918   0.706   8.293 -0.2346  0.0542  0.1120
 5029W        W 9093   3.861   3.507   1.377  0.0031 -0.1820 -0.0788
 5030W        W 9094   7.515   1.969  10.298  0.0337  0.3010 -0.0445
 5031W        W 9095   6.443   3.057   0.312  0.2129  0.3230  0.3885
 5032W        W 9096   9.893   4.485   8.772 -0.3733 -0.2368 -0.0139
 5033W        W 9097   3.540   6.456   7.691  0.0649 -0.0664 -0.2796
 5034W        W 9098   8.631   9.378   8.964  0.3076 -0.0469 -0.2521
 5035W        W 9099   5.056   6.605  10.905 -0.2860  0.1930 -0.1775
 5036W        W 9100   7.983   5.398   2.130  0.2490 -0.0642  0.1210
 5037W        W 9101   3.565   3.351   8.162  0.1082 -0.0307 -0.0151
 5038W        W 9102   3.627   5.887   1.596 -0.0572  0.1626  0.2124
 5039W        W 9103   6.283   7.362   2.943  0.0588  0.0583  0.0576
 5040W        W 9104   6.572   3.326   8.105 -0.0629  0.2587  0.0944
 5041W        W 9105   0.431   7.801   9.284  0.0339  0.0322  0.0280
 5042W        W 9106   0.324   0.871  11.135 -0.1375  0.1294 -0.1282
 5043W        W 9107   2.722   0.494   1.217 -0.2077  0.3517 -0.3881
 5044W        W 9108   4.030   1.984   9.114 -0.0655  0.2309 -0.0408
 5045W        W 9109   4.467   6.510   0.223  0.0401 -0.2737 -0.0757
 5046W        W 9110   0.706   8.898   9.336  0.0668 -0.0192 -0.1017
 5047W        W 9111   9.739   1.098   9.803 -0.1505 -0.0750  0.4117
 5048W        W 9112   6.478   5.925  11.326  0.1510  0.1624 -0.2278
 5049W        W 9113   8.187   1.116   0.382 -0.3769 -0.4609  0.1988
 5050W        W 9114   5.200   8.645   2.463 -0.4362  0.1242  0.1196
 5051W        W 9115   1.565   2.904   0.915 -0.3943  0.0001 -0.1236
 5052W        W 9116   2.063   5.494  10.659  0.0981  0.0810 -0.1815
 5053W        W 9117   1.654  10.407  11.322 -0.0152 -0.1213 -0.0695
 5054W        W 9118   5.456   9.054   8.347 -0.1657  0.1369 -0.1891
 5055W        W 9119   3.567   2.792  10.044  0.0183 -0.2705 -0.1046
 5056W        W 9120   6.926   9.232   1.292 -0.3127 -0.0844  0.0242
 5057W        W 9121   8.466   4.871   1.236  0.0554 -0.3126  0.4364
 5058W        W 9122   4.278   8.396   9.198  0.0625  0.0908  0.3815
 5059W        W 9123   0.836   2.876   9.148 -0.1590  0.0522 -0.0366
 5060W        W 9124   0.075  10.352   1.432  0.1491  0.0838  0.1070
 5061W        W 9125   0.189   5.955   2.126 -0.0201 -0.0470 -0.0829
 5062W        W 9126   4.790   9.497   8.046 -0.0227 -0.1405 -0.1994
 5063W        W 9127   9.670   6.442  11.232 -0.1775 -0.0403 -0.1971
 5064W        W 9128   2.490   0.211   9.936  0.0399  0.1382 -0.1566
 5065W        W 9129   6.036   8.325   7.465 -0.1466 -0.1425 -0.1247
 5066W        W 9130   5.736   0.643   7.922 -0.2877 -0.0925 -0.4779
 5067W        W 9131   9.219   9.259   0.882  0.1144 -0.1901  0.0121
 5068W        W 9132   9.037   1.245   1.307 -0.1075  0.0502 -0.1214
 5069W        W 9133   6.170   9.042   9.225 -0.5837 -0.0113  0.3866
 5070W        W 9134  10.022   7.776   7.530 -0.0561  0.2272 -0.1252
 5071W        W 9135   6.748   1.887   7.795 -0.1540  0.1168  0.3152
 5072W        W 9136   5.739   2.231  10.005 -0.1366 -0.2888  0.3476
 5073W        W 9137   7.508   8.960   9.956 -0.0134 -0.0939 -0.1692
 5074W        W 9138   9.884   5.618   3.238 -0.3952  0.1872 -0.2425
 5075W        W 9139   5.183   8.417   1.873 -0.0112 -0.0797  0.3073
 5076W        W 9140   4.223   2.751   2.625  0.2768  0.2444 -0.0248
 5077W        W 9141   6.244   5.855   9.318  0.0758  0.2776 -0.0210
 5078W        W 9142   0.585   4.779   8.560 -0.1792  0.2060  0.0458
 5079W        W 9143   5.826   9.389  10.560 -0.0340 -0.0716  0.2819
 5080W        W 9144   9.828   4.226   4.061  0.1660  0.1997  0.2319
 5081W        W 9145   5.437   4.773   7.801  0.1338 -0.0010  0.1080
 5082W        W 9146   6.070   9.958   0.811 -0.0500  0.0903  0.3532
 5083W        W 9147   4.830   4.003   3.030  0.0627  0.0019  0.0077
 5084W        W 9148   9.605   6.026   9.404  0.0552  0.1922 -0.0961
 5085W        W 9149   2.078   2.306   2.395  0.3086  0.4399  0.0587
 5086W        W 9150   8.108   5.632   1.645  0.0941 -0.0321  0.1674
 5087W        W 9151   9.676   8.214   2.562  0.3443 -0.2274 -0.1726
 5088W        W 9152   8.359   3.931   3.130  0.1299  0.0007  0.1946
 5089W        W 9153   2.085   4.303   0.002  0.0805  0.1070 -0.0145
 5090W        W 9154   0.755   3.993   1.762 -0.2455  0.1057  0.1418
 5091W        W 9155   1.428   3.184   3.181 -0.1361 -0.3265 -0.0688
 5092W        W 9156   4.211   2.845   9.080 -0.1662  0.0224 -0.0726
 5093W        W 9157   2.061   9.999   2.965 -0.0087 -0.0617  0.2615
 5094W        W 9158   2.932   0.966  10.475  0.0895  0.1081 -0.1294
 5095W        W 9159   7.852   0.101   2.939 -0.2768  0.1319 -0.4147
 5096W        W 9160   7.156   3.538  11.149 -0.3312 -0.2158 -0.2093
 5097W        W 9161   5.184  10.015   3.388  0.0205  0.0680  0.0554
 5098W        W 9162   5.499   3.176  11.418  0.0873  0.4012 -0.2073
 5099W        W 9163  10.311   8.168  11.391 -0.1084  0.0570  0.0049
 5100W        W 9164   1.111   9.105  11.144 -0.0562 -0.0887  0.1486
 5101W        W 9165   6.310   5.611   3.130 -0.0553  0.2115  0.0083
 5102W        W 9166   0.147   3.585   7.580  0.0446  0.0761  0.0921
 5103W        W 9167   6.543   4.949   1.283  0.2335 -0.2072 -0.1073
 5104W        W 9168   3.932   5.000   1.818 -0.2771 -0.1932 -0.2162
 5105W        W 9169   3.677   0.788   1.968  0.0397 -0.2176  0.1021
 5106W        W 9170   1.848   1.220  11.552 -0.1346  0.1472  0.1534
 5107W        W 9171   1.115   8.912   9.616  0.0087  0.1306 -0.2036
 5108W        W 9172   2.173   8.261   1.394  0.0908  0.0713 -0.1633
 5109W        W 9173   2.105   2.189   0.135  0.0458 -0.4020 -0.1037
 5110W        W 9174   4.054   8.701   8.142 -0.0579 -0.0950 -0.0990
 5111W        W 9175   3.477   0.720   8.613 -0.0004  0.2610  0.1009
 5112W        W 9176   9.492  10.011   2.634 -0.0509 -0.1001  0.0896
 5113W        W 9177   0.251   6.611   7.757  0.0187 -0.0023  0.0809
 5114W        W 9178   9.809   5.006   8.934  0.0138  0.1862 -0.0042
 5115W        W 9179   4.906   2.599  10.818 -0.0955  0.0377  0.0915
 5116W        W 9180   5.107   1.098   8.652  0.0182 -0.1538 -0.1399
 5117W        W 9181   9.011   8.570  11.067 -0.3301 -0.2604  0.1767
 5118W        W 9182   4.011   3.621   8.422  0.2509  0.2485  0.0799
 5119W        W 9183   7.841   9.810   2.037 -0.1257 -0.1216 -0.2053
 5120W        W 9184   6.807   8.443   9.027 -0.2769  0.0647  0.1615
 5121W        W 9185   3.610   9.246   3.424 -0.1284 -0.1185  0.2292
 5122W        W 9186   7.145   4.963  11.350 -0.0172  0.0310 -0.2515
 5123W        W 9187   7.507   3.186  11.425 -0.2154  0.0621  0.1249
 5124W        W 9188   0.964   4.671  11.086 -0.3353 -0.1078  0.1340
 5125W        W 9189   9.587   2.796   1.131 -0.0770 -0.1933  0.2588
 5126W        W 9190   0.237   2.679   7.662 -0.2371  0.1197  0.0842
 5127W        W 9191   2.911   1.701   0.203  0.0014 -0.2140  0.0682
 5128W        W 9192   2.317  10.300   8.911 -0.1128  0.2510  0.2874
 5129W        W 9193   6.041   0.234   7.889 -0.0541 -0.2237  0.1655
 5130W        W 9194   2.073   2.514   9.593 -0.1597  0.0469  0.1105
 5131W        W 9195   0.145   2.072   8.336 -0.0990  0.3066 -0.0405
 5132W        W 9196   7.778   8.511   8.749  0.0185  0.0026  0.1175
 5133W        W 9197   9.013   3.271   9.592  0.0607  0.0711 -0.0131
 5134W        W 9198   9.622   5.502   9.729  0.0063  0.0435  0.1663
 5135W        W 9199   0.770   1.238   3.374  0.2168  0.1480 -0.2747
 5136W        W 9200  10.515   6.424   7.386 -0.0505 -0.1951 -0.1292
 5137W        W 9201   9.047   0.683  10.826 -0.2719  0.0704 -0.0193
 5138W        W 9202   2.640   5.692   2.791 -0.1550 -0.2947  0.0145
 5139W        W 9203   5.902   4.166   9.234  0.1426  0.1290  0.3163
 5140W        W 9204   7.985   2.498   8.161 -0.0216  0.0095  0.2190
 5141W        W 9205   2.772   9.447   8.745 -0.1757 -0.1619 -0.0241
 5142W        W 9206   9.522   3.875   9.971 -0.0480  0.1158 -0.0385
 5143W        W 9207   4.236   6.297   3.421 -0.2680  0.1280 -0.0903
 5144W        W 9208   8.781   7.486   0.645  0.1214  0.1743 -0.1567
 5145W        W 9209   1.812   0.124   2.423 -0.0083 -0.1035 -0.0180
 5146W        W 9210   5.747   8.997   1.053  0.1257  0.2162 -0.1523
 5147W        W 9211   8.312   6.889   4.064  0.1989  0.3754  0.0020
 5148W        W 9212  10.470   4.901   1.474  0.0281 -0.1124  0.3352
 5149W        W 9213   4.964   8.919   9.989  0.0599  0.0231  0.2699
 5150W        W 9214   8.857   8.601  10.575  0.0727 -0.1676  0.0875
 5151W        W 9215   6.726   0.250   9.126 -0.0704 -0.0300  0.0543
 5152W        W 9216   7.634   5.587   8.353  0.0862 -0.1231 -0.1765
 5153W        W 9217  10.164   8.222   3.886 -0.0378 -0.3572 -0.0593
 5154W        W 9218   0.468   7.261   7.134  0.0639  0.2861  0.0852
 5155W        W 9219   5.014   1.724   0.671  0.0726 -0.2059  0.0849
 5156W        W 9220   1.155   7.639  10.077 -0.2263 -0.1551  0.0128
 5157W        W 9221   8.797   7.437   1.228  0.0259 -0.1063 -0.0094
 5158W        W 9222   6.843   6.565   9.868 -0.1074  0.2135  0.0506
 5159W        W 9223   0.848   8.434   2.638 -0.1361 -0.2478 -0.2932
 5160W        W 9224   5.318   4.275   2.960 -0.2754 -0.1484  0.0581
 5161W        W 9225   0.097   9.323   2.144 -0.2276  0.1228 -0.0792
 5162W        W 9226   5.663   1.926  11.086  0.1142  0.0599  0.3429
 5163W        W 9227   0.073   0.989   0.007  0.1772  0.1536 -0.1410
 5164W        W 9228   0.992   6.442  11.413  0.2461 -0.3040 -0.0032
 5165W        W 9229   4.922   8.454   0.117 -0.0669 -0.1027 -0.2721
 5166W        W 9230  10.339   4.879   8.846  0.1894  0.0952 -0.1516
 5167W        W 9231   7.385   4.473   1.360  0.1407  0.0488 -0.3057
 5168W        W 9232   7.158   4.853   2.060 -0.0997 -0.5379 -0.1421
 5169W        W 9233   3.703   9.996  11.196  0.0606 -0.1315 -0.1063
 5170W        W 9234   1.945   0.644   1.647 -0.3028  0.1283 -0.2119
 5171W        W 9235   2.023   7.697   7.927 -0.0499 -0.2922 -0.2143
 5172W        W 9236   9.225   9.923   0.218  0.5059 -0.0437 -0.2779
 5173W        W 9237   3.533   8.245  10.539 -0.1850 -0.1905  0.1833
 5174W        W 9238   4.465   5.637  10.192  0.0733  0.0834 -0.2186
 5175W        W 9239   3.718   2.549   2.821  0.0819 -0.0130 -0.1582
 5176W        W 9240   9.097   3.347   1.544  0.2081 -0.3038 -0.2847
 5177W        W 9241   3.632   6.589  10.475 -0.3087 -0.3227 -0.0285
 5178W        W 9242   6.817   1.404   3.360  0.3300  0.3275  0.0472
 5179W        W 9243   0.411   3.694   0.436  0.2222  0.4040  0.1017
 5180W        W 9244   6.349   0.323   0.198 -0.2210 -0.3369  0.0147
 5181W        W 9245   4.426   5.136   0.837  0.1613 -0.3523 -0.0651
 5182W        W 9246   4.585   8.370   3.151 -0.2283  0.2327 -0.2070
 5183W        W 9247   3.702   2.473   1.509  0.0606  0.2375  0.0040
 5184W        W 9248   7.473   0.335   0.512  0.3116  0.1294 -0.2446
 5185W        W 9249   7.845   9.162   7.946 -0.0152  0.0704 -0.0906
 5186W        W 9250   0.469   8.611   7.777 -0.1222  0.0686  0.3101
 5187W        W 9251  10.197   7.916   0.994  0.1081  0.1601 -0.0394
 5188W        W 9252   6.174   3.050   8.223 -0.3072  0.1223 -0.1510
 5189W        W 9253   9.227   4.140  10.745  0.2243 -0.0455  0.4251
 5190W        W 9254   6.613   6.696   8.734  0.0327 -0.1693 -0.2911
 5191W        W 9255   8.060   9.331   9.062  0.0038  0.0298 -0.0242
 5192W        W 9256   8.735   7.602   0.118 -0.0480  0.2335 -0.1327
 5193W        W 9257   6.653   8.109   9.419 -0.0760  0.0474  0.0012
 5194W        W 9258   9.048   3.853   0.082 -0.3849  0.2800  0.1125
 5195W        W 9259   2.326   4.072   1.082  0.0149 -0.0360  0.0310
 5196W        W 9260   8.831   3.665   1.813  0.4980 -0.4890  0.3447
 5197W        W 9261   5.152   9.608  11.472  0.2075 -0.2783  0.0098
 5198W        W 9262  10.129   9.260   9.581 -0.0092  0.2140 -0.1255
 5199W        W 9263   3.693   8.536   8.486 -0.1713 -0.1081 -0.1023
 5200W        W 9264   3.440   7.250   1.841  0.1780 -0.1467 -0.1864
 5201W        W 9265   5.730   9.754   1.336  0.0169 -0.1471 -0.0408
 5202W        W 9266   3.524   1.777   8.909 -0.1228 -0.2109 -0.0310
 5203W        W 9267   6.887   5.832  11.062 -0.2269  0.0387 -0.0837
 5204W        W 9268   7.830   3.300   2.861 -0.2706  0.0597  0.2316
 5205W        W 9269   6.835   7.566   0.173  0.1355  0.1465 -0.1965
 5206W        W 9270   2.262   8.915   8.788  0.4006 -0.1621 -0.4871
 5207W        W 9271   8.317   6.735  11.246 -0.0820 -0.1469  0.0883
 5208W        W 9272   5.954   7.149  11.288  0.0467 -0.1696  0.0205
 5209W        W 9273   8.444  10.130  10.942 -0.2839 -0.0707 -0.0660
 5210W        W 9274   4.883  10.372  11.525  0.3213 -0.0182  0.0599
 5211W        W 9275   2.108   8.160  10.943  0.0862 -0.1318  0.0664
 5212W        W 9276   6.817   3.502   1.122 -0.1123 -0.0522 -0.2202
 5213W        W 9277   7.208   8.909   3.492 -0.1638 -0.0301 -0.1658
 5214W        W 9278   4.296   1.727   2.289  0.0923 -0.1574  0.2975
 5215W        W 9279   9.658   9.557   0.412 -0.1505 -0.2666 -0.0234
 5216W        W 9280   7.749   2.747   0.089  0.1250  0.0165 -0.0045
 5217W        W 9281   3.602   4.939   9.997  0.1587 -0.0470 -0.1600
 5218W        W 9282   5.161   9.401  10.239  0.2984 -0.1767  0.0703
 5219W        W 9283   0.410   1.850   2.557  0.1114 -0.0445 -0.4409
 5220W        W 9284   4.515   2.880  10.688  0.3854 -0.0669 -0.0287
 5221W        W 9285   3.218  10.105  10.186 -0.0938  0.0874  0.0365
 5222W        W 9286   2.426   9.617   3.168  0.2401 -0.0724 -0.1848
 5223W        W 9287   5.132   1.883  11.222 -0.1207 -0.0406 -0.0989
 5224W        W 9288   6.872   2.485   8.527 -0.0763 -0.1752  0.0001
 5225W        W 9289   7.628   9.350   0.691 -0.2603  0.1424  0.1387
 5226W        W 9290   5.959   2.198   2.104 -0.0990 -0.1180  0.0920
 5227W        W 9291   7.715   6.927   3.981  0.0742  0.1100  0.1329
 5228W        W 9292   1.154   6.142   8.549 -0.1569  0.1560  0.0738
 5229W        W 9293   1.471   7.775   2.520  0.0901  0.0333  0.0664
 5230W        W 9294   7.217  10.340   8.592  0.0984  0.1821  0.1410
 5231W        W 9295   5.849   5.462   1.884  0.1588  0.0302 -0.1242
 5232W        W 9296   9.167   0.504   0.084  0.1703 -0.2299  0.2823
 5233W        W 9297   2.890   2.316   9.197  0.0693 -0.0748  0.3301
 5234W        W 9298   5.056   8.424   9.875  0.0463  0.2025  0.1527
 5235W        W 9299   8.428   1.569   0.711 -0.0961  0.1627  0.0522
 5236W        W 9300   4.364   3.268   3.204  0.0668 -0.2996 -0.4120
 5237W        W 9301   5.552   5.992   1.573  0.2054  0.3478  0.4972
 5238W        W 9302   7.206   3.728   3.748  0.5206  0.2662  0.2352
 5239W        W 9303   0.677   0.756   1.497  0.1520 -0.2582 -0.0640
 5240W        W 9304   4.430   8.878   3.252 -0.2550 -0.0031  0.0317
 5241W        W 9305   6.091   6.569   0.867  0.0446 -0.1500 -0.0760
 5242W        W 9306   8.756   1.470   0.354 -0.0901 -0.1158  0.2069
 5243W        W 9307   8.389   8.705  10.277 -0.2010 -0.0895  0.1405
 5244W        W 9308   2.645   5.152   9.486 -0.2495  0.1062  0.1972
 5245W        W 9309   5.603   0.293   8.859 -0.2528  0.2178 -0.2771
 5246W        W 9310   1.707   0.540   2.066  0.2358  0.0503  0.1690
 5247W        W 9311   0.170   4.950   3.247  0.1454  0.0568  0.0425
 5248W        W 9312   3.835   8.253   1.198  0.1808 -0.1528  0.0237
 5249W        W 9313   5.915   6.844   9.479 -0.2882  0.2074 -0.0512
 5250W        W 9314   6.963   0.997   8.545 -0.3974 -0.1441  0.0364
 5251W        W 9315   9.741   0.676   7.668 -0.1821 -0.0028 -0.1257
 5252W        W 9316   0.966   9.334   9.412 -0.4440  0.1152  0.1986
 5253W        W 9317   2.502   3.617   9.423 -0.0462  0.1926 -0.3129
 5254W        W 9318  10.624   6.307   1.788 -0.2288 -0.2353 -0.0342
 5255W        W 9319   2.856   7.649   0.264  0.3583  0.0463  0.0448
 5256W        W 9320   6.871   1.227   1.819  0.1016 -0.2539 -0.1154
 5257W        W 9321   3.754   2.009   9.917  0.2848 -0.2240 -0.1293
 5258W        W 9322   6.982  10.360   7.925 -0.0421 -0.0049 -0.0193
 5259W        W 9323   1.136   6.000   3.193  0.0563  0.3646  0.0585
 5260W        W 9324   7.104   1.536   2.698 -0.1396 -0.1567  0.5380
 5261W        W 9325  10.135   4.552   0.696  0.3106 -0.0300  0.1317
 5262W        W 9326   4.162   0.626   4.283 -0.0207 -0.1191 -0.3788
 5263W        W 9327   9.177   5.757   0.706  0.0568 -0.0297 -0.0836
 5264W        W 9328   9.315   9.122   2.788  0.1063 -0.0458  0.0113
 5265W        W 9329   5.668   5.962   1.118  0.0310  0.1576  0.0465
 5266W        W 9330   2.744   6.604   8.308 -0.1157  0.1617  0.3666
 5267W        W 9331   1.052   8.478   1.724  0.0617 -0.1574 -0.1271
 5268W        W 9332   5.654   8.535   2.687 -0.1317  0.1735 -0.0426
 5269W        W 9333   6.819   5.202   1.704 -0.0093 -0.2033 -0.1796
 5270W        W 9334   3.486   1.461   3.006 -0.1612  0.0058 -0.5270
 5271W        W 9335   0.755   6.105   0.826  0.1891  0.1358  0.2846
 5272W        W 9336   0.346   9.230  10.202 -0.4006  0.1598  0.0203
 5273W        W 9337   0.174   3.527   0.816  0.0959 -0.2625 -0.4376
 5274W        W 9338   6.259  10.573   2.946 -0.1326 -0.1553  0.1347
 5275W        W 9339   5.033   8.202   7.392 -0.2104  0.1310 -0.0536
 5276W        W 9340   6.974   1.020  11.559 -0.1288 -0.1362 -0.1440
 5277W        W 9341   9.105   0.231  10.196 -0.3093  0.0821 -0.0033
 5278W        W 9342   1.042   8.663   0.855  0.0327  0.1157  0.0857
 5279W        W 9343   8.296   6.674  10.218  0.1307 -0.0302 -0.0391
 5280W        W 9344   5.729   8.646   3.542  0.0683  0.2047  0.2149
 5281W        W 9345   1.235   9.201   2.407 -0.3300  0.1424 -0.2644
 5282W        W 9346   5.944   2.339   9.255  0.0452 -0.1134 -0.2448
 5283W        W 9347   8.694   4.867  10.316  0.2107 -0.2024  0.0166
 5284W        W 9348   6.778   5.810   9.575 -0.2369  0.3890  0.2074
 5285W        W 9349   0.224   9.847   1.486  0.3540 -0.0757 -0.1492
 5286W        W 9350   8.496  10.021   8.047 -0.0320 -0.4548 -0.3276
 5287W        W 9351   2.021   3.179   1.063  0.2532  0.1126 -0.1089
 5288W        W 9352   6.206   0.770   3.016  0.3085 -0.0042 -0.1186
 5289W        W 9353   5.936   2.229   8.259 -0.2623  0.0931  0.3322
 5290W        W 9354   0.839   6.015  11.160 -0.2086 -0.2597  0.1572
 5291W        W 9355   0.786   4.398   2.187  0.1295  0.4482 -0.2099
 5292W        W 9356   2.740   7.330   7.242 -0.2984 -0.4591  0.0003
 5293W        W 9357   7.321   3.703   7.614 -0.3197 -0.0509 -0.0167
 5294W        W 9358   2.530   5.199  10.490 -0.0832 -0.3454 -0.0291
 5295W        W 9359   5.314   1.666   1.577  0.3027 -0.0687 -0.0022
 5296W        W 9360   4.513   8.341   1.188  0.1375 -0.1927  0.0699
 5297W        W 9361   8.873   8.705  10.092  0.0690  0.0258  0.0022
 5298W        W 9362   8.993   0.863   3.796  0.0186  0.0506 -0.4541
 5299W        W 9363   6.739   1.908   9.495 -0.2966  0.0441 -0.2590
 5300W        W 9364   7.381   1.706   0.535 -0.3049 -0.0759 -0.2867
 5301W        W 9365   7.983   9.048  10.074  0.2699  0.0731 -0.0081
 5302W        W 9366   3.266   2.951   0.653 -0.0270  0.2456 -0.1884
 5303W        W 9367   9.079   5.886   9.633  0.2029 -0.1679 -0.1547
 5304W        W 9368   3.857  10.536  10.596  0.0605  0.0037 -0.3359
 5305W        W 9369   2.369  10.246   9.977 -0.0256 -0.3032  0.0203
 5306W        W 9370   3.480   7.961   9.854  0.2537  0.2806  0.1256
 5307W        W 9371   7.101   6.809   3.134 -0.0387 -0.2245  0.1385
 5308W        W 9372   2.513   5.744  10.727 -0.0126 -0.0460  0.3594
 5309W        W 9373   5.249   0.361  11.059  0.1183  0.2248  0.1938
 5310W        W 9374   8.487   3.394   2.166  0.0352 -0.1991  0.0951
 5311W        W 9375   1.616   8.958   0.808  0.2468  0.0550 -0.1201
 5312W        W 9376   4.213   0.632   9.465 -0.0249 -0.0135 -0.1684
 5313W        W 9377   0.497   9.672   9.965  0.1504  0.2632  0.0904
 5314W        W 9378   3.833   7.176   0.613  0.1309 -0.1094 -0.1528
 5315W        W 9379   5.781   3.426   1.815 -0.0181 -0.1821  0.0357
 5316W        W 9380   4.212  10.578   9.378 -0.0711  0.1908 -0.1644
 5317W        W 9381   1.469   0.605   0.716 -0.1672  0.1456  0.0888
 5318W        W 9382   5.883  10.582   0.935  0.0380  0.0395  0.0186
 5319W        W 9383   0.455   5.610   0.886  0.0350  0.0162 -0.0327
 5320W        W 9384   3.347   5.228   8.664 -0.1147 -0.3560 -0.2732
 5321W        W 9385   4.092   7.543   2.286 -0.2391 -0.2237  0.2320
 5322W        W 9386   6.431   2.078   2.077 -0.0368 -0.0038  0.1910
 5323W        W 9387   4.457   2.457   9.682 -0.2910  0.2583  0.1499
 5324W        W 9388   6.228   4.716   9.843 -0.0062  0.2394  0.0400
 5325W        W 9389   0.630   3.202   2.231 -0.0401 -0.1742  0.2658
 5326W        W 9390   6.217   4.882   7.436  0.2378 -0.3236 -0.0979
 5327W        W 9391   6.775   7.136   9.800  0.0836  0.0894 -0.2620
 5328W        W 9392   3.095   3.483   2.892  0.0074 -0.1461 -0.0656
 5329W        W 9393   2.861   2.203   0.901 -0.1118  0.0986  0.1986
 5330W        W 9394   5.781   1.524  10.261  0.0282  0.3401  0.0262
 5331W        W 9395   2.384   5.720   8.813  0.3498  0.1115  0.2029
 5332W        W 9396   4.264   5.884   8.078 -0.2444  0.0441 -0.0588
 5333W        W 9397   4.465   4.156   0.414 -0.3241 -0.0740  0.0897
 5334W        W 9398   4.261   5.145   7.917  0.0517  0.0838 -0.3726
 5335W        W 9399   4.041   6.732   8.642  0.0509  0.2403  0.0050
 5336W        W 9400   4.686   2.553   0.200 -0.1572 -0.2984 -0.2541
 5337W        W 9401   3.546   3.990   1.404 -0.2391 -0.2023 -0.0164
 5338W        W 9402   2.251   9.789   0.983 -0.0666  0.0813 -0.1089
 5339W        W 9403   5.666   7.041   2.108 -0.1226 -0.0294 -0.0435
 5340W        W 9404   9.840   0.516   1.845 -0.1127  0.1608  0.0403
 5341W        W 9405   2.937   4.392   1.565 -0.0470 -0.0627  0.1519
 5342W        W 9406   2.363   8.798   0.113  0.2557  0.1053 -0.2628
 5343W        W 9407   2.880   3.780   9.708  0.1266 -0.0721  0.1958
 5344W        W 9408   9.820   9.036   2.673 -0.2478  0.0958 -0.0841
 5345W        W 9409   6.846   1.434  11.320  0.1776  0.2339 -0.0647
 5346W        W 9410   8.650   1.137   3.002  0.0506  0.0040  0.4924
 5347W        W 9411   8.600   6.444   7.796  0.3449  0.2408  0.5230
 5348W        W 9412   0.297   0.615   3.052  0.3557  0.0221 -0.1725
 5349W        W 9413   6.081   3.263   9.059  0.1522  0.0756 -0.1084
 5350W        W 9414   3.827   8.631  11.102 -0.0868 -0.0669  0.0536
 5351W        W 9415   1.450   4.183   2.612 -0.0060  0.2287  0.0923
 5352W        W 9416   2.969   3.522  11.518 -0.1547 -0.2271  0.0045
 5353W        W 9417  10.292   3.038   9.869  0.1102  0.1823 -0.1961
 5354W        W 9418   4.384   9.609   9.179  0.0759 -0.1026 -0.3624
 5355W        W 9419   2.873   7.554  10.829  0.0473 -0.1384 -0.0152
 5356W        W 9420  10.262   5.948  10.335  0.0613 -0.0780  0.0160
 5357W        W 9421   0.586   3.907   0.001  0.2498  0.3153 -0.0671
 5358W        W 9422   0.724   7.486   9.809 -0.0568 -0.1712  0.5192
 5359W        W 9423   7.464   3.054  10.371  0.1472 -0.0334 -0.1196
 5360W        W 9424   4.191   9.044   7.668 -0.3844 -0.1363  0.4505
 5361W        W 9425   7.672   2.841   2.510  0.1582  0.2081 -0.0058
 5362W        W 9426   0.168   3.725   9.353  0.0982  0.1178 -0.0132
 5363W        W 9427   7.592   7.528   1.334  0.1827  0.0227  0.0786
 5364W        W 9428   1.650   4.448   8.741 -0.0583 -0.0522  0.0140
 5365W        W 9429   7.991   7.738   2.916 -0.1035  0.3198  0.1062
 5366W        W 9430   5.831   4.513   7.848 -0.2446 -0.0245  0.1256
 5367W        W 9431   0.686  10.580  10.854 -0.2244 -0.0976 -0.0933
 5368W        W 9432   5.210   2.071   2.751 -0.1412 -0.0423  0.2220
 5369W        W 9433   3.441   8.695  10.778  0.1480  0.1687 -0.1619
 5370W        W 9434   5.572   5.818   8.350  0.0952  0.2234 -0.1378
 5371W        W 9435   8.736   7.651   3.541  0.1276  0.2475  0.2452
 5372W        W 9436   1.830   4.154   0.754  0.1450  0.0400  0.2106
 5373W        W 9437   0.905   4.669  10.437  0.0573 -0.2088 -0.0521
 5374W        W 9438   8.598   0.643   1.736  0.0185 -0.0575  0.3107
 5375W        W 9439   6.074   6.282   9.511 -0.2458 -0.0442  0.2005
 5376W        W 9440   9.463   1.717   9.742  0.1377  0.4227 -0.0070
 5377W        W 9441   3.012   9.009  10.596 -0.0768  0.0290 -0.2604
 5378W        W 9442   7.821   1.702   0.993 -0.3753 -0.0377 -0.3317
 5379W        W 9443   0.515   6.711  10.372 -0.1197  0.1007 -0.0742
 5380W        W 9444   6.837   7.416  10.331  0.2159 -0.1493  0.3020
 5381W        W 9445   5.108   9.780   3.796 -0.1507 -0.3235  0.0401
 5382W        W 9446   5.594   5.562   0.670  0.0013  0.1094 -0.0158
 5383W        W 9447   5.222   7.367  11.462  0.0314 -0.2047  0.0591
 5384W        W 9448   8.856   1.370  11.432 -0.2525  0.2060 -0.1334
 5385W        W 9449   4.968   5.131   9.492 -0.0289  0.0660  0.1644
 5386W        W 9450  10.428   1.346   9.846 -0.0027 -0.2562 -0.1149
 5387W        W 9451   7.700   2.651   0.912  0.0747 -0.2865 -0.6450
 5388W        W 9452   1.442   4.411   1.130 -0.1713  0.0129  0.0251
 5389W        W 9453   6.236   7.568  11.070  0.1021  0.3685 -0.0312
 5390W        W 9454   3.745  10.497   9.925 -0.0854  0.0083  0.1921
 5391W        W 9455   2.901   5.934   6.871 -0.0230 -0.3683 -0.1437
 5392W        W 9456   6.836   5.945   2.767  0.0530  0.0783 -0.1043
 5393W        W 9457   3.112   6.141   1.043  0.1372 -0.0689  0.0650
 5394W        W 9458   5.289   2.881  10.626 -0.0595  0.0608 -0.0929
 5395W        W 9459   6.456   4.871   9.460 -0.3384  0.1195  0.2371
 5396W        W 9460   9.072   4.067  10.252  0.0617  0.0995 -0.2585
 5397W        W 9461   0.280   4.749   9.353 -0.4061 -0.1446  0.1019
 5398W        W 9462   6.596   9.655   1.074  0.2681  0.1311  0.1116
 5399W        W 9463   6.447   4.170   9.049 -0.2231  0.1127  0.2921
 5400W        W 9464   3.079   3.112   1.194 -0.1298  0.0458 -0.0254
 5401W        W 9465  10.237   0.872   0.907  0.1327 -0.1164 -0.2837
 5402W        W 9466   4.851   8.601   2.822 -0.0178 -0.0933 -0.0144
 5403W        W 9467   9.787  10.441   7.834 -0.1398 -0.3452 -0.1961
 5404W        W 9468  10.533   5.055   2.457 -0.1008 -0.2276 -0.0120
 5405W        W 9469   0.721   4.646   1.143 -0.2140 -0.1360 -0.1852
 5406W        W 9470   2.680   8.104  10.286  0.2440  0.0705 -0.0611
 5407W        W 9471   6.142   6.315   0.402  0.0435 -0.2554 -0.0143
 5408W        W 9472   3.843   0.724  10.521 -0.2026 -0.0777 -0.2477
 5409W        W 9473  10.332   5.937   0.913 -0.0886  0.0676 -0.0483
 5410W        W 9474   2.740   7.140  10.571 -0.2323 -0.1750  0.1757
 5411W        W 9475   0.125   8.230   7.799  0.0551 -0.2540  0.1808
 5412W        W 9476   7.306   4.442   3.227 -0.1280 -0.0920  0.4080
 5413W        W 9477   9.593   1.505   8.849  0.1043  0.0875  0.0977
 5414W        W 9478   2.991   7.120   0.133  0.1735  0.1732  0.2698
 5415W        W 9479   2.528   9.712   3.970 -0.0437  0.0320  0.0805
 5416W        W 9480   8.344   6.404   1.013  0.0757  0.0580 -0.3378
 5417W        W 9481   8.429   7.209  11.249  0.0177 -0.3515 -0.0445
 5418W        W 9482   1.295   2.177   2.862 -0.1208  0.1051 -0.0450
 5419W        W 9483   2.798   9.387   7.948 -0.1922 -0.3061 -0.0598
 5420W        W 9484   0.458   4.717   1.666 -0.1564  0.0174  0.3853
 5421W        W 9485   0.317   6.670   2.838  0.1591  0.0425  0.0888
 5422W        W 9486   5.637   6.134  11.296 -0.2493 -0.2048 -0.1999
 5423W        W 9487   4.979   8.878   9.471  0.0194  0.2717 -0.0630
 5424W        W 9488   3.508   3.015   1.496  0.0432  0.1337 -0.2051
 5425W        W 9489   8.582   4.566   7.511  0.0014 -0.2343 -0.0473
 5426W        W 9490   2.697   2.502  10.283 -0.3015  0.0051  0.1962
 5427W        W 9491   6.730   5.493   9.994  0.0184  0.0650  0.2357
 5428W        W 9492   7.565   1.596  10.669  0.1983  0.4366 -0.2778
 5429W        W 9493   4.671   8.446   9.578 -0.0322 -0.0510  0.1571
 5430W        W 9494   7.777   2.687   2.014  0.1243 -0.3157  0.1434
 5431W        W 9495   6.275   7.599   2.468  0.1130 -0.1503 -0.2278
 5432W        W 9496   2.008   5.640   0.068 -0.0162 -0.1256 -0.1093
 5433W        W 9497   2.883   5.954   0.563 -0.0363  0.0424  0.1091
 5434W        W 9498   9.665   2.228   9.587 -0.0252 -0.2362  0.1670
 5435W        W 9499   0.047   3.846   3.512  0.1666  0.0911 -0.1016
 5436W        W 9500   2.035   7.625  10.204  0.0485  0.1296  0.0927
 5437W        W 9501   0.812   1.165  11.133  0.0753 -0.0014 -0.3458
 5438W        W 9502   2.811   4.587   9.219 -0.2621  0.0222  0.1697
 5439W        W 9503   3.924   3.315  10.874  0.1612 -0.1231 -0.0130
 5440W        W 9504   9.974   2.441   0.241 -0.1872 -0.2423 -0.0800
 5441W        W 9505   3.206   5.233   0.110 -0.2550 -0.2305 -0.0136
 5442W        W 9506   0.597   9.859   0.224  0.0517  0.1109  0.0859
 5443W        W 9507   7.560   7.719  10.032 -0.0189  0.0162 -0.0716
 5444W        W 9508   5.527   5.900  10.249 -0.1186 -0.4570 -0.0772
 5445W        W 9509   8.933   8.305   0.158  0.2721  0.2684 -0.2070
 5446W        W 9510   7.838   1.218   0.046 -0.0041 -0.0700  0.1360
 5447W        W 9511   8.348   2.808   3.762 -0.0998 -0.1731 -0.0743
 5448W        W 9512   0.179   0.207   9.092 -0.0807  0.1779 -0.0546
 5449W        W 9513   6.903   0.660   9.441 -0.1289  0.0749  0.1945
 5450W        W 9514   5.903   8.485  10.263  0.3048  0.0756  0.1947
 5451W        W 9515   1.818   6.499   9.072 -0.3474  0.1056  0.0958
 5452W        W 9516   5.136   0.876  11.068 -0.0001  0.0300  0.0981
 5453W        W 9517   1.249   9.045   9.081 -0.0902  0.0523  0.1966
 5454W        W 9518   2.635  10.180  11.014  0.0687 -0.3602 -0.3843
 5455W        W 9519   1.655   7.569   0.222 -0.4025 -0.0326  0.1899
 5456W        W 9520   0.657   7.540   8.387  0.1073  0.3711  0.2252
 5457W        W 9521   8.565   9.669   7.655 -0.0892  0.2269 -0.0588
 5458W        W 9522   9.090   4.653   0.781  0.0554 -0.2251  0.3484
 5459W        W 9523   2.700   7.574   1.603 -0.0857 -0.1652  0.2615
 5460W        W 9524   5.990   5.040   1.417  0.0642  0.2054  0.0365
 5461W        W 9525   9.572   0.363   2.887 -0.0446  0.1052 -0.3126
 5462W        W 9526   0.583   7.564   7.555  0.0464 -0.2258 -0.0782
 5463W        W 9527   9.123  10.357  10.337  0.0683 -0.1410 -0.1058
 5464W        W 9528   2.935   7.045   0.996 -0.1426 -0.2622  0.2822
 5465W        W 9529   1.924   6.874   9.418  0.3194  0.0815  0.3191
 5466W        W 9530   3.927   9.597   9.538 -0.0712 -0.0021  0.2815
 5467W        W 9531   7.151   3.775   2.803 -0.0126  0.2038  0.1963
 5468W        W 9532   5.834   2.592   3.343 -0.2057  0.0989 -0.0247
 5469W        W 9533   6.896   1.841  10.084  0.0675 -0.2389 -0.2399
 5470W        W 9534   1.895   1.687   9.981 -0.1568  0.1407  0.0618
 5471W        W 9535   1.021   4.859   0.454  0.0120 -0.0207  0.1785
 5472W        W 9536   4.878  10.042  11.201 -0.1002  0.1549 -0.2148
 5473W        W 9537  10.350   9.953   1.602 -0.0151 -0.0802  0.3243
 5474W        W 9538   4.229   4.365   2.512  0.2089  0.0698  0.3768
 5475W        W 9539   3.069   4.936  11.295  0.0394 -0.1938  0.0980
 5476W        W 9540   4.538   3.445   9.161  0.2022 -0.0613 -0.0862
 5477W        W 9541   0.908   8.580   8.351 -0.1333  0.1944  0.0099
 5478W        W 9542   1.164   0.601   1.289 -0.3791  0.1890  0.2492
 5479W        W 9543   4.079   6.565  11.467  0.0452 -0.1783  0.0506
 5480W        W 9544   6.750   4.220   0.217  0.1452  0.2376  0.0796
 5481W        W 9545   5.475   8.977   9.458  0.2128  0.0812  0.2348
 5482W        W 9546   9.268   3.756   8.919 -0.1596 -0.3648 -0.0850
 5483W        W 9547   4.727   0.837   3.278 -0.0376 -0.2774  0.1720
 5484W        W 9548   0.661   6.027   8.277  0.1063  0.3480  0.1400
 5485W        W 9549   8.597   5.407   8.590  0.1725  0.0415  0.0063
 5486W        W 9550   2.580  10.046   0.386 -0.0285  0.0103  0.2362
 5487W        W 9551   4.145   5.064   0.451 -0.2371 -0.0667  0.1546
 5488W        W 9552  10.096   6.168  11.246 -0.1585  0.2769  0.0238
 5489W        W 9553   3.002   4.749   8.689 -0.2637 -0.3519  0.0950
 5490W        W 9554   3.896   7.594   3.175 -0.1047  0.1039 -0.1761
 5491W        W 9555   3.697   2.798   9.068  0.0401  0.1362  0.1172
 5492W        W 9556   5.034   3.744   1.402 -0.0534 -0.0949 -0.1222
 5493W        W 9557   0.445  10.162   8.672  0.1838  0.0528 -0.0666
 5494W        W 9558   1.589   4.476   7.923 -0.1732  0.5444 -0.1556
 5495W        W 9559   6.136   8.528   9.829 -0.0904  0.4664  0.0508
 5496W        W 9560   6.199   3.971  11.555 -0.1797 -0.1971  0.0826
 5497W        W 9561   4.055  10.056   9.207  0.6953 -0.2142  0.0510
 5498W        W 9562   5.923  10.222   1.481 -0.2924 -0.1237 -0.3380
 5499W        W 9563   6.537   5.849   1.259 -0.1887  0.4760  0.0194
 5500W        W 9564   3.807   5.559   9.392 -0.0253 -0.0749  0.2728
 5501W        W 9565   3.883   4.533   9.043  0.0615 -0.3316 -0.0298
 5502W        W 9566   8.126   9.380   2.059  0.0126  0.1593 -0.0069
 5503W        W 9567   2.180   3.286   1.556 -0.2128  0.0611  0.1204
 5504W        W 9568   9.571  10.244   2.150 -0.0584  0.0365 -0.0071
 5505W        W 9569   7.287   1.365   1.557 -0.1631 -0.0322 -0.1144
 5506W        W 9570   5.649   0.711   0.316  0.1068 -0.2482  0.1667
 5507W        W 9571   0.534   1.708   9.183 -0.1251  0.1547 -0.0082
 5508W        W 9572   1.143   4.042   2.143 -0.0519  0.1324 -0.0656
 5509W        W 9573   6.942   1.484   9.326 -0.0789 -0.1168 -0.0793
 5510W        W 9574   8.352  10.535   3.107 -0.1144  0.0541  0.1185
 5511W        W 9575   7.988   2.371   2.396 -0.2333  0.0693  0.1387
 5512W        W 9576   9.847   3.465   8.503 -0.2268 -0.1205  0.1894
 5513W        W 9577   9.807   0.412   9.128  0.3220 -0.2432  0.2518
 5514W        W 9578   5.245   0.620  10.607  0.0451  0.1144 -0.1986
 5515W        W 9579   9.618   7.455  10.540 -0.1458  0.3312 -0.1508
 5516W        W 9580   7.017   4.603  10.254  0.0779 -0.0939 -0.1469
 5517W        W 9581   7.349   4.910   9.626 -0.1698 -0.2721 -0.0143
 5518W        W 9582   2.355   2.269   9.951 -0.4697  0.3110 -0.1835
 5519W        W 9583   4.764   6.333   3.393  0.2453 -0.0776  0.1630
 5520W        W 9584   4.117   5.221   7.284 -0.0397  0.1525 -0.3024
 5521W        W 9585   7.337   4.025   2.069  0.3543 -0.1297  0.1182
 5522W        W 9586   8.104   0.672   0.103  0.1117  0.1518 -0.2119
 5523W        W 9587   9.768   5.533   8.660 -0.1346 -0.1835 -0.3517
 5524W        W 9588   2.310   8.043   8.876  0.0181 -0.1390 -0.0301
 5525W        W 9589  10.028   9.002  10.033  0.1501 -0.3997  0.1958
 5526W        W 9590   2.565  10.256   2.488 -0.1268 -0.1563  0.1624
 5527W        W 9591   6.227   5.263   8.076 -0.2798 -0.0572 -0.2711
 5528W        W 9592   9.605   9.547   2.690 -0.1055  0.2651 -0.0894
 5529W        W 9593   7.520   4.246  10.716 -0.1043  0.1376  0.1450
 5530W        W 9594   9.044   7.519   3.886 -0.0147  0.2669 -0.1234
 5531W        W 9595   5.423   6.721   3.039 -0.0668 -0.2044 -0.1036
 5532W        W 9596   1.963   2.050  10.801 -0.0532 -0.2004  0.3311
 5533W        W 9597   9.160   7.119  10.577 -0.2504  0.1845 -0.5248
 5534W        W 9598   9.411   8.388   1.261  0.1615  0.0166 -0.1681
 5535W        W 9599   6.132   2.035   7.060  0.1782 -0.1658  0.0704
 5536W        W 9600   7.556   8.101   9.719 -0.2045  0.2662 -0.0357
 5537W        W 9601   9.331   1.646   7.716  0.3285  0.0223 -0.1431
 5538W        W 9602   7.453   5.660   2.168 -0.2648  0.0173  0.0791
 5539W        W 9603   3.452   9.605  10.955  0.1070 -0.0530 -0.0100
 5540W        W 9604   8.826   1.580   7.907  0.2582  0.1251 -0.3195
 5541W        W 9605   5.141   0.080   9.138 -0.0889  0.0980 -0.2733
 5542W        W 9606   6.246   1.898   2.529 -0.1631 -0.1406  0.1563
 5543W        W 9607   6.040   4.769   8.221  0.0266 -0.0138  0.2355
 5544W        W 9608   3.385   0.315   2.645 -0.6165  0.0355  0.2649
 5545W        W 9609   4.712   4.150   8.081 -0.1749 -0.0364 -0.0862
 5546W        W 9610   0.505   6.120  11.536 -0.0113  0.0785 -0.0997
 5547W        W 9611   6.311   6.326   2.101  0.0111  0.0004  0.0047
 5548W        W 9612   5.820   5.992   8.730  0.0294 -0.1556 -0.3093
 5549W        W 9613   4.823   8.554   1.518  0.0264  0.2334  0.0291
 5550W        W 9614   1.414   1.419  10.782  0.1767  0.0629 -0.1676
 5551W        W 9615   4.698  10.202   1.536  0.0368 -0.0966 -0.0565
 5552W        W 9616   0.614   8.783   0.454  0.0860 -0.1309 -0.2178
 5553W        W 9617  10.456   7.711  11.263  0.2311  0.4883  0.0748
 5554W        W 9618   1.083   5.248   0.092  0.0794 -0.5082  0.0128
 5555W        W 9619   7.491   7.890   3.659  0.0610  0.1073  0.0751
 5556W        W 9620  10.106   4.629  10.478  0.1562 -0.0429  0.0206
 5557W        W 9621   6.908   1.824   0.774 -0.1647 -0.0586 -0.2266
 5558W        W 9622   7.026   4.456  11.462  0.3743 -0.3946 -0.1772
 5559W        W 9623   8.518   8.836   9.223 -0.1862  0.0188  0.0879
 5560W        W 9624   4.184   3.460   1.904  0.0639 -0.1689  0.0548
 5561W        W 9625   4.295   2.155   7.703 -0.3791  0.0600 -0.0303
 5562W        W 9626   3.138   0.845  11.231  0.1937  0.1763 -0.2537
 5563W        W 9627   1.848   5.691   9.642 -0.1023  0.0315 -0.4367
 5564W        W 9628   3.805   5.090   8.012 -0.2373  0.0346  0.0291
 5565W        W 9629   2.426   5.768   0.566  0.1905 -0.1604  0.0617
 5566W        W 9630   6.707   7.654   2.762 -0.0119 -0.0419  0.0269
 5567W        W 9631   1.261   5.247   0.588 -0.0796 -0.1565  0.0252
 5568W        W 9632   5.798   5.539   7.996 -0.0366  0.0676 -0.5363
 5569W        W 9633   5.381   4.194   0.695  0.1418  0.0928 -0.2818
 5570W        W 9634   5.961   7.428   8.683 -0.1915 -0.1466 -0.4170
 5571W        W 9635   1.543   6.391   2.587  0.0207  0.2741  0.4377
 5572W        W 9636   8.259   5.441   9.750 -0.1221  0.0226  0.1858
 5573W        W 9637   0.024   3.057  11.409 -0.0879  0.0387  0.3460
 5574W        W 9638   8.848   8.220   8.162  0.0664  0.0813  0.1070
 5575W        W 9639   3.261  10.455   9.737 -0.2776  0.2688  0.0537
 5576W        W 9640   7.610   2.494   9.147 -0.3913 -0.1800 -0.3766
 5577W        W 9641   0.784   0.673  11.060  0.0189  0.0199  0.0205
 5578W        W 9642   6.687   4.012   1.027  0.0798 -0.2017 -0.0751
 5579W        W 9643   8.258   4.352  11.104 -0.1452  0.0244 -0.0314
 5580W        W 9644   2.108   2.987   8.716  0.0081 -0.0814  0.0613
 5581W        W 9645   5.185   1.145   2.897 -0.1297  0.0641 -0.0946
 5582W        W 9646   5.801   4.051  11.200  0.0100  0.2091 -0.0982
 5583W        W 9647   6.558   6.554   0.254 -0.0823  0.2148  0.1879
 5584W        W 9648   4.827   8.993  11.508 -0.0157 -0.1690  0.1707
 5585W        W 9649   7.843   9.381   1.223 -0.0904 -0.0539 -0.0310
 5586W        W 9650   2.070   5.056  10.382 -0.1139  0.0115 -0.0953
 5587W        W 9651   6.174   1.723   1.501  0.1115  0.1153 -0.1340
 5588W        W 9652   4.391   4.588   0.715 -0.0004  0.2159 -0.1578
 5589W        W 9653   9.243   2.648   3.503 -0.1041  0.3827  0.0088
 5590W        W 9654   6.769   4.880  10.564  0.0045 -0.2329  0.5513
 5591W        W 9655   9.539   3.244   2.829  0.0883  0.0175 -0.1966
 5592W        W 9656   0.057   7.684   3.282 -0.1335 -0.4094  0.0436
 5593W        W 9657   4.204   0.027   3.088 -0.1557 -0.2558 -0.0994
 5594W        W 9658   0.467   6.498   1.547  0.0180 -0.0996  0.0475
 5595W        W 9659   3.070   6.100   8.364 -0.1958 -0.3368 -0.0495
 5596W        W 9660   5.896   4.160   4.175  0.0342 -0.1621  0.1540
 5597W        W 9661  10.594   4.658   7.905  0.2027  0.1019 -0.1392
 5598W        W 9662   2.809   6.347   9.985 -0.0673 -0.4773  0.1110
 5599W        W 9663   5.686   5.915  10.826 -0.5482 -0.0570 -0.0550
 5600W        W 9664   0.042   2.768   9.528  0.0993  0.4125  0.1393
 5601W        W 9665   3.727   8.255   8.069 -0.1639 -0.1743 -0.3010
 5602W        W 9666   7.780   6.917   7.986 -0.0346  0.1108 -0.0879
 5603W        W 9667   4.417   5.061  11.524 -0.1479 -0.1491 -0.1269
 5604W        W 9668   3.076   6.365   0.431  0.1216  0.0423 -0.0805
 5605W        W 9669   6.287   1.050  10.080  0.0600  0.0249 -0.1582
 5606W        W 9670   5.964   6.650   2.276 -0.2106 -0.2220 -0.0387
 5607W        W 9671   7.918   3.345  11.115  0.0150 -0.2869 -0.0573
 5608W        W 9672   8.353   0.166   0.311  0.3370  0.0269 -0.0439
 5609W        W 9673   5.519   8.187  11.159  0.2116  0.2391 -0.2413
 5610W        W 9674   8.750   1.733   8.835  0.5948 -0.1014  0.0366
 5611W        W 9675   5.972   6.026   3.873  0.3118  0.0841  0.0899
 5612W        W 9676   8.082   6.717   1.417 -0.0769  0.2608  0.0544
 5613W        W 9677   3.937   0.628   3.830  0.0652  0.3363 -0.0972
 5614W        W 9678   2.614   0.958   8.778 -0.0623 -0.1239  0.0123
 5615W        W 9679  10.622   8.073  10.926 -0.3061  0.1302  0.0385
 5616W        W 9680   9.127   9.021  11.362  0.3272  0.1773  0.0385
 5617W        W 9681   8.987   4.057   9.270 -0.3053 -0.2700 -0.1378
 5618W        W 9682   5.646   0.995  10.882 -0.1007 -0.2643  0.0510
 5619W        W 9683   8.018   6.015  11.213 -0.2969 -0.2310 -0.0577
 5620W        W 9684   5.760   9.481   0.928 -0.2109  0.0136  0.2657
 5621W        W 9685   8.845   5.491   9.024 -0.0992  0.2321  0.4436
 5622W        W 9686   7.814   5.508   2.644 -0.0186 -0.1096  0.2665
 5623W        W 9687   9.938   2.164   1.766  0.2326 -0.0659  0.2857
 5624W        W 9688   0.950   7.897   2.782  0.1870 -0.4410 -0.0343
 5625W        W 9689   8.514   8.196   0.741 -0.3611 -0.1269 -0.2569
 5626W        W 9690   9.542   3.326   1.182  0.1390 -0.2029 -0.0123
 5627W        W 9691   2.988   2.059   3.425  0.1293  0.0607 -0.0561
 5628W        W 9692   0.089   8.131   2.440 -0.2297  0.2180 -0.0079
 5629W        W 9693   1.818   9.152   9.033 -0.1366 -0.1076  0.0912
 5630W        W 9694   5.968   5.164   8.499 -0.1407  0.1919  0.0487
 5631W        W 9695   6.696   6.841   3.466  0.0713  0.1639  0.1341
 5632W        W 9696   3.496   2.309   9.192 -0.3823  0.0709 -0.1051
 5633W        W 9697  10.181   1.568  11.120  0.1568 -0.1860  0.0154
 5634W        W 9698   5.860   3.599   2.501  0.0331  0.0524  0.0729
 5635W        W 9699   7.866   8.066  10.372 -0.0896 -0.1959  0.1054
 5636W        W 9700  10.016   1.492   8.424  0.0086 -0.1256 -0.0226
 5637W        W 9701   1.703   6.023   9.192  0.2913  0.3365 -0.0695
 5638W        W 9702   6.129   6.604   7.193  0.0457 -0.4777 -0.0907
 5639W        W 9703   3.236   6.238   1.476 -0.0610 -0.0677 -0.2450
 5640W        W 9704   6.494   0.532   7.254 -0.4379 -0.1215  0.3379
 5641W        W 9705   7.847   4.477   0.335 -0.2798 -0.2867  0.0714
 5642W        W 9706   2.682   0.783   3.220 -0.1350  0.0905 -0.2187
 5643W        W 9707   8.714   5.033   7.358  0.1374 -0.1537 -0.0146
 5644W        W 9708   5.334   4.003   9.181 -0.2071  0.1024  0.0519
 5645W        W 9709   0.736   7.962   9.669 -0.2937  0.0373 -0.0964
 5646W        W 9710   3.620   5.816   2.500 -0.0548 -0.1123  0.0188
 5647W        W 9711   9.383   0.456   1.103  0.1397 -0.3690 -0.2353
 5648W        W 9712   5.619   3.187   2.221 -0.3056 -0.4013 -0.0361
 5649W        W 9713   1.404   8.835   2.709 -0.0198  0.1203  0.0910
 5650W        W 9714   0.498   9.850   3.369 -0.1776 -0.3089 -0.1471
 5651W        W 9715  10.382   4.622   2.427  0.1512 -0.0287 -0.2761
 5652W        W 9716   4.309   6.938   0.773  0.1343 -0.0141 -0.1206
 5653W        W 9717   0.506   3.053  11.349 -0.3801  0.1063 -0.5720
 5654W        W 9718   0.706   7.885   7.092  0.2287 -0.0497 -0.0502
 5655W        W 9719   8.092   6.057   1.327  0.0007 -0.1654  0.1894
 5656W        W 9720   1.173   4.793  11.550 -0.0011 -0.1667 -0.0120
 5657W        W 9721   0.293  10.373   3.233  0.0815  0.0776 -0.3397
 5658W        W 9722   1.762   6.094   0.019  0.0997 -0.1204  0.0618
 5659W        W 9723   8.393   2.293   9.531 -0.2506  0.1274  0.1551
 5660W        W 9724   1.977   4.419   2.893  0.3078  0.0506  0.0535
 5661W        W 9725   2.462   3.650  10.743 -0.2931  0.0857 -0.0756
 5662W        W 9726   1.748   3.722  11.417  0.0307  0.1945 -0.1650
 5663W        W 9727   8.476   5.703   1.287 -0.1633 -0.0061 -0.0868
 5664W        W 9728   4.186   4.737  10.768 -0.0957  0.2567 -0.3569
 5665W        W 9729   4.059  10.473   3.725 -0.2095  0.1757 -0.1368
 5666W        W 9730   4.841   7.572   3.085  0.0570  0.0939  0.0905
 5667W        W 9731  10.402   1.805  10.694  0.0346  0.3794  0.0517
 5668W        W 9732   6.324   8.899   2.263 -0.1602  0.3502  0.0168
 5669W        W 9733   2.827  10.035  11.480 -0.3094  0.1721 -0.2136
 5670W        W 9734   6.981   7.760   8.447 -0.2531 -0.2424 -0.0973
 5671W        W 9735   8.676   2.507   9.212  0.2741 -0.1978  0.0445
 5672W        W 9736   1.193   6.670   7.751 -0.4199  0.2348  0.2042
 5673W        W 9737  10.045   1.655   1.177  0.1066  0.1106 -0.2183
 5674W        W 9738   6.066   2.510   2.475  0.0037 -0.1479 -0.0233
 5675W        W 9739   2.752   2.654  11.332  0.0170 -0.2647 -0.1281
 5676W        W 9740  10.624   4.826  10.764 -0.1813 -0.0910 -0.3443
 5677W        W 9741   7.797   6.649   0.219  0.1171 -0.0481  0.1382
 5678W        W 9742   2.773   5.530   9.115  0.0432 -0.0206  0.0591
 5679W        W 9743   0.400   1.191   9.847 -0.0483 -0.4710  0.0297
 5680W        W 9744   1.873   3.470   1.916 -0.1988 -0.3154  0.0743
 5681W        W 9745   5.943   4.338   2.985 -0.0980  0.0384  0.0414
 5682W        W 9746   4.979   2.757   8.617  0.2026 -0.1955 -0.1885
 5683W        W 9747   8.055   4.490   7.452 -0.1124  0.1446 -0.0046
 5684W        W 9748  10.153  10.006  10.213 -0.0355  0.0030 -0.2820
 5685W        W 9749   5.276   7.860   3.161 -0.0371 -0.4622 -0.3266
 5686W        W 9750   2.269   7.780  10.681 -0.3906  0.0976  0.1069
 5687W        W 9751   7.367   9.777   8.964  0.0377  0.0488  0.0276
 5688W        W 9752   0.153   5.132   7.704  0.1059  0.0090 -0.0056
 5689W        W 9753   5.195   9.416   0.385 -0.1824  0.0177 -0.0848
 5690W        W 9754   4.461   7.685   7.585 -0.0211  0.1427  0.0847
 5691W        W 9755   9.622   1.376   0.428 -0.4981 -0.0798  0.4068
 5692W        W 9756   5.827   9.775  10.142 -0.2107 -0.0061 -0.0705
 5693W        W 9757   7.835   5.088   7.336 -0.0504 -0.1530  0.3133
 5694W        W 9758   3.802   0.221   1.366  0.3242  0.1376  0.0517
 5695W        W 9759   8.572   6.548   8.613  0.1827  0.0311 -0.1070
 5696W        W 9760   7.373   8.239  10.166  0.0402 -0.1592  0.3740
 5697W        W 9761   5.638   9.618   0.435 -0.2202  0.1408 -0.0582
 5698W        W 9762   6.676   0.343  10.489  0.5510 -0.1525  0.0370
 5699W        W 9763   3.504   7.608  10.302  0.2008  0.3795  0.1212
 5700W        W 9764   4.226   8.235   1.582  0.2530  0.1412  0.1197
 5701W        W 9765   3.623   3.537   2.810  0.0090 -0.2065  0.0762
 5702W        W 9766   6.510   4.294   1.593  0.0359 -0.4748 -0.2292
 5703W        W 9767   1.400   3.258   8.846 -0.1390  0.0358  0.3855
 5704W        W 9768   4.635   2.898   3.455  0.1265 -0.1372  0.0338
 5705W        W 9769   8.355  10.082   1.707  0.2933  0.0564  0.1837
 5706W        W 9770   7.681  10.597   7.435 -0.0092 -0.1310  0.1346
 5707W        W 9771   8.319   4.656   0.423 -0.1293 -0.1150 -0.2359
 5708W        W 9772   4.912   4.798   0.067  0.1201  0.0493 -0.0602
 5709W        W 9773   9.354   5.517   3.189 -0.2838 -0.1348  0.0830
 5710W        W 9774   3.148   3.421   0.799  0.0592 -0.0899  0.2419
 5711W        W 9775   4.151   8.335  10.784  0.2016 -0.1179 -0.0711
 5712W        W 9776   9.718   5.670  10.555 -0.1639 -0.0092  0.2866
 5713W        W 9777   2.859   9.648   0.245  0.2677 -0.1077 -0.0039
 5714W        W 9778   6.115   4.176   2.500 -0.4363 -0.0462  0.1355
 5715W        W 9779   8.472   7.782  11.295  0.3547  0.1371  0.2607
 5716W        W 9780  10.268   3.292   0.050  0.2273  0.0082  0.5295
 5717W        W 9781   3.143   4.199   3.179 -0.0700 -0.0491 -0.2225
 5718W        W 9782   8.384   9.095   1.671 -0.0046  0.3612 -0.1664
 5719W        W 9783   3.802   7.467  10.941  0.0362  0.0988 -0.1631
 5720W        W 9784   4.797   5.491  10.550  0.2182 -0.0953 -0.2265
 5721W        W 9785   4.978   6.367   0.643  0.1304  0.0325  0.2469
 5722W        W 9786  10.122   5.701   9.431 -0.2106 -0.0097  0.2349
 5723W        W 9787   3.430  10.512  10.367 -0.3629 -0.4644 -0.0670
 5724W        W 9788   2.371   5.692   2.050 -0.2686 -0.0001  0.1592
 5725W        W 9789   6.853   6.735  11.475  0.0159  0.2576  0.2189
 5726W        W 9790   6.785   0.827   0.906  0.1902  0.3655  0.4081
 5727W        W 9791   2.494   4.870   1.155  0.0658  0.0604  0.2800
 5728W        W 9792   7.097   7.840   1.988 -0.4659 -0.1133  0.1748
 5729W        W 9793   1.953   4.889  11.356 -0.1343 -0.1838  0.2248
 5730W        W 9794   1.097   2.548  10.501  0.1744 -0.1613 -0.1497
 5731W        W 9795   8.683  10.250   0.923 -0.0672  0.0821 -0.2777
 5732W        W 9796   3.699   8.132  11.009  0.2105  0.0848 -0.2767
 5733W        W 9797   7.399   0.639   2.507  0.3710 -0.0923 -0.0564
 5734W        W 9798   0.708   2.745   0.179 -0.0664 -0.1851 -0.0553
 5735W        W 9799   0.439   4.782  11.224 -0.2315 -0.2493  0.2101
 5736W        W 9800   7.460   8.849   7.204 -0.1185  0.3814 -0.2175
 5737W        W 9801   7.905   6.113   8.347 -0.1491 -0.2796  0.0062
 5738W        W 9802   4.333   1.439   0.831  0.3055  0.2007  0.0620
 5739W        W 9803   0.570   2.525   0.905 -0.1208 -0.0718  0.1124
 5740W        W 9804   8.040   6.561   8.627 -0.0076  0.2403  0.0486
 5741W        W 9805   2.600   5.751   8.396  0.3107  0.0419 -0.0127
 5742W        W 9806   9.156   8.426   3.011 -0.2209  0.1728 -0.3807
 5743W        W 9807   0.009   3.165   1.568  0.0156 -0.4503  0.1690
 5744W        W 9808   4.603   2.171   2.064 -0.1560 -0.2364 -0.1614
 5745W        W 9809   0.719   3.391   0.153  0.0294  0.0245  0.0801
 5746W        W 9810   3.186   6.926   8.774  0.2830 -0.0292  0.1075
 5747W        W 9811   7.408   7.102   7.723  0.2197 -0.2486 -0.1485
 5748W        W 9812   6.616   9.765   0.076 -0.0148 -0.0093  0.0367
 5749W        W 9813  10.232   0.215   9.069 -0.3655  0.3702 -0.1705
 5750W        W 9814   3.135   7.315   1.378  0.1302 -0.1970 -0.1062
 5751W        W 9815   7.651   5.941   2.947 -0.0538  0.0928 -0.2664
 5752W        W 9816   6.788   9.862   9.249  0.2798  0.0719 -0.3222
 5753W        W 9817   3.380   6.108   0.146 -0.2405 -0.0772  0.1936
 5754W        W 9818   9.465   8.179   8.597  0.2463 -0.0531 -0.1600
 5755W        W 9819   8.251   0.129   2.597 -0.1297 -0.2295  0.1871
 5756W        W 9820   8.134   4.043  10.060  0.0526  0.0401 -0.1019
 5757W        W 9821   6.697   7.683   7.604  0.0572  0.3477 -0.1271
 5758W        W 9822   2.334  10.185  11.570  0.0477  0.0361  0.0666
 5759W        W 9823   5.851   9.794   2.309 -0.2893 -0.0951  0.5292
 5760W        W 9824   7.224   1.454  10.957 -0.1667  0.3782  0.0034
 5761W        W 9825   2.488   0.400  10.618 -0.1737 -0.1000 -0.4141
 5762W        W 9826   4.662   8.487   8.298  0.1829 -0.0553 -0.4012
 5763W        W 9827   2.014   8.128   9.985 -0.2787 -0.2046  0.4073
 5764W        W 9828   4.579   8.491  10.095  0.0673 -0.0329 -0.0559
 5765W        W 9829   3.396   0.230   8.790 -0.0136 -0.1219  0.0770
 5766W        W 9830   2.195   2.790   1.457  0.3477  0.1383 -0.0317
 5767W        W 9831   9.087   0.600   8.621  0.1852 -0.0092 -0.0315
 5768W        W 9832   5.939   9.748  10.963  0.3005 -0.0225  0.1573
 5769W        W 9833   5.331   0.726   3.349  0.1645  0.0414  0.4282
 5770W        W 9834   8.581   5.873   9.857 -0.0761 -0.1811  0.1753
 5771W        W 9835   0.209   2.717   0.310 -0.0471 -0.2204 -0.1383
 5772W        W 9836   4.179   6.889   9.186  0.2433  0.0485  0.0036
 5773W        W 9837   7.909   8.590  10.221 -0.0209  0.0352  0.1239
 5774W        W 9838   2.554   7.520   2.791 -0.3792 -0.0111 -0.0983
 5775W        W 9839   7.998   5.000   0.414 -0.2042 -0.3234 -0.1749
 5776W        W 9840   1.683   8.795   8.631 -0.1167 -0.2898  0.2372
 5777W        W 9841  10.468   2.089  10.217  0.1242 -0.3543  0.0702
 5778W        W 9842   4.891   0.603  11.395  0.3935  0.0365 -0.2756
 5779W        W 9843   8.806   3.910   8.858  0.2791  0.0415  0.0956
 5780W        W 9844   4.250   8.679   2.829  0.1058  0.3200 -0.0565
 5781W        W 9845   7.162  10.289   9.588 -0.0237  0.0897 -0.1499
 5782W        W 9846   6.664   8.831   7.953  0.1647 -0.1065  0.3311
 5783W        W 9847   0.825   9.503   3.317  0.2445 -0.0800  0.1180
 5784W        W 9848   7.303   9.386  10.763  0.0163  0.2071 -0.0345
 5785W        W 9849   0.345   0.870   2.565  0.0790  0.1986  0.2545
 5786W        W 9850   7.367   8.349   7.287 -0.3611  0.1945 -0.1035
 5787W        W 9851   0.911   2.714  11.224  0.0044  0.0175 -0.2159
 5788W        W 9852  10.595  10.412   0.785  0.1729  0.3484  0.2674
 5789W        W 9853   2.546   2.948   1.821  0.0506  0.0966  0.1286
 5790W        W 9854   9.530   3.717   0.866  0.1943 -0.0372 -0.3161
 5791W        W 9855   2.706   8.324   3.150  0.2049 -0.0658 -0.1246
 5792W        W 9856   3.753   4.470  10.715  0.0127  0.4979  0.1557
 5793W        W 9857   0.009   1.069   2.870 -0.1926  0.2001 -0.3321
 5794W        W 9858   6.679   2.717   2.948  0.0366  0.0808 -0.0226
 5795W        W 9859   3.768   4.479  10.053  0.0915  0.4932 -0.0454
 5796W        W 9860   2.741   2.322  10.971  0.1004 -0.0789  0.3648
 5797W        W 9861   6.267   0.785   1.075  0.2226 -0.2750  0.0335
 5798W        W 9862   3.455   9.216  10.688 -0.1249 -0.1260 -0.1844
 5799W        W 9863   2.736   3.735   8.881  0.3890 -0.3368 -0.0470
 5800W        W 9864   7.548   6.657   2.988 -0.2407  0.0853 -0.0408
 5801W        W 9865   6.425   9.762   8.921  0.2471 -0.1455 -0.1241
 5802W        W 9866  10.521   8.682   0.785  0.2021 -0.0404 -0.4298
 5803W        W 9867   6.675   7.723   2.213 -0.0877  0.3830 -0.0119
 5804W        W 9868   9.243   7.779   8.861 -0.0320 -0.3988 -0.0731
 5805W        W 9869   2.862   9.584   3.008 -0.0702  0.2426  0.0877
 5806W        W 9870   1.806   3.939   2.855 -0.0987  0.0022  0.1222
 5807W        W 9871   7.268   3.013   0.291  0.1834 -0.1494  0.1580
 5808W        W 9872   5.592  10.205   0.578 -0.0535 -0.0826  0.1014
 5809W        W 9873   2.963   3.095   9.017 -0.0330  0.1265  0.0161
 5810W        W 9874   3.591   6.419  11.402 -0.0953 -0.1214 -0.2020
 5811W        W 9875   7.869   7.446   8.552 -0.1523 -0.1156  0.2405
 5812W        W 9876   3.603   8.057   3.222  0.1432  0.2108  0.2244
 5813W        W 9877   5.530   5.420   8.656  0.0804 -0.1029 -0.1533
 5814W        W 9878  10.223   5.785  11.469 -0.1027 -0.1753 -0.1314
 5815W        W 9879   7.413   3.171  10.892  0.1543 -0.0742  0.1291
 5816W        W 9880   7.125   9.876   3.025 -0.1400 -0.2689  0.1062
 5817W        W 9881   3.821   7.679   8.973  0.0220  0.0765  0.0557
 5818W        W 9882   7.647   2.509   8.572 -0.2215 -0.0355 -0.3310
 5819W        W 9883   2.898   9.840   0.789  0.1917 -0.0941  0.0721
 5820W        W 9884   9.994   3.554  10.834  0.0157 -0.0019  0.2342
 5821W        W 9885  10.480   5.740   9.068  0.0386 -0.0087 -0.1734
 5822W        W 9886  10.402   9.166   2.485  0.1329  0.0584 -0.0747
 5823W        W 9887   9.790   0.490   0.772 -0.1110  0.3409  0.1843
 5824W        W 9888   6.991   7.648  10.752  0.1047  0.2362 -0.1149
 5825W        W 9889   3.713   1.208  10.744  0.3075  0.2095 -0.0659
 5826W        W 9890   0.123   8.356  10.091  0.1560  0.0021  0.0085
 5827W        W 9891   8.050   4.720   3.590  0.5588 -0.0028  0.1540
 5828W        W 9892   9.771   2.984   9.899 -0.0456 -0.5157  0.1186
 5829W        W 9893   7.317   5.916   0.083 -0.1518  0.1240  0.0695
 5830W        W 9894   1.937   5.178   2.288  0.0978 -0.0169 -0.1065
 5831W        W 9895   3.726   4.988   2.904 -0.1524  0.0964 -0.0600
 5832W        W 9896   6.276   9.696   9.410 -0.1151  0.1525 -0.0950
 5833W        W 9897   9.025   2.816   2.235  0.0001 -0.1875 -0.1759
 5834W        W 9898   3.948   7.983   2.057  0.0974 -0.2565  0.1584
 5835W        W 9899   4.158  10.618   2.062 -0.0404 -0.0612  0.0084
 5836W        W 9900   4.585   4.817   2.432  0.5424 -0.0231 -0.0480
 5837W        W 9901   3.310   6.579  10.107 -0.2395 -0.2142 -0.1833
 5838W        W 9902   4.162   5.361   1.664  0.0857 -0.0104  0.2019
 5839W        W 9903   6.111   7.211  10.699  0.0545  0.0708 -0.0607
 5840W        W 9904   7.764   7.144   0.431  0.0904  0.4656  0.2118
 5841W        W 9905  10.009   5.608  10.969  0.1148  0.2489  0.2026
 5842W        W 9906   3.997   6.461   2.137  0.3956 -0.0045 -0.3943
 5843W        W 9907   8.627   0.156  10.944  0.0029 -0.2639 -0.1312
 5844W        W 9908   4.914   3.900   0.559 -0.0263  0.1705  0.3624
 5845W        W 9909   5.306   4.070  11.152 -0.1498  0.1486  0.0355
 5846W        W 9910   1.074   4.642   3.092  0.1029  0.1150 -0.1700
 5847W        W 9911   4.831   4.856  11.203 -0.0714  0.1819 -0.0520
 5848W        W 9912   6.668   1.712   8.381  0.2405 -0.1137 -0.1295
 5849W        W 9913   9.542   6.254   8.975  0.0796 -0.0812 -0.3313
 5850W        W 9914   7.064   8.999   4.099  0.1504 -0.1509  0.3088
 5851W        W 9915   5.181   4.035   8.351 -0.2491  0.0370 -0.0986
 5852W        W 9916   5.006   3.936   1.905  0.3283 -0.1567  0.1047
 5853W        W 9917   5.548   7.801  10.209 -0.0410  0.0307  0.1710
 5854W        W 9918   8.840   5.633   1.626 -0.0280  0.2100  0.3314
 5855W        W 9919   6.432   8.414   2.197  0.0678  0.3496 -0.1298
 5856W        W 9920   9.702   6.417   0.237  0.1598 -0.1215 -0.0606
 5857W        W 9921   4.885   9.755   9.215  0.1397 -0.1057 -0.1186
 5858W        W 9922   7.301   2.390   1.800 -0.1094 -0.2290  0.1467
 5859W        W 9923   9.954   4.903   1.668 -0.1970  0.3453  0.0966
 5860W        W 9924   3.717   9.487  11.352 -0.0623 -0.1890 -0.0163
 5861W        W 9925   6.063   2.270  11.016  0.0628 -0.0508  0.0355
 5862W        W 9926   8.975   8.364   0.680 -0.0759  0.3506  0.1307
 5863W        W 9927   3.863   7.838   2.711 -0.3075 -0.0808 -0.2274
 5864W        W 9928   5.905   8.011   0.876 -0.1724 -0.0571 -0.1929
 5865W        W 9929   8.104   9.001   2.461  0.1218 -0.1041 -0.2605
 5866W        W 9930   4.680  10.407   0.479  0.2259 -0.0757  0.3923
 5867W        W 9931   8.988   2.749   9.542 -0.1568 -0.0558 -0.2259
 5868W        W 9932   9.988   6.842  10.484 -0.2838  0.0037  0.2497
 5869W        W 9933   6.875   8.627   1.944 -0.1582  0.0583 -0.1377
 5870W        W 9934   7.928   0.512   2.629  0.1059  0.0705  0.3024
 5871W        W 9935   4.332   2.276   0.052  0.1351 -0.2766  0.0620
 5872W        W 9936   2.205   7.205   9.157 -0.1385  0.1720 -0.0995
 5873W        W 9937   2.118   9.476  10.503  0.1506 -0.1717  0.4267
 5874W        W 9938   6.483   7.132   9.366  0.1730 -0.1352 -0.1321
 5875W        W 9939   9.711   0.765   9.449  0.1269  0.1980 -0.0056
 5876W        W 9940   8.942   4.338   0.028  0.0075  0.1474  0.0146
 5877W        W 9941   0.473   9.626  10.513  0.2889  0.3054  0.3103
 5878W        W 9942   5.622   0.600   9.644 -0.0929  0.2009  0.2666
 5879W        W 9943  10.081   1.725   3.964  0.2239 -0.1330 -0.2257
 5880W        W 9944   5.157   1.312   2.057 -0.4531  0.0784  0.1106
 5881W        W 9945   4.869   5.985  10.585 -0.4372  0.1645  0.0097
 5882W        W 9946   0.682   3.784   3.389 -0.0055 -0.0818  0.3338
 5883W        W 9947   4.175   7.139   2.883  0.0475  0.4026 -0.1042
 5884W        W 9948   1.198   8.781   2.141  0.1832 -0.1852  0.1457
 5885W        W 9949   2.652   1.581   2.746  0.1463  0.0654 -0.0264
 5886W        W 9950   9.060   3.901  11.161 -0.1029 -0.0957  0.0535
 5887W        W 9951   1.911   5.790   2.256 -0.0106 -0.1378  0.1151
 5888W        W 9952   0.549   4.735   6.933  0.0848 -0.0078  0.1687
 5889W        W 9953   3.891   5.999  11.414 -0.2141 -0.1219  0.0484
 5890W        W 9954   9.378   8.511  10.593 -0.1652 -0.3167  0.0194
 5891W        W 9955   8.138   1.158  10.154 -0.2621 -0.0536 -0.1363
 5892W        W 9956   8.793   3.603   3.160 -0.2008  0.5112  0.0793
 5893W        W 9957   5.811   7.635   3.057 -0.1101 -0.1561 -0.0599
 5894W        W 9958   5.907   5.109  11.238 -0.0209  0.2862 -0.2983
 5895W        W 9959   3.805   6.315   2.629 -0.3751 -0.1612  0.2188
 5896W        W 9960   3.633   1.094  10.181  0.2128  0.2792 -0.0428
 5897W        W 9961   3.557   0.559   0.063 -0.1926 -0.0280  0.4796
 5898W        W 9962   8.943   1.870   2.019  0.0567  0.1378  0.0524
 5899W        W 9963   2.160   1.073   3.110  0.0468 -0.1142 -0.0316
 5900W        W 9964   3.349   5.272   1.636 -0.3118 -0.5146  0.0617
 5901W        W 9965   0.140   0.577   0.267 -0.3461 -0.3928  0.1645
 5902W        W 9966   5.590   6.283   0.597  0.0186  0.1207  0.2678
 5903W        W 9967   6.935   3.340   0.144  0.0288  0.2630  0.0941
 5904W        W 9968   1.745   4.699   9.158 -0.0021 -0.0285  0.0100
 5905W        W 9969   0.298   2.198  10.426  0.0716 -0.0504 -0.2409
 5906W        W 9970   7.729   1.567   1.481  0.1703  0.1081 -0.0095
 5907W        W 9971  10.474   5.317   9.678  0.2698  0.1121 -0.2868
 5908W        W 9972   3.486   5.716  10.544  0.0093 -0.2177  0.1832
 5909W        W 9973   9.693   7.485   1.834 -0.1072 -0.1192 -0.0832
 5910W        W 9974   6.751   8.299   0.427  0.0587 -0.1502 -0.0272
 5911W        W 9975  10.414   4.232   8.186 -0.0715  0.3337  0.1494
 5912W        W 9976   4.614   8.597  10.701 -0.1058 -0.0809 -0.1436
 5913W        W 9977   5.046   1.605   2.816 -0.2236  0.1170 -0.2184
 5914W        W 9978   8.310   9.479   3.206  0.0564 -0.0238 -0.0084
 5915W        W 9979   6.896   8.263   2.906  0.3257  0.4506  0.0898
 5916W        W 9980   2.090   0.660  10.150 -0.0058 -0.0907 -0.5062
 5917W        W 9981   0.208   2.704   2.238  0.0449 -0.0922 -0.0060
 5918W        W 9982   3.490   9.401   9.311  0.2796  0.0292 -0.1219
 5919W        W 9983   7.825   1.123   9.336 -0.1560 -0.0859 -0.2479
 5920W        W 9984   9.585   6.874   8.360 -0.2948 -0.1892  0.2122
 5921W        W 9985   9.650   2.112   7.463  0.0448  0.5820 -0.0257
 5922W        W 9986   5.868   1.536   0.726 -0.0181  0.1256 -0.1824
 5923W        W 9987   7.495   7.959   9.199 -0.0715 -0.1683  0.2728
 5924W        W 9988   4.969   6.527   9.742  0.3082 -0.1394 -0.3481
 5925W        W 9989   5.803   9.054   3.082 -0.1244 -0.1576 -0.0765
 5926W        W 9990   0.733   1.801  10.052  0.0822  0.1956  0.0206
 5927W        W 9991   0.290   6.182   3.146  0.1681 -0.1984  0.0820
 5928W        W 9992   1.765   7.831   3.371 -0.1124  0.3023  0.4629
 5929W        W 9993   8.676   0.599   8.984  0.2231  0.0926  0.1764
 5930W        W 9994   1.552   0.325   3.081  0.0128  0.0000  0.1115
 5931W        W 9995   7.273   4.710   7.675  0.2829 -0.1618 -0.1815
 5932W        W 9996   0.829   7.757   7.974 -0.0655 -0.2417  0.2344
 5933W        W 9997   9.575   2.797  10.499 -0.0947  0.2171  0.0378
 5934W        W 9998   5.107   3.884   7.807  0.1834  0.0803 -0.3221
 5935W        W 9999   8.459   6.313   2.233  0.1768 -0.1477 -0.5566
 5936W        W10000   7.939   9.511   8.514 -0.1470  0.1925  0.2331
 5937W        W10001   5.694   2.299   2.930  0.0338 -0.1177 -0.1025
 5938W        W10002   5.001   7.537   8.178 -0.0099 -0.0539  0.0880
 5939W        W10003   1.024   7.523   1.380  0.0632 -0.1074  0.2845
 5940W        W10004   8.275   9.915   9.984 -0.0737 -0.1494  0.1453
 5941W        W10005   5.909   8.429  11.378  0.2485  0.0109 -0.0079
 5942W        W10006   2.404   8.328  11.554 -0.0208  0.0096 -0.1873
 5943W        W10007   0.705   6.651   0.696 -0.1218 -0.0942  0.1905
 5944W        W10008   1.981   7.798   1.626 -0.4280  0.1604  0.0590
 5945W        W10009   5.301   7.584  10.574 -0.1588 -0.1320  0.0424
 5946W        W10010   1.078   3.729   0.987 -0.1116  0.1145 -0.1888
 5947W        W10011   2.843   1.049   0.048 -0.1324 -0.1831  0.1249
 5948W        W10012   9.773   2.586   8.163 -0.0277  0.1195 -0.2368
 5949W        W10013   1.668   1.881   3.193  0.3349  0.1869  0.3564
 5950W        W10014   9.398   1.162  11.352  0.1004 -0.0616  0.1469
 5951W        W10015  10.082   0.377   9.591 -0.0078 -0.1166 -0.2197
 5952W        W10016   0.726   8.685   8.827 -0.0083 -0.2170 -0.0086
 5953W        W10017   4.483   3.276   2.339  0.0552  0.0684  0.0278
 5954W        W10018   5.529   4.361  10.571 -0.0403  0.2604 -0.0401
 5955W        W10019   6.891   7.815   0.629 -0.0351 -0.0217 -0.0445
 5956W        W10020   4.638   5.311  11.124 -0.1597  0.1013 -0.0772
 5957W        W10021   4.016   7.002   3.908  0.1690 -0.1671  0.3309
 5958W        W10022   9.333  10.097   9.920  0.0278  0.2184  0.3563
 5959W        W10023   1.154   5.127   2.701  0.2423  0.1421 -0.1905
 5960W        W10024   6.051  10.207   2.579  0.1555 -0.0395 -0.2454
 5961W        W10025   3.984   2.629   9.837  0.3140 -0.0393 -0.0470
 5962W        W10026   0.115   9.788   9.709  0.1135 -0.2848  0.1588
 5963W        W10027   2.355   4.275   1.592 -0.2904 -0.0654 -0.4117
 5964W        W10028   8.934   7.914  10.065 -0.1722 -0.0951  0.2077
 5965W        W10029   3.893   3.027   3.021 -0.2127 -0.1635  0.4638
 5966W        W10030   1.167   2.581   2.110 -0.1947  0.1698 -0.2884
 5967W        W10031  10.535   2.938   8.324  0.0203 -0.0973 -0.0532
 5968W        W10032   0.892   3.904   0.462  0.1049  0.1262  0.1123
 5969W        W10033   3.559   2.256   1.950 -0.0036  0.0803 -0.1757
 5970W        W10034   2.626  10.544   0.349  0.0379  0.1320  0.2233
 5971W        W10035   3.185   2.714   9.133 -0.1244  0.2398 -0.0200
 5972W        W10036   6.464   3.107   1.055  0.0627 -0.2439  0.1955
 5973W        W10037   4.803   3.415   1.075 -0.0641 -0.1771  0.2316
 5974W        W10038  10.108   3.176   7.643 -0.0602  0.2992  0.1384
 5975W        W10039   7.144   7.800   2.493  0.4215 -0.1857 -0.0445
 5976W        W10040   7.550   7.397   1.837 -0.1005  0.4750  0.0830
 5977W        W10041   5.176   2.905   0.557 -0.0343  0.2185  0.0137
 5978W        W10042   9.188   8.686   0.181 -0.0288 -0.1755 -0.1039
 5979W        W10043   0.567   2.738   8.363  0.0593  0.0486 -0.1195
 5980W        W10044  10.271   7.568   0.618 -0.0942  0.0195 -0.3521
 5981W        W10045   9.222   3.005   9.922  0.2267  0.1256 -0.3148
 5982W        W10046   1.318   5.727   1.701 -0.2092  0.2312  0.1267
 5983W        W10047   1.222   0.431  11.298 -0.1219 -0.2624 -0.0705
 5984W        W10048   3.209   9.197  10.126 -0.3081 -0.2193  0.0696
 5985W        W10049   0.817   1.543  11.498 -0.2635  0.0071  0.0688
 5986W        W10050   5.964   9.048   1.932  0.1727 -0.0500 -0.2404
 5987W        W10051   8.258   4.945  11.047 -0.1372  0.0593 -0.0103
 5988W        W10052   4.277   9.847   3.085 -0.2087 -0.1013 -0.1522
 5989W        W10053   8.460  10.059   9.536  0.0417  0.0722  0.0293
 5990W        W10054   3.252  10.607   9.189  0.1558 -0.0889  0.0185
 5991W        W10055   5.707   9.279  11.112 -0.2699  0.2050 -0.0101
 5992W        W10056   5.161   0.849   1.370 -0.0476  0.0337  0.0573
 5993W        W10057   1.998   0.629  10.625  0.3568 -0.1626  0.1189
 5994W        W10058   9.589   6.461   2.737 -0.0024 -0.2514  0.2601
 5995W        W10059   6.925   3.947   0.585 -0.1240  0.2537  0.3502
 5996W        W10060   1.175  10.064  10.240  0.0045  0.0655  0.2099
 5997W        W10061   2.778   2.640   2.644  0.2189  0.4495  0.0669
 5998W        W10062   0.809   0.157  11.366  0.2311 -0.1964 -0.1888
 5999W        W10063   5.447   7.749   8.058 -0.2538 -0.1323 -0.3660
 6000W        W10064   4.120   6.080   8.730 -0.1419 -0.0913 -0.0619
 6001W        W10065   5.974  10.055   9.233  0.3750  0.1831  0.2627
 6002W        W10066   6.887   2.223  11.439  0.4553  0.0081  0.0566
 6003W        W10067   0.191   5.172   8.266 -0.0809  0.4930  0.1006
 6004W        W10068   1.128   1.205   9.562  0.1868  0.1149 -0.2091
 6005W        W10069   1.075   7.528   7.073  0.3134  0.2388  0.2409
 6006W        W10070   3.929   7.320   1.828 -0.0089 -0.1477 -0.0190
 6007W        W10071   3.012   2.737   1.549 -0.3956  0.0468  0.1013
 6008W        W10072   4.529   9.879  10.870  0.2913  0.2160 -0.0652
 6009W        W10073   1.318   7.852  11.322 -0.2476 -0.2108 -0.0284
 6010W        W10074   4.245   5.541   9.794 -0.3093 -0.1483 -0.0945
 6011W        W10075   4.644   0.912   2.272  0.0592  0.2623  0.0398
 6012W        W10076   9.276   7.014   3.205 -0.0743  0.1236  0.0393
 6013W        W10077   3.350  10.485   0.810  0.1455  0.2279 -0.1359
 6014W        W10078   1.043   1.521   1.705  0.1279 -0.1474  0.0337
 6015W        W10079   9.678   8.672   0.240 -0.1207 -0.0542  0.4154
 6016W        W10080   5.504   4.798  10.343 -0.1481 -0.1701  0.1060
 6017W        W10081   3.351  10.584   1.337  0.1000  0.2169 -0.3458
 6018W        W10082   0.962   9.876  10.721  0.1947  0.0244 -0.1528
 6019W        W10083   4.314   2.396   8.248  0.0138  0.4440 -0.0193
 6020W        W10084   8.835   0.312   0.428  0.1175  0.1276 -0.2512
 6021W        W10085   1.560   5.913   1.266 -0.1005  0.0351  0.0544
 6022W        W10086   5.617   8.243   9.616  0.2680  0.1499  0.2097
 6023W        W10087   1.055   5.928   9.046 -0.2577  0.2089 -0.0456
 6024W        W10088   0.216   9.267   1.666  0.1616 -0.2697  0.1957
 6025W        W10089   5.391   6.024   9.760 -0.0604  0.0681 -0.2798
 6026W        W10090   1.393   0.092   2.639  0.0119 -0.2120 -0.0697
 6027W        W10091   0.720   5.272   8.250 -0.0227 -0.0105  0.0306
 6028W        W10092   5.605   8.153   0.512 -0.1873 -0.0888 -0.0200
 6029W        W10093   6.091   2.095   1.208  0.0990 -0.0265  0.5524
 6030W        W10094   9.972   5.161  10.406 -0.0544 -0.2823 -0.2750
 6031W        W10095   7.860   8.966  11.414 -0.0400  0.0202 -0.0019
 6032W        W10096   9.757   8.610   2.241 -0.4976  0.0819 -0.1519
 6033W        W10097   4.269   6.408   1.610  0.1509 -0.0019  0.1847
 6034W        W10098   9.699   5.992  11.523  0.0260 -0.4823 -0.1134
 6035W        W10099   8.573   6.786   1.248  0.2611 -0.2624  0.0562
 6036W        W10100   1.076   3.479   9.679 -0.0767  0.0617  0.1354
 6037W        W10101   7.402   8.792  11.153 -0.1509  0.1179 -0.3029
 6038W        W10102   8.889   6.287   1.988 -0.0454  0.0884 -0.1166
 6039W        W10103   6.797   8.616  11.516 -0.2680  0.1675 -0.2724
 6040W        W10104   8.324   1.194   9.685 -0.1499 -0.5474  0.2834
 6041W        W10105   5.304   2.960   1.027 -0.1517 -0.2083  0.1256
 6042W        W10106   5.309   6.317  10.482  0.1014  0.2444 -0.1379
 6043W        W10107   1.246   9.968   3.426  0.0128  0.1847 -0.1069
 6044W        W10108   0.421   0.058   1.535  0.0631  0.2622  0.0389
 6045W        W10109   4.744   7.876   8.439 -0.3808 -0.1765 -0.1678
 6046W        W10110   4.004  10.281   2.384 -0.1450  0.2870 -0.3328
 6047W        W10111   4.249   7.801   8.607 -0.4198  0.1726 -0.1994
 6048W        W10112   8.676   6.635   0.732 -0.5369 -0.1943  0.1058
 6049W        W10113   5.709   6.410   0.134  0.1340 -0.1044 -0.0962
 6050W        W10114   1.590  10.013   9.364 -0.2488  0.1538 -0.0444
 6051W        W10115   6.606   8.347  10.364 -0.1756  0.0443  0.1299
 6052W        W10116   8.123   2.272   3.596  0.0853 -0.1239 -0.1412
 6053W        W10117   2.808   5.459   0.429 -0.1216 -0.2740  0.0510
 6054W        W10118   6.623   1.714   1.723 -0.0441 -0.4637  0.4319
 6055W        W10119   4.213   2.052   0.706 -0.1063 -0.1272  0.1817
 6056W        W10120   8.541   4.961   8.330 -0.4721 -0.1560 -0.3177
 6057W        W10121   1.757   7.254   7.875  0.0861  0.1414 -0.2181
 6058W        W10122   8.168   6.919   2.852 -0.3124 -0.4088  0.0379
 6059W        W10123   4.013   9.468   8.505 -0.0334 -0.4330 -0.0386
 6060W        W10124   6.292   3.487   7.635  0.2197  0.0079  0.2040
 6061W        W10125   0.165   0.100   0.494  0.0388  0.1755 -0.0673
 6062W        W10126   9.983   5.175  11.380 -0.0715  0.3109 -0.3408
 6063W        W10127   8.236   4.351   2.026  0.0858  0.2519 -0.0673
 6064W        W10128   9.295   0.155   0.468  0.0562  0.1125 -0.1127
 6065W        W10129   3.903   9.039  11.441 -0.0707 -0.0567  0.0759
 6066W        W10130   2.831   8.760   8.798  0.0451 -0.4402 -0.1647
 6067W        W10131  10.569   7.003   0.931 -0.0110 -0.2050 -0.0290
 6068W        W10132   1.795   0.815   0.264  0.1692  0.0035  0.0608
 6069W        W10133  10.067  10.400   0.822 -0.0882  0.0471  0.1089
 6070W        W10134  10.044   3.709   2.143  0.2047  0.0573  0.0410
 6071W        W10135   6.361  10.277   8.910 -0.3331 -0.2857 -0.2183
 6072W        W10136   5.217   0.081   8.648  0.2305  0.2408  0.0751
 6073W        W10137   5.550   3.295   9.126 -0.1532 -0.1286  0.2105
 6074W        W10138   3.283   7.780   1.039 -0.2022 -0.0382 -0.1830
 6075W        W10139  10.627   9.561   2.882  0.2576 -0.0117 -0.3315
 6076W        W10140   9.956   7.186   9.611 -0.1124 -0.1108  0.0977
 6077W        W10141   4.841   1.920   2.481 -0.2376  0.2432  0.1535
 6078W        W10142   0.602   1.109   0.036  0.4909 -0.0022 -0.0037
 6079W        W10143   7.013   5.037   8.278 -0.3444  0.1011  0.3434
 6080W        W10144   1.995   8.495   8.872 -0.0594 -0.0590 -0.1666
 6081W        W10145   1.554   0.857  11.405 -0.2274  0.0957  0.1810
 6082W        W10146   1.246   9.334  11.553  0.1581  0.1433  0.3749
 6083W        W10147   0.806   5.982   2.355 -0.2049  0.2362 -0.3310
 6084W        W10148   8.689   5.303   1.084  0.0331  0.3946  0.0534
 6085W        W10149   8.350   4.640   2.456 -0.0374 -0.0298 -0.0296
 6086W        W10150  10.345   8.758   9.581 -0.1130  0.1797 -0.0469
 6087W        W10151   1.170   0.142   9.677  0.2846 -0.1699  0.1830
 6088W        W10152   2.790   0.089   1.574 -0.0312 -0.0171  0.2916
 6089W        W10153   2.505   3.494   3.004  0.0076 -0.2086 -0.1975
 6090W        W10154   2.443   4.087   8.358  0.0231  0.2937 -0.5206
 6091W        W10155   1.161   6.831   0.871  0.4212 -0.0778  0.0892
 6092W        W10156   6.365   8.713   8.416  0.0158 -0.1407  0.0668
 6093W        W10157   2.763   6.192  10.802  0.0577  0.1248  0.0709
 6094W        W10158   4.050   0.440   1.804  0.3878  0.2455  0.2974
 6095W        W10159   3.369   6.867   1.377  0.1994  0.0485 -0.0582
 6096W        W10160   6.408   9.651  10.735 -0.0904 -0.1092 -0.7387
 6097W        W10161   4.159   0.977  10.790  0.0408 -0.2203 -0.3435
 6098W        W10162   9.893   4.450   7.296 -0.1329 -0.0438 -0.1091
 6099W        W10163   6.221   7.048   9.813 -0.2625 -0.0038  0.3107
 6100W        W10164   6.864   5.361  10.502  0.0224  0.1899 -0.0639
 6101W        W10165   2.193  10.439   3.145  0.1175  0.1569 -0.0042
 6102W        W10166   4.958  10.588  10.118 -0.0598  0.0784 -0.2826
 6103W        W10167   3.396   1.622   9.740  0.0288 -0.1647 -0.0041
 6104W        W10168   6.172   3.682   9.366 -0.0682  0.1040 -0.0350
 6105W        W10169   3.691  10.618   3.361 -0.0347 -0.0459  0.0468
 6106W        W10170   0.178   5.168  11.130  0.0546  0.0592 -0.0228
 6107W        W10171   2.131  10.280   1.121 -0.1074 -0.1054  0.1477
 6108W        W10172   9.019   8.132  10.546 -0.1976  0.1550  0.0360
 6109W        W10173   3.991   5.344   3.085 -0.1276  0.1551  0.1200
 6110W        W10174   9.820   3.772   9.509 -0.3054 -0.1208 -0.1018
 6111W        W10175   5.480   6.739  10.692  0.2924  0.1169 -0.1131
 6112W        W10176   9.588   8.761  11.355  0.0622 -0.1021  0.0975
 6113W        W10177   2.269   3.123   2.696  0.1416  0.2778 -0.0060
 6114W        W10178  10.313   0.425   8.233 -0.0905  0.0858  0.2236
 6115W        W10179   8.217   8.985   1.183 -0.0398  0.1010 -0.0338
 6116W        W10180   1.985   3.176   9.787  0.0716  0.4326  0.2004
 6117W        W10181   9.671   1.925   1.425  0.0451  0.0371  0.1349
 6118W        W10182   5.176   9.104   2.194 -0.1252  0.0567  0.0175
 6119W        W10183   9.036   0.345   8.177  0.0171  0.2144 -0.0986
 6120W        W10184   4.487   6.907   8.790  0.2414 -0.0532  0.0574
 6121W        W10185   8.270   2.673  10.036  0.1162  0.1953  0.1652
 6122W        W10186   1.096   6.174   2.697 -0.1494  0.4390 -0.3852
 6123W        W10187   9.910   3.521  11.331 -0.0621 -0.0292  0.0303
 6124W        W10188   8.565   1.725   1.660 -0.3401  0.3875 -0.1937
 6125W        W10189   6.354   8.191   8.972 -0.1416 -0.3029 -0.0390
 6126W        W10190   3.922   9.172  10.382 -0.1345  0.2014 -0.0657
 6127W        W10191   1.644   5.468   1.963  0.3180  0.6025 -0.1244
 6128W        W10192   3.483   0.264  10.083 -0.0533  0.1500 -0.1152
 6129W        W10193   3.302   8.419   0.395 -0.0739 -0.1915  0.1604
 6130W        W10194   9.770   1.865   3.169 -0.0179  0.2500 -0.3385
 6131W        W10195   3.234   3.828   8.969 -0.0189  0.1153 -0.0278
 6132W        W10196   1.117   6.058  10.721 -0.1527 -0.4687 -0.0942
 6133W        W10197   5.342  10.206  10.240  0.0716  0.1732 -0.0247
 6134W        W10198   3.873   1.856   1.641  0.2105 -0.2318 -0.1025
 6135W        W10199   7.276   2.226   8.626 -0.1738  0.1531  0.0269
 6136W        W10200   4.202   5.601   1.053  0.0112 -0.0072  0.0401
 6137W        W10201   7.638   8.564   8.256  0.0232 -0.3178  0.0987
 6138W        W10202   2.806   8.822   0.918 -0.1974  0.0025 -0.0674
 6139W        W10203   8.340   1.979  11.326 -0.0524 -0.1059  0.0983
 6140W        W10204   5.500   1.498  10.745  0.0974 -0.2260 -0.0317
 6141W        W10205   8.489   4.947   3.140 -0.0329  0.1978 -0.0706
 6142W        W10206   2.152   9.139   2.314  0.1716 -0.0435 -0.1737
 6143W        W10207   0.127   8.860   9.898  0.0043 -0.2302  0.1026
 6144W        W10208   1.521   6.703   0.542  0.1323  0.1033  0.2844
 6145W        W10209   7.804   4.019   1.151  0.2216  0.0822  0.1336
 6146W        W10210   0.835  10.185  11.195  0.2138  0.2595  0.2597
 6147W        W10211   0.522   7.131   1.724 -0.1146 -0.1940  0.1943
 6148W        W10212   4.222   4.979   8.357 -0.1084 -0.2032 -0.0352
 6149W        W10213   7.161   9.295   0.525 -0.2636  0.2576  0.3050
 6150W        W10214   6.013   0.630  10.075 -0.1099 -0.0144  0.1849
 6151W        W10215   3.722   3.284   3.437  0.0736  0.1431  0.0433
 6152W        W10216   5.433   4.847   9.476 -0.1525 -0.0869  0.2785
 6153W        W10217   4.179   8.123   0.211  0.3556 -0.2941 -0.2329
 6154W        W10218   9.360   0.403  11.101 -0.0644 -0.1121 -0.0024
 6155W        W10219   4.432   6.108  11.518 -0.1355  0.1752 -0.2608
 6156W        W10220   7.581   6.728   3.472  0.1954 -0.0847  0.0186
 6157W        W10221   6.727   0.008   0.197  0.2678 -0.0235 -0.0310
 6158W        W10222   7.478   9.054   3.107 -0.0122  0.3204  0.3108
 6159W        W10223   2.110   1.350  10.218 -0.0813  0.0155  0.2361
 6160W        W10224   8.817   2.313   2.231 -0.0795  0.0674 -0.0448
 6161W        W10225   3.925   2.512  11.241 -0.1875  0.1324 -0.1622
 6162W        W10226   1.403   9.830   1.280 -0.2811  0.1062 -0.3542
 6163W        W10227   0.275  10.219   0.462  0.1992  0.5065  0.4367
 6164W        W10228   8.114   6.999   9.789  0.0369 -0.0957 -0.5672
 6165W        W10229   9.524   7.519   3.857 -0.0322  0.1449 -0.0923
 6166W        W10230   4.823   8.734   2.097 -0.0821  0.2426  0.0188
 6167W        W10231  10.029   5.527  10.038 -0.2649  0.2452  0.3311
 6168W        W10232   3.264   4.606  10.013 -0.0221  0.0573  0.0120
 6169W        W10233   2.194   4.957  10.917 -0.0601 -0.2720  0.1781
 6170W        W10234   8.898   4.416   8.707  0.1855  0.3772  0.2619
 6171W        W10235   0.160   5.579   2.509  0.1313 -0.3747 -0.3778
 6172W        W10236   3.300   1.746   1.702  0.0923  0.2572 -0.1088
 6173W        W10237   6.949  10.245  10.830  0.0371  0.3160 -0.1415
 6174W        W10238   6.593   9.242   3.303  0.1809 -0.1618  0.2392
 6175W        W10239   0.033   9.549   0.361  0.0825  0.3532 -0.0845
 6176W        W10240   1.472   9.484   9.176  0.3703  0.1394  0.0414
 6177W        W10241   9.281   2.555   2.602  0.2334 -0.0555 -0.0256
 6178W        W10242   1.864   3.957   0.279  0.3202  0.0042 -0.1067
 6179W        W10243   8.141   0.355  11.190 -0.1999 -0.1387  0.1672
 6180W        W10244   8.935   5.004   9.289 -0.4014  0.2395 -0.0499
 6181W        W10245   1.095   8.201   8.749  0.1698  0.1039 -0.1462
 6182W        W10246   7.313   4.547   6.938  0.1524  0.0934 -0.0021
 6183W        W10247   8.448   0.827   1.221 -0.0758 -0.1541  0.2115
 6184W        W10248   0.769   7.050   1.099  0.4109  0.0911 -0.0983
 6185W        W10249   9.201   9.029  10.818  0.0245 -0.0305  0.0440
 6186W        W10250   7.901   8.505   2.891  0.0816 -0.1396 -0.0120
 6187W        W10251   5.929   0.770   0.723  0.2168  0.0397  0.1638
 6188W        W10252   9.944   1.231   9.342 -0.0797  0.1022 -0.2934
 6189W        W10253   8.314   5.069   8.815 -0.0386 -0.1083  0.1052
 6190W        W10254   1.889   9.590   9.418  0.0723  0.0299 -0.5013
 6191W        W10255   1.163   0.271  10.215  0.2307 -0.2826  0.0305
 6192W        W10256   6.563  10.163   2.846  0.1790  0.0741  0.0108
 6193W        W10257   9.291   2.155   2.273  0.4761 -0.3222 -0.3272
 6194W        W10258   5.090   8.093   0.375 -0.0225  0.1557 -0.1430
 6195W        W10259   5.411   6.756   3.967  0.1754 -0.0394 -0.0387
 6196W        W10260   0.593   9.371   8.639 -0.2863  0.3460 -0.2788
 6197W        W10261   9.181   7.328   9.105  0.1007  0.1078 -0.2356
 6198W        W10262   9.116   3.607   0.639  0.0988  0.3130 -0.2065
 6199W        W10263   3.173   8.263   3.011  0.0007 -0.2214 -0.0913
 6200W        W10264   0.036   5.331   7.274 -0.0559 -0.0999  0.0031
 6201W        W10265   2.423   5.155   7.399 -0.1840 -0.1911  0.0052
 6202W        W10266   4.474   4.272   1.290  0.1231  0.2802 -0.0961
 6203W        W10267   2.215   0.183   1.811  0.1251 -0.1636 -0.3615
 6204W        W10268   1.925   2.641  10.738  0.0153 -0.1560  0.0235
 6205W        W10269   2.352   0.165   2.429  0.1017 -0.0069 -0.2287
 6206W        W10270   7.537   5.224   8.664  0.0611  0.0901  0.0860
 6207W        W10271   3.724   5.435   1.351  0.0148 -0.1009  0.2136
 6208W        W10272   3.527   9.972   9.246 -0.1054 -0.1553  0.1208
 6209W        W10273   0.441   2.398   2.548 -0.0495  0.1206 -0.0756
 6210W        W10274   9.107   0.337   3.203 -0.1546  0.1003  0.0439
 6211W        W10275   6.092   1.728  11.344  0.2523  0.1057  0.1392
 6212W        W10276   4.588   5.188   1.319  0.3023  0.0857  0.0430
 6213W        W10277   6.723   7.414   8.076  0.1345  0.3748  0.0930
 6214W        W10278   2.368   1.060   1.792  0.0877  0.2561 -0.2578
 6215W        W10279   0.977   3.376   3.604  0.2299  0.0354 -0.1736
 6216W        W10280   9.061   3.810   8.014  0.1483  0.1579  0.1579
 6217W        W10281   9.132   2.615  10.370  0.0731 -0.0859  0.2218
 6218W        W10282   0.312  10.488  11.153 -0.2081 -0.0343  0.1206
 6219W        W10283   9.222   4.627   9.074  0.0831  0.1284  0.0103
 6220W        W10284   3.431   1.497   1.157 -0.2708 -0.1001  0.1071
 6221W        W10285   1.258   9.386  10.588  0.4219 -0.0348 -0.2249
 6222W        W10286   6.117   1.980   9.614 -0.3675 -0.2076 -0.2349
 6223W        W10287   6.107   6.960   1.805 -0.0700  0.2576 -0.0599
 6224W        W10288   1.566   7.916  10.159 -0.0525  0.1364 -0.2690
 6225W        W10289   4.725   8.004   1.537 -0.1759  0.0181 -0.3371
 6226W        W10290   9.098  10.515   2.166 -0.2190  0.1218 -0.2447
 6227W        W10291   1.093   9.773   9.334  0.3313  0.1921  0.1559
 6228W        W10292   8.293   3.457   2.861 -0.3313 -0.2679  0.0154
 6229W        W10293   3.254   9.718  11.407 -0.2452  0.2109 -0.2256
 6230W        W10294   8.182   7.404  10.749  0.0197  0.2923 -0.1558
 6231W        W10295   6.999   0.584   8.863  0.2238 -0.0577 -0.0853
 6232W        W10296   1.237   7.373   9.173  0.1086  0.1025  0.0478
 6233W        W10297   1.975   2.027   1.105 -0.0106  0.2247 -0.2036
 6234W        W10298   7.874   0.595  10.296 -0.3153 -0.2119 -0.0982
 6235W        W10299   7.517   2.409   2.794 -0.0582  0.0129 -0.0388
 6236W        W10300   6.874  10.006   2.467 -0.2433  0.3007  0.1343
 6237W        W10301   4.571  10.375  11.062 -0.0363 -0.1740 -0.1830
 6238W        W10302   7.787   6.451  10.465  0.2129  0.2337 -0.0236
 6239W        W10303   2.990   8.710   2.169 -0.1867  0.0020  0.0362
 6240W        W10304   5.267   3.610  11.490  0.1270  0.0541  0.2502
 6241W        W10305   7.014   7.326   0.684  0.0330 -0.3976  0.0388
 6242W        W10306   7.784   4.311   8.981  0.3067  0.1276  0.2307
 6243W        W10307   7.401   9.704  10.420  0.2343 -0.2307 -0.2087
 6244W        W10308   5.574   2.527   9.584 -0.0476 -0.1071  0.0698
 6245W        W10309   0.639   5.065   3.391 -0.2514  0.1635 -0.2081
 6246W        W10310   4.353   6.365   7.794  0.1395  0.0264 -0.0223
 6247W        W10311   3.990   8.474   4.009  0.3569 -0.2265  0.2472
 6248W        W10312   7.218   3.379   2.223  0.2247 -0.0592  0.1005
 6249W        W10313   6.645   4.404   0.646  0.1236  0.0367  0.2364
 6250W        W10314   8.203  10.270   0.775  0.3000 -0.3855 -0.0059
 6251W        W10315   6.708   1.333  10.165  0.2824  0.0804 -0.1764
 6252W        W10316  10.413   0.532   8.735  0.2832 -0.1265  0.0029
 6253W        W10317   5.387   0.283   0.399  0.2126  0.0918 -0.1845
 6254W        W10318   0.374   3.030   8.750  0.1791 -0.0079  0.0867
 6255W        W10319   3.924   2.417   3.272 -0.0141  0.2297 -0.0998
 6256W        W10320  10.046  10.634  10.627  0.1408  0.1557 -0.1099
 6257W        W10321   7.397   6.864   9.380 -0.2512  0.0471 -0.0443
 6258W        W10322   9.013   6.622   2.370 -0.1717  0.0305  0.0250
 6259W        W10323   7.921   2.691   3.452 -0.0717  0.1149  0.2072
 6260W        W10324   4.000   2.806  10.691 -0.0958 -0.3639 -0.0859
 6261W        W10325  10.493   8.284   2.883  0.2683  0.3297 -0.3716
 6262W        W10326   8.075   8.948  10.586  0.0801  0.1963  0.0728
 6263W        W10327   9.801  10.560   0.442  0.0780 -0.1848  0.1358
 6264W        W10328   9.392   7.335   8.059  0.0530 -0.2592 -0.0013
 6265W        W10329   7.539   6.466   8.476  0.0370 -0.2899  0.0405
 6266W        W10330   3.106   5.735   1.371  0.1124  0.1685  0.2529
 6267W        W10331   2.754   2.517   3.118 -0.1117 -0.0668  0.0301
 6268W        W10332   7.612   4.621   2.787 -0.2162 -0.0013 -0.0780
 6269W        W10333   3.328   4.066  10.879  0.2468  0.0062  0.0125
 6270W        W10334   9.818   7.883   9.043 -0.3418 -0.2155 -0.1077
 6271W        W10335   6.643   3.483   0.675 -0.4963 -0.0141  0.1261
 6272W        W10336   4.917   1.222   8.260  0.0321 -0.0822 -0.0594
 6273W        W10337   0.250   4.835   1.190  0.2250  0.0621  0.0557
 6274W        W10338   9.493   8.112   0.226 -0.1251  0.0584 -0.4103
 6275W        W10339   8.440   4.098   9.701 -0.0199  0.1797 -0.0397
 6276W        W10340   4.519   8.682   0.278  0.1955 -0.0437  0.2566
 6277W        W10341   2.234   5.710   8.061 -0.1115 -0.1040  0.3286
 6278W        W10342   2.808  10.058   8.518 -0.1534 -0.1225 -0.2932
 6279W        W10343   7.044   6.490   8.409  0.2685  0.0173 -0.0244
 6280W        W10344   1.085   6.176   8.013  0.1598  0.0567  0.1099
 6281W        W10345   4.517   5.560   1.963  0.1946  0.0006  0.0608
 6282W        W10346   5.397   7.970   0.968 -0.0848  0.1678  0.2811
 6283W        W10347   0.296   7.314  10.036 -0.1695  0.2098  0.0478
 6284W        W10348   6.229   8.037  10.456  0.2751  0.2261  0.0030
 6285W        W10349   8.372   3.111   8.854  0.1216  0.0029  0.0114
 6286W        W10350   2.080   0.250  10.935  0.0907 -0.0261  0.1794
 6287W        W10351   9.377   3.555  11.405  0.2011 -0.5335 -0.0407
 6288W        W10352   0.529   8.321   2.294  0.1552  0.0597  0.1013
 6289W        W10353   2.115   5.935  10.391  0.3268 -0.0188 -0.0076
 6290W        W10354   5.797   5.018   8.991  0.2378  0.0009  0.0021
 6291W        W10355   3.703   3.030   2.575  0.2019 -0.4960 -0.5422
 6292W        W10356   2.811   5.679   9.666 -0.0500  0.0448  0.2590
 6293W        W10357   1.317   9.868   8.826  0.0596 -0.0678 -0.0618
 6294W        W10358   0.578   5.195  10.727 -0.4585  0.0092  0.3619
 6295W        W10359   2.463   2.673  10.767 -0.1887 -0.3354  0.3026
 6296W        W10360   5.087   7.544   9.043  0.2381  0.1406 -0.1943
 6297W        W10361   1.995   2.258   8.766  0.0060  0.1450 -0.0578
 6298W        W10362   6.784   2.503   2.035 -0.1968  0.2822 -0.1176
 6299W        W10363   8.039   0.148   7.767  0.0238  0.1570 -0.3401
 6300W        W10364   0.267   6.818   9.473 -0.0280  0.2234 -0.1185
 6301W        W10365   2.818   8.236  11.264 -0.1796 -0.4540  0.0295
 6302W        W10366  10.264   5.675   2.281  0.0172 -0.1541  0.2115
 6303W        W10367   1.467   1.394   9.947 -0.0744 -0.0228 -0.0125
 6304W        W10368   3.772   2.076  10.940  0.0444 -0.0288  0.1367
 6305W        W10369   6.404   3.917   0.575  0.0329 -0.2100 -0.2625
 6306W        W10370   2.985   7.760   9.105 -0.0544 -0.1947 -0.0534
 6307W        W10371   4.285   6.201   2.481 -0.1744  0.0172 -0.1002
 6308W        W10372   8.872   9.487   0.550  0.0460  0.1375 -0.0969
 6309W        W10373   5.811   9.577   8.354 -0.4895  0.1262  0.2839
 6310W        W10374   6.257   4.045  10.365  0.0776 -0.0384  0.2910
 6311W        W10375   3.626   3.008  11.190  0.1566 -0.0576  0.1075
 6312W        W10376   4.182   2.881   8.557 -0.3148 -0.0925 -0.0297
 6313W        W10377   4.526   5.233   8.720  0.2018 -0.2137  0.1206
 6314W        W10378   1.896   7.482   4.257 -0.0510  0.2722  0.0900
 6315W        W10379   6.720   2.643  11.196 -0.0009 -0.2761 -0.0426
 6316W        W10380   8.039   0.050   9.571 -0.2248 -0.1187 -0.0557
 6317W        W10381   6.268   2.695  11.557  0.0901 -0.0762 -0.0689
 6318W        W10382   4.143   1.811  11.557  0.0515  0.0284 -0.0488
 6319W        W10383   7.997   7.087   8.904 -0.0515 -0.0022 -0.1471
 6320W        W10384   4.865   9.309   0.904 -0.0916 -0.0687  0.1942
 6321W        W10385   7.349   2.135   7.854  0.1137 -0.1438  0.1182
 6322W        W10386   5.270   9.444   9.248 -0.0569 -0.4106  0.0942
 6323W        W10387   9.431   4.983  11.143  0.0939  0.1539 -0.0387
 6324W        W10388   2.531   4.280  11.384  0.1526  0.0945 -0.2366
 6325W        W10389   7.223   9.096   8.062 -0.1969 -0.3521 -0.1576
 6326W        W10390   6.883   2.446   9.904  0.0868 -0.1403  0.2891
 6327W        W10391   8.645   7.093   0.091 -0.0604 -0.1795 -0.0236
 6328W        W10392   3.852   1.304   3.337 -0.1436  0.2226 -0.1416
 6329W        W10393   3.066   2.276  11.494 -0.6261 -0.2039  0.0893
 6330W        W10394   1.481   4.908   8.714  0.1175 -0.2309 -0.1368
 6331W        W10395   1.535   6.881   9.811 -0.1855  0.1594 -0.0383
 6332W        W10396   6.474   8.178   9.887 -0.2571  0.3018  0.0786
 6333W        W10397   7.863   2.672   1.499 -0.3415  0.0765  0.0660
 6334W        W10398   3.723   1.602  10.223  0.0627 -0.2239  0.1855
 6335W        W10399   8.952   7.482   9.778  0.0151  0.2137 -0.0729
 6336W        W10400   9.637   5.583  11.263  0.2210 -0.1111  0.3029
 6337W        W10401   8.591   3.758   0.268 -0.2139  0.1392  0.2049
 6338W        W10402   8.462   8.529   0.373 -0.0249  0.0480  0.0447
 6339W        W10403   3.824   1.342   0.023  0.0374 -0.1591  0.0923
 6340W        W10404   0.483   4.878   8.014  0.4278 -0.1849  0.2547
 6341W        W10405   3.422   2.298   8.222 -0.3157 -0.1211 -0.2146
 6342W        W10406   0.846   9.031   0.011 -0.1218  0.0348  0.0474
 6343W        W10407  10.102   6.611  10.960 -0.0655 -0.0416 -0.1361
 6344W        W10408   7.416   4.962   9.047 -0.1129 -0.1815  0.1910
 6345W        W10409   1.535  10.105   1.692  0.3453 -0.0950  0.1853
 6346W        W10410   1.071   3.565   3.104  0.0586  0.2104  0.0710
 6347W        W10411   9.130   2.693   8.931 -0.2025 -0.1273 -0.5050
 6348W        W10412   8.637   2.725   8.770 -0.3785 -0.2160  0.0637
 6349W        W10413  10.488   0.830   2.183  0.0498  0.0958 -0.0355
 6350W        W10414   1.283   1.046  10.412 -0.2356  0.0415 -0.1119
 6351W        W10415   0.548   3.568   9.786  0.1546  0.1394 -0.0502
 6352W        W10416   5.532   4.564   3.978 -0.1949 -0.1314 -0.2404
 6353W        W10417   3.011   4.068  11.571 -0.0545 -0.0060 -0.1980
 6354W        W10418   9.979   0.863  10.582  0.1253 -0.0323  0.1196
 6355W        W10419   0.209   5.048   0.010  0.3227  0.1347  0.2892
 6356W        W10420   5.696   4.709   1.069  0.0299 -0.2481 -0.0431
 6357W        W10421   0.590   0.283   0.241  0.1438  0.1639 -0.1363
 6358W        W10422   2.326   6.875  11.262  0.1220 -0.2828 -0.1975
 6359W        W10423   0.583   6.873   3.238  0.1494 -0.2372  0.0450
 6360W        W10424   0.155   3.978   1.113  0.1047 -0.1063 -0.2405
 6361W        W10425   9.392   9.725   2.188  0.2831 -0.2172  0.1794
 6362W        W10426   1.627   3.730   9.036 -0.2354 -0.1029  0.0617
 6363W        W10427   1.842   3.690   7.762  0.0290 -0.2364  0.2091
 6364W        W10428   8.696   7.535   7.101  0.1041  0.3294  0.1350
 6365W        W10429   0.187   1.443   9.469  0.2087 -0.2072  0.0808
 6366W        W10430   8.151   3.674  10.419 -0.1774 -0.2169 -0.1324
 6367W        W10431   8.184   3.835  10.968 -0.1886  0.3286 -0.1287
 6368W        W10432   2.416  10.458  10.463 -0.0503  0.0555  0.1290
 6369W        W10433   8.742   9.302  10.919 -0.0686 -0.0179 -0.4228
 6370W        W10434   4.213   6.345   8.310 -0.1143  0.1172  0.1488
 6371W        W10435   8.117   5.236   8.322  0.1412  0.1632 -0.1994
 6372W        W10436   0.482   3.496  11.077  0.0386 -0.0190 -0.1042
 6373W        W10437   6.980   0.707   2.834 -0.2698 -0.0945 -0.0573
 6374W        W10438   5.548   7.648   8.947 -0.0514  0.3472  0.1205
 6375W        W10439   4.890   2.833  10.373 -0.0981  0.1358  0.1383
 6376W        W10440   7.879   8.146   1.269  0.1057  0.0684  0.0165
 6377W        W10441   9.572   6.834   9.797 -0.0398  0.0161  0.0581
 6378W        W10442   4.569   6.024   8.449 -0.0244 -0.2747 -0.1792
 6379W        W10443   5.141   0.351   1.119  0.1922 -0.4286 -0.0478
 6380W        W10444   5.939   1.033  10.399  0.1307  0.0297 -0.4471
 6381W        W10445   2.244   9.971  10.656  0.2875  0.1293  0.0361
 6382W        W10446   0.220   6.747   0.533  0.2912  0.0130  0.0871
 6383W        W10447   0.074   9.083   3.084 -0.0757 -0.2971 -0.2015
 6384W        W10448   0.096   6.008   8.574  0.0536  0.0588  0.2535
 6385W        W10449   2.991   7.000   3.220 -0.0753  0.1651  0.3433
 6386W        W10450   1.160   7.282   9.692 -0.0892 -0.0403  0.2198
 6387W        W10451   8.481   8.347  10.792  0.1530  0.1292  0.4338
 6388W        W10452   3.058   9.135   9.052 -0.2349  0.0875 -0.2216
 6389W        W10453   5.600   6.152   3.029  0.1096 -0.2557 -0.1287
 6390W        W10454   1.612   1.646   0.574 -0.0610 -0.2297 -0.2483
 6391W        W10455   7.291   3.042   8.734 -0.1367 -0.0239 -0.1943
 6392W        W10456   1.914   9.932   1.377 -0.0974 -0.2009  0.1438
 6393W        W10457   9.901   4.175  10.078 -0.2236  0.1444 -0.2998
 6394W        W10458   4.506   5.039   9.580  0.1070  0.2402 -0.1098
 6395W        W10459  10.239   9.713   9.730 -0.1291  0.1514 -0.0065
 6396W        W10460   5.184   1.165   0.315  0.4141  0.0202 -0.2155
 6397W        W10461   9.761   7.414   3.197  0.0767 -0.0312 -0.2499
 6398W        W10462   8.367   8.427   7.094  0.3030  0.1206  0.1212
 6399W        W10463   5.906   6.548  11.264  0.0406  0.2264 -0.3041
 6400W        W10464   0.744   0.297   1.143  0.0944  0.0832 -0.0262
 6401W        W10465   0.525   2.952  10.238  0.3075  0.2509  0.0926
 6402W        W10466   3.572   9.862   8.638 -0.1573  0.2092 -0.3155
 6403W        W10467   3.574   3.644  10.691 -0.0019 -0.0042  0.2110
 6404W        W10468   1.378   4.264   1.637 -0.1972  0.1170  0.0002
 6405W        W10469   0.195   0.025   0.016  0.0721 -0.2676  0.3220
 6406W        W10470   7.484   9.953   9.887 -0.1869  0.1723 -0.3152
 6407W        W10471   5.699   2.613  10.748 -0.0490  0.1264  0.1679
 6408W        W10472   8.395   1.859   7.729  0.2351 -0.0261  0.4262
 6409W        W10473  10.367   5.661   3.344  0.0888  0.0538  0.2801
 6410W        W10474   3.511   4.497   3.023  0.0235 -0.1293  0.1083
 6411W        W10475   3.442   3.590  11.158  0.3122 -0.0822 -0.3069
 6412W        W10476  10.398   4.387   8.683 -0.0505 -0.1717 -0.0854
 6413W        W10477   2.140   3.821   1.578  0.3892 -0.0423  0.2356
 6414W        W10478   3.977   1.938  10.509 -0.1065 -0.0634  0.0337
 6415W        W10479   2.232   7.785   3.071 -0.1212 -0.2182  0.0051
 6416W        W10480   5.842   8.589   9.306 -0.0925 -0.2581 -0.0145
 6417W        W10481   7.921   9.776   2.780  0.5381  0.1807 -0.2277
 6418W        W10482   9.594   4.200   9.521 -0.1379 -0.1376 -0.3149
 6419W        W10483   7.618   1.845   9.866 -0.0930  0.4146  0.1098
 6420W        W10484   9.793   5.220   1.307  0.0466 -0.3275  0.0635
 6421W        W10485   9.562   2.439   1.545  0.0609  0.1083  0.2246
 6422W        W10486   7.238   2.450   8.204  0.0970  0.1020  0.0016
 6423W        W10487   6.926   5.562   0.930 -0.3415 -0.2050  0.0306
 6424W        W10488   4.171   5.722   2.618 -0.0030  0.1827 -0.1192
 6425W        W10489   6.528   7.260  11.593 -0.0430  0.3135 -0.0553
 6426W        W10490  10.478   1.131   9.383 -0.0064  0.2944 -0.3833
 6427W        W10491   5.504   8.622   8.786  0.2995  0.1540  0.0741
 6428W        W10492   7.077   6.470   0.325  0.0694 -0.3043 -0.1286
 6429W        W10493   9.804   8.434   8.083 -0.1020  0.0454  0.2807
 6430W        W10494   3.126   5.840  10.829 -0.0128 -0.1509 -0.1682
 6431W        W10495  10.049   8.582   2.709 -0.2179  0.2395  0.0059
 6432W        W10496   9.385   1.790   2.773 -0.0178  0.0430 -0.0334
 6433W        W10497   6.092   4.613   9.127 -0.2601  0.2077  0.1578
 6434W        W10498   2.375   1.806   9.126  0.0316  0.0129 -0.2948
 6435W        W10499  10.339   2.770   2.330 -0.0997 -0.1298  0.1524
 6436W        W10500   2.817   7.978   1.319 -0.0843 -0.0112  0.0799
 6437W        W10501   7.268   6.246   2.781  0.0287  0.1420  0.0706
 6438W        W10502   6.949   4.750   0.339 -0.2022 -0.1500  0.0744
 6439W        W10503   7.882   0.720   8.378  0.4042 -0.1688  0.0950
 6440W        W10504  10.610   9.819  10.171 -0.1407  0.3719  0.3963
 6441W        W10505   1.928   4.492  10.517 -0.4217 -0.0011 -0.1232
 6442W        W10506   9.635  10.343   8.349  0.2653  0.2593 -0.1707
 6443W        W10507   4.409  10.541   8.391 -0.0052  0.2075 -0.0292
 6444W        W10508   1.248   1.587   1.080  0.2710  0.1437  0.0437
 6445W        W10509   7.652   6.975   8.432  0.1522  0.0782  0.2325
 6446W        W10510   6.086   4.535  11.308  0.0862 -0.3124 -0.3059
 6447W        W10511  10.512   8.950  10.324 -0.5442 -0.0276 -0.2848
 6448W        W10512   4.122   7.734   8.108 -0.2417 -0.2206 -0.2965
 6449W        W10513   5.663   0.460   2.457  0.0180 -0.0978 -0.2523
 6450W        W10514   8.551   1.541   2.126  0.1709  0.0258 -0.1907
 6451W        W10515   5.131   2.198   9.896  0.2668  0.0239  0.0732
 6452W        W10516   1.924   6.458   0.386 -0.0269  0.1068 -0.0523
 6453W        W10517   7.573   3.950   3.507  0.1102  0.2643  0.1332
 6454W        W10518   8.356   7.618   1.040  0.0323 -0.1498  0.0342
 6455W        W10519  10.105   7.150   8.918  0.2475  0.1258  0.2596
 6456W        W10520   6.393   4.990  11.228  0.2882 -0.0435  0.1344
 6457W        W10521   9.938   1.673   2.561 -0.1320  0.3013 -0.1694
 6458W        W10522   0.459   9.935  11.302 -0.1243  0.2681  0.3748
 6459W        W10523   9.902   7.349   0.250 -0.1290  0.2072  0.4295
 6460W        W10524   6.534   3.827   9.945  0.1586  0.0949 -0.2161
 6461W        W10525   5.381   9.813  10.005  0.1051  0.1271  0.0983
 6462W        W10526   4.429   3.377   8.335  0.0153  0.0627 -0.0028
 6463W        W10527   7.383   1.206   0.344  0.3481  0.0629  0.4833
 6464W        W10528   4.152   3.594  11.218  0.0057  0.1377 -0.2037
 6465W        W10529   8.123   1.663   0.321  0.0054  0.1258  0.0077
 6466W        W10530   7.772   1.024   2.715  0.4983 -0.1393  0.0990
 6467W        W10531   6.629   0.668  10.872  0.1410  0.0034 -0.1762
 6468W        W10532   9.592   3.187   0.737 -0.0977 -0.3599  0.0253
 6469W        W10533   8.263   0.832   2.620 -0.1019  0.2717 -0.1969
 6470W        W10534   3.277   6.486   8.217  0.0210  0.1083 -0.1196
 6471W        W10535   7.766   9.028   8.409 -0.1263  0.0411  0.1289
 6472W        W10536   1.796   7.875  10.594 -0.3083 -0.3576 -0.0527
 6473W        W10537   7.493  10.352   2.626 -0.0037 -0.0456 -0.1074
 6474W        W10538   1.772   2.543   1.698  0.1169  0.0505 -0.0852
 6475W        W10539   4.509   9.813   7.718  0.2094  0.0964 -0.0642
 6476W        W10540   7.625   3.726  10.881 -0.0799  0.1418  0.1153
 6477W        W10541   4.077   4.652   4.042 -0.0307 -0.2609  0.0629
 6478W        W10542   5.175   4.804   8.237  0.0221 -0.2530 -0.2387
 6479W        W10543   9.253   1.943   8.218 -0.0150  0.3139 -0.0505
 6480W        W10544   8.276   2.035   0.851  0.1554  0.3053 -0.4011
 6481W        W10545   1.073   6.885   3.151 -0.0283 -0.0748 -0.0160
 6482W        W10546   0.605   8.506   9.731 -0.0871 -0.1788 -0.2242
 6483W        W10547   0.538   9.140   2.045 -0.0658 -0.1357 -0.3761
 6484W        W10548   1.646   2.336   2.134 -0.2377 -0.1907  0.0752
 6485W        W10549   7.359  10.406   3.122 -0.1773 -0.1093 -0.0315
 6486W        W10550   1.528   4.240  10.155 -0.0643  0.2441 -0.2098
 6487W        W10551   8.993   1.789   9.949  0.1427 -0.0816  0.1505
 6488W        W10552   1.546   3.400   9.428 -0.1116  0.0189 -0.1754
 6489W        W10553   9.211   8.343  10.081 -0.0142  0.0810  0.1323
 6490W        W10554   0.473   7.461   0.372  0.2199 -0.2225 -0.0069
 6491W        W10555   7.487   7.907   8.662  0.0590 -0.0271  0.0307
 6492W        W10556   5.582   0.831   1.134  0.0091  0.0101 -0.0304
 6493W        W10557   1.292   4.563   9.386 -0.1825  0.1547  0.0014
 6494W        W10558   3.632   7.444   1.291  0.2296  0.0175 -0.1473
 6495W        W10559  10.526   3.470   1.213  0.1936 -0.5080  0.3491
 6496W        W10560   4.754   1.414   1.116 -0.3408 -0.1229  0.0683
 6497W        W10561   3.444  10.053   1.455  0.0469  0.0422 -0.3419
 6498W        W10562   0.780   1.748   2.175  0.1615 -0.2204 -0.1817
 6499W        W10563   4.189   9.938   8.705 -0.0268 -0.2360  0.2423
 6500W        W10564   4.425   0.700   3.718  0.0051 -0.2077  0.2214
 6501W        W10565   4.378   7.170   2.443  0.3252  0.0478  0.0308
 6502W        W10566   2.649   2.787   9.284 -0.1803  0.0440  0.0683
 6503W        W10567   0.609  10.395   2.855 -0.0729  0.2067 -0.0572
 6504W        W10568   7.401   0.255   2.889  0.0607  0.3432  0.3243
 6505W        W10569   7.822  10.189  10.727  0.1060 -0.0670  0.2136
 6506W        W10570   3.077   9.139   2.635 -0.0785  0.1331 -0.0763
 6507W        W10571   6.076   0.519   8.821 -0.2676 -0.4901 -0.1604
 6508W        W10572   9.987   0.302   8.579  0.1371  0.2767 -0.2522
 6509W        W10573   2.649  10.549   2.055 -0.1200 -0.1755 -0.0330
 6510W        W10574   9.317   5.742   8.022 -0.1722 -0.1686 -0.2852
 6511W        W10575   1.361   1.048   0.538 -0.2339  0.0243  0.0869
 6512W        W10576   4.438   0.832   1.779 -0.1292 -0.0566  0.4383
 6513W        W10577   9.073   0.958   0.858  0.4412  0.0796 -0.1900
 6514W        W10578   8.914   0.408   9.521 -0.2606  0.1445 -0.0428
 6515W        W10579   8.685   0.218   2.286 -0.2611  0.3177 -0.1242
 6516W        W10580   1.924   3.767   0.994 -0.0634 -0.1236 -0.1955
 6517W        W10581   0.654   0.793   9.733  0.4538 -0.0996  0.2112
 6518W        W10582   9.272   7.451   1.403  0.0449 -0.1433  0.1022
 6519W        W10583   0.108   5.754   9.506  0.1160 -0.2505 -0.0887
 6520W        W10584  10.188  10.001   2.965  0.1121 -0.0878 -0.1206
 6521W        W10585   6.974   2.044   1.451  0.3072 -0.1105  0.0394
 6522W        W10586  10.114   3.166   1.561 -0.2335 -0.3319  0.0610
 6523W        W10587   2.541   2.141   2.787 -0.0879  0.1513  0.1034
 6524W        W10588   5.671   5.909   0.284  0.1471  0.0955 -0.0600
 6525W        W10589   9.246   9.679   1.258  0.0543 -0.0178  0.2824
 6526W        W10590   4.366  10.237   2.829  0.0918 -0.2251  0.1818
 6527W        W10591   6.778   9.655   0.601 -0.0312  0.2883 -0.0855
 6528W        W10592   7.165   5.260   1.239  0.0784  0.0029 -0.0813
 6529W        W10593   6.355   7.133  10.290 -0.0068 -0.1282 -0.0637
 6530W        W10594   7.985  10.181   9.707  0.2344 -0.0287 -0.0681
 6531W        W10595   6.984   4.788   1.319  0.1113  0.2295 -0.2380
 6532W        W10596   1.394   7.446   4.217 -0.0074 -0.1208 -0.0254
 6533W        W10597   2.528   8.791   2.544 -0.2130  0.1398 -0.0257
 6534W        W10598   6.351   4.596   7.878  0.1550  0.2286  0.0679
 6535W        W10599  10.147   8.473   1.878  0.1413  0.1341 -0.0957
 6536W        W10600   1.283   5.117   1.758 -0.0247 -0.0244 -0.0332
 6537W        W10601   4.525   1.281   9.033  0.0345  0.3596  0.1146
 6538W        W10602   3.003   0.260   0.594  0.0820  0.0717  0.3452
 6539W        W10603   9.244   7.560   3.404 -0.2519 -0.0229  0.1888
 6540W        W10604   6.615   6.217  10.710  0.0652 -0.1740 -0.1213
 6541W        W10605   5.125   8.941   1.696 -0.3805 -0.3357  0.0328
 6542W        W10606   4.717   5.036   8.252 -0.0523 -0.0429  0.4642
 6543W        W10607   3.168   6.701   1.848 -0.1401  0.3094  0.1720
 6544W        W10608   2.032   3.018   1.991 -0.2575  0.1210 -0.1926
 6545W        W10609   5.890   4.564   2.185  0.0738 -0.1085  0.2800
 6546W        W10610   3.651   5.634   0.054 -0.2086  0.3496  0.0679
 6547W        W10611   4.807   7.776  10.721 -0.0403  0.0149  0.2357
 6548W        W10612   9.958   4.071  10.606  0.0073  0.0248 -0.2148
 6549W        W10613   1.657   5.021  10.746 -0.3211 -0.0357  0.0085
 6550W        W10614   0.323   1.025  10.282  0.2113 -0.0851 -0.2270
 6551W        W10615   3.014   5.904   9.284  0.4310  0.2084 -0.1038
 6552W        W10616   0.637   0.681   2.144 -0.0455 -0.2835  0.3680
 6553W        W10617   5.062   1.722   9.784 -0.1993 -0.4318 -0.1933
 6554W        W10618   3.075   3.918   1.645 -0.2029 -0.0318  0.3848
 6555W        W10619   9.557   1.144   7.803 -0.2541  0.0979 -0.0500
 6556W        W10620   5.176   8.469   3.876  0.1554  0.0757  0.1322
 6557W        W10621   6.754   2.783   9.391  0.3967  0.1129  0.2369
 6558W        W10622   7.715   2.066   0.419 -0.1917  0.0398  0.0259
 6559W        W10623   5.474   2.339  10.442 -0.2000 -0.0966  0.1426
 6560W        W10624   3.435   4.379   8.242  0.1868  0.1172  0.3049
 6561W        W10625   4.242   2.651   1.094  0.1488  0.3264  0.0060
 6562W        W10626   5.996   2.720   0.349  0.0649 -0.0068  0.1962
 6563W        W10627   5.112   1.127   9.143  0.1207  0.2511  0.0783
 6564W        W10628   0.640   7.350   2.198 -0.1542 -0.3756 -0.2390
 6565W        W10629   7.124   4.423   1.780  0.0525  0.0102  0.0293
 6566W        W10630   6.662   6.930   8.289  0.2647 -0.0272  0.0817
 6567W        W10631   3.035  10.116   3.193  0.0029 -0.0873 -0.0404
 6568W        W10632   2.134   0.452   0.342 -0.0742 -0.1852  0.0910
 6569W        W10633   7.552   5.141   2.165 -0.2105 -0.1356  0.3248
 6570W        W10634   6.714   5.521   8.103 -0.2896 -0.1860 -0.0505
 6571W        W10635   3.221   7.919   0.518  0.0204 -0.0354 -0.1664
 6572W        W10636   8.001   4.056   1.619  0.2146  0.1126  0.1506
 6573W        W10637  10.608   6.774   8.221  0.2110 -0.2867 -0.3083
 6574W        W10638   9.180   9.616  10.116 -0.1285  0.0860  0.2987
 6575W        W10639   5.563  10.008   3.108 -0.0221 -0.0870 -0.0397
 6576W        W10640   5.629   7.191   0.487  0.2737  0.2267 -0.2277
 6577W        W10641   0.384   6.841  10.854 -0.2084 -0.1606  0.1433
 6578W        W10642   5.110   5.637   0.277  0.2812  0.3946 -0.0683
 6579W        W10643   5.390   1.901  10.232 -0.1726  0.1061 -0.0791
 6580W        W10644   5.605   5.186   0.990  0.0622  0.2250  0.2583
 6581W        W10645   5.435   8.360   0.088 -0.0541  0.2685 -0.1435
 6582W        W10646   3.340   8.686  10.311 -0.0979  0.0557 -0.0964
 6583W        W10647   0.310   0.623   1.221 -0.2437  0.0163 -0.0263
 6584W        W10648   7.239   1.902   9.191 -0.1371  0.0581  0.0877
 6585W        W10649   7.706   4.673   9.306 -0.2787 -0.1996 -0.1412
 6586W        W10650   1.565   6.535  11.585  0.0059 -0.0168 -0.1749
 6587W        W10651   6.927   6.839   2.011 -0.0149 -0.2629  0.1635
 6588W        W10652   6.859   3.706   8.331  0.2389 -0.1935 -0.1024
 6589W        W10653   2.951   7.157   1.818  0.0934 -0.0776 -0.1075
 6590W        W10654   0.491  10.455   9.105 -0.2181 -0.1203 -0.0914
 6591W        W10655   7.400   2.270   1.210  0.0332 -0.3499 -0.0283
 6592W        W10656   6.605   5.045  10.139 -0.3164 -0.2404 -0.0052
 6593W        W10657   6.185   3.594  11.288  0.2266 -0.2283  0.0518
 6594W        W10658   7.746   5.326   4.012  0.3513 -0.0688  0.1616
 6595W        W10659   0.691   4.777   9.064 -0.4175 -0.1524 -0.0743
 6596W        W10660   2.159  10.439   2.148 -0.2354  0.1869  0.1735
 6597W        W10661   0.599   8.245  11.329  0.0606 -0.5424  0.0566
 6598W        W10662  10.586   8.877   2.011  0.2180 -0.0424 -0.0945
 6599W        W10663   1.446   7.706   1.162 -0.0512  0.0090 -0.0318
 6600W        W10664   3.416   5.280  10.333 -0.0011  0.3766  0.3887
 6601W        W10665   6.037   3.289   3.504  0.0788  0.0628  0.1354
 6602W        W10666   3.680   5.062   3.394  0.0541 -0.4543  0.1188
 6603W        W10667   0.358   3.443  10.258  0.0708  0.2265  0.0078
 6604W        W10668   7.546   2.463  10.509 -0.0338  0.0067 -0.1784
 6605W        W10669   8.362   5.705   7.234  0.0762 -0.0268  0.1849
 6606W        W10670   0.563   6.356   2.135 -0.1361 -0.3600 -0.0769
 6607W        W10671   3.856   6.775   9.978 -0.0743  0.1883 -0.1438
 6608W        W10672   9.010   2.605   3.005 -0.0333  0.1098  0.0115
 6609W        W10673   2.816   8.433   9.884 -0.0252  0.0580 -0.3631
 6610W        W10674   4.581   6.382   9.464  0.1077  0.0137 -0.4817
 6611W        W10675   8.316   9.922   1.156 -0.0552 -0.0019 -0.0868
 6612W        W10676   5.089   0.388  10.027 -0.0195  0.3126  0.1798
 6613W        W10677   5.985   8.582   3.126 -0.0360 -0.3834  0.2254
 6614W        W10678   0.690   6.549   9.477  0.0336 -0.1425  0.2380
 6615W        W10679   4.100   4.025   3.652 -0.4563  0.0357  0.1532
 6616W        W10680   2.820   1.670   3.630  0.1622  0.1612 -0.1725
 6617W        W10681  10.167   9.654   0.203  0.1922 -0.0804  0.0386
 6618W        W10682   6.387   3.696   8.875  0.2630 -0.2453 -0.1376
 6619W        W10683  10.153  10.368   2.557 -0.0338 -0.0011 -0.2026
 6620W        W10684   8.658   5.428   2.942 -0.2384 -0.0638  0.5587
 6621W        W10685   4.710   1.474   2.378 -0.2811 -0.1370  0.0050
 6622W        W10686   8.005   4.955   2.672  0.2003  0.3853  0.1653
 6623W        W10687   6.394   8.829   0.458 -0.1783  0.1285 -0.0504
 6624W        W10688   7.431   5.626   7.543  0.0573 -0.0314  0.3180
 6625W        W10689   6.436   2.912   1.586 -0.0107  0.0606 -0.0746
 6626W        W10690   3.687   4.984  10.799  0.0851  0.1489  0.0004
 6627W        W10691   6.591   8.352   8.071  0.0550 -0.0014  0.0213
 6628W        W10692   0.898   0.872   0.391  0.1228  0.0486 -0.0424
 6629W        W10693   7.154   4.033   7.015 -0.3335 -0.3135 -0.1552
 6630W        W10694   8.831   3.291   8.720  0.0008 -0.1940 -0.0973
 6631W        W10695   8.154   5.243   3.566 -0.0401  0.1221  0.0420
 6632W        W10696   5.055   8.040  10.259 -0.1388 -0.3365  0.0955
 6633W        W10697   3.078   2.552   9.612 -0.4108  0.0479  0.0807
 6634W        W10698   7.670   6.138   8.839 -0.0448 -0.0374  0.2877
 6635W        W10699   6.549   4.228  11.292  0.2075 -0.2109 -0.0786
 6636W        W10700   4.154   5.043   2.638 -0.1057 -0.0580 -0.1092
 6637W        W10701   7.965   3.161   3.782 -0.1268  0.0255  0.3112
 6638W        W10702   2.941   6.331   2.064  0.0012 -0.0401  0.1056
 6639W        W10703   4.561  10.551   9.722 -0.4324  0.3665  0.0664
 6640W        W10704   4.948   5.048   2.902 -0.4243 -0.1455 -0.2584
 6641W        W10705   2.530   5.703   0.053 -0.0777  0.1610 -0.0345
 6642W        W10706   3.591   8.601   2.206  0.2585  0.2269 -0.0898
 6643W        W10707   5.634  10.499   8.479  0.0808 -0.1991 -0.1081
 6644W        W10708   4.145   7.435   1.402  0.1557 -0.1011 -0.0039
 6645W        W10709   8.706   1.214   2.489  0.2065 -0.0471  0.0863
 6646W        W10710   3.697   8.961  10.005  0.1097  0.0419 -0.0413
 6647W        W10711   1.822   5.399   0.554 -0.1350 -0.0591 -0.1425
 6648W        W10712   0.266   9.544  10.955  0.2242 -0.0893 -0.0805
 6649W        W10713   5.005   8.231  10.727 -0.0550 -0.0981 -0.0868
 6650W        W10714   2.426   8.651  11.188  0.1361  0.0161 -0.0334
 6651W        W10715   7.729   3.864   8.719  0.1539 -0.0726  0.1360
 6652W        W10716   6.891   0.547   0.187  0.0151 -0.1024  0.1428
 6653W        W10717   6.010   7.857   9.108 -0.1818 -0.0153  0.0157
 6654W        W10718   0.520   2.998   1.785 -0.0985 -0.3279 -0.2942
 6655W        W10719   6.439   4.118   3.338 -0.0187 -0.3647  0.1839
 6656W        W10720   4.347   7.882   1.252  0.4530 -0.2334 -0.3829
 6657W        W10721   4.770   4.226  10.085 -0.3107 -0.3094  0.0770
 6658W        W10722   7.737   6.741   6.998 -0.1072  0.0529 -0.1209
 6659W        W10723   8.588   4.297   9.027 -0.1679  0.1498 -0.0034
 6660W        W10724   4.089   2.245   1.877 -0.1095  0.2368  0.1651
 6661W        W10725   7.545   1.655   0.100  0.0209  0.2908  0.0945
 6662W        W10726   4.011   9.380   3.033  0.0513 -0.0325  0.2885
 6663W        W10727   4.966   3.998   8.836  0.3768  0.4549  0.2172
 6664W        W10728   8.463   9.668   0.147  0.1490  0.0122 -0.2153
 6665W        W10729   5.171   3.101   2.977  0.0528 -0.3444  0.2385
 6666W        W10730   7.991   4.734  11.411  0.1286  0.0604  0.0101
 6667W        W10731   3.438   4.743   0.113 -0.1084  0.2109  0.0312
 6668W        W10732   1.990   6.676   1.896 -0.0702 -0.0486  0.0501
 6669W        W10733   9.786   2.440   7.102 -0.0070 -0.0743  0.1156
 6670W        W10734   2.533   0.396   2.888  0.1894 -0.0875  0.1523
 6671W        W10735   1.451   7.265   2.105  0.2725  0.1260  0.0192
 6672W        W10736   6.153   9.438   0.099  0.2168  0.1596  0.0903
 6673W        W10737   9.386   4.712   2.774  0.0936 -0.0983 -0.1714
 6674W        W10738   6.170   3.856   2.842 -0.1657  0.1105  0.0034
 6675W        W10739   6.642   7.608   9.648 -0.0679  0.0627  0.1629
 6676W        W10740   4.688   3.043   0.418 -0.2257 -0.4285  0.0882
 6677W        W10741  10.462   1.338   3.216  0.1967 -0.5213 -0.3349
 6678W        W10742   1.281   4.801   8.268  0.0206  0.5255 -0.1013
 6679W        W10743   2.172   8.244  10.457  0.1689  0.0217 -0.1084
 6680W        W10744   7.720   7.829  10.811  0.0384 -0.0756 -0.0747
 6681W        W10745   0.508   0.839   3.491  0.1116  0.1194 -0.0753
 6682W        W10746   6.413   2.501   7.038 -0.2287 -0.0814  0.1313
 6683W        W10747   6.663   1.696   2.426 -0.2304 -0.1953  0.1234
 6684W        W10748   9.167   7.792   8.366  0.0185  0.0844  0.3411
 6685W        W10749   2.984   3.204   0.333  0.0066  0.1400  0.0001
 6686W        W10750   8.518   9.127   2.215  0.3857  0.2720 -0.1675
 6687W        W10751   5.566   2.441   7.959 -0.3747  0.0403  0.2103
 6688W        W10752  10.358   2.788   0.091  0.1391 -0.1863 -0.0351
 6689W        W10753   5.996   4.309  10.851 -0.1713  0.0342  0.0567
 6690W        W10754   9.388   3.058  11.374  0.5895 -0.1666 -0.2190
 6691W        W10755   1.237   2.128   2.375  0.0958  0.1992 -0.0694
 6692W        W10756  10.550   6.007   1.363 -0.1759 -0.3577  0.0593
 6693W        W10757   5.744   1.652   8.312  0.0238 -0.3437  0.0021
 6694W        W10758   0.118   3.754   2.669 -0.1995 -0.0672 -0.1319
 6695W        W10759   7.658   7.261   9.848  0.1633 -0.1908  0.1785
 6696W        W10760   3.483   8.769   0.032  0.1870 -0.1248 -0.0327
 6697W        W10761  10.462   7.648  10.509 -0.2514 -0.1950  0.2402
 6698W        W10762   3.815   7.379   0.106  0.0285  0.1692  0.3510
 6699W        W10763   2.866   3.023   2.961  0.4962 -0.1382  0.2912
 6700W        W10764   3.742   5.738   8.737 -0.0259  0.3029 -0.0890
 6701W        W10765   7.429   4.793   0.505 -0.1324  0.0002  0.0395
 6702W        W10766   3.800   0.611   9.968 -0.3040 -0.0145 -0.2132
 6703W        W10767   5.130   9.996  10.765  0.3470 -0.0712 -0.1512
 6704W        W10768   6.858   5.312  11.024 -0.1504  0.2365  0.0692
 6705W        W10769   6.356   5.409  10.329  0.0617  0.0734  0.2069
 6706W        W10770   8.028   1.870   2.739  0.2381  0.1961 -0.4280
 6707W        W10771   1.760   0.021   1.931 -0.0401  0.0029 -0.1174
 6708W        W10772   5.602   3.264   0.361  0.1260 -0.0366  0.1647
 6709W        W10773   3.260   2.406  10.115 -0.1624  0.2307 -0.1069
 6710W        W10774   0.051   1.861   3.320 -0.1750  0.1516 -0.1345
 6711W        W10775   5.458   0.042  10.140 -0.0573  0.0289 -0.1060
 6712W        W10776   7.270   1.085   2.807 -0.1810  0.0786 -0.1465
 6713W        W10777   2.298   2.614   2.707  0.0995 -0.0153  0.2809
 6714W        W10778   6.033   7.723   7.970  0.1851 -0.1255  0.0117
 6715W        W10779   9.398   0.674   3.439  0.0016 -0.2815  0.0546
 6716W        W10780   7.071   2.607   0.819  0.1579  0.2394  0.2399
 6717W        W10781   9.352   1.464   1.797  0.0612  0.3493 -0.2994
 6718W        W10782   2.494   7.048   7.656 -0.2764 -0.0918 -0.2925
 6719W        W10783   4.050   6.063   0.784  0.3059  0.1249 -0.1105
 6720W        W10784   4.372   3.787   2.855 -0.3899 -0.3733  0.0862
 6721W        W10785   9.664   5.078   3.132 -0.3530 -0.1026 -0.1689
 6722W        W10786   7.064   3.180   1.792  0.2402 -0.0901 -0.0346
 6723W        W10787   4.500   1.288   1.942  0.0283  0.3045  0.0779
 6724W        W10788   4.807   6.153   8.977  0.0597  0.2618 -0.1901
 6725W        W10789   8.750   8.709   1.535 -0.0548  0.0681 -0.1482
 6726W        W10790   3.932   6.991   8.238 -0.1659 -0.0875  0.1756
 6727W        W10791   8.308   2.487  11.306 -0.0752 -0.0674 -0.0864
 6728W        W10792   4.386   2.780  10.234  0.0103 -0.1390 -0.0955
 6729W        W10793   6.944   0.230   2.638 -0.1773 -0.1524 -0.1990
 6730W        W10794   9.192   4.596   9.545 -0.1214  0.2718  0.2259
 6731W        W10795   2.958  10.389  10.747  0.0541 -0.0746  0.2299
 6732W        W10796   2.332   5.434   3.035 -0.1487 -0.2094 -0.1189
 6733W        W10797   5.519   9.395   8.728  0.2810 -0.1304  0.2800
 6734W        W10798   7.384   7.814  10.490  0.0735  0.1795 -0.4949
 6735W        W10799   0.924  10.212   8.944 -0.2332 -0.1400  0.0932
 6736W        W10800   6.629   5.727   8.586 -0.0500 -0.1895  0.1509
 6737W        W10801   0.626   0.601  11.489 -0.1577  0.2683 -0.1054
 6738W        W10802   2.985   4.542  11.584  0.3031 -0.2162 -0.0052
 6739W        W10803   1.543   8.363   8.469  0.0021  0.1871  0.3546
 6740W        W10804   2.958   1.447  11.367  0.1814  0.1485 -0.1228
 6741W        W10805   6.507   9.232   1.980  0.0865  0.1901  0.4454
 6742W        W10806   4.534   8.065  10.407  0.2457  0.1172 -0.2805
 6743W        W10807   6.680   1.120   9.549  0.0044 -0.2907  0.1725
 6744W        W10808   4.160  10.054   0.820  0.1279  0.2457  0.1652
 6745W        W10809   1.933   5.021   9.867  0.4406  0.0500 -0.0264
 6746W        W10810   1.713   6.301   0.787 -0.1838 -0.2335 -0.0523
 6747W        W10811   1.411   9.337   8.672  0.1235 -0.1170 -0.0624
 6748W        W10812   5.873   0.707   9.221  0.2439  0.0006  0.2508
 6749W        W10813   6.001   2.706   7.947  0.3544  0.2978  0.0004
 6750W        W10814  10.532   6.008   2.568  0.0701  0.1405 -0.0591
 6751W        W10815   6.924   0.401  10.028  0.3363 -0.0632 -0.1910
 6752W        W10816   5.738   0.222   9.368 -0.0642 -0.1116 -0.0661
 6753W        W10817  10.445   9.948   0.566  0.2496 -0.0687 -0.1125
 6754W        W10818   5.094   3.279   0.236  0.3064  0.0769 -0.0013
 6755W        W10819   9.814   6.431   2.170 -0.2560 -0.3422 -0.0928
 6756W        W10820   6.250   3.563   1.042 -0.1973 -0.1933 -0.3993
 6757W        W10821   8.693   4.565   9.440  0.2525  0.2678 -0.1146
 6758W        W10822   1.059   6.759   0.309 -0.0731  0.0314  0.0619
 6759W        W10823   8.049   4.799   0.928 -0.2388  0.0352 -0.0918
 6760W        W10824   2.162   9.501   3.672  0.0036 -0.0233 -0.1492
 6761W        W10825   7.612   4.139   0.061 -0.3060 -0.0391 -0.0412
 6762W        W10826   4.706   1.120   2.711  0.1348  0.1130 -0.0860
 6763W        W10827   7.885   2.195   1.367  0.2709 -0.0632  0.1478
 6764W        W10828   9.906   5.066   7.997  0.0102  0.2631  0.0733
 6765W        W10829   3.383   8.059   9.040 -0.0407  0.0982  0.0394
 6766W        W10830   1.641   8.175   3.062 -0.3440  0.1884 -0.4458
 6767W        W10831   4.936   1.075  11.471 -0.1705  0.0982  0.0786
 6768W        W10832   6.073   4.041   8.693 -0.2376 -0.1745  0.3039
 6769W        W10833   1.310   7.029   8.111 -0.1854  0.1048  0.0334
 6770W        W10834   7.565   1.787   2.477 -0.2050  0.0189  0.0588
 6771W        W10835   7.728   6.944  10.224  0.1686  0.2035 -0.0702
 6772W        W10836   9.361   4.969   7.963  0.2533  0.1848  0.3005
 6773W        W10837   1.163   9.318   7.932 -0.0006 -0.2358  0.1321
 6774W        W10838   8.322   6.988   9.338 -0.1693  0.0580  0.0844
 6775W        W10839   0.149   5.713  11.474 -0.1719 -0.0110 -0.1209
 6776W        W10840   7.111   2.512   2.528 -0.2035 -0.0065  0.2810
 6777W        W10841   5.232   3.480   1.807 -0.0214  0.1191  0.1489
 6778W        W10842   2.561   3.817  11.550 -0.0870 -0.2098  0.3837
 6779W        W10843   9.658   4.473   1.781 -0.1592 -0.1552 -0.3300
 6780W        W10844  10.100   4.970   9.906  0.1262 -0.2682 -0.2439
 6781W        W10845   0.464   5.550  11.103 -0.3119  0.2593  0.2647
 6782W        W10846   9.542   7.501   0.537  0.3373 -0.1199  0.0994
 6783W        W10847   8.979   8.000  11.403 -0.3916  0.0738  0.0172
 6784W        W10848   8.725   3.651   8.415 -0.3491 -0.1629  0.1030
 6785W        W10849   1.697   3.508   1.454 -0.1088 -0.0336 -0.1699
 6786W        W10850   3.968   8.149   8.813  0.0378 -0.0929  0.0182
 6787W        W10851   6.845   5.724   1.890 -0.0269 -0.0107  0.1935
 6788W        W10852   3.231   8.588   2.561  0.0595  0.1483 -0.1177
 6789W        W10853   1.138   5.445   7.717 -0.0255  0.0702 -0.0527
 6790W        W10854   0.200   1.888   0.631  0.0307 -0.4440 -0.2234
 6791W        W10855   9.996   6.156  10.715  0.1684 -0.0560  0.3526
 6792W        W10856   3.065   4.822   9.601  0.0097 -0.0262  0.0395
 6793W        W10857   0.221   6.092   0.893 -0.0685 -0.2221 -0.0872
 6794W        W10858   3.072   9.942  10.906  0.1447 -0.0183 -0.0791
 6795W        W10859  10.048   8.082  10.546 -0.2701  0.0016 -0.0361
 6796W        W10860  10.205   8.534  11.033 -0.3523 -0.2296 -0.2069
 6797W        W10861   2.587   0.974   1.046 -0.0892 -0.2729 -0.1665
 6798W        W10862  10.461   8.432   8.461  0.1341 -0.0371  0.2935
 6799W        W10863   2.580   5.506  10.108 -0.0313 -0.1514 -0.1232
 6800W        W10864   7.087   7.196   1.214  0.0045 -0.0263 -0.1069
 6801W        W10865   9.640   5.062   2.543 -0.0443 -0.0714 -0.1192
 6802W        W10866   8.242   9.546   8.064 -0.1066 -0.2460 -0.3401
 6803W        W10867   3.238   1.792  11.159 -0.1253  0.0070 -0.0902
 6804W        W10868   6.223   2.888   8.757 -0.0103 -0.2254 -0.1099
 6805W        W10869   7.834   3.013   7.825  0.0875 -0.1231 -0.1921
 6806W        W10870   0.153   6.599   0.045 -0.1052  0.0652 -0.0017
 6807W        W10871   8.652  10.278   9.120 -0.1760  0.1308  0.0346
 6808W        W10872   0.350   7.268   3.282 -0.1539 -0.1554 -0.0463
 6809W        W10873   0.363   8.366   8.300 -0.2940  0.0413  0.2179
 6810W        W10874   2.743   6.750   2.258 -0.1737  0.2099  0.1479
 6811W        W10875   5.954   0.245   1.620 -0.1313 -0.2596  0.3166
 6812W        W10876   2.032   9.143   1.754  0.0320 -0.4396 -0.0011
 6813W        W10877   8.245   1.499  10.519 -0.1263 -0.0568  0.1490
 6814W        W10878   6.107   7.218   7.884  0.0535 -0.2608  0.1388
 6815W        W10879   8.829   8.945   2.533  0.1339 -0.1226 -0.4269
 6816W        W10880  10.466   6.813   2.642 -0.0975  0.1186 -0.0270
 6817W        W10881   3.401   6.317  10.807 -0.2342  0.1661 -0.1898
 6818W        W10882   4.875   2.368  10.275 -0.0810  0.1081  0.0349
 6819W        W10883   8.894   5.017   9.842 -0.1466  0.2660  0.1537
 6820W        W10884   7.192   3.863  11.590 -0.0259  0.2376 -0.2394
 6821W        W10885   7.509   8.306  10.658 -0.1500  0.3931 -0.0461
 6822W        W10886   9.534   0.892  10.332  0.0704  0.2279 -0.3024
 6823W        W10887   9.507   5.362   0.451  0.0142 -0.0268  0.0023
 6824W        W10888   4.551   9.745   2.093 -0.2104  0.2003  0.1323
 6825W        W10889   7.302   1.406  10.186  0.3768 -0.0786  0.0151
 6826W        W10890   5.949   6.118   2.464 -0.1594  0.0323  0.0928
 6827W        W10891   9.527   5.337   8.281 -0.2739 -0.1664 -0.0182
 6828W        W10892   7.491   2.533   0.479  0.2376  0.2314  0.1515
 6829W        W10893   3.529   6.141  10.153  0.1367  0.0430  0.1249
 6830W        W10894   2.047   6.945  10.838 -0.1227 -0.5859  0.1907
 6831W        W10895   1.381   8.367  11.423 -0.1294 -0.1043  0.2578
 6832W        W10896   3.364   6.248   2.878 -0.0023  0.0048 -0.1364
 6833W        W10897   0.252   3.739   8.093  0.0945 -0.1763  0.4614
 6834W        W10898   1.654   4.890   0.613 -0.2588 -0.0406  0.0539
 6835W        W10899   7.432   5.778   9.700  0.0022  0.1815  0.0701
 6836W        W10900   6.026   4.190   8.192 -0.0979  0.0472 -0.2951
 6837W        W10901   1.812   2.282   2.855  0.0548  0.2343 -0.3702
 6838W        W10902   9.430   3.006   2.434 -0.2037 -0.0219  0.1602
 6839W        W10903   9.007   9.933   2.427  0.0801 -0.0943 -0.0516
 6840W        W10904   0.551   7.641   1.663  0.0214  0.0423 -0.0699
 6841W        W10905   6.498   5.874  10.229  0.1669  0.1172 -0.1013
 6842W        W10906   3.319   1.900  10.210  0.0044  0.1090 -0.1477
 6843W        W10907   8.600   8.264   1.747 -0.0142  0.2143  0.1342
 6844W        W10908   7.599   4.556   7.296 -0.2477  0.1022  0.1702
 6845W        W10909   1.759   6.263   3.052 -0.0395 -0.2296 -0.0148
 6846W        W10910   0.389   5.605   3.258  0.0149  0.1904  0.3037
 6847W        W10911   6.731   1.418   7.644  0.0270 -0.0225  0.1539
 6848W        W10912   9.846   9.697   1.939 -0.1846 -0.3064 -0.2511
 6849W        W10913   3.162   0.706   0.414 -0.1240  0.0323 -0.2610
 6850W        W10914   2.291   6.266  10.785  0.0812  0.3328  0.0092
 6851W        W10915   8.666   2.533   0.071 -0.2710 -0.2554 -0.0412
 6852W        W10916   0.705   1.511   9.659 -0.2601 -0.3520  0.1873
 6853W        W10917  10.141   2.046   9.475 -0.3545 -0.4429  0.0514
 6854W        W10918   1.208   8.047   8.213  0.0889 -0.3901 -0.0268
 6855W        W10919   9.004   6.992   1.386  0.0020 -0.1359 -0.2543
 6856W        W10920   2.590   2.801   9.762  0.1101  0.1037 -0.2390
 6857W        W10921   1.022   2.561   8.149 -0.1430 -0.3210  0.1210
 6858W        W10922   9.337   8.337   8.079 -0.1409 -0.0508  0.1561
 6859W        W10923   8.091   2.489   0.490 -0.1711 -0.0222  0.0343
 6860W        W10924   1.605   8.163  10.970 -0.0859  0.2025 -0.2165
 6861W        W10925   4.074   4.059   9.098  0.0921 -0.1771 -0.2014
 6862W        W10926   3.544   1.682  10.653  0.1957  0.2441 -0.0105
 6863W        W10927   8.811   7.838   0.951  0.0539 -0.0974  0.1729
 6864W        W10928   8.604   3.847  10.151  0.0928 -0.1431  0.0371
 6865W        W10929   3.001   7.582   2.093 -0.1724  0.0032  0.1473
 6866W        W10930   7.861  10.233   3.091 -0.3014  0.2883  0.2822
 6867W        W10931   3.154   3.894   2.509  0.0800 -0.0156  0.2981
 6868W        W10932   2.785   3.249   8.605  0.4558 -0.0887  0.0537
 6869W        W10933   6.298  10.506  10.450 -0.3165 -0.1777 -0.1158
 6870W        W10934   6.252   7.856   1.342 -0.0571  0.2447 -0.1428
 6871W        W10935  10.472   2.300   0.371  0.0885 -0.0662 -0.1576
 6872W        W10936   3.954   3.130   9.388  0.0256  0.2207  0.1957
 6873W        W10937   9.446   7.951  10.451 -0.4175  0.2367  0.0165
 6874W        W10938   0.444   6.944   8.160  0.0730  0.0666 -0.1352
 6875W        W10939   0.938  10.425   9.990  0.0294 -0.0396  0.0736
 6876W        W10940   9.808   3.532   1.728  0.2554  0.0178 -0.0968
 6877W        W10941   9.073   3.499  10.042  0.1623  0.2444 -0.1181
 6878W        W10942   7.230   6.580   1.593  0.0999 -0.0266  0.1009
 6879W        W10943   6.279   0.444   8.320  0.0767 -0.0095 -0.0596
 6880W        W10944   6.858   0.107  10.912 -0.4116 -0.1647 -0.1504
 6881W        W10945   1.654   2.085  11.504  0.1261 -0.0178 -0.1943
 6882W        W10946   9.363   8.863  10.041 -0.2941 -0.0825  0.1680
 6883W        W10947   2.333   6.838  10.186 -0.0340 -0.0096 -0.2236
 6884W        W10948   7.823   8.456   7.441  0.0886 -0.2401  0.0518
 6885W        W10949   9.652   8.257   9.368  0.1434 -0.0540 -0.1931
 6886W        W10950   2.544   8.523   0.503  0.0124  0.0590  0.4577
 6887W        W10951   9.081   1.205  10.956  0.0520  0.1168  0.0182
 6888W        W10952   3.116   8.072   4.102  0.1813 -0.0854 -0.0933
 6889W        W10953   9.572   4.397  11.008  0.2514 -0.3225  0.1078
 6890W        W10954   5.053   3.705  10.860 -0.1490  0.0806  0.1335
 6891W        W10955   7.381   0.451  10.113  0.1467  0.0572  0.0351
 6892W        W10956   4.450   1.925  10.611  0.1901  0.0701  0.0059
 6893W        W10957   8.848   6.857   9.301 -0.4712  0.2487  0.0655
 6894W        W10958   2.773   7.014   2.697  0.0674  0.1091 -0.1047
 6895W        W10959   0.849   3.059   9.669  0.1625 -0.1286 -0.0411
 6896W        W10960   0.497   6.115   9.296  0.2643 -0.3140  0.0071
 6897W        W10961   3.204   9.749   3.412 -0.1803  0.2528 -0.0114
 6898W        W10962   4.224   5.750   3.312  0.2745 -0.0051  0.0662
 6899W        W10963   7.088   1.749  10.533  0.1365 -0.0125 -0.0899
 6900W        W10964   7.430   0.785   0.106  0.2187  0.0161 -0.4124
 6901W        W10965   4.369   9.554   3.797 -0.2595  0.1768  0.0804
 6902W        W10966   4.963   3.069   2.000  0.0461  0.1353 -0.0480
 6903W        W10967   3.044   3.769  10.623 -0.1433  0.2529 -0.3249
 6904W        W10968   8.057   1.360   3.981  0.0514  0.0986 -0.0498
 6905W        W10969  10.403   5.865  10.838 -0.1374 -0.1388  0.0469
 6906W        W10970   5.557  10.048   2.600 -0.0750  0.0127 -0.2048
 6907W        W10971   4.673   7.975   9.915  0.1392 -0.0493 -0.0813
 6908W        W10972   3.317   7.706  11.039 -0.3818 -0.2410  0.4377
 6909W        W10973   8.874   2.984  11.471  0.0274  0.0693 -0.1547
 6910W        W10974   1.483   8.802  10.540 -0.1697 -0.0308 -0.2254
 6911W        W10975   8.418   9.441   1.339  0.2091  0.0612  0.1830
 6912W        W10976   1.919   4.555   1.034 -0.2286  0.0599  0.1170
 6913W        W10977   9.391   4.603   0.013  0.0391  0.1960  0.0046
 6914W        W10978   2.769   7.087   8.114 -0.0416  0.4303  0.1016
 6915W        W10979   5.399   3.021   8.727 -0.2323 -0.0270  0.1348
 6916W        W10980   7.038   8.225   0.926  0.0038 -0.2894  0.2488
 6917W        W10981   7.174   6.644   3.746  0.1258 -0.2992 -0.1368
 6918W        W10982   6.014   5.892   1.583 -0.3466 -0.0313 -0.4206
 6919W        W10983   6.062  10.030   1.894  0.1271  0.2216  0.1138
 6920W        W10984   4.208   5.156   3.452 -0.0359 -0.0599  0.1388
 6921W        W10985   6.680   6.922   2.874  0.4904  0.2378 -0.1283
 6922W        W10986   9.390   7.945   0.732  0.2885 -0.2990 -0.0891
 6923W        W10987   2.575   7.226  10.031 -0.2910  0.0308 -0.2051
 6924W        W10988   3.574   6.499   9.631  0.1238  0.0666 -0.1590
 6925W        W10989   8.531   1.835   7.188 -0.1570  0.1922  0.0418
 6926W        W10990   9.511   8.406   0.633  0.2803  0.0429 -0.1100
 6927W        W10991   6.212   7.615   3.382  0.1076  0.0783  0.2882
 6928W        W10992   2.400   0.117   9.302 -0.2321  0.2476  0.2959
 6929W        W10993   6.910   2.048  10.949 -0.0565  0.1128  0.0247
 6930W        W10994   7.447   4.036   1.594  0.0995  0.0560  0.1953
 6931W        W10995   4.976   0.575   3.642  0.0083 -0.0057 -0.0276
 6932W        W10996   1.578   7.271   2.667 -0.0732 -0.3743  0.0563
 6933W        W10997   7.464   1.844   3.486  0.2165  0.2464 -0.0492
 6934W        W10998   7.057   9.051   8.846 -0.0598  0.3633  0.0026
 6935W        W10999   0.469   5.603   1.979 -0.4821  0.0060 -0.2825
 6936W        W11000   8.724   5.134   1.675 -0.3705 -0.0806  0.1117
 6937W        W11001   2.934   2.349   0.418  0.2460  0.1471 -0.1463
 6938W        W11002   5.249   4.518  11.385 -0.2625 -0.2227 -0.0891
 6939W        W11003   6.232   3.185   9.593 -0.1259  0.0504  0.0342
 6940W        W11004   7.998   8.466  10.707  0.2491  0.3984  0.1127
 6941W        W11005   1.964   6.965   8.642  0.0368  0.1275 -0.1010
 6942W        W11006   0.334   0.746   9.270 -0.4937 -0.0870  0.3593
 6943W        W11007   1.567   6.995   9.024 -0.0632  0.0429 -0.2752
 6944W        W11008   6.155   1.412   2.539  0.3078  0.1971  0.1008
 6945W        W11009   1.288   5.610   9.432  0.1305 -0.1726  0.3169
 6946W        W11010   3.861   9.169   8.074 -0.1390 -0.2146 -0.1889
 6947W        W11011   0.680   0.396   9.136 -0.2906 -0.2452 -0.0386
 6948W        W11012   2.426   2.879   3.135  0.1848  0.0001  0.0248
 6949W        W11013   9.313   9.267   9.605 -0.1658  0.0361  0.1428
 6950W        W11014   5.401   5.294   9.138  0.1679  0.2007  0.1192
 6951W        W11015   0.046   4.225   2.445  0.0422 -0.0156  0.2741
 6952W        W11016   2.247   3.200  10.610 -0.3200 -0.1029  0.1119
 6953W        W11017   5.589   1.938   7.889 -0.0489  0.0720 -0.0732
 6954W        W11018   8.238   2.956   1.172 -0.0018  0.1725  0.0192
 6955W        W11019   5.962   2.920   1.708 -0.3114 -0.3400 -0.0944
 6956W        W11020   3.331   1.851   8.425  0.1952 -0.1306 -0.1664
 6957W        W11021   9.584   7.792  11.329 -0.0520 -0.2649  0.1225
 6958W        W11022   9.549   6.851   7.860 -0.0714 -0.2722  0.3344
 6959W        W11023   8.622   2.443  10.457 -0.2167  0.0808 -0.3909
 6960W        W11024   6.831   8.906   9.266 -0.0253  0.0868 -0.1680
 6961W        W11025   0.773   4.228   8.590  0.2059  0.4398  0.2327
 6962W        W11026   8.394   5.057   9.375  0.0656 -0.2419 -0.2461
 6963W        W11027   3.434   1.138   2.204 -0.0642  0.0332 -0.0162
 6964W        W11028   2.248   7.513   9.628  0.0379 -0.4092  0.0223
 6965W        W11029   2.436   9.539   0.558 -0.2555  0.2008  0.0664
 6966W        W11030   9.325   0.181   8.874  0.0264  0.2440 -0.0041
 6967W        W11031   0.782   8.263   7.962  0.0098  0.1580 -0.2300
 6968W        W11032   6.712   2.548   1.124 -0.1731  0.0713 -0.0854
 6969W        W11033   7.236   0.314  11.534  0.2585  0.1304 -0.1067
 6970W        W11034   2.478   7.155   3.138  0.0777 -0.0140 -0.1035
 6971W        W11035   3.371   1.562   0.027 -0.0585 -0.2248 -0.2203
 6972W        W11036   2.740   2.960  10.475  0.3748 -0.0993  0.1451
 6973W        W11037   4.148   6.168   2.970 -0.0019  0.1413 -0.0345
 6974W        W11038   7.593   9.825   3.225 -0.0445  0.0632 -0.0295
 6975W        W11039   7.385   7.592   0.379  0.2376  0.2002  0.0226
 6976W        W11040   3.463   6.197   0.683 -0.1159 -0.2745 -0.3782
 6977W        W11041   4.814   0.159   0.178  0.0572 -0.3173  0.1193
 6978W        W11042   3.331   4.377   9.441 -0.0168 -0.1453 -0.1908
 6979W        W11043   0.385   5.643   8.367  0.0191 -0.1456 -0.4429
 6980W        W11044   7.399   7.144   3.235  0.2510 -0.0491 -0.3330
 6981W        W11045   1.000   2.316  10.948  0.2137 -0.2915 -0.2230
 6982W        W11046   5.202   7.837   1.740 -0.0740  0.1405 -0.1303
 6983W        W11047   7.629   7.260  10.675 -0.1158  0.0117 -0.0499
 6984W        W11048   2.839   3.906   2.887  0.5296  0.1110 -0.0924
 6985W        W11049   9.206  10.547   2.935  0.2962  0.2594 -0.2344
 6986W        W11050   2.180   3.958  11.240  0.2088  0.0876  0.0749
 6987W        W11051   4.316   9.322  10.781  0.4292 -0.0424  0.1603
 6988W        W11052   1.528   5.423   9.891 -0.3937  0.1754  0.2387
 6989W        W11053   6.073   5.627   1.123  0.0505 -0.0590 -0.1253
 6990W        W11054   8.232   5.806  10.432 -0.2194 -0.1013  0.0623
 6991W        W11055   6.491   5.266   0.898  0.0020 -0.3850  0.1980
 6992W        W11056   3.114   5.264   9.890  0.0934 -0.1126 -0.0595
 6993W        W11057   1.134   9.423   1.386  0.1182 -0.0084 -0.0462
 6994W        W11058   6.087   5.170   3.008 -0.0509 -0.1533 -0.1422
 6995W        W11059   5.326   9.400   1.229  0.3308 -0.0145  0.0655
 6996W        W11060   9.844   9.908   8.615 -0.2570 -0.0435  0.2059
 6997W        W11061   5.039   0.150   7.711 -0.2177  0.1479  0.1151
 6998W        W11062   4.354   9.101  11.289  0.1899 -0.3549  0.0658
 6999W        W11063   5.623   9.120   1.588 -0.0227 -0.0055 -0.2196
 7000W        W11064   9.399   7.605   7.553 -0.0551 -0.1554 -0.2089
 7001W        W11065   2.812   4.703   2.015  0.0104  0.2250 -0.0302
 7002W        W11066   8.042   1.786   7.274  0.2340 -0.0318  0.1598
 7003W        W11067   3.761   6.523   3.097 -0.0458  0.1994 -0.2508
 7004W        W11068   3.826   3.340   9.810 -0.3275 -0.1658  0.3683
 7005W        W11069   5.481   5.340   7.685 -0.0792  0.4113  0.3565
 7006W        W11070   2.386   5.846   9.345 -0.2274  0.2471  0.1508
 7007W        W11071   8.602   3.918   0.775  0.3114  0.1863 -0.0318
 7008W        W11072   3.675   5.030   9.020 -0.1854 -0.0579 -0.0398
 7009W        W11073   2.754   4.404   1.128 -0.0542 -0.0981  0.2876
 7010W        W11074   6.564   8.771  10.069  0.0838  0.0583 -0.1546
 7011W        W11075   2.604  10.358   3.341 -0.1805  0.0639 -0.3897
 7012W        W11076   6.546   2.424  10.793  0.1271  0.1594 -0.0338
 7013W        W11077   8.346   0.064   9.126 -0.0875 -0.1214  0.2532
 7014W        W11078   7.106   4.397   0.955  0.0726 -0.0425 -0.0465
 7015W        W11079   3.133   4.092   1.150  0.2473 -0.0943  0.1986
 7016W        W11080   5.626   1.430  11.230 -0.0879 -0.0541 -0.4444
 7017W        W11081   4.728   4.475   1.698  0.2791 -0.3345 -0.1175
 7018W        W11082   0.692  10.137   1.692  0.0550 -0.0953 -0.2134
 7019W        W11083   7.732   8.366   9.250 -0.2126 -0.1480  0.2959
 7020W        W11084   0.136   7.056  10.412  0.2579  0.0684  0.2057
 7021W        W11085   1.623   8.741   9.262  0.0885 -0.2823 -0.1603
 7022W        W11086   3.184   7.957   2.382 -0.0051  0.0918 -0.1957
 7023W        W11087   0.696  10.141  10.370 -0.3310 -0.1013 -0.0747
 7024W        W11088   4.922   9.522  10.722  0.1850 -0.0678 -0.0980
 7025W        W11089   6.133   8.041   2.191  0.1154  0.0479  0.1921
 7026W        W11090   5.133   5.012   7.515  0.0094 -0.0295 -0.1194
 7027W        W11091   6.061   5.427   0.663  0.0890 -0.0247 -0.0861
 7028W        W11092   2.814   3.785  11.113  0.0281 -0.0891  0.3056
 7029W        W11093   0.870   5.902  10.048  0.0120  0.2576 -0.0883
 7030W        W11094   3.702   8.396   9.981  0.3061 -0.0843  0.2959
 7031W        W11095   3.805   8.796   0.915  0.0743 -0.1591  0.2034
 7032W        W11096   4.920   7.970   8.989 -0.2153 -0.0331 -0.1445
 7033W        W11097   2.366   7.024   1.908  0.1686 -0.0738 -0.4397
 7034W        W11098   9.115   5.510   9.963  0.0968  0.2403 -0.0196
 7035W        W11099  10.283   0.734  10.949 -0.2537  0.2440  0.1035
 7036W        W11100   3.019   9.236   1.124  0.1493  0.0194  0.1026
 7037W        W11101   7.185   8.298   1.662  0.1027 -0.0117  0.0908
 7038W        W11102   4.365   0.468  10.639  0.1503  0.1723  0.2799
 7039W        W11103   4.302   9.581   0.651 -0.0326 -0.2823 -0.1819
 7040W        W11104   0.747   9.566   4.140 -0.0022 -0.0274  0.0633
 7041W        W11105   9.601   5.720   1.437  0.4376  0.3105 -0.2962
 7042W        W11106   5.049   2.825   0.017  0.0283 -0.0288 -0.0874
 7043W        W11107   6.108   0.993   9.632 -0.1340  0.0431 -0.0645
 7044W        W11108   2.643   3.257   0.785 -0.1706  0.2276  0.1476
 7045W        W11109   9.677   6.463   1.091 -0.1187  0.0642  0.0086
 7046W        W11110   5.559   4.146   8.744  0.1191  0.2229  0.0483
 7047W        W11111   5.915   3.716   1.362  0.4471 -0.1985 -0.1944
 7048W        W11112   7.856   8.578   2.346 -0.3633  0.0535 -0.1619
 7049W        W11113   0.922   9.640  10.279  0.0656 -0.1725 -0.1958
 7050W        W11114   1.972   8.223   9.281 -0.1570 -0.3355 -0.0719
 7051W        W11115   8.075   6.128   9.044  0.0809 -0.0040 -0.0050
 7052W        W11116   8.677   7.215   8.400  0.2063  0.1845 -0.2188
 7053W        W11117   3.073   3.021   9.479  0.2793 -0.1062 -0.2083
 7054W        W11118  10.535   3.451  11.068 -0.1978  0.1822 -0.0484
 7055W        W11119   0.182   5.422   0.347 -0.0726  0.3265  0.0548
 7056W        W11120   2.295   3.143   9.432 -0.1966  0.0654 -0.0767
 7057W        W11121   0.781   4.485   9.515 -0.1224 -0.2999  0.1944
 7058W        W11122   3.741   7.342   2.743  0.3664 -0.0558 -0.0385
 7059W        W11123   2.330   3.633   0.722  0.2672  0.2198  0.1272
 7060W        W11124   1.869   2.714  10.017  0.0484 -0.4112  0.0973
 7061W        W11125   7.983   2.566   9.638  0.3486  0.1465 -0.1670
 7062W        W11126   1.302   2.827   7.710 -0.2437  0.2743 -0.0079
 7063W        W11127   1.489   3.481   0.851  0.0217 -0.0199  0.2179
 7064W        W11128   0.536   1.802   3.449  0.2595 -0.1023 -0.1817
 7065W        W11129   4.601   1.868   1.009 -0.1484 -0.2291 -0.1124
 7066W        W11130   8.560   2.274   3.109 -0.1848  0.2043  0.2721
 7067W        W11131   7.368   4.909   1.633  0.0722  0.0326  0.3648
 7068W        W11132   0.563   7.440   2.853  0.0365 -0.0648 -0.0644
 7069W        W11133   1.649   7.406   9.936  0.2401 -0.1439  0.0437
 7070W        W11134   5.295   0.586   8.648 -0.1196 -0.1125 -0.1078
 7071W        W11135   0.086   1.927   0.044 -0.2099 -0.0862  0.0983
 7072W        W11136   4.142  10.197   9.710 -0.3095  0.1024  0.0558
 7073W        W11137   7.325  10.137   8.139  0.3856  0.0991  0.1504
 7074W        W11138   0.106   1.981   1.701 -0.0402 -0.1426  0.2326
 7075W        W11139   0.181   0.001   4.007 -0.1085 -0.2070  0.2731
 7076W        W11140   5.983   2.314   1.644  0.0817  0.0732  0.2277
 7077W        W11141   7.683   3.412   9.586  0.2340 -0.1844 -0.2112
 7078W        W11142   2.181   6.318   8.057  0.0344 -0.1330  0.0556
 7079W        W11143   7.027   5.273   7.493  0.0483  0.2722  0.0813
 7080W        W11144   4.272  10.040   0.311 -0.1801  0.3097  0.2014
 7081W        W11145   4.660   9.315   0.407 -0.2883  0.0291  0.1137
 7082W        W11146   2.284   6.537   2.228 -0.0383 -0.0377 -0.0348
 7083W        W11147   9.455   3.809   3.170  0.0987  0.1572  0.2061
 7084W        W11148   1.514   2.172  10.973 -0.1821  0.2448 -0.0648
 7085W        W11149   1.120   4.299   9.789  0.5482  0.2946  0.0220
 7086W        W11150   8.727   5.491   9.589 -0.1799  0.0233  0.2571
 7087W        W11151   3.874   9.875   2.745  0.1604  0.3294 -0.0691
 7088W        W11152   9.563   1.526  10.199  0.0303 -0.2049  0.1743
 7089W        W11153  10.595   7.133   9.133  0.0210  0.1022 -0.4747
 7090W        W11154   0.277   4.206   1.944 -0.0867 -0.1078  0.2671
 7091W        W11155   4.513   2.552   8.736  0.1772  0.2606 -0.2998
 7092W        W11156  10.258   9.279   8.490 -0.2780 -0.3795  0.1009
 7093W        W11157   8.031   5.511   0.504 -0.2156  0.1552 -0.0697
 7094W        W11158   6.578   3.259   9.276 -0.0429 -0.0909 -0.3603
 7095W        W11159   7.357   6.445   2.057 -0.0653  0.2641 -0.0164
 7096W        W11160   1.787   1.331   3.406  0.1434 -0.0276 -0.1520
 7097W        W11161   9.322   6.074   1.093 -0.3169 -0.2828  0.0193
 7098W        W11162   1.601   5.924   8.697 -0.3097 -0.1678  0.1286
 7099W        W11163   9.578   3.730   2.648 -0.0069  0.0503 -0.1491
 7100W        W11164   8.772   1.622  10.414 -0.0089  0.2131  0.1297
 7101W        W11165   7.321   3.409   1.220  0.0027 -0.2475  0.1276
 7102W        W11166   1.085   3.746  11.539 -0.2109 -0.0042  0.0959
 7103W        W11167   5.781   9.812   9.658  0.1597  0.1566  0.2025
 7104W        W11168   4.680   6.898   9.580 -0.2668  0.0432 -0.0088
 7105W        W11169   0.211   5.164   1.623  0.0795  0.2822  0.0868
 7106W        W11170   0.052   4.035   0.615  0.1482 -0.0121 -0.0390
 7107W        W11171  10.466   5.009   0.491  0.0648 -0.2329 -0.0236
 7108W        W11172   7.416   5.617   0.952 -0.2252 -0.4829 -0.0774
 7109W        W11173   6.774  10.093   8.604 -0.0131 -0.2078  0.0066
 7110W        W11174  10.562   1.090   0.533  0.3812  0.3169 -0.0815
 7111W        W11175   8.076   8.503   0.992 -0.1425 -0.1803  0.2866
 7112W        W11176   5.667   5.035   9.968 -0.1102 -0.0909  0.0008
 7113W        W11177   0.642   3.718   1.279 -0.1825 -0.0599  0.2845
 7114W        W11178   6.462   2.292   1.574  0.0648  0.1476 -0.1187
 7115W        W11179   5.148   1.958   8.777  0.1001 -0.2421 -0.0240
 7116W        W11180   7.242  10.583  10.030  0.4216  0.2087 -0.0851
 7117W        W11181   3.235   7.962   8.168 -0.0110  0.0842  0.0713
 7118W        W11182   4.675   9.883   3.547 -0.1305 -0.1358 -0.0426
 7119W        W11183   3.607   5.510   2.014 -0.3820 -0.1812 -0.0237
 7120W        W11184   6.009   9.146   0.466 -0.1827 -0.0349  0.0621
 7121W        W11185   9.846   7.256   1.377 -0.3062  0.3089 -0.2346
 7122W        W11186   1.055   3.591   1.951  0.0539  0.1746 -0.2004
 7123W        W11187   4.753   6.164   7.261  0.1485 -0.1463 -0.0883
 7124W        W11188   8.298  10.568   1.334  0.1080 -0.0759 -0.0230
 7125W        W11189   7.065   1.432   8.233 -0.1124  0.1103  0.1663
 7126W        W11190   1.404   9.662   2.150 -0.0853  0.0296 -0.3121
 7127W        W11191   0.463   0.491   0.763  0.1053 -0.1106  0.2225
 7128W        W11192   7.877   2.214  11.533 -0.0638  0.0548  0.0698
 7129W        W11193   6.500   2.789   9.770  0.0136 -0.1003  0.0958
 7130W        W11194   5.426   5.878   2.675 -0.0503 -0.3866  0.2309
 7131W        W11195   4.730  10.541   8.886  0.0418 -0.4725 -0.0084
 7132W        W11196   2.263   7.326   1.521  0.4042  0.0798  0.2028
 7133W        W11197   4.152   8.734   9.963  0.2031  0.1506  0.0658
 7134W        W11198   9.462   1.363   7.335  0.1976 -0.2283 -0.2275
 7135W        W11199   8.832   0.149   9.116  0.0966 -0.0109 -0.0027
 7136W        W11200   9.288   7.680   0.107  0.1046 -0.0679  0.1178
 7137W        W11201   9.162   2.491   0.367 -0.1316  0.0485 -0.1480
 7138W        W11202   0.702   2.652   2.176 -0.1454  0.0824  0.1945
 7139W        W11203   4.140   4.638   9.423 -0.4396 -0.2653  0.2984
 7140W        W11204   7.871   7.629   0.415  0.1820  0.2092 -0.3785
 7141W        W11205   6.640   1.331   0.874 -0.0126 -0.2452  0.0960
 7142W        W11206   7.849   7.569  10.368  0.2779  0.2266 -0.0776
 7143W        W11207   9.225  10.613   9.788 -0.0263 -0.0267  0.1863
 7144W        W11208   1.694   7.285   8.337 -0.0216  0.1424 -0.0670
 7145W        W11209   4.108   1.069   9.975 -0.2182 -0.2341 -0.3416
 7146W        W11210   5.875   3.020   1.122  0.0175  0.0113  0.1388
 7147W        W11211   5.588   4.925   3.629 -0.2966  0.2987  0.1558
 7148W        W11212   5.565   4.903  11.587  0.0017 -0.0711  0.4874
 7149W        W11213   9.367   7.849   1.750 -0.3016  0.0583  0.2390
 7150W        W11214   8.221   8.750   2.034 -0.0028  0.0270  0.0824
 7151W        W11215   0.457   2.276   0.440 -0.0915 -0.0109 -0.0297
 7152W        W11216   1.437   9.168   3.954 -0.1555 -0.1122 -0.0869
 7153W        W11217   7.770   2.252   3.242  0.0816  0.1487  0.0965
 7154W        W11218   6.665   3.015  10.819  0.0617 -0.2195 -0.0277
 7155W        W11219   6.766   4.165  10.300 -0.0723 -0.0376 -0.1947
 7156W        W11220   8.161   6.996   8.401  0.2191  0.1494 -0.0222
 7157W        W11221   8.369   2.232   1.455  0.0684  0.2984 -0.1990
 7158W        W11222   0.518   6.416  11.119 -0.1667  0.3739  0.0575
 7159W        W11223   3.161   7.070   2.255  0.0272  0.2038 -0.4094
 7160W        W11224   4.475   8.963   9.720  0.1311 -0.2080  0.0555
 7161W        W11225   2.294   2.550   9.007 -0.3411  0.0215 -0.0798
 7162W        W11226   3.407   2.441   0.546  0.3098  0.1541 -0.0663
 7163W        W11227   5.714   0.672  11.229 -0.2109 -0.3275  0.1346
 7164W        W11228  10.165   5.190   3.271  0.0066 -0.1276  0.1059
 7165W        W11229   2.428   3.369   2.068 -0.3552 -0.3029 -0.2544
 7166W        W11230  10.083   6.299   0.735  0.1357 -0.1532  0.1088
 7167W        W11231   6.565   3.139   3.315  0.1056 -0.0715  0.1137
 7168W        W11232   4.644   7.435   1.289  0.0251  0.2947 -0.1244
 7169W        W11233   2.573   3.954   2.398 -0.1191 -0.2431 -0.3594
 7170W        W11234   5.565   6.429   7.539  0.1847  0.0740  0.0619
 7171W        W11235   2.735   7.495   1.113  0.1356 -0.1817  0.0378
 7172W        W11236   1.467   4.976  11.177 -0.2295  0.3185 -0.1095
 7173W        W11237   8.186   1.405   1.813 -0.0446  0.1994 -0.1361
 7174W        W11238   1.877  10.423   0.693 -0.1807 -0.1134 -0.0495
 7175W        W11239   1.542   5.863   2.743 -0.0890  0.0009  0.2482
 7176W        W11240   0.890   1.051  10.651  0.1690 -0.1292  0.3695
 7177W        W11241   8.831  10.493   3.909 -0.0228 -0.3880 -0.0115
 7178W        W11242   1.183  10.505  10.561 -0.0165  0.3981  0.0019
 7179W        W11243   9.743   8.923   9.662  0.0267  0.0595 -0.0328
 7180W        W11244   0.574   8.283   3.601 -0.3288 -0.1893  0.1514
 7181W        W11245   9.260   7.570  10.188  0.0371 -0.3623  0.1804
 7182W        W11246   6.133   0.833   0.214 -0.0100 -0.0762 -0.0852
 7183W        W11247   6.929   8.236   2.315 -0.2173  0.2219  0.1048
 7184W        W11248   7.962   5.840   9.881 -0.0655 -0.0403  0.0869
 7185W        W11249   7.712   5.564  10.347  0.2171 -0.2812 -0.3561
 7186W        W11250   6.693  10.435   9.303  0.1004 -0.2533 -0.0917
 7187W        W11251   6.764   3.692   7.824  0.3196 -0.3156  0.2047
 7188W        W11252   3.608  10.266   2.046  0.1410  0.0686 -0.0791
 7189W        W11253   8.526   2.202   3.971 -0.2924 -0.0814  0.1200
 7190W        W11254   5.868   9.095   8.051  0.1157 -0.3402  0.1743
 7191W        W11255   1.454   9.623  10.168  0.3990  0.0177  0.0965
 7192W        W11256   1.241   8.360   1.222  0.0991  0.3647  0.3623
 7193W        W11257  10.180   6.388   1.237  0.0871 -0.2704 -0.0080
 7194W        W11258   5.511   4.541   9.048 -0.1741  0.1271  0.2866
 7195W        W11259   7.262   9.775   9.483  0.0682 -0.1306 -0.0994
 7196W        W11260   3.809   4.594   2.631  0.0059 -0.0765  0.1115
 7197W        W11261   0.803   9.435  10.866 -0.0924 -0.2601  0.1802
 7198W        W11262   1.440   2.280   3.392 -0.0856 -0.0008 -0.0472
 7199W        W11263  10.200   0.860   9.717 -0.0862 -0.0361 -0.1164
 7200W        W11264   4.329   7.270   8.262  0.3971  0.3745  0.3292
 7201W        W11265   4.916   5.445   9.051 -0.1344  0.2526 -0.0307
 7202W        W11266   4.004   0.757   3.290 -0.0787 -0.2686  0.2656
 7203W        W11267   0.409   5.277   9.488 -0.1311  0.2717 -0.0747
 7204W        W11268   8.163   2.491   1.011  0.1612 -0.1086 -0.3899
 7205W        W11269   1.402   5.894   9.845  0.1075 -0.5237  0.2202
 7206W        W11270   3.453   8.038   2.002 -0.2338 -0.0871 -0.0372
 7207W        W11271   4.687   5.970   7.763  0.0202 -0.4123 -0.2022
 7208W        W11272   9.543   5.070   1.996  0.1215 -0.0851 -0.1501
 7209W        W11273   5.842   1.864  10.603 -0.2108 -0.0545 -0.0337
 7210W        W11274   9.336   0.645   0.562 -0.0403 -0.1871 -0.1766
 7211W        W11275   6.169   2.135   0.523  0.1906 -0.2383 -0.2903
 7212W        W11276   4.051   5.436   8.960  0.1841 -0.1173  0.1030
 7213W        W11277   5.855   5.664   2.895  0.3140 -0.0830 -0.2336
 7214W        W11278   6.620   7.242   2.488 -0.0029 -0.1337  0.0841
 7215W        W11279   1.465   2.829  11.403  0.4112  0.0186  0.2764
 7216W        W11280   2.834   0.867   1.489 -0.1106 -0.0750 -0.0869
 7217W        W11281   6.049   9.978  10.567  0.0978 -0.3940 -0.0306
 7218W        W11282   6.588   4.290   2.543  0.2064  0.2078 -0.0311
 7219W        W11283   0.107  10.169   1.923  0.2991 -0.3808 -0.2582
 7220W        W11284   4.214   1.582   8.780 -0.1395  0.1793  0.0168
 7221W        W11285   7.302   3.016   0.831 -0.0200  0.1569  0.0476
 7222W        W11286   5.921   6.048   9.952 -0.1880 -0.0743  0.2615
 7223W        W11287   7.927  10.214   1.226  0.1776 -0.1143  0.0221
 7224W        W11288   0.895   1.336   8.995  0.1984 -0.0547  0.0844
 7225W        W11289   1.587   7.023   1.068  0.0244  0.0192 -0.0498
 7226W        W11290   1.773   7.421   0.823  0.2596  0.3668 -0.0887
 7227W        W11291   2.153   4.388   8.870  0.0359  0.1150 -0.0160
 7228W        W11292   1.016   9.499   8.902 -0.2452 -0.0541 -0.0098
 7229W        W11293  10.054  10.309   9.212  0.1941  0.2065 -0.0239
 7230W        W11294   0.907   5.533   3.249  0.0078 -0.2242  0.0912
 7231W        W11295   8.744   4.232   1.239 -0.0171 -0.2663  0.1929
 7232W        W11296   3.348   0.311   3.107  0.0974  0.3848  0.0129
 7233W        W11297   5.507   8.329   8.323 -0.0249  0.0413  0.0490
 7234W        W11298   3.071   2.159   2.032  0.2570 -0.2184  0.0877
 7235W        W11299   1.694   7.035   0.167  0.0742  0.2451 -0.0011
 7236W        W11300   2.313   1.343   9.494  0.0804 -0.2057 -0.0821
 7237W        W11301  10.041   9.300  10.628  0.1686 -0.1186  0.4357
 7238W        W11302   7.299   7.578   0.966  0.2137  0.1893 -0.0981
 7239W        W11303   4.431   9.756   9.688  0.0945  0.6359  0.0880
 7240W        W11304   2.140   4.945   0.784  0.1079  0.3287  0.0510
 7241W        W11305   0.236  10.246  10.324  0.4637 -0.1827 -0.0612
 7242W        W11306   6.619   8.887  11.152  0.0100  0.3319  0.0145
 7243W        W11307  10.194   9.664   7.955  0.0241  0.1120 -0.3272
 7244W        W11308   1.494   5.881   0.737  0.1724 -0.0445  0.0099
 7245W        W11309   0.794   5.626   1.658 -0.1269 -0.0002  0.1260
 7246W        W11310   9.744   2.523  10.113 -0.1173 -0.2503  0.1133
 7247W        W11311   5.103   1.514   3.770  0.1662  0.0233 -0.0273
 7248W        W11312   8.376   4.484  10.120  0.0583 -0.0288  0.3508
 7249W        W11313   1.176   4.947   9.115  0.1112  0.0684  0.1280
 7250W        W11314   8.493   1.926   9.230 -0.1101  0.0241 -0.0868
 7251W        W11315   1.788   8.647   3.023  0.1394  0.1612 -0.1360
 7252W        W11316   9.831   0.158   1.415 -0.0772  0.3079 -0.2496
 7253W        W11317   3.680   1.930   9.430 -0.1470 -0.1548 -0.0018
 7254W        W11318   0.430   9.468   3.005  0.1024  0.0329 -0.1076
 7255W        W11319   7.432   2.657  10.976  0.0249 -0.0016  0.3070
 7256W        W11320   0.202   0.418   2.230  0.1617 -0.0690  0.3168
 7257W        W11321   0.108   3.912  10.307  0.2475  0.0708 -0.3103
 7258W        W11322   5.044   5.408   0.691 -0.0479  0.1688  0.1851
 7259W        W11323   6.407   3.311   8.604  0.0116 -0.0601  0.4207
 7260W        W11324   2.321   1.037   2.322  0.0187  0.0443  0.1514
 7261W        W11325   5.209   4.391   7.987  0.4450 -0.1939  0.2943
 7262W        W11326  10.458  10.119   9.445  0.1119  0.1017 -0.0933
 7263W        W11327   5.596   4.535   8.288  0.3487 -0.1355  0.1885
 7264W        W11328   8.692   1.261   9.988  0.0175  0.0953 -0.0654
 7265W        W11329   8.755   3.082   1.811  0.1417  0.0733 -0.0037
 7266W        W11330   7.422  10.367  11.053  0.2161 -0.2971 -0.3650
 7267W        W11331   6.315   5.819   2.618 -0.0400  0.1424  0.2597
 7268W        W11332  10.272   6.010   7.872 -0.0452  0.4550  0.2429
 7269W        W11333   2.115   1.750   1.510  0.0263  0.1070  0.0189
 7270W        W11334   7.820   9.521   9.886  0.0701  0.0333  0.1970
 7271W        W11335   7.902   5.188   9.137 -0.1278  0.0799  0.0134
 7272W        W11336  10.347   4.026   1.384  0.1515 -0.3498 -0.0721
 7273W        W11337   1.369   6.801   1.989 -0.1177  0.4097  0.1932
 7274W        W11338   0.693   8.706   2.060 -0.0614  0.0821 -0.0885
 7275W        W11339   1.668   9.592   1.715 -0.1036 -0.0034  0.0027
 7276W        W11340   8.038   1.840   2.221  0.0166 -0.1685  0.2010
 7277W        W11341   3.262   3.362   8.700 -0.3595  0.0371  0.2870
 7278W        W11342   1.905   5.322   2.825  0.3199  0.2366  0.5283
 7279W        W11343   2.967   5.843   8.768  0.2094  0.0298 -0.0715
 7280W        W11344   8.412   2.092   2.020  0.0712 -0.3144 -0.1012
 7281W        W11345   7.364   3.186   2.637  0.1443  0.2173 -0.1402
 7282W        W11346   7.336   0.014   1.747  0.4472  0.1658 -0.2097
 7283W        W11347  10.339   3.362   8.519  0.0938  0.3147 -0.1612
 7284W        W11348   8.210   5.788   2.822  0.0639 -0.0281 -0.2582
 7285W        W11349   8.824   5.673  10.917 -0.2391 -0.0749 -0.1785
 7286W        W11350   3.243   8.504   1.832 -0.1710 -0.1618  0.1371
 7287W        W11351   5.228   5.972   0.667  0.0124  0.3169  0.1621
 7288W        W11352   5.572   8.416   0.960 -0.1813  0.0048 -0.0718
 7289W        W11353   1.698   4.663   7.449 -0.0385  0.1411  0.0386
 7290W        W11354   6.737   5.021   3.661  0.0663 -0.0101 -0.1408
 7291W        W11355   5.207   7.507   2.147 -0.1689  0.1057  0.0479
 7292W        W11356   9.232   7.162   7.666  0.1082  0.0784 -0.1899
 7293W        W11357   3.099   9.251   9.640  0.0001 -0.0585 -0.1766
 7294W        W11358   8.743   9.679   1.032  0.1866 -0.1909  0.0026
 7295W        W11359   5.482   3.116   4.126  0.1525 -0.3688 -0.0348
 7296W        W11360   9.592   9.787   9.064  0.3368 -0.0067 -0.0280
 7297W        W11361   5.152   4.701   1.353 -0.0409 -0.3550 -0.2789
 7298W        W11362  10.438  10.488  11.402  0.1849 -0.1073  0.3088
 7299W        W11363   5.025   5.848   3.420  0.0137  0.0754  0.0638
 7300W        W11364   6.921   5.824  10.526 -0.0159  0.1829  0.1739
 7301W        W11365   9.347   5.776   8.987 -0.1270 -0.2263  0.2175
 7302W        W11366   9.939   7.400   2.270 -0.3513 -0.0363  0.0078
 7303W        W11367   5.637   8.223   2.280 -0.1481 -0.0407  0.3681
 7304W        W11368   5.681   4.618   1.669  0.2352  0.0178  0.3705
 7305W        W11369   2.288   4.047   2.974 -0.3387  0.3675  0.0665
 7306W        W11370   4.842   3.707   2.394 -0.1383  0.1106 -0.1449
 7307W        W11371   1.176   3.816   1.550  0.0555  0.2161 -0.0065
 7308W        W11372  10.169   3.878   8.701 -0.0739  0.0577  0.0920
 7309W        W11373   5.068   7.682   1.248 -0.0362  0.1181 -0.1959
 7310W        W11374  10.489   2.819   1.177  0.1793 -0.4001  0.0129
 7311W        W11375   0.442   9.248   0.260 -0.0106  0.3378 -0.0947
 7312W        W11376  10.623   5.533   1.062  0.1215  0.0752 -0.0310
 7313ION    NA+11377   9.189   8.530   3.767 -0.1242  0.1315 -0.0096
 7314ION    NA+11378   0.270  10.433   8.231 -0.2770  0.0699 -0.0346
 7315ION    NA+11379   4.678   6.768   1.615  0.3758  0.1749 -0.3177
 7316ION    NA+11380   7.037   3.044  11.221 -0.1144 -0.2194 -0.1373
 7317ION    NA+11381   4.622   1.134  10.024 -0.3128  0.1556 -0.0430
 7318ION    NA+11382  10.138   2.571   3.606 -0.2749  0.0095 -0.0773
 7319ION    NA+11383  10.279   3.630   7.588 -0.2136 -0.0270  0.0304
 7320ION    NA+11384  10.404   4.238  10.481  0.1093  0.2093 -0.1008
 7321ION    NA+11385   0.311   9.138   7.824  0.0722 -0.0763 -0.1461
 7322ION    NA+11386   7.135   9.084  10.325  0.2362 -0.1278 -0.0759
 7323ION    NA+11387   4.112   6.531   1.161  0.0756  0.0440  0.4831
 7324ION    NA+11388   8.744   4.259  10.908  0.0610 -0.0161  0.2220
 7325ION    NA+11389   9.192   9.559  11.312  0.0197  0.0987 -0.0165
 7326ION    NA+11390   7.850   8.861   9.135  0.0168 -0.0339  0.0489
 7327ION    NA+11391   5.585   4.726   2.943 -0.0435  0.3013  0.1492
 7328ION    NA+11392   0.942   8.189   3.958  0.1863  0.1865 -0.1231
 7329ION    NA+11393   9.231   9.465   9.024 -0.0927 -0.0458 -0.0940
 7330ION    NA+11394   4.332   4.539  11.299  0.0845 -0.2724  0.1711
 7331ION    NA+11395   9.716   8.056   7.088  0.1835 -0.2188  0.0793
 7332ION    NA+11396   7.745   7.424   7.998 -0.0970  0.0826  0.2715
 7333ION    NA+11397   0.298   3.970  11.211  0.0633 -0.0202 -0.4964
 7334ION    NA+11398   3.314   4.153   7.828 -0.1377  0.1288 -0.1333
 7335ION    NA+11399  10.315  10.299   3.695 -0.0876 -0.0976 -0.0652
 7336ION    NA+11400   6.735  10.452   9.833  0.2169 -0.1105 -0.2683
 7337ION    NA+11401   3.913   3.500   7.689  0.2828  0.2866  0.3350
 7338ION    NA+11402   3.296  10.198   8.363 -0.1868 -0.0179 -0.1065
 7339ION    NA+11403   1.294   4.822   0.943 -0.1338  0.2203  0.2021
 7340ION    NA+11404   1.858   1.049   1.917  0.2384 -0.2504  0.1052
 7341ION    NA+11405   4.673   9.358  10.060  0.4487 -0.3758  0.0346
 7342ION    NA+11406   7.538   0.164   3.423 -0.1665 -0.2316 -0.1457
 7343ION    NA+11407   4.011   8.904   2.015 -0.1036  0.0983 -0.1078
 7344ION    NA+11408   2.968   2.782  10.900 -0.1241 -0.2300  0.0409
 7345ION    NA+11409   6.613   6.056   3.974  0.0200  0.1134 -0.4550
 7346ION    NA+11410   3.360   9.828   3.903 -0.0865  0.1261  0.0494
 7347ION    NA+11411   8.572   7.129   0.875  0.1950 -0.1795 -0.3698
 7348ION    NA+11412   5.392   1.551   0.961  0.0995  0.1284 -0.2208
 7349ION    NA+11413   7.506   3.009   9.856 -0.0154 -0.1470  0.0828
 7350ION    NA+11414   8.717   9.519   8.139  0.2416  0.4425 -0.1209
 7351ION    NA+11415   0.067   3.865   8.564  0.0211 -0.1074 -0.0602
 7352ION    NA+11416   9.272   7.261   2.137  0.0726 -0.0036  0.1429
 7353ION    NA+11417   3.374   1.002   2.697 -0.1887  0.0281 -0.4159
 7354ION    NA+11418   3.443  10.195   0.187  0.1396 -0.1897  0.3076
 7355ION    NA+11419   2.922   8.652   9.424  0.2447 -0.1331  0.3287
 7356ION    NA+11420   9.577   3.969   1.324 -0.1841 -0.1493  0.2116
 7357ION    NA+11421   7.898   9.822   8.976 -0.3199 -0.2667  0.3239
 7358ION    NA+11422  10.594   0.598   0.790  0.3249 -0.2149 -0.1334
 7359ION    NA+11423   1.296   0.630   0.189 -0.3665 -0.2356 -0.0829
 7360ION    NA+11424   4.728   2.028   9.537 -0.0358  0.0525 -0.1229
 7361ION    NA+11425   4.337   6.682   3.087 -0.0402 -0.2428  0.0384
 7362ION    NA+11426   3.150   9.244   1.991 -0.0750 -0.1494  0.1542
 7363ION    NA+11427   1.577   6.763   3.399  0.2420 -0.3316 -0.1422
 7364ION    NA+11428   7.156   0.134   9.537  0.1443 -0.0710  0.0159
 7365ION    NA+11429   6.082   7.910   3.852  0.0301 -0.2192  0.3588
 7366ION    NA+11430   4.819   6.491  10.370 -0.0128 -0.0154  0.1211
 7367ION    NA+11431   3.867   8.768   9.048  0.1462  0.0611  0.1641
 7368ION    NA+11432   7.274   6.043   1.749  0.1834 -0.0978 -0.0173
 7369ION    NA+11433   8.078   4.949   4.059 -0.1249 -0.1277  0.1784
 7370ION    NA+11434   5.486   5.528  11.070  0.1011 -0.0503 -0.1196
 7371ION    NA+11435   7.525   0.845   3.475 -0.0412  0.0612 -0.1028
 7372ION    NA+11436  10.598   2.115  11.093  0.1866  0.0889 -0.0290
 7373ION    NA+11437   7.811   8.423   1.834 -0.4597 -0.0165  0.1530
 7374ION    NA+11438   7.268   9.053   2.550  0.1871  0.1091 -0.0997
 7375ION    NA+11439   4.685   4.708   8.646 -0.0536 -0.0796 -0.1556
 7376ION    NA+11440   8.681   0.910   7.523  0.1932  0.0367  0.1565
 7377ION    NA+11441   3.211   5.937   1.885 -0.4430  0.2681 -0.2990
 7378ION    NA+11442   8.469   4.194   2.732 -0.4694 -0.1690 -0.1201
 7379ION    NA+11443   5.571   1.017   2.295  0.0198  0.0309 -0.0948
 7380ION    NA+11444  10.625   1.399  10.420 -0.0874  0.0606  0.0002
 7381ION    NA+11445   9.613   8.413   1.809  0.3876  0.3299 -0.0776
 7382ION    NA+11446   7.363   3.496   3.139 -0.5301  0.1764 -0.2414
 7383ION    NA+11447   0.361   6.285   0.467  0.1953  0.0491 -0.2971
 7384ION    NA+11448   3.417   3.073   3.060  0.2210 -0.2828  0.4073
 7385ION    NA+11449   2.022   4.979   0.248  0.3543  0.0167 -0.0934
 7386ION    NA+11450   8.822   0.861   0.344  0.3410 -0.1229 -0.2925
 7387ION    NA+11451  10.510   1.283   1.790  0.1317 -0.3256 -0.0880
 7388ION    NA+11452   1.539   9.385   2.759  0.0493 -0.1379  0.0130
 7389ION    NA+11453   8.758   8.073   6.987  0.1433 -0.2021  0.0560
 7390ION    CL-11454   8.412   0.637   0.561  0.0996  0.0672 -0.1067
 7391ION    CL-11455   5.007   7.405   1.660  0.1674 -0.1334 -0.2066
 7392ION    CL-11456   7.300   0.747   8.327 -0.0998  0.0367  0.0598
 7393ION    CL-11457  10.369   8.216   0.596 -0.0377  0.0552 -0.2561
 7394ION    CL-11458   0.763   6.384   3.089  0.1889  0.3010  0.1556
 7395ION    CL-11459   7.071   4.808   2.985  0.1637 -0.1244 -0.1566
 7396ION    CL-11460   4.201   4.486   8.635  0.0404 -0.1793  0.0728
 7397ION    CL-11461   8.167  10.281   8.716  0.2308 -0.0885 -0.1031
 7398ION    CL-11462   6.209   6.479   9.038 -0.0169  0.2033 -0.0343
 7399ION    CL-11463   3.946   6.086   1.300  0.0070 -0.1716  0.3796
 7400ION    CL-11464   6.867  10.438   2.200 -0.0833  0.7096  0.1326
 7401ION    CL-11465   5.231   4.817   3.252 -0.1320  0.3442  0.1245
 7402ION    CL-11466   7.162   5.119  10.215 -0.2058 -0.0694  0.0163
 7403ION    CL-11467   3.962   4.833   0.031  0.0642 -0.4246  0.0454
 7404ION    CL-11468  10.435   2.965  10.796 -0.1472  0.2056  0.0474
 7405ION    CL-11469   4.924  10.445   3.321 -0.2675 -0.5145 -0.0733
 7406ION    CL-11470   9.585   0.560   8.696 -0.1734 -0.0080  0.4510
 7407ION    CL-11471   3.039  10.288   0.482 -0.1146  0.2203 -0.1026
 7408ION    CL-11472   0.550   1.450  10.350 -0.3110  0.1320 -0.0575
 7409ION    CL-11473   3.701   9.384   2.058  0.1743 -0.1828 -0.3101
 7410ION    CL-11474   3.330   3.729   3.246 -0.1934  0.0038 -0.2247
 7411ION    CL-11475   4.547   1.607   9.779 -0.1197  0.0923 -0.1550
 7412ION    CL-11476   5.171   4.463   8.686 -0.0644 -0.2010 -0.0112
 7413ION    CL-11477   1.665   4.959   1.272  0.3779  0.1316  0.2459
 7414ION    CL-11478   0.665   5.268   2.946  0.0252 -0.3342  0.2904
 7415ION    CL-11479   7.661   9.516   9.361  0.0969  0.0259 -0.2290
 7416ION    CL-11480   8.480   4.015  10.585 -0.0908 -0.1745  0.5157
 7417ION    CL-11481   6.535  10.220  11.509  0.0930  0.0571  0.1975
 7418ION    CL-11482   1.872   9.516   3.090 -0.1146 -0.1761 -0.0099
 7419ION    CL-11483   7.370   6.440  11.417  0.2396 -0.1408 -0.0142
 7420ION    CL-11484  10.569   3.335   2.519  0.0888 -0.2753 -0.0539
 7421ION    CL-11485   7.232   7.316   8.365  0.0936  0.0825  0.0265
 7422ION    CL-11486   1.434   4.442   0.534 -0.1184  0.0863  0.0748
 7423ION    CL-11487   1.913   2.829   9.126 -0.1403 -0.0198  0.0367
 7424ION    CL-11488   8.530   6.531   3.023 -0.0590  0.0607  0.2634
 7425ION    CL-11489   2.477   8.528   9.166 -0.0546  0.0013  0.1816
 7426ION    CL-11490   9.253   5.340  11.472 -0.1890  0.2843  0.0305
 7427ION    CL-11491   7.827   3.478   8.059  0.0234 -0.0318  0.1540
 7428ION    CL-11492   3.397   8.572   9.079  0.1149  0.1031  0.0725
 7429ION    CL-11493   2.588   5.351   8.007  0.0506  0.1406 -0.0530
 7430ION    CL-11494   0.738   0.685   2.913  0.3037  0.0045  0.2031
 7431ION    CL-11495   9.365   5.242   8.909  0.1658  0.1535  0.0249
 7432ION    CL-11496   0.245   3.514   8.850 -0.2318 -0.2608 -0.0635
 7433ION    CL-11497   5.085   0.786   2.443 -0.3307 -0.2469 -0.1215
 7434ION    CL-11498  10.329   6.247   8.793  0.0421 -0.2234 -0.1876
 7435ION    CL-11499   9.907   4.060   1.809 -0.2836  0.1734  0.0446
 7436ION    CL-11500   2.492   1.365   0.413 -0.1002  0.1726  0.0119
 7437ION    CL-11501   9.908   8.603   1.457  0.3494 -0.0312 -0.1914
 7438ION    CL-11502   0.214   4.165  10.685  0.1021  0.1405  0.2832
 7439ION    CL-11503   5.129   8.387   3.243 -0.1207 -0.0231  0.3199
 7440ION    CL-11504   9.222   1.119   0.259 -0.0579  0.1347 -0.2491
 7441ION    CL-11505   6.220  10.480   9.778 -0.3037 -0.0610  0.1768
 7442ION    CL-11506   5.082   8.776   8.266  0.0362  0.2680 -0.0137
 7443ION    CL-11507   0.724   1.570   3.038 -0.0176  0.0298  0.1291
 7444ION    CL-11508   7.057   3.291   3.482 -0.0864 -0.2490  0.1445
 7445ION    CL-11509   9.085   8.328   1.731 -0.2236 -0.2886  0.1921
 7446ION    CL-11510   9.733   0.977   1.618  0.0450  0.0424  0.0938
 7447ION    CL-11511   1.673   0.222   0.356 -0.3210 -0.0178  0.1155
 7448ION    CL-11512   6.959   4.189   1.372  0.3701 -0.3946 -0.0806
 7449ION    CL-11513   7.991   3.038   9.759 -0.2612  0.0398  0.1258
 7450ION    CL-11514   5.258   6.751  10.234  0.0189 -0.1700 -0.1134
 7451ION    CL-11515   8.299   7.312   7.939  0.1549  0.1323  0.3760
 7452ION    CL-11516   9.045   3.233   0.966 -0.3059 -0.0445 -0.1509
 7453ION    CL-11517   7.154  10.133  10.381  0.1266 -0.2426 -0.2354
 7454ION    CL-11518   6.996   1.422   8.751 -0.2343 -0.3098  0.3141
 7455ION    CL-11519   0.205   0.991   1.547 -0.1991  0.1357  0.3665
 7456ION    CL-11520   6.502   0.886   2.623 -0.0353 -0.0221  0.0655
 7457ION    CL-11521   8.167   8.945   8.736  0.1271  0.0527 -0.0641
 7458ION    CL-11522   3.872   6.951   1.172 -0.1194 -0.0006 -0.0786
 7459ION    CL-11523   5.888   7.032   3.086  0.3177 -0.4662  0.1141
 7460ION    CL-11524   2.411   4.424  10.920 -0.1081 -0.0517  0.2462
 7461ION    CL-11525   9.568   9.404   8.569  0.1456  0.0223 -0.0172
 7462ION    CL-11526   2.239   1.002   9.819  0.0838  0.1589 -0.0374
 7463ION    CL-11527   4.497   8.266   8.725 -0.0956 -0.2936  0.1046
 7464ION    CL-11528   0.061   5.428  10.184  0.1794 -0.1086 -0.0641
 7465ION    CL-11529   5.079   2.409   9.449 -0.0059 -0.0006  0.1272
 7466ION    CL-11530   3.588   6.186   2.159  0.0811  0.0417 -0.2738
  10.63733  10.63733  11.59298
