Protein in INSANE! Membrane UpperLeaflet>POPC=1.0 LowerLeaflet>POPC=1.0
12914
    1AU     AUC    1   3.725   6.724   6.669 -0.0246  0.0601 -0.0346
    1AU     AUC    2   3.793   6.617   6.972 -0.0831  0.0105 -0.0365
    1AU     AUC    3   3.484   6.673   6.872 -0.0999  0.0467 -0.0176
    1AU     AUC    4   3.973   6.776   6.464  0.0295 -0.0567  0.0917
    1AU     AUC    5   3.644   6.876   6.414 -0.0321  0.0575 -0.0176
    1AU     AUC    6   3.806   7.050   6.612 -0.0604  0.0477 -0.0097
    1AU     AUC    7   3.711   6.927   6.942 -0.0323 -0.0855 -0.0135
    1AU     AUC    8   3.734   6.535   6.438  0.0013  0.0013  0.0500
    1AU     AUC    9   3.664   6.403   6.739  0.0505 -0.0088  0.0528
    1AU     AUC   10   3.455   6.629   6.547 -0.0541  0.0159 -0.0439
    1AU     AUC   11   3.510   6.947   6.662  0.0219  0.0087  0.0920
    1AU     AUC   12   3.971   6.521   6.683 -0.0350 -0.0098 -0.0199
    1AU     AUC   13   4.015   6.835   6.805  0.0700 -0.0336  0.0440
    1AU     AUC   14   3.880   6.494   7.316  0.0810  0.1116 -0.0276
    1AU     AUC   15   3.541   6.540   7.241 -0.0253  0.0487  0.1383
    1AU     AUC   16   3.204   6.592   7.087 -0.1021 -0.0819  0.0079
    1AU     AUC   17   4.234   6.796   6.233 -0.0534  0.0167  0.0207
    1AU     AUC   18   3.884   6.937   6.133  0.0308  0.0183 -0.0233
    1AU     AUC   19   3.566   7.031   6.103  0.0275 -0.0178  0.0354
    1AU     AUC   20   3.926   7.367   6.571  0.0309 -0.0396  0.0338
    1AU     AUC   21   3.851   7.295   6.926 -0.1318 -0.0316 -0.0506
    1AU     AUC   22   3.699   7.118   7.203 -0.0507 -0.0496 -0.0772
    1AU     AUC   23   3.746   6.352   6.160 -0.0404  0.0235  0.0310
    1AU     AUC   24   3.674   6.184   6.456 -0.0022 -0.0396 -0.0011
    1AU     AUC   25   3.586   6.055   6.778 -0.0992 -0.0731 -0.0209
    1AU     AUC   26   3.138   6.525   6.395  0.0281 -0.0526 -0.0753
    1AU     AUC   27   3.166   6.850   6.520 -0.0256 -0.0615 -0.0657
    1AU     AUC   28   3.253   7.176   6.682  0.0692 -0.0449 -0.0117
    1AU     AUC   29   4.212   6.325   6.742  0.0204  0.0668  0.0677
    1AU     AUC   30   4.314   6.615   6.854  0.1083  0.0459  0.0174
    1AU     AUC   31   4.304   6.914   6.944  0.0076 -0.0712 -0.0429
    1AU     AUC   32   3.146   6.542   6.719  0.0621 -0.0948  0.0344
    1AU     AUC   33   3.187   6.872   6.874 -0.0765 -0.0603  0.0531
    1AU     AUC   34   4.096   6.391   7.054  0.0325  0.0753 -0.0035
    1AU     AUC   35   4.118   6.754   7.198  0.0344  0.0311  0.0162
    1AU     AUC   36   3.325   6.815   6.241 -0.0480  0.0361 -0.0809
    1AU     AUC   37   3.390   7.141   6.386  0.0302 -0.0135  0.0303
    1AU     AUC   38   4.208   6.546   6.472 -0.0697 -0.0458 -0.0328
    1AU     AUC   39   4.327   6.843   6.542 -0.0562  0.1126 -0.0063
    1AU     AUC   40   3.775   6.817   7.311  0.0707  0.1031 -0.0314
    1AU     AUC   41   3.418   6.855   7.136 -0.0910  0.0210  0.0754
    1AU     AUC   42   4.090   7.099   6.357 -0.0448  0.0282 -0.0333
    1AU     AUC   43   3.752   7.236   6.323 -0.0567 -0.0443 -0.0150
    1AU     AUC   44   3.729   6.270   7.074  0.0281 -0.0761  0.0246
    1AU     AUC   45   3.400   6.315   6.924 -0.0627 -0.0178  0.0328
    1AU     AUC   46   3.982   6.559   6.152 -0.0042 -0.0486  0.0047
    1AU     AUC   47   3.617   6.711   6.123 -0.1044  0.0075  0.0374
    1AU     AUC   48   3.587   7.322   6.646  0.0069  0.0407  0.0997
    1AU     AUC   49   3.460   7.155   6.962 -0.1293 -0.0541 -0.0184
    1AU     AUC   50   3.439   6.429   6.289  0.0378  0.0115 -0.0743
    1AU     AUC   51   3.376   6.248   6.539  0.0388  0.0433 -0.0027
    1AU     AUC   52   4.140   7.129   6.717  0.0695 -0.0263 -0.0196
    1AU     AUC   53   4.050   7.074   7.080  0.0435  0.0125 -0.0271
    1AU     AUC   54   4.000   6.282   6.434 -0.1383 -0.0843  0.0792
    1AU     AUC   55   3.904   6.172   6.788 -0.0250  0.0111  0.0653
    1AU    AUSL   56   2.851   6.620   6.913 -0.0451  0.0060 -0.0316
    1AU    AUSL   57   2.951   6.295   6.608 -0.0817  0.0289  0.0617
    1AU     AUL   58   2.715   6.290   6.861 -0.0248 -0.0320  0.0574
    1AU       S   59   2.844   5.820   6.773  0.2478 -0.0846  0.0606
    1AU     LIG   60   2.611   5.699   6.548  0.1585 -0.2817 -0.0158
    1AU     LIG   61   2.145   5.759   6.424 -0.4497  0.3811 -0.2442
    1AU     LIG   62   1.844   5.955   6.258  0.0686 -0.1241 -0.3236
    1AU     LIG   63   1.457   6.115   6.388 -0.0141 -0.1966  0.2561
    1AU     LIG   64   1.285   5.862   6.644  0.0855 -0.1320 -0.2242
    1AU       S   65   2.405   6.628   6.729 -0.1065  0.1214  0.1156
    1AU     LIG   66   2.120   6.953   6.662 -0.0848 -0.4707  0.2164
    1AU     LIG   67   1.706   7.042   6.740 -0.0896  0.4560  0.0751
    1AU     LIG   68   1.482   7.397   6.659 -0.2319  0.0026  0.0881
    1AU     LIG   69   1.267   7.666   6.930 -0.0039 -0.3517  0.0638
    1AU     LIG   70   1.295   8.034   6.887 -0.2509  0.0411  0.0790
    1AU    AUSL   71   2.809   6.688   6.478 -0.0866  0.0416 -0.0661
    1AU    AUSL   72   2.904   7.128   6.393 -0.0247  0.0169  0.0324
    1AU     AUL   73   2.595   7.011   6.508  0.0509 -0.1073  0.0908
    1AU       S   74   2.641   6.556   6.377 -0.4690  0.4153 -0.1519
    1AU     LIG   75   2.447   6.171   6.438 -0.4681 -0.0556 -0.0767
    1AU     LIG   76   2.275   6.041   6.911 -0.0030  0.0928  0.3145
    1AU     LIG   77   1.920   6.033   7.249  0.3790  0.1446  0.0220
    1AU     LIG   78   1.887   5.985   7.662 -0.0346  0.1039  0.1169
    1AU     LIG   79   1.583   5.683   7.834 -0.2750 -0.0538 -0.0973
    1AU       S   80   2.758   7.086   6.089  0.5637  0.0954  0.0749
    1AU     LIG   81   2.308   7.076   6.050  0.2062 -0.1086  0.0128
    1AU     LIG   82   2.008   6.981   6.155 -0.1604 -0.2680  0.0744
    1AU     LIG   83   1.658   6.759   6.305  0.1258 -0.0797 -0.3012
    1AU     LIG   84   1.228   7.076   6.334 -0.1870  0.3990 -0.2902
    1AU     LIG   85   1.058   7.267   6.717  0.1419  0.1208 -0.1323
    1AU    AUSL   86   3.071   6.975   6.742 -0.0566 -0.0646 -0.0875
    1AU    AUSL   87   2.988   6.898   7.206 -0.0617 -0.0873  0.0245
    1AU     AUL   88   2.710   6.948   6.943 -0.0218 -0.0838  0.0781
    1AU       S   89   2.779   7.498   6.655  0.2648 -0.0653 -0.2901
    1AU     LIG   90   2.845   7.928   6.546 -0.0610 -0.1081  0.1207
    1AU     LIG   91   2.961   8.421   6.256  0.0800  0.3237 -0.0408
    1AU     LIG   92   2.599   8.665   6.128  0.0573 -0.0873  0.2458
    1AU     LIG   93   2.178   8.804   6.247  0.2508  0.0267 -0.3194
    1AU     LIG   94   1.858   8.943   6.492 -0.2949 -0.0228 -0.1300
    1AU       S   95   2.765   7.090   7.362 -0.0778  0.2411 -0.3058
    1AU     LIG   96   2.374   7.112   7.527  0.2888  0.1779  0.2763
    1AU     LIG   97   2.212   7.131   7.185 -0.2649  0.0133 -0.2236
    1AU     LIG   98   2.227   7.406   6.860 -0.2571 -0.1861 -0.2071
    1AU     LIG   99   2.030   7.395   6.408  0.0387 -0.1250 -0.3643
    1AU     LIG  100   1.874   7.593   6.042  0.0757 -0.5686  0.5044
    1AU    AUSL  101   4.186   6.544   7.345 -0.0280 -0.0120  0.0509
    1AU    AUSL  102   4.290   6.985   7.373  0.0161 -0.0459  0.0314
    1AU     AUL  103   4.401   6.725   7.606  0.0387  0.0385 -0.0408
    1AU       S  104   4.796   6.633   7.400 -0.2500  0.1537  0.2772
    1AU     LIG  105   5.211   6.900   7.436 -0.0217 -0.3204 -0.0699
    1AU     LIG  106   5.585   6.704   7.277  0.1358  0.1485  0.0040
    1AU     LIG  107   6.058   6.514   7.076  0.3018  0.1129 -0.1158
    1AU     LIG  108   6.380   6.232   7.250  0.0285  0.3147  0.2659
    1AU     LIG  109   6.779   6.102   7.240 -0.1374 -0.1989  0.0669
    1AU       S  110   4.215   7.171   7.777  0.0611  0.0258 -0.1824
    1AU     LIG  111   4.532   7.453   7.841 -0.3449  0.3334  0.0476
    1AU     LIG  112   4.741   7.584   7.487 -0.0844  0.3726  0.3963
    1AU     LIG  113   4.898   7.931   7.337  0.0078 -0.1118  0.1297
    1AU     LIG  114   4.898   8.391   7.422  0.0729  0.4723  0.4706
    1AU     LIG  115   5.062   8.722   7.224 -0.0736 -0.1309  0.3421
    1AU    AUSL  116   4.474   6.293   7.151  0.0192 -0.0363 -0.0278
    1AU    AUSL  117   4.058   6.148   7.401 -0.0240  0.0296 -0.0153
    1AU     AUL  118   4.400   6.244   7.502 -0.0147 -0.0329 -0.1041
    1AU       S  119   4.216   5.834   7.483  0.1611  0.3112  0.2023
    1AU     LIG  120   4.715   5.561   7.514  0.0051  0.2827 -0.3876
    1AU     LIG  121   4.964   5.592   7.093  0.1718  0.4178  0.2808
    1AU     LIG  122   5.194   5.943   6.991 -0.1341  0.2338  0.0865
    1AU     LIG  123   5.212   6.389   7.125 -0.2116 -0.2009 -0.0835
    1AU     LIG  124   5.285   6.458   7.593  0.0971  0.1144 -0.0707
    1AU       S  125   4.824   6.462   7.448  0.0075  0.1155  0.4085
    1AU     LIG  126   4.931   6.046   7.401 -0.1652 -0.0717  0.0206
    1AU     LIG  127   5.240   5.696   7.471  0.0869 -0.1378 -0.1217
    1AU     LIG  128   5.263   5.278   7.320  0.0731 -0.0456  0.4608
    1AU     LIG  129   5.541   5.019   7.123 -0.1757  0.0856  0.1531
    1AU     LIG  130   5.604   4.892   6.682 -0.0051  0.0496 -0.0094
    1AU    AUSL  131   4.430   6.742   7.037  0.1061  0.0683 -0.0230
    1AU    AUSL  132   4.500   6.397   6.739  0.0680 -0.0678  0.0347
    1AU     AUL  133   4.716   6.383   6.957  0.0453  0.0368 -0.0374
    1AU       S  134   4.979   6.415   6.560  0.0487 -0.0012 -0.0203
    1AU     LIG  135   5.409   6.356   6.430  0.2495  0.0266  0.0520
    1AU     LIG  136   5.639   6.573   6.708 -0.0725 -0.1590 -0.0479
    1AU     LIG  137   5.941   6.907   6.840  0.0498 -0.0108 -0.2046
    1AU     LIG  138   6.342   6.839   6.738 -0.0953  0.1363  0.0721
    1AU     LIG  139   6.587   6.470   6.685 -0.2628  0.1342  0.0666
    1AU       S  140   4.720   6.761   7.238 -0.5704 -0.3249  0.3687
    1AU     LIG  141   4.942   7.149   7.104 -0.1443  0.4140  0.1856
    1AU     LIG  142   5.144   7.514   7.158 -0.3565 -0.1465  0.1183
    1AU     LIG  143   5.502   7.735   7.376  0.1703 -0.2688 -0.1984
    1AU     LIG  144   5.635   7.946   7.609 -0.0489  0.0639 -0.1837
    1AU     LIG  145   5.947   7.880   7.980  0.0818  0.2708 -0.1446
    1AU    AUSL  146   3.198   7.160   6.057 -0.0098  0.1456 -0.0262
    1AU    AUSL  147   3.243   7.373   6.458 -0.0727 -0.0126  0.0243
    1AU     AUL  148   3.021   7.470   6.266 -0.0133 -0.0754 -0.0497
    1AU       S  149   2.751   7.218   5.972 -0.1247  0.1814  0.2416
    1AU     LIG  150   2.517   7.578   6.187 -0.1980 -0.2559 -0.1888
    1AU     LIG  151   2.279   7.828   6.369 -0.5277  0.0482 -0.0146
    1AU     LIG  152   1.902   7.859   6.498  0.2973 -0.0051 -0.0521
    1AU     LIG  153   1.847   7.776   6.877 -0.0443 -0.1201 -0.4205
    1AU     LIG  154   1.801   7.385   7.143  0.2868 -0.3031  0.2771
    1AU       S  155   3.322   7.785   6.190 -0.2216 -0.0106  0.2603
    1AU     LIG  156   3.015   7.976   6.063 -0.2399  0.2696 -0.0340
    1AU     LIG  157   2.593   8.066   5.999  0.0025  0.2424  0.1726
    1AU     LIG  158   2.108   8.055   5.986  0.1454  0.1541  0.1602
    1AU     LIG  159   1.618   8.088   5.947  0.0645 -0.2001  0.0138
    1AU     LIG  160   1.377   7.945   5.607  0.1401 -0.3703  0.2869
    1AU    AUSL  161   3.149   6.804   6.259  0.1423  0.0303  0.0689
    1AU    AUSL  162   3.292   6.785   5.846  0.0430 -0.0086 -0.0114
    1AU     AUL  163   3.201   7.078   5.830  0.0905 -0.1539  0.0325
    1AU       S  164   3.046   6.641   5.644  0.0253 -0.2692 -0.1844
    1AU     LIG  165   2.629   6.473   5.425  0.2141 -0.0047 -0.1825
    1AU     LIG  166   2.211   6.457   5.381 -0.0530  0.2278  0.2265
    1AU     LIG  167   1.728   6.170   5.329 -0.2547 -0.0660 -0.2750
    1AU     LIG  168   1.569   5.830   5.196  0.1044  0.6310 -0.0596
    1AU     LIG  169   1.175   5.613   4.964 -0.0825  0.4617  0.1036
    1AU       S  170   2.796   6.895   6.005  0.0743 -0.0300  0.0343
    1AU     LIG  171   2.464   6.682   5.860 -0.0961  0.1391 -0.2157
    1AU     LIG  172   2.216   6.576   6.220 -0.0198  0.3364  0.3722
    1AU     LIG  173   2.032   6.317   6.560 -0.2181  0.0385 -0.0711
    1AU     LIG  174   1.828   5.928   6.746  0.5010 -0.3876 -0.6201
    1AU     LIG  175   1.715   5.562   6.593  0.0933 -0.1895 -0.0243
    1AU    AUSL  176   4.566   6.625   6.378 -0.0501  0.0146 -0.0363
    1AU    AUSL  177   4.313   6.246   6.375 -0.0096 -0.0435  0.0311
    1AU     AUL  178   4.589   6.181   6.470  0.0299  0.0252  0.0114
    1AU       S  179   4.935   6.492   6.377 -0.2450  0.0587 -0.2000
    1AU     LIG  180   5.020   6.223   6.076 -0.1287 -0.1972  0.0382
    1AU     LIG  181   5.207   6.197   5.663  0.0448  0.3649 -0.0774
    1AU     LIG  182   5.259   6.442   5.327  0.1641  0.2657 -0.1137
    1AU     LIG  183   5.233   6.751   5.016 -0.1234 -0.3185  0.0380
    1AU     LIG  184   5.122   7.053   4.699 -0.0361 -0.1137  0.2492
    1AU       S  185   4.543   6.162   6.021 -0.2766 -0.2352  0.2659
    1AU     LIG  186   4.710   5.742   6.166 -0.0753 -0.1751  0.1636
    1AU     LIG  187   4.926   5.420   6.267  0.0673 -0.1088 -0.0426
    1AU     LIG  188   5.275   5.363   6.562 -0.4011 -0.0220 -0.2911
    1AU     LIG  189   5.445   5.505   6.921  0.1992  0.1327 -0.1348
    1AU     LIG  190   5.767   5.602   7.178  0.3213  0.1506 -0.1359
    1AU    AUSL  191   4.735   6.808   6.747 -0.0348 -0.0344  0.1038
    1AU    AUSL  192   4.549   7.026   6.232 -0.0343 -0.0569  0.0144
    1AU     AUL  193   4.810   6.937   6.444  0.0290  0.0185 -0.0718
    1AU       S  194   4.749   7.198   6.078 -0.2971 -0.3808  0.4706
    1AU     LIG  195   4.707   7.641   5.872 -0.0645 -0.3814 -0.4654
    1AU     LIG  196   5.002   8.071   5.895  0.4260  0.4271  0.4356
    1AU     LIG  197   4.839   8.419   6.112 -0.1114  0.2976 -0.0566
    1AU     LIG  198   4.750   8.467   6.577  0.0100  0.2161  0.2433
    1AU     LIG  199   4.736   8.404   6.946 -0.0907  0.0373 -0.0069
    1AU       S  200   5.046   6.613   6.687 -0.3972  0.0445  0.1496
    1AU     LIG  201   5.326   6.990   6.802 -0.2634 -0.2851 -0.1265
    1AU     LIG  202   5.637   7.241   6.621  0.2072 -0.2450 -0.0662
    1AU     LIG  203   5.860   7.638   6.568  0.4319  0.0187  0.1791
    1AU     LIG  204   6.115   8.047   6.585 -0.2435 -0.4259  0.1782
    1AU     LIG  205   6.560   8.142   6.675 -0.3287  0.0477  0.1456
    1AU    AUSL  206   3.537   6.954   7.555  0.0281  0.0240 -0.0067
    1AU    AUSL  207   3.944   6.750   7.609 -0.1062 -0.0483 -0.0369
    1AU     AUL  208   3.691   6.861   7.882  0.0311  0.0313 -0.0882
    1AU       S  209   4.106   7.021   7.832  0.0109 -0.3796 -0.7379
    1AU     LIG  210   4.180   6.680   8.068 -0.3154  0.1501 -0.3714
    1AU     LIG  211   4.068   6.349   7.886  0.0164 -0.3668  0.1678
    1AU     LIG  212   3.910   5.893   7.903 -0.0885  0.2168 -0.0366
    1AU     LIG  213   3.770   5.475   7.696 -0.0196  0.4066 -0.2543
    1AU     LIG  214   3.823   5.036   7.511 -0.0312  0.2042  0.0833
    1AU       S  215   3.211   6.713   7.852  0.0955 -0.2294  0.2975
    1AU     LIG  216   2.788   6.886   7.855  0.0398 -0.0833  0.1796
    1AU     LIG  217   2.453   6.626   7.839 -0.0949  0.3956 -0.0121
    1AU     LIG  218   2.112   6.531   8.120 -0.3636  0.0320  0.1470
    1AU     LIG  219   2.142   6.401   8.530  0.0662  0.0057  0.0889
    1AU     LIG  220   1.757   6.337   8.743  0.1361 -0.1575 -0.1501
    1AU    AUSL  221   3.607   6.507   7.601  0.0456 -0.0872 -0.0260
    1AU    AUSL  222   3.272   6.255   7.391  0.0528  0.0939  0.0332
    1AU     AUL  223   3.480   6.188   7.723 -0.0565 -0.0989 -0.0457
    1AU       S  224   3.325   6.606   7.765  0.0010 -0.1125  0.0966
    1AU     LIG  225   3.405   6.410   8.150 -0.0020 -0.1013  0.1404
    1AU     LIG  226   3.724   6.205   8.242  0.0557 -0.1830  0.1645
    1AU     LIG  227   3.690   5.830   8.510  0.1748 -0.2652  0.0966
    1AU     LIG  228   3.965   5.463   8.688  0.0959 -0.0042 -0.3744
    1AU     LIG  229   4.157   5.027   8.632 -0.1105  0.1982  0.3704
    1AU       S  230   3.194   5.791   7.444  0.0389  0.3165 -0.1175
    1AU     LIG  231   2.958   5.502   7.255  0.2039  0.0767 -0.2162
    1AU     LIG  232   2.773   5.321   6.886  0.0261 -0.1267  0.1101
    1AU     LIG  233   2.489   5.101   6.802 -0.0645 -0.2362  0.1145
    1AU     LIG  234   2.436   4.723   6.917  0.0776 -0.1036 -0.2219
    1AU     LIG  235   2.592   4.477   7.205 -0.3013 -0.1097 -0.0784
    1AU    AUSL  236   3.318   6.663   7.294 -0.0076 -0.0782 -0.0140
    1AU    AUSL  237   3.368   7.117   7.196 -0.0139 -0.0702  0.0176
    1AU     AUL  238   3.189   6.980   7.486  0.1683 -0.0291 -0.0202
    1AU       S  239   2.885   7.318   7.467 -0.1256 -0.1970 -0.1170
    1AU     LIG  240   2.662   7.351   7.867 -0.1955  0.2639 -0.0606
    1AU     LIG  241   2.678   7.253   8.351 -0.0185 -0.0504  0.2353
    1AU     LIG  242   2.905   7.124   8.722  0.3197 -0.1359  0.4595
    1AU     LIG  243   3.311   7.186   8.988  0.0364 -0.0306 -0.2338
    1AU     LIG  244   3.720   7.303   9.002 -0.2149  0.1002  0.1174
    1AU       S  245   3.124   6.561   7.692 -0.1450 -0.4603 -0.1427
    1AU     LIG  246   2.785   6.501   7.500  0.0319  0.0086  0.2049
    1AU     LIG  247   2.405   6.619   7.287 -0.4745  0.2856  0.2688
    1AU     LIG  248   2.101   6.491   7.073 -0.1688  0.3047 -0.0103
    1AU     LIG  249   1.664   6.459   6.942  0.0847  0.2763  0.1164
    1AU     LIG  250   1.197   6.346   6.744 -0.2148 -0.1565  0.1101
    1AU    AUSL  251   3.981   7.451   6.257  0.0689 -0.0533  0.0307
    1AU    AUSL  252   3.569   7.323   6.146  0.0528  0.0678 -0.0291
    1AU     AUL  253   3.880   7.673   6.015  0.0287  0.0548  0.0838
    1AU       S  254   3.418   7.556   5.985 -0.2712  0.3090  0.0815
    1AU     LIG  255   3.110   7.606   5.722  0.1637  0.3662  0.1237
    1AU     LIG  256   2.742   7.733   5.655 -0.1244  0.1324  0.1918
    1AU     LIG  257   2.597   7.587   5.345  0.0345 -0.3866 -0.1667
    1AU     LIG  258   2.269   7.339   5.224  0.2459 -0.2161 -0.0186
    1AU     LIG  259   2.160   6.864   4.990  0.1722  0.3781  0.1339
    1AU       S  260   4.108   7.775   6.419 -0.1443 -0.4976 -0.3672
    1AU     LIG  261   3.890   8.210   6.435  0.0455  0.1513  0.2742
    1AU     LIG  262   3.653   8.542   6.425  0.1769 -0.2135 -0.2497
    1AU     LIG  263   3.291   8.822   6.224 -0.5231  0.2472 -0.4756
    1AU     LIG  264   3.022   9.103   6.036 -0.2334 -0.2114  0.2950
    1AU     LIG  265   2.635   8.995   5.799 -0.0421 -0.1135 -0.1998
    1AU    AUSL  266   4.153   7.055   6.147  0.0379 -0.0517  0.0324
    1AU    AUSL  267   4.370   7.399   6.415 -0.0457  0.0336  0.0108
    1AU     AUL  268   4.329   7.390   6.097  0.0078  0.1045 -0.0510
    1AU       S  269   4.574   6.826   5.818  0.1491 -0.0600  0.1807
    1AU     LIG  270   4.968   6.697   5.947 -0.0912  0.2595 -0.0907
    1AU     LIG  271   5.397   6.569   5.945 -0.0711 -0.2383 -0.0529
    1AU     LIG  272   5.778   6.560   6.180 -0.3180  0.0690  0.0023
    1AU     LIG  273   5.939   6.907   6.361 -0.3921 -0.2854 -0.2733
    1AU     LIG  274   6.039   7.263   6.294  0.3351 -0.0491 -0.3841
    1AU       S  275   4.647   7.655   6.431 -0.2038  0.3171 -0.1219
    1AU     LIG  276   4.852   7.965   6.385 -0.2765  0.5718  0.3424
    1AU     LIG  277   5.225   8.291   6.359 -0.3221 -0.4749 -0.0588
    1AU     LIG  278   5.682   8.400   6.304  0.3027 -0.1393  0.2736
    1AU     LIG  279   5.989   8.259   6.130  0.3414  0.4455 -0.0363
    1AU     LIG  280   6.099   7.781   6.090  0.0865 -0.2930 -0.0266
    1AU    AUSL  281   3.872   7.252   5.863  0.0290  0.0347 -0.0673
    1AU    AUSL  282   4.088   6.835   5.791 -0.0607  0.0741 -0.0083
    1AU     AUL  283   4.187   7.112   5.743  0.0025  0.0209 -0.0230
    1AU       S  284   3.866   6.867   5.443 -0.2892 -0.1269 -0.2943
    1AU     LIG  285   4.380   6.794   5.305  0.0297 -0.0382  0.1448
    1AU     LIG  286   4.794   6.825   5.311 -0.0414  0.0462  0.1604
    1AU     LIG  287   5.105   7.103   5.600  0.1672 -0.3161 -0.2471
    1AU     LIG  288   5.360   7.205   6.028  0.1024  0.0585  0.0507
    1AU     LIG  289   5.328   6.916   6.318 -0.1196 -0.2176 -0.0923
    1AU       S  290   3.736   7.324   5.646 -0.1450  0.0187 -0.1301
    1AU     LIG  291   3.748   7.698   5.546 -0.0979 -0.1283  0.0147
    1AU     LIG  292   3.335   8.068   5.610  0.2022 -0.0549 -0.2078
    1AU     LIG  293   2.924   8.167   5.514 -0.1445  0.0896 -0.2244
    1AU     LIG  294   2.756   8.195   5.203  0.4391 -0.2498 -0.4351
    1AU     LIG  295   2.709   8.311   4.848 -0.1762 -0.2070 -0.0080
    1AU    AUSL  296   3.450   6.008   7.079 -0.0480  0.0065 -0.0762
    1AU    AUSL  297   3.174   6.348   6.987 -0.0475 -0.0097  0.1181
    1AU     AUL  298   3.048   6.162   7.233 -0.0311 -0.0453  0.0293
    1AU       S  299   3.375   5.803   7.167  0.1328 -0.2347 -0.5300
    1AU     LIG  300   3.550   5.382   7.176 -0.3450  0.3080  0.0896
    1AU     LIG  301   4.001   5.186   7.066  0.0181  0.4220  0.0408
    1AU     LIG  302   4.287   4.917   7.098  0.1062  0.2231 -0.2166
    1AU     LIG  303   4.521   4.589   7.233  0.1424  0.0842 -0.1108
    1AU     LIG  304   4.874   4.379   7.075  0.0016 -0.0736  0.0342
    1AU       S  305   2.938   5.836   6.934  0.5888 -0.0915 -0.1809
    1AU     LIG  306   2.675   5.920   7.377  0.1427 -0.1368  0.3811
    1AU     LIG  307   2.363   5.706   7.255  0.0900 -0.0413 -0.1871
    1AU     LIG  308   2.115   5.461   6.919 -0.1150  0.1978  0.0462
    1AU     LIG  309   1.992   5.067   6.761 -0.0841  0.0289 -0.1777
    1AU     LIG  310   1.955   4.522   6.657 -0.3291  0.0574 -0.2141
    1AU    AUSL  311   3.695   6.288   7.263 -0.0963  0.0174 -0.0976
    1AU    AUSL  312   3.855   5.861   7.126  0.0201  0.0045 -0.0752
    1AU     AUL  313   3.776   5.974   7.437 -0.0147  0.0262 -0.0635
    1AU       S  314   3.361   5.788   7.474 -0.1508 -0.0877  0.0526
    1AU     LIG  315   3.305   5.294   7.657  0.0971  0.4509  0.2290
    1AU     LIG  316   3.328   4.936   7.551 -0.0509  0.3540 -0.2528
    1AU     LIG  317   3.562   4.548   7.366 -0.1764 -0.1645 -0.0600
    1AU     LIG  318   3.595   4.154   7.178  0.1786  0.0139  0.0494
    1AU     LIG  319   3.624   3.678   6.989  0.4260  0.0132  0.0605
    1AU       S  320   4.142   5.617   7.363  0.1679  0.0052  0.2481
    1AU     LIG  321   4.479   5.391   7.077  0.1750 -0.0722 -0.1379
    1AU     LIG  322   4.764   5.116   7.246 -0.1793  0.1575  0.2284
    1AU     LIG  323   4.990   4.833   7.358  0.0447  0.0006  0.0627
    1AU     LIG  324   5.288   4.556   7.352 -0.1925  0.0929  0.0988
    1AU     LIG  325   5.587   4.364   7.315 -0.2050  0.0722  0.3190
    1AU    AUSL  326   3.821   6.479   5.821  0.0661 -0.0140  0.0523
    1AU    AUSL  327   4.235   6.589   6.113 -0.0131 -0.0372 -0.0755
    1AU     AUL  328   4.207   6.567   5.701  0.0853  0.0249  0.0824
    1AU       S  329   4.544   6.375   5.975 -0.0952 -0.2881  0.0607
    1AU     LIG  330   4.695   6.418   5.596  0.2764  0.1701  0.0022
    1AU     LIG  331   4.768   6.382   5.167  0.0865  0.0620  0.0427
    1AU     LIG  332   4.524   6.081   4.884 -0.1751 -0.1171  0.4250
    1AU     LIG  333   4.524   5.821   4.542  0.2090  0.2846 -0.2594
    1AU     LIG  334   4.347   5.483   4.546 -0.1228  0.1183  0.2693
    1AU       S  335   3.879   6.638   5.398  0.0558  0.0134 -0.2468
    1AU     LIG  336   4.214   6.324   5.183  0.0237 -0.2024  0.4399
    1AU     LIG  337   4.451   5.945   5.354 -0.1578 -0.4583  0.2128
    1AU     LIG  338   4.754   5.775   5.688 -0.0190 -0.0474  0.1782
    1AU     LIG  339   4.924   5.385   5.781  0.0061  0.1397 -0.5496
    1AU     LIG  340   5.209   5.032   5.731  0.1908  0.3490  0.0024
    1AU    AUSL  341   3.691   6.874   5.953  0.0165 -0.0044  0.0544
    1AU    AUSL  342   3.469   6.454   6.063  0.0425 -0.0877 -0.1076
    1AU     AUL  343   3.535   6.517   5.717  0.0849 -0.0077 -0.0263
    1AU       S  344   3.089   6.463   5.582  0.0793  0.1573  0.1391
    1AU     LIG  345   2.947   6.068   5.471  0.0355  0.3525 -0.0844
    1AU     LIG  346   2.903   5.664   5.706 -0.2396  0.0083  0.1976
    1AU     LIG  347   2.621   5.289   5.752 -0.1025  0.1327  0.1288
    1AU     LIG  348   2.762   4.920   6.045 -0.1915  0.0267 -0.1071
    1AU     LIG  349   2.951   4.512   6.207  0.1767  0.2387  0.1718
    1AU       S  350   3.704   6.896   5.507 -0.1518  0.0948  0.0463
    1AU     LIG  351   3.328   6.879   5.337  0.3008 -0.2493 -0.0084
    1AU     LIG  352   3.051   7.129   5.386  0.2501 -0.0082  0.2337
    1AU     LIG  353   2.588   7.012   5.494 -0.0371 -0.0002  0.4097
    1AU     LIG  354   2.155   6.917   5.525  0.1234  0.3591  0.2484
    1AU     LIG  355   1.869   6.727   5.778  0.2640 -0.0764 -0.0820
    1AU    AUSL  356   3.417   7.434   6.866  0.0046  0.0031  0.0916
    1AU    AUSL  357   3.645   7.570   6.490 -0.0199 -0.0223 -0.0467
    1AU     AUL  358   3.240   7.664   6.666  0.0453 -0.0478  0.0226
    1AU       S  359   3.577   7.827   6.380 -0.2319  0.1126  0.1517
    1AU     LIG  360   3.313   8.169   6.600 -0.3199  0.0129  0.1706
    1AU     LIG  361   3.264   8.642   6.682 -0.2437 -0.2009  0.3149
    1AU     LIG  362   3.251   9.015   6.802 -0.1913 -0.1594 -0.0908
    1AU     LIG  363   2.813   9.191   6.610 -0.4018 -0.2672  0.0337
    1AU     LIG  364   2.551   9.187   6.236  0.3699  0.0241 -0.1573
    1AU       S  365   3.372   7.871   7.032 -0.3027  0.0675  0.0043
    1AU     LIG  366   2.888   7.823   7.024 -0.4369 -0.0895 -0.0128
    1AU     LIG  367   2.537   7.905   6.972  0.0758 -0.0957  0.1789
    1AU     LIG  368   2.200   8.153   6.735  0.3013 -0.1720 -0.0995
    1AU     LIG  369   2.171   8.581   6.707  0.3342  0.0150  0.0091
    1AU     LIG  370   2.314   8.926   6.924  0.0744 -0.0058 -0.0666
    1AU    AUSL  371   3.789   7.662   6.882  0.0428  0.0394  0.1152
    1AU    AUSL  372   4.046   7.450   7.172 -0.0374  0.0306  0.0091
    1AU     AUL  373   3.992   7.810   7.199  0.0353 -0.0659  0.0324
    1AU       S  374   3.606   7.917   6.941 -0.3877  0.1654  0.0173
    1AU     LIG  375   3.762   8.343   7.036 -0.0806 -0.0678 -0.3414
    1AU     LIG  376   3.979   8.696   6.828  0.4224 -0.3854  0.1485
    1AU     LIG  377   4.368   8.701   6.742  0.2731 -0.0706  0.1334
    1AU     LIG  378   4.813   9.003   6.547  0.2012  0.0715  0.2162
    1AU     LIG  379   4.934   9.380   6.717  0.1813  0.1142 -0.0077
    1AU       S  380   4.414   7.719   7.019 -0.0429  0.0401  0.0817
    1AU     LIG  381   4.367   8.152   7.139  0.1728  0.0108 -0.0291
    1AU     LIG  382   4.417   8.646   7.221 -0.0550 -0.0826 -0.1597
    1AU     LIG  383   4.554   8.901   7.615  0.0156  0.0548 -0.2625
    1AU     LIG  384   5.075   8.779   7.714 -0.1802 -0.1609 -0.4511
    1AU     LIG  385   5.514   8.760   7.498 -0.0377 -0.0970 -0.1552
    1AU    AUSL  386   3.608   7.454   7.254  0.0154 -0.0422 -0.0731
    1AU    AUSL  387   3.016   7.310   6.991 -0.0675 -0.0165 -0.0866
    1AU     AUL  388   3.239   7.459   7.212  0.0509 -0.1047  0.0014
    1AU       S  389   2.747   7.377   7.145 -0.4476  0.0062 -0.2740
    1AU     LIG  390   2.586   7.669   7.455  0.2124 -0.1665  0.3744
    1AU     LIG  391   2.249   7.971   7.338  0.3853  0.0838 -0.1897
    1AU     LIG  392   1.882   8.256   7.248 -0.0222  0.0473 -0.1408
    1AU     LIG  393   1.465   8.367   7.234  0.1154  0.2312 -0.1416
    1AU     LIG  394   1.200   8.626   7.274 -0.2338  0.0973 -0.4332
    1AU       S  395   3.551   7.807   7.312  0.2822 -0.0501  0.0363
    1AU     LIG  396   3.440   8.171   7.400 -0.2500 -0.0134  0.1935
    1AU     LIG  397   3.207   8.330   7.089  0.0815 -0.2246 -0.1529
    1AU     LIG  398   2.897   8.315   6.854 -0.1581  0.1392  0.1653
    1AU     LIG  399   2.659   8.520   6.624  0.1421  0.0968 -0.2966
    1AU     LIG  400   2.326   8.343   6.326  0.0505  0.3866  0.2380
    1AU    AUSL  401   3.231   6.165   6.285  0.0407  0.0227 -0.0008
    1AU    AUSL  402   3.276   6.008   6.689  0.0228 -0.0752  0.0172
    1AU     AUL  403   2.955   6.072   6.384 -0.0848  0.0021  0.0127
    1AU       S  404   3.073   5.691   6.140 -0.1799 -0.2850 -0.1555
    1AU     LIG  405   2.870   5.273   6.383  0.2023  0.3047 -0.3807
    1AU     LIG  406   2.896   4.862   6.630 -0.0625 -0.0738  0.0307
    1AU     LIG  407   2.762   4.355   6.710  0.3365 -0.0381 -0.0108
    1AU     LIG  408   2.386   4.025   6.717 -0.3824 -0.2861  0.0918
    1AU     LIG  409   2.004   3.790   6.524  0.0422  0.1492  0.3254
    1AU       S  410   3.118   5.831   6.761  0.1606  0.0222  0.1394
    1AU     LIG  411   3.267   5.419   6.784  0.1845  0.2167 -0.1419
    1AU     LIG  412   3.215   5.096   7.075  0.1953 -0.1877  0.2605
    1AU     LIG  413   3.115   4.688   7.172  0.0721  0.0462 -0.1241
    1AU     LIG  414   3.071   4.236   7.283 -0.0199 -0.1329 -0.1392
    1AU     LIG  415   3.357   3.793   7.354  0.6691  0.1848 -0.3100
    1AU    AUSL  416   3.579   6.046   6.008 -0.0592 -0.1350 -0.0845
    1AU    AUSL  417   3.021   6.459   6.056 -0.0465  0.0112 -0.0181
    1AU     AUL  418   3.228   6.175   5.951  0.0135 -0.1377 -0.1198
    1AU       S  419   3.328   5.707   5.962  0.2273  0.1584 -0.0522
    1AU     LIG  420   3.649   5.638   5.614 -0.1205 -0.0276  0.0896
    1AU     LIG  421   3.953   5.549   5.395 -0.0410 -0.0235  0.2772
    1AU     LIG  422   4.241   5.592   5.127  0.3575 -0.0310 -0.1461
    1AU     LIG  423   4.626   5.588   4.992  0.2229  0.1652  0.2688
    1AU     LIG  424   4.869   5.520   4.722 -0.2528 -0.0196 -0.0819
    1AU       S  425   2.910   6.502   5.813  0.2380 -0.0372 -0.0170
    1AU     LIG  426   2.705   6.139   5.969  0.1397 -0.0680  0.1379
    1AU     LIG  427   2.513   5.767   6.059 -0.0798  0.1169  0.7675
    1AU     LIG  428   2.178   5.649   5.962 -0.1197  0.0408  0.2828
    1AU     LIG  429   1.831   5.856   5.723 -0.1690 -0.1412 -0.2666
    1AU     LIG  430   1.353   5.865   5.613 -0.1058  0.0301 -0.2200
    1AU    AUSL  431   3.509   5.826   6.386  0.0208 -0.0215  0.0873
    1AU    AUSL  432   3.861   6.086   6.333  0.0374 -0.0476  0.0313
    1AU     AUL  433   3.773   5.807   6.080  0.0922  0.0084  0.0360
    1AU       S  434   3.856   5.555   6.493 -0.2675  0.1628  0.0273
    1AU     LIG  435   3.735   5.344   6.050  0.0516 -0.2885  0.0625
    1AU     LIG  436   3.535   5.032   5.884 -0.1515  0.3157  0.3300
    1AU     LIG  437   3.407   4.583   6.085 -0.0172 -0.0797 -0.0640
    1AU     LIG  438   3.524   4.146   6.341 -0.2075  0.0139 -0.1087
    1AU     LIG  439   3.819   4.078   6.714 -0.0526 -0.0415  0.1133
    1AU       S  440   3.309   5.627   6.270 -0.4885 -0.0705  0.2005
    1AU     LIG  441   3.358   5.196   6.398 -0.2235  0.1541  0.2481
    1AU     LIG  442   3.359   4.722   6.537 -0.1858 -0.3164 -0.4423
    1AU     LIG  443   3.384   4.374   6.752 -0.1083  0.0279 -0.0254
    1AU     LIG  444   3.211   4.006   6.839  0.5011  0.1697 -0.0095
    1AU     LIG  445   2.979   3.697   6.742 -0.0572 -0.4364  0.2210
    1AU    AUSL  446   4.425   7.239   7.048 -0.0627  0.0339  0.0346
    1AU    AUSL  447   3.888   7.130   7.387  0.0274 -0.0032  0.0328
    1AU     AUL  448   4.315   7.330   7.372 -0.0376 -0.0243 -0.0548
    1AU       S  449   4.531   7.640   7.054 -0.0829  0.2303  0.0840
    1AU     LIG  450   4.879   7.796   6.853  0.0190 -0.1976 -0.0098
    1AU     LIG  451   5.121   8.157   6.808  0.2502  0.1306 -0.2458
    1AU     LIG  452   5.266   8.576   6.764 -0.1128 -0.0045  0.2653
    1AU     LIG  453   5.359   8.845   6.419  0.0184  0.1059 -0.0918
    1AU     LIG  454   5.104   8.896   6.059  0.2607  0.1262  0.1610
    1AU       S  455   3.881   7.261   7.653 -0.1945  0.0075  0.0624
    1AU     LIG  456   3.996   7.620   7.784 -0.3359 -0.0461  0.2438
    1AU     LIG  457   4.035   8.085   7.588 -0.5215 -0.4506 -0.0758
    1AU     LIG  458   3.920   8.578   7.471 -0.4766 -0.1432 -0.0639
    1AU     LIG  459   3.921   9.017   7.263  0.0710 -0.0087 -0.3156
    1AU     LIG  460   3.774   9.303   7.181 -0.1568  0.1810  0.0912
    1AU    AUSL  461   4.112   7.402   6.746 -0.0006 -0.0001  0.0156
    1AU    AUSL  462   4.377   7.034   6.661 -0.0507 -0.0150 -0.0150
    1AU     AUL  463   4.585   7.286   6.739  0.0524 -0.1100 -0.0956
    1AU       S  464   4.294   7.669   6.833  0.3454  0.3842 -0.2966
    1AU     LIG  465   4.462   8.049   6.598  0.1581 -0.1782 -0.2064
    1AU     LIG  466   4.413   7.951   6.104  0.2092  0.2411  0.1283
    1AU     LIG  467   4.055   8.078   5.931 -0.0838 -0.0093  0.0265
    1AU     LIG  468   3.746   8.146   5.897  0.3451 -0.4632 -0.1947
    1AU     LIG  469   3.465   8.289   6.082 -0.0398 -0.1305  0.0325
    1AU       S  470   4.845   7.393   6.359  0.3956  0.1550  0.2471
    1AU     LIG  471   5.077   7.365   6.637  0.4570 -0.1065 -0.0476
    1AU     LIG  472   5.312   7.682   6.711 -0.1417  0.0965  0.2595
    1AU     LIG  473   5.560   8.083   6.675  0.1676  0.1322 -0.4186
    1AU     LIG  474   5.706   8.386   6.849  0.0586 -0.0936  0.0438
    1AU     LIG  475   5.874   8.702   6.619  0.0070 -0.0512  0.0044
    1AU    AUSL  476   4.178   5.903   6.582  0.0049 -0.0235  0.0301
    1AU    AUSL  477   4.082   6.205   5.992 -0.0260  0.0095 -0.0288
    1AU     AUL  478   4.230   5.909   6.277  0.0053  0.0452  0.0554
    1AU       S  479   4.310   6.164   5.851  0.1345 -0.0300 -0.3630
    1AU     LIG  480   4.243   5.710   5.784  0.2185  0.1409  0.0165
    1AU     LIG  481   4.293   5.401   6.072 -0.7532 -0.0636 -0.0920
    1AU     LIG  482   4.143   5.049   6.298  0.0578  0.0180 -0.2961
    1AU     LIG  483   4.210   4.913   6.585 -0.1439 -0.3677 -0.0384
    1AU     LIG  484   4.674   4.784   6.801  0.5785  0.0867 -0.0243
    1AU       S  485   3.962   5.543   6.464 -0.0367 -0.2356 -0.1149
    1AU     LIG  486   4.442   5.461   6.542 -0.0804 -0.4224  0.2197
    1AU     LIG  487   4.827   5.257   6.743  0.3859 -0.1193 -0.3599
    1AU     LIG  488   5.130   4.973   6.889  0.0698 -0.0832  0.0112
    1AU     LIG  489   5.288   4.574   6.854 -0.3399 -0.2825 -0.2641
    1AU     LIG  490   5.387   4.106   6.846  0.0051 -0.0054  0.0160
    1AU    AUSL  491   3.750   5.934   6.725 -0.1478  0.0339  0.0891
    1AU    AUSL  492   4.141   6.137   6.933 -0.1145  0.0500 -0.0982
    1AU     AUL  493   4.076   5.745   6.880 -0.0312 -0.1204 -0.0422
    1AU       S  494   3.713   5.534   6.713 -0.2282  0.2182  0.0139
    1AU     LIG  495   3.697   5.116   6.743  0.1176 -0.0044  0.2772
    1AU     LIG  496   3.875   4.719   6.914  0.0792  0.1817 -0.1410
    1AU     LIG  497   4.103   4.458   6.766  0.0320 -0.2282  0.0682
    1AU     LIG  498   4.469   4.140   6.803  0.4448 -0.0828  0.1303
    1AU     LIG  499   4.912   3.864   6.887 -0.2290  0.1373  0.2770
    1AU       S  500   4.389   5.843   7.182 -0.2642  0.4816 -0.2667
    1AU     LIG  501   4.590   5.851   6.818  0.2396  0.0466  0.1425
    1AU     LIG  502   5.009   5.884   6.546  0.1613 -0.1973  0.1044
    1AU     LIG  503   5.417   5.856   6.392 -0.0119 -0.1057  0.0230
    1AU     LIG  504   5.800   6.061   6.334 -0.1264  0.0731  0.2316
    1AU     LIG  505   6.132   6.202   6.066 -0.0637  0.3379  0.2464
    2POPC   NC3  506   4.581   9.850   9.092 -0.0685  0.3540 -0.0174
    2POPC   PO4  507   4.934   9.534   9.008  0.1233 -0.0011  0.2200
    2POPC   GL1  508   5.171   9.452   8.657  0.0716  0.0628  0.2551
    2POPC   GL2  509   5.532   9.309   8.588 -0.0237  0.0319  0.0351
    2POPC   C1A  510   4.994   9.532   8.187  0.0745 -0.2386  0.1875
    2POPC   D2A  511   4.912   9.371   7.722 -0.1241  0.3537  0.2131
    2POPC   C3A  512   4.800   9.203   7.337  0.2007  0.0682  0.1326
    2POPC   C4A  513   4.631   9.041   7.002 -0.0433 -0.1763  0.1038
    2POPC   C1B  514   5.500   9.644   8.261  0.0708  0.1809  0.2500
    2POPC   C2B  515   5.272   9.658   7.748 -0.0904 -0.0289  0.0455
    2POPC   C3B  516   5.599   9.916   7.522 -0.2232 -0.2097 -0.0747
    2POPC   C4B  517   5.840  10.264   7.359  0.0983  0.3311 -0.2971
    3POPC   NC3  518   6.742   8.935   8.546  0.1105  0.1030 -0.1183
    3POPC   PO4  519   6.862   9.334   8.538 -0.1553  0.2254  0.0621
    3POPC   GL1  520   6.966   9.615   8.163  0.0069  0.0876  0.1567
    3POPC   GL2  521   7.119   9.937   8.192  0.0139 -0.1857 -0.2261
    3POPC   C1A  522   6.813   9.678   7.614 -0.1993 -0.3934  0.1787
    3POPC   D2A  523   6.461   9.498   7.465 -0.1517  0.2649 -0.0551
    3POPC   C3A  524   6.231   9.481   7.220 -0.4679  0.0144 -0.1677
    3POPC   C4A  525   5.743   9.400   7.029 -0.1728 -0.0249  0.4759
    3POPC   C1B  526   6.777  10.008   7.997 -0.1481  0.0775 -0.2173
    3POPC   C2B  527   6.681  10.161   7.626  0.0906  0.0345  0.1184
    3POPC   C3B  528   6.618   9.978   7.231  0.0093  0.3182  0.1080
    3POPC   C4B  529   6.660   9.584   6.914  0.4803  0.0204 -0.2681
    4POPC   NC3  530   8.344  10.396   8.638 -0.0355  0.1829  0.0450
    4POPC   PO4  531   8.500   9.930   8.615  0.1913  0.0369  0.0091
    4POPC   GL1  532   8.472   9.919   8.189  0.1025 -0.0693  0.0618
    4POPC   GL2  533   8.077  10.129   8.189 -0.1876 -0.0110  0.3862
    4POPC   C1A  534   8.587   9.796   7.731 -0.2409  0.2319 -0.2414
    4POPC   D2A  535   8.351   9.694   7.593  0.1903  0.0445  0.3338
    4POPC   C3A  536   8.394   9.861   7.254  0.1472  0.0708 -0.1559
    4POPC   C4A  537   8.600  10.076   6.926  0.2427 -0.1402 -0.1881
    4POPC   C1B  538   8.195  10.124   7.828 -0.1387  0.0882 -0.3116
    4POPC   C2B  539   8.055  10.186   7.431 -0.2078 -0.1248 -0.0343
    4POPC   C3B  540   8.102  10.255   7.072  0.1201  0.3688  0.4007
    4POPC   C4B  541   7.884  10.048   6.641 -0.1704  0.0496 -0.0494
    5POPC   NC3  542   8.539   6.640   8.518 -0.3089 -0.1312  0.1523
    5POPC   PO4  543   8.976   6.727   8.614 -0.0187 -0.1416  0.2013
    5POPC   GL1  544   8.927   6.973   8.233 -0.1564 -0.1392  0.2087
    5POPC   GL2  545   9.268   6.901   8.211 -0.1693 -0.1667 -0.0586
    5POPC   C1A  546   8.859   6.877   7.753  0.1337  0.4185 -0.0742
    5POPC   D2A  547   8.919   7.043   7.449  0.0175  0.2333  0.1532
    5POPC   C3A  548   8.785   7.064   7.049 -0.1804  0.1270  0.2195
    5POPC   C4A  549   8.945   7.251   6.663  0.0536  0.1884 -0.2212
    5POPC   C1B  550   9.390   7.059   7.779 -0.1670 -0.1996 -0.1213
    5POPC   C2B  551   9.700   7.083   7.417  0.0487 -0.0568 -0.0501
    5POPC   C3B  552   9.793   7.285   6.987 -0.0937  0.1529 -0.1277
    5POPC   C4B  553   9.790   7.667   6.700 -0.1007 -0.1767 -0.1956
    6POPC   NC3  554   4.510   0.499   8.849  0.1585  0.1103  0.1798
    6POPC   PO4  555   4.830   0.738   8.701 -0.2002  0.0571 -0.1135
    6POPC   GL1  556   5.073   0.801   8.347 -0.1039 -0.1191  0.1709
    6POPC   GL2  557   4.817   0.866   8.144 -0.0550  0.2466  0.1434
    6POPC   C1A  558   5.213   1.184   8.260 -0.2043  0.0609 -0.0109
    6POPC   D2A  559   4.895   1.509   8.192 -0.1578  0.2006  0.1015
    6POPC   C3A  560   4.623   1.264   7.852 -0.0830 -0.2729 -0.3626
    6POPC   C4A  561   4.647   0.948   7.612  0.1830 -0.0036  0.0231
    6POPC   C1B  562   4.397   0.877   8.055 -0.0228  0.0241 -0.0141
    6POPC   C2B  563   4.297   0.637   7.670  0.0625 -0.1474 -0.1156
    6POPC   C3B  564   4.042   0.281   7.454 -0.0933 -0.0064  0.3467
    6POPC   C4B  565   3.869   0.292   7.064 -0.1137 -0.0831  0.2746
    7POPC   NC3  566   7.539   2.845   8.523 -0.2658  0.2224  0.1753
    7POPC   PO4  567   8.005   2.653   8.633 -0.1513  0.0491 -0.0083
    7POPC   GL1  568   7.818   2.385   8.224  0.1570 -0.2108  0.0749
    7POPC   GL2  569   7.493   2.421   8.235 -0.2603 -0.1025 -0.0474
    7POPC   C1A  570   7.853   2.152   7.940  0.2261  0.1305 -0.5986
    7POPC   D2A  571   7.732   2.106   7.501 -0.1219 -0.0216  0.1200
    7POPC   C3A  572   8.043   2.177   7.214 -0.0312 -0.1183  0.1384
    7POPC   C4A  573   8.377   2.494   7.200  0.0581  0.2235  0.1743
    7POPC   C1B  574   7.309   2.192   7.927  0.0858  0.1621  0.1172
    7POPC   C2B  575   7.236   2.022   7.592  0.0040  0.4097  0.0333
    7POPC   C3B  576   7.126   2.004   7.253 -0.1361  0.4216  0.1104
    7POPC   C4B  577   6.975   1.788   7.034 -0.0574  0.1661  0.2101
    8POPC   NC3  578   5.395   9.660   9.143 -0.0753  0.1586  0.3827
    8POPC   PO4  579   5.124  10.005   9.114  0.0445 -0.3838  0.1137
    8POPC   GL1  580   5.305   9.924   8.690  0.1153  0.2348  0.2670
    8POPC   GL2  581   5.605   9.754   8.700 -0.1907 -0.4218  0.0664
    8POPC   C1A  582   5.356  10.299   8.343  0.0513  0.0286  0.1670
    8POPC   D2A  583   5.396  10.353   7.799 -0.0606  0.3668  0.0425
    8POPC   C3A  584   5.111  10.072   7.573  0.1095 -0.1314 -0.2326
    8POPC   C4A  585   4.997   9.717   7.324  0.3174  0.2415  0.1603
    8POPC   C1B  586   5.729  10.081   8.467  0.0236 -0.1462 -0.2276
    8POPC   C2B  587   5.718  10.000   8.025  0.0156 -0.0597  0.0501
    8POPC   C3B  588   5.733   9.536   7.845  0.1831 -0.1659  0.0978
    8POPC   C4B  589   5.844   9.374   7.530  0.4178 -0.0712  0.1827
    9POPC   NC3  590   0.897   5.982   9.877 -0.1244 -0.2483 -0.0773
    9POPC   PO4  591   1.072   6.364   9.590  0.4852 -0.1621  0.0561
    9POPC   GL1  592   1.144   6.413   9.103  0.0693 -0.1709  0.3756
    9POPC   GL2  593   1.146   6.239   8.917 -0.2183 -0.0981  0.1376
    9POPC   C1A  594   1.454   6.694   8.885  0.0055  0.0493 -0.3229
    9POPC   D2A  595   1.551   7.083   8.965  0.0510  0.0800 -0.0132
    9POPC   C3A  596   1.212   7.134   8.647 -0.0411 -0.4037 -0.0761
    9POPC   C4A  597   1.112   6.978   8.185 -0.4077  0.0094  0.4001
    9POPC   C1B  598   1.285   6.217   8.532  0.1640  0.0037  0.1689
    9POPC   C2B  599   1.172   6.434   8.201 -0.1224  0.0296  0.3210
    9POPC   C3B  600   1.329   6.638   7.887  0.2368  0.0655  0.0056
    9POPC   C4B  601   1.230   6.968   7.635  0.1205 -0.1564 -0.0867
   10POPC   NC3  602   3.535   1.987   8.607  0.0160  0.0802  0.3849
   10POPC   PO4  603   3.586   1.525   8.641 -0.1843 -0.0521  0.2165
   10POPC   GL1  604   3.468   1.550   8.326  0.1084  0.0624 -0.1249
   10POPC   GL2  605   3.210   1.728   8.226  0.3199  0.2972  0.0311
   10POPC   C1A  606   3.408   1.458   7.887  0.3213  0.1432 -0.1112
   10POPC   D2A  607   3.516   1.159   7.590 -0.0954 -0.0479  0.2948
   10POPC   C3A  608   3.944   0.920   7.325 -0.1129 -0.0708 -0.1882
   10POPC   C4A  609   4.318   0.761   7.184 -0.1493  0.0881  0.1724
   10POPC   C1B  610   3.430   1.950   7.902 -0.0004  0.1556  0.0838
   10POPC   C2B  611   3.401   2.007   7.519 -0.4315 -0.1773 -0.1152
   10POPC   C3B  612   3.204   2.402   7.321  0.0672  0.2217 -0.2255
   10POPC   C4B  613   3.518   2.725   7.370  0.0865 -0.1591  0.2366
   11POPC   NC3  614  10.200   6.021   8.931  0.2514 -0.2553  0.2032
   11POPC   PO4  615  10.277   6.397   8.790  0.2521 -0.3263  0.2085
   11POPC   GL1  616  10.512   6.309   8.276 -0.0378  0.2558 -0.4721
   11POPC   GL2  617  10.879   6.356   8.261 -0.1563 -0.2486 -0.1079
   11POPC   C1A  618  10.671   6.449   7.796  0.0712 -0.0257 -0.2871
   11POPC   D2A  619  10.812   6.526   7.370 -0.2054 -0.0487 -0.1122
   11POPC   C3A  620  11.218   6.278   7.202 -0.3613  0.1993  0.0225
   11POPC   C4A  621  11.386   5.974   7.155 -0.1286 -0.0033  0.0806
   11POPC   C1B  622  11.207   6.449   7.971 -0.1771 -0.0576  0.0380
   11POPC   C2B  623  11.210   6.707   7.609 -0.0338  0.5791  0.0002
   11POPC   C3B  624  11.157   6.929   7.256  0.1697 -0.1443  0.1499
   11POPC   C4B  625  10.816   7.138   7.091 -0.0620 -0.3079  0.1551
   12POPC   NC3  626   1.585   0.313   8.574  0.2359 -0.3157 -0.2681
   12POPC   PO4  627   1.336   0.244   8.237  0.1927 -0.0365  0.1863
   12POPC   GL1  628   1.589   0.256   7.966  0.0999  0.0810  0.1168
   12POPC   GL2  629   1.792   0.047   8.036  0.1039  0.0313  0.2341
   12POPC   C1A  630   1.790   0.308   7.561  0.0860  0.1238  0.0066
   12POPC   D2A  631   2.042   0.482   7.166  0.0055  0.4510  0.1024
   12POPC   C3A  632   1.990   0.656   6.744 -0.2785 -0.0664 -0.0093
   12POPC   C4A  633   2.076   1.037   6.577 -0.2108  0.1313  0.2825
   12POPC   C1B  634   1.554  -0.193   7.671 -0.0111  0.1151  0.1904
   12POPC   C2B  635   1.546  -0.377   7.239  0.0205 -0.0310 -0.0131
   12POPC   C3B  636   1.583  -0.754   6.977 -0.0851  0.1290 -0.0081
   12POPC   C4B  637   1.812  -0.623   6.591 -0.2983  0.0886 -0.0341
   13POPC   NC3  638   1.733   4.999   9.098  0.0565  0.1620  0.1430
   13POPC   PO4  639   1.992   4.644   9.211 -0.0625  0.3020 -0.1438
   13POPC   GL1  640   1.944   4.626   8.774  0.2321  0.0805 -0.1694
   13POPC   GL2  641   2.184   4.519   8.433  0.0930 -0.2010  0.0975
   13POPC   C1A  642   1.698   4.564   8.464  0.3319 -0.0619 -0.1600
   13POPC   D2A  643   1.689   4.370   8.096  0.1535 -0.1030 -0.0672
   13POPC   C3A  644   2.155   4.382   7.861  0.0728 -0.0826 -0.1727
   13POPC   C4A  645   2.545   4.392   7.683 -0.3276 -0.0706  0.0939
   13POPC   C1B  646   1.968   4.891   8.181  0.0127 -0.1802  0.2100
   13POPC   C2B  647   1.896   5.214   7.964  0.7027  0.2693  0.0046
   13POPC   C3B  648   1.886   5.494   7.520 -0.1226  0.0188  0.1746
   13POPC   C4B  649   1.594   5.645   7.169  0.0455 -0.3274  0.1860
   14POPC   NC3  650   3.111   5.097   9.874 -0.1202 -0.0118 -0.2732
   14POPC   PO4  651   3.352   5.036   9.435  0.1914 -0.1016  0.0648
   14POPC   GL1  652   3.659   5.162   9.125  0.0739  0.0670 -0.0139
   14POPC   GL2  653   3.778   5.456   9.153 -0.2560 -0.5021  0.2759
   14POPC   C1A  654   3.637   5.059   8.685 -0.2939 -0.1246  0.0350
   14POPC   D2A  655   3.337   4.865   8.426  0.0354  0.1858  0.0209
   14POPC   C3A  656   3.107   5.004   8.130  0.0974 -0.0207 -0.1777
   14POPC   C4A  657   2.820   5.137   7.837 -0.2187 -0.0382  0.0228
   14POPC   C1B  658   3.624   5.932   9.043 -0.1898  0.1364 -0.3618
   14POPC   C2B  659   3.448   6.217   8.679 -0.0313 -0.0358 -0.0965
   14POPC   C3B  660   2.944   6.237   8.574 -0.0133 -0.0111  0.0459
   14POPC   C4B  661   2.506   6.255   8.845 -0.0570  0.1793  0.0594
   15POPC   NC3  662   1.505   8.474   8.965  0.1885 -0.3140  0.3258
   15POPC   PO4  663   1.183   8.163   8.764  0.0030 -0.1838  0.5135
   15POPC   GL1  664   1.275   7.738   8.514 -0.0653 -0.0206  0.1599
   15POPC   GL2  665   1.594   7.498   8.681 -0.0969 -0.1852  0.3179
   15POPC   C1A  666   1.253   7.544   8.205 -0.3397  0.0194  0.1134
   15POPC   D2A  667   1.462   7.642   7.896 -0.0805 -0.2940 -0.1720
   15POPC   C3A  668   1.678   7.250   7.654 -0.0917 -0.1251  0.1856
   15POPC   C4A  669   1.711   6.899   7.321  0.3229 -0.2805  0.1087
   15POPC   C1B  670   1.577   7.168   8.302 -0.1171 -0.0007  0.1127
   15POPC   C2B  671   1.777   6.878   8.036 -0.0685 -0.0403 -0.0900
   15POPC   C3B  672   1.969   6.868   7.751 -0.1019 -0.0759  0.1147
   15POPC   C4B  673   2.017   6.469   7.661 -0.0810  0.0217 -0.1911
   16POPC   NC3  674   5.239  10.464   8.948 -0.1767 -0.0124 -0.1550
   16POPC   PO4  675   4.824  10.657   9.033  0.1232  0.1836 -0.3552
   16POPC   GL1  676   4.935  10.680   8.611 -0.3554 -0.0774  0.1678
   16POPC   GL2  677   5.166  10.801   8.386 -0.2059 -0.1085 -0.1810
   16POPC   C1A  678   4.863  10.446   8.232 -0.1374 -0.2720 -0.4015
   16POPC   D2A  679   5.055  10.043   8.080  0.0692  0.0420 -0.0734
   16POPC   C3A  680   4.768   9.816   7.858  0.1523  0.1336 -0.1746
   16POPC   C4A  681   4.510   9.829   7.450  0.1210 -0.1445 -0.1442
   16POPC   C1B  682   5.111  10.855   8.031  0.0074  0.0066 -0.0289
   16POPC   C2B  683   4.968  11.046   7.719  0.0379  0.0837  0.0907
   16POPC   C3B  684   4.797  11.053   7.307  0.2232  0.0047  0.0601
   16POPC   C4B  685   4.927  10.750   7.066  0.1250 -0.1412  0.0651
   17POPC   NC3  686   0.392   7.525   8.950  0.0386 -0.0333  0.0429
   17POPC   PO4  687   0.329   7.953   9.185 -0.3894  0.3150  0.1389
   17POPC   GL1  688   0.460   7.933   8.701  0.1739 -0.1171  0.5221
   17POPC   GL2  689   0.281   8.068   8.354  0.3306 -0.0956 -0.3598
   17POPC   C1A  690   0.731   7.830   8.385 -0.2841 -0.0899  0.2392
   17POPC   D2A  691   0.643   8.069   7.956 -0.0277 -0.0431 -0.3211
   17POPC   C3A  692   0.964   8.218   7.598  0.5127  0.0030  0.2797
   17POPC   C4A  693   1.172   7.966   7.422 -0.1356  0.0304 -0.1159
   17POPC   C1B  694   0.122   8.125   7.896  0.0676 -0.1966  0.2469
   17POPC   C2B  695  -0.029   8.250   7.457 -0.0401 -0.0380 -0.0172
   17POPC   C3B  696   0.065   8.117   7.071 -0.1220 -0.2951  0.2228
   17POPC   C4B  697   0.393   8.098   6.755 -0.0085 -0.0855 -0.1299
   18POPC   NC3  698   2.967   4.645   9.303 -0.1813  0.2510  0.2787
   18POPC   PO4  699   2.530   4.545   9.437 -0.0212  0.2083  0.3791
   18POPC   GL1  700   2.426   4.742   9.057 -0.2188  0.3527 -0.0369
   18POPC   GL2  701   2.708   4.630   8.869 -0.2857 -0.2014  0.1170
   18POPC   C1A  702   2.300   4.962   8.660  0.0925  0.1779  0.1742
   18POPC   D2A  703   2.444   5.195   8.312 -0.0966 -0.4721 -0.1754
   18POPC   C3A  704   2.487   5.627   8.337 -0.3492 -0.2740  0.0732
   18POPC   C4A  705   2.503   6.050   8.395 -0.3071 -0.1863  0.0806
   18POPC   C1B  706   2.835   4.723   8.448  0.1059  0.0467  0.0408
   18POPC   C2B  707   2.599   4.723   8.070 -0.0083  0.1997 -0.1081
   18POPC   C3B  708   2.408   4.870   7.739  0.1630 -0.3162 -0.2572
   18POPC   C4B  709   2.056   5.034   7.382  0.0625  0.0022 -0.2581
   19POPC   NC3  710   7.139   2.254   8.862 -0.0191  0.2050  0.0087
   19POPC   PO4  711   6.715   2.552   8.843  0.0597  0.3642 -0.0325
   19POPC   GL1  712   6.348   2.624   8.540  0.2862 -0.1985 -0.1361
   19POPC   GL2  713   6.346   2.990   8.560  0.4029 -0.0897  0.0887
   19POPC   C1A  714   6.132   2.665   8.146  0.1548  0.3076 -0.0015
   19POPC   D2A  715   6.023   2.536   7.739  0.0999 -0.1696 -0.0274
   19POPC   C3A  716   5.700   2.253   7.565 -0.1597  0.0876  0.2189
   19POPC   C4A  717   5.566   1.886   7.411 -0.1050  0.2659 -0.0383
   19POPC   C1B  718   6.246   3.170   8.198 -0.0964  0.1161  0.3381
   19POPC   C2B  719   6.241   3.034   7.823 -0.0261 -0.2352  0.0693
   19POPC   C3B  720   6.159   2.944   7.402 -0.1397  0.3029  0.0572
   19POPC   C4B  721   5.809   2.987   7.313  0.2628 -0.3102 -0.2825
   20POPC   NC3  722   7.647   5.989   8.860 -0.0568  0.2264  0.0508
   20POPC   PO4  723   7.194   5.959   9.023 -0.2580 -0.5902 -0.1784
   20POPC   GL1  724   7.204   6.205   8.673  0.3628 -0.0877  0.2680
   20POPC   GL2  725   6.857   6.284   8.645 -0.0696  0.3365  0.3420
   20POPC   C1A  726   7.270   6.609   8.435  0.2683 -0.0099  0.1318
   20POPC   D2A  727   7.555   6.611   8.167  0.2532  0.1231 -0.2765
   20POPC   C3A  728   7.480   6.459   7.733 -0.1606  0.2947 -0.3020
   20POPC   C4A  729   7.263   6.356   7.406  0.0533  0.0564 -0.0943
   20POPC   C1B  730   6.478   6.409   8.413  0.0296  0.2231  0.0157
   20POPC   C2B  731   6.206   6.288   8.085  0.1322  0.1768  0.0458
   20POPC   C3B  732   6.099   6.048   7.679 -0.2845  0.0755  0.0000
   20POPC   C4B  733   6.178   5.698   7.376  0.3072 -0.2392  0.0664
   21POPC   NC3  734   1.022   5.737   8.883 -0.2122 -0.2165 -0.0048
   21POPC   PO4  735   0.746   6.002   8.601  0.0627  0.0948 -0.1331
   21POPC   GL1  736   0.775   5.948   8.164 -0.1392 -0.0493 -0.2001
   21POPC   GL2  737   1.156   5.916   8.133  0.0736  0.0771  0.0372
   21POPC   C1A  738   0.746   6.032   7.695  0.4748  0.1081  0.0157
   21POPC   D2A  739   0.560   5.716   7.434  0.0763  0.0461 -0.1428
   21POPC   C3A  740   0.591   5.295   7.600  0.1686  0.0041  0.1892
   21POPC   C4A  741   0.490   4.891   7.567 -0.0814 -0.2412  0.0698
   21POPC   C1B  742   1.234   6.077   7.761 -0.1961 -0.1514 -0.2010
   21POPC   C2B  743   1.101   6.299   7.499  0.0824 -0.1957  0.1906
   21POPC   C3B  744   1.151   6.705   7.214 -0.0433 -0.3050  0.0211
   21POPC   C4B  745   1.261   6.852   6.781 -0.0828  0.0970 -0.2904
   22POPC   NC3  746   9.669   0.051   8.537  0.2393  0.0894 -0.2538
   22POPC   PO4  747   9.230   0.150   8.606  0.0144 -0.4382  0.0925
   22POPC   GL1  748   9.283   0.204   8.124  0.1998  0.1338 -0.0345
   22POPC   GL2  749   9.308  -0.181   8.103  0.1700 -0.0484  0.0924
   22POPC   C1A  750   9.071   0.236   7.783  0.0637 -0.0165 -0.1593
   22POPC   D2A  751   9.178   0.155   7.434  0.0967  0.0192  0.0414
   22POPC   C3A  752   9.020   0.345   7.086 -0.0405 -0.4521 -0.0357
   22POPC   C4A  753   9.079   0.585   6.741 -0.3231 -0.2070 -0.2969
   22POPC   C1B  754   9.286  -0.381   7.640 -0.0518  0.4090 -0.1177
   22POPC   C2B  755   9.585  -0.482   7.311 -0.1910 -0.0355 -0.1840
   22POPC   C3B  756   9.928  -0.710   7.269 -0.3108  0.0310 -0.1709
   22POPC   C4B  757   9.945  -1.215   7.485  0.0138 -0.0604  0.0240
   23POPC   NC3  758   7.421   7.838   8.364 -0.0261 -0.0404 -0.1458
   23POPC   PO4  759   7.551   7.605   8.601 -0.1760  0.2260  0.2470
   23POPC   GL1  760   7.756   7.440   8.182  0.1157 -0.0920  0.0080
   23POPC   GL2  761   7.685   7.188   8.002 -0.2420  0.0116 -0.0570
   23POPC   C1A  762   8.163   7.335   7.824 -0.1424 -0.2544 -0.4044
   23POPC   D2A  763   8.291   7.360   7.422  0.1954 -0.1409  0.1552
   23POPC   C3A  764   8.148   7.072   7.071  0.0969 -0.2486 -0.1584
   23POPC   C4A  765   7.712   6.999   6.939  0.2342 -0.0077  0.0210
   23POPC   C1B  766   7.704   7.346   7.671 -0.0417  0.2246 -0.0473
   23POPC   C2B  767   7.804   7.474   7.306 -0.1370 -0.0208 -0.2453
   23POPC   C3B  768   7.532   7.453   6.921  0.2310  0.0018 -0.2444
   23POPC   C4B  769   7.322   7.572   6.624  0.2168  0.0443 -0.1576
   24POPC   NC3  770   4.545   1.021   8.967 -0.0270 -0.1851 -0.0473
   24POPC   PO4  771   4.669   1.400   8.848  0.3048  0.2327 -0.1415
   24POPC   GL1  772   4.671   1.755   8.559 -0.1994  0.3735 -0.3835
   24POPC   GL2  773   4.457   1.658   8.265 -0.2833 -0.1584  0.2745
   24POPC   C1A  774   4.874   2.000   8.372  0.0889  0.0998 -0.1971
   24POPC   D2A  775   4.810   2.034   7.910 -0.0120 -0.1413  0.0509
   24POPC   C3A  776   4.379   2.236   7.787  0.2306  0.2169 -0.3792
   24POPC   C4A  777   4.366   2.572   7.933  0.0554  0.0523 -0.2681
   24POPC   C1B  778   4.358   1.723   7.856  0.1390 -0.0961  0.1658
   24POPC   C2B  779   4.330   1.744   7.518  0.0499 -0.0637 -0.0918
   24POPC   C3B  780   4.348   2.080   7.193 -0.1914 -0.3538 -0.1336
   24POPC   C4B  781   4.201   2.122   6.738 -0.2837 -0.0685  0.1664
   25POPC   NC3  782   7.026   5.666   9.466 -0.2356 -0.0991  0.2734
   25POPC   PO4  783   6.898   5.515   9.061  0.3936  0.0911 -0.0581
   25POPC   GL1  784   6.965   5.717   8.643  0.1546 -0.1586 -0.0979
   25POPC   GL2  785   6.735   5.806   8.550 -0.3332 -0.0591 -0.0894
   25POPC   C1A  786   7.260   5.696   8.409  0.0239 -0.1345  0.0287
   25POPC   D2A  787   7.322   5.654   7.964  0.3239 -0.0003 -0.0920
   25POPC   C3A  788   7.627   5.903   7.781  0.0759  0.0886 -0.0421
   25POPC   C4A  789   7.696   6.073   7.371 -0.2552  0.2026 -0.0441
   25POPC   C1B  790   6.839   6.013   8.148  0.2337  0.1314 -0.3572
   25POPC   C2B  791   6.969   5.945   7.693  0.0008  0.1040 -0.1455
   25POPC   C3B  792   6.927   5.665   7.391  0.3083 -0.3575 -0.0498
   25POPC   C4B  793   6.629   5.386   7.333  0.0909 -0.0604 -0.1138
   26POPC   NC3  794   8.885   3.675   8.900  0.2581 -0.0931  0.0987
   26POPC   PO4  795   8.376   3.816   8.793  0.1731  0.0136 -0.1687
   26POPC   GL1  796   8.431   3.752   8.306  0.1253  0.2350  0.0566
   26POPC   GL2  797   8.887   3.737   8.256  0.1844 -0.0164 -0.0309
   26POPC   C1A  798   8.099   3.605   7.931 -0.1207 -0.0234 -0.0080
   26POPC   D2A  799   7.898   3.791   7.506 -0.2937 -0.2243  0.3337
   26POPC   C3A  800   7.963   3.639   7.185  0.1593  0.1367 -0.0646
   26POPC   C4A  801   8.313   3.386   7.037 -0.0999 -0.0312  0.0145
   26POPC   C1B  802   8.659   3.797   7.845 -0.1573 -0.0608 -0.0584
   26POPC   C2B  803   8.403   3.759   7.482  0.1166  0.1683 -0.2427
   26POPC   C3B  804   8.455   3.879   6.982 -0.1479  0.0260  0.1630
   26POPC   C4B  805   8.864   4.042   6.858  0.0571 -0.0950  0.3146
   27POPC   NC3  806   8.099   7.828   8.475 -0.0214  0.0409  0.1158
   27POPC   PO4  807   7.842   8.125   8.577  0.2160  0.2240  0.0541
   27POPC   GL1  808   7.731   8.016   8.077 -0.2221  0.2828  0.1479
   27POPC   GL2  809   7.605   8.325   7.933  0.1439 -0.2330  0.0242
   27POPC   C1A  810   7.440   7.759   7.629 -0.0423 -0.0628  0.3728
   27POPC   D2A  811   7.069   7.930   7.307  0.1238 -0.1860  0.2311
   27POPC   C3A  812   6.951   7.859   6.862 -0.2371  0.1343  0.0901
   27POPC   C4A  813   6.983   7.839   6.442  0.2508  0.2517 -0.0786
   27POPC   C1B  814   7.444   8.241   7.538  0.2152  0.1272 -0.2703
   27POPC   C2B  815   7.592   8.432   7.171 -0.0378 -0.1581 -0.0171
   27POPC   C3B  816   7.922   8.804   7.140 -0.2590  0.0243  0.0617
   27POPC   C4B  817   8.332   9.113   7.185  0.1383  0.1398  0.1817
   28POPC   NC3  818   4.471   8.904   9.560  0.1173  0.2375 -0.1123
   28POPC   PO4  819   4.799   8.872   9.289 -0.0793 -0.2624  0.2493
   28POPC   GL1  820   4.778   8.956   8.811 -0.2167 -0.0744 -0.0598
   28POPC   GL2  821   4.680   9.196   8.581  0.2018  0.2117 -0.1035
   28POPC   C1A  822   4.797   8.740   8.384  0.1590  0.2366 -0.0065
   28POPC   D2A  823   4.754   8.608   8.034  0.2271  0.0954 -0.0192
   28POPC   C3A  824   4.509   8.329   7.706  0.1475  0.2136  0.0070
   28POPC   C4A  825   4.500   7.962   7.615  0.0158 -0.1218  0.0336
   28POPC   C1B  826   4.696   9.175   8.129 -0.0919 -0.3310  0.0651
   28POPC   C2B  827   4.418   9.335   7.775  0.1150  0.0723  0.1508
   28POPC   C3B  828   4.313   9.329   7.329 -0.2520 -0.1335 -0.0785
   28POPC   C4B  829   4.193   9.409   6.952  0.1228 -0.1488  0.0317
   29POPC   NC3  830   0.039   4.794   8.526 -0.1134  0.2333  0.2813
   29POPC   PO4  831   0.302   4.519   8.689  0.0494  0.1290 -0.1014
   29POPC   GL1  832   0.409   4.431   8.250  0.2217  0.0013  0.1565
   29POPC   GL2  833   0.724   4.525   8.324  0.1339  0.1091 -0.0157
   29POPC   C1A  834   0.356   4.437   7.806 -0.1146  0.2659 -0.2982
   29POPC   D2A  835   0.323   4.329   7.402 -0.4843 -0.0782  0.2080
   29POPC   C3A  836   0.071   4.125   7.082  0.4107  0.1588  0.1013
   29POPC   C4A  837   0.165   3.985   6.685 -0.1536  0.0480  0.0702
   29POPC   C1B  838   0.750   4.715   7.969 -0.5525 -0.0675 -0.0837
   29POPC   C2B  839   1.030   4.998   7.788 -0.0624  0.0848 -0.1367
   29POPC   C3B  840   1.091   5.149   7.379  0.1772  0.2870 -0.2769
   29POPC   C4B  841   1.193   5.135   6.926 -0.1261  0.1403 -0.4787
   30POPC   NC3  842   6.953   0.239   8.657 -0.1972 -0.0655  0.0350
   30POPC   PO4  843   6.589   0.426   8.824 -0.1239 -0.0270  0.0926
   30POPC   GL1  844   6.520   0.431   8.437 -0.0108 -0.1670 -0.1522
   30POPC   GL2  845   6.308   0.175   8.439 -0.0511  0.0303 -0.0074
   30POPC   C1A  846   6.775   0.316   8.090 -0.3491 -0.0706 -0.1851
   30POPC   D2A  847   7.050   0.334   7.758  0.0516 -0.0018 -0.0777
   30POPC   C3A  848   6.774   0.153   7.406  0.0939 -0.1808 -0.2234
   30POPC   C4A  849   6.342  -0.062   7.368  0.1428 -0.2826 -0.3954
   30POPC   C1B  850   5.973  -0.003   8.062 -0.1290 -0.0558 -0.0968
   30POPC   C2B  851   5.953   0.119   7.697  0.4385  0.0929  0.1622
   30POPC   C3B  852   5.894   0.586   7.729 -0.1219 -0.0594  0.0417
   30POPC   C4B  853   5.743   0.797   7.496  0.0719 -0.1068 -0.0751
   31POPC   NC3  854   6.252   1.254   9.028 -0.0436  0.1912  0.1045
   31POPC   PO4  855   6.602   1.450   9.013  0.2570  0.0193  0.1486
   31POPC   GL1  856   6.415   1.541   8.612 -0.0113 -0.0923  0.0497
   31POPC   GL2  857   6.450   1.364   8.310 -0.0103  0.1829 -0.2549
   31POPC   C1A  858   6.344   1.904   8.350  0.0327 -0.2073  0.0114
   31POPC   D2A  859   6.331   2.201   7.980 -0.0724  0.2079 -0.0230
   31POPC   C3A  860   6.249   2.030   7.510  0.1334  0.0931  0.0502
   31POPC   C4A  861   6.024   1.783   7.164  0.2651  0.0094  0.0988
   31POPC   C1B  862   6.702   1.735   8.110 -0.1132  0.2944  0.2052
   31POPC   C2B  863   6.776   2.073   7.833  0.1031  0.0365 -0.2128
   31POPC   C3B  864   6.752   2.273   7.454  0.0497  0.2886  0.0899
   31POPC   C4B  865   6.463   2.507   7.331  0.0916  0.0427 -0.1293
   32POPC   NC3  866   7.935   5.181   8.668 -0.2302  0.2590  0.1511
   32POPC   PO4  867   7.931   5.615   8.836 -0.0307  0.0356 -0.1316
   32POPC   GL1  868   7.943   5.659   8.390  0.3174  0.0287  0.0195
   32POPC   GL2  869   7.791   5.458   8.273  0.1377 -0.4250  0.0437
   32POPC   C1A  870   8.101   5.829   7.969  0.1400 -0.2777 -0.5076
   32POPC   D2A  871   8.347   5.936   7.592  0.1642 -0.2328  0.1384
   32POPC   C3A  872   8.434   5.590   7.269 -0.0460 -0.1610  0.0212
   32POPC   C4A  873   8.516   5.629   6.855  0.2824  0.0218  0.1723
   32POPC   C1B  874   7.792   5.440   7.753  0.0528 -0.1427 -0.1420
   32POPC   C2B  875   7.931   5.657   7.454 -0.2791 -0.0430  0.1297
   32POPC   C3B  876   8.077   5.818   7.055 -0.0875 -0.0326 -0.1808
   32POPC   C4B  877   8.100   6.153   6.706  0.3039  0.0216  0.1162
   33POPC   NC3  878   6.841   7.208   8.977  0.0004 -0.1264  0.0930
   33POPC   PO4  879   7.082   7.386   8.613 -0.3076  0.0269  0.4202
   33POPC   GL1  880   7.225   7.214   8.253  0.1472 -0.1942  0.0028
   33POPC   GL2  881   7.269   7.443   8.025  0.2683 -0.0612  0.0917
   33POPC   C1A  882   7.284   6.948   7.935  0.1099 -0.4145 -0.0529
   33POPC   D2A  883   7.231   6.829   7.451 -0.0556  0.0465  0.0918
   33POPC   C3A  884   6.803   6.543   7.460 -0.1904 -0.0403 -0.0382
   33POPC   C4A  885   6.591   6.246   7.756  0.1646  0.0902  0.4942
   33POPC   C1B  886   7.168   7.377   7.552 -0.2023 -0.0800 -0.1698
   33POPC   C2B  887   7.071   7.425   7.088 -0.3105  0.1125 -0.1389
   33POPC   C3B  888   7.250   7.076   6.858  0.1841 -0.0100  0.2224
   33POPC   C4B  889   7.421   6.702   6.684 -0.0991  0.0834 -0.1548
   34POPC   NC3  890   1.666   2.455   8.625  0.1984 -0.3424 -0.1752
   34POPC   PO4  891   1.885   2.071   8.384 -0.2463  0.1430  0.0025
   34POPC   GL1  892   1.602   2.183   8.069  0.0638  0.1874 -0.1044
   34POPC   GL2  893   1.506   1.771   7.782  0.0176 -0.2317  0.0564
   34POPC   C1A  894   1.578   2.346   7.644 -0.0674  0.0925 -0.0818
   34POPC   D2A  895   1.645   2.306   7.186 -0.2112 -0.0203  0.0149
   34POPC   C3A  896   1.784   2.667   6.893 -0.0122  0.2577 -0.4046
   34POPC   C4A  897   1.877   2.795   6.452  0.1458 -0.0285  0.1686
   34POPC   C1B  898   1.134   1.534   7.535 -0.1333 -0.1128  0.1179
   34POPC   C2B  899   0.901   1.277   7.282 -0.1003 -0.0843  0.0841
   34POPC   C3B  900   0.648   0.890   6.974  0.0434  0.1952 -0.0866
   34POPC   C4B  901   0.665   0.726   6.565 -0.2661  0.0130  0.1795
   35POPC   NC3  902   3.109   0.922   9.225 -0.2089  0.0629 -0.0261
   35POPC   PO4  903   3.307   0.628   8.958 -0.2071  0.6011  0.0397
   35POPC   GL1  904   3.293   0.542   8.535 -0.3375  0.2679  0.1124
   35POPC   GL2  905   3.071   0.578   8.329  0.0133  0.3082 -0.0226
   35POPC   C1A  906   3.539   0.348   8.134 -0.0666  0.1033  0.1935
   35POPC   D2A  907   3.728   0.130   7.875  0.0318 -0.1642  0.3141
   35POPC   C3A  908   4.162   0.182   7.932  0.1105 -0.1182  0.1250
   35POPC   C4A  909   4.474  -0.216   7.937 -0.3528  0.2269  0.0688
   35POPC   C1B  910   3.051   0.327   7.974 -0.4396  0.0252 -0.0303
   35POPC   C2B  911   2.960   0.370   7.414  0.0173 -0.1226  0.0581
   35POPC   C3B  912   2.738   0.083   7.124  0.1172  0.0714  0.0759
   35POPC   C4B  913   2.666  -0.205   6.828 -0.1111 -0.4631 -0.0351
   36POPC   NC3  914   7.315   9.266   8.384 -0.1047  0.0302 -0.2119
   36POPC   PO4  915   7.321   8.754   8.315 -0.1266 -0.1975  0.0854
   36POPC   GL1  916   7.021   9.050   8.063  0.0892  0.1490  0.0194
   36POPC   GL2  917   6.755   8.844   8.036  0.1899 -0.0934  0.0497
   36POPC   C1A  918   6.952   9.140   7.643  0.0209  0.1987 -0.1162
   36POPC   D2A  919   6.837   9.206   7.267 -0.2242 -0.0853  0.3386
   36POPC   C3A  920   6.891   8.935   6.784 -0.2490 -0.1955  0.1033
   36POPC   C4A  921   6.896   8.444   6.863 -0.4190  0.1064 -0.1524
   36POPC   C1B  922   6.774   8.640   7.602  0.1339  0.2362  0.0904
   36POPC   C2B  923   6.676   8.691   7.194  0.0514  0.1555 -0.0108
   36POPC   C3B  924   6.390   9.050   6.937 -0.0332 -0.3614 -0.0953
   36POPC   C4B  925   6.149   9.091   6.606 -0.3164  0.2979 -0.0679
   37POPC   NC3  926   1.670   5.612   9.522 -0.1466 -0.3540 -0.1073
   37POPC   PO4  927   1.486   5.473   9.102 -0.0478  0.2467  0.0401
   37POPC   GL1  928   1.539   5.827   8.714 -0.1863 -0.0181  0.2926
   37POPC   GL2  929   1.393   5.588   8.450  0.0609 -0.0843 -0.3308
   37POPC   C1A  930   1.672   5.988   8.307  0.3893 -0.3208 -0.2108
   37POPC   D2A  931   1.695   6.327   7.991 -0.2369 -0.1988 -0.1157
   37POPC   C3A  932   1.573   6.369   7.498 -0.0557 -0.0908 -0.1274
   37POPC   C4A  933   1.405   6.119   7.168 -0.0898  0.1015  0.0226
   37POPC   C1B  934   1.325   5.305   8.015 -0.0164  0.0573 -0.0721
   37POPC   C2B  935   1.524   5.158   7.572  0.0791  0.0233 -0.0736
   37POPC   C3B  936   1.579   4.917   7.150 -0.1630  0.0966 -0.1609
   37POPC   C4B  937   1.764   4.526   7.156 -0.0984 -0.2391 -0.0562
   38POPC   NC3  938   7.110   3.143   8.681  0.2029  0.0679  0.0845
   38POPC   PO4  939   7.183   2.780   8.885  0.2654  0.1861  0.2076
   38POPC   GL1  940   7.071   2.688   8.435 -0.2802 -0.1602 -0.1255
   38POPC   GL2  941   6.870   2.967   8.280  0.1044 -0.2044  0.0266
   38POPC   C1A  942   6.722   2.517   8.201  0.2871 -0.1089 -0.1301
   38POPC   D2A  943   6.648   2.619   7.815 -0.3264  0.0956 -0.0276
   38POPC   C3A  944   6.814   2.868   7.621  0.3229 -0.3697 -0.0073
   38POPC   C4A  945   6.619   3.241   7.453  0.0648 -0.2225  0.3819
   38POPC   C1B  946   7.146   2.676   7.972  0.1048 -0.2412 -0.0089
   38POPC   C2B  947   7.220   2.497   7.507  0.2182  0.2434 -0.0413
   38POPC   C3B  948   7.054   2.473   7.024 -0.2159 -0.2198  0.1671
   38POPC   C4B  949   6.692   2.446   6.880 -0.1827 -0.2324  0.4517
   39POPC   NC3  950   2.705   1.737   9.057  0.2595 -0.4096 -0.4249
   39POPC   PO4  951   2.528   1.911   8.797  0.1466 -0.0472  0.0537
   39POPC   GL1  952   2.447   2.015   8.337 -0.1598 -0.0274 -0.3142
   39POPC   GL2  953   2.331   2.219   8.325 -0.3041 -0.2181 -0.0212
   39POPC   C1A  954   2.510   1.838   8.001  0.3390  0.1067 -0.1600
   39POPC   D2A  955   2.435   1.910   7.533  0.0717 -0.1374  0.1456
   39POPC   C3A  956   2.543   2.327   7.382  0.1281 -0.0484 -0.4256
   39POPC   C4A  957   2.286   2.450   7.017  0.1829  0.0208  0.1006
   39POPC   C1B  958   2.333   2.316   7.868 -0.5060 -0.2435  0.2125
   39POPC   C2B  959   2.005   2.167   7.573 -0.1558 -0.2842  0.3413
   39POPC   C3B  960   1.881   1.846   7.403  0.0454 -0.3603  0.1390
   39POPC   C4B  961   1.830   1.428   7.501  0.0306  0.1450 -0.1700
   40POPC   NC3  962   5.227   3.896   9.490  0.3255  0.1030 -0.1295
   40POPC   PO4  963   5.480   3.872   9.214  0.2431 -0.3166  0.0795
   40POPC   GL1  964   5.364   3.815   8.806  0.2542  0.1571 -0.2335
   40POPC   GL2  965   5.235   4.061   8.595 -0.1687 -0.3852 -0.0029
   40POPC   C1A  966   5.410   3.606   8.425  0.0654  0.1586  0.0588
   40POPC   D2A  967   5.158   3.483   8.097  0.1746  0.1949  0.2525
   40POPC   C3A  968   5.307   3.108   7.905  0.2392  0.3139  0.2242
   40POPC   C4A  969   5.702   3.017   7.862  0.0594 -0.0347  0.0373
   40POPC   C1B  970   5.390   4.052   8.140 -0.2750  0.2632  0.1836
   40POPC   C2B  971   5.503   4.052   7.736  0.2455 -0.1123 -0.0836
   40POPC   C3B  972   5.602   3.824   7.426 -0.0783  0.2580  0.3620
   40POPC   C4B  973   5.436   3.640   7.037  0.2659  0.0205  0.1232
   41POPC   NC3  974   0.187   3.819   9.002  0.0965  0.1519  0.0654
   41POPC   PO4  975  -0.137   3.607   8.793  0.0257 -0.0825  0.2054
   41POPC   GL1  976  -0.081   3.445   8.340  0.2439  0.0867  0.1944
   41POPC   GL2  977   0.197   3.633   8.351 -0.1032  0.0812 -0.0907
   41POPC   C1A  978  -0.354   3.401   7.970 -0.0714 -0.2062 -0.1111
   41POPC   D2A  979  -0.455   3.551   7.542  0.1511 -0.1028  0.1974
   41POPC   C3A  980  -0.847   3.668   7.356 -0.0022  0.1450  0.1991
   41POPC   C4A  981  -1.232   3.626   7.231  0.1092  0.0278 -0.2627
   41POPC   C1B  982   0.384   3.863   8.062  0.2557 -0.1130 -0.0624
   41POPC   C2B  983   0.531   3.938   7.602 -0.3163  0.2011  0.0967
   41POPC   C3B  984   0.412   3.702   7.254 -0.1193  0.0610 -0.2450
   41POPC   C4B  985   0.128   3.459   7.047  0.2184 -0.3987  0.0598
   42POPC   NC3  986  10.365   0.993   8.200 -0.1800 -0.3460 -0.0572
   42POPC   PO4  987  10.277   1.262   8.482  0.0016 -0.0064  0.0545
   42POPC   GL1  988  10.242   1.464   8.050  0.0806 -0.3154 -0.3190
   42POPC   GL2  989  10.411   1.825   8.092 -0.2432  0.1904  0.2163
   42POPC   C1A  990  10.047   1.283   7.699  0.1377  0.2725  0.1743
   42POPC   D2A  991  10.119   1.088   7.264  0.0248  0.2222  0.0945
   42POPC   C3A  992  10.545   0.948   7.104 -0.1599 -0.0433  0.2891
   42POPC   C4A  993  10.697   0.696   6.750 -0.0486 -0.3008 -0.0015
   42POPC   C1B  994  10.082   1.801   7.696  0.2291 -0.2986  0.0971
   42POPC   C2B  995   9.663   1.930   7.568 -0.1084  0.1358  0.1603
   42POPC   C3B  996   9.378   1.987   7.869 -0.1173  0.2362 -0.2529
   42POPC   C4B  997   9.080   2.259   7.948  0.0801  0.0405  0.1077
   43POPC   NC3  998   6.689   5.948   9.041 -0.0610  0.0806 -0.1746
   43POPC   PO4  999   6.250   6.033   8.981 -0.1891  0.0350 -0.1498
   43POPC   GL1 1000   6.270   6.008   8.532  0.1060  0.0543  0.2105
   43POPC   GL2 1001   6.056   5.646   8.543 -0.1965 -0.1209  0.0895
   43POPC   C1A 1002   6.371   5.776   8.161  0.2539 -0.0806  0.3093
   43POPC   D2A 1003   6.524   5.739   7.794 -0.4007  0.0575  0.3761
   43POPC   C3A 1004   6.816   5.482   7.870 -0.0886 -0.0591  0.3916
   43POPC   C4A 1005   6.928   5.263   8.220  0.2788 -0.1492  0.2887
   43POPC   C1B 1006   6.016   5.388   8.112 -0.0769 -0.3114  0.2264
   43POPC   C2B 1007   5.980   4.904   7.888  0.0774  0.2103  0.0246
   43POPC   C3B 1008   5.901   4.739   7.506  0.1693  0.1559  0.0655
   43POPC   C4B 1009   5.944   4.609   7.061 -0.1272  0.2880  0.2184
   44POPC   NC3 1010   8.019   9.065   8.932  0.1145  0.1812  0.1359
   44POPC   PO4 1011   8.207   9.063   8.535 -0.0634  0.1677 -0.1887
   44POPC   GL1 1012   8.282   9.062   8.103  0.1795 -0.2007  0.2964
   44POPC   GL2 1013   8.177   9.328   7.951 -0.0079 -0.0707 -0.2933
   44POPC   C1A 1014   8.283   8.827   7.598 -0.0530 -0.1925  0.1541
   44POPC   D2A 1015   8.493   8.694   7.318 -0.1451  0.0823  0.0266
   44POPC   C3A 1016   8.868   8.761   7.095  0.1809 -0.0833  0.1492
   44POPC   C4A 1017   9.254   8.767   6.837  0.0277 -0.0579  0.0920
   44POPC   C1B 1018   7.932   9.254   7.444  0.1065 -0.0193 -0.0128
   44POPC   C2B 1019   7.724   9.321   7.020  0.2106 -0.0600  0.0557
   44POPC   C3B 1020   7.642   9.644   6.894  0.1555 -0.0615  0.1632
   44POPC   C4B 1021   7.517   9.754   6.509  0.1008  0.1996 -0.0825
   45POPC   NC3 1022   6.375   4.044   9.353 -0.1608  0.2279  0.0075
   45POPC   PO4 1023   6.597   4.310   9.056 -0.0454  0.0893 -0.0244
   45POPC   GL1 1024   6.658   4.228   8.582  0.1129  0.2145  0.1648
   45POPC   GL2 1025   6.352   4.173   8.406  0.0093  0.2394 -0.2433
   45POPC   C1A 1026   6.775   4.278   8.059  0.1362  0.3672  0.0255
   45POPC   D2A 1027   6.513   4.122   7.727  0.2004  0.1022 -0.0855
   45POPC   C3A 1028   6.240   3.701   7.587 -0.1140  0.2990  0.0780
   45POPC   C4A 1029   5.949   3.404   7.597 -0.1073 -0.0190  0.1742
   45POPC   C1B 1030   6.260   4.398   8.100  0.0360  0.2299 -0.1129
   45POPC   C2B 1031   6.423   4.619   7.759 -0.1150  0.0589  0.1014
   45POPC   C3B 1032   6.426   4.841   7.423 -0.1343 -0.0922 -0.1493
   45POPC   C4B 1033   6.314   5.095   7.115  0.0481 -0.0471 -0.3505
   46POPC   NC3 1034   7.201   5.090   9.025  0.1093 -0.0181  0.3299
   46POPC   PO4 1035   7.451   4.933   8.743 -0.1871 -0.2575 -0.1039
   46POPC   GL1 1036   7.645   5.002   8.355  0.0582  0.0916  0.4299
   46POPC   GL2 1037   7.783   4.691   8.328 -0.0563  0.2856  0.1512
   46POPC   C1A 1038   7.395   5.051   7.883 -0.0077  0.1923  0.1068
   46POPC   D2A 1039   7.248   5.304   7.543 -0.2226  0.0561  0.1677
   46POPC   C3A 1040   7.422   5.656   7.288 -0.2659 -0.0507 -0.1616
   46POPC   C4A 1041   7.133   5.850   6.981 -0.2045 -0.1614  0.0591
   46POPC   C1B 1042   7.682   4.442   7.941 -0.0448 -0.3552  0.1622
   46POPC   C2B 1043   7.655   4.311   7.434 -0.3030  0.1395  0.1272
   46POPC   C3B 1044   7.460   3.985   7.230 -0.4671 -0.1163  0.1384
   46POPC   C4B 1045   7.543   3.752   6.811 -0.2383  0.1157  0.0728
   47POPC   NC3 1046   8.462   7.727   8.929 -0.1723 -0.3071 -0.1394
   47POPC   PO4 1047   8.638   7.861   8.568 -0.2243 -0.3244 -0.1354
   47POPC   GL1 1048   8.586   7.944   8.114  0.2121 -0.1660 -0.2317
   47POPC   GL2 1049   8.215   7.853   7.962 -0.1222  0.0570 -0.3163
   47POPC   C1A 1050   8.928   8.057   7.837 -0.1267 -0.1145  0.0812
   47POPC   D2A 1051   9.307   8.133   7.647 -0.0035 -0.1347 -0.1667
   47POPC   C3A 1052   9.248   8.633   7.577 -0.0618 -0.0834 -0.0392
   47POPC   C4A 1053   9.246   9.026   7.868 -0.0460 -0.2361 -0.1425
   47POPC   C1B 1054   8.107   7.794   7.553  0.2842 -0.1297  0.4555
   47POPC   C2B 1055   7.721   7.947   7.192 -0.1089  0.2216  0.3114
   47POPC   C3B 1056   7.417   7.972   6.953 -0.3339 -0.1950  0.1272
   47POPC   C4B 1057   7.332   8.219   6.738  0.0661 -0.2718 -0.1304
   48POPC   NC3 1058   0.572   1.359   8.312  0.2349 -0.2693  0.2659
   48POPC   PO4 1059   0.350   1.026   8.298 -0.2647 -0.0223 -0.1847
   48POPC   GL1 1060   0.521   0.990   7.880 -0.2505  0.0810  0.2295
   48POPC   GL2 1061   0.733   1.248   7.790 -0.0569 -0.3216  0.0961
   48POPC   C1A 1062   0.448   1.045   7.465 -0.2183  0.0497  0.0577
   48POPC   D2A 1063   0.431   1.392   7.209 -0.1831  0.2940 -0.1344
   48POPC   C3A 1064   0.369   1.806   7.009  0.1494  0.4824  0.0264
   48POPC   C4A 1065   0.310   2.207   7.143  0.4641 -0.0055  0.1843
   48POPC   C1B 1066   0.642   1.605   7.638 -0.2851 -0.3115  0.1131
   48POPC   C2B 1067   0.780   1.807   7.337  0.2629 -0.1615 -0.1659
   48POPC   C3B 1068   1.022   1.687   6.987  0.1115  0.0782 -0.2822
   48POPC   C4B 1069   1.150   1.855   6.588  0.1545  0.2927 -0.0696
   49POPC   NC3 1070   0.510   8.364   8.906  0.2033 -0.1689 -0.0668
   49POPC   PO4 1071   0.282   8.516   8.601  0.1715 -0.1732 -0.1269
   49POPC   GL1 1072   0.158   8.591   8.147  0.3071  0.3100  0.1541
   49POPC   GL2 1073   0.461   8.497   8.077 -0.2706  0.1031 -0.4829
   49POPC   C1A 1074   0.096   8.644   7.669 -0.1563 -0.1611  0.0642
   49POPC   D2A 1075   0.125   8.859   7.267  0.1800 -0.1235 -0.1464
   49POPC   C3A 1076  -0.224   9.041   7.085  0.3699  0.0703  0.2820
   49POPC   C4A 1077  -0.213   9.045   6.617 -0.0264 -0.1385 -0.2994
   49POPC   C1B 1078   0.645   8.534   7.720 -0.1206 -0.2672  0.1538
   49POPC   C2B 1079   0.546   8.456   7.280  0.0790 -0.0455 -0.0067
   49POPC   C3B 1080   0.887   8.531   6.996 -0.0749  0.1836  0.4981
   49POPC   C4B 1081   1.270   8.643   6.778 -0.0764 -0.1642  0.0800
   50POPC   NC3 1082   5.220   9.115   9.018 -0.0561 -0.2069 -0.1210
   50POPC   PO4 1083   5.560   8.977   8.957 -0.5450 -0.1049 -0.1310
   50POPC   GL1 1084   5.266   8.845   8.637  0.2237 -0.0941 -0.2107
   50POPC   GL2 1085   5.143   9.067   8.298 -0.2423 -0.3818 -0.0360
   50POPC   C1A 1086   5.026   8.350   8.645 -0.0796  0.1866  0.0303
   50POPC   D2A 1087   4.690   8.035   8.765 -0.2091  0.1549 -0.0992
   50POPC   C3A 1088   4.332   7.975   8.560  0.1201 -0.0802 -0.1728
   50POPC   C4A 1089   4.144   7.610   8.280 -0.1588  0.2118 -0.0047
   50POPC   C1B 1090   5.369   9.155   7.874  0.1118 -0.1010  0.4922
   50POPC   C2B 1091   5.360   9.229   7.384 -0.0480 -0.0937  0.0431
   50POPC   C3B 1092   5.241   9.122   6.984  0.1707 -0.1020 -0.0425
   50POPC   C4B 1093   5.632   9.156   6.626  0.1760 -0.0112  0.0670
   51POPC   NC3 1094   8.872   1.559   8.587 -0.3404  0.0972 -0.1648
   51POPC   PO4 1095   8.866   1.133   8.681 -0.3424 -0.1898  0.0375
   51POPC   GL1 1096   8.754   0.920   8.192  0.0549  0.1441  0.0821
   51POPC   GL2 1097   8.984   1.166   8.159  0.0225 -0.3652  0.0394
   51POPC   C1A 1098   8.898   0.775   7.842  0.1602 -0.2424 -0.1091
   51POPC   D2A 1099   9.048   0.674   7.542  0.5156 -0.3526  0.1596
   51POPC   C3A 1100   8.691   0.392   7.452  0.0339 -0.0291 -0.1571
   51POPC   C4A 1101   8.547   0.392   7.851  0.0722 -0.2676 -0.2439
   51POPC   C1B 1102   8.988   1.333   7.802 -0.1767  0.1837 -0.0957
   51POPC   C2B 1103   9.106   1.205   7.387 -0.3455  0.1038 -0.0183
   51POPC   C3B 1104   9.097   0.979   6.999  0.2034  0.0697  0.0268
   51POPC   C4B 1105   8.751   0.774   7.060  0.0585 -0.0451 -0.1324
   52POPC   NC3 1106   9.286   8.384   8.599  0.1256  0.2227 -0.1839
   52POPC   PO4 1107   9.783   8.426   8.589  0.1505 -0.1816 -0.1157
   52POPC   GL1 1108   9.847   8.464   8.195  0.0063 -0.0810  0.2132
   52POPC   GL2 1109   9.854   8.180   8.066 -0.0231 -0.2617  0.0707
   52POPC   C1A 1110  10.138   8.548   7.854 -0.0556 -0.1507 -0.1981
   52POPC   D2A 1111  10.134   8.749   7.476  0.1129  0.0445  0.2033
   52POPC   C3A 1112  10.190   8.573   7.166  0.0657 -0.1152 -0.1906
   52POPC   C4A 1113  10.456   8.568   6.776  0.1372 -0.0666 -0.1577
   52POPC   C1B 1114  10.006   8.033   7.697 -0.0892  0.0009 -0.3081
   52POPC   C2B 1115  10.025   8.053   7.200  0.3918 -0.2451 -0.0784
   52POPC   C3B 1116  10.069   8.164   6.765  0.3090 -0.1389 -0.2741
   52POPC   C4B 1117   9.726   8.242   6.354  0.0064  0.0726  0.0456
   53POPC   NC3 1118  10.131   0.815   8.819  0.1168  0.1560 -0.0150
   53POPC   PO4 1119   9.892   0.952   8.495 -0.0601 -0.2872 -0.0608
   53POPC   GL1 1120   9.886   0.829   8.029 -0.1445  0.1588 -0.5859
   53POPC   GL2 1121   9.752   0.501   8.042  0.0483 -0.0133 -0.0148
   53POPC   C1A 1122   9.977   0.833   7.640 -0.0979  0.1369 -0.1000
   53POPC   D2A 1123   9.931   0.623   7.223  0.1318  0.0458  0.2454
   53POPC   C3A 1124   9.860   0.268   6.916 -0.2514 -0.1351 -0.1168
   53POPC   C4A 1125   9.456   0.033   6.966  0.0152  0.2378  0.3075
   53POPC   C1B 1126   9.521   0.504   7.662 -0.1509 -0.1284 -0.2238
   53POPC   C2B 1127   9.458   0.554   7.273  0.5545  0.2675  0.0248
   53POPC   C3B 1128   9.535   0.856   6.900  0.1110 -0.2312  0.0925
   53POPC   C4B 1129   9.855   1.030   6.751 -0.1535 -0.0565 -0.1280
   54POPC   NC3 1130   9.387   5.545   8.487 -0.1861 -0.2511 -0.3280
   54POPC   PO4 1131   9.277   5.239   8.211 -0.2398  0.1677  0.1098
   54POPC   GL1 1132   9.234   5.021   7.890 -0.0461  0.0687 -0.3065
   54POPC   GL2 1133   9.338   4.762   7.980  0.1366  0.1491  0.0167
   54POPC   C1A 1134   9.484   5.062   7.486 -0.2151  0.0579  0.1583
   54POPC   D2A 1135   9.688   4.945   7.191  0.1605 -0.1345  0.3228
   54POPC   C3A 1136   9.995   4.773   6.960  0.1423 -0.2340 -0.0845
   54POPC   C4A 1137  10.322   4.922   6.833  0.1179 -0.1545 -0.3269
   54POPC   C1B 1138   9.407   4.514   7.666  0.2008  0.0253 -0.0984
   54POPC   C2B 1139   9.624   4.474   7.244 -0.2441  0.0388  0.2493
   54POPC   C3B 1140   9.870   4.108   7.113 -0.1116  0.5075  0.3083
   54POPC   C4B 1141  10.108   3.906   6.859 -0.0257 -0.2717 -0.0624
   55POPC   NC3 1142   3.592  10.028   9.197 -0.0311 -0.0100  0.0205
   55POPC   PO4 1143   3.276  10.166   8.870  0.2208  0.1062 -0.4921
   55POPC   GL1 1144   3.112  10.264   8.502 -0.0101  0.0569 -0.0150
   55POPC   GL2 1145   2.821  10.467   8.309 -0.1359  0.0750 -0.0059
   55POPC   C1A 1146   3.263  10.383   8.063  0.1528  0.1696  0.0511
   55POPC   D2A 1147   3.212  10.483   7.589  0.0665 -0.2256 -0.0280
   55POPC   C3A 1148   3.124  10.220   7.318 -0.0756  0.0482  0.0441
   55POPC   C4A 1149   3.151  10.074   6.907 -0.1704  0.2242 -0.0291
   55POPC   C1B 1150   2.632  10.525   7.900 -0.0367  0.3006 -0.3992
   55POPC   C2B 1151   2.546  10.225   7.478 -0.1825 -0.0323  0.3407
   55POPC   C3B 1152   2.700   9.919   7.220 -0.1281  0.1558 -0.1768
   55POPC   C4B 1153   2.917   9.629   7.043  0.2279  0.1813  0.0207
   56POPC   NC3 1154   1.175   4.573   9.597 -0.0708 -0.0150 -0.0381
   56POPC   PO4 1155   0.962   4.397   9.155 -0.2066 -0.0883 -0.1564
   56POPC   GL1 1156   1.032   4.675   8.735  0.1942 -0.2472 -0.0187
   56POPC   GL2 1157   1.315   4.688   8.684 -0.1985 -0.2044  0.1050
   56POPC   C1A 1158   0.941   4.946   8.396  0.0386  0.1228  0.1486
   56POPC   D2A 1159   0.748   5.298   8.086 -0.1292  0.4034  0.0707
   56POPC   C3A 1160   0.898   5.543   7.806 -0.0562  0.1164  0.2037
   56POPC   C4A 1161   1.196   5.648   7.437  0.0192 -0.2041 -0.4819
   56POPC   C1B 1162   1.247   4.374   8.264  0.1217 -0.2644 -0.0209
   56POPC   C2B 1163   1.235   4.466   7.791 -0.1006  0.1648  0.1576
   56POPC   C3B 1164   1.241   4.697   7.449 -0.1023  0.2293  0.1273
   56POPC   C4B 1165   1.163   4.501   7.029  0.1173 -0.4125 -0.1953
   57POPC   NC3 1166   6.101   8.632   9.025 -0.0439  0.1253  0.0585
   57POPC   PO4 1167   6.603   8.628   8.883 -0.1950 -0.0258  0.1728
   57POPC   GL1 1168   6.341   8.658   8.524  0.1144  0.1278  0.0656
   57POPC   GL2 1169   6.390   8.301   8.281  0.1344  0.0031 -0.2388
   57POPC   C1A 1170   6.216   8.824   8.113  0.1563  0.1135 -0.2787
   57POPC   D2A 1171   5.945   8.953   7.720 -0.1514  0.0598 -0.0443
   57POPC   C3A 1172   5.963   8.820   7.242  0.1665 -0.0603 -0.1641
   57POPC   C4A 1173   5.644   8.835   7.041  0.3435 -0.2732  0.1868
   57POPC   C1B 1174   6.317   8.326   7.882 -0.2970 -0.0495 -0.0313
   57POPC   C2B 1175   6.275   8.534   7.465 -0.1226  0.2637  0.4893
   57POPC   C3B 1176   6.248   8.496   6.950  0.1722  0.2989 -0.1467
   57POPC   C4B 1177   6.374   8.602   6.524 -0.2954 -0.2733  0.0557
   58POPC   NC3 1178   5.244   5.880   9.495 -0.0398 -0.2054 -0.2748
   58POPC   PO4 1179   5.404   6.334   9.618  0.2502 -0.0763  0.0426
   58POPC   GL1 1180   5.135   6.296   9.267 -0.1193  0.3270  0.2543
   58POPC   GL2 1181   5.351   6.401   8.975  0.3064  0.0407  0.0165
   58POPC   C1A 1182   4.983   6.023   8.931 -0.1081 -0.0429 -0.2167
   58POPC   D2A 1183   5.328   5.978   8.657  0.1677  0.0583 -0.2053
   58POPC   C3A 1184   5.280   6.107   8.179 -0.1106  0.0473  0.2265
   58POPC   C4A 1185   4.999   5.976   7.897  0.0490  0.1278 -0.0845
   58POPC   C1B 1186   5.395   6.477   8.464  0.1259 -0.0799  0.1165
   58POPC   C2B 1187   5.119   6.542   8.070 -0.0191  0.2036  0.1963
   58POPC   C3B 1188   4.957   6.858   7.862 -0.1227  0.1481 -0.1156
   58POPC   C4B 1189   4.736   7.088   7.617 -0.0403  0.2957  0.0543
   59POPC   NC3 1190   1.602   7.982   8.915 -0.3382 -0.1028  0.1173
   59POPC   PO4 1191   1.909   8.285   9.196 -0.2592  0.3258  0.0259
   59POPC   GL1 1192   2.176   8.131   8.912  0.1117 -0.1417  0.1436
   59POPC   GL2 1193   2.052   7.818   8.745  0.1490 -0.1038 -0.2201
   59POPC   C1A 1194   2.467   8.120   8.665  0.2589 -0.0438  0.0473
   59POPC   D2A 1195   2.728   7.883   8.296  0.0199 -0.1214 -0.0193
   59POPC   C3A 1196   2.975   7.695   7.995  0.3432 -0.1801  0.0249
   59POPC   C4A 1197   3.022   7.754   7.580  0.1787  0.1660 -0.2727
   59POPC   C1B 1198   2.312   7.628   8.368  0.1714  0.0758 -0.1140
   59POPC   C2B 1199   2.324   7.722   7.842  0.4175  0.0116 -0.3264
   59POPC   C3B 1200   2.124   7.564   7.535  0.1755  0.3091 -0.1341
   59POPC   C4B 1201   1.665   7.814   7.387 -0.0640  0.1004 -0.0617
   60POPC   NC3 1202   8.302   0.860   8.528  0.1895 -0.0356 -0.2885
   60POPC   PO4 1203   7.951   0.505   8.521  0.0112  0.1580 -0.2500
   60POPC   GL1 1204   8.015   0.610   8.159 -0.1571  0.2285  0.0137
   60POPC   GL2 1205   7.744   0.876   8.132  0.1089 -0.0820 -0.1822
   60POPC   C1A 1206   8.174   0.710   7.809  0.1503 -0.1780 -0.0353
   60POPC   D2A 1207   8.209   0.750   7.333  0.1177 -0.1045 -0.0449
   60POPC   C3A 1208   7.873   1.091   7.106  0.1259  0.1188  0.0124
   60POPC   C4A 1209   7.920   1.328   6.862 -0.2715 -0.2927  0.1625
   60POPC   C1B 1210   7.703   0.643   7.715 -0.0473  0.0418  0.2177
   60POPC   C2B 1211   7.694   0.639   7.182  0.0015  0.0265  0.0492
   60POPC   C3B 1212   7.514   0.570   6.767 -0.0887  0.2591 -0.0572
   60POPC   C4B 1213   7.401   0.171   6.527  0.2068  0.0893 -0.0053
   61POPC   NC3 1214   5.908   6.474   9.052 -0.1898  0.1113  0.2648
   61POPC   PO4 1215   5.815   6.098   8.817  0.2740 -0.1206  0.0118
   61POPC   GL1 1216   5.794   6.081   8.534  0.0228  0.2040 -0.0162
   61POPC   GL2 1217   5.996   6.430   8.554 -0.0326 -0.2197 -0.0726
   61POPC   C1A 1218   5.781   5.982   8.059  0.2809  0.0801 -0.2435
   61POPC   D2A 1219   5.559   6.060   7.721 -0.1110 -0.0400 -0.1112
   61POPC   C3A 1220   5.689   6.206   7.328 -0.1329  0.0474  0.0371
   61POPC   C4A 1221   5.648   6.090   6.859  0.3176 -0.1108 -0.0976
   61POPC   C1B 1222   5.733   6.488   8.154  0.1820 -0.0468  0.0323
   61POPC   C2B 1223   5.792   6.515   7.709  0.0647 -0.0225  0.1531
   61POPC   C3B 1224   6.150   6.538   7.547 -0.5120 -0.0400 -0.1063
   61POPC   C4B 1225   6.513   6.810   7.793 -0.1201 -0.0099  0.1019
   62POPC   NC3 1226   0.612   0.709   8.754 -0.0192  0.1279 -0.0194
   62POPC   PO4 1227   0.595   0.459   8.499 -0.2276 -0.0232  0.1529
   62POPC   GL1 1228   0.594   0.509   8.151 -0.0982 -0.0358 -0.0439
   62POPC   GL2 1229   0.816   0.367   7.868  0.1420 -0.1694  0.1769
   62POPC   C1A 1230   0.450   0.513   7.621 -0.0801 -0.3553 -0.1309
   62POPC   D2A 1231   0.567   0.452   7.144  0.0779 -0.1327  0.0490
   62POPC   C3A 1232   0.923   0.367   6.960  0.1225  0.1708  0.3592
   62POPC   C4A 1233   1.071   0.077   6.699 -0.0151 -0.1393  0.0107
   62POPC   C1B 1234   1.069   0.193   7.458  0.0631  0.1732  0.1411
   62POPC   C2B 1235   1.082  -0.206   7.285  0.0315 -0.2379 -0.1137
   62POPC   C3B 1236   1.071  -0.375   6.898  0.1359 -0.0892  0.1249
   62POPC   C4B 1237   1.335  -0.559   6.523 -0.3667 -0.2301  0.4293
   63POPC   NC3 1238   5.919   5.636   9.053  0.1245  0.0782  0.2790
   63POPC   PO4 1239   6.179   5.208   9.092  0.0251 -0.2975 -0.0462
   63POPC   GL1 1240   6.354   4.878   8.771  0.1676  0.0990  0.1821
   63POPC   GL2 1241   6.298   4.670   8.748 -0.5960  0.0966 -0.4300
   63POPC   C1A 1242   6.575   4.790   8.337  0.1044  0.1339 -0.0649
   63POPC   D2A 1243   6.514   5.054   7.969 -0.0383 -0.4803  0.2173
   63POPC   C3A 1244   6.210   5.272   7.658  0.3873  0.1424  0.0789
   63POPC   C4A 1245   5.934   5.232   7.389  0.0453  0.0032 -0.2683
   63POPC   C1B 1246   6.085   4.776   8.357  0.1003 -0.1338  0.1183
   63POPC   C2B 1247   5.657   4.888   8.260  0.3709 -0.3490  0.0691
   63POPC   C3B 1248   5.427   5.072   8.505 -0.1002 -0.3535  0.2057
   63POPC   C4B 1249   5.040   5.287   8.490 -0.1111 -0.2587  0.2403
   64POPC   NC3 1250   8.356   5.335   8.863  0.0304 -0.0339 -0.1194
   64POPC   PO4 1251   8.427   5.127   8.572  0.2093  0.4765  0.3071
   64POPC   GL1 1252   8.219   5.094   8.271  0.1893 -0.0945  0.0189
   64POPC   GL2 1253   8.424   5.041   8.052 -0.4044 -0.1524 -0.3685
   64POPC   C1A 1254   7.955   5.059   7.949  0.3904 -0.1513  0.1249
   64POPC   D2A 1255   7.770   4.808   7.590 -0.2577 -0.0378  0.0626
   64POPC   C3A 1256   7.614   5.108   7.316 -0.2271  0.2789 -0.1643
   64POPC   C4A 1257   7.390   5.285   6.961  0.0833 -0.1376 -0.0637
   64POPC   C1B 1258   8.705   4.699   7.777 -0.0599  0.2967  0.2436
   64POPC   C2B 1259   9.002   4.724   7.499  0.1860  0.4652  0.0462
   64POPC   C3B 1260   9.112   4.387   7.225 -0.0114 -0.0712  0.0092
   64POPC   C4B 1261   9.381   4.081   7.213 -0.0767 -0.0335 -0.0179
   65POPC   NC3 1262   7.518   8.543   8.772 -0.0202  0.1942 -0.1222
   65POPC   PO4 1263   7.633   8.931   8.651 -0.2008 -0.3112  0.0232
   65POPC   GL1 1264   7.771   9.057   8.181  0.3219  0.0355  0.1426
   65POPC   GL2 1265   7.604   9.262   7.965 -0.1084 -0.1644 -0.0712
   65POPC   C1A 1266   7.903   8.838   7.895  0.2798  0.0166 -0.1622
   65POPC   D2A 1267   7.721   8.720   7.596 -0.0957 -0.1218  0.2105
   65POPC   C3A 1268   7.299   8.711   7.656 -0.0156  0.1704  0.0437
   65POPC   C4A 1269   7.077   8.490   7.304  0.0108  0.1170 -0.3838
   65POPC   C1B 1270   7.420   9.181   7.550  0.1882 -0.0416 -0.2723
   65POPC   C2B 1271   7.284   8.950   7.221  0.1195 -0.0676  0.2358
   65POPC   C3B 1272   7.396   8.818   6.806  0.1201 -0.2812 -0.0307
   65POPC   C4B 1273   7.637   9.062   6.455  0.0109  0.0290  0.1368
   66POPC   NC3 1274   2.375   1.386   8.886  0.0654 -0.0405  0.2132
   66POPC   PO4 1275   2.408   1.121   8.644 -0.3438 -0.2326  0.0860
   66POPC   GL1 1276   2.558   1.118   8.160 -0.1982 -0.1901 -0.1328
   66POPC   GL2 1277   2.541   0.853   8.039 -0.0039 -0.0855 -0.1817
   66POPC   C1A 1278   2.754   1.400   7.958  0.0838  0.0854 -0.0419
   66POPC   D2A 1279   2.939   1.569   7.615  0.1248  0.0300  0.2042
   66POPC   C3A 1280   3.258   1.510   7.292 -0.0283  0.0612  0.0145
   66POPC   C4A 1281   3.459   1.647   6.814 -0.1853 -0.1808  0.2670
   66POPC   C1B 1282   2.593   0.629   7.675 -0.3825 -0.1516 -0.1257
   66POPC   C2B 1283   2.505   0.513   7.286 -0.4310 -0.2944  0.1419
   66POPC   C3B 1284   2.857   0.668   7.030 -0.1616 -0.2499  0.1882
   66POPC   C4B 1285   2.761   0.550   6.497  0.1265  0.1393  0.1197
   67POPC   NC3 1286   5.088   4.172   9.057  0.1136  0.0652  0.0650
   67POPC   PO4 1287   4.890   4.457   9.292  0.0351 -0.0230 -0.0031
   67POPC   GL1 1288   4.637   4.743   9.186 -0.5069 -0.1088  0.0821
   67POPC   GL2 1289   4.406   4.642   8.921 -0.2647 -0.0586 -0.2789
   67POPC   C1A 1290   4.631   5.075   8.801 -0.0085  0.1470  0.0863
   67POPC   D2A 1291   4.591   5.341   8.387 -0.3321  0.1051 -0.2184
   67POPC   C3A 1292   4.771   5.564   8.102 -0.0170 -0.0923  0.2186
   67POPC   C4A 1293   5.143   5.417   7.928 -0.4342 -0.2025 -0.0518
   67POPC   C1B 1294   4.252   4.524   8.552  0.0666  0.2779 -0.0993
   67POPC   C2B 1295   4.282   4.380   8.172 -0.0041  0.2402 -0.1859
   67POPC   C3B 1296   4.314   4.049   7.864 -0.1598 -0.0993  0.0436
   67POPC   C4B 1297   4.455   4.086   7.384 -0.0838  0.1868  0.3263
   68POPC   NC3 1298   2.390   8.191   9.369  0.1679 -0.1674 -0.2152
   68POPC   PO4 1299   2.787   8.276   9.358  0.0638 -0.1036 -0.1764
   68POPC   GL1 1300   2.862   8.275   8.958 -0.0172 -0.1421 -0.1317
   68POPC   GL2 1301   2.905   7.982   8.890 -0.1468 -0.0954 -0.3043
   68POPC   C1A 1302   2.795   8.392   8.436  0.3436 -0.1214 -0.0027
   68POPC   D2A 1303   2.873   8.257   8.019 -0.1174 -0.0468  0.3996
   68POPC   C3A 1304   3.278   8.087   7.828 -0.3438 -0.1084 -0.0424
   68POPC   C4A 1305   3.572   7.815   7.872 -0.0038  0.2849 -0.1692
   68POPC   C1B 1306   3.116   8.005   8.589  0.1192 -0.1573 -0.1722
   68POPC   C2B 1307   3.635   7.809   8.374  0.0199  0.0792 -0.2727
   68POPC   C3B 1308   3.614   7.395   8.070  0.0117 -0.3007  0.0534
   68POPC   C4B 1309   3.322   7.400   7.736 -0.1465  0.0886  0.2876
   69POPC   NC3 1310   2.127   0.246   8.501 -0.2124  0.0172  0.1361
   69POPC   PO4 1311   2.384   0.054   8.702  0.2003 -0.0747  0.1726
   69POPC   GL1 1312   2.374  -0.296   8.437 -0.2083 -0.0485  0.2612
   69POPC   GL2 1313   2.204  -0.202   8.233 -0.2356 -0.0529  0.0501
   69POPC   C1A 1314   2.688  -0.392   8.056 -0.3001  0.0841 -0.1584
   69POPC   D2A 1315   2.976  -0.411   7.771 -0.0880  0.1414  0.2730
   69POPC   C3A 1316   3.025  -0.763   7.556  0.0485  0.1399 -0.0259
   69POPC   C4A 1317   3.197  -1.111   7.772 -0.0555 -0.1668  0.0760
   69POPC   C1B 1318   2.172  -0.207   7.801 -0.0341 -0.1524  0.0427
   69POPC   C2B 1319   2.035  -0.353   7.465 -0.0190 -0.0637  0.2591
   69POPC   C3B 1320   2.171  -0.530   7.075 -0.1484  0.1750 -0.1621
   69POPC   C4B 1321   2.514  -0.695   6.748  0.3429  0.3373  0.1006
   70POPC   NC3 1322   0.445   8.966   8.382  0.2336  0.0185  0.1285
   70POPC   PO4 1323   0.286   9.192   8.721  0.1113  0.2305 -0.1136
   70POPC   GL1 1324  -0.063   9.225   8.450  0.1051  0.1527 -0.0536
   70POPC   GL2 1325  -0.370   9.144   8.460 -0.1133  0.4098 -0.1708
   70POPC   C1A 1326  -0.224   9.460   8.042  0.2821  0.1760  0.1891
   70POPC   D2A 1327  -0.265   9.670   7.688  0.2149  0.0407  0.0243
   70POPC   C3A 1328  -0.411  10.099   7.618 -0.0261  0.2188  0.3150
   70POPC   C4A 1329  -0.241  10.412   7.426 -0.1091 -0.2789  0.0581
   70POPC   C1B 1330  -0.202   8.970   8.033 -0.0001 -0.1914 -0.1000
   70POPC   C2B 1331  -0.061   9.136   7.662  0.0129 -0.6234 -0.1587
   70POPC   C3B 1332  -0.084   9.427   7.308  0.1538  0.1268 -0.0591
   70POPC   C4B 1333   0.275   9.615   7.043 -0.1838 -0.0137 -0.2185
   71POPC   NC3 1334   4.245   6.727   9.964  0.1702 -0.0629  0.1475
   71POPC   PO4 1335   4.563   7.077   9.705  0.1081  0.1132  0.1067
   71POPC   GL1 1336   4.159   6.898   9.519  0.0468  0.5105 -0.2179
   71POPC   GL2 1337   4.316   7.012   9.185  0.0264  0.1143  0.2895
   71POPC   C1A 1338   3.825   6.820   9.333 -0.2101  0.0666 -0.0139
   71POPC   D2A 1339   3.421   6.724   9.321 -0.0527  0.0622  0.0525
   71POPC   C3A 1340   3.244   6.303   9.209  0.0588 -0.2210  0.0431
   71POPC   C4A 1341   2.911   6.021   9.124 -0.0338 -0.1541 -0.0614
   71POPC   C1B 1342   4.442   6.798   8.738 -0.1729 -0.1055 -0.0588
   71POPC   C2B 1343   4.823   6.618   8.520  0.0557 -0.0418 -0.0948
   71POPC   C3B 1344   5.217   6.910   8.327  0.1680 -0.0405  0.3329
   71POPC   C4B 1345   5.467   6.873   7.913 -0.2814 -0.0909  0.0722
   72POPC   NC3 1346   2.606   2.428   8.682  0.1970 -0.3964 -0.0496
   72POPC   PO4 1347   2.959   2.065   8.517  0.0209  0.1138  0.1336
   72POPC   GL1 1348   3.199   2.328   8.232 -0.0721  0.2081  0.1108
   72POPC   GL2 1349   2.815   2.456   8.191  0.0645  0.0005 -0.1278
   72POPC   C1A 1350   3.474   2.459   7.868  0.4213  0.1787 -0.6101
   72POPC   D2A 1351   3.844   2.665   7.853  0.0685 -0.0295 -0.1795
   72POPC   C3A 1352   3.855   3.049   7.576  0.2509  0.4268 -0.2670
   72POPC   C4A 1353   3.958   3.261   7.238 -0.0658  0.0991  0.2608
   72POPC   C1B 1354   2.874   2.301   7.743  0.0883  0.0145  0.2702
   72POPC   C2B 1355   2.907   1.990   7.373  0.1616 -0.1641 -0.1184
   72POPC   C3B 1356   2.530   1.946   6.990  0.1086 -0.1696  0.0449
   72POPC   C4B 1357   2.091   1.984   6.959  0.1924 -0.1583  0.0293
   73POPC   NC3 1358   8.773   0.306   8.842 -0.2901  0.2292  0.3586
   73POPC   PO4 1359   8.450   0.421   8.621 -0.0032 -0.1607  0.2463
   73POPC   GL1 1360   8.215   0.173   8.214 -0.0219  0.0633 -0.2248
   73POPC   GL2 1361   8.512  -0.067   8.088  0.0275  0.1124 -0.3659
   73POPC   C1A 1362   8.035   0.158   7.743  0.0176  0.2349  0.2967
   73POPC   D2A 1363   7.959   0.233   7.285 -0.1566  0.0171 -0.0469
   73POPC   C3A 1364   8.181   0.450   6.875  0.0848  0.4045 -0.0629
   73POPC   C4A 1365   8.414   0.656   6.568  0.2255 -0.4812 -0.1867
   73POPC   C1B 1366   8.746  -0.172   7.797  0.5822  0.0367 -0.0069
   73POPC   C2B 1367   8.614  -0.156   7.419  0.3163  0.1517 -0.1208
   73POPC   C3B 1368   8.533   0.088   6.973 -0.1465 -0.2732  0.1004
   73POPC   C4B 1369   8.774  -0.038   6.546 -0.1474 -0.1787 -0.0441
   74POPC   NC3 1370   9.316   1.222   8.534 -0.0778 -0.1983  0.0028
   74POPC   PO4 1371   9.323   1.762   8.433  0.0105 -0.3183 -0.1406
   74POPC   GL1 1372   9.360   1.475   8.098 -0.1090  0.2439  0.0792
   74POPC   GL2 1373   9.639   1.222   8.122  0.1568 -0.0656 -0.1246
   74POPC   C1A 1374   9.520   1.452   7.708  0.0804  0.1686  0.0688
   74POPC   D2A 1375   9.877   1.526   7.295 -0.0490  0.1132  0.2778
   74POPC   C3A 1376   9.980   1.895   7.088 -0.1173 -0.3438 -0.2681
   74POPC   C4A 1377  10.294   2.058   6.923 -0.2428  0.2656 -0.0174
   74POPC   C1B 1378   9.428   0.963   7.752 -0.0051  0.0567 -0.2524
   74POPC   C2B 1379   9.572   1.009   7.377  0.1092 -0.3976 -0.0056
   74POPC   C3B 1380   9.529   1.306   7.090  0.3992  0.1335  0.0385
   74POPC   C4B 1381   9.161   1.487   6.801  0.0082  0.2038 -0.3169
   75POPC   NC3 1382   4.095   3.173   9.061  0.1358  0.1304  0.2206
   75POPC   PO4 1383   3.615   3.295   9.074 -0.1208 -0.0300  0.1400
   75POPC   GL1 1384   3.795   3.625   8.818 -0.1874  0.0234  0.0834
   75POPC   GL2 1385   3.695   3.834   8.930  0.1208 -0.2218 -0.0681
   75POPC   C1A 1386   3.626   3.625   8.400 -0.2978  0.2660  0.1177
   75POPC   D2A 1387   3.821   3.309   8.126 -0.1330 -0.4283 -0.0041
   75POPC   C3A 1388   3.503   3.058   7.973 -0.1366  0.1060  0.3663
   75POPC   C4A 1389   3.205   2.849   8.017  0.3514 -0.2856  0.2270
   75POPC   C1B 1390   3.425   4.027   8.701  0.1057 -0.0067  0.1307
   75POPC   C2B 1391   3.407   4.288   8.318  0.0880 -0.3115  0.0638
   75POPC   C3B 1392   3.491   4.692   7.988 -0.0494 -0.2680  0.0782
   75POPC   C4B 1393   3.704   5.048   8.002  0.0702 -0.1448 -0.1938
   76POPC   NC3 1394   1.013   2.976   9.102  0.1549  0.1009 -0.0688
   76POPC   PO4 1395   1.152   3.038   8.698  0.1577  0.1190 -0.2423
   76POPC   GL1 1396   1.428   2.961   8.317 -0.0903 -0.1964  0.0510
   76POPC   GL2 1397   1.335   2.689   8.290 -0.5027  0.2028 -0.0349
   76POPC   C1A 1398   1.737   3.178   8.053  0.0056 -0.1292 -0.1239
   76POPC   D2A 1399   1.779   3.144   7.663  0.1026  0.2336  0.1273
   76POPC   C3A 1400   2.049   3.438   7.440  0.0377 -0.3915  0.2099
   76POPC   C4A 1401   2.278   3.665   7.116 -0.1869 -0.0398  0.1027
   76POPC   C1B 1402   1.406   2.802   7.827 -0.0708  0.0503 -0.2057
   76POPC   C2B 1403   1.617   2.763   7.447 -0.2226  0.2644  0.0523
   76POPC   C3B 1404   1.680   3.068   7.138 -0.0052 -0.0761 -0.0110
   76POPC   C4B 1405   1.723   3.585   6.906 -0.3095 -0.0443 -0.1413
   77POPC   NC3 1406  10.415   7.293   9.254  0.0434 -0.1102 -0.2276
   77POPC   PO4 1407  10.563   7.189   8.824 -0.3181  0.1028  0.4350
   77POPC   GL1 1408  10.735   7.294   8.480 -0.0712  0.1078  0.3304
   77POPC   GL2 1409  10.620   7.571   8.283 -0.0108 -0.0284  0.0063
   77POPC   C1A 1410  11.163   7.373   8.258  0.3308  0.0310 -0.1741
   77POPC   D2A 1411  11.281   7.176   7.845  0.1451 -0.0746 -0.0222
   77POPC   C3A 1412  11.087   7.413   7.550  0.0801  0.1234 -0.4026
   77POPC   C4A 1413  11.228   7.396   7.120  0.0814 -0.0735 -0.3067
   77POPC   C1B 1414  10.891   7.634   7.909  0.0110 -0.2247 -0.2393
   77POPC   C2B 1415  10.974   7.930   7.500  0.1233 -0.0723 -0.1707
   77POPC   C3B 1416  11.253   7.916   7.147 -0.2684 -0.0738  0.1525
   77POPC   C4B 1417  11.272   7.769   6.705  0.1569  0.0632 -0.2460
   78POPC   NC3 1418   2.131   8.996   8.699 -0.2127 -0.2391  0.0228
   78POPC   PO4 1419   1.936   8.692   8.840  0.0952  0.1719  0.1082
   78POPC   GL1 1420   1.793   8.550   8.516 -0.2461  0.1311  0.0264
   78POPC   GL2 1421   1.871   8.225   8.542 -0.3275  0.1110  0.2123
   78POPC   C1A 1422   1.877   8.480   8.084 -0.2441  0.4786 -0.1345
   78POPC   D2A 1423   2.142   8.356   7.683 -0.0059 -0.2832  0.3281
   78POPC   C3A 1424   2.506   8.204   7.736 -0.1118 -0.0089  0.1642
   78POPC   C4A 1425   2.831   8.235   7.456  0.2059 -0.1710  0.0208
   78POPC   C1B 1426   1.741   7.989   8.256  0.2711  0.0906  0.0592
   78POPC   C2B 1427   1.860   7.577   8.195 -0.2901 -0.1836 -0.0777
   78POPC   C3B 1428   2.033   7.279   8.003  0.1518 -0.5398 -0.0022
   78POPC   C4B 1429   2.335   6.986   8.168  0.1706  0.2554  0.0825
   79POPC   NC3 1430   8.071   6.783   9.331  0.2376 -0.1102  0.3150
   79POPC   PO4 1431   7.874   6.756   8.945 -0.0113  0.3194 -0.0773
   79POPC   GL1 1432   7.772   6.456   8.581  0.2561  0.3927  0.1101
   79POPC   GL2 1433   8.027   6.532   8.408 -0.2244  0.2245 -0.1376
   79POPC   C1A 1434   7.649   6.140   8.222  0.0595 -0.0897 -0.1295
   79POPC   D2A 1435   7.286   6.134   8.048  0.2003 -0.0140 -0.3490
   79POPC   C3A 1436   7.022   6.477   7.983 -0.3351  0.0370  0.3028
   79POPC   C4A 1437   6.789   6.766   8.274 -0.1332 -0.1161  0.0093
   79POPC   C1B 1438   8.090   6.331   8.060  0.0678 -0.0665 -0.0569
   79POPC   C2B 1439   8.083   6.320   7.654 -0.0566 -0.1642  0.1318
   79POPC   C3B 1440   8.203   6.301   7.171 -0.2447  0.1286 -0.1916
   79POPC   C4B 1441   8.536   6.137   6.964  0.1980 -0.1194 -0.2080
   80POPC   NC3 1442   6.654   0.999   8.599  0.0727  0.3475 -0.1036
   80POPC   PO4 1443   6.965   0.729   8.624 -0.2333 -0.2315  0.2457
   80POPC   GL1 1444   6.928   0.776   8.260 -0.4347 -0.2567  0.1656
   80POPC   GL2 1445   6.528   0.912   8.119  0.0493  0.0304 -0.2503
   80POPC   C1A 1446   7.203   0.857   7.861  0.0056 -0.2485 -0.3707
   80POPC   D2A 1447   7.360   1.247   7.788 -0.0016 -0.0505  0.1433
   80POPC   C3A 1448   7.727   1.211   7.632 -0.0162  0.0594  0.1862
   80POPC   C4A 1449   8.158   1.194   7.531 -0.0815 -0.3629  0.1192
   80POPC   C1B 1450   6.750   1.190   7.899 -0.1737  0.2194  0.3844
   80POPC   C2B 1451   6.994   1.211   7.499 -0.2864  0.2552 -0.0788
   80POPC   C3B 1452   7.027   1.202   7.027  0.0958  0.1838  0.0088
   80POPC   C4B 1453   7.387   1.097   6.711  0.0107 -0.0993  0.0352
   81POPC   NC3 1454   6.305   1.921   9.185  0.0455  0.0602 -0.0310
   81POPC   PO4 1455   5.916   1.641   9.058 -0.0368  0.2185  0.0748
   81POPC   GL1 1456   5.888   1.581   8.633 -0.0451 -0.1698  0.0403
   81POPC   GL2 1457   5.649   1.426   8.484 -0.0847  0.1544  0.0986
   81POPC   C1A 1458   6.035   1.607   8.156 -0.2154 -0.2054 -0.3426
   81POPC   D2A 1459   6.350   1.570   7.814  0.1086 -0.0528  0.1202
   81POPC   C3A 1460   6.355   1.350   7.448 -0.1678 -0.0073 -0.4295
   81POPC   C4A 1461   6.186   0.978   7.196  0.2313 -0.0199 -0.0063
   81POPC   C1B 1462   5.466   1.595   8.087  0.0162  0.2345 -0.2001
   81POPC   C2B 1463   5.260   1.893   7.813 -0.1312 -0.4042  0.2345
   81POPC   C3B 1464   5.118   2.316   7.554 -0.2297 -0.1251  0.1636
   81POPC   C4B 1465   4.990   2.402   7.156 -0.1328  0.0039 -0.4322
   82POPC   NC3 1466   4.112   3.915   9.320 -0.0277 -0.1434  0.0904
   82POPC   PO4 1467   4.449   3.493   9.337 -0.1461 -0.0621 -0.0251
   82POPC   GL1 1468   4.300   3.642   8.939  0.1162  0.4568 -0.0677
   82POPC   GL2 1469   4.438   3.358   8.713  0.2143 -0.2386  0.0855
   82POPC   C1A 1470   4.320   3.898   8.599 -0.2619 -0.0613 -0.2092
   82POPC   D2A 1471   4.656   4.269   8.471  0.0499 -0.3433  0.0067
   82POPC   C3A 1472   4.941   4.230   8.119 -0.0768  0.0233  0.1711
   82POPC   C4A 1473   4.904   4.184   7.708 -0.1577 -0.0619 -0.1215
   82POPC   C1B 1474   4.121   3.483   8.477  0.0449 -0.4444  0.2053
   82POPC   C2B 1475   4.025   3.758   8.110  0.1447 -0.1889 -0.0568
   82POPC   C3B 1476   4.186   3.559   7.722 -0.1638  0.0483  0.0599
   82POPC   C4B 1477   4.506   3.592   7.508 -0.0144  0.0197 -0.0764
   83POPC   NC3 1478   4.945   2.236   9.742 -0.1235  0.2056 -0.1491
   83POPC   PO4 1479   5.040   2.238   9.312  0.1983  0.2468  0.0730
   83POPC   GL1 1480   5.238   2.183   8.843  0.1489  0.1764 -0.0743
   83POPC   GL2 1481   5.549   1.884   8.815  0.2484 -0.0065 -0.2952
   83POPC   C1A 1482   5.363   2.483   8.614  0.0678 -0.1104 -0.2287
   83POPC   D2A 1483   5.652   2.510   8.299  0.0370  0.3187 -0.2241
   83POPC   C3A 1484   5.539   2.578   7.949 -0.2185 -0.1772  0.0782
   83POPC   C4A 1485   5.406   2.738   7.503  0.3978 -0.0955 -0.0379
   83POPC   C1B 1486   5.423   1.999   8.392 -0.0565  0.0364 -0.3759
   83POPC   C2B 1487   5.197   2.285   8.139 -0.0084 -0.0339 -0.2066
   83POPC   C3B 1488   4.911   2.599   7.921 -0.1015 -0.1566  0.2003
   83POPC   C4B 1489   4.666   2.528   7.513  0.2083  0.0917  0.2784
   84POPC   NC3 1490   0.910   0.010   8.495  0.2641 -0.1815  0.0022
   84POPC   PO4 1491   1.313  -0.102   8.638 -0.0193  0.0558 -0.3376
   84POPC   GL1 1492   1.293  -0.262   8.220 -0.1152 -0.2060 -0.2035
   84POPC   GL2 1493   1.253  -0.617   8.063  0.0912  0.1872 -0.1437
   84POPC   C1A 1494   1.015  -0.146   7.854  0.0064 -0.3133  0.3333
   84POPC   D2A 1495   0.654  -0.117   7.592  0.2270 -0.1009 -0.2538
   84POPC   C3A 1496   0.566  -0.415   7.333  0.3481  0.3814  0.0558
   84POPC   C4A 1497   0.614  -0.504   6.885  0.0941 -0.1234  0.0617
   84POPC   C1B 1498   1.226  -0.602   7.627  0.1512  0.1182 -0.1816
   84POPC   C2B 1499   0.948  -0.737   7.230  0.3491  0.2819 -0.2574
   84POPC   C3B 1500   0.987  -0.894   6.804  0.0033  0.1325 -0.1134
   84POPC   C4B 1501   1.143  -1.101   6.460 -0.0433 -0.0698 -0.0260
   85POPC   NC3 1502   1.814   9.123   9.073 -0.2911  0.2003  0.2727
   85POPC   PO4 1503   1.787   9.367   8.695  0.0259  0.3721  0.1380
   85POPC   GL1 1504   1.884   9.546   8.300  0.0916  0.2781 -0.1634
   85POPC   GL2 1505   1.785   9.924   8.211 -0.2185 -0.1130 -0.0217
   85POPC   C1A 1506   2.225   9.749   8.036 -0.0951  0.0500 -0.1095
   85POPC   D2A 1507   2.451   9.805   7.684  0.3060  0.2531  0.3780
   85POPC   C3A 1508   2.563   9.479   7.546  0.0917 -0.1524  0.2226
   85POPC   C4A 1509   2.824   9.211   7.442 -0.1861  0.0378  0.0549
   85POPC   C1B 1510   1.818   9.823   7.744 -0.0814 -0.0737  0.1736
   85POPC   C2B 1511   1.932   9.578   7.308 -0.1085 -0.1670 -0.1072
   85POPC   C3B 1512   1.866   9.178   6.967 -0.2209 -0.2002 -0.5912
   85POPC   C4B 1513   1.665   8.761   6.991 -0.0477  0.3255 -0.3085
   86POPC   NC3 1514   2.292   3.861   9.587 -0.1086  0.0740 -0.1146
   86POPC   PO4 1515   2.424   3.674   9.176 -0.2474 -0.0855  0.0803
   86POPC   GL1 1516   2.594   3.785   8.788 -0.1375  0.0664  0.0866
   86POPC   GL2 1517   2.785   3.494   8.617 -0.2132 -0.0911  0.0376
   86POPC   C1A 1518   2.606   3.885   8.328  0.1607  0.1727 -0.0846
   86POPC   D2A 1519   2.434   3.978   7.968 -0.2729  0.0333  0.1099
   86POPC   C3A 1520   2.546   3.813   7.530 -0.0732 -0.0940 -0.0174
   86POPC   C4A 1521   2.790   3.724   7.194 -0.6772 -0.0700  0.1634
   86POPC   C1B 1522   3.080   3.850   8.237 -0.2699  0.5854 -0.1438
   86POPC   C2B 1523   3.522   3.768   7.969 -0.2206 -0.2660  0.1021
   86POPC   C3B 1524   3.708   3.542   7.678 -0.0369  0.1238 -0.0835
   86POPC   C4B 1525   3.489   3.271   7.386 -0.1791  0.1005  0.1699
   87POPC   NC3 1526   3.584   2.287   9.188 -0.1055  0.4088 -0.2369
   87POPC   PO4 1527   3.935   2.286   8.904 -0.0853 -0.0972 -0.0986
   87POPC   GL1 1528   4.204   2.483   8.545 -0.1034 -0.2969  0.1130
   87POPC   GL2 1529   4.390   2.151   8.318 -0.4221 -0.1368  0.0003
   87POPC   C1A 1530   4.224   2.891   8.372 -0.1255  0.1688  0.2170
   87POPC   D2A 1531   4.357   3.163   8.001  0.3665 -0.1990  0.0729
   87POPC   C3A 1532   4.444   3.039   7.604 -0.0359  0.1366  0.0078
   87POPC   C4A 1533   4.490   3.121   7.183  0.1593 -0.1774  0.0887
   87POPC   C1B 1534   4.673   2.524   8.353 -0.3757  0.2937  0.2733
   87POPC   C2B 1535   5.004   2.692   8.401  0.2837 -0.0875  0.0358
   87POPC   C3B 1536   5.342   3.021   8.436  0.0818  0.1806 -0.1012
   87POPC   C4B 1537   5.797   3.071   8.343  0.4834  0.3677 -0.0576
   88POPC   NC3 1538   5.743   0.592   8.924 -0.0788  0.0194  0.1846
   88POPC   PO4 1539   5.684   0.937   8.770  0.2005 -0.0075  0.1284
   88POPC   GL1 1540   5.541   0.736   8.443 -0.0461  0.2557  0.0306
   88POPC   GL2 1541   5.779   0.536   8.353 -0.0249  0.1392  0.0791
   88POPC   C1A 1542   5.460   0.788   8.004 -0.1684  0.0826 -0.0290
   88POPC   D2A 1543   5.351   0.911   7.724  0.1855 -0.0245 -0.1218
   88POPC   C3A 1544   5.223   1.348   7.765 -0.3420 -0.0426  0.2512
   88POPC   C4A 1545   4.926   1.565   7.608  0.0331 -0.1596  0.1474
   88POPC   C1B 1546   5.543   0.278   8.066 -0.0931  0.1523 -0.0305
   88POPC   C2B 1547   5.504   0.335   7.662  0.2234  0.2103 -0.1557
   88POPC   C3B 1548   5.280   0.528   7.360  0.0180  0.0854  0.0569
   88POPC   C4B 1549   5.060   1.011   7.254  0.0805 -0.2274 -0.0805
   89POPC   NC3 1550   8.883   5.854   8.426 -0.0140  0.0747 -0.1567
   89POPC   PO4 1551   8.479   5.699   8.546 -0.1325 -0.1584 -0.1354
   89POPC   GL1 1552   8.521   5.490   8.203 -0.0052 -0.1111 -0.2035
   89POPC   GL2 1553   8.829   5.441   8.001  0.2432 -0.2201 -0.2979
   89POPC   C1A 1554   8.271   5.403   7.828 -0.3566 -0.0079 -0.1241
   89POPC   D2A 1555   8.262   5.132   7.482  0.1784 -0.1685 -0.1755
   89POPC   C3A 1556   8.554   5.024   7.222  0.0352  0.0853 -0.1890
   89POPC   C4A 1557   8.886   4.868   7.031  0.0460  0.0402 -0.0164
   89POPC   C1B 1558   8.750   5.328   7.562 -0.0489  0.5360 -0.1380
   89POPC   C2B 1559   8.903   5.375   7.148  0.1472  0.0315 -0.2178
   89POPC   C3B 1560   8.900   5.411   6.711  0.1914  0.0337 -0.2387
   89POPC   C4B 1561   9.334   5.477   6.546  0.0185  0.1843 -0.0528
   90POPC   NC3 1562   6.577   8.164   8.703  0.2539  0.2014 -0.1370
   90POPC   PO4 1563   6.964   7.872   8.549  0.1246  0.0798 -0.2331
   90POPC   GL1 1564   6.740   7.779   8.303 -0.1814 -0.1468  0.1903
   90POPC   GL2 1565   6.681   7.468   8.312  0.1606  0.3280 -0.2318
   90POPC   C1A 1566   6.442   7.886   7.980  0.0431 -0.0924  0.0541
   90POPC   D2A 1567   6.306   7.874   7.560 -0.2580 -0.1265 -0.1219
   90POPC   C3A 1568   6.206   7.524   7.335 -0.1467  0.2095  0.0086
   90POPC   C4A 1569   6.109   7.411   6.951  0.2040  0.1919  0.2740
   90POPC   C1B 1570   6.744   7.285   7.906 -0.0647  0.0041 -0.1830
   90POPC   C2B 1571   6.793   7.073   7.429  0.4406 -0.2155 -0.2223
   90POPC   C3B 1572   6.820   6.928   7.062 -0.0266  0.1397 -0.0644
   90POPC   C4B 1573   7.038   6.567   6.968  0.2741  0.1768 -0.2446
   91POPC   NC3 1574   9.837   4.146   8.709 -0.4239 -0.2069  0.0664
   91POPC   PO4 1575  10.017   4.550   8.612 -0.1037  0.1006 -0.1661
   91POPC   GL1 1576  10.194   4.371   8.331  0.1182 -0.0240 -0.3596
   91POPC   GL2 1577  10.035   4.070   8.260 -0.1157 -0.0122 -0.1555
   91POPC   C1A 1578  10.362   4.451   7.950 -0.5096  0.1182  0.0164
   91POPC   D2A 1579  10.468   4.868   7.701  0.0754  0.1134  0.1697
   91POPC   C3A 1580  10.173   5.069   7.375 -0.2118  0.0239 -0.0421
   91POPC   C4A 1581  10.131   5.348   7.029 -0.2001  0.1190 -0.0031
   91POPC   C1B 1582  10.371   3.904   8.021  0.2941  0.0875 -0.1567
   91POPC   C2B 1583  10.559   3.516   7.871 -0.2904 -0.0828  0.4087
   91POPC   C3B 1584  10.865   3.418   7.666 -0.3542 -0.2156 -0.1696
   91POPC   C4B 1585  10.875   3.110   7.345  0.2282 -0.0281 -0.0031
   92POPC   NC3 1586   9.958   5.569   8.569 -0.4706 -0.0427  0.0177
   92POPC   PO4 1587   9.818   5.355   8.324 -0.0040 -0.0156  0.0263
   92POPC   GL1 1588   9.797   5.206   8.001  0.1138 -0.1451 -0.2547
   92POPC   GL2 1589  10.038   5.289   7.765  0.1194 -0.2861 -0.0894
   92POPC   C1A 1590   9.897   4.796   7.727  0.1447 -0.0469 -0.2408
   92POPC   D2A 1591  10.108   4.469   7.376  0.3531 -0.1112  0.2845
   92POPC   C3A 1592  10.360   4.137   7.549 -0.0346 -0.2388  0.0447
   92POPC   C4A 1593  10.459   3.785   7.437 -0.1386 -0.3026 -0.1596
   92POPC   C1B 1594   9.778   5.528   7.523  0.1277 -0.0905 -0.1174
   92POPC   C2B 1595   9.399   5.603   7.617 -0.0198  0.1508 -0.1988
   92POPC   C3B 1596   9.175   6.071   7.736  0.0895  0.2438  0.1356
   92POPC   C4B 1597   9.262   6.493   7.807  0.5520  0.1333 -0.1009
   93POPC   NC3 1598   2.407   3.191   9.069  0.0491 -0.3239 -0.1612
   93POPC   PO4 1599   1.950   3.383   9.157 -0.3044 -0.2085 -0.0821
   93POPC   GL1 1600   2.020   3.557   8.774 -0.0903  0.0760 -0.0138
   93POPC   GL2 1601   2.221   3.346   8.619  0.0484 -0.2720  0.2606
   93POPC   C1A 1602   2.104   3.778   8.355  0.0326  0.1427  0.1583
   93POPC   D2A 1603   2.080   3.609   7.942  0.1452 -0.0307  0.1297
   93POPC   C3A 1604   2.067   3.927   7.631 -0.2212 -0.0882 -0.0734
   93POPC   C4A 1605   2.320   4.123   7.245  0.1134 -0.0168 -0.1415
   93POPC   C1B 1606   2.408   3.328   8.200  0.0324  0.3744  0.1675
   93POPC   C2B 1607   2.698   3.615   7.956  0.1998 -0.0899  0.0959
   93POPC   C3B 1608   3.078   3.918   7.734  0.0816  0.2543 -0.0382
   93POPC   C4B 1609   3.377   4.194   7.792  0.2948 -0.0894  0.4053
   94POPC   NC3 1610   5.895   3.710   9.019 -0.1703 -0.2097 -0.1796
   94POPC   PO4 1611   6.321   3.416   8.967 -0.1328 -0.3474 -0.0629
   94POPC   GL1 1612   6.193   3.557   8.482  0.1459  0.2518  0.0068
   94POPC   GL2 1613   5.900   3.768   8.517  0.0611 -0.0489  0.1837
   94POPC   C1A 1614   6.290   3.767   8.089  0.0201 -0.1940 -0.0736
   94POPC   D2A 1615   5.970   3.955   7.891 -0.0031  0.3078  0.0027
   94POPC   C3A 1616   6.056   4.242   7.498 -0.0253  0.1970  0.1660
   94POPC   C4A 1617   6.298   4.167   7.204  0.0317 -0.0476  0.0058
   94POPC   C1B 1618   5.849   3.481   8.128 -0.3524 -0.0765 -0.3869
   94POPC   C2B 1619   5.585   3.587   7.873  0.0319  0.4244  0.1278
   94POPC   C3B 1620   5.416   3.322   7.485  0.0452 -0.0777 -0.0592
   94POPC   C4B 1621   4.956   3.410   7.258 -0.1517  0.3509  0.0187
   95POPC   NC3 1622   3.740   0.709   8.668  0.0489  0.1751 -0.0092
   95POPC   PO4 1623   4.172   0.875   8.677 -0.2923 -0.0967 -0.1039
   95POPC   GL1 1624   3.901   1.148   8.475  0.4211  0.0272 -0.1622
   95POPC   GL2 1625   4.061   1.249   8.172 -0.0196  0.2408  0.0179
   95POPC   C1A 1626   3.616   1.058   8.080 -0.2399 -0.1952 -0.0727
   95POPC   D2A 1627   3.283   0.833   7.963 -0.1676  0.1945 -0.0397
   95POPC   C3A 1628   2.935   0.992   7.701  0.0440  0.3280 -0.0437
   95POPC   C4A 1629   2.632   1.117   7.503  0.0327  0.0389 -0.1918
   95POPC   C1B 1630   4.054   1.097   7.764 -0.1760 -0.0297  0.1176
   95POPC   C2B 1631   4.248   1.253   7.470  0.0061 -0.2411  0.0144
   95POPC   C3B 1632   4.579   1.397   7.266  0.1818 -0.2724  0.1562
   95POPC   C4B 1633   4.952   1.382   6.955 -0.2174 -0.3347 -0.1672
   96POPC   NC3 1634   5.759   7.815   9.393 -0.2734 -0.0181  0.0077
   96POPC   PO4 1635   6.153   8.104   9.329  0.0964 -0.1567  0.2153
   96POPC   GL1 1636   6.132   7.883   8.915 -0.0876 -0.5054  0.0180
   96POPC   GL2 1637   5.773   8.012   8.723  0.0062 -0.1100  0.2210
   96POPC   C1A 1638   6.168   7.804   8.439 -0.4655  0.0500 -0.3361
   96POPC   D2A 1639   6.185   7.403   8.215  0.3560  0.0976  0.3059
   96POPC   C3A 1640   6.226   7.312   7.752  0.1596  0.0353  0.2305
   96POPC   C4A 1641   6.266   6.973   7.277 -0.1830  0.0287 -0.1702
   96POPC   C1B 1642   5.694   7.736   8.396  0.1194 -0.4649 -0.1675
   96POPC   C2B 1643   5.421   7.742   8.054 -0.1642  0.0010 -0.0908
   96POPC   C3B 1644   4.988   7.817   7.823 -0.0564  0.0707  0.0786
   96POPC   C4B 1645   4.590   8.004   8.132 -0.0791  0.1733 -0.1058
   97POPC   NC3 1646   0.609   4.178   8.692 -0.1942 -0.2809 -0.0082
   97POPC   PO4 1647   0.597   3.783   8.641  0.2711  0.2217 -0.4179
   97POPC   GL1 1648   0.854   3.971   8.322  0.2151  0.0557  0.2987
   97POPC   GL2 1649   1.133   3.878   8.361  0.2262 -0.0958 -0.1241
   97POPC   C1A 1650   0.841   4.205   7.966 -0.1909  0.3304  0.1707
   97POPC   D2A 1651   0.808   4.342   7.512 -0.1375 -0.1610  0.0120
   97POPC   C3A 1652   0.696   4.114   7.108  0.2521 -0.1754  0.0373
   97POPC   C4A 1653   0.818   4.126   6.698 -0.0331  0.0103 -0.0454
   97POPC   C1B 1654   1.262   3.986   7.938  0.2234 -0.1855 -0.1553
   97POPC   C2B 1655   1.550   4.100   7.585  0.0899  0.1430 -0.2398
   97POPC   C3B 1656   1.743   3.982   7.255  0.3487  0.1587  0.0037
   97POPC   C4B 1657   1.933   4.063   6.919 -0.0309  0.0093 -0.1362
   98POPC   NC3 1658   2.928   3.263   9.040 -0.1469 -0.0682 -0.1651
   98POPC   PO4 1659   2.960   3.680   9.181 -0.0600  0.0524  0.0120
   98POPC   GL1 1660   2.884   4.132   8.945  0.1723 -0.0318  0.2374
   98POPC   GL2 1661   3.184   4.400   8.937  0.0472 -0.2891  0.2377
   98POPC   C1A 1662   2.885   4.264   8.516  0.1271 -0.1650 -0.0511
   98POPC   D2A 1663   2.858   4.334   8.113  0.1306 -0.1182 -0.0868
   98POPC   C3A 1664   3.040   4.541   7.847  0.3882 -0.1877 -0.1811
   98POPC   C4A 1665   2.878   4.732   7.608 -0.1325 -0.0120  0.0969
   98POPC   C1B 1666   3.572   4.549   8.704 -0.1580 -0.3389  0.1688
   98POPC   C2B 1667   3.866   4.704   8.321  0.1915 -0.2834  0.1325
   98POPC   C3B 1668   4.020   4.713   7.872  0.0534 -0.1148  0.1277
   98POPC   C4B 1669   4.062   4.586   7.423 -0.1267  0.0688 -0.0164
   99POPC   NC3 1670   9.205   7.127   8.709 -0.1087  0.2866 -0.1970
   99POPC   PO4 1671   9.647   7.037   8.534 -0.3658  0.2631 -0.2282
   99POPC   GL1 1672   9.886   7.042   8.153 -0.0043  0.2152 -0.0079
   99POPC   GL2 1673   9.908   7.160   7.901  0.0441  0.0976  0.2753
   99POPC   C1A 1674  10.221   6.675   7.869  0.0927 -0.3320 -0.1593
   99POPC   D2A 1675  10.246   6.413   7.508 -0.2933 -0.0119 -0.2636
   99POPC   C3A 1676   9.936   6.143   7.436  0.1621  0.0963  0.1155
   99POPC   C4A 1677   9.590   6.052   7.537 -0.1250  0.2591  0.1641
   99POPC   C1B 1678  10.204   7.293   7.594 -0.0588 -0.0208  0.1238
   99POPC   C2B 1679  10.356   7.374   7.202 -0.0559 -0.1634  0.0390
   99POPC   C3B 1680  10.253   7.710   6.991  0.0472  0.3437 -0.4096
   99POPC   C4B 1681  10.451   7.909   6.586  0.4435 -0.3673  0.0260
  100POPC   NC3 1682   0.396   3.390   9.195  0.4026  0.0404  0.0576
  100POPC   PO4 1683   0.763   3.372   8.945  0.0520 -0.0051  0.3070
  100POPC   GL1 1684   0.758   3.258   8.500  0.1706 -0.0485  0.3950
  100POPC   GL2 1685   0.763   3.479   8.307  0.2971  0.3041 -0.0904
  100POPC   C1A 1686   0.383   3.179   8.193  0.3180  0.0444 -0.1800
  100POPC   D2A 1687   0.112   2.999   7.777 -0.2333  0.2995 -0.1428
  100POPC   C3A 1688  -0.028   3.218   7.475  0.2984 -0.2082 -0.2380
  100POPC   C4A 1689  -0.305   3.304   7.162 -0.0022  0.1236 -0.0699
  100POPC   C1B 1690   0.866   3.658   7.924 -0.0098  0.0248  0.3635
  100POPC   C2B 1691   1.003   3.908   7.560 -0.1890  0.1106 -0.2300
  100POPC   C3B 1692   1.168   4.054   7.204 -0.5854 -0.3805 -0.0331
  100POPC   C4B 1693   1.222   3.792   6.834 -0.2807 -0.2955  0.1993
  101POPC   NC3 1694   0.924   9.076   8.558  0.0302  0.1095 -0.2704
  101POPC   PO4 1695   0.841   8.567   8.501  0.2360  0.1181  0.0332
  101POPC   GL1 1696   1.232   8.569   8.412  0.0616  0.1230  0.1281
  101POPC   GL2 1697   1.371   8.279   8.303  0.1547  0.3095  0.0553
  101POPC   C1A 1698   1.470   8.857   8.238 -0.1567 -0.0542  0.1062
  101POPC   D2A 1699   1.563   9.197   7.969 -0.0377  0.0775 -0.0716
  101POPC   C3A 1700   1.950   9.392   7.837  0.1779  0.0521  0.1494
  101POPC   C4A 1701   2.339   9.251   7.995 -0.0908 -0.1242  0.2497
  101POPC   C1B 1702   1.122   8.040   8.027 -0.0309 -0.0720 -0.4300
  101POPC   C2B 1703   0.932   7.675   7.790  0.1774 -0.2167 -0.2340
  101POPC   C3B 1704   1.175   7.441   7.404 -0.0644  0.2140  0.2648
  101POPC   C4B 1705   1.343   7.184   7.157 -0.3394  0.0490  0.0408
  102POPC   NC3 1706   5.879   4.701   9.071 -0.1690 -0.0058 -0.0207
  102POPC   PO4 1707   5.945   4.218   9.218  0.0155  0.1699  0.1017
  102POPC   GL1 1708   5.705   4.244   8.834 -0.1928 -0.0949 -0.1606
  102POPC   GL2 1709   5.444   4.507   8.809 -0.1759 -0.1233 -0.1042
  102POPC   C1A 1710   5.784   4.278   8.327 -0.1775  0.0073  0.0882
  102POPC   D2A 1711   5.746   4.477   7.932  0.0372 -0.1556 -0.2917
  102POPC   C3A 1712   5.291   4.587   7.860 -0.2868 -0.0461 -0.0557
  102POPC   C4A 1713   4.819   4.662   7.880 -0.0110 -0.0870 -0.2595
  102POPC   C1B 1714   5.232   4.613   8.418 -0.0629 -0.1740  0.4088
  102POPC   C2B 1715   5.090   4.951   8.170 -0.2766  0.1345  0.0501
  102POPC   C3B 1716   4.800   5.151   7.800  0.1578  0.0421  0.0065
  102POPC   C4B 1717   4.435   5.000   7.574  0.3038 -0.0971 -0.2175
  103POPC   NC3 1718   2.538   6.680  10.256  0.1916  0.0984 -0.0204
  103POPC   PO4 1719   2.720   6.777   9.980  0.0700 -0.5205  0.2687
  103POPC   GL1 1720   2.857   6.990   9.631 -0.1744  0.0555  0.3199
  103POPC   GL2 1721   2.503   7.177   9.535 -0.0889  0.0718 -0.0784
  103POPC   C1A 1722   2.890   6.793   9.183 -0.3786  0.0679 -0.1075
  103POPC   D2A 1723   2.868   6.646   8.803  0.0756  0.1153 -0.0645
  103POPC   C3A 1724   3.013   6.723   8.374 -0.1530 -0.0772 -0.1919
  103POPC   C4A 1725   3.106   7.148   8.127  0.3325  0.0550 -0.1040
  103POPC   C1B 1726   2.782   7.293   9.195  0.6554 -0.1801  0.0159
  103POPC   C2B 1727   3.162   7.607   9.104  0.1310 -0.0140 -0.0533
  103POPC   C3B 1728   3.498   7.776   8.886 -0.1080  0.0508 -0.2473
  103POPC   C4B 1729   3.923   7.727   8.782 -0.1847  0.3818 -0.0830
  104POPC   NC3 1730   7.453   0.502   8.491 -0.2357  0.2736  0.2302
  104POPC   PO4 1731   7.396   0.112   8.534 -0.1521  0.2775  0.1205
  104POPC   GL1 1732   7.575   0.033   8.135 -0.2042 -0.2322  0.0011
  104POPC   GL2 1733   7.429   0.355   8.030 -0.0231  0.0142  0.0519
  104POPC   C1A 1734   7.715  -0.304   7.837  0.4286 -0.0054 -0.1604
  104POPC   D2A 1735   7.533  -0.460   7.502 -0.1021 -0.2716  0.0254
  104POPC   C3A 1736   7.591  -0.255   7.122  0.2653  0.1139  0.1909
  104POPC   C4A 1737   7.407  -0.252   6.792 -0.1731  0.0046  0.1416
  104POPC   C1B 1738   7.509   0.153   7.614 -0.4443  0.1103 -0.4071
  104POPC   C2B 1739   7.351   0.160   7.320 -0.0392  0.2140  0.0951
  104POPC   C3B 1740   7.024   0.397   6.944 -0.3164 -0.1130  0.1138
  104POPC   C4B 1741   6.982   0.754   6.795  0.0936  0.1830 -0.0987
  105POPC   NC3 1742   3.064   8.772   9.335  0.1143  0.0201 -0.0425
  105POPC   PO4 1743   2.820   8.807   8.981  0.0972 -0.1774 -0.3209
  105POPC   GL1 1744   2.927   8.813   8.572 -0.0379  0.0846 -0.1523
  105POPC   GL2 1745   2.597   8.941   8.439 -0.2157 -0.1635  0.0344
  105POPC   C1A 1746   3.151   8.820   8.194  0.1789  0.0701 -0.0952
  105POPC   D2A 1747   3.176   8.573   7.743  0.0827  0.0424  0.3032
  105POPC   C3A 1748   3.082   8.773   7.308  0.1151  0.0837  0.0564
  105POPC   C4A 1749   2.811   8.836   6.980 -0.0190  0.0570 -0.4158
  105POPC   C1B 1750   2.328   8.780   8.125  0.0700 -0.0724  0.0211
  105POPC   C2B 1751   2.201   8.889   7.660 -0.3492 -0.1041 -0.1151
  105POPC   C3B 1752   2.188   9.182   7.328  0.0722  0.1117 -0.2474
  105POPC   C4B 1753   2.493   9.386   7.092  0.3553  0.0226  0.1226
  106POPC   NC3 1754   5.814   2.661   9.480  0.2523  0.0657  0.1375
  106POPC   PO4 1755   6.297   2.412   9.471  0.1250  0.1137  0.0190
  106POPC   GL1 1756   6.244   2.404   9.040  0.0259 -0.3326  0.0088
  106POPC   GL2 1757   6.041   2.047   8.803  0.2827  0.1586  0.2323
  106POPC   C1A 1758   5.903   2.584   8.831  0.0478 -0.1555  0.1076
  106POPC   D2A 1759   5.571   2.858   8.836 -0.1063 -0.0724 -0.0336
  106POPC   C3A 1760   5.061   2.840   8.881 -0.1209 -0.0885  0.0512
  106POPC   C4A 1761   4.597   2.897   8.744 -0.1788 -0.2316  0.0627
  106POPC   C1B 1762   5.956   2.134   8.464  0.2733  0.2731 -0.0554
  106POPC   C2B 1763   5.739   2.069   8.046  0.3073  0.1196  0.0586
  106POPC   C3B 1764   5.870   1.811   7.737  0.0753  0.1595 -0.0175
  106POPC   C4B 1765   5.825   1.331   7.836  0.2844  0.0891  0.1233
  107POPC   NC3 1766   4.873   3.094   9.691 -0.2362 -0.1381  0.2732
  107POPC   PO4 1767   4.971   3.464   9.377 -0.3258  0.2635 -0.1605
  107POPC   GL1 1768   4.947   3.537   8.991  0.4147 -0.1395 -0.2290
  107POPC   GL2 1769   4.798   3.781   8.869  0.4338 -0.1300 -0.1148
  107POPC   C1A 1770   4.983   3.340   8.629 -0.1118  0.2093  0.4219
  107POPC   D2A 1771   4.760   3.118   8.274  0.0991 -0.3120 -0.0223
  107POPC   C3A 1772   4.828   3.158   7.815 -0.1609  0.2820  0.0437
  107POPC   C4A 1773   4.955   2.958   7.445 -0.4330  0.2371 -0.1408
  107POPC   C1B 1774   4.794   3.803   8.355  0.2877  0.0704 -0.1968
  107POPC   C2B 1775   4.675   3.656   7.970 -0.1812  0.3287  0.1261
  107POPC   C3B 1776   5.013   3.725   7.627  0.0079 -0.1013 -0.1253
  107POPC   C4B 1777   5.133   4.057   7.326  0.0407  0.0080 -0.0029
  108POPC   NC3 1778   4.228   5.665  10.197 -0.0500  0.0975 -0.1785
  108POPC   PO4 1779   3.904   5.660   9.943  0.1908  0.1297 -0.0952
  108POPC   GL1 1780   3.971   5.859   9.519  0.0855  0.2563 -0.0410
  108POPC   GL2 1781   4.200   5.735   9.285 -0.0634 -0.1447 -0.3015
  108POPC   C1A 1782   3.827   6.260   9.344  0.0895  0.1863  0.0957
  108POPC   D2A 1783   3.706   6.413   9.084  0.1342 -0.1848 -0.2424
  108POPC   C3A 1784   3.341   6.661   8.841 -0.2151 -0.0318 -0.0955
  108POPC   C4A 1785   3.373   6.997   8.518 -0.0928  0.0441 -0.0410
  108POPC   C1B 1786   4.110   5.998   9.020 -0.0019 -0.0318  0.3691
  108POPC   C2B 1787   3.924   6.239   8.698  0.0594  0.1591  0.0143
  108POPC   C3B 1788   3.769   6.700   8.379  0.0605  0.1364 -0.1835
  108POPC   C4B 1789   3.968   7.123   8.311 -0.0281 -0.0395  0.0675
  109POPC   NC3 1790   1.651   1.595   8.320 -0.1121  0.2145 -0.0937
  109POPC   PO4 1791   1.418   1.917   8.499 -0.0737  0.1141  0.3675
  109POPC   GL1 1792   1.122   2.055   8.201 -0.1094 -0.0308 -0.1995
  109POPC   GL2 1793   0.906   1.848   8.137 -0.0923  0.3039 -0.0979
  109POPC   C1A 1794   0.959   2.358   8.119  0.0470  0.1559 -0.1516
  109POPC   D2A 1795   0.947   2.622   7.697 -0.2155 -0.1446  0.2073
  109POPC   C3A 1796   1.169   2.518   7.338 -0.1356 -0.0242 -0.0441
  109POPC   C4A 1797   1.289   2.615   6.812  0.1976 -0.2078 -0.1234
  109POPC   C1B 1798   0.993   2.001   7.736 -0.0526  0.0883  0.0279
  109POPC   C2B 1799   1.288   2.004   7.332  0.1896 -0.0088 -0.3553
  109POPC   C3B 1800   1.120   2.152   6.941  0.0596 -0.0553  0.0375
  109POPC   C4B 1801   0.984   2.328   6.512  0.1305 -0.1372  0.0359
  110POPC   NC3 1802   4.441   5.778   9.762  0.1634  0.0319  0.3511
  110POPC   PO4 1803   4.375   6.225   9.935  0.1164  0.1440  0.3420
  110POPC   GL1 1804   4.292   6.431   9.524  0.1162 -0.0375  0.0736
  110POPC   GL2 1805   4.608   6.589   9.421  0.0477  0.2855  0.1770
  110POPC   C1A 1806   4.190   6.501   9.072 -0.2859  0.3353 -0.1876
  110POPC   D2A 1807   3.934   6.840   8.838  0.1736  0.1212 -0.0914
  110POPC   C3A 1808   4.167   7.221   8.753  0.1676 -0.0565  0.0361
  110POPC   C4A 1809   4.388   7.535   8.832  0.2068  0.0927  0.1479
  110POPC   C1B 1810   4.906   6.638   9.055 -0.1082  0.2405  0.0475
  110POPC   C2B 1811   5.213   6.915   8.831 -0.0014  0.0088  0.0183
  110POPC   C3B 1812   5.431   7.362   8.732 -0.1248 -0.0769 -0.1014
  110POPC   C4B 1813   5.893   7.447   8.835 -0.2756  0.1152  0.0490
  111POPC   NC3 1814   6.441   0.432   9.433  0.0794 -0.3539  0.2168
  111POPC   PO4 1815   6.225   0.679   9.041 -0.1103 -0.3188  0.0892
  111POPC   GL1 1816   6.160   0.684   8.623  0.3395  0.0444 -0.2108
  111POPC   GL2 1817   6.140   1.020   8.553  0.0295  0.2966  0.0630
  111POPC   C1A 1818   6.218   0.548   8.081 -0.0975  0.1553 -0.0915
  111POPC   D2A 1819   6.403   0.361   7.673 -0.0961 -0.1893  0.1421
  111POPC   C3A 1820   6.205   0.476   7.295 -0.0795 -0.1392  0.2504
  111POPC   C4A 1821   6.258   0.562   6.897 -0.0758 -0.2274 -0.3936
  111POPC   C1B 1822   5.978   0.972   8.175 -0.2388 -0.1332  0.0460
  111POPC   C2B 1823   6.256   0.993   7.733 -0.0166  0.0058  0.1142
  111POPC   C3B 1824   6.578   0.843   7.530  0.2946  0.2069 -0.3773
  111POPC   C4B 1825   6.654   0.667   7.156 -0.2806  0.0372 -0.0732
  112POPC   NC3 1826   9.121   7.904   8.392 -0.0233  0.0905  0.0130
  112POPC   PO4 1827   8.994   7.499   8.396 -0.2336 -0.0946  0.0224
  112POPC   GL1 1828   9.123   7.507   8.018  0.0086 -0.0949 -0.0239
  112POPC   GL2 1829   8.803   7.443   7.812  0.4135  0.1716 -0.2175
  112POPC   C1A 1830   9.226   7.524   7.602 -0.0553 -0.0772  0.2788
  112POPC   D2A 1831   9.197   7.338   7.135  0.0128 -0.1250 -0.1178
  112POPC   C3A 1832   9.319   6.955   6.889 -0.4038 -0.1619 -0.1153
  112POPC   C4A 1833   9.545   6.864   6.505  0.3244  0.3428  0.2369
  112POPC   C1B 1834   8.572   7.756   7.636 -0.1319  0.0056  0.2828
  112POPC   C2B 1835   8.496   8.029   7.326  0.1983  0.0684  0.2864
  112POPC   C3B 1836   8.354   7.795   7.066  0.3733  0.1449 -0.0218
  112POPC   C4B 1837   8.041   7.559   6.784 -0.2667 -0.0835 -0.0093
  113POPC   NC3 1838   9.120   2.572   8.596 -0.2157  0.3493 -0.0525
  113POPC   PO4 1839   9.503   2.572   8.919  0.0819 -0.2577 -0.0002
  113POPC   GL1 1840   9.626   2.654   8.492 -0.0852 -0.0875  0.0813
  113POPC   GL2 1841   9.936   2.622   8.398 -0.1980 -0.2171  0.0605
  113POPC   C1A 1842   9.651   2.526   8.024 -0.0772  0.0380  0.2404
  113POPC   D2A 1843   9.639   2.571   7.626  0.1817 -0.2834 -0.2083
  113POPC   C3A 1844   9.399   2.732   7.290 -0.1568 -0.1253 -0.2715
  113POPC   C4A 1845   8.953   2.569   7.173 -0.1514  0.0430 -0.0060
  113POPC   C1B 1846  10.212   2.894   8.159 -0.2475 -0.0938 -0.0005
  113POPC   C2B 1847  10.058   2.872   7.772  0.0946  0.4245 -0.2528
  113POPC   C3B 1848   9.762   3.077   7.540 -0.1431  0.2224 -0.1116
  113POPC   C4B 1849   9.567   3.157   7.183 -0.0814 -0.2714  0.2091
  114POPC   NC3 1850   7.077   3.546   9.308  0.1078  0.2460 -0.0655
  114POPC   PO4 1851   6.750   3.774   9.095  0.3193  0.2023  0.0422
  114POPC   GL1 1852   6.794   3.743   8.561 -0.1103  0.1561  0.2993
  114POPC   GL2 1853   6.757   3.407   8.420 -0.1363 -0.0668  0.1128
  114POPC   C1A 1854   6.904   3.799   8.152 -0.3690  0.1715 -0.1501
  114POPC   D2A 1855   7.277   3.752   7.899  0.4410  0.1300  0.1305
  114POPC   C3A 1856   7.615   3.951   7.929  0.3222 -0.0207 -0.1021
  114POPC   C4A 1857   8.017   4.067   7.967 -0.0345 -0.4101  0.1328
  114POPC   C1B 1858   6.624   3.379   7.926 -0.0370  0.0846 -0.1648
  114POPC   C2B 1859   6.786   3.682   7.666 -0.3733  0.0833 -0.4776
  114POPC   C3B 1860   6.973   3.954   7.484 -0.0474 -0.0100  0.0878
  114POPC   C4B 1861   6.718   4.384   7.298  0.3193 -0.2001 -0.0059
  115POPC   NC3 1862   8.425   1.315   8.466  0.1661 -0.0413 -0.1139
  115POPC   PO4 1863   7.975   1.200   8.473  0.2513  0.1339 -0.4097
  115POPC   GL1 1864   8.121   1.289   8.032 -0.1129  0.2427 -0.4855
  115POPC   GL2 1865   8.157   1.601   7.961 -0.1615  0.2734  0.3233
  115POPC   C1A 1866   8.512   1.163   7.869  0.0598  0.0029  0.1638
  115POPC   D2A 1867   8.647   0.985   7.530  0.1131  0.0295  0.4058
  115POPC   C3A 1868   8.589   1.169   7.207 -0.2293 -0.3812 -0.3675
  115POPC   C4A 1869   8.348   1.019   6.923  0.2361 -0.0148  0.0381
  115POPC   C1B 1870   8.143   1.910   7.642 -0.1660  0.0371  0.0848
  115POPC   C2B 1871   8.175   2.406   7.661  0.0704 -0.0392 -0.1758
  115POPC   C3B 1872   8.156   2.850   7.633  0.1187  0.3959 -0.0343
  115POPC   C4B 1873   8.034   3.190   7.502  0.1457  0.0714  0.2168
  116POPC   NC3 1874  10.111   2.097   9.132  0.0575  0.0587  0.3817
  116POPC   PO4 1875  10.267   2.310   8.738  0.1140  0.0115 -0.1025
  116POPC   GL1 1876  10.299   2.308   8.304 -0.0733 -0.0308 -0.1734
  116POPC   GL2 1877  10.576   2.382   8.207  0.2058  0.1856  0.4665
  116POPC   C1A 1878  10.129   2.192   7.979 -0.2869 -0.0519 -0.1088
  116POPC   D2A 1879  10.140   2.346   7.518 -0.0635 -0.0227  0.2237
  116POPC   C3A 1880  10.031   2.767   7.281 -0.0119 -0.0504 -0.2578
  116POPC   C4A 1881   9.678   2.740   6.888  0.0862  0.0862  0.0643
  116POPC   C1B 1882  10.601   2.314   7.775  0.3035  0.0714 -0.3174
  116POPC   C2B 1883  10.654   1.908   7.536  0.0515  0.2159  0.1823
  116POPC   C3B 1884  10.382   1.572   7.343 -0.1590  0.0726 -0.1287
  116POPC   C4B 1885  10.201   1.469   6.893 -0.3101 -0.3809 -0.0632
  117POPC   NC3 1886   2.196   0.747   8.375  0.3193 -0.1811  0.1143
  117POPC   PO4 1887   1.767   0.659   8.221  0.0000  0.0372 -0.2430
  117POPC   GL1 1888   2.049   1.108   8.029  0.4535  0.1130 -0.3119
  117POPC   GL2 1889   1.842   1.308   7.994 -0.0513  0.0282  0.0052
  117POPC   C1A 1890   2.258   1.367   7.755  0.1320  0.1348  0.0153
  117POPC   D2A 1891   2.274   1.429   7.243  0.2127 -0.1939 -0.0978
  117POPC   C3A 1892   2.721   1.566   7.173 -0.3180 -0.3017 -0.1396
  117POPC   C4A 1893   2.951   1.345   6.848 -0.2051  0.3229 -0.4035
  117POPC   C1B 1894   1.726   0.942   7.661 -0.1891  0.2205 -0.3332
  117POPC   C2B 1895   1.381   1.115   7.460  0.0910  0.0461  0.1032
  117POPC   C3B 1896   1.390   1.403   7.120 -0.1456 -0.3125  0.1370
  117POPC   C4B 1897   1.578   1.779   6.966  0.3056 -0.0588 -0.0925
  118POPC   NC3 1898   0.026   0.238   8.878 -0.0566  0.3778 -0.0312
  118POPC   PO4 1899  -0.295   0.325   8.588 -0.0535 -0.5132  0.1016
  118POPC   GL1 1900  -0.303   0.288   8.164 -0.1098  0.0078  0.5288
  118POPC   GL2 1901  -0.097   0.018   8.006 -0.0320 -0.0533 -0.5373
  118POPC   C1A 1902  -0.491   0.268   7.705 -0.0146  0.0611 -0.1324
  118POPC   D2A 1903  -0.739   0.055   7.458 -0.2069  0.0701 -0.1083
  118POPC   C3A 1904  -0.514  -0.216   7.084  0.2882 -0.0198  0.1276
  118POPC   C4A 1905  -0.296  -0.117   6.756 -0.2774  0.0794 -0.2307
  118POPC   C1B 1906   0.132   0.155   7.714 -0.1319  0.0164  0.1400
  118POPC   C2B 1907   0.246   0.008   7.257  0.1002  0.1082  0.0202
  118POPC   C3B 1908   0.170  -0.315   6.982 -0.0616  0.2830  0.1465
  118POPC   C4B 1909   0.165  -0.312   6.496 -0.2805  0.1476 -0.3362
  119POPC   NC3 1910   0.301   2.388   8.785  0.1984  0.3149 -0.0773
  119POPC   PO4 1911   0.769   2.563   9.009 -0.0992  0.2326 -0.2141
  119POPC   GL1 1912   0.709   2.516   8.496 -0.3458  0.0851  0.0033
  119POPC   GL2 1913   0.881   2.779   8.405 -0.1052 -0.1701 -0.3367
  119POPC   C1A 1914   0.574   2.673   8.066 -0.0567 -0.0507 -0.0670
  119POPC   D2A 1915   0.419   2.631   7.587  0.0881  0.2410 -0.2875
  119POPC   C3A 1916   0.075   2.729   7.365 -0.0474  0.1864  0.1261
  119POPC   C4A 1917  -0.027   2.523   7.003 -0.0483 -0.2442 -0.2174
  119POPC   C1B 1918   0.960   2.993   8.087 -0.0297  0.2798 -0.3032
  119POPC   C2B 1919   0.762   3.078   7.768 -0.2608  0.1939  0.3516
  119POPC   C3B 1920   0.812   3.361   7.397 -0.0894 -0.0866  0.0589
  119POPC   C4B 1921   0.877   3.637   7.140  0.0469  0.2235 -0.4758
  120POPC   NC3 1922   7.911   3.755   8.826  0.1786 -0.1753 -0.1185
  120POPC   PO4 1923   7.555   3.471   8.586  0.0323  0.1155 -0.1601
  120POPC   GL1 1924   7.599   3.511   8.189  0.1921 -0.2496 -0.1017
  120POPC   GL2 1925   7.243   3.317   8.223  0.0427 -0.1463 -0.0876
  120POPC   C1A 1926   7.639   3.382   7.783 -0.0519 -0.1350 -0.0723
  120POPC   D2A 1927   7.505   3.509   7.372  0.1252 -0.4913  0.1090
  120POPC   C3A 1928   7.446   3.242   7.058  0.0890  0.0890  0.3296
  120POPC   C4A 1929   7.169   3.043   6.833 -0.0647  0.2995 -0.0793
  120POPC   C1B 1930   7.088   3.280   7.769 -0.1387 -0.3781 -0.1819
  120POPC   C2B 1931   7.043   3.432   7.247 -0.0501 -0.0449 -0.1100
  120POPC   C3B 1932   6.996   3.828   6.996  0.2810  0.3169  0.3228
  120POPC   C4B 1933   6.912   3.881   6.561  0.2121  0.0554  0.3975
  121POPC   NC3 1934   2.286   2.468   9.429  0.2445 -0.0725  0.2358
  121POPC   PO4 1935   2.207   2.740   9.021  0.0493  0.2579 -0.1943
  121POPC   GL1 1936   2.223   2.674   8.484  0.0788  0.1296  0.2165
  121POPC   GL2 1937   1.967   2.688   8.296  0.2873  0.0399  0.2445
  121POPC   C1A 1938   2.428   2.770   8.086  0.2302 -0.1086 -0.1025
  121POPC   D2A 1939   2.628   2.706   7.683 -0.0572 -0.0119  0.2673
  121POPC   C3A 1940   2.645   2.847   7.289  0.0350  0.2485  0.0616
  121POPC   C4A 1941   2.648   3.220   6.937  0.1847 -0.1743  0.1203
  121POPC   C1B 1942   1.982   2.642   7.825  0.0316 -0.3191 -0.0679
  121POPC   C2B 1943   2.100   2.704   7.447 -0.2616  0.2347 -0.0812
  121POPC   C3B 1944   2.187   2.942   7.081 -0.1964  0.2823  0.2338
  121POPC   C4B 1945   2.160   3.296   6.798  0.3232  0.0447 -0.0254
  122POPC   NC3 1946   7.510  10.104   8.477  0.2439  0.2286 -0.1018
  122POPC   PO4 1947   7.151  10.174   8.680  0.2390 -0.0136 -0.1959
  122POPC   GL1 1948   6.767  10.346   8.341  0.0792 -0.0883  0.1593
  122POPC   GL2 1949   7.039  10.438   8.180 -0.2258 -0.3318 -0.2163
  122POPC   C1A 1950   6.477  10.429   8.012 -0.2603  0.5104  0.2039
  122POPC   D2A 1951   6.167  10.111   7.782 -0.0438  0.3655  0.2411
  122POPC   C3A 1952   6.129   9.877   7.543  0.0024  0.0706 -0.1990
  122POPC   C4A 1953   5.893   9.826   7.133 -0.0290 -0.2794  0.0554
  122POPC   C1B 1954   7.180  10.314   7.748  0.1788 -0.1122 -0.2023
  122POPC   C2B 1955   7.106  10.211   7.338 -0.1468  0.4095 -0.3603
  122POPC   C3B 1956   6.866  10.340   6.987 -0.2241 -0.0410 -0.2338
  122POPC   C4B 1957   6.580  10.659   6.965  0.0163 -0.0568 -0.0205
  123POPC   NC3 1958   7.698   7.111   8.545 -0.0479  0.2087  0.0576
  123POPC   PO4 1959   8.193   7.341   8.654  0.2670  0.0228  0.3051
  123POPC   GL1 1960   8.159   7.030   8.253  0.1368 -0.0778  0.1503
  123POPC   GL2 1961   8.426   6.875   8.057 -0.1224  0.0198 -0.0909
  123POPC   C1A 1962   7.926   6.754   7.855  0.1490 -0.0390  0.1697
  123POPC   D2A 1963   7.916   6.852   7.464 -0.3641  0.1625 -0.0931
  123POPC   C3A 1964   7.777   6.625   7.229  0.0682 -0.1588  0.1091
  123POPC   C4A 1965   7.606   6.257   6.919  0.1481  0.0286  0.1726
  123POPC   C1B 1966   8.408   6.892   7.533  0.0907  0.0417 -0.1231
  123POPC   C2B 1967   8.490   6.677   7.088 -0.1985 -0.1710  0.1371
  123POPC   C3B 1968   8.826   6.605   6.756  0.0296  0.1926 -0.2305
  123POPC   C4B 1969   9.022   6.743   6.378 -0.0929 -0.4042  0.2151
  124POPC   NC3 1970   3.560   3.848  10.008 -0.2356  0.2163 -0.0381
  124POPC   PO4 1971   3.744   4.157   9.574  0.2889  0.0489 -0.0440
  124POPC   GL1 1972   3.997   4.371   9.253 -0.2566  0.0118  0.0074
  124POPC   GL2 1973   3.943   4.246   8.893  0.2105 -0.0272  0.2362
  124POPC   C1A 1974   3.944   4.815   8.997  0.0584  0.5294  0.2216
  124POPC   D2A 1975   4.209   5.187   9.067 -0.1511 -0.0623 -0.0717
  124POPC   C3A 1976   4.391   5.640   8.802 -0.1085 -0.0853 -0.3594
  124POPC   C4A 1977   4.342   5.767   8.398  0.0762  0.1504  0.1974
  124POPC   C1B 1978   3.881   4.149   8.405  0.1644  0.1952  0.0125
  124POPC   C2B 1979   3.816   4.226   8.018 -0.0139 -0.4628 -0.1965
  124POPC   C3B 1980   3.843   4.108   7.624 -0.1539  0.2178  0.2487
  124POPC   C4B 1981   4.024   3.830   7.333  0.0359 -0.0587  0.0924
  125POPC   NC3 1982   4.080   9.442   9.249  0.0737 -0.1420 -0.2220
  125POPC   PO4 1983   4.060   9.178   9.497  0.0670 -0.2940  0.4184
  125POPC   GL1 1984   4.040   8.895   9.100  0.3706 -0.1703  0.1381
  125POPC   GL2 1985   4.350   8.907   9.033 -0.2060 -0.2006 -0.2152
  125POPC   C1A 1986   3.803   8.811   8.809 -0.3795  0.3792 -0.0265
  125POPC   D2A 1987   3.450   8.732   8.546 -0.1114  0.2097  0.0822
  125POPC   C3A 1988   3.402   8.340   8.261  0.1527  0.1280  0.0768
  125POPC   C4A 1989   3.623   8.445   7.880 -0.3457 -0.2749 -0.0862
  125POPC   C1B 1990   4.331   8.901   8.654  0.1952  0.1030 -0.1456
  125POPC   C2B 1991   4.321   8.815   8.121 -0.1975 -0.0282 -0.1797
  125POPC   C3B 1992   4.088   8.978   7.821 -0.0663  0.0082  0.1085
  125POPC   C4B 1993   3.866   9.331   7.697 -0.2117 -0.0318 -0.1252
  126POPC   NC3 1994   7.869   4.261   8.758 -0.0169  0.0984  0.0125
  126POPC   PO4 1995   7.554   4.108   8.841 -0.1997 -0.0632 -0.1845
  126POPC   GL1 1996   7.428   4.367   8.518 -0.0401  0.0652  0.0130
  126POPC   GL2 1997   7.235   4.683   8.259  0.1191 -0.0076 -0.4232
  126POPC   C1A 1998   7.222   4.177   8.048 -0.2980  0.0687  0.0032
  126POPC   D2A 1999   7.120   4.446   7.686 -0.2078  0.3066  0.2446
  126POPC   C3A 2000   7.279   4.728   7.440 -0.0674 -0.0600  0.2301
  126POPC   C4A 2001   7.625   4.654   7.099  0.2467  0.0562  0.0604
  126POPC   C1B 2002   6.959   4.786   7.993 -0.0788 -0.0585 -0.1388
  126POPC   C2B 2003   6.917   4.981   7.683  0.1206 -0.1091 -0.1247
  126POPC   C3B 2004   6.883   4.962   7.231 -0.3062  0.1522 -0.0716
  126POPC   C4B 2005   6.854   5.215   6.895  0.0627  0.0051  0.0598
  127POPC   NC3 2006   3.957   0.119   9.222 -0.2810 -0.0130 -0.1449
  127POPC   PO4 2007   4.061   0.283   8.807  0.3077  0.0653 -0.2018
  127POPC   GL1 2008   4.326   0.511   8.351 -0.2744  0.4668  0.2494
  127POPC   GL2 2009   4.611   0.483   8.340  0.0046 -0.0150 -0.5042
  127POPC   C1A 2010   3.960   0.696   8.073  0.2415 -0.0237  0.0506
  127POPC   D2A 2011   3.700   0.604   7.710  0.0741 -0.0688 -0.1318
  127POPC   C3A 2012   3.509   0.538   7.347 -0.2535  0.0644 -0.1045
  127POPC   C4A 2013   3.280   0.235   7.101 -0.2123 -0.2276  0.1007
  127POPC   C1B 2014   4.641   0.352   7.958  0.1412 -0.0195  0.1116
  127POPC   C2B 2015   4.534   0.188   7.536  0.1739  0.4375 -0.0642
  127POPC   C3B 2016   4.451   0.218   7.072 -0.0229  0.3822  0.1253
  127POPC   C4B 2017   4.267   0.194   6.767  0.2671  0.1446  0.1446
  128POPC   NC3 2018   0.475   5.305   9.274 -0.1643 -0.0066  0.0782
  128POPC   PO4 2019   0.508   5.557   8.909  0.0724 -0.2096  0.1629
  128POPC   GL1 2020   0.414   5.577   8.472 -0.1151 -0.0437 -0.0865
  128POPC   GL2 2021   0.353   5.789   8.293  0.0986  0.1879  0.0232
  128POPC   C1A 2022   0.296   5.438   8.007 -0.0170  0.1650  0.0878
  128POPC   D2A 2023   0.118   5.548   7.677 -0.1019  0.2158  0.1394
  128POPC   C3A 2024   0.143   5.321   7.359  0.0921 -0.0610  0.2609
  128POPC   C4A 2025   0.094   4.860   7.227  0.2770  0.1902  0.0936
  128POPC   C1B 2026   0.261   6.012   7.959 -0.3914  0.1880  0.2034
  128POPC   C2B 2027   0.171   6.063   7.476  0.1170  0.0715 -0.0235
  128POPC   C3B 2028   0.364   6.037   7.021 -0.0590 -0.0264 -0.0141
  128POPC   C4B 2029   0.592   5.922   6.688  0.1349  0.3759 -0.1951
  129POPC   NC3 2030   9.026   4.501   8.363  0.0090  0.2339 -0.1259
  129POPC   PO4 2031   9.421   4.541   8.674  0.0545  0.2509 -0.4754
  129POPC   GL1 2032   9.537   4.336   8.306 -0.1311  0.2906 -0.0583
  129POPC   GL2 2033   9.245   4.173   8.060 -0.3792  0.0169 -0.1659
  129POPC   C1A 2034   9.810   4.378   7.947 -0.0719 -0.0512  0.0204
  129POPC   D2A 2035   9.701   4.090   7.615 -0.1346  0.1582  0.1286
  129POPC   C3A 2036   9.425   3.908   7.679 -0.1082 -0.1936  0.1128
  129POPC   C4A 2037   9.180   3.747   7.820  0.1324  0.2923  0.0705
  129POPC   C1B 2038   8.992   4.265   7.745 -0.0676 -0.1166 -0.0131
  129POPC   C2B 2039   8.624   4.390   7.402 -0.2047 -0.0498  0.2607
  129POPC   C3B 2040   8.453   4.392   6.962  0.2093  0.2813 -0.0993
  129POPC   C4B 2041   8.362   4.708   6.793 -0.3662  0.0012 -0.1344
  130POPC   NC3 2042   8.106   3.373   8.543 -0.1071  0.0379  0.1793
  130POPC   PO4 2043   7.873   3.111   8.327  0.2731  0.1862 -0.1964
  130POPC   GL1 2044   7.752   2.861   8.066 -0.1572 -0.1273  0.0709
  130POPC   GL2 2045   7.520   2.976   8.024 -0.0520  0.0194 -0.1167
  130POPC   C1A 2046   7.723   2.558   7.741  0.0298  0.1187  0.0784
  130POPC   D2A 2047   7.759   2.614   7.349 -0.3449  0.0004 -0.0618
  130POPC   C3A 2048   8.153   2.906   7.138 -0.0724  0.1386  0.0725
  130POPC   C4A 2049   8.306   2.883   6.751  0.0385 -0.1680 -0.0274
  130POPC   C1B 2050   7.462   2.988   7.595  0.0885  0.1031  0.0912
  130POPC   C2B 2051   7.120   2.907   7.310  0.1122  0.0560 -0.1345
  130POPC   C3B 2052   6.744   2.949   7.085 -0.2382 -0.2741 -0.5724
  130POPC   C4B 2053   6.394   2.870   6.936 -0.0945  0.1138 -0.3354
  131POPC   NC3 2054   8.495   2.542   8.972  0.1838  0.0332 -0.0382
  131POPC   PO4 2055   8.644   2.469   8.633  0.0548 -0.1136  0.1479
  131POPC   GL1 2056   8.670   2.414   8.154  0.0631 -0.1301  0.2007
  131POPC   GL2 2057   8.441   2.125   7.968  0.0244 -0.1579 -0.0180
  131POPC   C1A 2058   8.711   2.546   7.764 -0.0565  0.3394  0.0299
  131POPC   D2A 2059   9.105   2.804   7.672 -0.1030  0.1459  0.1783
  131POPC   C3A 2060   9.352   2.900   7.928 -0.1665  0.0329 -0.1560
  131POPC   C4A 2061   9.676   3.126   8.188  0.0636  0.0831 -0.0285
  131POPC   C1B 2062   8.575   2.095   7.455 -0.1614  0.1331 -0.0719
  131POPC   C2B 2063   8.953   2.090   7.184 -0.3295 -0.2946  0.1163
  131POPC   C3B 2064   9.317   2.232   7.403  0.1871 -0.0479  0.1882
  131POPC   C4B 2065   9.703   2.278   7.208  0.2116 -0.1316 -0.1073
  132POPC   NC3 2066   4.195   1.453   8.725 -0.1007  0.2427 -0.3735
  132POPC   PO4 2067   4.039   1.810   8.884 -0.0463  0.1736  0.1401
  132POPC   GL1 2068   4.021   1.889   8.486  0.3116  0.1147  0.1575
  132POPC   GL2 2069   3.970   1.725   8.180 -0.3527  0.0579  0.3524
  132POPC   C1A 2070   3.906   2.208   8.138 -0.0292 -0.0200  0.0642
  132POPC   D2A 2071   3.856   2.130   7.689 -0.1781 -0.2038  0.0298
  132POPC   C3A 2072   4.082   2.490   7.473 -0.1141  0.0689 -0.2146
  132POPC   C4A 2073   4.068   2.702   7.127 -0.4226 -0.0981 -0.1307
  132POPC   C1B 2074   3.881   1.625   7.795 -0.2795  0.2826 -0.2081
  132POPC   C2B 2075   3.807   1.721   7.449  0.1886  0.0609  0.1738
  132POPC   C3B 2076   3.854   2.016   7.176 -0.0494 -0.0906 -0.0604
  132POPC   C4B 2077   3.672   2.055   6.725 -0.1278  0.0239  0.0858
  133POPC   NC3 2078   3.820  10.238   8.822 -0.4937 -0.0956 -0.1001
  133POPC   PO4 2079   3.947   9.698   8.829 -0.1470 -0.3383  0.0857
  133POPC   GL1 2080   4.040   9.631   8.392  0.2138  0.1999 -0.1445
  133POPC   GL2 2081   4.328   9.467   8.313 -0.4114  0.2400  0.3719
  133POPC   C1A 2082   4.172   9.794   7.953 -0.0913  0.1701 -0.2139
  133POPC   D2A 2083   4.019   9.791   7.543  0.0775 -0.1625  0.3945
  133POPC   C3A 2084   3.546   9.643   7.484  0.0020  0.0568  0.0206
  133POPC   C4A 2085   3.270   9.365   7.278 -0.4024 -0.2489 -0.1517
  133POPC   C1B 2086   4.014   9.132   8.348  0.3609  0.1611  0.0726
  133POPC   C2B 2087   3.882   8.623   8.337  0.2700  0.0733  0.0645
  133POPC   C3B 2088   3.873   8.250   8.604 -0.1135  0.0228  0.4195
  133POPC   C4B 2089   3.760   8.153   9.063  0.0168 -0.1448 -0.2964
  134POPC   NC3 2090   8.284   2.226   8.468 -0.0514 -0.1737 -0.0777
  134POPC   PO4 2091   8.474   1.809   8.378  0.0066 -0.0492  0.1233
  134POPC   GL1 2092   8.666   1.683   8.002 -0.2121  0.2242  0.2470
  134POPC   GL2 2093   8.899   1.826   7.959 -0.1464 -0.0890 -0.1681
  134POPC   C1A 2094   8.602   1.551   7.582  0.0182 -0.2709  0.1024
  134POPC   D2A 2095   8.296   1.561   7.229 -0.1600  0.2333 -0.0419
  134POPC   C3A 2096   8.457   1.989   6.947 -0.0649  0.1172  0.3178
  134POPC   C4A 2097   8.604   2.321   6.738  0.2836 -0.0422 -0.0800
  134POPC   C1B 2098   9.114   1.720   7.591  0.3833 -0.0224  0.3305
  134POPC   C2B 2099   9.297   1.701   7.210 -0.1151  0.4183 -0.0792
  134POPC   C3B 2100   9.485   2.028   6.853  0.0893  0.1411  0.2065
  134POPC   C4B 2101   9.752   2.289   6.688 -0.2205 -0.1182  0.1786
  135POPC   NC3 2102   3.383   2.983   8.746 -0.0302  0.2997  0.2014
  135POPC   PO4 2103   3.045   2.658   8.606 -0.3133 -0.1864  0.0623
  135POPC   GL1 2104   2.918   3.142   8.310 -0.1979  0.0750  0.1490
  135POPC   GL2 2105   3.206   3.324   8.293  0.4056 -0.0600 -0.1858
  135POPC   C1A 2106   2.805   3.129   7.942 -0.0585 -0.1181 -0.2178
  135POPC   D2A 2107   3.063   3.012   7.458 -0.1049 -0.0648 -0.1549
  135POPC   C3A 2108   3.123   2.996   7.083 -0.2052 -0.2765  0.2523
  135POPC   C4A 2109   3.175   3.330   7.053 -0.0249 -0.3529  0.2068
  135POPC   C1B 2110   3.207   3.432   7.861 -0.0687 -0.1789 -0.2073
  135POPC   C2B 2111   2.997   3.456   7.540  0.2566 -0.0423 -0.0407
  135POPC   C3B 2112   2.571   3.309   7.455 -0.3557 -0.1528  0.0803
  135POPC   C4B 2113   2.275   3.125   7.724  0.1626  0.2724  0.1658
  136POPC   NC3 2114   8.190   9.540   8.472 -0.0803 -0.1787 -0.4357
  136POPC   PO4 2115   7.993   9.906   8.618  0.1601 -0.0368  0.0100
  136POPC   GL1 2116   7.821   9.648   8.228  0.1581  0.1339  0.1554
  136POPC   GL2 2117   7.557   9.714   8.209  0.2961  0.1451 -0.1965
  136POPC   C1A 2118   7.837   9.638   7.702 -0.3457 -0.2517 -0.0011
  136POPC   D2A 2119   7.910   9.761   7.262 -0.1497  0.1039  0.0292
  136POPC   C3A 2120   8.128   9.559   7.018  0.2742  0.2647  0.0551
  136POPC   C4A 2121   8.593   9.564   6.892  0.2002  0.0988  0.1597
  136POPC   C1B 2122   7.314   9.628   7.748  0.3458 -0.1889 -0.2957
  136POPC   C2B 2123   7.244   9.600   7.215 -0.1489 -0.2321 -0.1982
  136POPC   C3B 2124   7.111   9.876   6.885  0.4097 -0.0322 -0.1280
  136POPC   C4B 2125   6.936  10.116   6.522 -0.0219 -0.1907 -0.2127
  137POPC   NC3 2126   1.976   9.855   8.683  0.1582  0.0349 -0.2677
  137POPC   PO4 2127   2.459   9.830   8.785  0.0499  0.0049  0.1893
  137POPC   GL1 2128   2.785   9.782   8.413  0.0070  0.2539 -0.2148
  137POPC   GL2 2129   2.722   9.552   8.096  0.1466  0.0056  0.0900
  137POPC   C1A 2130   3.203   9.810   8.193  0.5452  0.0561 -0.2955
  137POPC   D2A 2131   3.487   9.772   7.966 -0.0837 -0.0751  0.1944
  137POPC   C3A 2132   3.524  10.095   7.657  0.0831  0.0827 -0.1515
  137POPC   C4A 2133   3.682  10.292   7.298  0.1000 -0.1956 -0.1112
  137POPC   C1B 2134   2.841   9.073   7.945  0.3561  0.0763  0.0383
  137POPC   C2B 2135   2.706   8.676   7.769 -0.0412  0.1646  0.3006
  137POPC   C3B 2136   2.483   8.566   7.403  0.0131 -0.0515 -0.1580
  137POPC   C4B 2137   2.419   8.415   7.080 -0.1088  0.1787  0.3421
  138POPC   NC3 2138   1.980   6.295   9.695  0.2551  0.1940  0.0795
  138POPC   PO4 2139   2.050   5.990   9.599  0.0432 -0.0562  0.2481
  138POPC   GL1 2140   2.220   5.836   9.230 -0.0882 -0.2715  0.2735
  138POPC   GL2 2141   2.128   6.012   9.000  0.3184 -0.0245 -0.1284
  138POPC   C1A 2142   2.498   5.680   8.872  0.1387  0.0004 -0.0284
  138POPC   D2A 2143   2.959   5.703   8.676 -0.1498  0.0300  0.1096
  138POPC   C3A 2144   3.233   5.895   8.279  0.3162  0.3179  0.0660
  138POPC   C4A 2145   3.322   5.689   7.930  0.1131  0.5434  0.0202
  138POPC   C1B 2146   2.034   5.892   8.649  0.1080 -0.1894 -0.0381
  138POPC   C2B 2147   2.100   6.021   8.111 -0.1170  0.0675 -0.1091
  138POPC   C3B 2148   2.522   6.023   7.862  0.0073 -0.1722  0.3340
  138POPC   C4B 2149   3.013   6.042   7.797  0.1390 -0.1264  0.3970
  139POPC   NC3 2150   5.680   5.563   9.480 -0.0805  0.1744  0.0032
  139POPC   PO4 2151   5.249   5.353   9.601 -0.0888 -0.2890  0.1954
  139POPC   GL1 2152   5.209   5.380   9.209 -0.0771 -0.0134 -0.1271
  139POPC   GL2 2153   5.349   5.593   9.083  0.0642 -0.0486 -0.0979
  139POPC   C1A 2154   5.086   5.054   8.918  0.0294 -0.0765 -0.2804
  139POPC   D2A 2155   4.926   4.670   8.806  0.0290  0.4681  0.0229
  139POPC   C3A 2156   4.680   4.776   8.393  0.0207  0.0834  0.3065
  139POPC   C4A 2157   4.366   5.002   8.127  0.1716 -0.2443  0.0044
  139POPC   C1B 2158   5.497   5.556   8.639 -0.0084  0.2703  0.0969
  139POPC   C2B 2159   5.507   5.638   8.236  0.0808 -0.1263  0.1913
  139POPC   C3B 2160   5.609   5.442   7.795 -0.2549 -0.2056  0.2577
  139POPC   C4B 2161   5.510   4.988   7.746  0.1070 -0.1734  0.2628
  140POPC   NC3 2162   8.833   6.102   9.151  0.0544 -0.0715 -0.0177
  140POPC   PO4 2163   8.757   6.233   8.707 -0.0809 -0.1768 -0.1300
  140POPC   GL1 2164   8.548   6.233   8.249  0.1790  0.1038  0.0281
  140POPC   GL2 2165   8.593   6.039   8.068 -0.2244  0.0699 -0.2054
  140POPC   C1A 2166   8.531   6.470   7.828 -0.1072  0.4800  0.1191
  140POPC   D2A 2167   8.610   6.418   7.475 -0.0613 -0.0346 -0.0949
  140POPC   C3A 2168   8.942   6.535   7.249 -0.1021 -0.0678 -0.0720
  140POPC   C4A 2169   9.286   6.791   7.392 -0.2628 -0.0565  0.2609
  140POPC   C1B 2170   8.779   5.814   7.738 -0.0791 -0.0377  0.2124
  140POPC   C2B 2171   8.993   5.807   7.327 -0.0371  0.0566  0.1058
  140POPC   C3B 2172   9.356   5.714   7.113  0.0116  0.2166 -0.0599
  140POPC   C4B 2173   9.671   5.540   6.912  0.0024 -0.0858  0.0357
  141POPC   NC3 2174   5.703   8.663   9.367 -0.4360 -0.0629  0.0848
  141POPC   PO4 2175   5.732   8.316   9.144 -0.1318  0.0699  0.0233
  141POPC   GL1 2176   5.592   8.440   8.742 -0.2919  0.1554 -0.0997
  141POPC   GL2 2177   5.824   8.454   8.511  0.0384 -0.0858  0.2635
  141POPC   C1A 2178   5.417   8.190   8.396  0.3469 -0.4337  0.1215
  141POPC   D2A 2179   5.110   8.268   8.123  0.3340 -0.1892  0.4378
  141POPC   C3A 2180   5.317   8.297   7.701  0.0469  0.3157  0.0811
  141POPC   C4A 2181   5.359   8.241   7.207  0.0110 -0.0601  0.0023
  141POPC   C1B 2182   5.826   8.378   8.140  0.1815 -0.2601 -0.0700
  141POPC   C2B 2183   5.836   8.399   7.664  0.1285 -0.0117  0.0575
  141POPC   C3B 2184   5.907   8.197   7.296 -0.2133 -0.4151  0.2585
  141POPC   C4B 2185   5.839   7.851   7.007 -0.1339  0.2751  0.0617
  142POPC   NC3 2186   1.043   0.642   8.254  0.2805  0.1230  0.0645
  142POPC   PO4 2187   0.929   1.038   8.211  0.2658 -0.0824 -0.1854
  142POPC   GL1 2188   1.046   0.830   7.767  0.2893 -0.0170  0.1588
  142POPC   GL2 2189   1.256   0.607   7.809  0.0604  0.2755  0.2991
  142POPC   C1A 2190   0.905   0.745   7.341 -0.1055 -0.0604  0.1443
  142POPC   D2A 2191   1.172   0.868   7.052 -0.4098 -0.2725 -0.0923
  142POPC   C3A 2192   1.167   0.647   6.584  0.3634 -0.0962 -0.2775
  142POPC   C4A 2193   0.998   0.335   6.285  0.1896  0.2507  0.4467
  142POPC   C1B 2194   1.412   0.575   7.378 -0.0124 -0.0370 -0.0109
  142POPC   C2B 2195   1.668   0.854   7.149  0.0603 -0.0044  0.0232
  142POPC   C3B 2196   1.832   1.228   7.022  0.0143  0.0437  0.0326
  142POPC   C4B 2197   2.031   1.506   6.774  0.0039 -0.0486 -0.2762
  143POPC   NC3 2198   0.089   9.714   8.539 -0.1965  0.2991 -0.1627
  143POPC   PO4 2199   0.430   9.455   8.318 -0.1798 -0.0831  0.2565
  143POPC   GL1 2200   0.609   9.366   7.966 -0.1561 -0.2721  0.4577
  143POPC   GL2 2201   0.424   9.049   7.848 -0.1863 -0.2740  0.0043
  143POPC   C1A 2202   0.939   9.459   7.614 -0.4960  0.0266  0.2362
  143POPC   D2A 2203   1.531   9.427   7.504  0.0935 -0.0759 -0.0447
  143POPC   C3A 2204   1.688   9.024   7.390  0.0949 -0.1978  0.0461
  143POPC   C4A 2205   1.700   8.758   7.785  0.2073  0.0357 -0.0217
  143POPC   C1B 2206   0.749   8.965   7.500  0.5562  0.2525  0.2390
  143POPC   C2B 2207   0.645   8.945   7.101 -0.1035 -0.1598 -0.0247
  143POPC   C3B 2208   0.471   8.699   6.805  0.1175 -0.2148  0.1913
  143POPC   C4B 2209   0.393   8.851   6.419  0.1506  0.1167 -0.0345
  144POPC   NC3 2210   6.413  10.105   9.561 -0.1771  0.0062 -0.0981
  144POPC   PO4 2211   6.120   9.995   9.211 -0.0758  0.1690  0.2257
  144POPC   GL1 2212   6.103   9.962   8.805 -0.2119 -0.1209  0.0448
  144POPC   GL2 2213   6.138  10.212   8.695 -0.2781  0.3142 -0.0993
  144POPC   C1A 2214   6.042   9.655   8.464  0.1244 -0.3141 -0.0025
  144POPC   D2A 2215   5.955   9.337   8.214  0.0333 -0.0381  0.3639
  144POPC   C3A 2216   5.682   8.934   8.283  0.0026 -0.2625  0.2400
  144POPC   C4A 2217   5.386   8.639   8.089  0.0393 -0.0916  0.1378
  144POPC   C1B 2218   6.239  10.092   8.296  0.0882 -0.1128 -0.0891
  144POPC   C2B 2219   6.373   9.675   8.038 -0.0948 -0.1443  0.0843
  144POPC   C3B 2220   6.389   9.277   7.888 -0.3689  0.2222  0.0178
  144POPC   C4B 2221   6.426   9.011   7.553 -0.0208  0.1206 -0.0255
  145POPC   NC3 2222   9.192   9.211   8.732  0.0523  0.1344 -0.0786
  145POPC   PO4 2223   9.072   8.793   8.431  0.0379  0.0764  0.4798
  145POPC   GL1 2224   8.776   8.978   8.070  0.0300  0.2153 -0.3221
  145POPC   GL2 2225   8.730   8.716   7.798  0.1142 -0.0571  0.3539
  145POPC   C1A 2226   8.634   9.244   7.732 -0.0478  0.4332  0.0059
  145POPC   D2A 2227   8.696   9.412   7.340 -0.0868 -0.2591 -0.0791
  145POPC   C3A 2228   8.939   9.873   7.318 -0.1668  0.0555  0.1944
  145POPC   C4A 2229   9.076  10.234   7.220  0.2518  0.0047  0.1208
  145POPC   C1B 2230   9.004   9.016   7.443  0.1563 -0.0246  0.0467
  145POPC   C2B 2231   9.006   9.232   7.002 -0.0041 -0.0753 -0.2620
  145POPC   C3B 2232   9.022   9.263   6.581 -0.3024  0.0255  0.0148
  145POPC   C4B 2233   8.820   9.247   6.254  0.0679  0.2165 -0.0081
  146POPC   NC3 2234   7.366   8.290   8.428  0.1988 -0.2644 -0.0046
  146POPC   PO4 2235   6.861   8.484   8.363 -0.0416  0.0405 -0.0560
  146POPC   GL1 2236   6.860   8.253   8.033  0.0870  0.1315 -0.1063
  146POPC   GL2 2237   7.164   8.038   8.014  0.3493 -0.4893  0.1817
  146POPC   C1A 2238   6.736   8.150   7.636 -0.1362 -0.0790  0.0714
  146POPC   D2A 2239   6.626   8.160   7.227 -0.5431  0.3183  0.1931
  146POPC   C3A 2240   6.460   7.836   7.034  0.1256  0.1956  0.1697
  146POPC   C4A 2241   6.363   7.577   6.515  0.0363 -0.0867  0.0220
  146POPC   C1B 2242   6.944   7.724   7.820 -0.2484 -0.0472 -0.0157
  146POPC   C2B 2243   6.695   7.610   7.425  0.0922 -0.0256  0.0151
  146POPC   C3B 2244   6.585   7.400   6.960 -0.0476 -0.1040 -0.5346
  146POPC   C4B 2245   6.853   7.354   6.595  0.2447  0.0364  0.0037
  147POPC   NC3 2246   4.910   4.993   9.507  0.2055  0.0619 -0.2899
  147POPC   PO4 2247   4.513   5.317   9.578 -0.1387 -0.2004  0.4002
  147POPC   GL1 2248   4.702   5.400   9.180 -0.0405  0.1031 -0.2479
  147POPC   GL2 2249   4.751   5.762   9.351 -0.0898 -0.1453 -0.1938
  147POPC   C1A 2250   4.854   5.578   8.867  0.0428  0.0562  0.1560
  147POPC   D2A 2251   4.972   5.790   8.453 -0.0619  0.2845  0.3403
  147POPC   C3A 2252   4.773   6.137   8.316 -0.0561  0.0388 -0.0200
  147POPC   C4A 2253   4.640   6.467   7.982 -0.0231  0.1859 -0.0243
  147POPC   C1B 2254   4.607   6.204   9.159 -0.0578  0.0360 -0.3238
  147POPC   C2B 2255   4.558   6.266   8.711 -0.5022  0.0473  0.0655
  147POPC   C3B 2256   4.308   6.250   8.323  0.0591  0.1564 -0.0828
  147POPC   C4B 2257   4.465   5.953   7.925 -0.1737  0.0845  0.2015
  148POPC   NC3 2258   1.604   3.699   9.255  0.0305  0.1299 -0.3910
  148POPC   PO4 2259   1.566   3.856   8.842 -0.1012 -0.1656 -0.2584
  148POPC   GL1 2260   1.567   3.744   8.488 -0.0049 -0.0329  0.3170
  148POPC   GL2 2261   1.635   3.444   8.500  0.2393  0.1398 -0.0170
  148POPC   C1A 2262   1.647   3.802   8.111  0.0190 -0.0517  0.2629
  148POPC   D2A 2263   1.655   3.603   7.649  0.0275  0.1185  0.3724
  148POPC   C3A 2264   1.355   3.562   7.268 -0.0552  0.4062  0.1934
  148POPC   C4A 2265   1.166   3.307   6.915  0.1458 -0.0910 -0.1284
  148POPC   C1B 2266   1.301   3.412   8.177 -0.0616 -0.0012  0.0065
  148POPC   C2B 2267   1.229   3.292   7.783 -0.1491  0.0647 -0.0112
  148POPC   C3B 2268   1.198   3.033   7.406 -0.2763 -0.1336  0.2135
  148POPC   C4B 2269   0.842   2.875   7.192 -0.0077  0.2554 -0.1727
  149POPC   NC3 2270   9.655   9.314   8.730  0.1267  0.0845  0.2389
  149POPC   PO4 2271   9.517   9.644   8.589  0.2137  0.1583  0.0176
  149POPC   GL1 2272   9.387   9.761   8.091 -0.0012 -0.1004  0.0720
  149POPC   GL2 2273   9.658   9.881   7.911  0.0442 -0.0703  0.0911
  149POPC   C1A 2274   9.064   9.677   7.866  0.1495 -0.3146 -0.4874
  149POPC   D2A 2275   9.218   9.476   7.503 -0.0167 -0.0634  0.2645
  149POPC   C3A 2276   9.460   9.158   7.428 -0.0714  0.0277  0.1727
  149POPC   C4A 2277   9.733   8.936   7.197  0.3270 -0.1138  0.0463
  149POPC   C1B 2278   9.590   9.414   7.826 -0.0002 -0.0806  0.0854
  149POPC   C2B 2279   9.785   9.061   7.964  0.0093 -0.2089 -0.1170
  149POPC   C3B 2280   9.724   8.809   7.781  0.1667  0.0207 -0.0254
  149POPC   C4B 2281   9.707   8.433   7.606  0.0839  0.0046  0.2240
  150POPC   NC3 2282   7.621   2.417   8.879  0.1467  0.1521 -0.2094
  150POPC   PO4 2283   7.536   2.025   8.613  0.2190  0.2658 -0.0072
  150POPC   GL1 2284   7.479   1.895   8.254 -0.0243  0.0683 -0.0649
  150POPC   GL2 2285   7.222   1.642   8.126  0.0266 -0.0525  0.2896
  150POPC   C1A 2286   7.600   1.721   7.809 -0.2423  0.1623 -0.1920
  150POPC   D2A 2287   7.366   1.490   7.364  0.2906  0.3146  0.1702
  150POPC   C3A 2288   7.362   1.024   7.286 -0.0380  0.0742  0.0182
  150POPC   C4A 2289   7.179   0.622   7.349 -0.3414 -0.0336 -0.3744
  150POPC   C1B 2290   7.035   1.642   7.745  0.0399 -0.0730 -0.1766
  150POPC   C2B 2291   6.668   1.796   7.423  0.3707 -0.1768 -0.2374
  150POPC   C3B 2292   6.475   2.009   7.041 -0.2862 -0.1533 -0.1257
  150POPC   C4B 2293   6.686   1.965   6.627  0.0605  0.0465  0.2187
  151POPC   NC3 2294   0.648   9.497   8.770 -0.1850  0.0782 -0.1525
  151POPC   PO4 2295   0.928   9.585   8.426  0.0416  0.0254  0.1146
  151POPC   GL1 2296   1.020   9.144   8.055  0.0602 -0.0014 -0.1750
  151POPC   GL2 2297   0.897   8.818   8.060 -0.1819 -0.0602 -0.0414
  151POPC   C1A 2298   1.232   8.985   7.672 -0.4494  0.0626  0.1847
  151POPC   D2A 2299   1.159   9.180   7.261 -0.2626  0.0243  0.5024
  151POPC   C3A 2300   1.361   9.128   6.882  0.0295 -0.3778 -0.1735
  151POPC   C4A 2301   1.594   9.390   6.597  0.2384 -0.2404  0.0163
  151POPC   C1B 2302   1.192   8.544   7.950 -0.3311 -0.0870  0.1362
  151POPC   C2B 2303   1.484   8.209   7.784  0.1408 -0.0609 -0.1529
  151POPC   C3B 2304   1.924   7.962   7.793 -0.0523  0.1788 -0.0036
  151POPC   C4B 2305   2.237   8.113   8.180 -0.1818  0.0931 -0.3068
  152POPC   NC3 2306   2.212   4.951   9.484 -0.0276 -0.2583  0.2689
  152POPC   PO4 2307   2.063   5.289   9.263 -0.0504 -0.0337 -0.3081
  152POPC   GL1 2308   2.074   5.460   8.879  0.0525  0.0154  0.0326
  152POPC   GL2 2309   1.794   5.316   8.665  0.0448 -0.0500 -0.3391
  152POPC   C1A 2310   1.951   5.552   8.294  0.1282  0.1649 -0.0471
  152POPC   D2A 2311   2.252   5.582   7.891 -0.2128  0.1088  0.0435
  152POPC   C3A 2312   2.384   5.347   7.609 -0.0944 -0.2673 -0.0527
  152POPC   C4A 2313   2.653   5.072   7.330 -0.3769 -0.3395  0.4286
  152POPC   C1B 2314   1.555   5.074   8.378  0.1160 -0.0968  0.0090
  152POPC   C2B 2315   1.464   4.849   8.039  0.1434  0.0016 -0.0701
  152POPC   C3B 2316   1.731   4.631   7.666  0.1051 -0.0682 -0.1799
  152POPC   C4B 2317   2.158   4.551   7.384  0.0033  0.0303  0.1878
  153POPC   NC3 2318   0.126   1.663   8.511  0.0651  0.1968  0.0786
  153POPC   PO4 2319   0.564   1.991   8.482 -0.0290  0.0939 -0.4767
  153POPC   GL1 2320   0.401   1.939   8.063  0.0438 -0.2467 -0.0956
  153POPC   GL2 2321   0.565   2.138   7.855  0.1538 -0.3381  0.0637
  153POPC   C1A 2322   0.194   1.481   7.801 -0.2019  0.4323  0.1571
  153POPC   D2A 2323  -0.016   1.029   7.621  0.1619  0.2284 -0.2175
  153POPC   C3A 2324  -0.051   0.553   7.491 -0.0032 -0.1375 -0.2352
  153POPC   C4A 2325  -0.142   0.309   7.075  0.0370 -0.0783  0.1174
  153POPC   C1B 2326   0.699   2.282   7.424  0.1017 -0.1707  0.0022
  153POPC   C2B 2327   0.707   2.428   6.970  0.1269  0.0026  0.2267
  153POPC   C3B 2328   0.428   2.806   6.909 -0.0065  0.1594  0.2866
  153POPC   C4B 2329   0.024   3.024   6.878  0.1758  0.2701  0.1460
  154POPC   NC3 2330   0.974   9.980   8.690 -0.1507  0.0414  0.0817
  154POPC   PO4 2331   0.537   9.974   8.661  0.3493  0.0776 -0.1318
  154POPC   GL1 2332   0.648  10.017   8.235 -0.2897  0.0908  0.0938
  154POPC   GL2 2333   0.319   9.904   8.069 -0.1895 -0.2201  0.0252
  154POPC   C1A 2334   0.716   9.846   7.823  0.0725 -0.1572 -0.2493
  154POPC   D2A 2335   0.260   9.606   7.671  0.2460 -0.1816 -0.0755
  154POPC   C3A 2336   0.356   9.274   7.393 -0.0566  0.1178  0.0486
  154POPC   C4A 2337   0.266   9.158   6.843  0.1657  0.1348 -0.1990
  154POPC   C1B 2338   0.164  10.155   7.684 -0.0528  0.0466  0.3420
  154POPC   C2B 2339  -0.040   9.935   7.344  0.0657 -0.2526  0.0200
  154POPC   C3B 2340  -0.289   9.859   6.877 -0.4096  0.1474  0.0346
  154POPC   C4B 2341  -0.336   9.922   6.479 -0.0108  0.2146  0.2734
  155POPC   NC3 2342   3.007   9.671   8.904  0.2523 -0.4453  0.0556
  155POPC   PO4 2343   3.356   9.612   9.083 -0.0150 -0.1001 -0.0016
  155POPC   GL1 2344   3.532   9.526   8.625 -0.0709 -0.0188 -0.0335
  155POPC   GL2 2345   3.522   9.937   8.521 -0.0715 -0.1735  0.1070
  155POPC   C1A 2346   3.532   9.324   8.198 -0.0340  0.0646 -0.1550
  155POPC   D2A 2347   3.577   8.986   7.989  0.1437 -0.1497  0.2458
  155POPC   C3A 2348   3.532   8.920   7.570  0.4012 -0.0871 -0.1465
  155POPC   C4A 2349   3.529   8.738   7.158  0.1173 -0.2166  0.1831
  155POPC   C1B 2350   3.793  10.187   8.126  0.2344  0.1487  0.3398
  155POPC   C2B 2351   4.057  10.277   7.643 -0.1312 -0.1816 -0.0575
  155POPC   C3B 2352   4.222  10.262   7.234  0.2019  0.1636  0.0140
  155POPC   C4B 2353   4.173   9.914   6.988 -0.3747 -0.1242  0.2315
  156POPC   NC3 2354   9.897   3.339   9.069 -0.2558 -0.2598  0.2288
  156POPC   PO4 2355   9.507   3.600   8.892 -0.0134 -0.1607 -0.2972
  156POPC   GL1 2356   9.411   3.472   8.432  0.1641  0.2974 -0.3945
  156POPC   GL2 2357   9.627   3.853   8.180  0.0509  0.3922 -0.1033
  156POPC   C1A 2358   9.173   3.312   8.134 -0.4428  0.2293  0.1591
  156POPC   D2A 2359   8.711   3.247   7.767  0.0601  0.3476 -0.1555
  156POPC   C3A 2360   8.831   3.537   7.482 -0.1840  0.0391 -0.0536
  156POPC   C4A 2361   8.873   3.975   7.366  0.1512  0.0233 -0.1215
  156POPC   C1B 2362   9.646   3.499   7.874 -0.1556 -0.0852  0.1743
  156POPC   C2B 2363   9.350   3.320   7.645 -0.3348 -0.0491 -0.1129
  156POPC   C3B 2364   9.033   3.139   7.305  0.0409  0.0359 -0.2577
  156POPC   C4B 2365   8.610   3.002   7.253  0.3153 -0.3021  0.0804
  157POPC   NC3 2366   9.472   6.542   8.535 -0.1663 -0.2002  0.0730
  157POPC   PO4 2367   9.479   6.063   8.455 -0.0202  0.1404 -0.2270
  157POPC   GL1 2368   9.559   6.222   8.015 -0.2835 -0.0255 -0.3227
  157POPC   GL2 2369   9.664   6.590   8.038  0.0129  0.2030  0.1780
  157POPC   C1A 2370  10.001   6.227   7.909  0.3069 -0.1163 -0.1275
  157POPC   D2A 2371  10.270   6.055   7.827  0.0539  0.0309 -0.0799
  157POPC   C3A 2372  10.213   5.757   7.414 -0.4283  0.1758 -0.0316
  157POPC   C4A 2373  10.317   5.927   7.037 -0.0286 -0.0583 -0.0034
  157POPC   C1B 2374   9.757   6.593   7.575  0.1341  0.1500  0.1703
  157POPC   C2B 2375   9.911   6.658   7.232 -0.1714 -0.2389  0.0429
  157POPC   C3B 2376  10.102   6.857   6.851 -0.1561 -0.1274  0.2135
  157POPC   C4B 2377  10.365   7.247   6.749  0.3757 -0.2125  0.1984
  158POPC   NC3 2378   0.550   6.556   9.349  0.1082  0.1301 -0.1856
  158POPC   PO4 2379   0.779   6.914   9.536 -0.0846 -0.1522 -0.0727
  158POPC   GL1 2380   0.854   6.869   9.001  0.1371 -0.1582  0.0158
  158POPC   GL2 2381   0.606   7.016   8.805 -0.0804  0.3461  0.4502
  158POPC   C1A 2382   1.088   6.683   8.573 -0.0834 -0.1613 -0.2796
  158POPC   D2A 2383   1.534   6.663   8.411 -0.2368 -0.2149  0.2145
  158POPC   C3A 2384   1.904   6.807   8.500 -0.1415 -0.0154  0.0278
  158POPC   C4A 2385   2.033   7.217   8.565 -0.0912  0.0687  0.0499
  158POPC   C1B 2386   0.573   6.840   8.289 -0.1407 -0.0600  0.0554
  158POPC   C2B 2387   0.359   6.936   8.026 -0.0348  0.0093  0.2200
  158POPC   C3B 2388   0.266   7.038   7.591  0.0413 -0.1857  0.0906
  158POPC   C4B 2389  -0.052   6.906   7.220  0.0255  0.1136  0.0407
  159POPC   NC3 2390   6.329   6.745   9.783 -0.1570 -0.0998 -0.0296
  159POPC   PO4 2391   6.500   6.902   9.379 -0.0291 -0.3187  0.4539
  159POPC   GL1 2392   6.285   7.012   9.003  0.0041 -0.2302 -0.0386
  159POPC   GL2 2393   6.469   7.141   8.628  0.0710 -0.0965  0.0689
  159POPC   C1A 2394   6.026   6.948   8.613 -0.0267  0.0088 -0.3331
  159POPC   D2A 2395   5.655   6.998   8.493 -0.0622  0.0305 -0.0249
  159POPC   C3A 2396   5.629   7.256   8.268  0.0065 -0.1758 -0.0562
  159POPC   C4A 2397   5.754   7.413   7.848 -0.3245 -0.2462  0.2453
  159POPC   C1B 2398   6.334   6.928   8.266 -0.1788 -0.3348 -0.0291
  159POPC   C2B 2399   5.970   6.932   8.016 -0.0438 -0.2520  0.2130
  159POPC   C3B 2400   5.864   7.006   7.560 -0.0646 -0.1820 -0.2980
  159POPC   C4B 2401   5.661   7.234   7.202  0.2854  0.1380 -0.0956
  160POPC   NC3 2402   3.702   8.933   9.817  0.1428 -0.0905 -0.1405
  160POPC   PO4 2403   4.025   8.663   9.586  0.1046 -0.2656 -0.1752
  160POPC   GL1 2404   4.172   8.431   9.301  0.1459  0.4105  0.1426
  160POPC   GL2 2405   4.446   8.265   9.386 -0.2547 -0.0410  0.3652
  160POPC   C1A 2406   4.240   8.361   8.894 -0.2551 -0.2466 -0.1645
  160POPC   D2A 2407   4.406   8.438   8.458  0.2324  0.3628 -0.1915
  160POPC   C3A 2408   4.194   8.254   8.124 -0.3672  0.2791  0.2597
  160POPC   C4A 2409   3.984   8.045   8.055  0.4212  0.0681 -0.3567
  160POPC   C1B 2410   4.346   7.959   9.125  0.0448  0.2873 -0.2099
  160POPC   C2B 2411   3.940   7.722   9.281 -0.1076 -0.0203  0.0189
  160POPC   C3B 2412   3.828   7.293   9.486 -0.1898  0.0536 -0.2371
  160POPC   C4B 2413   3.487   7.093   9.610 -0.2490  0.3262  0.0094
  161POPC   NC3 2414   2.827   0.305   8.700 -0.2278  0.2080  0.0949
  161POPC   PO4 2415   2.562   0.474   8.364 -0.1401  0.0671 -0.1536
  161POPC   GL1 2416   2.269   0.318   8.052 -0.3029  0.0933  0.1564
  161POPC   GL2 2417   2.134   0.602   7.924  0.0774  0.0405 -0.0921
  161POPC   C1A 2418   2.283   0.173   7.530  0.3276  0.0011 -0.0955
  161POPC   D2A 2419   2.249   0.003   7.149 -0.2422  0.0306 -0.0067
  161POPC   C3A 2420   1.908  -0.075   7.005  0.1797 -0.0606 -0.0305
  161POPC   C4A 2421   1.599  -0.175   6.669 -0.0950 -0.2513  0.1292
  161POPC   C1B 2422   2.166   0.855   7.574 -0.1173 -0.2200  0.0479
  161POPC   C2B 2423   2.221   0.997   7.092  0.1097  0.1104 -0.1154
  161POPC   C3B 2424   2.483   0.892   6.788 -0.0770  0.0099 -0.0839
  161POPC   C4B 2425   2.606   1.093   6.475  0.1546  0.1424  0.0944
  162POPC   NC3 2426   4.838   7.557   9.675 -0.1914  0.2046 -0.0649
  162POPC   PO4 2427   5.339   7.689   9.708  0.3289 -0.1297  0.1762
  162POPC   GL1 2428   5.299   7.774   9.200  0.1493 -0.2962  0.2204
  162POPC   GL2 2429   5.292   8.086   8.991  0.1473 -0.2184 -0.0736
  162POPC   C1A 2430   4.988   7.501   9.019 -0.1377 -0.1575 -0.2344
  162POPC   D2A 2431   4.762   7.228   8.921  0.1374 -0.2221  0.1460
  162POPC   C3A 2432   4.704   7.257   8.468 -0.3060  0.2369 -0.0756
  162POPC   C4A 2433   4.522   7.023   8.112  0.0147  0.1767 -0.3113
  162POPC   C1B 2434   5.229   7.817   8.629  0.0115  0.0906 -0.2771
  162POPC   C2B 2435   4.988   7.694   8.349 -0.2431 -0.1202  0.1076
  162POPC   C3B 2436   5.069   7.357   8.102  0.1585 -0.1808 -0.0400
  162POPC   C4B 2437   5.243   7.332   7.697  0.1698 -0.0239  0.0452
  163POPC   NC3 2438   1.512   7.325   9.358  0.0647 -0.1391 -0.0465
  163POPC   PO4 2439   1.743   7.460   9.130  0.2433 -0.0454  0.2037
  163POPC   GL1 2440   2.064   7.135   9.198  0.0863 -0.0259  0.3150
  163POPC   GL2 2441   2.265   7.388   9.059  0.0633 -0.1382  0.2590
  163POPC   C1A 2442   2.351   6.836   8.994 -0.2388  0.1617  0.0411
  163POPC   D2A 2443   2.421   6.815   8.584 -0.0186 -0.0261 -0.0286
  163POPC   C3A 2444   2.590   6.563   8.327  0.0368 -0.0501 -0.0754
  163POPC   C4A 2445   2.860   6.335   8.116 -0.2900 -0.1605  0.0420
  163POPC   C1B 2446   2.500   7.661   8.875  0.0420 -0.1539  0.0117
  163POPC   C2B 2447   2.802   7.582   8.709 -0.1948 -0.5261  0.2178
  163POPC   C3B 2448   3.164   7.524   8.420  0.4238 -0.4325  0.2914
  163POPC   C4B 2449   3.589   7.397   8.563  0.1873 -0.2060 -0.0922
  164POPC   NC3 2450   8.785   5.082   8.913  0.2520  0.2009  0.0502
  164POPC   PO4 2451   8.638   4.693   8.752  0.1179 -0.2938 -0.0453
  164POPC   GL1 2452   8.515   4.574   8.392  0.0732  0.1433 -0.0489
  164POPC   GL2 2453   8.684   4.277   8.134  0.2442  0.0891  0.2835
  164POPC   C1A 2454   8.161   4.578   8.069 -0.3926 -0.1091  0.2940
  164POPC   D2A 2455   8.218   4.665   7.700 -0.3311 -0.3571 -0.0754
  164POPC   C3A 2456   8.112   4.726   7.238 -0.1630  0.1910  0.1090
  164POPC   C4A 2457   7.945   5.165   6.903 -0.1157  0.3207 -0.0123
  164POPC   C1B 2458   8.461   4.237   7.824 -0.4628 -0.2311  0.2413
  164POPC   C2B 2459   8.135   4.278   7.385 -0.1716  0.1379  0.2640
  164POPC   C3B 2460   7.969   4.224   6.975 -0.4477 -0.0142  0.0412
  164POPC   C4B 2461   7.900   4.614   6.662  0.1566 -0.0362  0.3043
  165POPC   NC3 2462  10.216   7.327   8.425 -0.0900  0.2223  0.0014
  165POPC   PO4 2463  10.019   7.616   8.443  0.1549  0.0852  0.0022
  165POPC   GL1 2464  10.080   7.607   8.047  0.0141 -0.3061 -0.2925
  165POPC   GL2 2465  10.352   7.691   7.837 -0.1379 -0.1797 -0.1089
  165POPC   C1A 2466   9.753   7.547   7.649  0.1013 -0.0084 -0.5418
  165POPC   D2A 2467   9.616   7.650   7.283  0.0801 -0.1714 -0.0128
  165POPC   C3A 2468   9.541   8.125   7.156 -0.1050  0.1818  0.0079
  165POPC   C4A 2469   9.670   8.525   6.960  0.0437 -0.0761 -0.0072
  165POPC   C1B 2470  10.504   7.783   7.481 -0.2428 -0.0850  0.0416
  165POPC   C2B 2471  10.746   7.689   7.043  0.2143  0.0962  0.1101
  165POPC   C3B 2472  10.795   7.559   6.581 -0.0699 -0.2867 -0.2679
  165POPC   C4B 2473  10.850   7.399   6.210  0.0382  0.3172  0.1003
  166POPC   NC3 2474   8.373   8.651   8.354  0.0161 -0.1717  0.1344
  166POPC   PO4 2475   8.272   8.297   8.472  0.0579 -0.0823  0.1361
  166POPC   GL1 2476   8.141   8.303   7.992  0.0904  0.1777 -0.0891
  166POPC   GL2 2477   8.460   8.297   7.789  0.0546 -0.0392 -0.1355
  166POPC   C1A 2478   8.126   8.345   7.467  0.2027  0.2203 -0.3176
  166POPC   D2A 2479   8.270   8.326   7.015 -0.0743 -0.5064  0.1030
  166POPC   C3A 2480   8.474   8.660   6.735  0.3747 -0.2720 -0.2032
  166POPC   C4A 2481   8.554   9.040   6.649 -0.0783 -0.1308  0.0636
  166POPC   C1B 2482   8.854   8.316   7.404  0.3686 -0.1451 -0.0898
  166POPC   C2B 2483   8.991   7.930   7.307  0.0633  0.4591 -0.1476
  166POPC   C3B 2484   8.805   7.584   7.246  0.0112  0.2962  0.2288
  166POPC   C4B 2485   8.541   7.414   6.867  0.0128  0.0806 -0.0739
  167POPC   NC3 2486   2.930   6.073   9.913 -0.1805  0.1205 -0.3060
  167POPC   PO4 2487   2.937   5.628   9.747 -0.0151 -0.0152  0.0060
  167POPC   GL1 2488   2.960   5.520   9.268 -0.2325  0.0847 -0.1619
  167POPC   GL2 2489   3.223   5.403   9.136  0.0278 -0.4539  0.1560
  167POPC   C1A 2490   2.726   5.274   8.936 -0.1229 -0.1447  0.1587
  167POPC   D2A 2491   2.895   5.204   8.573 -0.1666  0.3657  0.0917
  167POPC   C3A 2492   2.970   5.473   8.200 -0.0149 -0.1546 -0.0112
  167POPC   C4A 2493   2.827   5.612   7.722 -0.0074 -0.1955  0.1490
  167POPC   C1B 2494   3.389   5.510   8.758  0.3145 -0.0275 -0.0348
  167POPC   C2B 2495   3.530   5.419   8.298 -0.0604 -0.2286  0.2401
  167POPC   C3B 2496   3.983   5.471   8.144  0.1000  0.4095  0.0351
  167POPC   C4B 2497   4.359   5.474   7.864  0.1159 -0.2679 -0.0667
  168POPC   NC3 2498  10.423   9.093   4.671 -0.2555  0.2252 -0.2553
  168POPC   PO4 2499  10.012   8.968   4.697  0.3048  0.2293 -0.2437
  168POPC   GL1 2500  10.032   8.760   5.019 -0.4144 -0.1286 -0.1945
  168POPC   GL2 2501   9.728   8.612   5.063  0.1048 -0.0760  0.2378
  168POPC   C1A 2502  10.145   8.680   5.358  0.0254  0.0274  0.4113
  168POPC   D2A 2503  10.185   8.394   5.673 -0.2688  0.0422 -0.0418
  168POPC   C3A 2504   9.988   8.594   6.038 -0.0202 -0.1050  0.0651
  168POPC   C4A 2505  10.059   8.571   6.448 -0.0482  0.1401 -0.1763
  168POPC   C1B 2506  10.072   8.258   5.124 -0.0881 -0.1297 -0.1050
  168POPC   C2B 2507  10.097   7.912   5.447  0.0056 -0.0752 -0.0495
  168POPC   C3B 2508  10.042   7.891   5.934  0.1138 -0.3751  0.3460
  168POPC   C4B 2509  10.200   8.135   6.250 -0.0731  0.1732  0.0115
  169POPC   NC3 2510   2.374   0.889   4.636 -0.2273 -0.0961  0.0999
  169POPC   PO4 2511   1.930   0.805   4.778  0.3319  0.3259 -0.1408
  169POPC   GL1 2512   2.121   0.790   5.173  0.2004  0.0747  0.1773
  169POPC   GL2 2513   2.259   1.079   5.193  0.1380  0.0255 -0.2527
  169POPC   C1A 2514   2.220   0.722   5.524 -0.0150 -0.0388  0.2322
  169POPC   D2A 2515   2.531   0.724   5.905  0.1453  0.1688 -0.0107
  169POPC   C3A 2516   2.831   0.350   6.041  0.4373  0.0783  0.0705
  169POPC   C4A 2517   3.246   0.350   6.342 -0.1405 -0.0393 -0.3604
  169POPC   C1B 2518   2.262   1.192   5.660 -0.2831 -0.1026  0.1489
  169POPC   C2B 2519   2.123   1.050   6.092  0.1136 -0.0520 -0.1900
  169POPC   C3B 2520   1.679   1.056   6.253  0.0101  0.0916 -0.0133
  169POPC   C4B 2521   1.468   1.029   6.650  0.2877 -0.0184 -0.1992
  170POPC   NC3 2522   8.268   8.226   4.352  0.1107 -0.1454  0.1272
  170POPC   PO4 2523   8.078   7.861   4.527  0.1713  0.1541 -0.2804
  170POPC   GL1 2524   8.210   7.680   4.934  0.0200  0.2327 -0.0072
  170POPC   GL2 2525   8.111   7.362   4.975 -0.0843  0.1149  0.1687
  170POPC   C1A 2526   8.162   7.604   5.408  0.0350  0.2819  0.2097
  170POPC   D2A 2527   8.201   7.295   5.826 -0.1978  0.0779 -0.0555
  170POPC   C3A 2528   7.978   7.193   6.121  0.2063  0.1690 -0.0730
  170POPC   C4A 2529   7.580   7.181   6.354  0.1739 -0.1917  0.0330
  170POPC   C1B 2530   7.766   7.381   5.252 -0.0177 -0.1211  0.1590
  170POPC   C2B 2531   7.371   7.141   5.351  0.2618 -0.1699  0.0300
  170POPC   C3B 2532   7.224   6.946   5.859 -0.2686 -0.0485 -0.3312
  170POPC   C4B 2533   7.349   6.599   6.216 -0.1325  0.3619  0.0629
  171POPC   NC3 2534   1.876   2.956   4.552 -0.0758  0.0184  0.0824
  171POPC   PO4 2535   1.544   2.574   4.542  0.0697 -0.2831 -0.1861
  171POPC   GL1 2536   1.557   2.563   4.977 -0.0507 -0.5321  0.0687
  171POPC   GL2 2537   1.392   2.876   5.072  0.0611  0.4223 -0.0948
  171POPC   C1A 2538   1.527   2.195   5.206  0.0438  0.0739 -0.1238
  171POPC   D2A 2539   1.526   2.215   5.734  0.2699 -0.0905 -0.1909
  171POPC   C3A 2540   1.825   1.929   5.869 -0.2428 -0.0105 -0.1016
  171POPC   C4A 2541   2.249   1.685   5.754  0.0182  0.1584  0.3107
  171POPC   C1B 2542   1.348   2.803   5.481  0.2716  0.3655 -0.1111
  171POPC   C2B 2543   1.599   2.698   5.910 -0.0258 -0.0404 -0.0371
  171POPC   C3B 2544   1.911   2.342   6.186  0.0908 -0.0426 -0.1483
  171POPC   C4B 2545   2.133   2.358   6.600  0.3088 -0.1145 -0.1105
  172POPC   NC3 2546   8.552   5.409   4.500  0.1037 -0.1535 -0.3263
  172POPC   PO4 2547   8.409   5.398   4.932  0.1654  0.1557 -0.1428
  172POPC   GL1 2548   8.653   5.275   5.365  0.3366 -0.0462  0.0338
  172POPC   GL2 2549   8.429   5.130   5.617  0.3053  0.4007 -0.0669
  172POPC   C1A 2550   8.927   5.325   5.822  0.3365  0.1124 -0.0593
  172POPC   D2A 2551   9.187   5.646   6.111  0.0322  0.0828 -0.2968
  172POPC   C3A 2552   9.020   5.969   6.244  0.2399 -0.0278  0.3713
  172POPC   C4A 2553   8.536   6.044   6.519 -0.2584  0.0070  0.2837
  172POPC   C1B 2554   8.378   5.495   5.846 -0.1040 -0.2426  0.2695
  172POPC   C2B 2555   8.634   5.908   5.991  0.2120  0.0237 -0.0158
  172POPC   C3B 2556   8.874   6.365   5.997  0.0641 -0.2247  0.2317
  172POPC   C4B 2557   9.223   6.689   5.919  0.3558  0.3075  0.0323
  173POPC   NC3 2558   0.029   6.153   4.442  0.1342  0.0928 -0.1361
  173POPC   PO4 2559  -0.021   6.098   4.894 -0.1613 -0.1732  0.0685
  173POPC   GL1 2560  -0.290   6.130   5.220  0.3099 -0.0311  0.1893
  173POPC   GL2 2561  -0.391   5.841   5.453 -0.0671  0.0706  0.1262
  173POPC   C1A 2562  -0.233   6.340   5.556 -0.0066 -0.1074 -0.0856
  173POPC   D2A 2563  -0.060   6.445   6.042  0.0347  0.0357  0.2630
  173POPC   C3A 2564   0.017   6.073   6.239  0.0857  0.0928 -0.0129
  173POPC   C4A 2565   0.086   5.902   6.593 -0.3437  0.3457 -0.0361
  173POPC   C1B 2566  -0.139   5.950   5.792 -0.5072 -0.2075 -0.1449
  173POPC   C2B 2567   0.221   6.103   5.731  0.0024  0.1533  0.3046
  173POPC   C3B 2568   0.418   6.218   6.076 -0.0370 -0.1598 -0.3200
  173POPC   C4B 2569   0.349   6.347   6.458  0.4033 -0.0794  0.0297
  174POPC   NC3 2570   5.871   2.212   5.131  0.5615 -0.2314 -0.1735
  174POPC   PO4 2571   5.658   2.213   5.452 -0.0727 -0.1777 -0.0531
  174POPC   GL1 2572   5.641   1.886   5.751  0.0849 -0.3414 -0.2400
  174POPC   GL2 2573   5.323   1.993   5.811  0.2442 -0.4243 -0.1050
  174POPC   C1A 2574   5.775   1.747   6.084  0.0625 -0.1445 -0.0185
  174POPC   D2A 2575   5.915   1.527   6.422  0.3538  0.2486 -0.0574
  174POPC   C3A 2576   6.219   1.635   6.670 -0.0330  0.0278 -0.2653
  174POPC   C4A 2577   6.513   1.519   7.009 -0.1906 -0.3220  0.2575
  174POPC   C1B 2578   5.374   2.060   6.280 -0.2565 -0.1690 -0.3538
  174POPC   C2B 2579   5.565   1.900   6.682  0.1732  0.0789 -0.1686
  174POPC   C3B 2580   5.489   1.630   6.969 -0.1758 -0.1418 -0.0040
  174POPC   C4B 2581   5.335   1.454   7.258  0.1494 -0.1404 -0.0981
  175POPC   NC3 2582   2.451   8.118   3.927 -0.1971 -0.0130  0.3144
  175POPC   PO4 2583   2.522   8.568   3.660 -0.0792  0.2437 -0.0787
  175POPC   GL1 2584   2.372   8.534   4.151  0.4737  0.0720  0.1829
  175POPC   GL2 2585   2.067   8.658   4.326  0.2051 -0.0466  0.2573
  175POPC   C1A 2586   2.331   8.211   4.506 -0.1187 -0.0923  0.0156
  175POPC   D2A 2587   2.095   7.883   4.566  0.1248  0.1277  0.0190
  175POPC   C3A 2588   1.928   7.904   4.967  0.0700 -0.0500  0.3443
  175POPC   C4A 2589   1.775   7.801   5.404 -0.2040 -0.3294  0.3035
  175POPC   C1B 2590   2.222   8.654   4.782  0.0261  0.1051 -0.0555
  175POPC   C2B 2591   2.208   8.321   5.136 -0.2490  0.1113  0.1189
  175POPC   C3B 2592   2.314   7.991   5.369 -0.1721  0.1783 -0.0091
  175POPC   C4B 2593   2.255   7.573   5.750 -0.0008  0.0562  0.0675
  176POPC   NC3 2594   5.195   3.411   5.227  0.0637 -0.1410 -0.4257
  176POPC   PO4 2595   4.863   3.073   5.172  0.3591  0.0685  0.0233
  176POPC   GL1 2596   4.800   3.127   5.624 -0.0521 -0.0327  0.1742
  176POPC   GL2 2597   4.513   3.045   5.662  0.0085 -0.2965 -0.1142
  176POPC   C1A 2598   4.886   2.926   5.994 -0.0906  0.1186  0.1799
  176POPC   D2A 2599   4.745   2.598   6.223 -0.2026  0.3921 -0.2052
  176POPC   C3A 2600   4.741   2.656   6.644 -0.1263  0.4231 -0.0066
  176POPC   C4A 2601   4.467   2.475   6.987 -0.0107  0.0373 -0.2447
  176POPC   C1B 2602   4.415   3.041   6.173 -0.0680  0.0192 -0.0525
  176POPC   C2B 2603   4.422   3.018   6.606 -0.0190 -0.1246  0.0013
  176POPC   C3B 2604   4.048   3.040   6.780  0.4030  0.0797  0.0736
  176POPC   C4B 2605   3.597   3.051   6.870  0.2792 -0.1404  0.0362
  177POPC   NC3 2606   8.108  10.467   5.160 -0.2430  0.0128  0.2697
  177POPC   PO4 2607   8.410  10.663   4.994 -0.0843  0.0311 -0.1672
  177POPC   GL1 2608   8.597  10.557   5.420 -0.0023 -0.0290 -0.0816
  177POPC   GL2 2609   8.881  10.606   5.254  0.2844 -0.1641  0.1501
  177POPC   C1A 2610   8.643  10.555   5.881 -0.1393 -0.1890 -0.0152
  177POPC   D2A 2611   8.364  10.590   6.337 -0.3281 -0.0859  0.0040
  177POPC   C3A 2612   7.983  10.951   6.405  0.2680  0.0002 -0.2543
  177POPC   C4A 2613   7.986  11.342   6.625 -0.1144  0.0834  0.1442
  177POPC   C1B 2614   9.072  10.603   5.598 -0.1569  0.2047 -0.3087
  177POPC   C2B 2615   9.153  10.536   6.010 -0.0858  0.1725 -0.0094
  177POPC   C3B 2616   9.230  10.686   6.472 -0.1649  0.0164 -0.1346
  177POPC   C4B 2617   9.599  10.964   6.527  0.1120 -0.1996  0.1541
  178POPC   NC3 2618   0.430   8.901   4.674 -0.3159  0.2083  0.0550
  178POPC   PO4 2619   0.049   8.623   4.542 -0.3583 -0.1694  0.2569
  178POPC   GL1 2620   0.028   8.541   4.898  0.0068  0.2419 -0.1151
  178POPC   GL2 2621   0.061   8.895   5.095 -0.0404  0.0732  0.0895
  178POPC   C1A 2622   0.110   8.269   5.241 -0.2024  0.0389 -0.0236
  178POPC   D2A 2623   0.392   8.227   5.533 -0.0312 -0.1994  0.0166
  178POPC   C3A 2624   0.506   7.998   5.888 -0.0256 -0.2954 -0.1372
  178POPC   C4A 2625   0.493   7.888   6.269  0.0508 -0.1937 -0.0357
  178POPC   C1B 2626   0.125   8.750   5.517 -0.0867  0.0428  0.0317
  178POPC   C2B 2627   0.158   8.474   5.880 -0.0362 -0.2205 -0.1126
  178POPC   C3B 2628   0.616   8.379   6.122 -0.0511  0.1185 -0.1765
  178POPC   C4B 2629   0.768   8.326   6.552 -0.1827  0.1879  0.2890
  179POPC   NC3 2630   4.524   0.335   5.262  0.2106 -0.1596  0.0078
  179POPC   PO4 2631   4.170   0.582   5.223 -0.0858 -0.0157  0.1662
  179POPC   GL1 2632   4.211   0.587   5.581  0.1398 -0.2214  0.1163
  179POPC   GL2 2633   4.328   0.304   5.684 -0.0752 -0.2005 -0.2127
  179POPC   C1A 2634   4.180   0.691   5.977  0.1225 -0.1256 -0.0458
  179POPC   D2A 2635   4.210   0.564   6.450 -0.2498  0.1291 -0.2847
  179POPC   C3A 2636   3.961   0.674   6.803 -0.3289  0.2004 -0.1271
  179POPC   C4A 2637   3.567   0.669   6.780 -0.1332  0.0668 -0.0360
  179POPC   C1B 2638   4.193   0.151   6.103  0.0788  0.0598  0.0478
  179POPC   C2B 2639   4.175  -0.169   6.479  0.1089 -0.2399  0.2946
  179POPC   C3B 2640   3.908  -0.185   6.813  0.3091 -0.1666  0.2245
  179POPC   C4B 2641   3.470  -0.033   6.772 -0.0489  0.1735 -0.2230
  180POPC   NC3 2642   9.008   2.098   4.713  0.1296 -0.0028  0.3035
  180POPC   PO4 2643   9.275   2.451   4.536  0.0688 -0.0406  0.1021
  180POPC   GL1 2644   9.355   2.613   5.013  0.3618 -0.0554  0.1659
  180POPC   GL2 2645   9.231   2.435   5.289 -0.4587 -0.2154  0.1897
  180POPC   C1A 2646   9.591   2.742   5.439  0.1465 -0.0998  0.1660
  180POPC   D2A 2647   9.853   2.989   5.706  0.0650 -0.2455  0.1084
  180POPC   C3A 2648   9.937   2.899   6.167  0.1512  0.2594 -0.2193
  180POPC   C4A 2649  10.080   2.822   6.669  0.0961  0.0531  0.0885
  180POPC   C1B 2650   9.248   2.244   5.779  0.2282  0.1470  0.0154
  180POPC   C2B 2651   9.206   1.835   5.903  0.1275 -0.0114  0.0519
  180POPC   C3B 2652   9.101   1.563   6.305  0.1215 -0.2144  0.2314
  180POPC   C4B 2653   9.350   1.073   6.493  0.2649  0.2037  0.0817
  181POPC   NC3 2654   5.036   9.031   4.529  0.0459  0.1902  0.1194
  181POPC   PO4 2655   4.648   9.236   4.724  0.1889  0.1659  0.2177
  181POPC   GL1 2656   4.462   9.132   5.172 -0.1924 -0.2985  0.0492
  181POPC   GL2 2657   4.217   9.219   5.118 -0.1416 -0.0568 -0.0190
  181POPC   C1A 2658   4.516   8.908   5.537 -0.1999 -0.0842  0.3692
  181POPC   D2A 2659   4.528   8.582   5.746 -0.0551 -0.0305  0.2786
  181POPC   C3A 2660   4.595   8.167   5.650  0.0468 -0.3844  0.3410
  181POPC   C4A 2661   4.590   8.204   5.280  0.0495 -0.2397  0.2860
  181POPC   C1B 2662   4.145   9.268   5.559  0.2067 -0.0565  0.3224
  181POPC   C2B 2663   4.047   8.911   5.761 -0.0397  0.0640 -0.0685
  181POPC   C3B 2664   4.076   8.520   6.025  0.1561  0.2304  0.1079
  181POPC   C4B 2665   4.321   8.422   6.272 -0.3468  0.0737 -0.0907
  182POPC   NC3 2666   8.762   6.864   4.582  0.1014  0.0403  0.0602
  182POPC   PO4 2667   9.249   6.742   4.620 -0.1254  0.0311  0.1490
  182POPC   GL1 2668   9.110   6.918   5.054  0.2195 -0.2571 -0.0755
  182POPC   GL2 2669   9.334   7.033   5.280 -0.1493  0.1341 -0.1884
  182POPC   C1A 2670   8.850   7.066   5.399  0.2715 -0.1879 -0.2415
  182POPC   D2A 2671   8.760   6.972   5.921 -0.0002 -0.0188 -0.1931
  182POPC   C3A 2672   8.468   7.142   6.286  0.0626  0.1001 -0.2585
  182POPC   C4A 2673   8.318   7.030   6.615 -0.0749 -0.2322 -0.3947
  182POPC   C1B 2674   9.205   7.197   5.771 -0.1409 -0.0323  0.0547
  182POPC   C2B 2675   9.410   7.123   6.113  0.0155  0.2444 -0.0253
  182POPC   C3B 2676   9.397   7.329   6.542  0.1429 -0.4026  0.1265
  182POPC   C4B 2677   9.242   7.656   6.792  0.0721  0.0775 -0.1324
  183POPC   NC3 2678   6.600   5.136   4.443  0.1891  0.0552  0.0740
  183POPC   PO4 2679   6.116   5.018   4.696  0.2280  0.0160  0.0528
  183POPC   GL1 2680   6.084   4.971   5.071  0.1447 -0.0653 -0.0779
  183POPC   GL2 2681   6.219   5.181   5.342  0.0027  0.0187  0.1741
  183POPC   C1A 2682   5.867   4.851   5.464  0.0489  0.0204  0.2389
  183POPC   D2A 2683   5.643   4.770   5.880 -0.0068  0.0879  0.1659
  183POPC   C3A 2684   5.785   4.726   6.259 -0.3553  0.2403 -0.1089
  183POPC   C4A 2685   5.701   4.435   6.599 -0.1619  0.2538 -0.2908
  183POPC   C1B 2686   6.381   5.331   5.752  0.2411  0.0802 -0.2742
  183POPC   C2B 2687   6.434   5.380   6.216  0.2866 -0.4522  0.1097
  183POPC   C3B 2688   6.636   5.591   6.536  0.2712  0.2550  0.3138
  183POPC   C4B 2689   6.651   5.703   6.955 -0.0665  0.0065  0.0847
  184POPC   NC3 2690   9.419   4.561   4.809 -0.2001 -0.0596 -0.0906
  184POPC   PO4 2691   9.837   4.343   4.786  0.0527 -0.1061 -0.2319
  184POPC   GL1 2692   9.921   4.447   5.268  0.3947 -0.0569  0.1495
  184POPC   GL2 2693   9.967   4.638   5.611  0.1252  0.3907 -0.3248
  184POPC   C1A 2694  10.067   4.211   5.687  0.2306  0.2854 -0.0458
  184POPC   D2A 2695  10.297   4.121   5.920 -0.3660 -0.2518 -0.0449
  184POPC   C3A 2696  10.249   4.373   6.312 -0.3303 -0.1265 -0.0479
  184POPC   C4A 2697  10.251   4.343   6.750  0.2924  0.2981  0.2000
  184POPC   C1B 2698  10.071   4.672   5.990  0.0882  0.0185 -0.0675
  184POPC   C2B 2699   9.892   4.792   6.424  0.2582 -0.3201  0.2935
  184POPC   C3B 2700   9.540   5.073   6.574 -0.1429 -0.2201  0.1020
  184POPC   C4B 2701   9.351   5.166   6.954 -0.1120 -0.1025 -0.1591
  185POPC   NC3 2702   9.214   0.276   4.922 -0.5129  0.3374 -0.2599
  185POPC   PO4 2703   9.373   0.675   4.775  0.1168  0.2644  0.2483
  185POPC   GL1 2704   9.529   0.652   5.126 -0.1129  0.1367  0.3622
  185POPC   GL2 2705   9.513   0.333   5.318  0.1844  0.0167  0.1623
  185POPC   C1A 2706   9.790   0.694   5.515  0.1108 -0.0202 -0.0643
  185POPC   D2A 2707   9.813   0.837   5.852  0.1048 -0.1644  0.2050
  185POPC   C3A 2708   9.502   1.019   5.992 -0.2958  0.3773 -0.0486
  185POPC   C4A 2709   9.210   1.275   5.931  0.2159  0.5538 -0.2474
  185POPC   C1B 2710   9.457   0.385   5.765  0.1796  0.4196 -0.1101
  185POPC   C2B 2711   9.260   0.590   6.161  0.0799  0.1941 -0.0965
  185POPC   C3B 2712   8.903   0.928   6.148 -0.1903  0.2780  0.0719
  185POPC   C4B 2713   8.730   1.333   5.997  0.1364  0.2866 -0.0599
  186POPC   NC3 2714  10.273   5.578   4.982 -0.2789  0.1370 -0.0379
  186POPC   PO4 2715  10.276   5.344   5.316  0.0227 -0.0432 -0.1834
  186POPC   GL1 2716  10.228   5.084   5.670  0.0478  0.0727  0.1132
  186POPC   GL2 2717   9.931   5.131   5.722 -0.2224  0.2999 -0.0718
  186POPC   C1A 2718  10.403   5.106   6.073  0.2776  0.2921  0.0476
  186POPC   D2A 2719  10.545   4.966   6.423 -0.0651  0.1506 -0.0638
  186POPC   C3A 2720  10.856   4.953   6.729 -0.0266 -0.3833  0.0399
  186POPC   C4A 2721  11.089   5.116   7.087  0.1653  0.0686 -0.0408
  186POPC   C1B 2722   9.819   5.212   6.148 -0.1148  0.2040  0.0921
  186POPC   C2B 2723  10.056   5.261   6.551 -0.2173  0.3233 -0.2358
  186POPC   C3B 2724  10.473   5.414   6.610 -0.0443  0.2323 -0.2802
  186POPC   C4B 2725  10.747   5.534   6.871 -0.0924 -0.1660 -0.0797
  187POPC   NC3 2726   7.219   4.402   4.843 -0.1903 -0.2443  0.0915
  187POPC   PO4 2727   7.163   3.991   5.112  0.0033 -0.4513  0.0211
  187POPC   GL1 2728   7.120   4.349   5.397 -0.2751 -0.0710  0.0113
  187POPC   GL2 2729   6.833   4.476   5.516  0.1438  0.1742 -0.4821
  187POPC   C1A 2730   7.485   4.493   5.648  0.0888 -0.1181 -0.0336
  187POPC   D2A 2731   7.375   4.601   6.092  0.0658 -0.0734  0.3408
  187POPC   C3A 2732   7.131   4.493   6.404 -0.2088  0.1587 -0.0753
  187POPC   C4A 2733   7.007   4.633   6.870 -0.2027  0.1061 -0.1626
  187POPC   C1B 2734   6.902   4.811   5.888 -0.4425 -0.1053 -0.0461
  187POPC   C2B 2735   6.686   5.038   6.147 -0.1318 -0.1552 -0.0149
  187POPC   C3B 2736   6.455   5.088   6.586 -0.0622  0.2603  0.1906
  187POPC   C4B 2737   6.158   4.884   6.596  0.1432 -0.2233 -0.2053
  188POPC   NC3 2738   4.139   4.451   4.282 -0.1331 -0.1352  0.0753
  188POPC   PO4 2739   4.334   4.139   4.629  0.0125  0.0998  0.1466
  188POPC   GL1 2740   4.220   4.314   4.923  0.2459  0.0181 -0.1021
  188POPC   GL2 2741   4.098   4.657   4.747  0.2499 -0.1535  0.1537
  188POPC   C1A 2742   4.183   4.307   5.413  0.3333 -0.2859  0.2244
  188POPC   D2A 2743   4.363   4.619   5.777  0.0038  0.3393  0.2710
  188POPC   C3A 2744   4.619   4.995   5.921  0.2025  0.0257 -0.1818
  188POPC   C4A 2745   4.629   5.047   6.318  0.2205  0.1949 -0.1303
  188POPC   C1B 2746   3.860   4.565   5.117  0.0114 -0.0177  0.0264
  188POPC   C2B 2747   3.825   4.678   5.559 -0.1517  0.3893  0.3550
  188POPC   C3B 2748   3.879   4.702   5.961 -0.1115 -0.2436 -0.1825
  188POPC   C4B 2749   3.817   4.639   6.393 -0.3015 -0.0256  0.1524
  189POPC   NC3 2750   4.550   2.897   4.825  0.0142 -0.2360  0.0543
  189POPC   PO4 2751   4.100   2.916   4.806  0.0524 -0.0675  0.1051
  189POPC   GL1 2752   3.844   2.928   5.145  0.1091  0.0849  0.2779
  189POPC   GL2 2753   4.136   2.827   5.393  0.1173  0.1744 -0.1711
  189POPC   C1A 2754   3.537   2.924   5.480  0.2183  0.0642 -0.0508
  189POPC   D2A 2755   3.605   2.990   5.907 -0.0677  0.0706 -0.0947
  189POPC   C3A 2756   3.509   3.355   6.206  0.3229 -0.0270  0.2024
  189POPC   C4A 2757   3.424   3.652   6.437 -0.0018  0.1932 -0.2150
  189POPC   C1B 2758   4.087   2.837   5.819  0.1207 -0.0521 -0.0490
  189POPC   C2B 2759   3.943   2.907   6.261  0.0761  0.2088  0.2125
  189POPC   C3B 2760   3.553   2.889   6.418 -0.0791 -0.5860 -0.1724
  189POPC   C4B 2761   3.260   2.444   6.569  0.1645 -0.0274 -0.1009
  190POPC   NC3 2762   5.609   2.737   4.828  0.0016 -0.1761 -0.2679
  190POPC   PO4 2763   5.821   3.090   5.111  0.1017  0.3704 -0.0981
  190POPC   GL1 2764   6.001   3.130   5.511  0.0901 -0.1351  0.2139
  190POPC   GL2 2765   6.211   2.989   5.492 -0.1270  0.3637  0.0918
  190POPC   C1A 2766   5.941   3.286   6.041 -0.2600  0.1704  0.1439
  190POPC   D2A 2767   6.005   3.667   6.241 -0.0908 -0.1130 -0.1786
  190POPC   C3A 2768   5.881   3.811   6.659  0.0315 -0.1263  0.0682
  190POPC   C4A 2769   5.857   4.017   7.034  0.2331 -0.2666 -0.0355
  190POPC   C1B 2770   5.888   2.812   5.898  0.1609 -0.0260  0.0082
  190POPC   C2B 2771   5.733   2.835   6.298 -0.0685  0.0226  0.3953
  190POPC   C3B 2772   5.688   2.752   6.767 -0.2871  0.0805 -0.1333
  190POPC   C4B 2773   5.316   2.829   7.004 -0.0603  0.1241  0.3203
  191POPC   NC3 2774   7.353   9.736   4.575  0.4504  0.4694 -0.4132
  191POPC   PO4 2775   7.448   9.308   4.923  0.1547 -0.1044  0.1121
  191POPC   GL1 2776   7.583   9.253   5.289 -0.0710 -0.3910  0.0770
  191POPC   GL2 2777   7.410   9.060   5.428 -0.0375 -0.0012  0.3919
  191POPC   C1A 2778   7.826   9.063   5.600 -0.2860  0.2894 -0.0093
  191POPC   D2A 2779   7.917   9.187   6.016 -0.2388  0.0078  0.2731
  191POPC   C3A 2780   8.264   9.252   6.286  0.1022  0.1220 -0.1398
  191POPC   C4A 2781   8.053   8.987   6.686 -0.1593 -0.3124  0.2137
  191POPC   C1B 2782   7.198   9.358   5.693  0.0429 -0.0613 -0.1616
  191POPC   C2B 2783   7.171   9.859   5.769  0.0163  0.1736  0.3534
  191POPC   C3B 2784   6.988  10.242   5.809  0.2015 -0.1014 -0.1122
  191POPC   C4B 2785   6.699  10.306   5.971 -0.0091 -0.0441 -0.2365
  192POPC   NC3 2786   9.639   9.756   4.498  0.1618  0.1395  0.1599
  192POPC   PO4 2787   9.617   9.390   4.846 -0.3156  0.1041  0.1282
  192POPC   GL1 2788   9.710   9.589   5.250  0.0367  0.3226 -0.3068
  192POPC   GL2 2789   9.556   9.314   5.463  0.0905 -0.0125  0.2191
  192POPC   C1A 2790   9.582   9.800   5.628  0.0795  0.2882  0.3520
  192POPC   D2A 2791   9.280  10.029   5.899 -0.3328 -0.0495 -0.0025
  192POPC   C3A 2792   9.251  10.197   6.299 -0.3130  0.1455 -0.0004
  192POPC   C4A 2793   9.204  10.163   6.718  0.0234  0.0918 -0.0955
  192POPC   C1B 2794   9.075   9.230   5.522 -0.0631  0.3405 -0.1539
  192POPC   C2B 2795   8.759   9.300   5.739  0.1546  0.0785  0.1159
  192POPC   C3B 2796   8.553   9.609   5.950  0.0760 -0.1983  0.0195
  192POPC   C4B 2797   7.992   9.660   6.083  0.0722  0.0264  0.1444
  193POPC   NC3 2798   8.381   0.393   4.530  0.0591 -0.1261  0.1105
  193POPC   PO4 2799   7.974   0.204   4.734  0.0828  0.2426 -0.2441
  193POPC   GL1 2800   7.801   0.405   5.149  0.2314 -0.1120 -0.5227
  193POPC   GL2 2801   8.108   0.465   5.359  0.0377  0.1922  0.2610
  193POPC   C1A 2802   7.623   0.328   5.598  0.2460  0.1356 -0.0351
  193POPC   D2A 2803   7.570   0.377   6.065 -0.0416 -0.2323 -0.1186
  193POPC   C3A 2804   7.606   0.772   6.293 -0.0860  0.4489  0.2146
  193POPC   C4A 2805   7.574   1.222   6.269  0.2028  0.2712  0.0504
  193POPC   C1B 2806   7.937   0.684   5.745 -0.2145 -0.2664  0.1359
  193POPC   C2B 2807   8.083   1.000   6.121 -0.1668 -0.0130 -0.1692
  193POPC   C3B 2808   8.389   1.132   6.345  0.3229 -0.0751 -0.1628
  193POPC   C4B 2809   8.721   1.084   6.598 -0.0700 -0.0540  0.1418
  194POPC   NC3 2810   5.061   2.116   5.395  0.0763 -0.2848 -0.1863
  194POPC   PO4 2811   5.325   2.371   5.072 -0.1061  0.2775  0.0469
  194POPC   GL1 2812   5.299   2.539   5.588 -0.0207  0.3833 -0.2058
  194POPC   GL2 2813   5.566   2.463   5.905  0.0866  0.2398  0.0305
  194POPC   C1A 2814   5.407   2.995   5.849  0.0320  0.0136 -0.0943
  194POPC   D2A 2815   5.379   3.369   6.103 -0.0661  0.0883 -0.1975
  194POPC   C3A 2816   5.577   3.303   6.491  0.1209 -0.0058  0.2020
  194POPC   C4A 2817   5.625   3.221   6.900  0.0875 -0.2068  0.2369
  194POPC   C1B 2818   5.259   2.528   6.178  0.1592  0.1269 -0.0063
  194POPC   C2B 2819   5.223   2.914   6.418  0.5409  0.0774  0.0995
  194POPC   C3B 2820   5.088   3.257   6.733 -0.0452 -0.0853 -0.1043
  194POPC   C4B 2821   4.673   3.414   6.734 -0.1524 -0.0795  0.1768
  195POPC   NC3 2822   7.052   0.291   4.462  0.1642 -0.0723  0.2432
  195POPC   PO4 2823   7.106   0.700   4.598 -0.1213 -0.0173 -0.0376
  195POPC   GL1 2824   7.262   0.568   5.091  0.1072  0.0538 -0.0784
  195POPC   GL2 2825   7.181   0.289   5.180  0.3547  0.0125 -0.3862
  195POPC   C1A 2826   7.507   0.736   5.399  0.1819 -0.2059  0.0458
  195POPC   D2A 2827   7.457   0.809   5.813 -0.0535  0.6252  0.1725
  195POPC   C3A 2828   7.227   1.044   5.943  0.0281  0.4515 -0.1312
  195POPC   C4A 2829   7.281   1.540   5.991  0.2071 -0.1802  0.1057
  195POPC   C1B 2830   7.144   0.404   5.637  0.0027 -0.2045  0.0023
  195POPC   C2B 2831   7.096   0.188   6.019 -0.0496  0.1108 -0.4891
  195POPC   C3B 2832   6.872   0.096   6.399 -0.2811  0.0518 -0.0586
  195POPC   C4B 2833   6.395  -0.008   6.547 -0.2828  0.0524  0.2024
  196POPC   NC3 2834   0.962   2.853   4.702 -0.1276 -0.0065 -0.2093
  196POPC   PO4 2835   0.565   2.640   4.892  0.0588 -0.1714  0.0041
  196POPC   GL1 2836   0.539   2.309   5.191  0.1324 -0.0146  0.3042
  196POPC   GL2 2837   0.192   2.240   5.273  0.1760 -0.1312 -0.3012
  196POPC   C1A 2838   0.478   2.398   5.650  0.2470 -0.1063 -0.2583
  196POPC   D2A 2839   0.121   2.570   5.821  0.1628  0.4559 -0.1666
  196POPC   C3A 2840   0.010   2.559   6.245 -0.2923  0.0839  0.2938
  196POPC   C4A 2841  -0.178   2.293   6.510 -0.0869  0.0011 -0.1013
  196POPC   C1B 2842   0.008   2.118   5.690  0.3159  0.0139  0.0331
  196POPC   C2B 2843  -0.061   2.039   6.059 -0.3298 -0.3631  0.0312
  196POPC   C3B 2844   0.247   2.030   6.398 -0.3569 -0.1357  0.0667
  196POPC   C4B 2845   0.339   2.419   6.650 -0.0687 -0.1511 -0.0834
  197POPC   NC3 2846   0.679   8.929   4.203  0.3983 -0.1768  0.1313
  197POPC   PO4 2847   0.934   9.029   4.628  0.0425  0.1934  0.1679
  197POPC   GL1 2848   1.037   8.885   5.074 -0.2191  0.2353 -0.2280
  197POPC   GL2 2849   1.357   8.693   5.082 -0.3658 -0.6047 -0.0370
  197POPC   C1A 2850   1.063   9.012   5.424 -0.2461  0.2118  0.2743
  197POPC   D2A 2851   1.177   8.869   5.809 -0.1968 -0.1758 -0.0215
  197POPC   C3A 2852   0.957   8.756   6.226  0.0342 -0.2749 -0.2325
  197POPC   C4A 2853   0.892   8.933   6.635 -0.2176 -0.2428  0.1054
  197POPC   C1B 2854   1.412   8.579   5.501 -0.1468  0.0894  0.1638
  197POPC   C2B 2855   1.609   8.612   5.940  0.2920 -0.1700 -0.0434
  197POPC   C3B 2856   1.797   8.411   6.321 -0.2225  0.1615 -0.0175
  197POPC   C4B 2857   1.736   8.325   6.760 -0.1177  0.0917 -0.0086
  198POPC   NC3 2858   6.489   6.195   4.379  0.3990  0.0917  0.3711
  198POPC   PO4 2859   6.455   6.518   4.108  0.1642 -0.2201  0.0539
  198POPC   GL1 2860   6.249   6.628   4.510 -0.0501  0.0508  0.0379
  198POPC   GL2 2861   6.621   6.751   4.623 -0.2498 -0.0961 -0.0851
  198POPC   C1A 2862   5.905   6.488   4.593 -0.1139 -0.2242 -0.1004
  198POPC   D2A 2863   5.664   6.500   4.913  0.1504 -0.0625 -0.1407
  198POPC   C3A 2864   5.780   6.575   5.225  0.0964 -0.1040 -0.3000
  198POPC   C4A 2865   5.467   6.845   5.535 -0.0215  0.1274  0.1917
  198POPC   C1B 2866   6.649   7.047   4.947  0.2321  0.2565  0.0250
  198POPC   C2B 2867   6.349   7.135   5.270 -0.0428 -0.0370  0.0686
  198POPC   C3B 2868   6.099   6.857   5.455 -0.0477 -0.0316  0.0320
  198POPC   C4B 2869   5.912   6.863   5.827 -0.1556 -0.2845 -0.1780
  199POPC   NC3 2870   8.103   2.704   4.626 -0.2579 -0.1461 -0.0233
  199POPC   PO4 2871   8.327   2.659   4.947 -0.5755  0.0079  0.1429
  199POPC   GL1 2872   8.549   2.428   5.228 -0.0217  0.2016 -0.2173
  199POPC   GL2 2873   8.346   2.592   5.450 -0.3115  0.2278  0.1801
  199POPC   C1A 2874   8.911   2.059   5.386 -0.2519  0.1528  0.3674
  199POPC   D2A 2875   9.350   1.845   5.472 -0.0516 -0.0448  0.0209
  199POPC   C3A 2876   9.242   1.462   5.380 -0.1103 -0.0940 -0.0854
  199POPC   C4A 2877   9.513   1.111   5.346 -0.2213 -0.1035 -0.1546
  199POPC   C1B 2878   8.172   2.947   5.713 -0.1606 -0.1984  0.0060
  199POPC   C2B 2879   8.254   3.020   6.153  0.0975 -0.0894  0.0280
  199POPC   C3B 2880   8.694   3.017   6.464 -0.0661  0.0923 -0.2333
  199POPC   C4B 2881   8.899   2.777   6.765  0.0137 -0.1413 -0.1340
  200POPC   NC3 2882   9.758   7.977   4.051 -0.0488  0.1100  0.0358
  200POPC   PO4 2883  10.153   7.901   4.288  0.2151  0.1823 -0.0533
  200POPC   GL1 2884  10.398   7.750   4.595  0.2199 -0.0957  0.0715
  200POPC   GL2 2885  10.523   7.970   4.718  0.0551 -0.0161 -0.1181
  200POPC   C1A 2886  10.363   7.656   5.089  0.1122 -0.2441  0.1549
  200POPC   D2A 2887  10.358   7.395   5.465 -0.0478 -0.0394  0.3272
  200POPC   C3A 2888  10.190   7.360   5.851  0.2355  0.0674 -0.1702
  200POPC   C4A 2889  10.330   7.534   6.251  0.3292  0.1093  0.1644
  200POPC   C1B 2890  10.830   7.811   5.055 -0.0501 -0.0636  0.2680
  200POPC   C2B 2891  10.945   7.715   5.477 -0.0878 -0.0412  0.2786
  200POPC   C3B 2892  11.295   7.653   5.797  0.0455 -0.2848 -0.2676
  200POPC   C4B 2893  11.485   7.867   6.168  0.0142  0.4009 -0.2040
  201POPC   NC3 2894   1.880   4.736   3.828  0.1658 -0.2693  0.0380
  201POPC   PO4 2895   1.640   4.974   4.166 -0.2855 -0.1489  0.0082
  201POPC   GL1 2896   1.807   4.926   4.618  0.1901 -0.0156  0.2638
  201POPC   GL2 2897   1.669   4.662   4.868  0.0767 -0.3161 -0.1755
  201POPC   C1A 2898   1.674   5.238   4.964 -0.1112 -0.0390  0.2648
  201POPC   D2A 2899   1.509   5.374   5.428  0.1382  0.0221  0.1093
  201POPC   C3A 2900   1.735   5.391   5.623  0.0254 -0.1607  0.0665
  201POPC   C4A 2901   1.700   5.325   6.107 -0.0521  0.1859 -0.0845
  201POPC   C1B 2902   1.685   4.881   5.278 -0.1276 -0.1620  0.1858
  201POPC   C2B 2903   1.782   4.923   5.738  0.2329  0.2196  0.0103
  201POPC   C3B 2904   1.959   4.694   6.130  0.1125 -0.0718 -0.0531
  201POPC   C4B 2905   1.821   4.874   6.364 -0.1198 -0.1050  0.1687
  202POPC   NC3 2906   0.950   4.261   3.955 -0.4334 -0.0632  0.2139
  202POPC   PO4 2907   0.769   4.576   4.302 -0.0771 -0.3048  0.0563
  202POPC   GL1 2908   0.923   4.549   4.696  0.0325  0.0456 -0.0549
  202POPC   GL2 2909   1.165   4.735   4.820 -0.2527 -0.0551 -0.0785
  202POPC   C1A 2910   0.853   4.486   5.244  0.1662  0.1101 -0.1751
  202POPC   D2A 2911   0.494   4.498   5.589 -0.0730 -0.1297  0.0250
  202POPC   C3A 2912   0.650   4.718   5.897 -0.3339  0.0342  0.0032
  202POPC   C4A 2913   0.522   4.910   6.224 -0.0241 -0.0362  0.0110
  202POPC   C1B 2914   1.182   5.076   5.190 -0.0931 -0.0168 -0.0728
  202POPC   C2B 2915   1.003   5.417   5.482 -0.1475  0.0259  0.2505
  202POPC   C3B 2916   1.088   5.535   5.881  0.0673  0.0282 -0.1196
  202POPC   C4B 2917   1.458   5.734   6.052  0.4612 -0.0618 -0.0324
  203POPC   NC3 2918   0.814   5.045   4.558 -0.2580 -0.0755 -0.3783
  203POPC   PO4 2919   0.472   4.884   4.644  0.2916 -0.1321  0.1335
  203POPC   GL1 2920   0.630   4.851   5.092 -0.2617 -0.0334 -0.1219
  203POPC   GL2 2921   0.304   4.984   5.342  0.0022 -0.0403 -0.1426
  203POPC   C1A 2922   0.823   4.926   5.486  0.2828 -0.2538  0.1095
  203POPC   D2A 2923   1.227   5.047   5.742  0.3652 -0.0476 -0.1281
  203POPC   C3A 2924   1.385   4.901   6.167  0.2997 -0.0901 -0.1277
  203POPC   C4A 2925   1.364   4.811   6.628 -0.4378 -0.0497 -0.0351
  203POPC   C1B 2926   0.357   5.076   5.712  0.1895 -0.1011  0.2014
  203POPC   C2B 2927   0.701   5.211   5.878  0.3149 -0.1213 -0.1546
  203POPC   C3B 2928   0.908   5.087   6.159 -0.2059 -0.0441  0.0163
  203POPC   C4B 2929   0.831   4.851   6.615 -0.2035  0.1778 -0.1514
  204POPC   NC3 2930   6.338   9.992   4.957  0.1120  0.1601  0.1851
  204POPC   PO4 2931   6.029  10.363   4.970  0.1476 -0.3062 -0.1750
  204POPC   GL1 2932   6.157  10.339   5.325 -0.0922  0.1490  0.3100
  204POPC   GL2 2933   5.914  10.588   5.497  0.0332 -0.2272  0.2196
  204POPC   C1A 2934   6.276  10.409   5.824 -0.2544  0.1645 -0.1483
  204POPC   D2A 2935   6.071  10.310   6.183  0.2395 -0.3765  0.2686
  204POPC   C3A 2936   6.366  10.025   6.393 -0.2524 -0.1574  0.2505
  204POPC   C4A 2937   6.774   9.838   6.148  0.0217 -0.3831 -0.0784
  204POPC   C1B 2938   5.666  10.537   5.803 -0.1295  0.1378 -0.0111
  204POPC   C2B 2939   5.594  10.292   6.204 -0.2247 -0.2040  0.1430
  204POPC   C3B 2940   5.430  10.008   6.509 -0.0422 -0.2039 -0.0276
  204POPC   C4B 2941   5.045   9.947   6.644  0.1501 -0.0060 -0.0927
  205POPC   NC3 2942   9.675   8.625   4.515 -0.1360 -0.1217 -0.0480
  205POPC   PO4 2943   9.490   8.202   4.617  0.2799 -0.0365  0.0677
  205POPC   GL1 2944   9.515   8.162   5.130  0.0178  0.0518  0.3689
  205POPC   GL2 2945   9.570   7.896   5.272 -0.1928  0.0866 -0.0248
  205POPC   C1A 2946   9.623   8.322   5.462  0.3369  0.1502  0.1023
  205POPC   D2A 2947   9.517   8.212   5.873 -0.0951 -0.1539  0.0595
  205POPC   C3A 2948   9.415   8.592   6.151 -0.2978 -0.1513  0.1011
  205POPC   C4A 2949   9.237   8.921   6.323 -0.0797 -0.1098  0.1343
  205POPC   C1B 2950   9.253   7.881   5.567 -0.1524 -0.3242  0.2319
  205POPC   C2B 2951   9.226   7.825   5.972 -0.3164 -0.0164  0.0230
  205POPC   C3B 2952   9.393   7.892   6.347 -0.0818  0.2481  0.2650
  205POPC   C4B 2953   9.404   8.155   6.704  0.1954 -0.2245 -0.1388
  206POPC   NC3 2954   1.087   2.994   4.203 -0.1591 -0.1343  0.1844
  206POPC   PO4 2955   0.979   3.307   4.471  0.2271 -0.3064  0.0674
  206POPC   GL1 2956   0.919   3.460   4.908 -0.0337 -0.0266 -0.2101
  206POPC   GL2 2957   0.843   3.205   5.060 -0.3860 -0.1332  0.0551
  206POPC   C1A 2958   0.783   3.703   5.277  0.1161 -0.3702  0.2218
  206POPC   D2A 2959   0.553   3.780   5.659 -0.2861 -0.1678  0.0981
  206POPC   C3A 2960   0.771   4.119   5.757 -0.2414  0.2692 -0.0335
  206POPC   C4A 2961   1.075   4.444   5.787 -0.2189  0.0204 -0.2256
  206POPC   C1B 2962   1.050   3.238   5.407 -0.1684  0.0519 -0.1451
  206POPC   C2B 2963   1.203   3.139   5.839 -0.2017  0.0084  0.0674
  206POPC   C3B 2964   0.987   2.990   6.180 -0.4286  0.0605 -0.3013
  206POPC   C4B 2965   0.881   2.805   6.575  0.2643  0.1829  0.2057
  207POPC   NC3 2966   8.960   8.203   4.794 -0.2636 -0.0501 -0.2089
  207POPC   PO4 2967   8.581   8.388   4.727 -0.0772  0.0250  0.0896
  207POPC   GL1 2968   8.677   8.475   5.118  0.0224  0.0289  0.1928
  207POPC   GL2 2969   8.944   8.211   5.311  0.0297  0.1081  0.2129
  207POPC   C1A 2970   8.476   8.525   5.559  0.2452 -0.1912 -0.2717
  207POPC   D2A 2971   8.414   8.342   5.936 -0.0753 -0.4616 -0.0055
  207POPC   C3A 2972   8.384   8.223   6.429 -0.1116 -0.0094  0.0120
  207POPC   C4A 2973   7.940   8.080   6.711  0.0415  0.3756  0.0118
  207POPC   C1B 2974   9.033   8.310   5.765 -0.1164  0.0049 -0.2343
  207POPC   C2B 2975   8.832   8.572   6.009 -0.1378  0.0474 -0.3436
  207POPC   C3B 2976   8.862   8.622   6.465 -0.4677 -0.0999 -0.0459
  207POPC   C4B 2977   8.842   8.288   6.822  0.0012  0.0169  0.1811
  208POPC   NC3 2978   4.659   8.458   3.293 -0.4979  0.1758 -0.1186
  208POPC   PO4 2979   4.550   8.300   3.762 -0.1005  0.0722 -0.1162
  208POPC   GL1 2980   4.429   8.279   4.210 -0.1372  0.1042  0.1311
  208POPC   GL2 2981   4.607   8.404   4.398 -0.2591  0.1553 -0.0503
  208POPC   C1A 2982   4.615   7.910   4.468  0.0875  0.2380 -0.4166
  208POPC   D2A 2983   4.627   7.845   4.890  0.0693  0.1924 -0.3303
  208POPC   C3A 2984   4.377   7.573   5.148 -0.0528 -0.3607 -0.2374
  208POPC   C4A 2985   4.108   7.321   5.276  0.4196 -0.0586 -0.0585
  208POPC   C1B 2986   4.346   8.321   4.731 -0.1411 -0.2105 -0.0422
  208POPC   C2B 2987   4.164   8.056   4.906 -0.0004  0.1141 -0.0659
  208POPC   C3B 2988   4.153   7.979   5.341  0.3702 -0.0281 -0.2297
  208POPC   C4B 2989   4.247   7.630   5.686 -0.1334  0.0825 -0.1304
  209POPC   NC3 2990   2.931   4.334   4.219  0.2180 -0.2582 -0.0192
  209POPC   PO4 2991   2.572   4.262   4.495 -0.2275 -0.0716 -0.0116
  209POPC   GL1 2992   2.377   4.245   4.917  0.0466  0.0412  0.1978
  209POPC   GL2 2993   2.205   3.973   4.946 -0.1082 -0.2052 -0.1851
  209POPC   C1A 2994   2.431   4.343   5.360 -0.1682 -0.0924 -0.2588
  209POPC   D2A 2995   2.727   4.202   5.741 -0.1033  0.1708  0.0251
  209POPC   C3A 2996   2.779   3.837   5.887  0.1354 -0.0438 -0.1658
  209POPC   C4A 2997   3.008   3.498   6.138 -0.0783 -0.1813 -0.2015
  209POPC   C1B 2998   2.241   3.911   5.354  0.1732 -0.0902 -0.2801
  209POPC   C2B 2999   2.320   3.717   5.697 -0.0324 -0.0294  0.0599
  209POPC   C3B 3000   2.355   3.668   6.104 -0.4388 -0.1956 -0.2444
  209POPC   C4B 3001   2.520   3.585   6.482 -0.0891 -0.0452 -0.1477
  210POPC   NC3 3002   8.665   3.108   4.824 -0.0658  0.0209  0.1868
  210POPC   PO4 3003   8.507   3.601   5.005 -0.0611  0.1783  0.0461
  210POPC   GL1 3004   8.804   3.352   5.236  0.4344 -0.2366  0.0003
  210POPC   GL2 3005   9.131   3.210   5.283  0.2564 -0.1884  0.2721
  210POPC   C1A 3006   8.830   3.269   5.669  0.3153 -0.1368 -0.1402
  210POPC   D2A 3007   8.693   2.973   5.951  0.1375  0.2102  0.2571
  210POPC   C3A 3008   8.996   2.691   6.292  0.0726 -0.0420 -0.1217
  210POPC   C4A 3009   8.956   2.309   6.367  0.0442 -0.0284  0.1865
  210POPC   C1B 3010   9.085   2.844   5.657  0.0401  0.4035  0.3149
  210POPC   C2B 3011   9.391   2.919   6.039 -0.0190 -0.3427 -0.0188
  210POPC   C3B 3012   9.501   2.784   6.442 -0.0575 -0.0263 -0.2748
  210POPC   C4B 3013   9.270   2.473   6.773  0.0320 -0.2574  0.1958
  211POPC   NC3 3014   7.562   1.854   5.008  0.0384 -0.3261 -0.0907
  211POPC   PO4 3015   7.315   2.196   5.216 -0.0217 -0.0699  0.0168
  211POPC   GL1 3016   7.675   2.179   5.359  0.0707 -0.1089  0.1473
  211POPC   GL2 3017   7.711   1.825   5.430  0.1935  0.2285 -0.0796
  211POPC   C1A 3018   7.891   2.268   5.643  0.1538 -0.0060 -0.0772
  211POPC   D2A 3019   8.042   2.546   6.117 -0.2944  0.2031 -0.2625
  211POPC   C3A 3020   8.531   2.527   6.171 -0.1555 -0.1491 -0.0378
  211POPC   C4A 3021   8.754   2.347   5.815 -0.1560 -0.0387 -0.1390
  211POPC   C1B 3022   7.764   1.837   5.872 -0.0252 -0.2350 -0.1258
  211POPC   C2B 3023   7.554   1.719   6.340  0.1885  0.2615  0.1199
  211POPC   C3B 3024   7.522   1.604   6.747  0.2376 -0.1650  0.1214
  211POPC   C4B 3025   7.791   1.730   7.187 -0.2417 -0.2102 -0.0469
  212POPC   NC3 3026   8.623   9.319   5.017  0.2765 -0.0256  0.0320
  212POPC   PO4 3027   8.344   9.666   4.910  0.1484  0.1146  0.1495
  212POPC   GL1 3028   8.334   9.713   5.298  0.0736  0.4513 -0.1777
  212POPC   GL2 3029   8.396  10.024   5.379 -0.2465 -0.0535 -0.1169
  212POPC   C1A 3030   8.097   9.547   5.547  0.0679 -0.3768  0.0458
  212POPC   D2A 3031   7.677   9.604   5.606 -0.0854 -0.2273 -0.1515
  212POPC   C3A 3032   7.585   9.945   5.959 -0.1567  0.2888  0.0883
  212POPC   C4A 3033   7.371  10.204   6.250  0.0860 -0.1516  0.0811
  212POPC   C1B 3034   8.254  10.034   5.781 -0.1159  0.0809  0.0636
  212POPC   C2B 3035   8.046  10.152   6.155 -0.1845 -0.0126 -0.0668
  212POPC   C3B 3036   7.856  10.511   6.421  0.1154  0.1338  0.1337
  212POPC   C4B 3037   7.801  10.609   6.799 -0.3144  0.0462 -0.3183
  213POPC   NC3 3038   2.390   9.872   3.827  0.1202  0.4314  0.2321
  213POPC   PO4 3039   2.201   9.587   4.167  0.2575  0.1611 -0.4054
  213POPC   GL1 3040   2.323   9.529   4.523 -0.1811  0.1899  0.2281
  213POPC   GL2 3041   2.249   9.764   4.778 -0.2784 -0.3004 -0.0775
  213POPC   C1A 3042   2.248   9.337   5.032 -0.1237  0.3704 -0.0393
  213POPC   D2A 3043   2.394   9.327   5.509  0.0452  0.1170  0.0309
  213POPC   C3A 3044   2.149   9.084   5.813  0.1781 -0.1207 -0.0322
  213POPC   C4A 3045   1.808   8.949   5.581  0.0033  0.2602 -0.0854
  213POPC   C1B 3046   2.349   9.766   5.259  0.0247  0.0052  0.3506
  213POPC   C2B 3047   2.353   9.811   5.657  0.3767 -0.1414  0.0635
  213POPC   C3B 3048   2.449   9.669   6.010 -0.2042  0.1485 -0.0383
  213POPC   C4B 3049   2.847   9.596   6.342  0.0384 -0.1283 -0.1557
  214POPC   NC3 3050   8.877   9.085   4.313  0.2298 -0.1711 -0.0807
  214POPC   PO4 3051   8.782   8.836   4.727  0.1069  0.0324  0.0008
  214POPC   GL1 3052   8.941   8.916   5.148  0.0385  0.3244 -0.1883
  214POPC   GL2 3053   9.177   8.583   5.064  0.0651  0.2668 -0.1388
  214POPC   C1A 3054   8.962   8.772   5.492  0.3415 -0.1212 -0.1825
  214POPC   D2A 3055   9.165   8.910   5.877  0.1145 -0.2671  0.1197
  214POPC   C3A 3056   9.319   9.333   5.967  0.3574  0.1982  0.0390
  214POPC   C4A 3057   9.732   9.419   5.919 -0.0795 -0.0124 -0.2585
  214POPC   C1B 3058   9.430   8.804   5.440  0.1486  0.2353 -0.0609
  214POPC   C2B 3059   9.728   8.959   5.767  0.2715  0.0142  0.2364
  214POPC   C3B 3060   9.719   9.046   6.215  0.1440  0.0371 -0.0259
  214POPC   C4B 3061   9.752   8.948   6.672 -0.1474 -0.2478 -0.0781
  215POPC   NC3 3062   4.009   8.689   3.959 -0.0014  0.0365  0.2773
  215POPC   PO4 3063   4.304   8.892   4.243 -0.0467  0.0682  0.0838
  215POPC   GL1 3064   4.254   8.838   4.696 -0.1129  0.1629  0.4013
  215POPC   GL2 3065   4.654   8.765   4.845  0.0926 -0.0471  0.1934
  215POPC   C1A 3066   4.277   8.706   5.090 -0.0296 -0.0112 -0.4588
  215POPC   D2A 3067   4.095   8.443   5.534 -0.0742  0.1705 -0.0229
  215POPC   C3A 3068   3.599   8.585   5.700  0.0402 -0.0229  0.0203
  215POPC   C4A 3069   3.105   8.640   5.779 -0.0819 -0.1597  0.1100
  215POPC   C1B 3070   4.950   8.603   5.196 -0.1166 -0.0169  0.0950
  215POPC   C2B 3071   5.044   8.498   5.579 -0.1486  0.0245 -0.1878
  215POPC   C3B 3072   5.336   8.475   5.897  0.0788  0.1071 -0.2753
  215POPC   C4B 3073   5.516   8.062   6.012 -0.1099  0.2866 -0.0633
  216POPC   NC3 3074   0.086   8.215   4.290  0.1305  0.2000 -0.0087
  216POPC   PO4 3075   0.515   8.505   4.413  0.1489  0.0181  0.1272
  216POPC   GL1 3076   0.680   8.182   4.860  0.1625 -0.1166 -0.1345
  216POPC   GL2 3077   0.571   8.583   5.038 -0.1864 -0.1308  0.0434
  216POPC   C1A 3078   0.738   8.109   5.227 -0.2596 -0.0524 -0.1226
  216POPC   D2A 3079   0.945   8.104   5.586  0.0241  0.0751 -0.3480
  216POPC   C3A 3080   1.108   8.389   5.913 -0.1809 -0.2160 -0.1076
  216POPC   C4A 3081   1.290   8.375   6.385  0.5030 -0.0560 -0.0974
  216POPC   C1B 3082   0.520   8.973   5.294  0.0536 -0.0620  0.3706
  216POPC   C2B 3083   0.661   9.166   5.695 -0.0510  0.1399 -0.0810
  216POPC   C3B 3084   0.632   9.311   6.156 -0.0702  0.0180  0.2731
  216POPC   C4B 3085   0.596   9.448   6.587 -0.0820  0.1651 -0.1925
  217POPC   NC3 3086   1.073   8.802   3.845  0.0720  0.2665 -0.0533
  217POPC   PO4 3087   1.163   9.140   4.162 -0.0085 -0.1478 -0.0782
  217POPC   GL1 3088   1.444   9.102   4.527 -0.0720  0.2623 -0.1017
  217POPC   GL2 3089   1.348   9.301   4.819 -0.1797  0.2137  0.0256
  217POPC   C1A 3090   1.831   9.124   4.823  0.3239  0.2397 -0.3521
  217POPC   D2A 3091   1.896   8.800   5.131 -0.0478 -0.0263 -0.0622
  217POPC   C3A 3092   2.364   8.828   5.376  0.0408  0.0840  0.3113
  217POPC   C4A 3093   2.504   8.397   5.630  0.0579  0.0851 -0.2146
  217POPC   C1B 3094   1.533   9.281   5.205 -0.0885 -0.0588  0.1117
  217POPC   C2B 3095   1.527   9.393   5.625  0.2877  0.1942  0.2275
  217POPC   C3B 3096   1.594   9.112   6.015  0.2751  0.0683  0.2339
  217POPC   C4B 3097   1.352   8.981   6.380  0.3968  0.4122  0.0120
  218POPC   NC3 3098   3.684   4.357   4.084  0.2350 -0.1201 -0.0848
  218POPC   PO4 3099   3.291   4.568   3.862  0.0273  0.1257 -0.2388
  218POPC   GL1 3100   3.325   4.546   4.386  0.0131 -0.0162 -0.1396
  218POPC   GL2 3101   3.052   4.782   4.462  0.1769  0.1440 -0.1971
  218POPC   C1A 3102   3.299   4.653   4.860 -0.1654 -0.1921  0.0258
  218POPC   D2A 3103   3.305   4.689   5.303  0.0035  0.1157 -0.1003
  218POPC   C3A 3104   3.134   5.052   5.536 -0.2037 -0.1304 -0.0330
  218POPC   C4A 3105   3.101   5.247   5.956  0.0223 -0.1431  0.0061
  218POPC   C1B 3106   2.824   4.990   4.838  0.0656  0.1958  0.0622
  218POPC   C2B 3107   2.748   5.072   5.224 -0.0199 -0.2960  0.1200
  218POPC   C3B 3108   2.691   4.801   5.481  0.1726 -0.2934  0.0254
  218POPC   C4B 3109   3.034   4.629   5.724  0.1395  0.2015 -0.1691
  219POPC   NC3 3110   8.124   1.104   4.199 -0.1183 -0.1917  0.0383
  219POPC   PO4 3111   8.499   1.273   4.463 -0.2631 -0.0056  0.2697
  219POPC   GL1 3112   8.613   1.235   4.856  0.2536 -0.2134  0.0553
  219POPC   GL2 3113   8.467   1.439   5.058  0.2958  0.0890  0.3564
  219POPC   C1A 3114   8.807   0.905   5.135  0.0924  0.0150 -0.4334
  219POPC   D2A 3115   8.661   0.555   5.448  0.1176 -0.1077 -0.1386
  219POPC   C3A 3116   8.849   0.542   5.834  0.1865  0.0671 -0.5070
  219POPC   C4A 3117   8.839   0.432   6.339  0.1178  0.0751 -0.0658
  219POPC   C1B 3118   8.713   1.397   5.364 -0.0125 -0.2209  0.0214
  219POPC   C2B 3119   8.778   1.737   5.690 -0.1741  0.0305  0.0878
  219POPC   C3B 3120   8.790   1.902   6.120 -0.1866  0.1445  0.1515
  219POPC   C4B 3121   8.901   1.903   6.589  0.2313  0.3605  0.0348
  220POPC   NC3 3122   7.786   8.247   4.462  0.0273  0.3162 -0.4299
  220POPC   PO4 3123   7.434   8.162   4.699 -0.0461  0.2473  0.0322
  220POPC   GL1 3124   7.617   8.317   4.995 -0.1106  0.0225  0.1646
  220POPC   GL2 3125   7.336   8.232   5.196 -0.6230 -0.1954  0.0394
  220POPC   C1A 3126   7.892   8.396   5.238  0.1177 -0.0025  0.0126
  220POPC   D2A 3127   7.980   8.532   5.609 -0.2253 -0.2190 -0.2469
  220POPC   C3A 3128   7.884   8.639   6.044 -0.2531 -0.0401  0.1878
  220POPC   C4A 3129   7.847   8.580   6.509 -0.1096 -0.2046  0.0451
  220POPC   C1B 3130   7.255   8.141   5.581 -0.0396  0.2770  0.0831
  220POPC   C2B 3131   7.049   8.143   6.024  0.2449  0.1985  0.1187
  220POPC   C3B 3132   7.128   8.486   6.339  0.1525 -0.0157 -0.0238
  220POPC   C4B 3133   7.090   8.924   6.310 -0.0915 -0.0473 -0.1386
  221POPC   NC3 3134   5.463   9.605   4.651 -0.0153  0.3849 -0.0787
  221POPC   PO4 3135   5.357   9.810   4.973  0.0115 -0.1332  0.2064
  221POPC   GL1 3136   5.330   9.713   5.353  0.1712 -0.3421 -0.1851
  221POPC   GL2 3137   4.963   9.767   5.461  0.3039 -0.1658  0.0962
  221POPC   C1A 3138   5.314   9.482   5.725  0.0551 -0.1022 -0.0213
  221POPC   D2A 3139   5.431   9.260   6.126  0.0961 -0.2714  0.4837
  221POPC   C3A 3140   5.371   9.530   6.557  0.0766  0.0307 -0.0062
  221POPC   C4A 3141   5.362   9.707   6.963  0.1460  0.0871 -0.0294
  221POPC   C1B 3142   4.843   9.936   5.795  0.2614 -0.1636 -0.0457
  221POPC   C2B 3143   4.862   9.975   6.209  0.1885  0.0347 -0.1370
  221POPC   C3B 3144   4.582   9.870   6.586  0.1561  0.1767  0.1663
  221POPC   C4B 3145   4.643   9.606   7.003  0.0272 -0.2716  0.4743
  222POPC   NC3 3146   9.740   2.733   4.693  0.0937  0.0425  0.0237
  222POPC   PO4 3147  10.036   3.026   5.040 -0.1591  0.4963  0.2875
  222POPC   GL1 3148  10.245   3.264   5.393  0.0014  0.0758  0.1115
  222POPC   GL2 3149  10.082   3.524   5.239  0.1361  0.1001  0.0029
  222POPC   C1A 3150  10.286   3.110   5.907  0.0451 -0.2480  0.0314
  222POPC   D2A 3151  10.371   3.080   6.335  0.2463  0.2800 -0.1393
  222POPC   C3A 3152  10.254   3.515   6.588  0.1928 -0.0603  0.1893
  222POPC   C4A 3153  10.242   3.890   6.346 -0.0354  0.0128 -0.1016
  222POPC   C1B 3154  10.077   3.709   5.681  0.4491  0.2428  0.3914
  222POPC   C2B 3155   9.799   3.830   5.975 -0.0764  0.1462  0.0047
  222POPC   C3B 3156   9.729   3.811   6.461  0.0287  0.1528  0.0161
  222POPC   C4B 3157   9.386   3.995   6.717  0.1474 -0.1052  0.2662
  223POPC   NC3 3158   5.958   8.539   4.242  0.0173  0.1750  0.1274
  223POPC   PO4 3159   5.759   8.643   4.502 -0.1831  0.0442  0.0495
  223POPC   GL1 3160   5.707   8.259   4.629  0.2644 -0.2687  0.0105
  223POPC   GL2 3161   5.908   8.086   4.414 -0.0987  0.0041  0.0292
  223POPC   C1A 3162   5.690   7.914   4.846 -0.0469 -0.1423 -0.2787
  223POPC   D2A 3163   5.534   7.748   5.331  0.1164  0.1032 -0.1311
  223POPC   C3A 3164   5.246   7.679   5.746  0.3414  0.1276  0.5005
  223POPC   C4A 3165   5.261   7.631   6.211  0.1282 -0.2186  0.2795
  223POPC   C1B 3166   6.068   7.596   4.509  0.0659  0.2968 -0.2306
  223POPC   C2B 3167   6.052   7.312   4.800 -0.1862 -0.1202 -0.0639
  223POPC   C3B 3168   6.141   6.859   4.899  0.1186  0.0634 -0.2193
  223POPC   C4B 3169   6.390   6.589   5.116  0.0178 -0.2904  0.0516
  224POPC   NC3 3170   8.163   1.697   4.812  0.3003  0.2505  0.0554
  224POPC   PO4 3171   8.527   1.933   4.879 -0.0243 -0.1890 -0.1342
  224POPC   GL1 3172   8.462   1.914   5.393  0.1921 -0.0224 -0.1543
  224POPC   GL2 3173   8.208   1.674   5.485 -0.2672  0.0206  0.2264
  224POPC   C1A 3174   8.330   2.089   5.774  0.0792 -0.0188  0.3351
  224POPC   D2A 3175   8.287   2.060   6.196  0.2019  0.0403  0.2140
  224POPC   C3A 3176   7.900   2.058   6.321 -0.0542 -0.0712 -0.2515
  224POPC   C4A 3177   7.706   2.288   6.524 -0.1140 -0.0848 -0.0473
  224POPC   C1B 3178   8.326   1.593   5.969 -0.3355 -0.0702  0.0694
  224POPC   C2B 3179   8.498   1.591   6.410 -0.4413  0.0287 -0.3017
  224POPC   C3B 3180   8.612   1.545   6.811  0.1810  0.3418  0.0322
  224POPC   C4B 3181   8.809   1.635   7.128  0.0098 -0.0100  0.2297
  225POPC   NC3 3182   7.336   3.034   4.756  0.0920 -0.0195 -0.2061
  225POPC   PO4 3183   7.417   2.769   5.144  0.3472  0.1442  0.1276
  225POPC   GL1 3184   7.296   2.703   5.532 -0.1668  0.0445  0.2503
  225POPC   GL2 3185   7.315   2.519   5.684 -0.2304 -0.1598 -0.1448
  225POPC   C1A 3186   7.232   2.880   6.019  0.0922  0.5981  0.5025
  225POPC   D2A 3187   7.202   2.857   6.352 -0.0545  0.0729  0.2670
  225POPC   C3A 3188   7.242   2.500   6.535  0.2450  0.0037 -0.0551
  225POPC   C4A 3189   7.516   2.551   6.889 -0.2014 -0.0983  0.1595
  225POPC   C1B 3190   6.997   2.426   5.962  0.4625 -0.2295  0.1111
  225POPC   C2B 3191   6.728   2.533   6.378  0.1583  0.0986  0.0375
  225POPC   C3B 3192   6.280   2.546   6.506 -0.0508  0.0901  0.1409
  225POPC   C4B 3193   5.758   2.347   6.496  0.1336 -0.4341 -0.0778
  226POPC   NC3 3194   0.151   2.866   4.602 -0.0236 -0.2439  0.0982
  226POPC   PO4 3195  -0.256   2.539   4.569 -0.1839 -0.1377 -0.1555
  226POPC   GL1 3196  -0.285   2.251   4.998  0.0107 -0.2632  0.0152
  226POPC   GL2 3197  -0.609   2.438   5.149 -0.1874 -0.1422  0.4265
  226POPC   C1A 3198  -0.341   2.022   5.359  0.0501 -0.0421  0.0092
  226POPC   D2A 3199  -0.391   1.745   5.657  0.1328 -0.0989  0.0068
  226POPC   C3A 3200  -0.103   1.619   5.923 -0.2547 -0.0009 -0.1666
  226POPC   C4A 3201   0.178   1.544   6.247  0.1679 -0.1548 -0.0291
  226POPC   C1B 3202  -0.793   2.211   5.487 -0.1129  0.1718 -0.0128
  226POPC   C2B 3203  -0.762   2.009   5.805  0.2562 -0.0215 -0.0318
  226POPC   C3B 3204  -0.597   2.004   6.177 -0.1188  0.1691 -0.0632
  226POPC   C4B 3205  -0.227   1.824   6.474 -0.0415  0.0393 -0.1026
  227POPC   NC3 3206  10.345   2.039   4.543  0.5579  0.1214 -0.3579
  227POPC   PO4 3207  10.720   1.914   4.479  0.3571 -0.0189  0.2566
  227POPC   GL1 3208  10.794   1.923   4.941 -0.0143  0.0335  0.2639
  227POPC   GL2 3209  10.556   1.719   5.066 -0.2184  0.0223 -0.0190
  227POPC   C1A 3210  10.899   1.861   5.437 -0.2270  0.0887 -0.1727
  227POPC   D2A 3211  10.890   1.909   5.931 -0.0088 -0.1152 -0.0057
  227POPC   C3A 3212  11.083   2.270   6.141 -0.0011  0.1728  0.0104
  227POPC   C4A 3213  11.045   2.641   6.176 -0.1101  0.3406 -0.1055
  227POPC   C1B 3214  10.559   1.412   5.363  0.3091  0.2322  0.0432
  227POPC   C2B 3215  10.798   1.156   5.948  0.0370 -0.1402  0.0836
  227POPC   C3B 3216  10.979   1.146   6.357  0.1024  0.0425 -0.0255
  227POPC   C4B 3217  10.706   1.286   6.745  0.0559  0.1745  0.0432
  228POPC   NC3 3218   6.378   4.643   4.866  0.2495 -0.2458 -0.2026
  228POPC   PO4 3219   6.824   4.823   4.775 -0.2120  0.1623 -0.1752
  228POPC   GL1 3220   6.825   4.781   5.169 -0.0919 -0.0731  0.0218
  228POPC   GL2 3221   6.653   4.914   5.359  0.1009  0.1666  0.2940
  228POPC   C1A 3222   7.151   4.913   5.414 -0.1815 -0.1763  0.1699
  228POPC   D2A 3223   7.410   4.972   5.736  0.0658  0.1202  0.3421
  228POPC   C3A 3224   7.266   5.109   6.139 -0.0956  0.0648 -0.0582
  228POPC   C4A 3225   7.066   5.003   6.470 -0.1230  0.0872  0.0371
  228POPC   C1B 3226   6.443   4.819   5.707 -0.0452 -0.0317 -0.3028
  228POPC   C2B 3227   6.089   4.977   5.950  0.0498 -0.0463  0.0043
  228POPC   C3B 3228   5.904   5.202   6.353 -0.2125 -0.3311  0.0262
  228POPC   C4B 3229   6.042   5.411   6.790 -0.0401  0.0845 -0.1040
  229POPC   NC3 3230   1.896  10.358   4.270  0.3209  0.1139  0.1933
  229POPC   PO4 3231   2.190  10.083   4.451  0.0756  0.2710  0.4923
  229POPC   GL1 3232   2.238  10.238   4.889  0.1462 -0.0472  0.1582
  229POPC   GL2 3233   2.569  10.072   4.983  0.1586 -0.1010  0.1301
  229POPC   C1A 3234   2.094  10.430   5.304 -0.1338 -0.3146  0.2964
  229POPC   D2A 3235   2.092  10.270   5.698 -0.2147 -0.1707  0.2527
  229POPC   C3A 3236   2.452  10.209   5.927 -0.2716  0.2954 -0.0897
  229POPC   C4A 3237   2.647  10.096   6.272  0.2436 -0.0491  0.1340
  229POPC   C1B 3238   2.591  10.222   5.427  0.2735 -0.1089 -0.3736
  229POPC   C2B 3239   2.934  10.342   5.795  0.0419 -0.1867  0.0367
  229POPC   C3B 3240   3.103  10.393   6.235  0.1109  0.0397 -0.0677
  229POPC   C4B 3241   2.941  10.559   6.562 -0.0315  0.1100  0.0974
  230POPC   NC3 3242   1.499   6.088   3.460 -0.0197 -0.0414  0.1846
  230POPC   PO4 3243   1.662   6.234   3.829 -0.1945 -0.1301  0.0483
  230POPC   GL1 3244   2.045   6.196   3.935  0.1332  0.0329  0.0393
  230POPC   GL2 3245   2.299   6.472   4.057  0.3827  0.1157 -0.1690
  230POPC   C1A 3246   2.548   6.033   3.965  0.2163 -0.0900 -0.0132
  230POPC   D2A 3247   2.789   6.414   4.114 -0.0704  0.0154 -0.1525
  230POPC   C3A 3248   2.633   6.586   4.561  0.0303  0.2513  0.0728
  230POPC   C4A 3249   2.495   6.496   4.959 -0.3723  0.1360  0.0848
  230POPC   C1B 3250   2.256   6.141   4.395 -0.1846 -0.2859 -0.0947
  230POPC   C2B 3251   2.601   6.095   4.645 -0.0492  0.0988  0.1153
  230POPC   C3B 3252   2.913   6.202   4.957 -0.3030  0.2510 -0.1644
  230POPC   C4B 3253   3.270   6.353   5.172 -0.2421  0.0458 -0.0632
  231POPC   NC3 3254   0.229   0.053   4.620 -0.0909  0.1300 -0.0616
  231POPC   PO4 3255   0.609   0.130   4.700 -0.1564 -0.2219  0.2817
  231POPC   GL1 3256   0.704   0.153   5.128 -0.0434  0.1011 -0.1547
  231POPC   GL2 3257   0.958  -0.080   5.329 -0.1820 -0.1311  0.1463
  231POPC   C1A 3258   0.489   0.102   5.448  0.0123 -0.0408 -0.1486
  231POPC   D2A 3259   0.026   0.177   5.463 -0.0703 -0.2244 -0.2116
  231POPC   C3A 3260  -0.110  -0.159   5.681 -0.0041  0.2024 -0.1307
  231POPC   C4A 3261   0.019  -0.509   5.986 -0.1301  0.1445 -0.0615
  231POPC   C1B 3262   0.643  -0.335   5.611  0.1564  0.0399 -0.4099
  231POPC   C2B 3263   0.383  -0.190   5.879  0.0893  0.3651 -0.0190
  231POPC   C3B 3264   0.147  -0.048   6.106 -0.1480  0.0588  0.1608
  231POPC   C4B 3265  -0.289  -0.045   6.212 -0.0792  0.0220 -0.0454
  232POPC   NC3 3266   1.224   5.164   3.994  0.2635  0.0947 -0.2364
  232POPC   PO4 3267   1.380   5.441   4.246 -0.0982  0.1010  0.0565
  232POPC   GL1 3268   1.792   5.462   4.512 -0.2772  0.0577 -0.1986
  232POPC   GL2 3269   2.119   5.555   4.372  0.1067 -0.2594 -0.1375
  232POPC   C1A 3270   1.922   5.783   4.905 -0.0095  0.2513  0.0772
  232POPC   D2A 3271   2.064   5.652   5.328  0.1983  0.0857  0.0355
  232POPC   C3A 3272   2.479   5.559   5.361 -0.0747 -0.2248  0.0082
  232POPC   C4A 3273   2.822   5.687   5.156 -0.1771  0.2299 -0.0983
  232POPC   C1B 3274   2.591   5.662   4.344  0.1896 -0.1760  0.2247
  232POPC   C2B 3275   2.915   5.727   4.648  0.1988 -0.0832 -0.2742
  232POPC   C3B 3276   3.229   5.820   4.943 -0.0994 -0.1128 -0.0195
  232POPC   C4B 3277   3.623   5.580   4.978 -0.0092  0.2006 -0.3145
  233POPC   NC3 3278   6.142   9.480   4.970 -0.0871 -0.0386  0.1154
  233POPC   PO4 3279   5.972   9.756   5.312  0.0197 -0.0328 -0.1553
  233POPC   GL1 3280   5.763   9.786   5.696  0.0725 -0.0765  0.1801
  233POPC   GL2 3281   5.486   9.998   5.841 -0.1307  0.1585  0.3765
  233POPC   C1A 3282   5.817   9.855   6.216 -0.2653 -0.4951  0.0250
  233POPC   D2A 3283   5.938  10.103   6.631  0.0992 -0.4293  0.0812
  233POPC   C3A 3284   5.651  10.233   6.882 -0.1195  0.1439  0.1077
  233POPC   C4A 3285   5.345  10.174   7.165 -0.0631  0.2913  0.3770
  233POPC   C1B 3286   5.284   9.797   6.102 -0.1701 -0.1052 -0.0072
  233POPC   C2B 3287   4.955   9.458   6.151 -0.0693  0.4482  0.3418
  233POPC   C3B 3288   4.584   9.519   6.194  0.0313 -0.0186 -0.0734
  233POPC   C4B 3289   4.364   9.355   6.518 -0.0866  0.1425 -0.2805
  234POPC   NC3 3290   1.635   3.826   4.487  0.1353 -0.2361  0.1142
  234POPC   PO4 3291   1.444   3.563   4.763 -0.0616 -0.2015  0.2900
  234POPC   GL1 3292   1.543   3.751   5.025  0.1038  0.0640 -0.0014
  234POPC   GL2 3293   1.281   3.807   5.208  0.1200 -0.2250 -0.0330
  234POPC   C1A 3294   1.763   3.852   5.360  0.1899 -0.0754 -0.0210
  234POPC   D2A 3295   1.746   4.063   5.724  0.0068  0.0504  0.1830
  234POPC   C3A 3296   2.091   4.158   5.916  0.3118  0.0362  0.4775
  234POPC   C4A 3297   2.345   4.178   6.237 -0.2096 -0.0207  0.0929
  234POPC   C1B 3298   1.272   4.014   5.550  0.0141 -0.1790 -0.1554
  234POPC   C2B 3299   1.343   3.951   5.932  0.1688 -0.0339 -0.1129
  234POPC   C3B 3300   1.262   4.121   6.338  0.2517 -0.1790 -0.2251
  234POPC   C4B 3301   1.377   4.317   6.676 -0.0797 -0.0616 -0.1806
  235POPC   NC3 3302   3.475   0.737   4.723  0.0195  0.2372 -0.1671
  235POPC   PO4 3303   3.366   0.348   4.556 -0.0755  0.1731  0.1002
  235POPC   GL1 3304   3.150   0.457   4.973  0.1827  0.2339  0.2675
  235POPC   GL2 3305   3.087   0.683   5.155 -0.0432 -0.0463  0.2159
  235POPC   C1A 3306   3.328   0.377   5.430  0.0102  0.0538  0.3158
  235POPC   D2A 3307   3.299   0.213   5.831 -0.2152  0.0576 -0.0464
  235POPC   C3A 3308   3.537  -0.134   5.810 -0.0566 -0.0699 -0.1190
  235POPC   C4A 3309   3.989  -0.158   5.823  0.0272  0.1438  0.0154
  235POPC   C1B 3310   2.912   0.587   5.617  0.0319  0.1631  0.0913
  235POPC   C2B 3311   3.041   0.859   5.970 -0.0759 -0.3146 -0.0275
  235POPC   C3B 3312   3.364   0.747   6.179  0.1873 -0.0825  0.2135
  235POPC   C4B 3313   3.738   0.766   6.326 -0.1349  0.2476 -0.1234
  236POPC   NC3 3314   7.433   0.116   4.795 -0.0053  0.1997 -0.1320
  236POPC   PO4 3315   7.153  -0.147   4.972  0.2795  0.2404 -0.1326
  236POPC   GL1 3316   7.138  -0.189   5.374  0.3522 -0.1306  0.0211
  236POPC   GL2 3317   6.920  -0.451   5.356 -0.1186 -0.0198 -0.2732
  236POPC   C1A 3318   7.432  -0.137   5.661 -0.1278  0.4180 -0.4186
  236POPC   D2A 3319   7.887  -0.157   5.700 -0.0433  0.2591  0.1143
  236POPC   C3A 3320   8.102   0.238   5.897 -0.0159  0.1865  0.0249
  236POPC   C4A 3321   8.420   0.531   6.098  0.1614 -0.3182 -0.2968
  236POPC   C1B 3322   6.570  -0.467   5.599  0.1146 -0.0045 -0.2867
  236POPC   C2B 3323   6.319  -0.743   5.873 -0.0704  0.0582 -0.0771
  236POPC   C3B 3324   6.446  -0.996   6.208 -0.1057  0.2710 -0.3684
  236POPC   C4B 3325   6.615  -1.206   6.558 -0.1389  0.1348 -0.0228
  237POPC   NC3 3326   2.616   2.521   3.848  0.1483 -0.5387 -0.1213
  237POPC   PO4 3327   2.585   2.708   4.346 -0.1192  0.1980 -0.1536
  237POPC   GL1 3328   2.416   2.807   4.816 -0.1223  0.3717 -0.1228
  237POPC   GL2 3329   2.133   2.665   4.942  0.0863 -0.0416 -0.3820
  237POPC   C1A 3330   2.573   3.037   5.182 -0.1384 -0.1336 -0.1502
  237POPC   D2A 3331   2.422   3.014   5.577 -0.2871  0.1129  0.1351
  237POPC   C3A 3332   2.197   2.981   5.909  0.0270 -0.3985 -0.0777
  237POPC   C4A 3333   2.194   3.242   6.283 -0.1043  0.2671  0.0386
  237POPC   C1B 3334   2.331   2.591   5.388  0.2591  0.0284  0.0121
  237POPC   C2B 3335   2.415   2.407   5.756 -0.1696  0.1022  0.4511
  237POPC   C3B 3336   2.429   2.047   6.073  0.0511  0.3327  0.1616
  237POPC   C4B 3337   2.399   1.910   6.531 -0.1415  0.0553  0.1932
  238POPC   NC3 3338   5.663   5.424   4.186 -0.1785 -0.0189  0.0369
  238POPC   PO4 3339   5.779   5.108   4.341 -0.0013  0.0984  0.2825
  238POPC   GL1 3340   5.771   5.412   4.664  0.3433 -0.2776  0.0768
  238POPC   GL2 3341   5.937   5.736   4.514 -0.0241  0.1586  0.2014
  238POPC   C1A 3342   5.831   5.539   5.088 -0.0648  0.0698 -0.0105
  238POPC   D2A 3343   5.908   5.542   5.511  0.0342 -0.0667  0.0037
  238POPC   C3A 3344   5.743   5.345   5.801  0.1090  0.1481  0.0779
  238POPC   C4A 3345   5.378   5.254   6.103 -0.0754  0.4036 -0.0194
  238POPC   C1B 3346   6.044   6.031   4.809  0.1420  0.2988 -0.2380
  238POPC   C2B 3347   6.066   6.050   5.330  0.1430  0.2508  0.1143
  238POPC   C3B 3348   6.186   5.948   5.621  0.6052 -0.0720 -0.0940
  238POPC   C4B 3349   6.072   5.706   6.030  0.4046  0.1877 -0.1952
  239POPC   NC3 3350   8.030   6.156   4.877 -0.2346  0.1158  0.1136
  239POPC   PO4 3351   7.986   5.783   4.915  0.0285  0.0049  0.1728
  239POPC   GL1 3352   7.805   5.702   5.288  0.2399  0.3731  0.0010
  239POPC   GL2 3353   8.139   5.582   5.419  0.0027 -0.1980  0.3016
  239POPC   C1A 3354   7.524   5.859   5.467 -0.1474 -0.1142  0.1828
  239POPC   D2A 3355   7.050   5.937   5.781  0.3026 -0.0371 -0.2805
  239POPC   C3A 3356   7.111   6.149   6.179 -0.0296  0.0045  0.1511
  239POPC   C4A 3357   7.124   6.291   6.602  0.1564  0.2968 -0.0978
  239POPC   C1B 3358   7.894   5.458   5.693 -0.0056 -0.0165 -0.0306
  239POPC   C2B 3359   7.880   5.368   6.126 -0.1478  0.2199 -0.2496
  239POPC   C3B 3360   7.647   5.196   6.527 -0.2566  0.1492 -0.1513
  239POPC   C4B 3361   7.491   4.809   6.548  0.0405  0.1446 -0.0729
  240POPC   NC3 3362   9.980   9.800   4.868  0.1631  0.3949 -0.0073
  240POPC   PO4 3363  10.342   9.629   4.766 -0.2356 -0.1549 -0.0076
  240POPC   GL1 3364  10.370   9.389   5.109  0.1940  0.0676  0.0066
  240POPC   GL2 3365  10.089   9.247   5.075 -0.0603  0.0487  0.1408
  240POPC   C1A 3366  10.617   9.240   5.461  0.1804  0.1250  0.1451
  240POPC   D2A 3367  10.698   9.073   5.892 -0.1549 -0.0298  0.0762
  240POPC   C3A 3368  10.651   9.260   6.295  0.1780  0.2737  0.0301
  240POPC   C4A 3369  10.593   9.628   6.550 -0.1088  0.0414 -0.1837
  240POPC   C1B 3370  10.148   9.160   5.547 -0.1260  0.2346  0.0864
  240POPC   C2B 3371  10.192   9.011   6.028  0.1572 -0.0189 -0.0167
  240POPC   C3B 3372  10.467   8.792   6.208 -0.1017  0.0138 -0.3092
  240POPC   C4B 3373  10.685   8.345   6.381 -0.2617  0.1711 -0.2461
  241POPC   NC3 3374   5.875   1.614   5.297  0.4331  0.0132  0.0732
  241POPC   PO4 3375   6.121   1.781   5.025 -0.0740  0.2083 -0.1245
  241POPC   GL1 3376   6.435   1.622   5.304 -0.3155  0.1676 -0.2853
  241POPC   GL2 3377   6.697   1.382   5.252  0.0781  0.2114  0.1511
  241POPC   C1A 3378   6.434   1.645   5.771  0.0399 -0.0953  0.3406
  241POPC   D2A 3379   6.403   1.631   6.206 -0.0895 -0.0498 -0.0293
  241POPC   C3A 3380   6.691   1.466   6.485  0.4951 -0.2974  0.2973
  241POPC   C4A 3381   7.063   1.470   6.536 -0.3671  0.2591 -0.0450
  241POPC   C1B 3382   6.966   1.476   5.496  0.0318  0.2526  0.2069
  241POPC   C2B 3383   7.211   1.748   5.580 -0.0437  0.1688  0.1389
  241POPC   C3B 3384   7.296   2.082   5.831 -0.2446 -0.4853 -0.1099
  241POPC   C4B 3385   7.532   2.345   6.059 -0.2853 -0.1739  0.0190
  242POPC   NC3 3386   4.694   1.577   4.605  0.0405  0.3355 -0.1040
  242POPC   PO4 3387   4.697   1.477   5.054 -0.0671 -0.0206 -0.1126
  242POPC   GL1 3388   4.573   1.331   5.450 -0.0065  0.0051 -0.2286
  242POPC   GL2 3389   4.339   1.066   5.650  0.4092  0.1524  0.0684
  242POPC   C1A 3390   4.783   1.301   5.791 -0.0924 -0.0311 -0.2650
  242POPC   D2A 3391   5.093   1.148   6.049  0.1448  0.1734  0.0935
  242POPC   C3A 3392   5.086   0.734   6.305 -0.3295 -0.2025  0.1663
  242POPC   C4A 3393   5.207   0.526   6.728  0.1243  0.0105 -0.1363
  242POPC   C1B 3394   3.927   1.134   5.973  0.2801  0.1803 -0.1530
  242POPC   C2B 3395   3.677   1.252   6.337 -0.1122 -0.3670 -0.1456
  242POPC   C3B 3396   3.496   1.147   6.695 -0.0250  0.1274 -0.0937
  242POPC   C4B 3397   3.297   1.083   7.131  0.4529  0.0368 -0.0916
  243POPC   NC3 3398   9.436   7.285   4.875 -0.0442 -0.2381 -0.1433
  243POPC   PO4 3399   8.990   7.271   4.738  0.1875  0.0460 -0.1244
  243POPC   GL1 3400   8.650   7.287   5.002 -0.2215  0.4484  0.2216
  243POPC   GL2 3401   8.628   7.577   5.192 -0.2504  0.1351 -0.0444
  243POPC   C1A 3402   8.387   7.118   5.340  0.3290 -0.3106 -0.3142
  243POPC   D2A 3403   8.372   6.776   5.539 -0.1271 -0.0643 -0.2042
  243POPC   C3A 3404   8.270   6.750   5.990 -0.1102  0.1052 -0.3453
  243POPC   C4A 3405   8.525   6.535   6.301  0.0833 -0.3369  0.0456
  243POPC   C1B 3406   8.794   7.515   5.656 -0.2440 -0.0693  0.1310
  243POPC   C2B 3407   8.920   7.441   6.085  0.0207  0.0467 -0.4137
  243POPC   C3B 3408   8.914   7.671   6.396 -0.2176  0.1187  0.1509
  243POPC   C4B 3409   8.725   7.815   6.714 -0.0098  0.0224  0.0694
  244POPC   NC3 3410   4.356   3.741   4.961 -0.3072 -0.0100  0.0578
  244POPC   PO4 3411   4.689   3.570   5.245 -0.1106 -0.1850  0.1190
  244POPC   GL1 3412   4.884   3.783   5.691 -0.2476 -0.0632  0.2062
  244POPC   GL2 3413   5.115   3.528   5.772  0.3160 -0.1441  0.0123
  244POPC   C1A 3414   5.111   4.027   5.940  0.0426  0.2406  0.0637
  244POPC   D2A 3415   5.396   4.266   6.200  0.1298 -0.2348  0.4952
  244POPC   C3A 3416   5.306   4.641   6.281 -0.0858 -0.3003 -0.0516
  244POPC   C4A 3417   5.082   4.940   6.338  0.3166  0.0428  0.1108
  244POPC   C1B 3418   4.934   3.537   6.189 -0.1034 -0.0163 -0.0844
  244POPC   C2B 3419   4.517   3.561   6.338  0.2732 -0.2542  0.1962
  244POPC   C3B 3420   4.073   3.916   6.257  0.4309 -0.0017 -0.2425
  244POPC   C4B 3421   3.917   4.221   5.964 -0.4951 -0.2683 -0.0973
  245POPC   NC3 3422   3.409   6.332   3.435 -0.1770  0.0842 -0.2256
  245POPC   PO4 3423   3.348   5.840   3.686  0.0990 -0.0576  0.0437
  245POPC   GL1 3424   3.340   5.968   4.131 -0.0415  0.2683  0.2743
  245POPC   GL2 3425   2.996   5.922   4.158  0.0937  0.1902 -0.0541
  245POPC   C1A 3426   3.417   5.807   4.515 -0.4166 -0.0055  0.1077
  245POPC   D2A 3427   3.711   5.422   4.425  0.0906 -0.2010  0.0763
  245POPC   C3A 3428   3.974   5.248   4.838 -0.1240 -0.2942  0.1218
  245POPC   C4A 3429   4.449   5.105   4.785 -0.3022 -0.1730  0.1609
  245POPC   C1B 3430   3.111   6.233   4.462 -0.0993  0.0057 -0.1336
  245POPC   C2B 3431   3.199   6.596   4.682  0.2173  0.0043  0.1300
  245POPC   C3B 3432   3.557   6.678   4.953 -0.2633 -0.2471 -0.1103
  245POPC   C4B 3433   4.016   6.660   4.881 -0.0698  0.1288  0.1615
  246POPC   NC3 3434   6.985   5.656   4.782 -0.0703 -0.1384 -0.4615
  246POPC   PO4 3435   6.895   5.983   4.697 -0.1560  0.0866 -0.2560
  246POPC   GL1 3436   6.608   6.060   5.002  0.0093 -0.1036  0.0596
  246POPC   GL2 3437   6.447   5.705   5.103 -0.1836  0.2286  0.2430
  246POPC   C1A 3438   6.687   6.164   5.468  0.2516 -0.0994  0.1467
  246POPC   D2A 3439   6.673   6.342   5.938 -0.2402 -0.1446  0.1538
  246POPC   C3A 3440   6.870   6.591   6.245  0.1183 -0.0670 -0.1044
  246POPC   C4A 3441   7.015   6.941   6.398 -0.0196 -0.0611 -0.0243
  246POPC   C1B 3442   6.639   5.728   5.648  0.2136 -0.1788  0.1651
  246POPC   C2B 3443   6.555   5.856   6.035 -0.0754 -0.0373  0.0631
  246POPC   C3B 3444   6.305   5.958   6.464  0.1983  0.0141 -0.2095
  246POPC   C4B 3445   6.136   5.961   6.892  0.1866 -0.0274  0.1095
  247POPC   NC3 3446   6.645   8.474   4.510  0.1718  0.0057  0.0269
  247POPC   PO4 3447   6.456   8.272   4.238  0.0734 -0.1210 -0.2635
  247POPC   GL1 3448   6.456   8.003   4.627  0.3310  0.5047 -0.0249
  247POPC   GL2 3449   6.633   8.092   4.885  0.2210 -0.1141 -0.0233
  247POPC   C1A 3450   6.184   7.823   4.917 -0.1959  0.1604 -0.1617
  247POPC   D2A 3451   5.978   7.532   5.221  0.0313 -0.1428 -0.0367
  247POPC   C3A 3452   6.151   7.585   5.628 -0.0004  0.3585  0.0768
  247POPC   C4A 3453   6.372   7.201   5.766 -0.2933 -0.3524 -0.2470
  247POPC   C1B 3454   6.808   8.030   5.239 -0.3185  0.0895  0.4839
  247POPC   C2B 3455   6.691   8.110   5.654 -0.1804  0.0860  0.2057
  247POPC   C3B 3456   6.267   8.127   5.768  0.4509 -0.1357 -0.3033
  247POPC   C4B 3457   5.918   7.990   5.685  0.0305  0.1494  0.2325
  248POPC   NC3 3458   7.514   3.750   5.318  0.1410  0.0035 -0.3033
  248POPC   PO4 3459   7.492   3.355   5.171  0.2690  0.1730  0.0881
  248POPC   GL1 3460   7.772   3.109   5.447 -0.1525  0.1226 -0.1635
  248POPC   GL2 3461   7.957   3.350   5.443 -0.0135 -0.0230 -0.0860
  248POPC   C1A 3462   7.690   2.861   5.855  0.4717 -0.3709  0.0101
  248POPC   D2A 3463   7.770   3.088   6.299  0.3626  0.2998  0.1401
  248POPC   C3A 3464   7.880   2.768   6.555  0.1973 -0.2289  0.0003
  248POPC   C4A 3465   8.098   2.429   6.828  0.1717 -0.1024  0.2074
  248POPC   C1B 3466   8.315   3.517   5.683  0.0759 -0.1284  0.0371
  248POPC   C2B 3467   8.627   3.462   6.114 -0.0216  0.4117  0.2514
  248POPC   C3B 3468   8.622   3.578   6.618  0.2212 -0.1358  0.4566
  248POPC   C4B 3469   8.798   3.480   7.010 -0.1729 -0.0613  0.0090
  249POPC   NC3 3470   2.527   4.664   4.209  0.3321  0.1353  0.0118
  249POPC   PO4 3471   2.135   4.543   4.193 -0.0583 -0.1471  0.1120
  249POPC   GL1 3472   2.178   4.595   4.645 -0.2638  0.0968  0.3132
  249POPC   GL2 3473   2.349   4.785   4.714 -0.0742  0.0183  0.1418
  249POPC   C1A 3474   2.139   4.795   5.138  0.0845  0.1247  0.3269
  249POPC   D2A 3475   2.245   5.071   5.495 -0.1499 -0.0840 -0.2098
  249POPC   C3A 3476   2.212   5.091   5.965  0.3406  0.0754  0.0662
  249POPC   C4A 3477   2.260   5.268   6.359  0.1868 -0.2552 -0.0750
  249POPC   C1B 3478   2.344   5.221   4.738  0.4381  0.4690  0.0309
  249POPC   C2B 3479   2.479   5.621   4.849  0.0538  0.1920 -0.2017
  249POPC   C3B 3480   2.467   6.038   5.137 -0.1695  0.1467 -0.0535
  249POPC   C4B 3481   2.383   6.028   5.589  0.0779 -0.1660  0.1531
  250POPC   NC3 3482   0.032   3.182   4.977  0.1313  0.1237 -0.0522
  250POPC   PO4 3483   0.078   3.621   4.893  0.0510 -0.1254  0.0742
  250POPC   GL1 3484   0.261   3.506   5.257 -0.2243  0.0173  0.1032
  250POPC   GL2 3485   0.436   3.227   5.257  0.0537 -0.1085 -0.0360
  250POPC   C1A 3486   0.152   3.439   5.628  0.3573 -0.1055 -0.2811
  250POPC   D2A 3487   0.085   3.563   5.992 -0.1071  0.5267 -0.2242
  250POPC   C3A 3488   0.334   3.629   6.294  0.2837  0.0257 -0.2877
  250POPC   C4A 3489   0.551   3.721   6.686  0.0628 -0.0881  0.0350
  250POPC   C1B 3490   0.608   3.241   5.669 -0.1497  0.2585  0.0848
  250POPC   C2B 3491   0.681   3.335   6.117  0.1779 -0.2424  0.2109
  250POPC   C3B 3492   0.916   3.425   6.469  0.0315  0.0450 -0.1356
  250POPC   C4B 3493   1.371   3.661   6.381 -0.2544  0.0747 -0.0341
  251POPC   NC3 3494   4.082   2.028   4.743  0.1041  0.1186 -0.2421
  251POPC   PO4 3495   4.362   1.808   4.958  0.2383  0.1263 -0.0549
  251POPC   GL1 3496   4.334   1.774   5.448  0.0433  0.2653  0.1463
  251POPC   GL2 3497   4.134   1.544   5.651  0.0761  0.0724 -0.0615
  251POPC   C1A 3498   4.639   1.781   5.787  0.1189  0.0751 -0.0647
  251POPC   D2A 3499   4.841   1.629   6.198  0.1936 -0.1847 -0.1176
  251POPC   C3A 3500   4.867   1.330   6.494  0.1584  0.0139 -0.0083
  251POPC   C4A 3501   5.174   1.066   6.663 -0.1859  0.0334 -0.1025
  251POPC   C1B 3502   4.351   1.465   6.102 -0.0929 -0.1556 -0.3814
  251POPC   C2B 3503   4.483   1.582   6.629 -0.0548  0.1978 -0.1338
  251POPC   C3B 3504   4.628   1.778   6.921 -0.2421 -0.0521  0.0918
  251POPC   C4B 3505   4.768   1.951   7.363 -0.0559  0.2350  0.1287
  252POPC   NC3 3506   5.380   7.384   3.751  0.0539 -0.0502  0.0439
  252POPC   PO4 3507   5.009   7.532   3.545  0.0417 -0.0116 -0.1059
  252POPC   GL1 3508   4.896   7.211   3.813  0.2883 -0.2537 -0.2005
  252POPC   GL2 3509   4.593   7.330   3.762 -0.1957 -0.5094 -0.1592
  252POPC   C1A 3510   4.628   6.743   3.879 -0.0124 -0.1813 -0.2210
  252POPC   D2A 3511   4.657   6.277   3.909 -0.0431  0.1374 -0.0154
  252POPC   C3A 3512   4.357   6.032   4.083  0.0258  0.2235  0.1895
  252POPC   C4A 3513   3.967   5.824   4.247 -0.3879 -0.1753  0.2024
  252POPC   C1B 3514   4.332   7.131   4.029 -0.2236 -0.0284  0.1187
  252POPC   C2B 3515   3.878   7.246   4.188 -0.0433 -0.0958  0.2352
  252POPC   C3B 3516   3.530   7.032   4.034 -0.0098 -0.0979  0.1764
  252POPC   C4B 3517   3.187   7.096   3.860 -0.2046  0.3487 -0.0541
  253POPC   NC3 3518   3.342   1.642   4.901 -0.0454 -0.0048  0.0200
  253POPC   PO4 3519   3.422   1.193   4.886  0.2681  0.1260 -0.1242
  253POPC   GL1 3520   3.398   1.159   5.291 -0.2284  0.1176 -0.0563
  253POPC   GL2 3521   3.117   1.363   5.280  0.1792 -0.0321  0.1478
  253POPC   C1A 3522   3.386   0.883   5.603  0.2709 -0.5909 -0.2756
  253POPC   D2A 3523   3.625   0.630   5.797  0.1329 -0.2441  0.1626
  253POPC   C3A 3524   3.732   0.302   6.078  0.0617  0.0146  0.3012
  253POPC   C4A 3525   3.820   0.253   6.469  0.0250 -0.1203  0.1875
  253POPC   C1B 3526   3.197   1.489   5.700 -0.4024  0.2553 -0.0881
  253POPC   C2B 3527   3.326   1.300   5.963  0.2157  0.4532 -0.1977
  253POPC   C3B 3528   3.102   1.267   6.320 -0.2282 -0.1811 -0.1915
  253POPC   C4B 3529   3.048   0.934   6.610  0.0280 -0.1581  0.1001
  254POPC   NC3 3530  10.449   4.716   4.688 -0.2455  0.2773  0.2235
  254POPC   PO4 3531  10.354   4.699   5.082 -0.0603  0.0033  0.2282
  254POPC   GL1 3532  10.438   4.403   5.384  0.3000 -0.1473 -0.1438
  254POPC   GL2 3533  10.457   4.589   5.659  0.0828 -0.3551  0.0103
  254POPC   C1A 3534  10.633   4.019   5.672  0.1691  0.1315  0.2660
  254POPC   D2A 3535  10.815   4.108   6.051  0.5725  0.3043  0.2863
  254POPC   C3A 3536  11.212   4.363   6.186 -0.0334 -0.2756  0.0613
  254POPC   C4A 3537  11.529   4.570   6.284  0.1589  0.1115 -0.2070
  254POPC   C1B 3538  10.638   4.610   6.020 -0.0241 -0.0784 -0.0505
  254POPC   C2B 3539  10.761   4.495   6.371  0.0628 -0.2532 -0.0377
  254POPC   C3B 3540  10.728   4.512   6.869  0.3331 -0.4178  0.0101
  254POPC   C4B 3541  11.169   4.587   7.080 -0.1677 -0.3290  0.0738
  255POPC   NC3 3542   6.917   9.471   4.667  0.0209  0.0640 -0.0624
  255POPC   PO4 3543   6.695   9.618   5.052 -0.2045 -0.0143  0.1629
  255POPC   GL1 3544   6.652   9.575   5.324  0.2035  0.0174  0.0779
  255POPC   GL2 3545   6.346   9.418   5.435 -0.0464  0.1231  0.0173
  255POPC   C1A 3546   6.754   9.567   5.716 -0.1205 -0.2431 -0.0115
  255POPC   D2A 3547   6.851   9.312   6.069 -0.0676  0.0115  0.2517
  255POPC   C3A 3548   7.036   9.476   6.398 -0.0164 -0.4557  0.0380
  255POPC   C4A 3549   7.244   9.321   6.757  0.1383 -0.3537 -0.0696
  255POPC   C1B 3550   6.365   9.165   5.852 -0.0777  0.1853 -0.0825
  255POPC   C2B 3551   6.566   8.914   6.107  0.0045 -0.1656  0.0903
  255POPC   C3B 3552   6.653   8.539   6.124  0.2747  0.0441 -0.1910
  255POPC   C4B 3553   6.567   8.068   6.178  0.0069  0.0694  0.1423
  256POPC   NC3 3554   5.067   3.817   4.632 -0.2361  0.2588 -0.0244
  256POPC   PO4 3555   5.168   3.908   5.156 -0.2028  0.1584  0.0139
  256POPC   GL1 3556   5.388   3.895   5.486  0.1393  0.0745 -0.0215
  256POPC   GL2 3557   5.709   4.091   5.305 -0.1301  0.0189 -0.0471
  256POPC   C1A 3558   5.579   3.795   5.981  0.3477  0.1471  0.3829
  256POPC   D2A 3559   5.325   3.759   6.456  0.0629 -0.0869 -0.2264
  256POPC   C3A 3560   4.928   4.066   6.428 -0.0352  0.2001 -0.1924
  256POPC   C4A 3561   4.992   4.326   6.573 -0.0366 -0.1302  0.1319
  256POPC   C1B 3562   5.570   4.278   5.645 -0.2140 -0.0188  0.0857
  256POPC   C2B 3563   5.248   4.450   5.699 -0.0759 -0.1999  0.0793
  256POPC   C3B 3564   4.884   4.490   6.020  0.3282  0.0162 -0.2031
  256POPC   C4B 3565   4.452   4.482   6.266  0.1118  0.1774 -0.1025
  257POPC   NC3 3566   7.930   3.630   4.998 -0.1744  0.1840  0.1299
  257POPC   PO4 3567   7.958   3.976   5.229 -0.0958 -0.0625  0.3121
  257POPC   GL1 3568   8.307   4.254   5.472  0.2141 -0.2679  0.4219
  257POPC   GL2 3569   8.390   4.512   5.493  0.1679  0.0257  0.1552
  257POPC   C1A 3570   8.480   3.967   5.831  0.4540  0.0146 -0.0449
  257POPC   D2A 3571   8.233   3.739   6.178  0.5192 -0.1291 -0.2542
  257POPC   C3A 3572   8.120   3.398   6.449  0.1806 -0.1225  0.1793
  257POPC   C4A 3573   7.875   3.259   6.806  0.3313 -0.3278 -0.0233
  257POPC   C1B 3574   8.288   4.692   5.948  0.1290 -0.3678 -0.0404
  257POPC   C2B 3575   8.384   4.413   6.286 -0.0108 -0.2409 -0.0386
  257POPC   C3B 3576   8.273   4.126   6.557 -0.0446  0.0726 -0.1926
  257POPC   C4B 3577   8.046   3.828   6.686 -0.2087  0.1545 -0.0640
  258POPC   NC3 3578   0.560   6.882   4.202  0.1195 -0.0762  0.1990
  258POPC   PO4 3579   0.396   6.832   4.524  0.0297 -0.1403 -0.1984
  258POPC   GL1 3580   0.328   6.950   5.009 -0.0157 -0.2622 -0.1146
  258POPC   GL2 3581   0.577   6.792   5.107  0.2893 -0.1524 -0.1859
  258POPC   C1A 3582   0.266   7.144   5.290  0.0944 -0.0460  0.2570
  258POPC   D2A 3583   0.273   7.243   5.715 -0.0003 -0.0398  0.0219
  258POPC   C3A 3584   0.176   7.604   5.840  0.1778 -0.2628 -0.0675
  258POPC   C4A 3585   0.024   8.014   5.827  0.1789 -0.0775 -0.1212
  258POPC   C1B 3586   0.691   6.690   5.440  0.0723 -0.1948  0.0488
  258POPC   C2B 3587   0.819   6.638   5.948  0.2479 -0.2453 -0.1819
  258POPC   C3B 3588   0.746   6.670   6.384 -0.1778  0.0392 -0.2168
  258POPC   C4B 3589   0.749   6.622   6.812  0.0504  0.3676 -0.3414
  259POPC   NC3 3590   5.229   6.944   3.505 -0.0015 -0.0338  0.0494
  259POPC   PO4 3591   5.626   6.674   3.614  0.0572 -0.0585  0.0425
  259POPC   GL1 3592   5.477   6.567   3.954 -0.0059 -0.3990 -0.2017
  259POPC   GL2 3593   5.607   6.516   4.214 -0.0344  0.2839 -0.2093
  259POPC   C1A 3594   4.994   6.588   4.166  0.0572  0.1105 -0.0637
  259POPC   D2A 3595   4.714   6.947   4.349  0.1314 -0.3130  0.1343
  259POPC   C3A 3596   4.644   7.358   4.571 -0.0417  0.1112  0.2027
  259POPC   C4A 3597   4.242   7.508   4.601  0.0110  0.1808  0.2782
  259POPC   C1B 3598   5.366   6.616   4.535  0.1786  0.2026 -0.1572
  259POPC   C2B 3599   4.939   6.612   4.687  0.3392 -0.0922 -0.2450
  259POPC   C3B 3600   4.547   6.702   4.840 -0.0840 -0.1353  0.0905
  259POPC   C4B 3601   4.364   7.028   4.907 -0.1098  0.1977 -0.1064
  260POPC   NC3 3602   9.503   6.163   4.736  0.3224 -0.1465  0.1093
  260POPC   PO4 3603   9.102   6.054   5.086  0.0142  0.0595  0.0110
  260POPC   GL1 3604   9.468   5.971   5.309  0.0658 -0.1068  0.0061
  260POPC   GL2 3605   9.720   6.198   5.388  0.2639  0.1431 -0.0238
  260POPC   C1A 3606   9.546   5.762   5.755  0.1249 -0.2589 -0.3231
  260POPC   D2A 3607   9.650   5.721   6.195 -0.1022 -0.1155  0.0225
  260POPC   C3A 3608   9.457   5.916   6.575  0.0342 -0.3132  0.4530
  260POPC   C4A 3609   9.047   5.867   6.774  0.0012  0.1018 -0.1567
  260POPC   C1B 3610   9.855   6.140   5.801 -0.0198  0.0203 -0.1990
  260POPC   C2B 3611   9.965   6.237   6.233 -0.3660  0.1426  0.1185
  260POPC   C3B 3612  10.282   6.270   6.611 -0.0820 -0.3060 -0.5026
  260POPC   C4B 3613  10.377   6.439   6.961  0.0172  0.1156 -0.0789
  261POPC   NC3 3614   7.350   1.139   4.695 -0.2912  0.0358 -0.0871
  261POPC   PO4 3615   7.665   1.456   4.701 -0.1880 -0.1772 -0.1121
  261POPC   GL1 3616   7.853   1.399   5.131 -0.0966  0.1347 -0.1005
  261POPC   GL2 3617   7.528   1.293   5.146  0.0849 -0.0621 -0.0758
  261POPC   C1A 3618   8.139   1.042   5.347  0.0403 -0.1900  0.3579
  261POPC   D2A 3619   8.424   0.915   5.778  0.1543  0.0580 -0.0369
  261POPC   C3A 3620   8.892   0.975   5.662 -0.2355 -0.2959  0.0072
  261POPC   C4A 3621   9.263   0.764   5.588  0.3725  0.2701  0.1638
  261POPC   C1B 3622   7.565   1.300   5.638 -0.3210  0.0285  0.1438
  261POPC   C2B 3623   7.870   1.355   5.932 -0.0771  0.0023 -0.1009
  261POPC   C3B 3624   7.987   1.515   6.403  0.1197  0.0876 -0.1400
  261POPC   C4B 3625   8.017   1.895   6.762  0.0509 -0.0835 -0.3130
  262POPC   NC3 3626   3.084   0.506   4.125  0.2670 -0.0220  0.1759
  262POPC   PO4 3627   2.627   0.533   4.408  0.1076  0.0672 -0.1940
  262POPC   GL1 3628   2.691   0.589   4.899  0.1165 -0.1558 -0.1922
  262POPC   GL2 3629   2.597   0.651   5.224 -0.0158  0.0024 -0.3418
  262POPC   C1A 3630   2.814   0.241   5.286 -0.2171  0.1489 -0.0980
  262POPC   D2A 3631   2.447   0.288   5.510  0.3082  0.0570 -0.2578
  262POPC   C3A 3632   2.302   0.243   5.943 -0.1978 -0.1187  0.1030
  262POPC   C4A 3633   2.460   0.096   6.384 -0.0472  0.2077  0.1066
  262POPC   C1B 3634   2.734   1.071   5.463  0.2839 -0.1695 -0.5182
  262POPC   C2B 3635   2.718   1.311   5.894 -0.1078 -0.2444 -0.3510
  262POPC   C3B 3636   2.489   1.538   6.230 -0.1924  0.2434 -0.2291
  262POPC   C4B 3637   2.497   1.493   6.725  0.0409  0.1194  0.1027
  263POPC   NC3 3638   1.685   7.725   4.088 -0.0458  0.0672  0.1255
  263POPC   PO4 3639   1.857   8.107   3.958  0.1253 -0.3374  0.1693
  263POPC   GL1 3640   1.753   8.204   4.339  0.0462  0.0459  0.0151
  263POPC   GL2 3641   1.420   8.153   4.289  0.1544 -0.1574 -0.1456
  263POPC   C1A 3642   1.824   8.426   4.684 -0.0946 -0.1304 -0.0879
  263POPC   D2A 3643   1.759   8.303   5.188  0.2260  0.0591  0.2415
  263POPC   C3A 3644   1.880   8.285   5.558 -0.0359  0.3335  0.0958
  263POPC   C4A 3645   2.064   8.599   5.799 -0.0969 -0.0927  0.1341
  263POPC   C1B 3646   1.520   8.056   4.806 -0.2202  0.0524  0.0070
  263POPC   C2B 3647   1.243   8.194   5.147  0.0888 -0.0728  0.2727
  263POPC   C3B 3648   0.902   8.556   5.398 -0.0211 -0.0451  0.1686
  263POPC   C4B 3649   0.625   8.654   5.733 -0.3622 -0.3819  0.1799
  264POPC   NC3 3650   1.846   2.029   4.318  0.0232 -0.3707  0.1880
  264POPC   PO4 3651   1.638   1.718   4.534  0.0221 -0.0024 -0.1985
  264POPC   GL1 3652   1.677   1.556   5.015  0.0993  0.1942  0.1470
  264POPC   GL2 3653   1.816   1.227   5.021  0.2441 -0.2128  0.2302
  264POPC   C1A 3654   1.679   1.613   5.471 -0.2509 -0.1143  0.2653
  264POPC   D2A 3655   1.822   1.435   5.902  0.0031  0.1455  0.1031
  264POPC   C3A 3656   2.009   1.666   6.265  0.0553  0.1966 -0.0752
  264POPC   C4A 3657   1.886   1.918   6.544 -0.4707  0.1498  0.0823
  264POPC   C1B 3658   1.827   1.093   5.433 -0.0610  0.1142 -0.2264
  264POPC   C2B 3659   1.775   0.778   5.738 -0.0445 -0.0188  0.0878
  264POPC   C3B 3660   1.930   0.556   6.128  0.2379  0.0596  0.2263
  264POPC   C4B 3661   2.275   0.613   6.321  0.2080 -0.1183  0.1106
  265POPC   NC3 3662   8.579  10.210   4.907 -0.0483  0.0411  0.0603
  265POPC   PO4 3663   8.756   9.862   5.091 -0.0022 -0.0413  0.1377
  265POPC   GL1 3664   8.904   9.974   5.509  0.1394  0.0612 -0.0607
  265POPC   GL2 3665   9.018   9.692   5.695 -0.1028 -0.1455  0.1170
  265POPC   C1A 3666   8.771  10.133   5.988 -0.6643  0.1745 -0.0447
  265POPC   D2A 3667   8.509  10.070   6.263 -0.3274 -0.1205  0.3826
  265POPC   C3A 3668   8.378   9.771   6.461 -0.0117 -0.3832 -0.0075
  265POPC   C4A 3669   7.977   9.507   6.569 -0.3293 -0.1910 -0.1778
  265POPC   C1B 3670   9.061   9.676   6.116 -0.2281 -0.1522 -0.1028
  265POPC   C2B 3671   8.948   9.726   6.586  0.0968 -0.1555  0.1900
  265POPC   C3B 3672   9.204   9.697   6.965 -0.0034 -0.0000 -0.0759
  265POPC   C4B 3673   9.487   9.378   6.992  0.2011  0.0108 -0.0916
  266POPC   NC3 3674   8.568   5.772   5.305  0.0316  0.2808  0.4074
  266POPC   PO4 3675   8.624   6.060   5.057 -0.1162 -0.0856 -0.2372
  266POPC   GL1 3676   8.760   6.259   5.459 -0.0361  0.4099 -0.1118
  266POPC   GL2 3677   9.050   6.063   5.664 -0.1748  0.0189 -0.0280
  266POPC   C1A 3678   8.397   6.335   5.808 -0.0790 -0.2943 -0.2756
  266POPC   D2A 3679   8.119   6.281   6.147 -0.0950 -0.2244  0.0187
  266POPC   C3A 3680   8.097   5.799   6.243  0.3646 -0.2819 -0.3101
  266POPC   C4A 3681   8.091   5.508   6.583  0.1295  0.0622 -0.1596
  266POPC   C1B 3682   9.372   6.241   5.810  0.0002  0.0075 -0.2824
  266POPC   C2B 3683   9.486   6.341   6.273  0.2293  0.1324  0.3158
  266POPC   C3B 3684   9.245   6.363   6.582 -0.0135  0.0713  0.0203
  266POPC   C4B 3685   9.258   6.245   7.084  0.1728 -0.3612  0.0578
  267POPC   NC3 3686   2.633   9.818   4.314  0.1814 -0.0185 -0.1641
  267POPC   PO4 3687   2.948  10.047   4.589  0.0417  0.1619 -0.2177
  267POPC   GL1 3688   2.847   9.564   4.729  0.1072 -0.2898 -0.2889
  267POPC   GL2 3689   2.726   9.596   4.971 -0.0399  0.1799  0.0929
  267POPC   C1A 3690   3.131   9.334   4.925 -0.0069 -0.0446 -0.0376
  267POPC   D2A 3691   3.432   9.040   4.753 -0.2215  0.0832  0.0632
  267POPC   C3A 3692   3.811   9.019   4.874  0.1989 -0.1795  0.0638
  267POPC   C4A 3693   3.862   8.922   5.314 -0.0853 -0.0395  0.0740
  267POPC   C1B 3694   2.947   9.895   5.178 -0.2672 -0.2147  0.0122
  267POPC   C2B 3695   3.203  10.082   5.481  0.2374 -0.3665  0.0422
  267POPC   C3B 3696   3.261   9.961   5.921 -0.0207 -0.2616 -0.1120
  267POPC   C4B 3697   3.275   9.904   6.405  0.0468 -0.1409  0.2375
  268POPC   NC3 3698  10.209   0.116   4.447  0.1967  0.1593 -0.3256
  268POPC   PO4 3699   9.967  -0.245   4.651 -0.1763 -0.1407 -0.2266
  268POPC   GL1 3700   9.859  -0.246   5.114 -0.1769 -0.0757  0.0793
  268POPC   GL2 3701   9.482  -0.256   5.252 -0.2060 -0.0965 -0.0865
  268POPC   C1A 3702   9.973  -0.316   5.507  0.0107 -0.1919  0.0494
  268POPC   D2A 3703   9.997  -0.515   5.929 -0.5994  0.4355 -0.2379
  268POPC   C3A 3704   9.762  -0.593   6.144  0.0947 -0.0859  0.1906
  268POPC   C4A 3705   9.479  -0.871   6.376  0.1271  0.0744  0.1263
  268POPC   C1B 3706   9.559  -0.109   5.613 -0.0442  0.0816 -0.0341
  268POPC   C2B 3707   9.731  -0.090   5.946  0.0633 -0.2515 -0.0346
  268POPC   C3B 3708   9.722  -0.171   6.442 -0.1624  0.0454 -0.2324
  268POPC   C4B 3709   9.683  -0.538   6.730 -0.3325  0.1306 -0.3710
  269POPC   NC3 3710   1.535   0.456   4.828  0.2531  0.1213  0.0643
  269POPC   PO4 3711   1.474   0.007   4.950 -0.3476 -0.2870  0.1152
  269POPC   GL1 3712   1.573  -0.074   5.475 -0.1585  0.0214 -0.0035
  269POPC   GL2 3713   1.479   0.307   5.664  0.1652 -0.0241 -0.0082
  269POPC   C1A 3714   1.715  -0.018   5.963  0.1280 -0.1063 -0.2454
  269POPC   D2A 3715   1.893  -0.076   6.284  0.0646  0.0545  0.1791
  269POPC   C3A 3716   2.006   0.209   6.568 -0.1984 -0.2375 -0.0813
  269POPC   C4A 3717   2.386   0.325   6.799 -0.0026 -0.2166 -0.1154
  269POPC   C1B 3718   1.445   0.382   6.147  0.0386 -0.0669  0.0741
  269POPC   C2B 3719   1.548   0.354   6.558  0.0584 -0.1170 -0.1385
  269POPC   C3B 3720   1.598   0.308   6.899 -0.1629 -0.4067 -0.1077
  269POPC   C4B 3721   1.434   0.077   7.096  0.1691 -0.2869  0.1551
  270POPC   NC3 3722   4.207   9.392   4.461 -0.1905  0.2726  0.2294
  270POPC   PO4 3723   4.034   9.806   4.501 -0.1306  0.2688 -0.1846
  270POPC   GL1 3724   3.685   9.542   4.841  0.0156  0.1909 -0.1260
  270POPC   GL2 3725   3.437   9.808   5.021  0.2963 -0.3465  0.2524
  270POPC   C1A 3726   3.719   9.393   5.253  0.0566  0.3146 -0.1241
  270POPC   D2A 3727   3.757   9.532   5.643  0.1678  0.0017  0.1429
  270POPC   C3A 3728   3.696   9.844   6.043 -0.0663  0.0278  0.2928
  270POPC   C4A 3729   3.604  10.263   6.312  0.1543  0.1296  0.0639
  270POPC   C1B 3730   3.309   9.516   5.430  0.0972  0.1610  0.0144
  270POPC   C2B 3731   3.316   9.500   5.901 -0.1616  0.2781  0.1806
  270POPC   C3B 3732   3.271   9.335   6.382 -0.0403  0.1362  0.0188
  270POPC   C4B 3733   3.393   9.496   6.820  0.2300 -0.1949  0.1653
  271POPC   NC3 3734   3.211   8.264   3.659 -0.0871 -0.1226  0.0476
  271POPC   PO4 3735   3.645   8.409   3.643  0.1649  0.1321 -0.0633
  271POPC   GL1 3736   3.548   8.323   4.020  0.0626 -0.1821 -0.3699
  271POPC   GL2 3737   3.790   8.324   4.220 -0.2072  0.2546 -0.0590
  271POPC   C1A 3738   3.337   8.082   4.289 -0.3337  0.1143  0.2172
  271POPC   D2A 3739   3.740   7.972   4.577 -0.2068  0.1704  0.1697
  271POPC   C3A 3740   4.143   7.941   4.397  0.1344  0.0357  0.3998
  271POPC   C4A 3741   4.346   7.693   4.016  0.3170 -0.1287 -0.3792
  271POPC   C1B 3742   3.838   8.474   4.694  0.2890 -0.1779 -0.0205
  271POPC   C2B 3743   3.669   8.467   5.157  0.2204  0.0377  0.0463
  271POPC   C3B 3744   3.254   8.428   5.298  0.0694 -0.0277  0.0050
  271POPC   C4B 3745   2.863   8.678   5.373 -0.0874  0.0818  0.2544
  272POPC   NC3 3746   0.138   2.419   4.310  0.1148 -0.1038  0.0027
  272POPC   PO4 3747   0.164   2.391   4.743  0.2027  0.2138 -0.1831
  272POPC   GL1 3748  -0.022   2.688   5.065 -0.2974  0.2811  0.1862
  272POPC   GL2 3749   0.259   2.768   5.306  0.2477 -0.1589 -0.0152
  272POPC   C1A 3750  -0.217   2.617   5.439  0.0574  0.1003 -0.1725
  272POPC   D2A 3751  -0.393   2.394   5.782 -0.0236  0.0143  0.1829
  272POPC   C3A 3752  -0.767   2.523   5.931 -0.1450  0.0267 -0.0082
  272POPC   C4A 3753  -1.061   2.265   6.232 -0.0222 -0.0959 -0.2012
  272POPC   C1B 3754   0.174   2.983   5.631 -0.0247  0.1160 -0.1129
  272POPC   C2B 3755   0.309   3.032   6.001  0.0771 -0.2304 -0.2907
  272POPC   C3B 3756   0.404   3.108   6.464 -0.0388 -0.3181 -0.1266
  272POPC   C4B 3757   0.648   3.244   6.898 -0.0254 -0.1481 -0.3156
  273POPC   NC3 3758   4.590   2.150   5.169 -0.0919 -0.1795 -0.1304
  273POPC   PO4 3759   4.589   2.529   5.228 -0.1907 -0.1766  0.0828
  273POPC   GL1 3760   4.614   2.266   5.698  0.1166  0.1840 -0.0990
  273POPC   GL2 3761   4.532   2.561   5.754  0.0500  0.1595 -0.3577
  273POPC   C1A 3762   4.808   2.115   6.086  0.2276 -0.1300  0.2317
  273POPC   D2A 3763   4.849   2.133   6.518 -0.0445 -0.0991  0.0499
  273POPC   C3A 3764   5.168   2.401   6.674 -0.1650 -0.0367 -0.2341
  273POPC   C4A 3765   5.527   2.329   6.958  0.4058  0.0976  0.3099
  273POPC   C1B 3766   4.312   2.528   6.104 -0.0894  0.0204  0.4387
  273POPC   C2B 3767   4.220   2.538   6.494  0.0698 -0.1658  0.0073
  273POPC   C3B 3768   3.850   2.570   6.637  0.2337  0.1398 -0.1501
  273POPC   C4B 3769   3.573   2.491   6.939 -0.1714 -0.0679  0.1270
  274POPC   NC3 3770   5.788   4.081   4.752  0.0448  0.0696 -0.0598
  274POPC   PO4 3771   6.246   4.129   4.729 -0.1113  0.2009  0.1804
  274POPC   GL1 3772   6.251   4.164   5.224 -0.0388 -0.1271  0.1277
  274POPC   GL2 3773   6.318   4.489   5.360  0.1894 -0.3152 -0.1297
  274POPC   C1A 3774   6.468   4.205   5.695 -0.0071  0.0540 -0.2339
  274POPC   D2A 3775   6.360   3.973   6.002 -0.0590  0.3230  0.1931
  274POPC   C3A 3776   6.533   4.092   6.423  0.1237 -0.1981 -0.0976
  274POPC   C4A 3777   6.587   4.113   6.871  0.1574  0.1472  0.3261
  274POPC   C1B 3778   6.088   4.513   5.778  0.0789 -0.2150 -0.0561
  274POPC   C2B 3779   6.358   4.542   6.142 -0.0226  0.2225 -0.3403
  274POPC   C3B 3780   6.628   4.628   6.513 -0.0921 -0.0648  0.1083
  274POPC   C4B 3781   6.466   4.636   6.946 -0.1943 -0.0723  0.1309
  275POPC   NC3 3782   0.651   1.136   4.773  0.2608 -0.1315  0.0001
  275POPC   PO4 3783   0.615   0.644   4.742 -0.0048 -0.2234 -0.0891
  275POPC   GL1 3784   0.563   0.771   5.243  0.1219  0.1866  0.1161
  275POPC   GL2 3785   0.355   0.829   5.523  0.1273  0.3184 -0.3490
  275POPC   C1A 3786   0.755   0.458   5.496 -0.2368  0.0007 -0.2945
  275POPC   D2A 3787   0.876   0.269   5.763 -0.0778 -0.2868  0.0779
  275POPC   C3A 3788   0.849  -0.064   5.996  0.2920  0.4374 -0.0569
  275POPC   C4A 3789   0.819  -0.219   6.400 -0.1835 -0.0294  0.2965
  275POPC   C1B 3790   0.267   0.450   5.806  0.0234 -0.3136 -0.0352
  275POPC   C2B 3791   0.506   0.283   6.159  0.2067  0.2775 -0.2385
  275POPC   C3B 3792   0.546   0.210   6.643 -0.1086 -0.0204 -0.1073
  275POPC   C4B 3793   0.674  -0.044   7.005  0.1495 -0.1864 -0.1655
  276POPC   NC3 3794   7.227   8.823   5.013 -0.0369 -0.1520 -0.4168
  276POPC   PO4 3795   6.893   8.939   4.819 -0.1921  0.3715 -0.0036
  276POPC   GL1 3796   6.820   8.668   5.255 -0.1362  0.0260  0.1744
  276POPC   GL2 3797   7.126   8.640   5.446  0.0819  0.1573  0.0583
  276POPC   C1A 3798   6.659   8.559   5.565 -0.0705 -0.2143 -0.0679
  276POPC   D2A 3799   6.290   8.659   5.713  0.0877 -0.1153  0.2096
  276POPC   C3A 3800   5.836   8.550   5.700  0.2533  0.0831 -0.2795
  276POPC   C4A 3801   5.539   8.458   5.442  0.0189  0.1335 -0.0920
  276POPC   C1B 3802   7.516   8.628   5.614  0.0686  0.4103 -0.2203
  276POPC   C2B 3803   7.576   8.317   5.909  0.1424  0.1309 -0.1906
  276POPC   C3B 3804   7.940   8.114   6.169  0.0765 -0.0263 -0.1789
  276POPC   C4B 3805   7.798   7.618   6.302  0.0408 -0.0603 -0.0882
  277POPC   NC3 3806   0.288   5.666   4.900  0.1068  0.0586  0.1118
  277POPC   PO4 3807   0.584   5.341   4.994 -0.1105  0.0433  0.1100
  277POPC   GL1 3808   0.363   5.484   5.379 -0.2030 -0.2157 -0.4675
  277POPC   GL2 3809   0.069   5.756   5.376 -0.2305  0.0948  0.0490
  277POPC   C1A 3810   0.588   5.654   5.620 -0.0620  0.1143  0.0732
  277POPC   D2A 3811   0.658   5.725   6.035  0.0433  0.0289 -0.0836
  277POPC   C3A 3812   0.978   5.666   6.381  0.2795  0.2874 -0.1537
  277POPC   C4A 3813   1.285   5.356   6.487  0.1572  0.1508  0.2484
  277POPC   C1B 3814   0.165   5.553   5.834  0.0209  0.3728  0.0770
  277POPC   C2B 3815   0.340   5.399   6.234 -0.1991 -0.0262 -0.1047
  277POPC   C3B 3816   0.573   5.409   6.525  0.1537  0.0505  0.1528
  277POPC   C4B 3817   0.857   5.516   6.829  0.2309  0.2901  0.0620
  278POPC   NC3 3818   5.847   1.075   4.459 -0.0228  0.3206 -0.2008
  278POPC   PO4 3819   5.880   0.921   4.852  0.0316 -0.1042  0.0871
  278POPC   GL1 3820   5.962   0.927   5.274 -0.0481  0.1417 -0.1332
  278POPC   GL2 3821   5.767   0.630   5.507 -0.3305 -0.0155 -0.1767
  278POPC   C1A 3822   6.140   1.146   5.638 -0.1658 -0.0310 -0.2262
  278POPC   D2A 3823   6.262   1.231   6.054 -0.1694  0.2110 -0.2974
  278POPC   C3A 3824   6.197   1.141   6.529 -0.1490 -0.0300 -0.0049
  278POPC   C4A 3825   6.490   0.997   6.827  0.2383 -0.1981 -0.0975
  278POPC   C1B 3826   5.923   0.750   5.905  0.3242 -0.3046  0.0236
  278POPC   C2B 3827   5.963   0.732   6.366 -0.0230 -0.3488 -0.1957
  278POPC   C3B 3828   5.772   0.808   6.808 -0.1539 -0.4491  0.1928
  278POPC   C4B 3829   5.554   1.044   7.114 -0.0552  0.0775 -0.0023
  279POPC   NC3 3830   6.928   2.453   5.312  0.1262 -0.1291 -0.0149
  279POPC   PO4 3831   6.596   2.660   5.283  0.2345 -0.3712 -0.2296
  279POPC   GL1 3832   6.694   2.790   5.694 -0.4430  0.2534  0.3931
  279POPC   GL2 3833   6.384   2.718   5.858  0.5135  0.0338  0.1806
  279POPC   C1A 3834   6.718   3.055   6.090  0.3969  0.0614  0.1840
  279POPC   D2A 3835   6.983   3.354   6.026 -0.0531  0.2776 -0.0881
  279POPC   C3A 3836   6.799   3.772   5.924 -0.0518  0.1003  0.3172
  279POPC   C4A 3837   6.965   4.247   5.961  0.2938  0.0574 -0.0694
  279POPC   C1B 3838   6.271   2.977   6.216  0.2016  0.2855 -0.0486
  279POPC   C2B 3839   6.101   3.028   6.585  0.0444 -0.0205  0.2113
  279POPC   C3B 3840   6.094   3.190   6.981  0.1042 -0.3227 -0.2015
  279POPC   C4B 3841   6.070   3.573   7.171 -0.2863 -0.1976 -0.0593
  280POPC   NC3 3842   1.459   9.797   4.802  0.0509 -0.0040  0.1145
  280POPC   PO4 3843   1.757  10.096   4.775 -0.1013  0.2969 -0.0617
  280POPC   GL1 3844   1.862   9.996   5.119  0.1744 -0.3058 -0.1370
  280POPC   GL2 3845   1.860   9.624   5.027  0.0170  0.0491 -0.0267
  280POPC   C1A 3846   1.704   9.899   5.622  0.1523  0.0287 -0.2517
  280POPC   D2A 3847   1.802   9.981   6.037 -0.2425  0.0688  0.0731
  280POPC   C3A 3848   2.156   9.987   6.256 -0.0369 -0.1085  0.2037
  280POPC   C4A 3849   2.230  10.190   6.580 -0.0831  0.1522 -0.3491
  280POPC   C1B 3850   1.946   9.495   5.441 -0.0352  0.1584  0.1133
  280POPC   C2B 3851   2.005   9.554   5.866 -0.1617  0.1785 -0.3380
  280POPC   C3B 3852   2.078   9.387   6.231 -0.1620  0.0405 -0.2943
  280POPC   C4B 3853   2.238   9.328   6.652  0.3000 -0.0686 -0.0739
  281POPC   NC3 3854   3.657   7.431   3.110  0.1207  0.1259  0.2137
  281POPC   PO4 3855   3.243   7.451   3.110 -0.0884 -0.2190  0.2671
  281POPC   GL1 3856   3.361   7.455   3.576  0.2314 -0.4715 -0.0814
  281POPC   GL2 3857   3.664   7.408   3.585  0.0762  0.1659 -0.2700
  281POPC   C1A 3858   3.206   7.727   3.958 -0.1752  0.0239  0.3756
  281POPC   D2A 3859   2.916   7.955   4.026  0.2671 -0.1377 -0.0299
  281POPC   C3A 3860   2.697   7.830   4.432 -0.2748  0.2708  0.0181
  281POPC   C4A 3861   2.483   7.819   4.862  0.0326  0.2309  0.0500
  281POPC   C1B 3862   3.726   7.731   3.791 -0.0371 -0.2604 -0.1609
  281POPC   C2B 3863   3.751   7.741   4.140 -0.0627 -0.0880  0.0660
  281POPC   C3B 3864   3.563   7.550   4.397 -0.1532  0.2046  0.0652
  281POPC   C4B 3865   3.384   7.569   4.791 -0.1918 -0.3306 -0.1302
  282POPC   NC3 3866   5.176   1.155   5.328  0.3406 -0.0903  0.1998
  282POPC   PO4 3867   5.620   1.256   5.157 -0.0863  0.1188  0.1108
  282POPC   GL1 3868   5.594   1.328   5.605 -0.3662  0.0458  0.0752
  282POPC   GL2 3869   5.459   1.032   5.747 -0.2556  0.0734  0.1082
  282POPC   C1A 3870   5.383   1.497   5.918 -0.0028 -0.3989 -0.2293
  282POPC   D2A 3871   5.302   1.520   6.369  0.0081 -0.1225  0.0790
  282POPC   C3A 3872   5.096   1.757   6.619 -0.1494  0.1282 -0.1844
  282POPC   C4A 3873   5.134   1.953   6.964 -0.0882 -0.2280  0.0393
  282POPC   C1B 3874   5.536   1.007   6.164  0.0899 -0.0421  0.2090
  282POPC   C2B 3875   5.591   1.194   6.579 -0.0360 -0.1990 -0.0132
  282POPC   C3B 3876   5.882   1.335   6.889  0.1438  0.0804  0.2476
  282POPC   C4B 3877   5.850   1.364   7.351  0.0340 -0.0406 -0.0275
  283POPC   NC3 3878   8.641   6.390   4.274 -0.1565  0.1561 -0.3061
  283POPC   PO4 3879   8.413   6.456   4.700 -0.3701 -0.3301  0.2635
  283POPC   GL1 3880   8.312   6.374   5.182 -0.1453  0.1091 -0.1253
  283POPC   GL2 3881   8.208   6.070   5.354 -0.1176 -0.2820 -0.2064
  283POPC   C1A 3882   7.971   6.466   5.607  0.1475 -0.0098  0.8011
  283POPC   D2A 3883   7.737   6.709   5.918 -0.3063  0.0230  0.1680
  283POPC   C3A 3884   7.919   6.659   6.369 -0.2005  0.0934  0.0099
  283POPC   C4A 3885   8.078   6.630   6.794  0.4004  0.0671  0.0242
  283POPC   C1B 3886   7.959   5.956   5.717 -0.2916  0.2220  0.2658
  283POPC   C2B 3887   7.527   6.176   5.911  0.0201  0.0805 -0.1312
  283POPC   C3B 3888   7.247   6.465   5.708  0.0542 -0.0230 -0.3427
  283POPC   C4B 3889   7.189   6.325   5.327  0.0652 -0.0945 -0.0186
  284POPC   NC3 3890   7.395   4.915   4.172 -0.1070 -0.2246 -0.0921
  284POPC   PO4 3891   7.093   5.246   4.537 -0.0483  0.0923 -0.0306
  284POPC   GL1 3892   7.014   5.268   5.047 -0.0507 -0.0289  0.4304
  284POPC   GL2 3893   6.814   5.462   5.316  0.0109  0.4031 -0.1217
  284POPC   C1A 3894   7.302   5.432   5.394 -0.0237  0.1663 -0.2012
  284POPC   D2A 3895   7.403   5.490   5.886 -0.0641  0.0706 -0.0872
  284POPC   C3A 3896   7.532   5.785   6.178  0.0311 -0.3171 -0.2018
  284POPC   C4A 3897   7.555   6.081   6.442  0.0105  0.0340 -0.1117
  284POPC   C1B 3898   6.858   5.263   5.646 -0.0717 -0.1740 -0.0306
  284POPC   C2B 3899   6.919   5.468   6.029  0.2608 -0.0188 -0.0056
  284POPC   C3B 3900   7.173   5.530   6.466 -0.0004 -0.0245  0.2030
  284POPC   C4B 3901   7.585   5.657   6.745  0.0926  0.0883 -0.1284
  285POPC   NC3 3902   5.964   6.774   3.972  0.2395 -0.1147  0.0436
  285POPC   PO4 3903   5.774   7.075   3.866  0.2814  0.1813  0.0827
  285POPC   GL1 3904   5.967   7.197   4.211 -0.1399 -0.0763  0.1362
  285POPC   GL2 3905   5.885   6.964   4.453 -0.0513  0.1498 -0.0277
  285POPC   C1A 3906   5.590   7.367   4.465 -0.1502 -0.0246 -0.1888
  285POPC   D2A 3907   5.516   7.483   4.985 -0.1680 -0.0509  0.1267
  285POPC   C3A 3908   5.244   7.337   5.157  0.1757 -0.3033 -0.0008
  285POPC   C4A 3909   4.806   7.233   5.066  0.3175 -0.2542  0.0422
  285POPC   C1B 3910   5.669   6.994   4.792  0.3527  0.0698  0.1832
  285POPC   C2B 3911   5.701   7.035   5.135 -0.0649 -0.0369  0.5111
  285POPC   C3B 3912   5.573   7.321   5.510 -0.3108 -0.0746 -0.2564
  285POPC   C4B 3913   5.725   7.509   5.955 -0.2216  0.1650  0.0372
  286POPC   NC3 3914   6.967   2.972   5.162  0.0468 -0.1838 -0.1170
  286POPC   PO4 3915   6.981   3.488   5.113 -0.0043  0.1605  0.1901
  286POPC   GL1 3916   7.140   3.614   5.598 -0.1985 -0.1009 -0.3024
  286POPC   GL2 3917   7.233   3.206   5.589  0.3126  0.1324  0.2305
  286POPC   C1A 3918   7.259   3.868   5.922 -0.0222 -0.1536 -0.1554
  286POPC   D2A 3919   7.342   3.910   6.313 -0.0384  0.1706  0.1834
  286POPC   C3A 3920   7.719   3.640   6.227  0.0322 -0.1713  0.2270
  286POPC   C4A 3921   7.931   3.350   5.940  0.2008 -0.0896 -0.1438
  286POPC   C1B 3922   7.474   3.307   5.967  0.2771  0.0896  0.2426
  286POPC   C2B 3923   7.322   3.367   6.378  0.0909  0.1754 -0.2601
  286POPC   C3B 3924   6.899   3.326   6.512 -0.0139 -0.0986  0.2301
  286POPC   C4B 3925   6.657   2.968   6.571  0.1597  0.0419  0.1898
  287POPC   NC3 3926   9.386   5.672   4.929 -0.3176 -0.2507  0.2268
  287POPC   PO4 3927   9.792   5.372   4.900  0.3250  0.0948  0.2277
  287POPC   GL1 3928   9.759   5.474   5.426 -0.3445  0.2539  0.0038
  287POPC   GL2 3929   9.530   5.419   5.354 -0.0686 -0.1928  0.3323
  287POPC   C1A 3930   9.999   5.608   5.867 -0.1006 -0.1163 -0.3487
  287POPC   D2A 3931  10.220   5.675   6.236 -0.2749  0.5399 -0.0385
  287POPC   C3A 3932  10.014   5.861   6.648  0.1057  0.1583  0.1093
  287POPC   C4A 3933   9.718   6.013   7.010 -0.2727 -0.2784  0.2138
  287POPC   C1B 3934   9.418   5.304   5.800  0.2329  0.2241  0.2045
  287POPC   C2B 3935   9.284   5.137   6.161  0.2284  0.1537 -0.2041
  287POPC   C3B 3936   9.011   4.974   6.564  0.1584  0.0183 -0.0279
  287POPC   C4B 3937   8.796   4.564   6.612  0.1172  0.1325  0.0674
  288POPC   NC3 3938   8.247   4.512   5.044  0.0125  0.0659 -0.0150
  288POPC   PO4 3939   7.929   4.742   4.941 -0.1777  0.0237  0.1409
  288POPC   GL1 3940   7.939   4.695   5.362  0.2751  0.2148 -0.1505
  288POPC   GL2 3941   7.722   5.055   5.355  0.3153 -0.2712  0.3492
  288POPC   C1A 3942   7.923   4.413   5.806  0.2584  0.1552 -0.0679
  288POPC   D2A 3943   7.717   4.196   6.071  0.1970  0.0448  0.2522
  288POPC   C3A 3944   7.613   4.234   6.560  0.2530 -0.1661  0.2828
  288POPC   C4A 3945   7.244   4.211   6.811  0.1098  0.1238 -0.0591
  288POPC   C1B 3946   7.910   4.971   5.729  0.2360  0.0962 -0.1912
  288POPC   C2B 3947   7.793   4.778   6.190 -0.3203 -0.1196  0.5799
  288POPC   C3B 3948   8.147   4.957   6.452 -0.0740  0.1578  0.1640
  288POPC   C4B 3949   8.444   5.164   6.764 -0.0790  0.1965  0.0353
  289POPC   NC3 3950   1.411   1.237   4.681 -0.3134  0.0546 -0.3704
  289POPC   PO4 3951   1.138   1.469   4.844  0.5711  0.1552  0.4972
  289POPC   GL1 3952   1.076   1.245   5.177 -0.0397 -0.1317  0.0178
  289POPC   GL2 3953   1.316   1.253   5.304 -0.2232  0.0784  0.2125
  289POPC   C1A 3954   1.173   0.815   5.459 -0.2740 -0.0973  0.0695
  289POPC   D2A 3955   1.172   0.669   5.834  0.4457 -0.3662 -0.1195
  289POPC   C3A 3956   0.674   0.697   6.010  0.3252 -0.0386  0.1389
  289POPC   C4A 3957   0.280   0.659   6.261  0.1718  0.1221 -0.2206
  289POPC   C1B 3958   1.412   1.134   5.732 -0.2465 -0.2914  0.0748
  289POPC   C2B 3959   1.151   0.990   6.216  0.3330  0.0236 -0.2098
  289POPC   C3B 3960   1.073   1.261   6.610  0.0145 -0.4461  0.4271
  289POPC   C4B 3961   0.711   1.386   6.748  0.0083  0.3252 -0.0996
  290POPC   NC3 3962   0.443   9.518   4.052  0.0802  0.2204 -0.1418
  290POPC   PO4 3963   0.681   9.393   4.390 -0.0385  0.3378  0.0448
  290POPC   GL1 3964   0.786   9.435   4.917 -0.1659 -0.1448 -0.1262
  290POPC   GL2 3965   1.009   9.622   4.963 -0.2793  0.4228 -0.1319
  290POPC   C1A 3966   0.626   9.520   5.320  0.0938 -0.1694 -0.0342
  290POPC   D2A 3967   0.772   9.667   5.732  0.0711  0.2600 -0.1046
  290POPC   C3A 3968   1.090   9.383   5.926  0.0371 -0.0450  0.2119
  290POPC   C4A 3969   1.481   9.582   6.144 -0.0679  0.2335 -0.1321
  290POPC   C1B 3970   1.153   9.547   5.372 -0.3074  0.3840  0.2425
  290POPC   C2B 3971   1.214   9.806   5.684  0.1543 -0.1015  0.0678
  290POPC   C3B 3972   1.282  10.120   5.966  0.2232  0.2464  0.5530
  290POPC   C4B 3973   1.286  10.385   6.314 -0.3767  0.0622  0.0876
  291POPC   NC3 3974   1.107   3.777   4.524  0.0986 -0.0429  0.2051
  291POPC   PO4 3975   1.255   4.222   4.382  0.0779 -0.0314  0.0138
  291POPC   GL1 3976   1.493   4.247   4.751 -0.0404  0.1927 -0.0831
  291POPC   GL2 3977   1.758   4.162   4.900 -0.0302 -0.0043  0.0849
  291POPC   C1A 3978   1.400   4.420   5.264  0.0021  0.0772  0.1869
  291POPC   D2A 3979   1.580   4.515   5.615  0.2457 -0.0942  0.1987
  291POPC   C3A 3980   1.507   4.429   6.050  0.0134  0.1981 -0.1253
  291POPC   C4A 3981   1.776   4.212   6.333 -0.2072  0.1704 -0.3439
  291POPC   C1B 3982   1.961   4.345   5.294 -0.0224  0.3821  0.1455
  291POPC   C2B 3983   2.128   4.558   5.636  0.2308 -0.0361 -0.0903
  291POPC   C3B 3984   2.428   4.621   5.904  0.0740  0.2482  0.2385
  291POPC   C4B 3985   2.408   4.687   6.373  0.3083  0.0195 -0.0250
  292POPC   NC3 3986   6.022   5.576   3.550  0.1832  0.1110 -0.0450
  292POPC   PO4 3987   5.952   5.772   3.897  0.4718 -0.3321  0.0269
  292POPC   GL1 3988   5.612   5.992   4.205 -0.0930 -0.1103 -0.0017
  292POPC   GL2 3989   5.357   5.724   4.432  0.1658  0.2362  0.1443
  292POPC   C1A 3990   5.531   6.065   4.651  0.0482 -0.2244 -0.0586
  292POPC   D2A 3991   5.111   6.106   4.897 -0.1895  0.1553 -0.1644
  292POPC   C3A 3992   5.058   5.959   5.275  0.0440  0.0654 -0.1745
  292POPC   C4A 3993   5.013   5.512   5.320 -0.1934 -0.2048 -0.0498
  292POPC   C1B 3994   5.075   6.072   4.356  0.1831  0.3152 -0.0686
  292POPC   C2B 3995   4.674   6.293   4.404 -0.0060  0.3362  0.0976
  292POPC   C3B 3996   4.357   6.628   4.407  0.0706 -0.0990  0.1671
  292POPC   C4B 3997   4.202   6.926   4.482  0.1264 -0.0089 -0.0309
  293POPC   NC3 3998   5.634   4.613   4.194 -0.2098 -0.1239 -0.1341
  293POPC   PO4 3999   5.297   4.324   4.474 -0.2575 -0.4691  0.2458
  293POPC   GL1 4000   5.165   4.331   4.894  0.0024  0.0361 -0.2583
  293POPC   GL2 4001   5.358   4.422   5.110  0.1324  0.1760  0.0840
  293POPC   C1A 4002   4.814   4.511   5.137 -0.1514  0.3577 -0.1717
  293POPC   D2A 4003   4.415   4.695   5.248  0.0384  0.0523  0.0044
  293POPC   C3A 4004   4.245   5.086   5.256 -0.0010  0.3337 -0.0064
  293POPC   C4A 4005   4.530   5.329   5.490 -0.0231  0.3322  0.0223
  293POPC   C1B 4006   5.318   4.761   5.312  0.0981  0.2551  0.1024
  293POPC   C2B 4007   5.467   5.273   5.380  0.1404  0.0225 -0.1414
  293POPC   C3B 4008   5.385   5.603   5.754  0.2997  0.0153  0.2383
  293POPC   C4B 4009   5.148   5.755   5.985 -0.2412 -0.3295  0.1506
  294POPC   NC3 4010   2.660   2.237   4.234  0.1528 -0.3698  0.1636
  294POPC   PO4 4011   2.723   2.400   4.725  0.0005  0.0242 -0.0701
  294POPC   GL1 4012   2.826   2.488   5.127 -0.2406 -0.0088  0.0999
  294POPC   GL2 4013   2.815   2.154   5.347 -0.1327 -0.1650 -0.0966
  294POPC   C1A 4014   2.849   2.693   5.473  0.1678 -0.1291 -0.3465
  294POPC   D2A 4015   2.790   2.719   5.931 -0.1766 -0.1492 -0.1865
  294POPC   C3A 4016   2.421   2.661   6.247 -0.0513  0.1579  0.2632
  294POPC   C4A 4017   2.382   2.820   6.668  0.1424  0.0608  0.0723
  294POPC   C1B 4018   2.869   2.201   5.749 -0.0056  0.1745  0.0081
  294POPC   C2B 4019   2.877   2.281   6.214  0.3115 -0.0254 -0.1264
  294POPC   C3B 4020   2.691   2.366   6.680  0.0131  0.2444 -0.2818
  294POPC   C4B 4021   2.830   2.479   7.029 -0.2795  0.2048 -0.2010
  295POPC   NC3 4022   7.706   5.929   4.495  0.2611 -0.2174  0.1437
  295POPC   PO4 4023   7.400   6.288   4.562  0.0942  0.1646 -0.2041
  295POPC   GL1 4024   7.468   6.587   4.918  0.1085  0.0444  0.4523
  295POPC   GL2 4025   7.296   6.837   4.812  0.2929 -0.0011  0.0485
  295POPC   C1A 4026   7.603   6.701   5.334 -0.1934 -0.0772 -0.0157
  295POPC   D2A 4027   7.901   7.007   5.513 -0.0151 -0.0459 -0.1492
  295POPC   C3A 4028   7.695   7.348   5.780 -0.0402 -0.1300 -0.1909
  295POPC   C4A 4029   7.608   7.847   5.770  0.2323  0.2432  0.1459
  295POPC   C1B 4030   7.086   6.803   5.167 -0.0632 -0.0593  0.1203
  295POPC   C2B 4031   6.784   6.614   5.362 -0.2574  0.0611 -0.1521
  295POPC   C3B 4032   6.274   6.433   5.603 -0.2305  0.1171  0.1756
  295POPC   C4B 4033   5.782   6.378   5.710 -0.0394 -0.0440 -0.0333
  296POPC   NC3 4034   1.353   7.102   3.865  0.2839 -0.0400  0.0234
  296POPC   PO4 4035   1.139   7.493   3.946  0.2426 -0.4362 -0.0873
  296POPC   GL1 4036   1.147   7.548   4.360 -0.0809 -0.3040  0.1547
  296POPC   GL2 4037   1.335   7.713   4.497  0.0472  0.2072  0.0587
  296POPC   C1A 4038   1.174   7.311   4.796 -0.0388 -0.1938  0.0659
  296POPC   D2A 4039   1.177   7.138   5.151  0.0973 -0.0292 -0.0586
  296POPC   C3A 4040   1.559   6.984   5.369 -0.0105 -0.1139 -0.0654
  296POPC   C4A 4041   1.728   6.666   5.308  0.0183  0.3924 -0.1794
  296POPC   C1B 4042   1.651   7.596   4.766  0.0621 -0.0752 -0.0205
  296POPC   C2B 4043   2.020   7.404   4.792 -0.3200 -0.0956 -0.2149
  296POPC   C3B 4044   2.339   7.377   4.667  0.2164 -0.1173  0.0497
  296POPC   C4B 4045   2.714   7.143   4.539  0.2725  0.0390  0.0324
  297POPC   NC3 4046  10.077   6.952   4.525 -0.6539 -0.1492 -0.0107
  297POPC   PO4 4047  10.285   6.582   4.642 -0.1391  0.1534 -0.3380
  297POPC   GL1 4048  10.341   6.603   5.071 -0.1034 -0.2692 -0.3588
  297POPC   GL2 4049  10.310   6.857   5.188 -0.0569  0.1604 -0.1918
  297POPC   C1A 4050  10.668   6.661   5.405  0.3671  0.1477  0.1684
  297POPC   D2A 4051  10.777   6.653   5.809  0.1934  0.0147 -0.0858
  297POPC   C3A 4052  10.856   6.939   6.128 -0.1444 -0.1602 -0.2045
  297POPC   C4A 4053  11.019   7.078   6.620  0.3792 -0.3604  0.0086
  297POPC   C1B 4054  10.302   6.944   5.695 -0.1799 -0.2366  0.1292
  297POPC   C2B 4055  10.323   6.917   6.172  0.2037  0.0591 -0.0184
  297POPC   C3B 4056  10.540   6.790   6.521  0.1272  0.0237  0.0973
  297POPC   C4B 4057  10.726   6.722   6.827  0.0733 -0.0934 -0.2042
  298POPC   NC3 4058   6.335   0.155   4.707  0.2005 -0.0538 -0.0355
  298POPC   PO4 4059   6.068   0.448   4.505 -0.0759  0.3606  0.0170
  298POPC   GL1 4060   6.264   0.640   4.921 -0.1785 -0.0823 -0.4009
  298POPC   GL2 4061   6.203   0.455   5.146 -0.1365 -0.2134  0.2112
  298POPC   C1A 4062   6.453   0.980   5.293 -0.1556  0.2110 -0.3154
  298POPC   D2A 4063   6.604   1.165   5.669  0.1024 -0.3862  0.4471
  298POPC   C3A 4064   6.793   1.287   6.004  0.2805 -0.1229 -0.1053
  298POPC   C4A 4065   6.939   1.066   6.331  0.0909 -0.2321  0.0305
  298POPC   C1B 4066   6.261   0.490   5.513  0.1023 -0.2441  0.1395
  298POPC   C2B 4067   6.380   0.776   5.783 -0.0451  0.3660  0.0599
  298POPC   C3B 4068   6.498   0.806   6.272 -0.0422 -0.1465  0.1884
  298POPC   C4B 4069   6.594   0.463   6.538 -0.0715 -0.0335 -0.0907
  299POPC   NC3 4070   3.142   9.156   4.199 -0.0416  0.3025  0.2610
  299POPC   PO4 4071   2.774   9.382   4.260  0.2511 -0.0618 -0.0338
  299POPC   GL1 4072   2.683   9.074   4.561 -0.3659 -0.2234 -0.0695
  299POPC   GL2 4073   2.808   8.863   4.466  0.0117 -0.0520  0.1315
  299POPC   C1A 4074   2.666   9.102   5.059 -0.1450  0.3967 -0.0926
  299POPC   D2A 4075   2.917   9.190   5.440 -0.2414  0.0241  0.1304
  299POPC   C3A 4076   2.832   9.443   5.749 -0.0904  0.1038 -0.0424
  299POPC   C4A 4077   2.843   9.788   5.781 -0.0306 -0.2695  0.0177
  299POPC   C1B 4078   2.955   8.777   4.881  0.3124  0.1986 -0.2570
  299POPC   C2B 4079   3.284   8.956   5.172  0.0230 -0.0944  0.0177
  299POPC   C3B 4080   3.487   9.082   5.626 -0.0326 -0.2360  0.3293
  299POPC   C4B 4081   3.639   9.066   5.994 -0.4709 -0.0094  0.3889
  300POPC   NC3 4082   7.890   7.419   4.531  0.0866  0.0263 -0.3224
  300POPC   PO4 4083   7.458   7.198   4.481  0.0971  0.1480 -0.1521
  300POPC   GL1 4084   7.463   7.477   4.787 -0.1323  0.1230 -0.2897
  300POPC   GL2 4085   7.674   7.753   4.829  0.1460  0.0545 -0.0434
  300POPC   C1A 4086   7.269   7.754   5.219  0.0384 -0.2493  0.0041
  300POPC   D2A 4087   7.156   7.567   5.636  0.0077  0.0532  0.0679
  300POPC   C3A 4088   7.227   7.628   6.068  0.1662  0.0003  0.1535
  300POPC   C4A 4089   7.436   7.973   6.313 -0.2505 -0.0119  0.0707
  300POPC   C1B 4090   7.717   7.878   5.282  0.0277  0.0693  0.0597
  300POPC   C2B 4091   8.054   8.002   5.634  0.2621  0.1188 -0.1966
  300POPC   C3B 4092   8.228   7.752   5.938 -0.0111 -0.3822 -0.0304
  300POPC   C4B 4093   8.343   7.641   6.398 -0.1037  0.4278  0.4379
  301POPC   NC3 4094   4.965   5.477   4.026  0.1215  0.1089 -0.3058
  301POPC   PO4 4095   5.297   5.003   4.216 -0.0528  0.1386  0.1902
  301POPC   GL1 4096   5.198   5.258   4.591 -0.0426  0.0278  0.0385
  301POPC   GL2 4097   5.294   5.114   4.927 -0.0026  0.2229 -0.2153
  301POPC   C1A 4098   5.302   5.627   4.939  0.0173  0.1846  0.3556
  301POPC   D2A 4099   5.615   5.980   5.133  0.0352  0.0995  0.1573
  301POPC   C3A 4100   5.628   5.931   5.515  0.3060 -0.0764  0.0829
  301POPC   C4A 4101   5.595   5.986   5.928  0.2547 -0.0055  0.1866
  301POPC   C1B 4102   4.932   5.028   5.215  0.0494  0.0264 -0.1554
  301POPC   C2B 4103   4.838   4.738   5.578  0.5239 -0.0545 -0.1132
  301POPC   C3B 4104   4.674   4.263   5.560  0.0565 -0.0244  0.3010
  301POPC   C4B 4105   4.582   4.055   6.007  0.3963 -0.2279 -0.2550
  302POPC   NC3 4106   4.500   8.783   3.787 -0.0163  0.0654  0.0425
  302POPC   PO4 4107   4.817   8.757   4.149 -0.1368 -0.3578  0.2280
  302POPC   GL1 4108   5.058   8.517   4.533 -0.0313  0.1791  0.1377
  302POPC   GL2 4109   5.281   8.668   4.729 -0.0140  0.0087  0.0492
  302POPC   C1A 4110   4.883   8.216   4.848  0.1060 -0.0591  0.0552
  302POPC   D2A 4111   5.116   7.871   4.941  0.2113  0.1918 -0.0549
  302POPC   C3A 4112   5.044   7.583   4.700 -0.1373  0.1268  0.0676
  302POPC   C4A 4113   5.065   7.396   4.255  0.0644 -0.0116  0.0750
  302POPC   C1B 4114   5.321   8.326   5.035  0.1167 -0.0340  0.1780
  302POPC   C2B 4115   5.116   8.061   5.381  0.0051 -0.2635  0.3366
  302POPC   C3B 4116   4.833   7.679   5.368  0.0971 -0.1852 -0.0488
  302POPC   C4B 4117   4.586   7.276   5.485  0.2993 -0.0181 -0.0877
  303POPC   NC3 4118   1.952   7.355   2.932 -0.0934  0.0458  0.2122
  303POPC   PO4 4119   2.193   7.304   3.413 -0.2218  0.1616  0.0398
  303POPC   GL1 4120   2.477   7.262   3.667 -0.2250  0.0490  0.0874
  303POPC   GL2 4121   2.513   7.405   3.929 -0.1608 -0.1450 -0.2367
  303POPC   C1A 4122   2.529   6.971   4.027 -0.1064 -0.1515 -0.5022
  303POPC   D2A 4123   2.180   7.039   4.312 -0.0168 -0.2695 -0.1975
  303POPC   C3A 4124   2.104   6.689   4.483  0.2942  0.2954  0.0344
  303POPC   C4A 4125   1.814   6.546   4.813  0.1068  0.0307 -0.0812
  303POPC   C1B 4126   2.899   7.379   4.064  0.0779 -0.0548 -0.0993
  303POPC   C2B 4127   3.071   7.532   4.388 -0.3038 -0.0609 -0.0367
  303POPC   C3B 4128   2.893   7.487   4.875 -0.2147  0.1620  0.0646
  303POPC   C4B 4129   2.706   7.196   5.061 -0.2463 -0.1408 -0.0378
  304POPC   NC3 4130   2.609   6.154   3.122 -0.1054 -0.4404 -0.0127
  304POPC   PO4 4131   2.915   6.471   3.254 -0.5697  0.1576  0.2701
  304POPC   GL1 4132   2.916   6.673   3.750  0.2965  0.0837  0.0662
  304POPC   GL2 4133   3.259   6.492   3.872 -0.1982  0.3892  0.1376
  304POPC   C1A 4134   3.089   6.763   4.242 -0.1398 -0.2377  0.0156
  304POPC   D2A 4135   3.259   7.094   4.554 -0.1061  0.2161 -0.0630
  304POPC   C3A 4136   3.152   7.037   4.877  0.0664 -0.2854  0.0662
  304POPC   C4A 4137   2.928   6.725   5.135 -0.0103 -0.1370 -0.1322
  304POPC   C1B 4138   3.477   6.404   4.212  0.0853  0.0553  0.0295
  304POPC   C2B 4139   3.648   6.249   4.587 -0.1303 -0.0831 -0.1399
  304POPC   C3B 4140   3.713   6.167   5.056  0.1172  0.0739  0.1938
  304POPC   C4B 4141   3.969   6.035   5.478  0.0470 -0.0244 -0.0572
  305POPC   NC3 4142   6.447  10.306   4.068 -0.0193  0.1044  0.1024
  305POPC   PO4 4143   6.628  10.367   4.457 -0.0323 -0.0511 -0.2626
  305POPC   GL1 4144   6.659  10.386   4.886 -0.4270 -0.0963  0.1981
  305POPC   GL2 4145   6.752  10.768   4.927 -0.0134  0.0825 -0.2687
  305POPC   C1A 4146   6.620  10.532   5.333  0.0668  0.0668  0.1117
  305POPC   D2A 4147   6.670  10.792   5.717 -0.2239  0.3461  0.0699
  305POPC   C3A 4148   6.473  10.767   6.044 -0.0916 -0.1791 -0.2358
  305POPC   C4A 4149   6.000  10.762   6.052 -0.1135 -0.1090  0.1011
  305POPC   C1B 4150   6.763  11.116   5.128  0.2757 -0.0869 -0.1403
  305POPC   C2B 4151   6.927  11.302   5.495 -0.1720 -0.1066 -0.4758
  305POPC   C3B 4152   6.851  11.188   5.984  0.1504 -0.0425  0.1745
  305POPC   C4B 4153   7.136  11.049   6.318  0.0672 -0.1905 -0.3384
  306POPC   NC3 4154   3.637   1.351   4.452  0.1548 -0.2100 -0.2167
  306POPC   PO4 4155   3.854   1.571   4.797  0.1292 -0.1564 -0.2222
  306POPC   GL1 4156   3.790   1.666   5.171 -0.0944  0.1524  0.0144
  306POPC   GL2 4157   3.679   1.485   5.441  0.1793 -0.0685 -0.0199
  306POPC   C1A 4158   3.908   1.958   5.433 -0.0570 -0.1693  0.0391
  306POPC   D2A 4159   3.676   2.119   5.831 -0.0292  0.1249  0.4205
  306POPC   C3A 4160   3.382   2.071   6.135  0.0369 -0.1228 -0.0713
  306POPC   C4A 4161   3.331   1.793   6.395  0.0633  0.2313 -0.1193
  306POPC   C1B 4162   3.672   1.617   5.850 -0.2672 -0.2750  0.3259
  306POPC   C2B 4163   3.883   1.687   6.213 -0.1086  0.0178 -0.0241
  306POPC   C3B 4164   3.996   1.636   6.636 -0.2151  0.0686  0.0888
  306POPC   C4B 4165   4.151   1.619   7.037 -0.3139  0.0454  0.1181
  307POPC   NC3 4166   4.523   7.344   3.268  0.2628 -0.3423 -0.3908
  307POPC   PO4 4167   4.206   7.117   3.207  0.0596  0.5260 -0.0392
  307POPC   GL1 4168   4.207   6.826   3.574 -0.0056 -0.1211  0.0518
  307POPC   GL2 4169   3.961   6.985   3.761  0.0019  0.1922  0.2314
  307POPC   C1A 4170   4.187   6.457   3.835  0.2468 -0.1980  0.0385
  307POPC   D2A 4171   4.004   6.358   4.249 -0.2565 -0.0661 -0.1872
  307POPC   C3A 4172   4.173   6.212   4.502 -0.1365 -0.0363  0.2509
  307POPC   C4A 4173   4.065   5.927   4.780  0.1874  0.2303 -0.2050
  307POPC   C1B 4174   3.884   6.754   4.094 -0.0799 -0.2284  0.3501
  307POPC   C2B 4175   3.735   6.767   4.483 -0.0066  0.2742  0.1311
  307POPC   C3B 4176   3.686   7.178   4.802  0.0387  0.1642  0.0292
  307POPC   C4B 4177   3.561   7.313   5.216 -0.2405  0.0145  0.1894
  308POPC   NC3 4178   3.524   3.644   4.682  0.2413 -0.2012 -0.1155
  308POPC   PO4 4179   3.118   3.532   4.712  0.0730  0.0066  0.1188
  308POPC   GL1 4180   3.224   3.733   5.114  0.0637 -0.2066  0.2248
  308POPC   GL2 4181   3.045   3.483   5.230  0.0888  0.1742 -0.0196
  308POPC   C1A 4182   3.193   3.865   5.624 -0.1381  0.2132  0.1813
  308POPC   D2A 4183   3.571   3.821   5.913  0.0738 -0.0293  0.3670
  308POPC   C3A 4184   3.920   3.780   5.733 -0.0526 -0.2652  0.2008
  308POPC   C4A 4185   4.420   3.589   5.839  0.2015 -0.0347  0.0116
  308POPC   C1B 4186   2.732   3.436   5.606 -0.0519 -0.1166  0.0835
  308POPC   C2B 4187   2.600   3.248   6.006 -0.1051 -0.1904  0.0803
  308POPC   C3B 4188   2.711   3.117   6.410  0.1121 -0.0988 -0.1094
  308POPC   C4B 4189   2.895   2.820   6.691 -0.0029 -0.2688 -0.0344
  309POPC   NC3 4190   3.595   4.922   3.725  0.1810  0.3128 -0.1422
  309POPC   PO4 4191   3.974   4.712   3.899 -0.1468 -0.0020  0.3281
  309POPC   GL1 4192   3.715   4.849   4.224  0.3054  0.0210 -0.2360
  309POPC   GL2 4193   3.399   5.016   4.198  0.1620 -0.1254  0.1975
  309POPC   C1A 4194   3.670   4.904   4.643 -0.1703 -0.3132  0.0794
  309POPC   D2A 4195   3.623   5.008   5.074 -0.1185 -0.1092  0.1247
  309POPC   C3A 4196   3.710   5.164   5.448  0.1496 -0.1814  0.1259
  309POPC   C4A 4197   4.010   5.102   5.735 -0.0756  0.1484 -0.0077
  309POPC   C1B 4198   3.263   5.218   4.666  0.0147  0.1177 -0.4411
  309POPC   C2B 4199   3.215   5.269   5.099 -0.1296 -0.0197  0.1120
  309POPC   C3B 4200   3.211   5.529   5.349  0.0005 -0.2007 -0.2436
  309POPC   C4B 4201   3.422   6.002   5.405  0.2980 -0.2190 -0.1112
  310POPC   NC3 4202   8.170   8.801   3.781  0.0875 -0.0481 -0.4538
  310POPC   PO4 4203   8.002   8.914   4.258  0.2200  0.0616 -0.0295
  310POPC   GL1 4204   8.097   8.663   4.698  0.1070 -0.0450  0.0034
  310POPC   GL2 4205   8.117   8.317   4.851 -0.2016 -0.0088  0.2407
  310POPC   C1A 4206   8.246   8.734   5.116  0.0563 -0.1917  0.1668
  310POPC   D2A 4207   8.518   9.000   5.392 -0.0540  0.1098  0.0251
  310POPC   C3A 4208   8.350   8.961   5.826  0.0713 -0.0384  0.2454
  310POPC   C4A 4209   8.377   8.775   6.213 -0.0005  0.1196 -0.1856
  310POPC   C1B 4210   8.329   8.097   5.202 -0.0047 -0.2259 -0.0381
  310POPC   C2B 4211   8.569   7.989   5.610 -0.3108 -0.0602 -0.1852
  310POPC   C3B 4212   8.704   7.968   6.012 -0.2935 -0.0073  0.0196
  310POPC   C4B 4213   8.940   8.167   6.330  0.0275  0.1220  0.0849
  311POPC   NC3 4214   8.742   4.763   5.256 -0.1520 -0.2578 -0.0941
  311POPC   PO4 4215   8.718   4.266   5.123  0.2133  0.3963  0.2123
  311POPC   GL1 4216   8.844   4.307   5.601  0.1716 -0.2913 -0.0083
  311POPC   GL2 4217   9.119   4.128   5.734 -0.2458  0.0255  0.2595
  311POPC   C1A 4218   8.848   4.332   6.090  0.1491 -0.1773  0.1597
  311POPC   D2A 4219   8.735   3.984   6.333  0.2113 -0.0495  0.0929
  311POPC   C3A 4220   9.053   3.741   6.444  0.3064  0.3993 -0.1383
  311POPC   C4A 4221   9.236   3.503   6.773 -0.1948  0.2146 -0.1569
  311POPC   C1B 4222   8.893   3.779   5.930 -0.2480  0.3690  0.0720
  311POPC   C2B 4223   9.085   3.315   6.062 -0.0414 -0.0748 -0.2277
  311POPC   C3B 4224   9.183   3.155   6.423  0.1137 -0.0533  0.4106
  311POPC   C4B 4225   9.302   3.019   6.843 -0.1513 -0.0819  0.0329
  312POPC   NC3 4226   6.149   8.932   4.739 -0.1001  0.0178  0.2056
  312POPC   PO4 4227   6.443   9.200   4.660 -0.1573 -0.0468 -0.1062
  312POPC   GL1 4228   6.491   9.156   5.082  0.0533  0.0321  0.0478
  312POPC   GL2 4229   6.381   8.846   5.157  0.1182  0.0233 -0.1704
  312POPC   C1A 4230   6.755   9.051   5.529  0.0037 -0.0520  0.3002
  312POPC   D2A 4231   6.996   8.793   5.849 -0.0631  0.2252 -0.0911
  312POPC   C3A 4232   7.402   8.961   5.949  0.0038 -0.1121  0.0249
  312POPC   C4A 4233   7.506   9.492   6.099  0.1935  0.0893 -0.0627
  312POPC   C1B 4234   6.029   9.015   5.438  0.0335 -0.0942 -0.1647
  312POPC   C2B 4235   5.852   9.307   5.817  0.3072 -0.1921  0.0530
  312POPC   C3B 4236   5.881   9.344   6.270 -0.2307 -0.0424  0.2834
  312POPC   C4B 4237   6.048   9.584   6.654 -0.0687 -0.0233 -0.0244
  313POPC   NC3 4238   1.314   6.194   4.168  0.2912 -0.0021  0.0530
  313POPC   PO4 4239   1.318   6.599   4.189 -0.0147 -0.0341 -0.1501
  313POPC   GL1 4240   1.573   6.779   4.505 -0.0271 -0.0072  0.1467
  313POPC   GL2 4241   1.291   6.809   4.790  0.1430 -0.0990  0.0522
  313POPC   C1A 4242   1.690   7.015   4.882  0.0778  0.0886  0.2860
  313POPC   D2A 4243   1.778   7.386   5.211 -0.0718 -0.2267  0.0594
  313POPC   C3A 4244   1.832   7.327   5.589 -0.0182 -0.0188 -0.0133
  313POPC   C4A 4245   1.631   7.198   5.900  0.0012  0.0491  0.1334
  313POPC   C1B 4246   1.062   6.674   5.089 -0.0249  0.0747  0.1394
  313POPC   C2B 4247   1.108   6.836   5.556 -0.1979 -0.0642 -0.0454
  313POPC   C3B 4248   1.297   6.757   5.921  0.3134  0.0270 -0.1005
  313POPC   C4B 4249   1.192   6.617   6.321  0.0552  0.0511 -0.2888
  314POPC   NC3 4250   4.472   0.930   4.976 -0.0564 -0.1325 -0.0524
  314POPC   PO4 4251   4.633   0.836   5.297 -0.3136 -0.0000  0.0241
  314POPC   GL1 4252   4.682   0.677   5.701 -0.2576 -0.0660  0.2347
  314POPC   GL2 4253   4.984   0.749   5.829 -0.0964  0.1648  0.0196
  314POPC   C1A 4254   4.754   0.394   6.130  0.0945  0.1312  0.4186
  314POPC   D2A 4255   4.711   0.394   6.638 -0.1508  0.1243 -0.0626
  314POPC   C3A 4256   4.527   0.718   6.742 -0.0737  0.3322  0.0497
  314POPC   C4A 4257   4.537   1.150   6.886 -0.2243 -0.1228 -0.1194
  314POPC   C1B 4258   4.656   0.916   6.173  0.1382  0.0754 -0.0691
  314POPC   C2B 4259   4.198   1.100   6.447  0.0178  0.1577 -0.0989
  314POPC   C3B 4260   3.939   1.204   6.816 -0.1672 -0.1957 -0.1500
  314POPC   C4B 4261   3.724   1.315   7.148 -0.0130  0.2455  0.2842
  315POPC   NC3 4262   0.939   1.960   4.838  0.0422  0.4208  0.2447
  315POPC   PO4 4263   0.734   1.644   4.643  0.1064 -0.1833  0.0855
  315POPC   GL1 4264   0.709   1.587   5.123 -0.2054  0.1289 -0.1807
  315POPC   GL2 4265   0.530   1.286   5.280 -0.0999 -0.1406 -0.1158
  315POPC   C1A 4266   0.912   1.703   5.549  0.1557  0.0658 -0.2691
  315POPC   D2A 4267   1.303   1.619   5.821  0.2285 -0.1092  0.0055
  315POPC   C3A 4268   1.260   1.551   6.206  0.1481  0.0624 -0.1412
  315POPC   C4A 4269   1.526   1.568   6.548 -0.0084  0.1808  0.1864
  315POPC   C1B 4270   0.817   1.145   5.585  0.0247 -0.0345  0.2139
  315POPC   C2B 4271   0.830   1.321   5.973 -0.1245  0.0951  0.0768
  315POPC   C3B 4272   0.659   1.645   6.342  0.1052  0.0505 -0.1058
  315POPC   C4B 4273   0.665   2.003   6.693  0.0441  0.0860 -0.0739
  316POPC   NC3 4274   9.891   3.961   5.066 -0.2078 -0.1444 -0.1391
  316POPC   PO4 4275   9.440   4.109   4.978 -0.3073 -0.1284  0.0041
  316POPC   GL1 4276   9.499   4.088   5.402  0.2984  0.0853 -0.3544
  316POPC   GL2 4277   9.604   3.805   5.504  0.0256 -0.1239 -0.0754
  316POPC   C1A 4278   9.531   4.337   5.800  0.0364  0.1890  0.1589
  316POPC   D2A 4279   9.751   4.332   6.166  0.0118  0.2693  0.0007
  316POPC   C3A 4280   9.757   4.411   6.688  0.0168 -0.0710 -0.1792
  316POPC   C4A 4281   9.336   4.610   6.842 -0.4683 -0.2362 -0.1776
  316POPC   C1B 4282   9.625   3.433   5.737 -0.0073 -0.0882  0.0069
  316POPC   C2B 4283   9.584   3.383   6.197  0.2016 -0.0151  0.5420
  316POPC   C3B 4284   9.756   3.209   6.561  0.2804 -0.3401  0.1348
  316POPC   C4B 4285   9.753   3.512   6.897 -0.3368 -0.1897 -0.0931
  317POPC   NC3 4286   3.948  10.006   4.935  0.0094 -0.1062 -0.0089
  317POPC   PO4 4287   4.383  10.083   5.004 -0.2363 -0.1952  0.1144
  317POPC   GL1 4288   4.484   9.909   5.364  0.3947  0.2606  0.1620
  317POPC   GL2 4289   4.450   9.600   5.318 -0.1743  0.2607 -0.3050
  317POPC   C1A 4290   4.241   9.740   5.759 -0.2362  0.2052 -0.0111
  317POPC   D2A 4291   4.178   9.331   6.032  0.2699 -0.2684  0.0999
  317POPC   C3A 4292   3.801   9.368   6.318 -0.0748 -0.0618  0.1830
  317POPC   C4A 4293   3.721   9.113   6.666 -0.0822 -0.1142  0.2646
  317POPC   C1B 4294   4.698   9.411   5.708 -0.0783 -0.0466  0.0898
  317POPC   C2B 4295   4.631   9.049   6.071  0.2260 -0.1800  0.1042
  317POPC   C3B 4296   4.408   8.898   6.268  0.1090 -0.0059  0.1546
  317POPC   C4B 4297   4.059   8.874   6.360  0.2221  0.1917 -0.1100
  318POPC   NC3 4298   9.923   1.283   4.086  0.2964  0.3300 -0.1595
  318POPC   PO4 4299   9.718   1.194   4.414 -0.2671  0.0064 -0.3256
  318POPC   GL1 4300   9.772   1.372   4.833  0.3119 -0.3105 -0.1044
  318POPC   GL2 4301  10.044   1.256   5.045 -0.3617 -0.0575 -0.1475
  318POPC   C1A 4302   9.787   1.636   5.285  0.4602 -0.0635  0.0138
  318POPC   D2A 4303   9.616   1.537   5.710  0.0037 -0.1557 -0.3124
  318POPC   C3A 4304   9.627   1.550   6.163 -0.1610  0.4890 -0.2497
  318POPC   C4A 4305   9.788   1.636   6.635  0.1788 -0.4168 -0.0177
  318POPC   C1B 4306  10.005   1.155   5.378  0.3686 -0.0305  0.3042
  318POPC   C2B 4307  10.097   1.253   5.734  0.2491 -0.3650  0.0301
  318POPC   C3B 4308  10.010   1.227   6.179  0.3118  0.0343 -0.1201
  318POPC   C4B 4309  10.413   1.046   6.404 -0.0416  0.0799 -0.3009
  319POPC   NC3 4310   9.902   0.852   4.796  0.0753 -0.0070  0.0458
  319POPC   PO4 4311  10.149   0.497   4.766  0.0644 -0.2003  0.1723
  319POPC   GL1 4312  10.123   0.516   5.198  0.2017  0.1214  0.0172
  319POPC   GL2 4313   9.993   0.192   5.368  0.1340 -0.1373 -0.1844
  319POPC   C1A 4314  10.319   0.677   5.567  0.2534 -0.2089 -0.1111
  319POPC   D2A 4315  10.342   0.862   5.948 -0.0874  0.1868  0.1619
  319POPC   C3A 4316  10.394   0.387   6.133 -0.3113 -0.0748 -0.4220
  319POPC   C4A 4317  10.549   0.227   6.512 -0.1424  0.0610  0.1138
  319POPC   C1B 4318  10.015   0.270   5.725  0.0211  0.0886 -0.1779
  319POPC   C2B 4319   9.888   0.430   6.127  0.0609  0.1612  0.0979
  319POPC   C3B 4320  10.032   0.705   6.372 -0.2834 -0.1570  0.0114
  319POPC   C4B 4321  10.106   0.613   6.714 -0.1622 -0.1711 -0.2703
  320POPC   NC3 4322   1.278   2.091   4.487 -0.0972  0.2504 -0.0729
  320POPC   PO4 4323   1.106   2.399   4.820 -0.2380 -0.0458 -0.0625
  320POPC   GL1 4324   1.080   2.427   5.232 -0.1032  0.2079  0.1859
  320POPC   GL2 4325   0.899   2.718   5.256 -0.0459  0.2428 -0.0542
  320POPC   C1A 4326   1.004   2.226   5.649 -0.1891 -0.1307  0.1492
  320POPC   D2A 4327   1.003   2.022   6.026 -0.2861 -0.0309  0.2891
  320POPC   C3A 4328   1.453   2.090   6.238 -0.3035  0.0523 -0.0122
  320POPC   C4A 4329   1.533   2.214   6.631 -0.1125  0.0634 -0.2338
  320POPC   C1B 4330   0.870   2.732   5.709  0.0178 -0.0720 -0.1306
  320POPC   C2B 4331   1.054   2.522   6.036  0.1776 -0.0206  0.2018
  320POPC   C3B 4332   1.342   2.694   6.362  0.1487 -0.1326  0.1567
  320POPC   C4B 4333   1.488   3.057   6.627 -0.0213 -0.5462  0.1355
  321POPC   NC3 4334   4.874   9.896   4.937  0.1095  0.1112 -0.0634
  321POPC   PO4 4335   4.974   9.594   4.528 -0.2228  0.1776 -0.1119
  321POPC   GL1 4336   5.110   9.334   4.937  0.2213  0.1502 -0.1512
  321POPC   GL2 4337   4.988   9.188   5.242  0.0420 -0.1755  0.0650
  321POPC   C1A 4338   5.383   8.899   5.179  0.2424  0.5033 -0.0737
  321POPC   D2A 4339   5.771   8.673   5.049 -0.2244  0.0202 -0.1310
  321POPC   C3A 4340   5.920   8.264   5.198  0.2154  0.0320  0.1727
  321POPC   C4A 4341   6.325   8.155   5.288 -0.2201 -0.1443  0.1471
  321POPC   C1B 4342   5.030   9.068   5.576 -0.1906 -0.0555  0.4012
  321POPC   C2B 4343   5.437   8.976   5.672  0.1203 -0.0406  0.2051
  321POPC   C3B 4344   5.674   8.881   6.020  0.1120  0.0610 -0.0617
  321POPC   C4B 4345   6.090   8.760   6.164  0.0691  0.0111  0.2995
  322POPC   NC3 4346   9.632   7.648   4.440  0.1448 -0.1249  0.1168
  322POPC   PO4 4347   9.903   7.360   4.727  0.0833 -0.3025 -0.1568
  322POPC   GL1 4348   9.846   7.450   5.120 -0.4707 -0.0157 -0.1884
  322POPC   GL2 4349   9.826   7.214   5.254  0.3909 -0.3602 -0.0294
  322POPC   C1A 4350   9.627   7.502   5.619 -0.1191 -0.4109  0.0152
  322POPC   D2A 4351   9.625   7.532   6.009 -0.0084  0.0463  0.0807
  322POPC   C3A 4352   9.865   7.367   6.307 -0.3158  0.0718  0.1950
  322POPC   C4A 4353   9.920   7.138   6.449  0.1206  0.0618  0.1264
  322POPC   C1B 4354   9.707   7.049   5.702 -0.0965  0.2815 -0.4082
  322POPC   C2B 4355   9.820   6.740   6.018  0.3318 -0.3864 -0.1208
  322POPC   C3B 4356  10.021   6.655   6.393 -0.0990 -0.4028  0.0859
  322POPC   C4B 4357   9.744   6.430   6.710 -0.1501  0.2204  0.0693
  323POPC   NC3 4358   3.297   2.421   4.616 -0.1693 -0.1171 -0.1272
  323POPC   PO4 4359   3.167   2.142   4.933  0.2188  0.4070 -0.1680
  323POPC   GL1 4360   3.314   2.436   5.175 -0.0053 -0.2717 -0.0904
  323POPC   GL2 4361   3.467   2.639   5.022 -0.0888 -0.1599 -0.5885
  323POPC   C1A 4362   3.321   2.538   5.605 -0.1668  0.1745  0.3036
  323POPC   D2A 4363   3.314   2.567   6.013 -0.0146 -0.2391  0.1110
  323POPC   C3A 4364   3.669   2.476   6.170 -0.1360 -0.3158 -0.0595
  323POPC   C4A 4365   3.918   2.158   6.331 -0.0605 -0.0718  0.1800
  323POPC   C1B 4366   3.786   2.486   5.372  0.2530  0.0739 -0.1206
  323POPC   C2B 4367   4.061   2.379   5.654  0.0125 -0.1277 -0.4242
  323POPC   C3B 4368   4.199   2.032   5.880 -0.0965  0.0950 -0.1328
  323POPC   C4B 4369   4.381   1.936   6.280  0.1724 -0.2065 -0.0906
  324POPC   NC3 4370   6.226   3.169   4.874  0.1165 -0.0683 -0.0160
  324POPC   PO4 4371   6.504   3.082   5.086 -0.0935 -0.1629  0.0057
  324POPC   GL1 4372   6.576   3.429   5.366 -0.0281  0.1370 -0.2458
  324POPC   GL2 4373   6.668   3.306   5.626 -0.3230  0.0816  0.0652
  324POPC   C1A 4374   6.226   3.632   5.552 -0.1003  0.0258 -0.0709
  324POPC   D2A 4375   5.987   3.987   5.743  0.0220  0.1680  0.0888
  324POPC   C3A 4376   5.952   4.213   6.207  0.2549  0.1828 -0.0197
  324POPC   C4A 4377   6.182   4.360   6.615  0.1029  0.2742 -0.0626
  324POPC   C1B 4378   6.389   3.435   6.001 -0.2268  0.1383 -0.0890
  324POPC   C2B 4379   6.379   3.396   6.447 -0.0725 -0.2576  0.2799
  324POPC   C3B 4380   6.391   3.686   6.720  0.2422 -0.0007 -0.0025
  324POPC   C4B 4381   6.597   3.684   7.180  0.2455 -0.0353 -0.2470
  325POPC   NC3 4382   0.347   6.446   4.805 -0.1693 -0.1615 -0.2201
  325POPC   PO4 4383   0.493   6.010   4.596  0.1489  0.3732  0.2242
  325POPC   GL1 4384   0.818   5.950   4.846 -0.1387  0.0147 -0.3896
  325POPC   GL2 4385   1.049   6.149   4.808 -0.0362 -0.1393  0.1347
  325POPC   C1A 4386   0.945   5.886   5.298 -0.2092  0.1720  0.1278
  325POPC   D2A 4387   0.823   6.117   5.580  0.2585 -0.0787 -0.1997
  325POPC   C3A 4388   0.994   6.081   5.842  0.4201 -0.4092 -0.1344
  325POPC   C4A 4389   0.881   6.169   6.250  0.2868 -0.0289 -0.1344
  325POPC   C1B 4390   1.266   6.186   5.146  0.3459 -0.1889  0.0320
  325POPC   C2B 4391   1.231   6.344   5.506 -0.1797  0.0990  0.1604
  325POPC   C3B 4392   1.605   6.256   5.815 -0.0389 -0.1465 -0.1979
  325POPC   C4B 4393   2.047   6.310   5.827 -0.1633  0.1462 -0.2850
  326POPC   NC3 4394   2.351   3.731   4.549  0.3814 -0.3768  0.1404
  326POPC   PO4 4395   1.963   3.482   4.581 -0.1846 -0.0861 -0.1179
  326POPC   GL1 4396   2.033   3.300   4.883  0.1119 -0.0711 -0.2739
  326POPC   GL2 4397   1.829   3.140   5.012  0.2183 -0.3418  0.2323
  326POPC   C1A 4398   2.067   3.425   5.345 -0.2310  0.2184 -0.2674
  326POPC   D2A 4399   1.947   3.379   5.717  0.0737  0.2649 -0.0508
  326POPC   C3A 4400   1.807   3.579   5.988 -0.2493 -0.2798 -0.1745
  326POPC   C4A 4401   1.747   3.354   6.378  0.2190  0.2922 -0.0931
  326POPC   C1B 4402   1.568   3.271   5.396  0.0341 -0.0929 -0.1084
  326POPC   C2B 4403   1.377   3.574   5.593  0.1944  0.2459 -0.0272
  326POPC   C3B 4404   1.001   3.626   5.826  0.2174  0.2004 -0.0955
  326POPC   C4B 4405   0.800   3.795   6.163 -0.0329 -0.0944 -0.1448
  327POPC   NC3 4406   5.476   0.746   5.083  0.1931 -0.0481  0.1139
  327POPC   PO4 4407   5.260   0.662   5.422 -0.0412  0.3097  0.2200
  327POPC   GL1 4408   5.383   0.489   5.843  0.1182 -0.1176  0.0396
  327POPC   GL2 4409   5.252   0.241   5.976  0.0269  0.1934 -0.1173
  327POPC   C1A 4410   5.558   0.491   6.230  0.2073  0.0223 -0.2618
  327POPC   D2A 4411   5.645   0.177   6.609 -0.0176 -0.0684  0.4080
  327POPC   C3A 4412   6.039   0.060   6.855  0.1011  0.1617  0.2509
  327POPC   C4A 4413   6.296  -0.269   6.957 -0.0384  0.2053  0.0656
  327POPC   C1B 4414   5.130  -0.008   6.264 -0.0720 -0.0873 -0.0557
  327POPC   C2B 4415   5.120  -0.082   6.760  0.0941 -0.1897  0.0609
  327POPC   C3B 4416   5.423   0.163   7.090  0.3072 -0.1161 -0.1923
  327POPC   C4B 4417   5.740   0.310   7.217 -0.0127 -0.0238  0.0407
  328POPC   NC3 4418   2.399   1.275   4.181 -0.0586  0.3872 -0.2183
  328POPC   PO4 4419   2.548   1.390   4.569 -0.3627  0.2260  0.1019
  328POPC   GL1 4420   2.568   1.455   5.101 -0.1451 -0.3705  0.0617
  328POPC   GL2 4421   2.809   1.732   5.064  0.2849  0.0187  0.0479
  328POPC   C1A 4422   2.226   1.625   5.263 -0.1003  0.1150 -0.3241
  328POPC   D2A 4423   1.992   1.988   5.342  0.0321 -0.2453  0.0197
  328POPC   C3A 4424   1.828   2.469   5.472 -0.1193 -0.0068  0.0886
  328POPC   C4A 4425   1.861   2.921   5.443  0.0903  0.1740 -0.2586
  328POPC   C1B 4426   2.694   1.738   5.581 -0.0924 -0.1663 -0.1403
  328POPC   C2B 4427   2.878   1.746   6.062 -0.1246 -0.1571  0.1647
  328POPC   C3B 4428   2.828   1.697   6.515 -0.0723 -0.0282  0.1902
  328POPC   C4B 4429   2.970   1.839   6.821  0.1625  0.1523 -0.4763
  329POPC   NC3 4430   3.113   9.041   3.290 -0.1666 -0.0839 -0.5124
  329POPC   PO4 4431   2.954   8.781   3.590 -0.1205 -0.0623  0.0376
  329POPC   GL1 4432   3.100   8.702   3.989 -0.1847 -0.1415 -0.1409
  329POPC   GL2 4433   2.893   8.511   4.066 -0.0754 -0.0871  0.2216
  329POPC   C1A 4434   3.327   8.558   4.343  0.1681 -0.1665 -0.2025
  329POPC   D2A 4435   3.369   8.417   4.786  0.0823 -0.0332  0.0674
  329POPC   C3A 4436   3.687   8.018   5.042  0.0966  0.2273 -0.0069
  329POPC   C4A 4437   3.912   7.602   4.944  0.1282 -0.4070  0.2277
  329POPC   C1B 4438   2.902   8.295   4.416 -0.2046  0.0903 -0.0017
  329POPC   C2B 4439   3.100   7.986   4.672  0.1327 -0.2091 -0.2110
  329POPC   C3B 4440   3.206   8.031   5.065 -0.1986  0.3324  0.0551
  329POPC   C4B 4441   3.139   7.656   5.207  0.0976  0.1327 -0.2721
  330POPC   NC3 4442   7.066   2.006   4.748 -0.1475 -0.1352 -0.0842
  330POPC   PO4 4443   6.929   1.968   5.040  0.1291 -0.1089  0.2518
  330POPC   GL1 4444   6.790   1.982   5.488  0.2649 -0.1803 -0.2049
  330POPC   GL2 4445   6.596   2.204   5.708  0.1345 -0.1875  0.1150
  330POPC   C1A 4446   6.879   1.820   5.951  0.1146 -0.2321  0.3222
  330POPC   D2A 4447   7.148   2.014   6.319 -0.2496 -0.4172  0.0632
  330POPC   C3A 4448   7.233   2.051   6.657  0.1442 -0.2403  0.3584
  330POPC   C4A 4449   7.593   2.125   7.001 -0.1973 -0.0291  0.1305
  330POPC   C1B 4450   6.459   2.142   6.175 -0.2459  0.2069  0.3266
  330POPC   C2B 4451   6.128   2.023   6.413 -0.0174 -0.1199 -0.2137
  330POPC   C3B 4452   6.034   2.268   6.914 -0.2893  0.0178  0.0291
  330POPC   C4B 4453   5.969   2.468   7.244  0.1454  0.0427 -0.3428
  331POPC   NC3 4454   0.766   7.814   4.059 -0.0270  0.0832 -0.0375
  331POPC   PO4 4455   0.948   8.051   4.416  0.2105  0.0537 -0.0048
  331POPC   GL1 4456   0.991   7.824   4.803  0.0949 -0.1780  0.2391
  331POPC   GL2 4457   0.836   7.612   4.718  0.0906 -0.0059 -0.3003
  331POPC   C1A 4458   1.108   7.675   5.214 -0.0238 -0.1373  0.4524
  331POPC   D2A 4459   1.278   7.408   5.514 -0.0463 -0.0504 -0.4463
  331POPC   C3A 4460   1.264   7.503   6.003 -0.2686 -0.1750  0.0439
  331POPC   C4A 4461   1.466   7.829   6.355 -0.0149  0.1848 -0.1465
  331POPC   C1B 4462   0.723   7.373   5.148 -0.2532 -0.0839 -0.2439
  331POPC   C2B 4463   0.723   7.206   5.498  0.1509  0.2282  0.1436
  331POPC   C3B 4464   0.843   7.149   5.885  0.1242 -0.2450  0.0747
  331POPC   C4B 4465   0.816   7.465   6.327 -0.1336  0.0034  0.1122
  332POPC   NC3 4466   0.767   9.816   4.581 -0.1130 -0.1571 -0.2873
  332POPC   PO4 4467   0.440  10.056   4.713 -0.0531 -0.0660 -0.0846
  332POPC   GL1 4468   0.240   9.824   5.067  0.4010  0.0643  0.0544
  332POPC   GL2 4469  -0.186   9.944   5.169 -0.1492  0.0914 -0.2393
  332POPC   C1A 4470   0.214   9.835   5.515  0.2895  0.0513 -0.0154
  332POPC   D2A 4471   0.282   9.598   5.888 -0.0940  0.0014 -0.4633
  332POPC   C3A 4472   0.496   9.789   6.136  0.2767 -0.1088 -0.1719
  332POPC   C4A 4473   0.913   9.742   6.226  0.3957 -0.2844 -0.1071
  332POPC   C1B 4474  -0.311   9.682   5.473 -0.1492  0.1743  0.0943
  332POPC   C2B 4475  -0.206   9.534   5.856 -0.4344  0.1382 -0.2200
  332POPC   C3B 4476  -0.370   9.459   6.284  0.1134  0.0392  0.1394
  332POPC   C4B 4477  -0.524   9.453   6.821  0.1852  0.2278 -0.0280
  333POPC   NC3 4478   7.009   7.395   4.591  0.0017 -0.0838 -0.2676
  333POPC   PO4 4479   6.786   7.628   4.456  0.2177 -0.2574  0.0841
  333POPC   GL1 4480   6.675   7.570   4.925 -0.2221  0.2899 -0.1177
  333POPC   GL2 4481   6.951   7.360   5.107 -0.0174  0.1191 -0.1636
  333POPC   C1A 4482   6.570   7.586   5.349 -0.2276  0.0727  0.1175
  333POPC   D2A 4483   6.628   7.699   5.862 -0.2190  0.3589 -0.2437
  333POPC   C3A 4484   6.642   7.397   6.118  0.0902 -0.1911  0.0253
  333POPC   C4A 4485   6.504   7.087   6.354  0.0170 -0.0680  0.0546
  333POPC   C1B 4486   6.786   7.099   5.526 -0.0201 -0.0583 -0.4173
  333POPC   C2B 4487   6.618   6.814   5.847  0.0760 -0.0792 -0.2522
  333POPC   C3B 4488   6.322   6.675   6.177  0.2143  0.3977  0.0754
  333POPC   C4B 4489   6.080   6.484   6.556 -0.1802 -0.2324  0.0843
  334POPC   NC3 4490   4.931   0.253   5.523  0.2798 -0.0392  0.0610
  334POPC   PO4 4491   4.664  -0.110   5.338 -0.0985 -0.1736  0.0066
  334POPC   GL1 4492   4.523  -0.210   5.693 -0.0220 -0.3041 -0.0430
  334POPC   GL2 4493   4.738  -0.035   5.959 -0.1250  0.2654  0.1179
  334POPC   C1A 4494   4.400  -0.406   6.064 -0.1493  0.0141 -0.4258
  334POPC   D2A 4495   4.162  -0.674   6.281  0.1897  0.2691 -0.0418
  334POPC   C3A 4496   3.802  -0.645   6.537  0.0865 -0.0983 -0.1775
  334POPC   C4A 4497   3.646  -0.565   7.012 -0.1473 -0.1787  0.0827
  334POPC   C1B 4498   4.646  -0.026   6.434  0.0196 -0.2520  0.1634
  334POPC   C2B 4499   4.585  -0.186   6.838 -0.4670 -0.1350  0.3373
  334POPC   C3B 4500   4.736  -0.223   7.255  0.0415  0.1304  0.3044
  334POPC   C4B 4501   5.000   0.092   7.591  0.0611  0.1220 -0.0424
  335POPC   NC3 4502   3.166   4.054   3.878  0.3063  0.2150  0.1402
  335POPC   PO4 4503   3.361   3.968   4.266 -0.2537  0.2743 -0.0209
  335POPC   GL1 4504   3.275   4.086   4.690 -0.1893 -0.1387  0.1215
  335POPC   GL2 4505   3.013   4.316   4.712  0.0368 -0.0607  0.3548
  335POPC   C1A 4506   3.481   4.230   5.157 -0.0930 -0.0115 -0.0531
  335POPC   D2A 4507   3.443   4.266   5.678 -0.0742  0.1924  0.4486
  335POPC   C3A 4508   3.166   4.091   6.043  0.1146 -0.1935 -0.0292
  335POPC   C4A 4509   2.898   3.941   6.345  0.0560 -0.0862 -0.2830
  335POPC   C1B 4510   2.874   4.537   5.093  0.2198 -0.0185 -0.1899
  335POPC   C2B 4511   3.034   4.229   5.359 -0.1207  0.0317  0.1572
  335POPC   C3B 4512   2.755   3.862   5.378 -0.0688  0.0593 -0.2791
  335POPC   C4B 4513   2.505   3.540   5.132 -0.2227  0.0943 -0.0584
  336POPC   NC3 4514   4.326   3.198   5.195 -0.1885 -0.1810 -0.0355
  336POPC   PO4 4515   3.956   3.405   5.017 -0.0387  0.0724 -0.0337
  336POPC   GL1 4516   3.705   3.504   5.306  0.2565  0.3166 -0.0493
  336POPC   GL2 4517   3.895   3.293   5.458  0.0258  0.0220  0.1880
  336POPC   C1A 4518   3.388   3.403   5.672 -0.1225 -0.3922  0.0171
  336POPC   D2A 4519   3.143   3.071   5.808 -0.1411 -0.4198 -0.0070
  336POPC   C3A 4520   3.114   3.014   6.204  0.0339  0.3549  0.0079
  336POPC   C4A 4521   3.151   3.276   6.554 -0.2235 -0.0295  0.1063
  336POPC   C1B 4522   3.969   3.331   5.894  0.0017 -0.2144  0.3021
  336POPC   C2B 4523   4.010   3.389   6.332 -0.2643  0.0979  0.1202
  336POPC   C3B 4524   4.138   3.619   6.714 -0.0815 -0.1187 -0.0297
  336POPC   C4B 4525   4.290   3.663   7.024 -0.1807 -0.1377  0.2903
  337POPC   NC3 4526   9.958   4.974   5.216 -0.2689 -0.1323 -0.1178
  337POPC   PO4 4527   9.562   4.923   5.153  0.1053  0.2086  0.1016
  337POPC   GL1 4528   9.542   4.857   5.534 -0.4080 -0.1519  0.3210
  337POPC   GL2 4529   9.276   4.768   5.589  0.2180 -0.0814 -0.0487
  337POPC   C1A 4530   9.584   4.784   5.991 -0.0867 -0.3077  0.2001
  337POPC   D2A 4531   9.326   4.661   6.335 -0.0087 -0.2026 -0.1069
  337POPC   C3A 4532   9.238   4.292   6.371  0.1787  0.2722  0.0836
  337POPC   C4A 4533   9.329   3.949   6.102  0.0019  0.0615 -0.0888
  337POPC   C1B 4534   9.045   4.771   5.924  0.0123 -0.0586 -0.0058
  337POPC   C2B 4535   8.783   4.850   6.073  0.3313  0.0286  0.0896
  337POPC   C3B 4536   8.571   5.100   6.203  0.0302 -0.0400  0.0690
  337POPC   C4B 4537   8.573   5.547   6.325 -0.0058 -0.1348 -0.2105
  338W        W 4538   6.395   9.593   2.158  0.1113 -0.3607  0.0122
  339W        W 4539   8.412  10.135  12.646 -0.1434  0.2124 -0.2587
  340W        W 4540   5.700   6.969   9.004 -0.1088  0.0670  0.1553
  341W        W 4541   0.239   0.242  12.298 -0.1511 -0.1337  0.0860
  342W        W 4542   2.307   6.198  10.794  0.1187  0.0726 -0.4512
  343W        W 4543   5.102   9.562   2.920 -0.3503 -0.2079 -0.0209
  344W        W 4544   8.597   2.904   3.243  0.3448 -0.0803  0.1238
  345W        W 4545   3.660   5.219  11.345  0.0223  0.1764  0.1995
  346W        W 4546   6.305   0.615  10.928  0.0160  0.3383 -0.3019
  347W        W 4547   3.452   5.154   0.529  0.1717  0.0365 -0.0313
  348W        W 4548   5.655   4.164  13.108 -0.0016  0.3362 -0.2187
  349W        W 4549   4.552   7.091  11.205  0.0966  0.1209  0.1837
  350W        W 4550   9.667   5.222   8.816  0.1531 -0.2682  0.1862
  351W        W 4551   6.176   1.281   4.146  0.3914 -0.2687 -0.0193
  352W        W 4552   5.020   5.490  10.381  0.0998 -0.0969 -0.0402
  353W        W 4553   1.861   1.875   2.121 -0.1238 -0.1810  0.2718
  354W        W 4554   6.394   4.493  11.245 -0.3530  0.1959 -0.1087
  355W        W 4555   9.006   6.905  10.777 -0.0322 -0.2241 -0.2321
  356W        W 4556   9.334   2.607   9.456  0.2901  0.3000 -0.0535
  357W        W 4557   6.782   8.219  13.438  0.0037  0.0882  0.3082
  358W        W 4558  10.112   0.838  10.193  0.1082  0.1563 -0.4117
  359W        W 4559   2.823   9.076   1.142  0.3064 -0.2136 -0.1828
  360W        W 4560   8.714   7.926   3.452  0.0453  0.1169  0.0239
  361W        W 4561   9.078  10.015   9.045  0.2118 -0.1535  0.1928
  362W        W 4562   2.458   7.837  11.311 -0.3188  0.0459  0.0614
  363W        W 4563   8.152   5.594   0.057 -0.3772 -0.3214  0.0027
  364W        W 4564   5.644   5.979  11.431 -0.3925  0.2031 -0.0648
  365W        W 4565   6.768   7.113  12.444 -0.3141 -0.0959 -0.3860
  366W        W 4566   9.915   9.862   2.006  0.0838  0.1296  0.3692
  367W        W 4567   0.945   4.343  10.065  0.1545 -0.1655  0.0522
  368W        W 4568   4.547   3.052   0.315  0.2467 -0.1022  0.1366
  369W        W 4569   1.011   7.531  10.652 -0.0422 -0.3432  0.0645
  370W        W 4570   4.707   3.505   2.380  0.1072 -0.0276 -0.1629
  371W        W 4571   8.665   1.976   8.836  0.2213 -0.0001  0.0659
  372W        W 4572   6.195   2.009   9.753  0.0843  0.0834 -0.0875
  373W        W 4573   3.193   2.635   9.072 -0.2104  0.2708 -0.0504
  374W        W 4574   5.416   1.027   2.657 -0.1732  0.1268  0.3463
  375W        W 4575   2.084   6.659  10.584  0.0851  0.2057 -0.2450
  376W        W 4576   8.611   7.867  11.577  0.2726 -0.0868 -0.1909
  377W        W 4577   6.287   7.930   0.762 -0.0746 -0.0709 -0.1453
  378W        W 4578   1.388   2.239   3.556 -0.0813  0.1602  0.1777
  379W        W 4579   9.874   4.651  13.313 -0.2605 -0.1452 -0.0982
  380W        W 4580   8.369   0.986   1.298  0.1326  0.0684  0.3850
  381W        W 4581   5.451   2.373   4.126  0.1609 -0.0822  0.0093
  382W        W 4582   5.564   5.066   2.374  0.3284 -0.1324  0.1871
  383W        W 4583   2.969   2.435   0.388  0.0567 -0.0736  0.1333
  384W        W 4584   7.224   6.545  12.909 -0.1019  0.2057  0.0686
  385W        W 4585   9.566   9.867   9.929  0.2267  0.0077  0.1389
  386W        W 4586   4.498   3.629  12.960 -0.0190  0.0580 -0.0719
  387W        W 4587   4.586   0.421  13.243  0.3578 -0.0688 -0.3337
  388W        W 4588   5.945   4.075   4.202 -0.1029  0.0278  0.0272
  389W        W 4589   4.389   0.944  10.612  0.0493 -0.0991 -0.1444
  390W        W 4590   2.493   6.414   3.635  0.0710  0.0650  0.3190
  391W        W 4591   4.816   2.402   8.890  0.1559 -0.0868 -0.0906
  392W        W 4592   5.853   2.100   4.337  0.5246  0.2093 -0.1379
  393W        W 4593   2.490   6.948  11.080 -0.1283 -0.2858 -0.1185
  394W        W 4594   7.421   0.469  11.156  0.0412  0.0167 -0.1559
  395W        W 4595   9.973   6.370   1.249 -0.3419  0.2620  0.1432
  396W        W 4596   2.889   9.053  13.017 -0.2824 -0.1450  0.1800
  397W        W 4597   9.599   6.844   9.493  0.4428  0.3063  0.0274
  398W        W 4598   3.811   9.466  13.128 -0.2044 -0.0119 -0.1129
  399W        W 4599   4.184   4.029  12.719  0.0246 -0.1702 -0.1019
  400W        W 4600   9.035   2.380   9.128 -0.0694  0.3445 -0.1250
  401W        W 4601   8.772   4.368   1.633 -0.4577 -0.1183  0.1722
  402W        W 4602   3.134   3.136  12.602  0.1343  0.1430  0.0894
  403W        W 4603   4.463   3.462  12.067 -0.0305  0.0107 -0.2665
  404W        W 4604   6.153   2.814  12.118  0.1135 -0.1929  0.1334
  405W        W 4605   9.740   1.067   3.122 -0.1270 -0.0507  0.1579
  406W        W 4606   6.829   9.949  11.056  0.1208  0.3418 -0.1072
  407W        W 4607   6.013   4.199   2.676 -0.3039  0.0289  0.0174
  408W        W 4608   9.549   4.187   9.074  0.4196  0.1188 -0.0254
  409W        W 4609   4.742   0.596   1.523  0.1374  0.1026 -0.3073
  410W        W 4610   4.186   4.321   2.494 -0.1881  0.0070  0.2369
  411W        W 4611   2.622  10.350   2.822  0.2443 -0.0824 -0.0183
  412W        W 4612   1.152   9.521   9.432  0.1395 -0.0604  0.0761
  413W        W 4613   9.046   2.051  12.315 -0.0565 -0.0708 -0.0056
  414W        W 4614   1.359   1.662  10.280 -0.2691  0.1946  0.1134
  415W        W 4615   0.171   5.849   0.148  0.1491 -0.0096 -0.0268
  416W        W 4616   1.608   7.554   1.597 -0.2737  0.2663 -0.0171
  417W        W 4617   9.485   4.303  10.942 -0.1309 -0.3051 -0.2407
  418W        W 4618   3.708   0.993  12.147  0.0671  0.3229 -0.0413
  419W        W 4619  10.097   9.917   0.842  0.0061  0.1608 -0.1386
  420W        W 4620  10.087   4.920   4.118 -0.0492  0.0010 -0.1310
  421W        W 4621   3.890   9.473  10.532 -0.0026 -0.1662 -0.0890
  422W        W 4622   9.137   0.482  11.938  0.1962 -0.0630 -0.0974
  423W        W 4623   6.046   4.310   9.671  0.0494 -0.1549  0.1187
  424W        W 4624   5.513  10.185  10.055  0.2660  0.0552  0.1056
  425W        W 4625   5.945   9.693  12.454 -0.0306 -0.1490 -0.1350
  426W        W 4626   0.193   0.705   4.047  0.2315 -0.1307  0.0732
  427W        W 4627   8.009   6.595   0.429 -0.3921  0.1172  0.2204
  428W        W 4628  10.273   3.785  11.181  0.3997 -0.1513 -0.0482
  429W        W 4629   4.265   9.728   3.980 -0.1476 -0.1597 -0.2626
  430W        W 4630   9.255   5.032   3.954 -0.1790 -0.1144 -0.2616
  431W        W 4631   0.895   6.565   3.945  0.2860  0.1165 -0.1071
  432W        W 4632   2.556  10.227  10.555  0.2125 -0.0870 -0.1433
  433W        W 4633   9.798   4.775   9.003 -0.1669  0.1445  0.2126
  434W        W 4634   0.787   7.024   4.724  0.3491  0.0570  0.2214
  435W        W 4635   9.394   8.422  12.625 -0.2313  0.2158  0.1430
  436W        W 4636   4.405   4.365   9.483 -0.1280  0.2149 -0.0305
  437W        W 4637   9.903   2.521  13.239 -0.0711 -0.2556 -0.3548
  438W        W 4638   1.362   0.300  10.135  0.2347 -0.0638 -0.1445
  439W        W 4639   7.557   5.347  10.226  0.3449 -0.1774  0.2982
  440W        W 4640   5.111   9.971   3.547  0.0272 -0.2295 -0.0996
  441W        W 4641   7.629   5.247   2.468 -0.0169  0.1140  0.6354
  442W        W 4642   0.354   6.712   2.511  0.0045  0.3026 -0.0585
  443W        W 4643   9.294   9.230  10.840  0.1393 -0.1239 -0.0064
  444W        W 4644   4.169   0.703   4.692 -0.2946  0.0532 -0.2444
  445W        W 4645   9.446   3.618  11.607 -0.1086 -0.0837 -0.1500
  446W        W 4646   8.355   9.436  10.461  0.1596  0.0146  0.0131
  447W        W 4647  10.182   9.770   1.305 -0.0511  0.2211 -0.1051
  448W        W 4648   8.328   2.423  12.846  0.1530  0.1126  0.2574
  449W        W 4649   0.880   7.376  12.852 -0.1996  0.2931 -0.1299
  450W        W 4650   3.851   0.787   9.712  0.0194  0.2189 -0.1270
  451W        W 4651   0.391   3.135   0.865  0.0460  0.0219 -0.0446
  452W        W 4652   0.209   1.334   1.872  0.0948  0.0818  0.2673
  453W        W 4653   5.004   4.093  12.285 -0.0340  0.1107 -0.1418
  454W        W 4654   0.882   1.296  12.203 -0.1754 -0.2304 -0.0376
  455W        W 4655   8.826   4.636   1.076 -0.0205 -0.3194 -0.0577
  456W        W 4656   7.585   8.659   4.677  0.1272  0.1555 -0.2916
  457W        W 4657   6.811   9.713   9.580 -0.2261  0.2942 -0.0800
  458W        W 4658   7.025   9.935  12.091  0.0078 -0.3406  0.0161
  459W        W 4659   4.963   5.731   1.508 -0.1303 -0.0645 -0.2342
  460W        W 4660   7.119   8.616   4.434 -0.1003 -0.0517 -0.1573
  461W        W 4661   1.085   3.792   3.651  0.4611  0.0566  0.2024
  462W        W 4662   7.282   6.564   9.629 -0.4674  0.1365  0.1982
  463W        W 4663   4.391   5.887   1.412 -0.0502 -0.0381  0.3872
  464W        W 4664   2.957   4.059  11.238  0.1978 -0.0739 -0.3428
  465W        W 4665   8.346   4.190   0.079  0.0822 -0.0180 -0.1352
  466W        W 4666   7.427   2.898   9.909  0.0899 -0.0787 -0.1255
  467W        W 4667   7.647   2.080   1.797 -0.0221  0.1729 -0.1095
  468W        W 4668   2.400   7.849  12.264 -0.0457  0.0483  0.0508
  469W        W 4669   8.516   6.393  10.214  0.2375  0.1270 -0.0722
  470W        W 4670   0.756   3.724  11.218 -0.2638 -0.2912 -0.2504
  471W        W 4671   1.689   3.983   3.413  0.0965  0.0293  0.2314
  472W        W 4672   8.201   1.348   1.786 -0.0352 -0.1256 -0.1070
  473W        W 4673   4.788   5.032   4.332  0.2539  0.4479 -0.2081
  474W        W 4674   4.449   4.694  10.792  0.0521 -0.0711  0.3718
  475W        W 4675   9.711   5.810  11.514  0.0581 -0.1216 -0.0770
  476W        W 4676   9.340   6.487   2.815  0.0633  0.1266  0.2297
  477W        W 4677   8.298   0.572  10.261 -0.1309  0.2615 -0.1885
  478W        W 4678   6.252  10.392   2.115 -0.0180  0.2649  0.0560
  479W        W 4679   6.422   9.142   0.693  0.1268 -0.1008 -0.1598
  480W        W 4680   6.642   1.147   3.330 -0.0626 -0.0405 -0.1324
  481W        W 4681   3.352   4.692  13.447 -0.2742  0.0082 -0.0210
  482W        W 4682   5.023   0.645  11.996 -0.0303 -0.2437  0.0503
  483W        W 4683   1.108   4.451   1.101 -0.1746 -0.0013 -0.0949
  484W        W 4684   2.076  10.309  12.012 -0.0793 -0.2014 -0.1978
  485W        W 4685   9.767   1.172  13.060  0.2654  0.3110  0.2872
  486W        W 4686   9.356   0.812   2.857 -0.1033  0.1936  0.0594
  487W        W 4687   9.757   0.499   4.449 -0.1762 -0.0791  0.0832
  488W        W 4688   0.637  10.310  12.596  0.1113  0.1934  0.2906
  489W        W 4689   7.062   4.706  10.307  0.2667 -0.2585  0.2358
  490W        W 4690   7.087   6.561  10.179 -0.1929  0.0202  0.3249
  491W        W 4691   8.745   5.268   3.974  0.0052  0.1124  0.0604
  492W        W 4692   1.402   9.785   8.565  0.1015  0.4584  0.1529
  493W        W 4693   5.969   2.900   4.086  0.1038 -0.0054 -0.1768
  494W        W 4694   6.139   1.593   3.579  0.1135  0.1228 -0.0020
  495W        W 4695   7.367   2.663  13.302 -0.1476 -0.0773  0.0056
  496W        W 4696   9.747   1.122   0.521  0.2375 -0.0903  0.0830
  497W        W 4697   5.052   0.675   3.583  0.2434  0.0026 -0.1917
  498W        W 4698   4.021   5.746  12.585  0.2367  0.2014 -0.2128
  499W        W 4699  10.440   7.420   0.794  0.4166 -0.0006  0.1201
  500W        W 4700  10.126   7.837  12.036  0.1828 -0.0193  0.1463
  501W        W 4701   9.101   9.391   4.816  0.0216  0.3086  0.1990
  502W        W 4702   9.084   8.833   3.434 -0.0058 -0.2502  0.1907
  503W        W 4703   8.674   2.299  12.535  0.4028  0.0323  0.2615
  504W        W 4704   9.316   7.346   2.545 -0.2090  0.0097  0.2624
  505W        W 4705   8.354   6.907   3.686  0.0096 -0.1803  0.2024
  506W        W 4706   8.955   7.302   2.907 -0.0771 -0.1265 -0.0272
  507W        W 4707   3.700   1.495   0.060 -0.0275 -0.2001  0.3002
  508W        W 4708   8.668   3.290  12.221  0.1780  0.2747  0.1945
  509W        W 4709   6.385   9.236   8.410  0.0661 -0.2216 -0.2492
  510W        W 4710   5.669   1.958   4.732  0.2357 -0.2538  0.0836
  511W        W 4711   9.264   3.241   2.919  0.1061 -0.3025  0.1525
  512W        W 4712   0.322   5.086   1.872 -0.1348 -0.1182 -0.1142
  513W        W 4713   6.593   4.711   1.929 -0.0954  0.0574 -0.1330
  514W        W 4714   9.138   1.460  13.177 -0.0190  0.0062  0.1574
  515W        W 4715   2.792   2.482  13.365  0.1525 -0.1436  0.0611
  516W        W 4716   3.996   2.935  11.086 -0.1043 -0.1081  0.1953
  517W        W 4717   6.743   8.838   2.313 -0.1001  0.0756  0.1426
  518W        W 4718   7.734   2.453   4.339  0.1571 -0.2167 -0.2087
  519W        W 4719   2.294   9.134   1.057  0.1847  0.2122 -0.1695
  520W        W 4720   2.662   4.564   0.547  0.0317  0.0626  0.1215
  521W        W 4721   5.516   8.288   0.643 -0.2006  0.0276 -0.0802
  522W        W 4722   7.095   1.518   4.881  0.0209  0.0844 -0.1640
  523W        W 4723   9.047   6.366   8.256 -0.1403  0.2291  0.0372
  524W        W 4724   0.044   6.129  12.703 -0.1419 -0.0122 -0.1905
  525W        W 4725   9.225   2.787  10.966 -0.2198  0.1406 -0.0835
  526W        W 4726   2.855   9.667   1.445 -0.2350  0.0339  0.0724
  527W        W 4727   2.282   8.523   1.671  0.0170 -0.4987  0.1015
  528W        W 4728   6.212   8.456   4.722 -0.1653  0.2954  0.0009
  529W        W 4729   0.695   3.888   9.130  0.1908  0.1924 -0.3411
  530W        W 4730   2.217   9.069  11.224  0.1403 -0.0504 -0.0388
  531W        W 4731   0.579   5.690  11.145 -0.3401 -0.2255 -0.3613
  532W        W 4732   4.948   9.485   3.399 -0.1261  0.2382  0.1152
  533W        W 4733   0.136   6.592   1.973 -0.2447  0.0597  0.1858
  534W        W 4734   2.954   0.650  10.042 -0.0110 -0.0688  0.0825
  535W        W 4735   6.708   9.894   3.792 -0.0884 -0.0677  0.3112
  536W        W 4736   7.603   3.629  10.162 -0.0414 -0.1557 -0.0635
  537W        W 4737   4.753   4.517   2.632 -0.1474 -0.0918 -0.0167
  538W        W 4738   8.783   4.616   2.135 -0.0083  0.5719  0.2289
  539W        W 4739   4.460   9.121  10.789  0.1387 -0.1704 -0.3184
  540W        W 4740   3.846  10.400   4.140 -0.2924  0.2683 -0.0980
  541W        W 4741   3.434   0.960  12.681  0.4109 -0.2181 -0.0264
  542W        W 4742  10.443   5.017  12.483  0.1035 -0.0727  0.0947
  543W        W 4743   7.765   8.300   0.507 -0.4443  0.1393 -0.0714
  544W        W 4744   0.163   2.164  10.039 -0.3518 -0.0232  0.0949
  545W        W 4745   2.323   4.249  10.619 -0.0748  0.0378  0.2123
  546W        W 4746   3.741   5.946  10.895  0.0240 -0.0525  0.2822
  547W        W 4747   3.082   1.849  11.885 -0.1900  0.2030  0.1941
  548W        W 4748   9.669   6.789   9.000 -0.3899 -0.1417 -0.1584
  549W        W 4749   9.886   8.442   9.932  0.2664  0.1060 -0.1550
  550W        W 4750   6.931   5.532   1.080  0.1552 -0.0741  0.1129
  551W        W 4751   5.056   5.945   3.853 -0.3249  0.2426 -0.1380
  552W        W 4752  10.012   7.866  12.837 -0.0452  0.1644 -0.3495
  553W        W 4753   7.819   7.566   2.897 -0.1923  0.0657 -0.1557
  554W        W 4754   7.294   4.347   3.517 -0.3864  0.1850  0.1901
  555W        W 4755   1.338   6.278   0.215  0.1108 -0.2580  0.0029
  556W        W 4756   4.930   8.026   0.070 -0.0126 -0.0964 -0.3810
  557W        W 4757  10.117   6.576   1.660  0.0305  0.0757  0.2680
  558W        W 4758   0.698   3.603  13.130 -0.2983  0.2729  0.0373
  559W        W 4759   9.641   1.429   1.467  0.1842  0.0026 -0.0226
  560W        W 4760   0.628   3.956   3.604 -0.0391 -0.4925  0.1940
  561W        W 4761   4.309   9.727   9.686  0.0121  0.5021  0.2329
  562W        W 4762   6.598   6.898   3.373  0.4736  0.0471 -0.1520
  563W        W 4763   0.907   6.470   4.433 -0.3696  0.0448  0.2996
  564W        W 4764   3.804   2.565   2.986 -0.1793 -0.1568 -0.0793
  565W        W 4765   3.519   3.020   0.076 -0.1527 -0.0322  0.0421
  566W        W 4766   6.730   8.020   1.913 -0.1407 -0.1545 -0.1132
  567W        W 4767   5.861   7.635   4.025  0.2080  0.1197  0.3091
  568W        W 4768   4.809   8.891   2.871 -0.1227 -0.0189 -0.0417
  569W        W 4769   3.202   0.306   3.504  0.0431 -0.0836 -0.0325
  570W        W 4770   2.946  10.443   9.685  0.1666 -0.0298  0.4574
  571W        W 4771   7.231  10.050  10.320 -0.1787  0.0681  0.2546
  572W        W 4772   3.741   9.910  11.676 -0.0906 -0.3394 -0.1413
  573W        W 4773   3.213   7.797   2.730  0.2349  0.3141  0.3620
  574W        W 4774   6.780   2.312   0.629 -0.2649 -0.0104  0.0865
  575W        W 4775   2.188   4.849  11.810 -0.0951 -0.1039 -0.2064
  576W        W 4776   8.900   1.585   4.545  0.2360  0.2523 -0.2371
  577W        W 4777   8.100   0.036   2.817  0.2712 -0.2003 -0.0135
  578W        W 4778   0.270   3.131   0.377  0.3619  0.2016  0.1611
  579W        W 4779   1.161   8.362   1.587  0.2884 -0.1530  0.0610
  580W        W 4780   1.133   7.501   1.594 -0.0330 -0.1394 -0.1522
  581W        W 4781   7.987   7.407  12.027 -0.0623 -0.0214 -0.0193
  582W        W 4782   0.044   8.625   4.003 -0.1953 -0.3806 -0.2194
  583W        W 4783   1.023   2.640   2.831 -0.0788  0.1905  0.1246
  584W        W 4784   6.677   0.751  12.725  0.1575 -0.2769 -0.1820
  585W        W 4785   3.026   3.543   3.991  0.1922  0.0198  0.0132
  586W        W 4786   4.174   5.021   4.319 -0.3229 -0.0499  0.2017
  587W        W 4787   7.992   1.121  11.013 -0.2861 -0.1625  0.1393
  588W        W 4788   0.457   0.040   8.673  0.0174  0.4856 -0.0943
  589W        W 4789   8.291   8.118   3.360  0.0363  0.1481  0.1481
  590W        W 4790   9.421   8.177   2.216 -0.1057  0.1781 -0.1775
  591W        W 4791   0.008   3.073   1.416 -0.1803  0.0268 -0.0274
  592W        W 4792   4.025   8.403   2.489  0.0298  0.0170  0.0908
  593W        W 4793   1.916   4.187   0.865  0.0788  0.0267 -0.4535
  594W        W 4794   2.359  10.190   3.305 -0.2385 -0.0878  0.0767
  595W        W 4795   4.019   9.097   2.158  0.2143 -0.1889 -0.1819
  596W        W 4796   4.791   3.875  11.874 -0.4404  0.0045 -0.3889
  597W        W 4797   4.947   3.132   3.501  0.1464 -0.0910  0.1915
  598W        W 4798   7.816   8.855   2.745 -0.2265  0.1533 -0.0815
  599W        W 4799   4.609  10.276   0.501 -0.0105 -0.2924 -0.0123
  600W        W 4800   8.304  10.383   3.267 -0.1360  0.1774  0.2354
  601W        W 4801   5.948   6.868  13.033  0.1761  0.0421  0.0960
  602W        W 4802   1.254   9.424   8.901  0.0794  0.2089  0.0823
  603W        W 4803   0.698  10.437   1.374 -0.0340 -0.0659 -0.1281
  604W        W 4804   5.323   4.828   9.248 -0.0813 -0.0011  0.1635
  605W        W 4805   3.695   6.087   2.889  0.4690  0.2150 -0.1784
  606W        W 4806   7.556   4.453  10.523 -0.2652  0.2099 -0.0093
  607W        W 4807   9.159   1.163   1.695 -0.3457 -0.0316  0.4658
  608W        W 4808   6.077   3.413  10.414  0.3768 -0.1290 -0.0105
  609W        W 4809   2.527   2.890  13.236  0.1395 -0.3696 -0.0819
  610W        W 4810   0.361   1.651   0.357 -0.1073  0.0954 -0.1818
  611W        W 4811   9.246   1.600  12.215 -0.0131  0.0017 -0.3066
  612W        W 4812   7.932   3.260  11.227  0.0431 -0.2017  0.3961
  613W        W 4813   3.815   7.756  12.913  0.0807 -0.1005  0.1381
  614W        W 4814   5.298   8.186   9.528 -0.0690 -0.2504 -0.3281
  615W        W 4815   4.961   9.048   3.771 -0.0993 -0.0394  0.1410
  616W        W 4816   9.492   9.922  10.783  0.1633 -0.0732 -0.2762
  617W        W 4817   1.764   9.145  11.133  0.2942  0.0433  0.2828
  618W        W 4818   0.911   3.123   3.413  0.1899 -0.1926 -0.1719
  619W        W 4819   5.847   6.474  10.726  0.3280  0.1691 -0.3207
  620W        W 4820   3.516   2.380   9.793 -0.0854 -0.2535 -0.2411
  621W        W 4821   7.777   6.102  13.187  0.2452  0.3012 -0.0804
  622W        W 4822   5.650   6.726   1.177  0.0020  0.0071 -0.1464
  623W        W 4823   8.653   5.268   0.335  0.5414  0.1448  0.0300
  624W        W 4824  10.386   3.065   3.016  0.1384  0.3635 -0.3889
  625W        W 4825   1.146   5.920   9.343 -0.1491 -0.0828 -0.1216
  626W        W 4826   0.840   2.388   3.582 -0.0386  0.1775 -0.1488
  627W        W 4827   7.908   6.449   4.437  0.0204  0.2809  0.3450
  628W        W 4828   7.857   2.674   9.646 -0.0384  0.2503  0.2142
  629W        W 4829   8.899   5.456   2.187 -0.0337  0.0583  0.1275
  630W        W 4830   2.836   8.434   2.549 -0.1045 -0.3218 -0.1574
  631W        W 4831   4.610   6.399   2.818  0.1489  0.3367 -0.2448
  632W        W 4832   4.514   1.718   9.240  0.2594  0.0517 -0.1398
  633W        W 4833   3.898   8.241  12.805 -0.3350  0.4526 -0.2474
  634W        W 4834   8.020   5.487   2.119  0.1525 -0.1547 -0.0420
  635W        W 4835   2.797   3.406   3.595  0.0590  0.0358  0.1917
  636W        W 4836   7.423   2.016   2.268 -0.2858 -0.2500 -0.1745
  637W        W 4837   2.181   9.617   2.538 -0.1463  0.0285 -0.1396
  638W        W 4838   2.612  10.182   0.862  0.0747  0.0853  0.0954
  639W        W 4839   4.537   9.346   0.801 -0.3051 -0.1857  0.2017
  640W        W 4840   9.359   5.577  11.119 -0.3258  0.0344  0.0476
  641W        W 4841   4.499   3.618  11.560 -0.3080  0.0107 -0.1727
  642W        W 4842   1.009   7.350   3.329 -0.2307 -0.0071 -0.0515
  643W        W 4843  10.035   3.139  12.442  0.1648 -0.1662 -0.0280
  644W        W 4844   0.817   4.187  10.519  0.4455 -0.1889 -0.1346
  645W        W 4845   2.762   0.020   2.224  0.0336  0.0065  0.0643
  646W        W 4846   5.168   0.232   3.763  0.4201  0.0863  0.1631
  647W        W 4847   3.915   2.055   0.938 -0.2017 -0.1486  0.0071
  648W        W 4848   0.245   0.613   3.247 -0.1172 -0.1028 -0.1524
  649W        W 4849   7.443   7.568   9.115  0.2878  0.0196  0.3642
  650W        W 4850   7.484   0.030  12.736 -0.0266 -0.0115 -0.1066
  651W        W 4851   7.947   0.417  12.618 -0.0767 -0.0967  0.1724
  652W        W 4852   8.983   9.977  11.533 -0.0312  0.3932  0.3161
  653W        W 4853   1.530   8.102  11.987  0.0086 -0.3138  0.0442
  654W        W 4854   1.352   0.618   3.967  0.2078  0.2376 -0.2364
  655W        W 4855   8.599   9.447   8.207 -0.0293 -0.1284 -0.2010
  656W        W 4856   8.230   3.497   9.149  0.0383  0.0373 -0.2507
  657W        W 4857   8.084   2.244  10.485 -0.0229  0.0021 -0.3527
  658W        W 4858   1.620   0.864   1.735  0.1912 -0.1076  0.3496
  659W        W 4859   4.876   8.139   2.983 -0.2256  0.1082 -0.1518
  660W        W 4860   8.259   3.918   9.656  0.2899 -0.0197  0.0779
  661W        W 4861   5.294   9.443   3.736  0.0598  0.0509 -0.0252
  662W        W 4862   7.086   3.540   4.638  0.0586  0.1921 -0.4337
  663W        W 4863   9.184   2.550  12.148 -0.0900  0.1163  0.5195
  664W        W 4864  10.408   8.494  10.184 -0.2677  0.2194  0.0682
  665W        W 4865   6.198   1.289   4.989 -0.1998 -0.0658 -0.0426
  666W        W 4866   7.536   6.911  11.931 -0.1464  0.0192 -0.3854
  667W        W 4867   0.613   2.750   3.331  0.2049  0.2451  0.2831
  668W        W 4868   7.065   5.864   5.262  0.3373 -0.0347  0.1643
  669W        W 4869   6.540   8.233   9.659 -0.3709 -0.2774  0.3153
  670W        W 4870   8.924   0.836   1.362 -0.0678 -0.1037  0.1786
  671W        W 4871   7.216   0.960  10.375  0.1045  0.0340 -0.1129
  672W        W 4872   7.530   1.907   9.076  0.0089  0.0321  0.0498
  673W        W 4873   1.923   7.800  10.564  0.1366 -0.1524  0.0238
  674W        W 4874   5.593   1.979   1.924  0.0631  0.0772 -0.2484
  675W        W 4875   6.487   5.377   8.352  0.2831  0.2296  0.1758
  676W        W 4876   1.982   5.832   3.001 -0.1567 -0.0086 -0.0614
  677W        W 4877  10.059   8.909  12.062 -0.1300 -0.3369 -0.1047
  678W        W 4878   3.022   8.256   2.947 -0.2693 -0.1659 -0.0435
  679W        W 4879   5.548   3.651   4.955  0.2714  0.2945  0.2078
  680W        W 4880   9.781   1.274   9.037  0.2954  0.1253 -0.0598
  681W        W 4881   2.436   6.680   9.531  0.3327 -0.2033  0.0073
  682W        W 4882   6.240   9.795   4.096  0.2278 -0.0239  0.0309
  683W        W 4883   2.459   0.309   2.002  0.0239  0.0158 -0.0916
  684W        W 4884  10.252   5.965   2.627  0.0392 -0.3782  0.0983
  685W        W 4885   7.903   0.649   2.251 -0.2163 -0.2667 -0.3601
  686W        W 4886   7.245  10.113   9.277 -0.2252  0.1329 -0.1460
  687W        W 4887   4.531   8.393   2.255  0.0212  0.0355 -0.0525
  688W        W 4888   7.704   4.691   2.523 -0.0215 -0.1738 -0.0713
  689W        W 4889   8.137   3.465   4.191 -0.0138 -0.0260  0.1441
  690W        W 4890   8.271   0.377  10.719  0.1788 -0.1435 -0.3443
  691W        W 4891   7.042  10.419   0.845  0.1922  0.3333  0.1976
  692W        W 4892   1.477   3.835  12.494  0.1511  0.1819 -0.2735
  693W        W 4893   5.247   9.776   1.240  0.1291 -0.0561  0.0660
  694W        W 4894   7.792   7.581   1.687 -0.1949  0.1404  0.0498
  695W        W 4895   3.331   6.683   2.101 -0.0530  0.2107  0.1200
  696W        W 4896   6.408   3.363  11.260  0.0572 -0.3627 -0.3108
  697W        W 4897   0.173   3.570   0.613 -0.0524  0.0416  0.0631
  698W        W 4898   8.562   9.089   9.742  0.2141  0.1086  0.1312
  699W        W 4899   5.486   1.539   2.533  0.0800 -0.0457  0.2440
  700W        W 4900   7.436   8.686   1.775 -0.0568  0.0771 -0.2018
  701W        W 4901   3.455   3.931   0.158 -0.1498 -0.1642 -0.1139
  702W        W 4902   9.902   2.538   9.365  0.1696  0.1728  0.1109
  703W        W 4903   6.821   4.092  12.351 -0.0569  0.0459  0.1928
  704W        W 4904   5.632   6.213   2.109  0.1958 -0.0385 -0.2828
  705W        W 4905   0.121   0.997   3.600 -0.1530 -0.3057 -0.0335
  706W        W 4906   5.155  10.046   1.719  0.1633  0.0783  0.5323
  707W        W 4907   3.198   3.194  11.766  0.0578  0.2088 -0.0736
  708W        W 4908   9.469   8.402   4.112 -0.0197  0.0239 -0.0683
  709W        W 4909   3.983   0.956   0.934 -0.0400  0.0177  0.0343
  710W        W 4910   6.973   2.466  13.094  0.0779  0.2702 -0.0742
  711W        W 4911   8.832   7.913  10.168  0.2210 -0.1344 -0.1846
  712W        W 4912   7.535   5.931  11.429 -0.0700  0.1322  0.1355
  713W        W 4913   4.493   4.114   1.580  0.1304 -0.1081 -0.0266
  714W        W 4914   8.514   0.721   0.134 -0.2331 -0.1190  0.0429
  715W        W 4915   5.011   0.157   3.221 -0.2523  0.1522  0.0177
  716W        W 4916   6.368   2.339   2.766  0.0811 -0.3652 -0.1076
  717W        W 4917  10.256   2.598   2.201  0.0454 -0.0686 -0.1910
  718W        W 4918   7.417   5.209   1.094 -0.1880 -0.3333  0.1709
  719W        W 4919   1.430   6.335  12.283  0.0059  0.0491  0.0086
  720W        W 4920   1.382   1.373   9.516  0.0655 -0.1703 -0.3517
  721W        W 4921   7.598   9.614  12.850 -0.2319  0.0418 -0.0672
  722W        W 4922   0.239   9.103   9.252  0.0289  0.1247 -0.2874
  723W        W 4923   5.476   6.942  12.320 -0.0270  0.0107 -0.3071
  724W        W 4924   9.743   0.877   9.748 -0.2004  0.0383  0.2949
  725W        W 4925   6.585   4.202  12.789  0.0422  0.0470  0.2549
  726W        W 4926   3.891   6.271   9.873 -0.0094  0.3725 -0.1358
  727W        W 4927   5.735   9.534  11.941 -0.1174 -0.1676  0.1325
  728W        W 4928   0.536   3.980  12.814  0.0570  0.4604 -0.3908
  729W        W 4929   7.671   1.965   4.525  0.2196  0.1216  0.2380
  730W        W 4930   0.171   3.016  10.878 -0.0907  0.2327  0.0346
  731W        W 4931   4.486   8.550   1.130 -0.0674  0.0174 -0.0947
  732W        W 4932   0.667   0.341   0.701 -0.2149 -0.1640  0.0698
  733W        W 4933  10.173   9.223  10.936 -0.1025 -0.0319  0.1315
  734W        W 4934   7.903   4.781   2.949  0.1394 -0.1150 -0.0860
  735W        W 4935   5.679   1.333  11.469  0.2353 -0.0826 -0.1399
  736W        W 4936   0.057   5.433   0.767 -0.2195 -0.3246 -0.1511
  737W        W 4937   2.434   5.549   2.748 -0.1008 -0.1971 -0.1494
  738W        W 4938   7.113   4.727  12.837 -0.3345  0.2256 -0.0571
  739W        W 4939   0.750   7.544   1.258  0.2046 -0.0542  0.1853
  740W        W 4940   4.684   3.296   1.309  0.1471  0.3921 -0.1529
  741W        W 4941   3.087   0.764   2.332  0.1275 -0.0144 -0.0947
  742W        W 4942   6.255   8.245   1.122 -0.0541  0.0364 -0.0126
  743W        W 4943   6.381   9.657   2.739 -0.4161 -0.0709 -0.0276
  744W        W 4944   2.716   5.323  12.674  0.0986 -0.2268  0.2328
  745W        W 4945   3.717   9.234   8.967  0.4597  0.0300 -0.0738
  746W        W 4946  10.184  10.365   0.293  0.2815 -0.2230  0.1562
  747W        W 4947   2.294   3.361   9.557  0.1082  0.0726 -0.0924
  748W        W 4948   2.960   4.401  12.259 -0.1134 -0.0750  0.0339
  749W        W 4949   2.142  10.351   3.706 -0.0387  0.2247  0.2007
  750W        W 4950   1.533   5.657   3.078  0.2611  0.0665  0.0908
  751W        W 4951   8.542   3.037  11.718 -0.1685  0.1235  0.0536
  752W        W 4952   5.617   7.174   0.946 -0.1662 -0.2040  0.0510
  753W        W 4953   2.631   3.060   2.763 -0.0837  0.0395  0.0650
  754W        W 4954   4.219   1.428  12.618 -0.3611  0.4563  0.1605
  755W        W 4955   2.725   3.423  11.850 -0.2010 -0.2115 -0.0797
  756W        W 4956   6.246   8.786   2.450  0.0741  0.0713 -0.1504
  757W        W 4957   0.299   6.397  12.241 -0.2095 -0.1403  0.2667
  758W        W 4958   1.830   8.678   0.393 -0.0673 -0.1924 -0.0694
  759W        W 4959   5.588   2.797   0.328 -0.1421 -0.0364 -0.2237
  760W        W 4960   7.736   2.728  12.074 -0.3527 -0.0266 -0.3437
  761W        W 4961   0.996   9.636  12.145 -0.1889  0.1506 -0.1410
  762W        W 4962   4.175   1.344   9.224  0.0968  0.1005 -0.0492
  763W        W 4963   4.193   5.605  12.090  0.0678 -0.0899  0.0316
  764W        W 4964   3.686   9.861   0.459 -0.0622 -0.0433  0.0598
  765W        W 4965   4.325   1.830   3.416  0.0082  0.1031  0.0747
  766W        W 4966   4.973   0.754  13.371 -0.0180 -0.0362 -0.0978
  767W        W 4967   3.463   0.110   9.449 -0.2728 -0.1249  0.0120
  768W        W 4968  10.251   2.715  12.606 -0.1308 -0.2270 -0.1137
  769W        W 4969   9.078   4.294  11.271  0.0016 -0.2185  0.2820
  770W        W 4970   1.385   9.437  12.429 -0.1032 -0.0417 -0.0363
  771W        W 4971   0.293   8.609  10.858 -0.1144 -0.0047  0.0021
  772W        W 4972  10.109   6.357   0.777 -0.1410  0.0295  0.0987
  773W        W 4973   7.430   6.075   2.589 -0.2246 -0.1432  0.0109
  774W        W 4974   4.889   6.352  10.388  0.1690 -0.3676 -0.1075
  775W        W 4975   6.232   6.575  11.053  0.0561 -0.1595  0.1203
  776W        W 4976   7.998   8.566   8.793  0.0856  0.0861 -0.0253
  777W        W 4977   1.201   9.785  10.867 -0.1196  0.2057 -0.3349
  778W        W 4978   9.255   3.232   0.055  0.0192 -0.0251  0.1141
  779W        W 4979   7.703   5.278   0.691  0.0102  0.1659 -0.2261
  780W        W 4980   8.927   1.470  12.613 -0.0349  0.0048  0.1034
  781W        W 4981   8.969   5.269   3.470 -0.1634 -0.0281 -0.0483
  782W        W 4982   9.190   2.464  11.524 -0.0573 -0.2625  0.0722
  783W        W 4983   0.259   8.515   1.208  0.0120 -0.0379  0.0125
  784W        W 4984   7.517   8.403   2.805 -0.0263 -0.1449 -0.2530
  785W        W 4985   9.571   1.322   9.933  0.0512  0.2205  0.0311
  786W        W 4986   2.471   5.325   1.476  0.4173  0.2159 -0.3324
  787W        W 4987   1.774   6.783   3.997  0.1184 -0.1418  0.0529
  788W        W 4988   3.012   2.611  12.540 -0.0755 -0.0543 -0.2208
  789W        W 4989   2.701   5.459  13.179 -0.1403  0.3230 -0.0956
  790W        W 4990   0.489   6.574  11.761  0.2820 -0.1407 -0.3701
  791W        W 4991   8.117   9.678  12.966 -0.2388  0.1702  0.4055
  792W        W 4992   3.677   5.727   2.568 -0.1580  0.1174  0.3938
  793W        W 4993   8.558   7.529  10.052  0.0649 -0.0111 -0.0811
  794W        W 4994   1.277   4.219   0.190 -0.0745 -0.0246  0.1351
  795W        W 4995   9.501  10.080  13.088 -0.1107 -0.1133 -0.0081
  796W        W 4996   1.065   0.853   9.051 -0.0638 -0.0646 -0.2015
  797W        W 4997   8.370  10.360   4.458  0.3994  0.3145 -0.0242
  798W        W 4998   2.084   9.545   1.205 -0.0678  0.1810 -0.0405
  799W        W 4999   8.710  10.358   0.285  0.1928  0.0605 -0.2354
  800W        W 5000   0.475   9.645   3.551  0.3273  0.2962 -0.1037
  801W        W 5001   5.460   5.632  12.288  0.2383  0.0745 -0.0722
  802W        W 5002   4.349   0.650   0.604 -0.0099  0.0434  0.1213
  803W        W 5003   3.212   2.026   4.253 -0.0256  0.0340 -0.0732
  804W        W 5004   3.948   9.385   9.909  0.4575  0.1104 -0.0499
  805W        W 5005   0.023   1.825   1.683 -0.2145 -0.0957  0.1339
  806W        W 5006   1.334  10.101   5.188 -0.1249 -0.0256 -0.1853
  807W        W 5007   3.816   3.551  10.925  0.0969  0.0036 -0.0288
  808W        W 5008   9.836   3.897   2.781  0.1683  0.3122  0.1460
  809W        W 5009   6.224   9.489   0.054 -0.1462 -0.2920 -0.2998
  810W        W 5010   9.605   6.429   0.482  0.2063 -0.3303 -0.0189
  811W        W 5011   1.531   8.103   3.031  0.1267 -0.0647  0.3625
  812W        W 5012   0.109   0.220   9.485  0.0650 -0.1030  0.0815
  813W        W 5013   8.353   0.638   4.110 -0.1095  0.2632  0.1334
  814W        W 5014   9.816   2.196   3.324 -0.2187 -0.1556  0.1928
  815W        W 5015   5.532   5.648  13.113  0.3677 -0.2027 -0.1645
  816W        W 5016  10.086   6.119  12.875 -0.0444 -0.1918  0.0444
  817W        W 5017   4.266   8.573  11.596 -0.1505 -0.4905 -0.2337
  818W        W 5018   2.872   2.138  12.748 -0.2359  0.0442  0.2521
  819W        W 5019   8.108   6.305   1.737 -0.1210 -0.0489 -0.5631
  820W        W 5020   8.394   1.044   3.749  0.0551  0.0978  0.2245
  821W        W 5021   6.885   1.338   9.459  0.0872 -0.1274  0.2609
  822W        W 5022   9.534   1.853   2.940 -0.0008  0.0747 -0.0385
  823W        W 5023   9.347   8.698   2.487  0.4151 -0.1894  0.1889
  824W        W 5024   8.408   3.263   8.171  0.3373  0.1113 -0.1765
  825W        W 5025   4.994   8.504  13.178 -0.0667 -0.0017 -0.1970
  826W        W 5026   3.522   8.561  13.106 -0.3073  0.1309 -0.2322
  827W        W 5027   2.464   9.882  10.145  0.1412  0.1334  0.1313
  828W        W 5028   3.619   0.722   5.202 -0.2044  0.0701 -0.0727
  829W        W 5029   6.190   3.555   9.440 -0.2878  0.0937  0.2270
  830W        W 5030  10.207   1.166   2.805  0.2410  0.2091 -0.0321
  831W        W 5031   0.399   9.140   1.359 -0.1379 -0.2256  0.1002
  832W        W 5032   0.881   2.889   0.778  0.1804  0.0955 -0.0995
  833W        W 5033   5.003   5.785  12.174 -0.1314 -0.2686 -0.1121
  834W        W 5034   4.869   3.564  12.335 -0.1683  0.0804 -0.0698
  835W        W 5035   8.768   2.611  11.906 -0.0080  0.2984 -0.2270
  836W        W 5036   5.615   6.425  11.667  0.1084  0.2537 -0.0016
  837W        W 5037   5.104   3.982  13.117 -0.2582 -0.1543  0.1676
  838W        W 5038   9.804   1.151  10.547 -0.0235 -0.1639 -0.2239
  839W        W 5039   9.287   5.164   4.810 -0.2662  0.1832  0.2109
  840W        W 5040   8.767   0.085   3.503 -0.1135 -0.0769 -0.1206
  841W        W 5041   4.895   3.979   0.524 -0.2713  0.0854 -0.2740
  842W        W 5042   9.465   0.048   2.179 -0.2613  0.0086 -0.1260
  843W        W 5043   8.572   9.605   9.841 -0.3804  0.4319 -0.3037
  844W        W 5044   1.296   3.716   9.657 -0.0899  0.0525  0.0852
  845W        W 5045   8.092  10.088   4.099  0.2196 -0.1942 -0.1062
  846W        W 5046   6.946   8.773  11.760  0.1598  0.0714  0.0767
  847W        W 5047   4.838   4.194   4.439 -0.3155  0.1146 -0.0789
  848W        W 5048   5.267   4.957   1.479  0.2131  0.0795 -0.0803
  849W        W 5049   8.501   3.521  11.643 -0.1129 -0.3849  0.0772
  850W        W 5050   2.224   7.244   9.980 -0.1130 -0.0245  0.0373
  851W        W 5051  10.184  10.025  12.145 -0.0209  0.2365  0.1841
  852W        W 5052   2.972  10.458  12.616  0.5299 -0.2353  0.0857
  853W        W 5053   0.011   5.293   8.379  0.0150  0.0012  0.3192
  854W        W 5054   9.835   2.786  10.255  0.0304  0.3237  0.1306
  855W        W 5055   2.456   7.109   0.242  0.1697 -0.0348  0.0482
  856W        W 5056   1.913   3.340   0.865  0.1572  0.2970 -0.3209
  857W        W 5057   0.828   4.225   2.084  0.3965  0.0982 -0.1143
  858W        W 5058   0.181  10.229   4.243  0.2293  0.1415 -0.1323
  859W        W 5059   3.610   7.988  11.829  0.0373  0.0406 -0.0092
  860W        W 5060   3.928   6.892  13.207  0.3996  0.0267  0.0181
  861W        W 5061   8.038   6.740  12.613 -0.1601  0.1066 -0.1510
  862W        W 5062   1.517   7.246  12.147 -0.0746  0.0775 -0.0337
  863W        W 5063   4.528   0.389  12.735 -0.3667 -0.2587 -0.1612
  864W        W 5064   9.050   1.957  13.299  0.0593 -0.1827  0.1737
  865W        W 5065   6.086   6.313  11.460  0.2102  0.0194 -0.0842
  866W        W 5066   7.964   3.026  10.033 -0.0714  0.1246 -0.1193
  867W        W 5067   7.734   3.750   4.068  0.2670  0.2783 -0.2048
  868W        W 5068   8.499   6.622   3.261  0.2146 -0.0176  0.1606
  869W        W 5069   8.090   2.044   3.592  0.2544 -0.4982  0.1049
  870W        W 5070   0.972   0.349  12.558  0.3959  0.0332  0.4333
  871W        W 5071   5.249  10.426  12.778 -0.1230  0.2252 -0.0846
  872W        W 5072   9.939   3.692  11.563 -0.2278  0.1383 -0.0475
  873W        W 5073   1.672   5.781  11.415  0.0192 -0.0422 -0.3354
  874W        W 5074   5.338   9.558   2.485 -0.0670 -0.0525 -0.0670
  875W        W 5075   1.476   4.761   2.515 -0.2654 -0.3539 -0.1723
  876W        W 5076   8.565   4.972   3.586  0.1577 -0.0034 -0.1438
  877W        W 5077   4.338   2.357   2.140 -0.1056 -0.1640  0.2147
  878W        W 5078   3.786   6.930  11.684  0.0221  0.2408  0.0478
  879W        W 5079   6.007   4.815   0.837  0.2635  0.1344 -0.3576
  880W        W 5080   9.821   5.775   9.827  0.0619 -0.2870  0.2938
  881W        W 5081   0.614   7.360   4.273 -0.1976  0.1405  0.4010
  882W        W 5082   2.656   8.975   1.745  0.0781  0.2498  0.0608
  883W        W 5083   4.043   7.315   1.589 -0.0028 -0.2131 -0.0169
  884W        W 5084   4.976   4.618   4.172 -0.1144  0.0641  0.4428
  885W        W 5085   9.281   7.328   2.009 -0.0383  0.0499  0.3128
  886W        W 5086   7.530   8.818   4.174  0.0209  0.2321  0.4319
  887W        W 5087   4.311   7.985   2.664  0.1920 -0.3491  0.1149
  888W        W 5088   8.917   7.803  13.166 -0.3694  0.1313  0.0003
  889W        W 5089   1.599   2.929  13.031  0.1560 -0.5860 -0.2074
  890W        W 5090   2.213   6.217   1.232 -0.0643 -0.0485 -0.0000
  891W        W 5091   9.158   2.957  11.842 -0.0925  0.0184 -0.0253
  892W        W 5092   0.055   7.913   2.404  0.0479 -0.1363 -0.0569
  893W        W 5093   4.211   9.923   3.209  0.4651 -0.0273  0.4029
  894W        W 5094   7.944   6.235   2.866 -0.0140  0.2698 -0.0250
  895W        W 5095   8.579   2.556   0.467 -0.1220  0.2151  0.1895
  896W        W 5096   4.695   3.511   0.524 -0.2027  0.0495  0.2037
  897W        W 5097  10.017   8.378   4.112 -0.0217  0.1729 -0.3480
  898W        W 5098   1.973   3.683  11.260  0.3613 -0.1208 -0.1089
  899W        W 5099  10.218   4.301   2.747  0.0548 -0.1377 -0.0542
  900W        W 5100   6.760   0.818   9.678 -0.1799 -0.0455  0.0460
  901W        W 5101   4.940   1.790   8.989  0.1097 -0.0223  0.0007
  902W        W 5102   5.979   6.804  12.363 -0.3354 -0.1669  0.0760
  903W        W 5103   4.407   7.758  11.814  0.0135  0.2449  0.2406
  904W        W 5104   4.902   0.174   0.792  0.0155 -0.0215 -0.2105
  905W        W 5105   9.317   7.946   3.565 -0.0780  0.0096  0.1394
  906W        W 5106   3.548   6.273   0.641  0.2008 -0.0641 -0.0917
  907W        W 5107   8.261   2.499  12.034 -0.2970 -0.3210  0.3743
  908W        W 5108   8.078   3.523   9.904 -0.1723  0.0432  0.2338
  909W        W 5109   1.965   8.476  10.087  0.1226 -0.0497 -0.0193
  910W        W 5110   7.200   9.457   3.090 -0.1083  0.0757 -0.1169
  911W        W 5111   8.058   4.134   4.058 -0.1622  0.1115  0.1214
  912W        W 5112   1.898   2.845   1.126  0.0314  0.3188 -0.0570
  913W        W 5113  10.201   0.926   3.833 -0.1249  0.1599  0.1403
  914W        W 5114   1.517   6.619  12.773 -0.0294 -0.0254  0.1040
  915W        W 5115   9.169   4.202   1.390 -0.1431 -0.2792  0.5252
  916W        W 5116   0.573   5.642   2.123  0.3228 -0.1360  0.1415
  917W        W 5117   8.194   0.745   1.755  0.0582  0.2084  0.0370
  918W        W 5118   1.182   2.656   3.307  0.1723  0.0751 -0.0576
  919W        W 5119   8.309   2.022  13.192 -0.0863  0.0108 -0.2020
  920W        W 5120   8.438   7.659   0.512  0.0195 -0.0915 -0.0329
  921W        W 5121   8.099  10.473   9.997 -0.0102  0.2011 -0.2436
  922W        W 5122   7.927   7.514  10.341 -0.2395 -0.2414  0.2624
  923W        W 5123   6.908   9.120   1.545 -0.4883 -0.0618  0.2855
  924W        W 5124   2.091   8.973   1.551  0.0066  0.1648  0.0508
  925W        W 5125   5.324   1.485   3.882 -0.0929  0.0775  0.2426
  926W        W 5126   5.765   0.025   4.493  0.0395 -0.2578  0.0216
  927W        W 5127   5.819   4.349   1.581 -0.3331 -0.0976 -0.3725
  928W        W 5128   2.560   3.611   4.090 -0.2397  0.3120  0.1425
  929W        W 5129   4.295   8.253  13.109 -0.2396 -0.0384 -0.0863
  930W        W 5130   1.910   9.924   3.439 -0.0804 -0.0326 -0.1131
  931W        W 5131   5.634   2.998   9.796 -0.1003  0.0171  0.4507
  932W        W 5132   4.446   9.378  12.235  0.2493 -0.5944  0.2205
  933W        W 5133   3.782   6.755   0.883 -0.0857  0.0295 -0.3840
  934W        W 5134   8.668   9.314   8.713  0.0085 -0.1916 -0.2172
  935W        W 5135   1.792   8.554   1.647 -0.1177  0.1386 -0.1284
  936W        W 5136   6.431   4.722   4.233 -0.1684  0.0012  0.0413
  937W        W 5137   6.925  10.209   9.680  0.0559  0.0614  0.0205
  938W        W 5138   1.004  10.037   1.392  0.0895  0.1033  0.0137
  939W        W 5139   4.348   7.817  13.317  0.3550  0.1635  0.4409
  940W        W 5140   8.667   6.671  12.170 -0.1405  0.1112  0.1135
  941W        W 5141   0.118   7.233  10.559 -0.1758  0.1500 -0.3768
  942W        W 5142   2.806   3.791   2.045 -0.2154 -0.1724 -0.1627
  943W        W 5143   5.532   0.980   1.882  0.1496 -0.2074  0.0217
  944W        W 5144   6.323  10.246  10.189 -0.0102  0.1325 -0.0221
  945W        W 5145   6.813   1.420   0.428 -0.3959 -0.1523  0.1096
  946W        W 5146   0.027   2.248   3.829  0.2347  0.0255  0.3904
  947W        W 5147   9.582   9.513  11.434  0.0503 -0.0862 -0.1166
  948W        W 5148   4.280   3.605   3.164  0.0114  0.2099 -0.0714
  949W        W 5149   3.594   1.737   1.064  0.2732 -0.0277  0.0186
  950W        W 5150   4.119   5.705   0.054  0.2152 -0.2259  0.1325
  951W        W 5151   5.053   8.477   3.678 -0.3181 -0.0816 -0.5116
  952W        W 5152   5.347   7.770   4.240 -0.1695  0.2552 -0.0781
  953W        W 5153   7.504   2.090  10.356 -0.1228 -0.2352  0.1680
  954W        W 5154   1.755   0.021   1.387 -0.0291 -0.2850  0.2201
  955W        W 5155   2.642   7.740   9.358 -0.1837 -0.1297 -0.3195
  956W        W 5156   0.639   8.795   9.363 -0.1978  0.1717  0.0970
  957W        W 5157  10.292  10.388   2.397  0.0248 -0.4030  0.2586
  958W        W 5158   1.939   2.037   4.823  0.1475  0.2213  0.3884
  959W        W 5159   8.397   2.750   1.340 -0.1008 -0.2437  0.2310
  960W        W 5160   5.837   2.701   0.757  0.2498  0.2351 -0.2058
  961W        W 5161   7.493   5.379   1.907  0.0642 -0.1308  0.0494
  962W        W 5162   4.295   8.941   3.013  0.0504 -0.1804  0.3532
  963W        W 5163   8.437   8.724  11.365  0.0227 -0.3379  0.2085
  964W        W 5164   8.080   0.916  12.737  0.1594 -0.0601 -0.2476
  965W        W 5165   1.746   2.366   2.154 -0.1550  0.1774  0.1904
  966W        W 5166   7.711   9.887   9.441 -0.1513  0.1683  0.0017
  967W        W 5167   3.835   5.406   0.377 -0.2811  0.0549  0.0679
  968W        W 5168   1.129   4.524  10.959  0.1321 -0.0425  0.0668
  969W        W 5169   5.800   6.216   3.763  0.3034  0.0319 -0.0924
  970W        W 5170   9.989   3.060   4.036  0.1100 -0.0810  0.0205
  971W        W 5171   5.323   2.923   3.265  0.1312  0.0756 -0.3615
  972W        W 5172   6.443   2.738   1.044 -0.0528  0.2848  0.2382
  973W        W 5173   9.429   8.670   2.007 -0.1604  0.0512  0.0820
  974W        W 5174   0.453   8.923  12.338 -0.2021 -0.4651 -0.2586
  975W        W 5175   3.233   1.634  10.906  0.0382 -0.2739  0.1303
  976W        W 5176   1.266   5.549  11.702  0.0891  0.1068  0.0661
  977W        W 5177   7.705   1.605  11.166 -0.3291  0.0698  0.0817
  978W        W 5178   9.662   5.468  12.402  0.1950  0.3464 -0.2339
  979W        W 5179   7.801   7.454  10.964 -0.0950 -0.1154  0.0137
  980W        W 5180   2.621   0.358  13.427  0.1141  0.3388 -0.0859
  981W        W 5181   9.272   4.761   4.417  0.0884  0.0602 -0.0600
  982W        W 5182   0.450   4.444  12.182  0.4952  0.0183 -0.2825
  983W        W 5183   5.803   2.697   2.648 -0.2869  0.0575 -0.0552
  984W        W 5184   5.887   9.788   1.873 -0.1380  0.0793 -0.0172
  985W        W 5185   7.154   5.179  10.519  0.0679 -0.0087  0.4442
  986W        W 5186   9.704   5.363   1.085 -0.3770  0.1901  0.0418
  987W        W 5187   4.667   0.791  11.263 -0.2068  0.1227  0.1124
  988W        W 5188   5.188   7.851   0.730 -0.0972 -0.1795 -0.0529
  989W        W 5189   2.577   9.268  10.804 -0.1247 -0.0040  0.0357
  990W        W 5190   7.571   7.624   9.881 -0.2153 -0.0333 -0.1964
  991W        W 5191   9.924   6.812  10.021  0.1544  0.3168 -0.4275
  992W        W 5192   8.299   7.931  10.276 -0.1537 -0.2301 -0.1985
  993W        W 5193   8.125   5.746  10.702  0.1822 -0.0655  0.5578
  994W        W 5194   2.416   7.715   9.800  0.1128 -0.2246 -0.0869
  995W        W 5195   5.035   8.821   1.673  0.1865  0.0416  0.0927
  996W        W 5196   4.795   3.674   0.001 -0.1170 -0.0139  0.1791
  997W        W 5197   7.016   0.429  12.564  0.1684  0.0602 -0.0511
  998W        W 5198   4.565   2.596   9.775  0.2314  0.1137  0.4135
  999W        W 5199   1.794   6.174   1.540  0.0280  0.2106  0.0734
 1000W        W 5200   6.143  10.128  12.615  0.2370 -0.1386 -0.0374
 1001W        W 5201   6.208   2.507  13.302 -0.0013 -0.0511  0.0931
 1002W        W 5202   7.621   0.258   2.901  0.1375  0.2301 -0.0797
 1003W        W 5203   0.139  10.299   8.368 -0.0633 -0.3273 -0.0341
 1004W        W 5204   9.170   1.164   4.392 -0.2325 -0.2840  0.2162
 1005W        W 5205   0.535  10.126   3.469  0.3728  0.0557  0.0189
 1006W        W 5206   7.932   8.895   1.695  0.2925  0.1917  0.2803
 1007W        W 5207   6.344   4.614   2.741  0.2568 -0.0771 -0.2326
 1008W        W 5208   6.957   0.893   1.859  0.0695  0.1359  0.4495
 1009W        W 5209   4.391   6.080  12.703  0.0063 -0.1432  0.1121
 1010W        W 5210   9.733   5.152  11.445 -0.2429 -0.0342 -0.1020
 1011W        W 5211   7.481   8.684   0.597 -0.1175  0.1659 -0.1508
 1012W        W 5212   4.169   7.922   0.713  0.4648  0.1157  0.1009
 1013W        W 5213   5.288   6.912   0.094  0.1602 -0.0655 -0.0752
 1014W        W 5214   1.315   5.091  10.394  0.0124 -0.0669 -0.0093
 1015W        W 5215   3.835   8.253  12.285  0.1092  0.0178 -0.2078
 1016W        W 5216  10.352   1.369   3.818  0.1696  0.1240  0.1670
 1017W        W 5217   7.589   3.545  10.692  0.5235  0.0138  0.3030
 1018W        W 5218   5.185   9.488  12.967 -0.0863  0.1672  0.2286
 1019W        W 5219  10.038   3.340  13.295  0.1724 -0.2938 -0.1935
 1020W        W 5220   4.864   1.988  11.163 -0.1375  0.0986 -0.3071
 1021W        W 5221   5.094   4.906   3.291 -0.0194 -0.0525  0.0393
 1022W        W 5222  10.219   7.813   1.100 -0.2575  0.2270  0.0165
 1023W        W 5223   7.206   3.697   8.862 -0.1852 -0.0747 -0.0680
 1024W        W 5224   8.488   4.094  10.092 -0.1590  0.0789 -0.1963
 1025W        W 5225   4.771   4.477   0.969  0.0851  0.0801  0.2946
 1026W        W 5226   7.021   1.475   3.485  0.3015 -0.0595 -0.2396
 1027W        W 5227   2.211   2.002   9.217  0.0143 -0.0506 -0.0751
 1028W        W 5228   6.093   0.223  12.603  0.0004 -0.0808  0.0789
 1029W        W 5229   2.541   9.466  11.794 -0.1611  0.1665  0.3176
 1030W        W 5230   4.235   6.059   3.512  0.1085 -0.1457  0.1962
 1031W        W 5231   3.974   4.213   2.912 -0.0330 -0.1226 -0.1194
 1032W        W 5232   5.586   6.749   3.097  0.1572  0.0697 -0.0540
 1033W        W 5233   3.626   1.732   4.098  0.2595  0.3200  0.1297
 1034W        W 5234   1.981   9.424  12.150  0.0716 -0.1120 -0.0354
 1035W        W 5235  10.292   9.394   9.489  0.0968 -0.1775 -0.2312
 1036W        W 5236  10.117   2.488   0.260  0.1154  0.2881 -0.2317
 1037W        W 5237   0.118   5.518  12.392  0.3736 -0.3501 -0.2086
 1038W        W 5238  10.459   1.755   0.068 -0.0715 -0.3423  0.2573
 1039W        W 5239   8.109   9.260   5.165 -0.1406 -0.1132 -0.1187
 1040W        W 5240   8.243   6.191   0.152 -0.1864  0.3118  0.1371
 1041W        W 5241   3.695   4.490   1.149  0.2168 -0.0864 -0.0408
 1042W        W 5242   9.252   9.768   5.111  0.0817  0.0076  0.1232
 1043W        W 5243   2.134   5.044   4.251  0.3466 -0.1391  0.0206
 1044W        W 5244   1.111   2.444   0.601 -0.3519 -0.2114 -0.0881
 1045W        W 5245   4.647   4.676   9.784  0.3207  0.0157 -0.1152
 1046W        W 5246   9.225   5.926  12.055 -0.0047  0.0740  0.0045
 1047W        W 5247   6.251   5.519  11.801  0.1958  0.1875 -0.1892
 1048W        W 5248   8.032   1.597   4.305 -0.0353 -0.2976 -0.0597
 1049W        W 5249   4.372   9.649   4.849  0.2088 -0.0417  0.0347
 1050W        W 5250   5.468   4.022   2.371 -0.0002  0.1312 -0.1303
 1051W        W 5251   3.957   6.653  11.293  0.3328 -0.0207 -0.0866
 1052W        W 5252   5.126   0.929   9.652 -0.3609 -0.1895  0.2043
 1053W        W 5253   6.634   7.403   3.504  0.1454  0.1544  0.2061
 1054W        W 5254   8.001   2.399  12.429  0.0409 -0.0469  0.0557
 1055W        W 5255   3.433   1.587  10.012  0.3375 -0.3227  0.0349
 1056W        W 5256   2.113   2.314   8.805  0.3172  0.1541  0.0565
 1057W        W 5257   9.940   9.790  10.393  0.4110  0.0297 -0.4115
 1058W        W 5258   7.462   2.313   9.907 -0.1094  0.3305  0.0381
 1059W        W 5259   2.293   0.805   0.571  0.2525 -0.0182 -0.1309
 1060W        W 5260   0.080   2.897   1.859  0.2935  0.1088 -0.1099
 1061W        W 5261   4.630   1.046   1.400 -0.0499  0.4705 -0.1421
 1062W        W 5262   7.455   2.275  12.924 -0.0296 -0.1575 -0.0592
 1063W        W 5263   3.529   7.365  12.343 -0.3550 -0.2090  0.1025
 1064W        W 5264   5.531   3.750  11.602 -0.0489  0.0715 -0.5223
 1065W        W 5265  10.260   2.031   0.885  0.1136  0.0097  0.1820
 1066W        W 5266   0.706   4.394  11.778 -0.0210 -0.1638  0.3339
 1067W        W 5267   4.003   9.577   0.121  0.3097  0.4016  0.0824
 1068W        W 5268  10.238   0.066  10.826  0.0564 -0.0895 -0.1958
 1069W        W 5269   0.139   4.638   2.761 -0.0186  0.2872  0.0834
 1070W        W 5270   0.963   8.572   8.975 -0.0666 -0.0911 -0.1000
 1071W        W 5271   9.590   9.734  13.450 -0.1507 -0.0023  0.0415
 1072W        W 5272   5.660   5.885   3.143  0.0096 -0.0087  0.1882
 1073W        W 5273   5.378   8.401  12.397  0.1807  0.0830  0.1116
 1074W        W 5274   4.767   1.222  13.272 -0.1216  0.2899 -0.1230
 1075W        W 5275   7.365   6.729   4.307  0.2958 -0.1107  0.0019
 1076W        W 5276   8.541   0.720  12.634 -0.0754 -0.0027 -0.0563
 1077W        W 5277   3.883   1.069  12.600  0.0528 -0.0572 -0.3086
 1078W        W 5278   3.816   1.549  12.058  0.0646 -0.0436 -0.2369
 1079W        W 5279   8.643   1.535   1.947 -0.0026  0.1118 -0.0562
 1080W        W 5280   0.693   9.030  10.568 -0.1975 -0.1626 -0.1302
 1081W        W 5281   8.052   0.651  11.061  0.0347  0.0918 -0.0545
 1082W        W 5282   0.401   1.699  10.016  0.0002  0.0047 -0.3225
 1083W        W 5283   7.345   1.370   0.417  0.1947  0.1948 -0.2453
 1084W        W 5284   3.753   0.006   3.551 -0.4275 -0.0753 -0.1488
 1085W        W 5285   3.792  10.406   0.053  0.1391  0.0163  0.0356
 1086W        W 5286   0.728   4.752   9.934 -0.0983  0.2137  0.1089
 1087W        W 5287   1.635   1.515   8.862 -0.0020  0.0049 -0.2638
 1088W        W 5288   8.189   9.585   9.540 -0.0767 -0.1262  0.2347
 1089W        W 5289   0.627  10.474   3.836 -0.2412  0.2378 -0.2522
 1090W        W 5290   3.651   0.727   0.591 -0.0069 -0.1152  0.3772
 1091W        W 5291   5.371   2.819   2.373 -0.2673  0.2556 -0.0146
 1092W        W 5292   9.100  10.240   4.941  0.2317  0.0034 -0.1393
 1093W        W 5293   3.488   7.051   2.853  0.0652  0.1117  0.2319
 1094W        W 5294   2.752   5.686  10.905 -0.1666  0.2070  0.0789
 1095W        W 5295   2.036   2.082   1.307  0.1931  0.2337 -0.2032
 1096W        W 5296   5.090   6.548   1.769 -0.0572 -0.1082 -0.2716
 1097W        W 5297   7.517   8.234  12.270  0.0389  0.0492 -0.1264
 1098W        W 5298   3.932   4.869   1.642  0.2728 -0.2631 -0.0578
 1099W        W 5299  10.333   3.488   3.282  0.1601 -0.0982  0.0939
 1100W        W 5300   8.971   7.762  12.398  0.0060 -0.1934 -0.1688
 1101W        W 5301   3.342   6.952  11.877 -0.0550  0.1874  0.1633
 1102W        W 5302   1.994   7.349   0.301 -0.5285 -0.2391 -0.1461
 1103W        W 5303   9.488   2.801   0.085  0.1348 -0.0578 -0.0517
 1104W        W 5304   1.371   6.164  11.391 -0.0610  0.0911 -0.5091
 1105W        W 5305   2.003   6.876  11.562  0.1235 -0.1773 -0.1364
 1106W        W 5306   6.262   4.507  13.082 -0.1138 -0.0442 -0.2337
 1107W        W 5307   8.478   8.600  11.990 -0.1747 -0.1648 -0.2186
 1108W        W 5308   0.983   0.968   3.915  0.2677  0.0883  0.0684
 1109W        W 5309   1.803   0.030   9.967  0.1568  0.2236 -0.0310
 1110W        W 5310   2.352   7.082  10.497  0.3546 -0.0054 -0.1185
 1111W        W 5311   6.349   5.627  13.351 -0.2069 -0.1307 -0.0579
 1112W        W 5312   4.566   0.750   9.620  0.0995  0.0931 -0.4138
 1113W        W 5313   2.203   6.030   0.649  0.1137 -0.0052  0.0045
 1114W        W 5314   6.271   4.256   3.725 -0.3845 -0.1078  0.0313
 1115W        W 5315   8.726   4.795  10.693  0.0786  0.3161  0.0286
 1116W        W 5316   8.030   2.532   2.873  0.1708 -0.1377 -0.0593
 1117W        W 5317   8.948   7.071   3.755 -0.1146 -0.1667 -0.1378
 1118W        W 5318   2.631   6.682   1.141 -0.1009  0.1142  0.1388
 1119W        W 5319   7.179   5.375   2.464 -0.0778 -0.0721  0.0474
 1120W        W 5320   0.180   0.981   1.451  0.1570 -0.2060  0.0948
 1121W        W 5321   8.171   5.233  12.783  0.2413  0.0094 -0.1027
 1122W        W 5322   8.764   8.285   4.277  0.3713  0.0501  0.1312
 1123W        W 5323   4.375   2.047   1.717  0.2181 -0.3942 -0.0725
 1124W        W 5324   6.631  10.104   2.880  0.2901  0.0638  0.0296
 1125W        W 5325   9.929   0.406  11.070 -0.0706 -0.3107 -0.2330
 1126W        W 5326   6.208   6.901  11.838 -0.3574 -0.0542 -0.0062
 1127W        W 5327   1.672   3.887  13.279 -0.2622  0.0922 -0.1214
 1128W        W 5328   8.397   7.341   4.577 -0.3027  0.1946  0.0419
 1129W        W 5329   0.758   5.349   9.721  0.2508 -0.0751  0.0818
 1130W        W 5330   4.407   1.899  10.369  0.0437  0.1315 -0.1930
 1131W        W 5331   5.955  10.366  10.889  0.3352 -0.1320  0.0193
 1132W        W 5332   1.847   5.206  10.516  0.2929  0.0651  0.1131
 1133W        W 5333   9.048   0.406   2.930 -0.0726 -0.3220  0.1380
 1134W        W 5334   5.342   5.149   0.028  0.4203  0.3117 -0.1784
 1135W        W 5335   6.039   5.076  11.988  0.0352  0.1730 -0.0435
 1136W        W 5336   0.933   9.611   3.921 -0.0765 -0.2261  0.2644
 1137W        W 5337   0.853   3.817   0.182  0.0666  0.0408 -0.0478
 1138W        W 5338   7.843   8.159  12.696 -0.0860  0.3564 -0.1492
 1139W        W 5339   6.239   6.555   3.584  0.2705  0.2639  0.1283
 1140W        W 5340   5.095   3.340   0.257 -0.2606  0.3006  0.2665
 1141W        W 5341   1.865   0.150   4.689 -0.2599  0.0334  0.1010
 1142W        W 5342   6.324   1.892  13.350  0.1195 -0.1732 -0.1686
 1143W        W 5343   5.681   1.441  13.390 -0.0866  0.0379 -0.1018
 1144W        W 5344   1.622   8.583  12.282 -0.2526 -0.2154  0.1902
 1145W        W 5345   6.172   4.281  10.165  0.3948  0.1067  0.3306
 1146W        W 5346   7.242   0.578   8.949  0.0354  0.6450  0.2212
 1147W        W 5347  10.383   7.144   3.924 -0.0714 -0.0009 -0.0628
 1148W        W 5348   0.313   7.529   2.652  0.4474 -0.1157  0.3878
 1149W        W 5349   7.458   5.942  11.983 -0.0849 -0.2404 -0.0773
 1150W        W 5350   8.244   8.878   0.876  0.1188  0.0311  0.0024
 1151W        W 5351   1.149   1.833  11.063  0.2523 -0.0816 -0.1353
 1152W        W 5352   3.178   4.695   0.521  0.3223  0.1372  0.1380
 1153W        W 5353   4.485   9.623   0.294 -0.2285 -0.1134 -0.0175
 1154W        W 5354   6.298   4.710  12.391 -0.1892  0.0776  0.1135
 1155W        W 5355   8.694   3.873   9.318  0.1506  0.0388 -0.0515
 1156W        W 5356   8.034   7.326   3.595  0.0316 -0.3328 -0.2924
 1157W        W 5357   0.690   7.280   1.675  0.0950  0.2792 -0.1975
 1158W        W 5358   8.085   0.755   3.331  0.0333 -0.3137 -0.3109
 1159W        W 5359   8.966   3.879   0.660  0.0181  0.4723 -0.1190
 1160W        W 5360   5.336   4.417   1.504 -0.1095 -0.0214  0.2900
 1161W        W 5361   9.805   7.167   3.075 -0.3498 -0.0465 -0.0212
 1162W        W 5362   1.600   1.520  10.677 -0.0806  0.0601  0.0762
 1163W        W 5363   7.369   4.383   9.549 -0.1094  0.0654 -0.0426
 1164W        W 5364   4.603  10.047   1.525 -0.0108 -0.2338 -0.2644
 1165W        W 5365   5.199   6.454   1.272 -0.0427 -0.4059 -0.0902
 1166W        W 5366   7.613   3.473   4.610 -0.3071  0.2618  0.1086
 1167W        W 5367   8.794  10.403  12.351  0.2104 -0.0072 -0.0132
 1168W        W 5368   4.772   2.832  12.962 -0.0644 -0.1217  0.3645
 1169W        W 5369   0.839   9.372   0.487 -0.1093 -0.1306 -0.0609
 1170W        W 5370   2.764   3.403  10.881  0.0399  0.0245 -0.1450
 1171W        W 5371   7.676   1.208  10.497  0.0250  0.0242  0.0442
 1172W        W 5372   8.158   3.904  12.673 -0.0247 -0.1304 -0.0125
 1173W        W 5373   6.735   3.709   9.639 -0.2157  0.2278  0.1317
 1174W        W 5374  10.320   5.803   8.250  0.3071  0.0420  0.1359
 1175W        W 5375   0.803   5.145   8.914  0.0520  0.4797 -0.1419
 1176W        W 5376  10.312   6.726   1.251 -0.1013 -0.1246 -0.2123
 1177W        W 5377   4.071   6.697   2.973  0.1349  0.3420  0.0419
 1178W        W 5378   1.448   7.989  10.887 -0.1643  0.0365  0.0414
 1179W        W 5379   5.714   0.092   3.685 -0.1795 -0.1110  0.3132
 1180W        W 5380   3.661   5.426   0.997 -0.1145  0.0583 -0.0025
 1181W        W 5381   7.946   3.866  11.765  0.1835 -0.0955 -0.1107
 1182W        W 5382   6.393   8.669  11.822 -0.0184 -0.2483 -0.1190
 1183W        W 5383   8.532   8.511   0.944  0.0480  0.3278  0.3571
 1184W        W 5384   9.075   3.968  10.860 -0.1351 -0.0640  0.0394
 1185W        W 5385   4.633   3.257   3.842  0.2622 -0.0902 -0.2297
 1186W        W 5386   0.021   0.230   1.132 -0.1732 -0.0541  0.1977
 1187W        W 5387   4.084   7.369  11.738  0.5686  0.3735 -0.1503
 1188W        W 5388   2.101   3.656  13.137 -0.3902  0.1622 -0.0007
 1189W        W 5389   2.760   9.901  11.561 -0.1012  0.1575  0.2294
 1190W        W 5390   6.938   3.979   0.136 -0.1806 -0.1668 -0.0027
 1191W        W 5391   6.249  10.308   3.620  0.2809  0.2744 -0.1960
 1192W        W 5392   1.771   2.617   3.664 -0.2638  0.4633 -0.3109
 1193W        W 5393   1.940   8.918  11.624  0.0171 -0.2030 -0.2250
 1194W        W 5394   7.976  10.344   0.898  0.0870  0.1041  0.2002
 1195W        W 5395   0.948   4.608  12.282  0.0385 -0.1207 -0.1491
 1196W        W 5396   5.850   2.796   2.011 -0.1768  0.2135  0.2357
 1197W        W 5397   6.993   3.217   1.842  0.1049  0.2069 -0.0620
 1198W        W 5398   4.280   5.184  10.550 -0.0212 -0.2445 -0.1621
 1199W        W 5399   8.572   5.471   1.724 -0.1259 -0.0834 -0.1507
 1200W        W 5400   6.079   7.070   1.084  0.0639 -0.0115 -0.2128
 1201W        W 5401   5.726   7.877   0.914  0.0386 -0.1974 -0.2265
 1202W        W 5402   8.753   3.805  12.088 -0.2639  0.1714  0.0503
 1203W        W 5403   2.151  10.342   1.126  0.0707  0.1992  0.3352
 1204W        W 5404   9.044   5.658   3.917 -0.1579  0.4057  0.0140
 1205W        W 5405   4.344   7.623   0.359  0.2527 -0.0788 -0.1182
 1206W        W 5406   6.437   1.252   0.714  0.1646  0.5622  0.0739
 1207W        W 5407   9.361   7.926  12.600  0.0590  0.3294 -0.1126
 1208W        W 5408   9.362   0.560   9.545  0.3545 -0.2636  0.1699
 1209W        W 5409   9.735   9.002   2.887  0.0027 -0.0470  0.0583
 1210W        W 5410   4.406   0.241  10.869 -0.0837 -0.1064 -0.2113
 1211W        W 5411   2.744   0.267  11.427  0.2531 -0.3678  0.0729
 1212W        W 5412   7.230   8.968   3.382  0.0698 -0.1325 -0.1365
 1213W        W 5413   7.532   1.326   3.021  0.0737  0.1264 -0.0571
 1214W        W 5414   7.420   3.275   9.039 -0.0985 -0.0227 -0.1283
 1215W        W 5415   5.273   4.631   0.978 -0.1507 -0.0198  0.0800
 1216W        W 5416   9.383   7.213   0.265 -0.3297  0.1328 -0.1893
 1217W        W 5417   0.006   9.261   2.093 -0.3186 -0.2825  0.1216
 1218W        W 5418   9.338   1.168   3.894  0.0166  0.0324 -0.0339
 1219W        W 5419   8.310   4.998  12.338 -0.0251 -0.0946  0.2796
 1220W        W 5420  10.220   1.623   0.477  0.2200 -0.1045 -0.0570
 1221W        W 5421   7.452   4.926   2.067 -0.1737  0.0004  0.0344
 1222W        W 5422   3.815   3.549   1.029 -0.2601 -0.0138  0.0056
 1223W        W 5423   1.029   6.540   2.010 -0.0699 -0.1564  0.1794
 1224W        W 5424   2.160   0.873  12.231  0.1750 -0.1421  0.1987
 1225W        W 5425   6.196   1.439  13.246  0.0834  0.0413 -0.1401
 1226W        W 5426   9.373   8.968   9.239  0.3185  0.2486 -0.2208
 1227W        W 5427  10.277   8.681   0.724  0.1480  0.1768  0.0287
 1228W        W 5428   8.817  10.183  10.510 -0.0573  0.0516  0.0084
 1229W        W 5429   4.638   3.145  11.467 -0.2080 -0.1576 -0.0360
 1230W        W 5430   9.897   7.886   4.890 -0.0069  0.1276  0.1928
 1231W        W 5431   5.080   7.299  11.407 -0.1008 -0.1645 -0.2310
 1232W        W 5432   3.444   8.172   1.159  0.0053  0.0368 -0.2865
 1233W        W 5433   5.699   5.445   2.134 -0.0967 -0.3923 -0.0975
 1234W        W 5434   5.620   7.734  13.062  0.0865 -0.0531 -0.1208
 1235W        W 5435   6.143   7.436   9.287 -0.0027  0.3186 -0.0646
 1236W        W 5436   1.022   4.779   0.117 -0.0586  0.2226 -0.0582
 1237W        W 5437   0.531   9.337  13.010 -0.0658  0.2511 -0.1033
 1238W        W 5438   5.923   7.985   1.398  0.2719  0.0050  0.0459
 1239W        W 5439   6.985   8.160   3.599 -0.2847 -0.0796  0.2519
 1240W        W 5440   3.686   1.313   1.415  0.0096  0.1251 -0.2230
 1241W        W 5441   0.063   3.560   2.300 -0.0029 -0.0730 -0.1206
 1242W        W 5442   6.739   8.465  12.067  0.0835  0.2700 -0.0468
 1243W        W 5443   2.960   6.053   0.509 -0.1435 -0.0970 -0.0118
 1244W        W 5444   7.224   2.172   4.315  0.3364 -0.0264 -0.0520
 1245W        W 5445   0.624   2.810  11.177  0.0816  0.2164 -0.0217
 1246W        W 5446  10.028   9.376   3.195  0.0771  0.1693 -0.0957
 1247W        W 5447   8.427   9.983   1.054  0.2175  0.0067  0.3565
 1248W        W 5448   1.338   2.454   2.465 -0.1020 -0.0957  0.3194
 1249W        W 5449   3.475   5.731   1.346  0.0671  0.1178 -0.1041
 1250W        W 5450   3.828   4.272   0.085 -0.1400 -0.2458  0.1765
 1251W        W 5451   8.976   4.544   2.664  0.2033 -0.0986 -0.5856
 1252W        W 5452   9.167   3.915   9.233  0.0248  0.0562 -0.0888
 1253W        W 5453   6.833   7.406  10.668 -0.2886  0.0868  0.2073
 1254W        W 5454   2.309   3.242  12.953  0.0592 -0.1002  0.1461
 1255W        W 5455   6.179   8.014   2.720  0.1013 -0.2219 -0.2317
 1256W        W 5456   3.207   0.233   2.249 -0.3211  0.1927  0.3278
 1257W        W 5457   9.666   0.238  10.527  0.2149 -0.1942 -0.3502
 1258W        W 5458   5.102   2.844   0.495 -0.1107 -0.0789  0.0701
 1259W        W 5459   9.253   5.282  10.010  0.2684 -0.3526  0.1549
 1260W        W 5460   6.472  10.325  13.014  0.2118 -0.2005  0.0312
 1261W        W 5461   7.052   8.310   8.827 -0.0788 -0.0351  0.1690
 1262W        W 5462   7.939   8.411   3.535  0.0969  0.1468  0.2566
 1263W        W 5463   2.779   1.052   0.689 -0.2004 -0.0091  0.2880
 1264W        W 5464   6.420   1.532   1.645 -0.1756 -0.0397 -0.3130
 1265W        W 5465  10.154   7.143  11.784 -0.0709  0.3277 -0.3262
 1266W        W 5466   0.817   3.382   1.826 -0.1503 -0.1604  0.0401
 1267W        W 5467   9.667  10.288  12.131  0.1024  0.1314  0.0096
 1268W        W 5468   0.114   9.844   3.931  0.1637  0.2138 -0.3180
 1269W        W 5469   0.303   2.856  12.904 -0.2879  0.0407 -0.0370
 1270W        W 5470   3.164   6.410  12.735 -0.2534  0.2109 -0.0294
 1271W        W 5471   9.151   2.212   3.775 -0.1527  0.0211  0.2056
 1272W        W 5472   0.273   0.392   4.983 -0.0675 -0.1550 -0.2542
 1273W        W 5473   5.120   8.212  10.402 -0.0732 -0.1470 -0.2763
 1274W        W 5474   1.265   0.861   9.524 -0.0181  0.0037  0.0042
 1275W        W 5475   2.584   8.175   1.185 -0.0270 -0.0273 -0.1081
 1276W        W 5476   7.390   0.695   3.733  0.1664 -0.0278  0.1399
 1277W        W 5477   2.386   6.952   2.238  0.3943  0.1500  0.1612
 1278W        W 5478   8.407   2.394  10.936 -0.4545 -0.0989 -0.2987
 1279W        W 5479   5.596   3.783   3.906  0.1301 -0.1084 -0.1319
 1280W        W 5480   8.141   5.751   1.601 -0.1314 -0.0122 -0.0756
 1281W        W 5481   1.368   0.013   9.156  0.1396  0.0137 -0.0910
 1282W        W 5482   0.147   5.724   9.203 -0.0766 -0.0305 -0.1687
 1283W        W 5483   9.409   3.282   3.853 -0.0151  0.0782 -0.2123
 1284W        W 5484   5.543   3.909  11.122  0.1274 -0.2420  0.0727
 1285W        W 5485   4.631   8.009   0.452  0.1916  0.0151  0.1328
 1286W        W 5486   7.848   4.810   0.123 -0.3463 -0.0872 -0.1720
 1287W        W 5487   5.448   7.146   9.768 -0.0420 -0.2161 -0.1847
 1288W        W 5488   0.888   1.227   9.491  0.0338  0.0528 -0.1108
 1289W        W 5489   8.422   9.875   4.413 -0.1025  0.0259  0.0725
 1290W        W 5490   2.419   9.267   2.969 -0.3410 -0.2243 -0.0408
 1291W        W 5491   1.138   1.364  10.857  0.3954  0.3080 -0.1446
 1292W        W 5492   8.843   2.986   1.506 -0.0552 -0.3318 -0.2951
 1293W        W 5493   4.534   2.215  10.773  0.0910 -0.0506 -0.2423
 1294W        W 5494   2.010   8.615  11.151  0.1206 -0.2097 -0.2229
 1295W        W 5495   3.465   2.923  10.445  0.0258  0.0715 -0.0004
 1296W        W 5496   5.241   8.226   1.171  0.1599 -0.2468 -0.3383
 1297W        W 5497   0.110   9.740  12.269  0.1035 -0.0221 -0.0259
 1298W        W 5498  10.054   3.838   4.627 -0.0257 -0.1040 -0.0438
 1299W        W 5499   8.314   6.528  11.915 -0.1096  0.0704  0.1790
 1300W        W 5500   3.855   8.271  11.486  0.2912 -0.3724 -0.0134
 1301W        W 5501   1.787   3.593   0.226  0.1509  0.2435 -0.1455
 1302W        W 5502   2.523   8.356   2.088  0.0932  0.1316 -0.0151
 1303W        W 5503   8.989   6.787   0.013 -0.0318 -0.1763  0.1518
 1304W        W 5504   4.536   2.009   0.301  0.1434 -0.2503 -0.3465
 1305W        W 5505   9.044   2.337  10.203  0.1055  0.0979  0.0910
 1306W        W 5506   3.090   8.114  13.309 -0.0853 -0.0788  0.0434
 1307W        W 5507   2.075   3.962  10.888 -0.0101  0.1443  0.0129
 1308W        W 5508   0.666   6.955  11.518  0.2277  0.2336  0.0533
 1309W        W 5509   3.439   4.468   2.299  0.0107  0.0234  0.2441
 1310W        W 5510   1.203   1.489   8.104  0.2891  0.0927  0.0964
 1311W        W 5511   8.525   9.402   1.033  0.2938  0.2149  0.2614
 1312W        W 5512   0.666   3.387   0.546  0.0059 -0.1195  0.2616
 1313W        W 5513   2.002   1.163   9.160 -0.0908  0.1069  0.1050
 1314W        W 5514   2.298   4.225   3.560  0.1818 -0.0699  0.0609
 1315W        W 5515   3.758   3.050   1.844  0.0555 -0.0219  0.0167
 1316W        W 5516   6.675   4.036   2.017 -0.2399  0.2777  0.2442
 1317W        W 5517  10.374   2.967   0.909  0.1192 -0.1089 -0.0090
 1318W        W 5518   1.905   9.442  11.606  0.0446  0.1980  0.1900
 1319W        W 5519   1.568   0.793   5.179  0.2488 -0.1346  0.1507
 1320W        W 5520   2.662   0.676   1.034 -0.2608  0.2257 -0.0336
 1321W        W 5521  10.315   4.233   8.901 -0.0346 -0.1739 -0.0681
 1322W        W 5522   4.293   7.499   9.570  0.3939  0.3385  0.0562
 1323W        W 5523   3.374  10.119   9.720 -0.0042 -0.1430  0.0483
 1324W        W 5524   8.692   1.244   2.358 -0.1619  0.0976 -0.1990
 1325W        W 5525   9.085   7.395  10.891 -0.1593  0.1318 -0.1634
 1326W        W 5526   7.475   8.131   3.486 -0.3117  0.1475 -0.0764
 1327W        W 5527   3.775   9.794   9.664 -0.2427 -0.0799 -0.0306
 1328W        W 5528   4.197   5.159  11.067 -0.1515  0.1439 -0.0131
 1329W        W 5529   9.767   2.157   8.712 -0.1828 -0.0747  0.0352
 1330W        W 5530   5.784   8.278  11.664 -0.0287  0.1928  0.1415
 1331W        W 5531   9.272   9.986   1.435 -0.0099  0.0670 -0.0647
 1332W        W 5532   1.852   3.117  12.656 -0.4584 -0.0088  0.2199
 1333W        W 5533   1.931   3.250   1.424 -0.1957  0.1377 -0.3157
 1334W        W 5534   0.176   6.886  11.500  0.1581 -0.2808 -0.0253
 1335W        W 5535  10.271   9.886   0.076 -0.2393  0.1096 -0.2438
 1336W        W 5536   9.762  10.363  10.873  0.1937  0.3536  0.0293
 1337W        W 5537  10.013   6.144   8.454  0.0702 -0.0779 -0.0136
 1338W        W 5538   1.009   0.646   4.335 -0.0512  0.0589 -0.1275
 1339W        W 5539   2.945   6.181   3.687 -0.0107 -0.1485 -0.0155
 1340W        W 5540   1.667   7.506   0.684 -0.0646 -0.0503 -0.1144
 1341W        W 5541   9.501   3.924  10.497  0.1681 -0.1987  0.1844
 1342W        W 5542   8.049   2.116   8.946  0.3039  0.1236  0.1512
 1343W        W 5543   6.879   9.983   4.765 -0.0056  0.1906  0.0883
 1344W        W 5544   6.852  10.353   1.881 -0.0698  0.2416  0.3337
 1345W        W 5545   8.670   9.808   0.224 -0.2806 -0.2886  0.0163
 1346W        W 5546   5.147   4.660  10.798 -0.1151  0.0243  0.0332
 1347W        W 5547   2.720   0.074   4.836  0.0156  0.1048 -0.2532
 1348W        W 5548   9.192   5.336  12.087  0.0046 -0.0650  0.0873
 1349W        W 5549   7.375   8.122   0.703  0.0894 -0.1332  0.1569
 1350W        W 5550   8.027   3.425   2.474  0.2076  0.2151 -0.1396
 1351W        W 5551   6.306   4.439   2.273  0.0643  0.2924 -0.0964
 1352W        W 5552  10.427   7.155   8.003  0.2008 -0.1126  0.0471
 1353W        W 5553   1.769   0.917   0.812 -0.0320  0.0016 -0.1507
 1354W        W 5554   8.096  10.175   9.567 -0.0035 -0.1397  0.0803
 1355W        W 5555   4.627   8.012   1.904  0.1085  0.0821  0.0034
 1356W        W 5556   7.667   5.611   1.498  0.3112  0.1536 -0.1250
 1357W        W 5557   9.217   1.885  10.345  0.0580 -0.0674 -0.2179
 1358W        W 5558   6.236   6.456  12.045  0.2470 -0.0371  0.0107
 1359W        W 5559   6.376   5.904   0.320 -0.1189 -0.2788  0.1792
 1360W        W 5560   0.518   2.534   0.474  0.0008  0.0782 -0.1691
 1361W        W 5561   3.049   1.867   2.195  0.3559  0.2068 -0.3841
 1362W        W 5562   6.076   8.888   0.252 -0.2180 -0.3176  0.2763
 1363W        W 5563   0.887   5.692  12.052  0.4116 -0.3414  0.0574
 1364W        W 5564   2.288   0.869   1.912 -0.1636  0.0265  0.0207
 1365W        W 5565   8.663   9.789  12.953  0.1707 -0.3128 -0.2263
 1366W        W 5566   0.787   4.930   9.438  0.1574  0.1877 -0.2127
 1367W        W 5567   4.040   0.317   9.679  0.0107 -0.1791 -0.0982
 1368W        W 5568   0.297   1.208  11.976 -0.0687 -0.3499  0.0771
 1369W        W 5569   5.931   0.554   9.426  0.1072 -0.0999 -0.0508
 1370W        W 5570   5.360   9.280  13.450  0.0225 -0.0480  0.3579
 1371W        W 5571   4.825   0.517  10.815  0.1518  0.1559 -0.1342
 1372W        W 5572   7.011   1.869  10.563 -0.2372  0.0630 -0.0693
 1373W        W 5573   6.072   2.814  11.275  0.2506 -0.0501 -0.0649
 1374W        W 5574   9.189   1.479  11.240 -0.3385 -0.0721 -0.0658
 1375W        W 5575  10.434   4.526  12.403  0.2699 -0.0062  0.0240
 1376W        W 5576   0.629   2.499   9.801  0.1419  0.1354  0.0129
 1377W        W 5577   1.791   2.850  10.311  0.1586 -0.0247 -0.2331
 1378W        W 5578   7.182  10.244   4.462 -0.3589  0.0590 -0.1227
 1379W        W 5579   5.434   2.302   9.565 -0.0610 -0.1487  0.0323
 1380W        W 5580   5.438   9.225   3.243  0.0607 -0.1522  0.1751
 1381W        W 5581   0.850   9.113   1.772  0.1152  0.0652 -0.3064
 1382W        W 5582   8.486   4.447   4.069 -0.0792  0.0959  0.1861
 1383W        W 5583   0.233   3.902  10.291 -0.1426  0.0157 -0.2376
 1384W        W 5584   1.263   1.114   0.648 -0.0111  0.0693  0.2696
 1385W        W 5585   9.850   4.632   2.880  0.3950  0.0028 -0.3679
 1386W        W 5586   4.728   8.479   0.252  0.1207  0.1496  0.4262
 1387W        W 5587   8.896   2.924   9.531 -0.1858  0.0649  0.0240
 1388W        W 5588   0.135   0.589   2.485 -0.0178 -0.0696  0.0080
 1389W        W 5589   9.383   5.118   1.458  0.0099  0.1372 -0.2752
 1390W        W 5590   0.421   8.209  11.609 -0.0412 -0.3110 -0.3953
 1391W        W 5591   8.393   2.173  11.683  0.0312 -0.1764  0.3730
 1392W        W 5592   1.102   8.434   0.463  0.2662  0.0413 -0.0438
 1393W        W 5593   7.851   2.359  11.775 -0.0579 -0.0090  0.0385
 1394W        W 5594   5.549   8.022  10.838 -0.0935  0.0505 -0.2538
 1395W        W 5595   0.260   1.724   3.954 -0.2533  0.0803 -0.1126
 1396W        W 5596   0.245   2.894   9.158 -0.2264 -0.0385 -0.2129
 1397W        W 5597  10.291   4.814   9.016  0.1478  0.3442  0.0632
 1398W        W 5598   9.366   3.099   2.476  0.2412 -0.4251  0.3342
 1399W        W 5599   6.471   7.519  12.970  0.1730 -0.0578 -0.2304
 1400W        W 5600   8.190   1.931   1.646 -0.2676 -0.0983 -0.1827
 1401W        W 5601   5.876   3.946  12.010 -0.3092 -0.2977  0.2239
 1402W        W 5602   6.116   9.301   2.547 -0.0818 -0.2591 -0.0550
 1403W        W 5603  10.278   2.796  13.078 -0.2573  0.2724 -0.1445
 1404W        W 5604   8.474   9.254  12.868  0.0465 -0.1846  0.0947
 1405W        W 5605   3.945   4.205   0.873  0.0964 -0.1053 -0.0852
 1406W        W 5606   4.003   8.837   1.500 -0.2365  0.3456  0.0292
 1407W        W 5607   7.040  10.005   1.185 -0.2518 -0.1895 -0.0161
 1408W        W 5608   9.627   1.644   0.901  0.3489  0.2358 -0.0144
 1409W        W 5609   2.221  10.107   2.687  0.0421  0.0938 -0.1653
 1410W        W 5610   1.023   2.503   4.262  0.2613  0.1366 -0.0517
 1411W        W 5611   2.948   8.117   1.936  0.0540  0.2047 -0.3431
 1412W        W 5612   7.011   2.179  10.189  0.1602 -0.1080  0.1797
 1413W        W 5613   9.830   4.242   0.654  0.1803  0.4225  0.1274
 1414W        W 5614   5.381   8.646   1.423 -0.0208  0.2949 -0.0397
 1415W        W 5615   5.758   7.487   0.542  0.1415  0.1554 -0.0296
 1416W        W 5616   5.981   9.047  11.193 -0.0572  0.2289  0.1016
 1417W        W 5617   2.704   2.817   9.136  0.1552 -0.0359 -0.1560
 1418W        W 5618   5.867   8.998   4.221  0.1508  0.0837 -0.1261
 1419W        W 5619   2.450   2.592   2.570 -0.2869  0.0965  0.0410
 1420W        W 5620   6.340   7.422  11.315  0.2633  0.0092  0.0148
 1421W        W 5621  10.442   0.405  10.182 -0.1673  0.1815 -0.4144
 1422W        W 5622   9.862   8.595   0.343 -0.0933  0.3217  0.0797
 1423W        W 5623   5.668   5.934   9.846 -0.0343  0.2232  0.0564
 1424W        W 5624   2.301   8.375  10.799  0.0374 -0.0571  0.2169
 1425W        W 5625   2.047   2.252  12.724 -0.0241  0.0621  0.2378
 1426W        W 5626   5.885   4.703  11.351  0.1712  0.0948  0.4299
 1427W        W 5627   4.946   9.393   0.388 -0.1309  0.2969 -0.0739
 1428W        W 5628   6.974   6.476   1.854 -0.3961 -0.1115  0.1293
 1429W        W 5629   8.701   9.510   4.499  0.0312  0.1855 -0.2076
 1430W        W 5630   8.729   9.682  10.318 -0.0293 -0.2812 -0.1496
 1431W        W 5631   4.297   8.057  10.239 -0.1287  0.1029 -0.0381
 1432W        W 5632   9.595   7.745  12.100 -0.0667  0.0390 -0.4556
 1433W        W 5633  10.166   6.286   3.259 -0.1189 -0.0256  0.0702
 1434W        W 5634   0.100   0.214   4.046  0.2842  0.4636 -0.1999
 1435W        W 5635   4.864   9.765   9.477  0.0102 -0.0442 -0.1959
 1436W        W 5636   3.882   1.584   2.348  0.0845 -0.1380 -0.0298
 1437W        W 5637   7.934   8.665  11.378  0.1473  0.1795 -0.1928
 1438W        W 5638   1.206   3.512   2.749  0.0386  0.0928  0.3187
 1439W        W 5639   7.380   4.293  11.001  0.0761  0.0478  0.1581
 1440W        W 5640   2.634   2.944   8.653  0.1253  0.0384 -0.0718
 1441W        W 5641   8.778   4.374   9.609  0.0546  0.1790  0.4602
 1442W        W 5642   5.117   8.412  10.892  0.3583  0.0018  0.1635
 1443W        W 5643   7.401   1.674  10.792 -0.1271 -0.0210  0.0792
 1444W        W 5644   8.338   4.282   2.929  0.0701 -0.1088 -0.3783
 1445W        W 5645   5.206   3.729   9.994  0.0947  0.0351 -0.1073
 1446W        W 5646   3.951   3.370  12.672 -0.0700 -0.0042 -0.1196
 1447W        W 5647   6.738   4.629  11.604  0.0986 -0.2755  0.2888
 1448W        W 5648   6.152   4.672   3.471 -0.2722  0.0348  0.0660
 1449W        W 5649   5.246   9.116   2.195 -0.3314  0.0464  0.3135
 1450W        W 5650   5.132   0.478   2.715 -0.1690  0.0520  0.3246
 1451W        W 5651   4.021   1.781  11.580 -0.2181 -0.1524 -0.0005
 1452W        W 5652   5.302   5.562  11.354 -0.0084 -0.3245  0.0521
 1453W        W 5653  10.223   3.375  11.874  0.2169  0.1733  0.2797
 1454W        W 5654   8.647   1.775   0.129  0.1606 -0.1347  0.0314
 1455W        W 5655   4.406   2.102   9.868  0.1476  0.2196  0.1632
 1456W        W 5656   9.751   2.569   4.171  0.1542  0.2035  0.2301
 1457W        W 5657   5.053   1.305   9.189  0.2352  0.3123  0.2051
 1458W        W 5658   5.194   2.415  11.192 -0.0160  0.1186  0.1044
 1459W        W 5659   8.077   9.406   0.843 -0.2641  0.0802  0.2467
 1460W        W 5660   8.785   4.651  12.492 -0.5019  0.2908 -0.1629
 1461W        W 5661   7.327   9.275   8.921  0.2707 -0.1061  0.2942
 1462W        W 5662   5.482   0.210  10.177  0.0320  0.1264  0.0214
 1463W        W 5663   4.637   0.491  11.686  0.1719  0.1490  0.4093
 1464W        W 5664   7.902   9.613   2.721 -0.2180 -0.1258  0.1933
 1465W        W 5665   0.745   7.934  10.444 -0.1120  0.1983 -0.0674
 1466W        W 5666   1.439   4.584  13.303  0.0354  0.0007 -0.0206
 1467W        W 5667   0.018   5.162   9.441  0.2914  0.0921  0.2302
 1468W        W 5668   6.280   1.739   2.708  0.1591 -0.2908 -0.1582
 1469W        W 5669  10.089   0.502   4.096 -0.0913  0.1928  0.1186
 1470W        W 5670   5.042   0.400  12.898 -0.0973  0.2145 -0.1729
 1471W        W 5671   3.902   3.017   0.898  0.0234 -0.3143 -0.0381
 1472W        W 5672   1.501   4.888   1.928 -0.1196 -0.1262  0.3039
 1473W        W 5673   3.111   8.867   1.606 -0.0965 -0.0922  0.1452
 1474W        W 5674   3.656   9.417   4.367  0.0977 -0.1717  0.0670
 1475W        W 5675   7.962   0.686   4.418  0.2973  0.0298  0.1435
 1476W        W 5676   6.525   3.399   2.730 -0.1617 -0.0210 -0.3727
 1477W        W 5677   5.429   2.875   4.354  0.1754 -0.1786  0.0340
 1478W        W 5678  10.367   2.030   3.338 -0.3525 -0.0503 -0.2939
 1479W        W 5679   3.142   1.293   1.370 -0.1697  0.2382  0.1715
 1480W        W 5680   0.883   0.770   0.806 -0.0761  0.0260 -0.1707
 1481W        W 5681   8.979   6.476   2.462  0.0802  0.3544  0.1423
 1482W        W 5682   0.333  10.174  12.187 -0.1753  0.1069 -0.0276
 1483W        W 5683   4.751   3.939   9.380 -0.0178 -0.2279  0.0445
 1484W        W 5684   7.576   7.915  11.838 -0.3366  0.2254 -0.2569
 1485W        W 5685   7.117   1.771   8.676 -0.0110 -0.2597 -0.1500
 1486W        W 5686   8.656   3.845  13.037 -0.3633  0.2473  0.1160
 1487W        W 5687   5.239   5.288  12.939  0.1442  0.0580 -0.1067
 1488W        W 5688   7.673   3.879  12.968 -0.1526 -0.2915  0.1506
 1489W        W 5689   1.523   9.216   9.475 -0.1785 -0.1787  0.0184
 1490W        W 5690  10.342   6.741   2.353  0.1898 -0.0500 -0.1902
 1491W        W 5691   7.536   4.876   9.375  0.1781 -0.1335 -0.1869
 1492W        W 5692   3.048   6.559  11.688 -0.1534 -0.1251 -0.0544
 1493W        W 5693   0.500   0.587  12.477  0.3653  0.0130 -0.0610
 1494W        W 5694   7.998   0.138   1.366 -0.2116 -0.0718 -0.0166
 1495W        W 5695   7.632   2.856   9.297 -0.1547  0.1304  0.2693
 1496W        W 5696  10.206   5.626   1.739 -0.2797 -0.0051  0.0868
 1497W        W 5697   8.961   3.391  11.606  0.1461  0.1103 -0.0017
 1498W        W 5698   6.189   1.414  11.923  0.0844 -0.1659 -0.0973
 1499W        W 5699   0.203   7.022   1.741 -0.2099  0.0600 -0.0558
 1500W        W 5700   3.198   9.675   4.250  0.0320 -0.2296 -0.1017
 1501W        W 5701   1.178   7.950   1.284 -0.1321  0.1943  0.0708
 1502W        W 5702   8.446   5.882   9.487  0.3013  0.1238 -0.3481
 1503W        W 5703   4.489   4.692   3.997  0.2251 -0.0642 -0.0663
 1504W        W 5704  10.174   1.229  12.203  0.2392 -0.0592  0.0502
 1505W        W 5705   8.857   0.460   4.323  0.0257  0.0180  0.1552
 1506W        W 5706   9.451   2.620  13.007  0.2299  0.0579  0.0247
 1507W        W 5707   5.214   3.499   3.759 -0.2713  0.0568 -0.0371
 1508W        W 5708   0.213   1.503   3.434  0.0290  0.0085  0.0121
 1509W        W 5709   8.610   7.217   0.299  0.3520 -0.0386  0.2341
 1510W        W 5710   8.116   1.464  11.377 -0.2006 -0.1560  0.1664
 1511W        W 5711   9.866   6.024   1.712  0.1812  0.0285  0.0627
 1512W        W 5712  10.126   5.826  12.452  0.1119  0.1322 -0.0009
 1513W        W 5713   0.965   0.214  10.422  0.2357  0.1006  0.2001
 1514W        W 5714   0.004   9.341   1.105 -0.1899 -0.0446  0.3905
 1515W        W 5715   7.504   2.275   3.932 -0.1653 -0.0230  0.1895
 1516W        W 5716   2.979   9.699  11.933  0.1412  0.0951 -0.2549
 1517W        W 5717   5.146   1.097  12.230  0.3904  0.1668  0.3035
 1518W        W 5718   7.106   6.938  12.157  0.0245 -0.0969  0.0758
 1519W        W 5719   6.047   2.200   5.956  0.0456  0.0187  0.1288
 1520W        W 5720   5.400   3.179   4.826  0.1518  0.0464  0.0970
 1521W        W 5721   6.503   3.596  12.447  0.0310  0.0631  0.1714
 1522W        W 5722   0.639   2.841   2.529 -0.3129 -0.0607 -0.1647
 1523W        W 5723   9.164   0.513   2.399  0.1578 -0.0944  0.0648
 1524W        W 5724   1.723   9.236   1.311  0.1996  0.4728 -0.2247
 1525W        W 5725   8.646   7.154   8.602 -0.1747  0.0010 -0.1948
 1526W        W 5726   2.442   8.398  12.383  0.0089 -0.0667 -0.3423
 1527W        W 5727   5.811   6.989   0.119  0.1472 -0.1954 -0.3656
 1528W        W 5728   5.332   1.413   1.218 -0.2038  0.1719 -0.1395
 1529W        W 5729   2.345   3.111   2.372  0.0034  0.2117 -0.3387
 1530W        W 5730   3.276   5.559   2.325 -0.0992  0.1478  0.1655
 1531W        W 5731   3.889   4.845  12.146 -0.0838 -0.1369 -0.0322
 1532W        W 5732   2.920   8.194  12.308 -0.2914 -0.1162  0.3184
 1533W        W 5733   9.692   5.354  10.338  0.1932 -0.1527  0.0474
 1534W        W 5734   3.179   2.010   0.266 -0.0543 -0.0886  0.0497
 1535W        W 5735   8.747   6.164   9.848 -0.2347  0.4075 -0.0263
 1536W        W 5736   7.074   4.391   0.315  0.2159 -0.4039 -0.0246
 1537W        W 5737   1.425   2.001  11.453  0.3465 -0.0458 -0.0879
 1538W        W 5738   4.589   9.862   4.334  0.1708 -0.2231  0.0840
 1539W        W 5739  10.100   9.588  13.199 -0.3250  0.2721 -0.1396
 1540W        W 5740   8.137   7.902   0.126 -0.3123  0.2163 -0.2171
 1541W        W 5741   0.048   1.287  12.591 -0.0284 -0.0785  0.0303
 1542W        W 5742   6.425   3.899  11.955  0.2929  0.0828 -0.1478
 1543W        W 5743   8.823   9.759   4.061 -0.2621 -0.2730 -0.0598
 1544W        W 5744   4.337   9.498  13.198  0.1851 -0.0707 -0.2379
 1545W        W 5745   8.665   4.963   1.710  0.3885  0.3469 -0.5267
 1546W        W 5746   2.233   3.428  10.964 -0.2178  0.0135  0.1263
 1547W        W 5747   7.180   0.212   2.402  0.2719 -0.0604 -0.0827
 1548W        W 5748   2.705   2.810   3.464  0.0782 -0.3102  0.0179
 1549W        W 5749   8.620   2.062   3.885 -0.0759  0.3283  0.3196
 1550W        W 5750   8.951   0.196   0.927 -0.2914  0.0514  0.1689
 1551W        W 5751   1.679   3.882   1.505  0.0540 -0.2911  0.1466
 1552W        W 5752   5.123   8.975  13.004 -0.2289 -0.0707 -0.1570
 1553W        W 5753   0.064   7.201  12.519 -0.0825  0.4205 -0.0864
 1554W        W 5754   8.763   2.595   4.087  0.0033 -0.0075 -0.0677
 1555W        W 5755   1.001   1.181   4.437 -0.2864  0.4137  0.4805
 1556W        W 5756   4.369   1.430   2.623 -0.1313 -0.1822 -0.0823
 1557W        W 5757   7.112   6.778  11.093  0.4039 -0.0626  0.0171
 1558W        W 5758  10.057   0.306   0.795  0.1021 -0.1122  0.3962
 1559W        W 5759   6.618   1.755   9.542 -0.1417 -0.0177  0.0370
 1560W        W 5760   3.906  10.421  12.006 -0.2887  0.0468  0.1063
 1561W        W 5761   7.972   1.854   8.414  0.1126 -0.2943 -0.1827
 1562W        W 5762   3.730   3.821  12.882 -0.3000  0.3119  0.0704
 1563W        W 5763   1.860   5.806  10.095 -0.1508 -0.0593  0.2545
 1564W        W 5764   6.863   8.257  10.460 -0.1184  0.1973  0.2394
 1565W        W 5765   4.099   3.184  12.222  0.0463 -0.2541  0.1129
 1566W        W 5766   0.847   0.661  11.487 -0.3219  0.0339 -0.2830
 1567W        W 5767   5.709   3.207   0.017 -0.1344 -0.1657 -0.0573
 1568W        W 5768   0.500   4.774  10.405 -0.1814 -0.2059 -0.6815
 1569W        W 5769   6.283   2.816   2.340 -0.2413 -0.0424 -0.2142
 1570W        W 5770   0.468  10.001  12.935  0.0137 -0.0917  0.1393
 1571W        W 5771   8.693   7.926  12.775  0.1525  0.0166  0.0467
 1572W        W 5772   0.559   2.378  12.698  0.1369 -0.2056  0.0270
 1573W        W 5773   8.000   9.756  10.484 -0.1747  0.2391  0.1412
 1574W        W 5774   2.855   6.158  10.944  0.0609 -0.1738 -0.1750
 1575W        W 5775   2.142   7.150  12.002  0.1258  0.0757  0.0526
 1576W        W 5776   9.892   3.538  10.086  0.0600  0.2114 -0.0759
 1577W        W 5777   9.473   8.758   8.819  0.0843  0.0800 -0.2970
 1578W        W 5778   8.703   0.623  10.587 -0.1113 -0.3763  0.1478
 1579W        W 5779   5.217   2.112   0.988 -0.3641 -0.0397  0.0572
 1580W        W 5780   5.437   5.016   2.878 -0.0101 -0.0899 -0.3812
 1581W        W 5781   8.025   3.220   3.809 -0.2092  0.2691 -0.0904
 1582W        W 5782   4.049   9.517  11.529  0.0092  0.0317 -0.1234
 1583W        W 5783   7.561   8.218   1.798 -0.1178 -0.0344 -0.1951
 1584W        W 5784   6.450   5.108   0.672 -0.2911 -0.1205 -0.0461
 1585W        W 5785  10.004   8.631  12.544  0.0471 -0.1270  0.0055
 1586W        W 5786   4.145   3.356   0.533 -0.0237  0.1376  0.0564
 1587W        W 5787   0.722   4.462  12.695  0.1189  0.0642 -0.0090
 1588W        W 5788   8.187   8.622   9.265 -0.0968  0.1384  0.1455
 1589W        W 5789   5.648  10.105   9.451 -0.0520 -0.0813 -0.0697
 1590W        W 5790   2.946   8.731  10.645 -0.1127 -0.4824  0.2404
 1591W        W 5791   0.117   9.252   3.128 -0.1942  0.2340  0.3391
 1592W        W 5792   5.265   0.809   3.137 -0.0077  0.2357 -0.1558
 1593W        W 5793   2.379   4.433  13.065  0.0974 -0.0794 -0.0824
 1594W        W 5794   3.393   8.098  11.270  0.0007 -0.3442  0.0751
 1595W        W 5795   6.337   6.732  13.294 -0.0982  0.1160 -0.2794
 1596W        W 5796   5.543   0.604   4.566  0.0085  0.0134 -0.4050
 1597W        W 5797   8.425   9.264   0.354  0.2558  0.0600  0.0854
 1598W        W 5798  10.451   4.228  12.876  0.0333 -0.1844  0.0805
 1599W        W 5799   6.162   7.390   3.186 -0.0049 -0.1296  0.0211
 1600W        W 5800   4.603   4.675  13.405  0.0514  0.2001  0.0846
 1601W        W 5801  10.079   1.729   1.249  0.1454 -0.3075  0.1282
 1602W        W 5802   5.540   9.993   3.813 -0.2556 -0.1202  0.2168
 1603W        W 5803   8.892   9.218  13.333  0.2294  0.0792  0.2412
 1604W        W 5804   8.042   1.054  10.113 -0.2232 -0.0188  0.1028
 1605W        W 5805  10.192   3.839  13.126 -0.1985  0.1382 -0.2488
 1606W        W 5806   2.755   3.914   4.869 -0.2153  0.1943  0.2746
 1607W        W 5807   0.496   3.221   4.685 -0.0973  0.0353  0.0767
 1608W        W 5808   2.978   2.459  11.039 -0.0551  0.1039  0.2076
 1609W        W 5809   8.804   2.950   2.668  0.0419  0.1916  0.1353
 1610W        W 5810   1.225   4.107  11.980 -0.0786 -0.0259  0.1073
 1611W        W 5811   0.923   4.963   1.511 -0.0171  0.1944  0.1919
 1612W        W 5812   3.128   9.372   1.739 -0.0443  0.1814  0.1776
 1613W        W 5813   9.977   4.380   9.287 -0.0328 -0.1179  0.2527
 1614W        W 5814   6.875   9.911   0.254 -0.2243 -0.0859 -0.5724
 1615W        W 5815   8.235   5.955  13.158 -0.0636  0.1679 -0.0011
 1616W        W 5816   9.167   1.174   0.518 -0.1618  0.0369 -0.1042
 1617W        W 5817   2.074   6.509  12.313 -0.0485  0.1304  0.0066
 1618W        W 5818   6.174   6.155  10.511  0.1820  0.0459 -0.1503
 1619W        W 5819   2.147   5.320   0.365 -0.0303 -0.3366 -0.1326
 1620W        W 5820   1.416   6.140   1.188 -0.1850 -0.0148 -0.0669
 1621W        W 5821   9.218   9.641   2.256  0.1086  0.3245 -0.1552
 1622W        W 5822   7.290   7.935  12.734  0.2342 -0.1907 -0.2642
 1623W        W 5823   1.010   1.744   9.449 -0.1234 -0.2881  0.3152
 1624W        W 5824   0.513   1.516   9.517  0.0226 -0.1917 -0.1067
 1625W        W 5825   6.869   6.417   1.234 -0.2300 -0.0411  0.3084
 1626W        W 5826   7.315   3.555  12.842 -0.6912 -0.1398 -0.1442
 1627W        W 5827   2.796   7.674  11.821 -0.0379  0.0249 -0.0699
 1628W        W 5828   4.889   6.156  12.511  0.1810 -0.0336  0.2279
 1629W        W 5829  10.037   2.736  12.195  0.0934  0.1370  0.0664
 1630W        W 5830   4.479   2.825   2.218  0.0665 -0.2195  0.0207
 1631W        W 5831   6.118   6.338   1.228 -0.0847  0.1737 -0.1702
 1632W        W 5832   4.414   4.834   3.546 -0.1400  0.0945  0.0868
 1633W        W 5833   2.089   5.306   1.001 -0.1579  0.4047 -0.2505
 1634W        W 5834   0.067   6.347   0.069 -0.2226 -0.0790  0.0014
 1635W        W 5835   9.608   8.271   1.676 -0.1715 -0.1680 -0.0160
 1636W        W 5836   8.755   9.694   1.893 -0.0137 -0.0211 -0.3491
 1637W        W 5837   9.171   4.447   5.260  0.0349  0.0103  0.1458
 1638W        W 5838   2.441   2.699  10.071 -0.2062  0.1775  0.2672
 1639W        W 5839   9.663   0.190   4.037  0.0152  0.1569  0.2459
 1640W        W 5840   6.706   7.112  13.158 -0.0313  0.0133  0.0237
 1641W        W 5841   5.751   1.764  11.648  0.2013  0.0294  0.0111
 1642W        W 5842   7.526   1.316  11.635 -0.0103 -0.1462 -0.1304
 1643W        W 5843   3.094   0.839  10.803 -0.2417  0.1048 -0.1848
 1644W        W 5844   0.938   0.682   2.028  0.3353  0.2229 -0.4106
 1645W        W 5845   9.952   1.651  11.271  0.0616  0.1649 -0.2569
 1646W        W 5846   7.556   3.150  11.594  0.1370  0.3954 -0.0283
 1647W        W 5847   9.522   8.930   0.086  0.1198  0.0422  0.0847
 1648W        W 5848   7.941   4.949   9.647  0.1417 -0.3853 -0.1579
 1649W        W 5849   5.408   2.551  11.965  0.0677 -0.1412  0.5161
 1650W        W 5850   9.787   4.811   1.050 -0.2123  0.2236 -0.1325
 1651W        W 5851   4.173   8.118   2.016 -0.3336  0.1780  0.1908
 1652W        W 5852   9.746   4.308   2.437 -0.1434 -0.0786  0.1940
 1653W        W 5853   0.901   0.018  11.746  0.2317  0.3395  0.2832
 1654W        W 5854   8.798   0.110   4.684  0.2897  0.0870  0.2732
 1655W        W 5855   3.604   6.520  13.205  0.0412 -0.0451 -0.3018
 1656W        W 5856   4.557   0.262  12.238  0.1073 -0.0723 -0.0149
 1657W        W 5857   2.892   1.000   4.121 -0.0152  0.3280  0.0172
 1658W        W 5858   1.675   8.961  13.367 -0.0722  0.1669  0.0816
 1659W        W 5859   3.421   5.361   2.821 -0.1041 -0.3167  0.2957
 1660W        W 5860   2.885   1.729  12.357 -0.0390 -0.1331 -0.1546
 1661W        W 5861   2.068   4.125   4.457  0.0697 -0.1079 -0.3102
 1662W        W 5862   8.883   4.932  13.400  0.1301 -0.1296 -0.2844
 1663W        W 5863   5.219   9.796  13.355  0.0014  0.4877 -0.0612
 1664W        W 5864   5.336   2.922   5.277 -0.1603  0.0850 -0.0626
 1665W        W 5865   9.370   0.578   4.198  0.3582  0.0495  0.2065
 1666W        W 5866   9.174   4.311  10.480 -0.2097 -0.1519 -0.2525
 1667W        W 5867   2.917   9.325   9.326 -0.4274 -0.1205  0.0611
 1668W        W 5868   8.466   0.034  10.352 -0.1287 -0.1610  0.1888
 1669W        W 5869   6.498   1.787   2.134 -0.0819 -0.1048  0.2643
 1670W        W 5870   3.387   1.883  12.282  0.0991  0.0428  0.3089
 1671W        W 5871   2.919   7.964   0.346 -0.0422 -0.1556 -0.0926
 1672W        W 5872   8.171   9.332   9.987 -0.0738 -0.1129  0.1365
 1673W        W 5873   1.285   3.627  10.486 -0.3060  0.1935 -0.0943
 1674W        W 5874   3.530   7.408  11.828  0.0600  0.0415  0.0070
 1675W        W 5875   4.302   8.618  12.088  0.1484 -0.4656 -0.1900
 1676W        W 5876   9.754   7.748   1.331 -0.0868  0.0767 -0.0886
 1677W        W 5877   5.370   4.307  10.482 -0.3698 -0.0483  0.1257
 1678W        W 5878   3.698   6.705  12.181  0.2533 -0.0544  0.0140
 1679W        W 5879   8.790   4.752   9.283 -0.0343  0.2594  0.0220
 1680W        W 5880   7.308   5.716   3.407 -0.0150 -0.0817  0.0267
 1681W        W 5881   7.467   3.622  11.909 -0.0051 -0.1710  0.1251
 1682W        W 5882  10.170   0.793   2.412  0.3171  0.1473 -0.0876
 1683W        W 5883   0.088   4.833  13.274 -0.3389  0.2894  0.1881
 1684W        W 5884   3.273   0.076   0.558 -0.2076  0.1729 -0.1222
 1685W        W 5885   3.869   3.228   4.012  0.1862 -0.0524  0.4822
 1686W        W 5886   9.319   7.416  12.416  0.0789  0.0929 -0.1175
 1687W        W 5887   9.045   9.496   9.995  0.1889  0.1903 -0.0770
 1688W        W 5888   9.469   3.760   4.559 -0.1661  0.0155 -0.1665
 1689W        W 5889   1.752   4.757   2.962  0.1012 -0.3965  0.0907
 1690W        W 5890   4.431   1.456   0.050  0.1532  0.0036  0.0972
 1691W        W 5891   1.880   7.447  12.466 -0.2625 -0.0552 -0.0661
 1692W        W 5892   4.998   5.658   9.846  0.3988  0.1423 -0.0570
 1693W        W 5893   8.532   8.426   2.624  0.1339  0.1285 -0.2420
 1694W        W 5894   1.897   8.507  13.338  0.1713 -0.1953 -0.0767
 1695W        W 5895   6.391   3.181   0.446  0.0910 -0.1458 -0.1144
 1696W        W 5896   9.377   2.080   0.673  0.1163 -0.1742 -0.1140
 1697W        W 5897   8.657   6.242  12.769 -0.2664  0.1892  0.0411
 1698W        W 5898   8.509  10.091   1.534  0.2239  0.0999 -0.0898
 1699W        W 5899   0.383   7.782  11.235  0.0556  0.2014  0.2898
 1700W        W 5900   5.291   2.171  10.174  0.0060  0.0868 -0.1900
 1701W        W 5901   6.011   3.488   1.231 -0.0850  0.2188 -0.1702
 1702W        W 5902   1.537   8.499   3.812  0.0546 -0.0953  0.0330
 1703W        W 5903   7.516   2.464   2.055  0.1089  0.0934  0.2401
 1704W        W 5904   8.994   0.123   1.972  0.2140 -0.1161 -0.4083
 1705W        W 5905   2.713   2.681   1.661  0.0318 -0.0505  0.2013
 1706W        W 5906   4.822   5.233   0.297  0.1222 -0.0359 -0.0440
 1707W        W 5907   5.781   7.135  12.688 -0.2455 -0.1375 -0.0059
 1708W        W 5908   0.284   9.176   3.744 -0.0358 -0.2633  0.0217
 1709W        W 5909   6.150   6.706  10.242  0.2672 -0.3172  0.0638
 1710W        W 5910   2.214   5.529  13.303  0.0439  0.1682  0.0146
 1711W        W 5911   9.754   9.051   0.504  0.2767 -0.0486  0.4535
 1712W        W 5912   4.850   3.179  13.290  0.1591  0.2369 -0.0554
 1713W        W 5913   8.563  10.340  11.726  0.0254  0.1491  0.1536
 1714W        W 5914  10.071   9.623  11.314  0.1134  0.2667  0.1439
 1715W        W 5915   8.903   6.858  11.650  0.1094 -0.1858 -0.0577
 1716W        W 5916   0.696   7.433   2.944 -0.4137  0.2523 -0.1645
 1717W        W 5917   4.363   6.278   0.980 -0.0991  0.0298  0.0902
 1718W        W 5918   7.574   0.258   1.013 -0.0695  0.1254 -0.4695
 1719W        W 5919   0.824   2.609   1.531  0.1194 -0.0924  0.0742
 1720W        W 5920   1.615   0.579   2.127 -0.1588 -0.0103 -0.0175
 1721W        W 5921   0.974  10.226   4.820 -0.2359 -0.0851  0.0102
 1722W        W 5922   0.531   5.733   0.489 -0.1162 -0.0592 -0.1113
 1723W        W 5923   9.624   4.972  12.272  0.1388 -0.0781  0.1491
 1724W        W 5924   6.047   6.217  12.434  0.2377 -0.0236 -0.2435
 1725W        W 5925   9.860   2.159   4.619 -0.0614  0.0205 -0.1318
 1726W        W 5926   4.796   1.803   1.828 -0.0051  0.3391  0.1088
 1727W        W 5927   4.377   4.289   0.117  0.2639  0.1758  0.1839
 1728W        W 5928  10.297   2.305  12.300 -0.0702  0.0964  0.0743
 1729W        W 5929   0.328   8.809   3.335  0.1028 -0.0040  0.2411
 1730W        W 5930   9.780   6.611   3.013 -0.0876  0.2470  0.0411
 1731W        W 5931   1.666   5.267   2.745  0.1761 -0.3634 -0.0164
 1732W        W 5932   4.104   2.549  10.812 -0.2457 -0.2797  0.0799
 1733W        W 5933   4.193   9.845  11.235 -0.1417 -0.0719 -0.2881
 1734W        W 5934   5.922   8.058   3.769  0.2057 -0.0211  0.0003
 1735W        W 5935   1.536   2.841   2.095  0.0441 -0.2745  0.0108
 1736W        W 5936   3.377   1.254   4.055  0.3909  0.0166  0.0739
 1737W        W 5937   0.809   7.031   3.794 -0.1427 -0.0991 -0.3040
 1738W        W 5938   6.922   5.023   3.151 -0.0406 -0.1917  0.1208
 1739W        W 5939   4.897   2.878   4.365 -0.0277  0.2962  0.2222
 1740W        W 5940   7.732   1.206   0.114 -0.0974 -0.2064  0.0426
 1741W        W 5941   9.230   3.539   2.090  0.4943  0.1582  0.3486
 1742W        W 5942  10.375   1.013  11.765 -0.3434  0.2726  0.0724
 1743W        W 5943   1.971   3.133   9.929  0.0558  0.1231 -0.3247
 1744W        W 5944   2.548   4.610   1.542 -0.2762 -0.2359  0.2833
 1745W        W 5945   1.122   0.322   0.462 -0.1578 -0.0718 -0.1355
 1746W        W 5946   3.918   0.343  10.150  0.1075 -0.0276  0.1406
 1747W        W 5947  10.429   6.773  10.001  0.1438  0.0260 -0.0437
 1748W        W 5948   2.058   8.120  12.529  0.3069 -0.1470 -0.2631
 1749W        W 5949   7.380   3.869  12.429  0.0709 -0.1966 -0.1387
 1750W        W 5950   9.853   0.442  10.080  0.0272  0.0139 -0.4030
 1751W        W 5951   8.226   2.552  10.128 -0.3787  0.1267  0.2054
 1752W        W 5952   7.362   8.755   9.739  0.1241  0.0695 -0.1242
 1753W        W 5953   6.255   8.755   1.018 -0.1588  0.0233  0.4627
 1754W        W 5954   8.258   2.225   2.565 -0.0512  0.1344 -0.3080
 1755W        W 5955   9.113   6.439   0.336  0.0850  0.4155  0.0345
 1756W        W 5956   5.568   9.049   0.397 -0.0804 -0.0281 -0.0128
 1757W        W 5957   6.535   4.280   0.298  0.2193 -0.3318 -0.2777
 1758W        W 5958  10.284   3.754   4.064  0.1557 -0.1355  0.4096
 1759W        W 5959   8.485   0.349   9.772  0.3384  0.0191 -0.1185
 1760W        W 5960   3.173   6.138  11.871 -0.0951  0.1583  0.2483
 1761W        W 5961   6.056   1.748   0.676 -0.2160 -0.0642  0.0228
 1762W        W 5962   7.278   8.071   9.378 -0.1812 -0.0912  0.1205
 1763W        W 5963   0.704   4.333   0.161 -0.0277 -0.1584 -0.1068
 1764W        W 5964   1.204   8.193   9.316  0.2228 -0.0102 -0.1269
 1765W        W 5965   3.313   1.042   8.704  0.2959  0.1893  0.3514
 1766W        W 5966   5.558  10.102  10.610 -0.1124 -0.2528 -0.3542
 1767W        W 5967   6.757   5.254   3.946  0.0647 -0.2152  0.1179
 1768W        W 5968   9.081   3.995   1.877  0.1894 -0.2855  0.4117
 1769W        W 5969   6.698   2.018   8.778  0.2766 -0.0569  0.0878
 1770W        W 5970   7.174   4.412   4.332  0.0322  0.0482 -0.1623
 1771W        W 5971   7.731   9.062  12.195  0.0825 -0.0326 -0.3603
 1772W        W 5972   4.557   5.635  12.445  0.2614  0.1245  0.0119
 1773W        W 5973   4.156   2.164  11.226 -0.0464  0.2578 -0.0447
 1774W        W 5974   5.835   9.641   2.356 -0.0185 -0.2296 -0.3136
 1775W        W 5975   4.730   2.144   3.768 -0.0003  0.1011  0.0515
 1776W        W 5976   4.737   9.783   0.762  0.0557  0.2518 -0.0696
 1777W        W 5977   4.226  10.132   2.415 -0.1031 -0.1908 -0.3538
 1778W        W 5978   2.713   0.824  12.263 -0.1413 -0.2316 -0.2718
 1779W        W 5979   9.456   4.490  13.109  0.2460  0.1173 -0.2106
 1780W        W 5980   1.654   6.631   1.345  0.1835 -0.2217 -0.1093
 1781W        W 5981   0.156   8.059   1.425  0.0712  0.1426 -0.0373
 1782W        W 5982   3.848   0.340   0.933 -0.0459 -0.1669  0.3028
 1783W        W 5983   1.475   3.482   0.648 -0.1157  0.0668 -0.3921
 1784W        W 5984  10.287   0.667   1.130  0.0099 -0.0364 -0.1727
 1785W        W 5985  10.241   2.529   2.757 -0.2452  0.0825  0.0974
 1786W        W 5986   9.287   4.947  10.402 -0.0149 -0.0388 -0.0091
 1787W        W 5987  10.137   2.520   0.990  0.1877 -0.1615  0.1602
 1788W        W 5988   6.682   5.665   4.239 -0.2358 -0.0907  0.0539
 1789W        W 5989   2.808   4.297  10.806  0.2459 -0.1996  0.3931
 1790W        W 5990   7.797   7.067   2.687  0.0856 -0.0731 -0.4510
 1791W        W 5991   4.730   7.256  11.723 -0.0358  0.1815 -0.3747
 1792W        W 5992   0.463   0.313   0.259  0.0574  0.0709  0.1051
 1793W        W 5993   3.054   0.101   9.139  0.0902  0.1753  0.1173
 1794W        W 5994   9.545   3.891   2.244 -0.1101 -0.4166  0.1132
 1795W        W 5995   4.591   8.609  12.878  0.3256  0.0719  0.3741
 1796W        W 5996   1.205   5.555   0.756  0.0167  0.1418  0.3085
 1797W        W 5997   5.510   4.189   9.797  0.3229  0.3570  0.1225
 1798W        W 5998   9.829   0.821   9.221 -0.0009 -0.2264 -0.1167
 1799W        W 5999   1.124   6.571   1.469 -0.2877 -0.3213 -0.1640
 1800W        W 6000   8.557   6.779  12.621  0.4276 -0.2500  0.0905
 1801W        W 6001   6.045   9.435  11.501  0.1100  0.3165  0.0897
 1802W        W 6002   6.004   0.213   3.171  0.1356  0.0274 -0.0705
 1803W        W 6003   8.079   3.540  10.830 -0.6802  0.0804 -0.2127
 1804W        W 6004  10.378   0.456   3.643  0.0876 -0.1334  0.1458
 1805W        W 6005   3.383   0.574   3.168  0.1742  0.2031 -0.1988
 1806W        W 6006   5.834   6.700   2.289  0.3397  0.2234  0.0263
 1807W        W 6007   7.474   3.167   0.060 -0.0613  0.1228 -0.2433
 1808W        W 6008   9.458   5.739  10.196  0.2692 -0.1683  0.1968
 1809W        W 6009   3.097   1.666   8.745 -0.2519 -0.1489 -0.0536
 1810W        W 6010   2.035   1.874  10.243  0.0005 -0.2066 -0.0712
 1811W        W 6011   3.031   9.083   2.124  0.3510 -0.2287  0.3041
 1812W        W 6012   0.081   3.727  12.716 -0.2317  0.1523  0.0942
 1813W        W 6013   2.506   5.248   2.319  0.0762  0.2587  0.0309
 1814W        W 6014   7.574   1.820   2.980  0.1993 -0.1100  0.2890
 1815W        W 6015   8.110   1.911  12.640  0.0459 -0.1322  0.0678
 1816W        W 6016   9.231   3.097  12.972  0.1802  0.1794 -0.0982
 1817W        W 6017   8.299   8.997  13.430  0.0606  0.1456  0.0474
 1818W        W 6018   0.515   3.660   4.449  0.0851  0.0276 -0.1251
 1819W        W 6019   1.735   2.405  12.182  0.3489  0.2618  0.0038
 1820W        W 6020   4.600  10.018   2.076  0.2209  0.2749  0.1124
 1821W        W 6021   9.983   6.282  10.711  0.1264 -0.0588  0.2903
 1822W        W 6022   5.697   2.298  12.265 -0.1400  0.1959 -0.0230
 1823W        W 6023   8.072   1.582  13.409 -0.2118  0.0433  0.1225
 1824W        W 6024   2.272   5.697  10.768  0.0720  0.2445  0.0903
 1825W        W 6025   3.067   1.216   3.694  0.2014 -0.0696  0.0751
 1826W        W 6026   4.310  10.246  12.663  0.3259 -0.0026  0.2134
 1827W        W 6027   5.253   4.542   2.915  0.3006 -0.0864  0.1917
 1828W        W 6028   0.069   3.838   3.574  0.0958 -0.1202 -0.0999
 1829W        W 6029   7.488   6.652   0.505  0.0602  0.0071  0.0169
 1830W        W 6030   5.679   4.746   1.357  0.0379  0.0034  0.4767
 1831W        W 6031   3.664   2.817   9.483  0.1642  0.1513 -0.0081
 1832W        W 6032  10.380   8.819   0.149  0.1638 -0.0514 -0.1166
 1833W        W 6033   0.081   3.137  13.269 -0.1863  0.1110  0.1296
 1834W        W 6034   5.397   9.272   4.218  0.0936 -0.3820 -0.0638
 1835W        W 6035   1.094   6.146   3.704  0.0278 -0.1432 -0.3399
 1836W        W 6036   9.267  10.317  11.247 -0.1884  0.2236  0.3487
 1837W        W 6037   4.937   3.426  10.392 -0.1215 -0.3080  0.0878
 1838W        W 6038   7.671   8.530  13.085 -0.2353  0.1119 -0.0591
 1839W        W 6039   1.843   9.899  13.155  0.1239 -0.0548 -0.1657
 1840W        W 6040   5.788   1.306  10.564  0.3505 -0.0153 -0.0184
 1841W        W 6041   9.882   9.703   9.599  0.0793 -0.0624  0.0837
 1842W        W 6042   5.769   6.783   9.921  0.0313  0.1266 -0.1903
 1843W        W 6043   7.468   0.663  10.696  0.0076  0.1530 -0.1134
 1844W        W 6044   9.755   3.565  12.052  0.2330  0.1170  0.1502
 1845W        W 6045   9.090   6.725  12.587  0.0529 -0.0011 -0.3797
 1846W        W 6046   9.980   9.353   3.710 -0.3734  0.0566  0.2866
 1847W        W 6047   1.258   1.164   2.722  0.2211  0.1640  0.0139
 1848W        W 6048   2.981   3.271   1.680  0.1057 -0.0612  0.1775
 1849W        W 6049   9.183   1.613   0.676  0.0268  0.0184  0.1203
 1850W        W 6050   6.822   3.787  12.762 -0.4789  0.0020 -0.1708
 1851W        W 6051   7.306   9.606   9.403  0.0061  0.2926 -0.1897
 1852W        W 6052   1.116   9.791  12.646  0.3087  0.1425  0.3512
 1853W        W 6053   9.646   6.606  11.172 -0.4299  0.0044 -0.0388
 1854W        W 6054   4.879   5.810   2.546  0.0413 -0.0844  0.0643
 1855W        W 6055   2.565   9.961   0.395 -0.0335  0.1430 -0.1880
 1856W        W 6056   9.365  10.427   1.155  0.0833  0.0118 -0.1371
 1857W        W 6057   9.285   1.703   9.840 -0.2119 -0.1048  0.0465
 1858W        W 6058   5.444   7.255  10.301 -0.0938  0.0954  0.1804
 1859W        W 6059   1.561   4.661   0.376 -0.0630 -0.0316 -0.1804
 1860W        W 6060   5.347   7.997   2.760 -0.1205 -0.2189  0.3394
 1861W        W 6061   2.829   6.655   2.242 -0.1210  0.0860  0.0669
 1862W        W 6062   4.532   0.246   9.781 -0.0309 -0.2654  0.1094
 1863W        W 6063   0.779   8.773  11.011  0.1119  0.0455  0.1593
 1864W        W 6064   0.458   8.071   0.611 -0.0617 -0.0549 -0.0989
 1865W        W 6065   4.000   3.063   3.087 -0.1513 -0.1035 -0.1696
 1866W        W 6066   1.496   2.292   4.050 -0.0667 -0.0849 -0.0771
 1867W        W 6067  10.469   2.923   2.551  0.0455  0.3494  0.3660
 1868W        W 6068   8.774   4.460  11.987  0.3167 -0.4985  0.0566
 1869W        W 6069  10.050   4.864  12.081 -0.1756  0.2927 -0.0172
 1870W        W 6070   6.578   0.375  12.323 -0.1826 -0.1686 -0.1235
 1871W        W 6071   0.708  10.288   4.363  0.0567 -0.1374 -0.0447
 1872W        W 6072   1.810  10.342   2.525  0.0709 -0.1200  0.1237
 1873W        W 6073   0.116   0.664   7.946  0.1130 -0.1903  0.5572
 1874W        W 6074   6.557   5.076  10.096 -0.4355 -0.0343 -0.1833
 1875W        W 6075   4.534   6.379  11.768 -0.0323  0.1072 -0.0980
 1876W        W 6076  10.204   3.796   0.897  0.1191  0.0168  0.3157
 1877W        W 6077   0.680   8.307  12.080 -0.2955  0.0583  0.0034
 1878W        W 6078   0.062   4.520   9.325  0.2159  0.1911 -0.1401
 1879W        W 6079   5.093   5.278   2.450 -0.2117 -0.2510  0.2553
 1880W        W 6080   9.324   8.884  12.420  0.0888 -0.1833  0.3177
 1881W        W 6081   6.732   3.127  12.371  0.2178 -0.0973  0.1712
 1882W        W 6082   6.085  10.029  12.114  0.0006 -0.0367 -0.0324
 1883W        W 6083   1.160   4.310   3.505  0.0202  0.0331 -0.0565
 1884W        W 6084   1.686   0.324   0.453 -0.1362 -0.0508  0.0245
 1885W        W 6085   2.141   5.200   3.654 -0.1084 -0.0903  0.0039
 1886W        W 6086   3.777   4.287  12.629 -0.2524  0.0123 -0.0008
 1887W        W 6087   5.803   3.221   9.381  0.1440 -0.1047 -0.0996
 1888W        W 6088   3.699   3.143  11.878 -0.1155 -0.0774  0.3302
 1889W        W 6089   5.686   9.742   0.951  0.2185 -0.0824 -0.1378
 1890W        W 6090   2.501   9.384   3.821  0.3581  0.0043 -0.0842
 1891W        W 6091   7.320   6.402   1.015 -0.4654  0.1313  0.1008
 1892W        W 6092   7.419   0.697   0.969 -0.0483 -0.2189  0.1323
 1893W        W 6093   8.549   8.966  10.287 -0.1326 -0.1978 -0.1158
 1894W        W 6094   9.618   5.798   8.862 -0.2509 -0.1297  0.0183
 1895W        W 6095   2.956   7.794  12.909 -0.1418 -0.1526 -0.1295
 1896W        W 6096  10.198   7.185   9.846  0.1325 -0.0664  0.1118
 1897W        W 6097   7.481   2.647  12.559 -0.1697  0.4184 -0.1709
 1898W        W 6098   8.709   7.745   1.817 -0.0900  0.1581 -0.2009
 1899W        W 6099   7.595   8.854   9.220 -0.0396 -0.0274  0.0564
 1900W        W 6100   6.498   2.457  10.310 -0.0380  0.0475  0.0748
 1901W        W 6101   0.901   1.245  10.317 -0.0506  0.0586 -0.0279
 1902W        W 6102   9.962   6.457   2.582 -0.0316 -0.0768 -0.0827
 1903W        W 6103   8.221   2.692   8.181  0.2365 -0.0223  0.2253
 1904W        W 6104   0.199   0.794   2.005 -0.1742 -0.3483 -0.1409
 1905W        W 6105   6.555   8.763  11.298 -0.2315  0.0272 -0.1902
 1906W        W 6106   3.190   0.330  10.509  0.0759 -0.1096 -0.2490
 1907W        W 6107   3.711   7.929   2.853 -0.2868  0.0233  0.0759
 1908W        W 6108   2.900   7.996   9.751 -0.2690 -0.1867  0.3431
 1909W        W 6109   9.663   6.435  12.831  0.0472  0.3257 -0.0659
 1910W        W 6110   5.019   0.979   4.016  0.0043 -0.1325 -0.0412
 1911W        W 6111   7.069   3.513   2.742  0.1255  0.2197 -0.4024
 1912W        W 6112   9.716   3.160   3.344 -0.2870 -0.1380  0.0736
 1913W        W 6113   6.270   2.098   3.681 -0.1546 -0.0682 -0.1377
 1914W        W 6114   0.776   8.832  12.818 -0.0232 -0.0411  0.0256
 1915W        W 6115   9.414   0.417  13.419  0.2100  0.1207 -0.1528
 1916W        W 6116   1.359   9.386   0.514  0.1697  0.1772  0.0928
 1917W        W 6117   3.486   9.770   2.491 -0.1981 -0.0340 -0.3859
 1918W        W 6118   9.118   1.982  11.637 -0.0379 -0.4420 -0.3330
 1919W        W 6119   4.225   0.777  10.062  0.0255 -0.1113 -0.1600
 1920W        W 6120   0.431   0.120   3.343 -0.0527  0.1001  0.2110
 1921W        W 6121   1.085   7.632   0.383  0.0880 -0.2140  0.2337
 1922W        W 6122  10.275   7.812   0.036 -0.3661 -0.0125  0.1174
 1923W        W 6123   5.680   5.276  12.636  0.1318 -0.0790  0.1849
 1924W        W 6124   2.896   1.454   1.859 -0.1241  0.0964 -0.1943
 1925W        W 6125   1.391   8.801   1.418 -0.1227  0.0707  0.0041
 1926W        W 6126   9.002   3.580   3.872  0.0343 -0.1310  0.1047
 1927W        W 6127   5.727   5.063  11.073  0.2166 -0.0383  0.3128
 1928W        W 6128   7.163   2.019   2.733  0.0131 -0.0185 -0.2130
 1929W        W 6129   3.666   7.524  10.391 -0.0022  0.0857  0.4359
 1930W        W 6130   0.862   4.871   3.235 -0.0430  0.1835 -0.1073
 1931W        W 6131   8.950   8.742   2.196  0.0691 -0.0547  0.0346
 1932W        W 6132   3.848   2.600  12.989 -0.1838  0.1168 -0.2483
 1933W        W 6133   9.556   8.240   3.214 -0.0066  0.2770 -0.0546
 1934W        W 6134   7.829   0.358   1.804  0.2002  0.0045 -0.0978
 1935W        W 6135   0.190   7.127   2.333 -0.1168 -0.0111  0.3970
 1936W        W 6136   6.597   7.807  10.531  0.1747 -0.2979 -0.1341
 1937W        W 6137   1.277   9.308   2.142  0.0174  0.2779  0.1964
 1938W        W 6138   1.617   9.965  11.244  0.1061 -0.0062 -0.0511
 1939W        W 6139   6.784   1.245  11.962  0.2428  0.1299 -0.0253
 1940W        W 6140   6.595   7.744  13.423  0.0732  0.3833  0.2772
 1941W        W 6141   6.738   6.962  10.006 -0.0314  0.1944  0.2629
 1942W        W 6142   9.803   4.619   4.348  0.1795 -0.1121  0.0114
 1943W        W 6143  10.429   9.545  10.452 -0.1070 -0.2639 -0.0614
 1944W        W 6144   5.850   3.086   4.580 -0.1464 -0.1264 -0.0890
 1945W        W 6145   3.763   0.369   2.943 -0.1064 -0.0666 -0.4497
 1946W        W 6146   1.806  10.351   8.506  0.1151  0.0801  0.0139
 1947W        W 6147   4.994   1.406   1.649  0.0317  0.0670  0.3054
 1948W        W 6148   6.684   4.666   0.686  0.0801  0.1205 -0.2179
 1949W        W 6149   6.843   7.307  11.169  0.1456 -0.2897  0.1647
 1950W        W 6150   7.178   6.445   2.412 -0.0700 -0.0891 -0.2121
 1951W        W 6151   4.162   0.755   9.274  0.0417  0.0025  0.0252
 1952W        W 6152   2.799   3.998   3.152  0.3597  0.2948  0.2447
 1953W        W 6153   8.057   6.932  13.065  0.0216 -0.1334 -0.1750
 1954W        W 6154   9.126   9.067   9.776  0.0599 -0.0786 -0.1234
 1955W        W 6155   6.288   9.479  12.052 -0.2518 -0.0809 -0.2257
 1956W        W 6156   7.124  10.456   1.357 -0.0367 -0.1484 -0.1126
 1957W        W 6157   5.815   1.251   2.183  0.0987 -0.2039 -0.1120
 1958W        W 6158   6.350   7.055  12.752  0.3528  0.1846  0.0619
 1959W        W 6159   4.460   2.444   4.078  0.1468 -0.0498  0.1114
 1960W        W 6160   8.856   5.639   4.908  0.0118  0.0116 -0.1381
 1961W        W 6161   0.693   6.717   0.268  0.0577 -0.0255  0.0756
 1962W        W 6162   0.854   3.310   2.365  0.3012 -0.0472 -0.1250
 1963W        W 6163   1.195   3.985   9.178  0.3278  0.0920 -0.0388
 1964W        W 6164   9.345   8.629   9.720  0.2320  0.1123  0.1668
 1965W        W 6165   9.037   2.987  12.451 -0.2373 -0.2533  0.0733
 1966W        W 6166  10.384   7.198   4.874 -0.0222 -0.1159  0.3300
 1967W        W 6167   8.837   8.728   9.467  0.0630  0.1999  0.1657
 1968W        W 6168   2.427   4.781   3.718  0.0164  0.1062  0.0798
 1969W        W 6169   1.129   6.038  11.833 -0.1156  0.1618  0.2634
 1970W        W 6170   1.865   5.791   1.008  0.2421  0.1136 -0.2790
 1971W        W 6171   7.465   7.188   0.554  0.0863 -0.0944  0.1614
 1972W        W 6172   6.310   7.056   3.765 -0.2200 -0.1592  0.2115
 1973W        W 6173   5.740   5.556  11.750  0.2740 -0.1811 -0.4232
 1974W        W 6174  10.451   0.912   5.172  0.4316 -0.0721 -0.1707
 1975W        W 6175   5.754   7.527  10.589  0.1650 -0.1773  0.1335
 1976W        W 6176   5.539   0.546   1.569 -0.1183 -0.1398  0.1073
 1977W        W 6177   9.869   5.067   2.479 -0.1601  0.1267  0.1958
 1978W        W 6178   1.346   4.218   2.184  0.1627  0.1483 -0.0363
 1979W        W 6179   9.428   7.543   3.159  0.0332  0.1513  0.1424
 1980W        W 6180   0.440   7.154   9.278 -0.0554 -0.1303 -0.2991
 1981W        W 6181   2.187   7.494   1.412 -0.1583  0.0584  0.0412
 1982W        W 6182   5.055   5.634  13.286 -0.0881 -0.0612 -0.0728
 1983W        W 6183   9.233   1.883   1.107 -0.0712 -0.2672 -0.1832
 1984W        W 6184   4.710   5.253   3.334  0.1341  0.0649 -0.1442
 1985W        W 6185   9.073   6.924   1.200 -0.0589  0.0146 -0.1053
 1986W        W 6186   5.383   2.563   9.129 -0.3654 -0.0835 -0.0034
 1987W        W 6187   3.425   9.993   2.936  0.0721  0.1370  0.0627
 1988W        W 6188  10.393   5.994  13.204  0.0696  0.3177  0.1480
 1989W        W 6189   9.274   5.472   9.019  0.2927 -0.3811  0.0825
 1990W        W 6190   1.233   2.684   3.777 -0.2031 -0.0816  0.0949
 1991W        W 6191   2.529  10.229   4.120  0.0688 -0.0816 -0.0794
 1992W        W 6192   1.313   4.997   3.095 -0.0288 -0.1824 -0.0601
 1993W        W 6193   1.386   9.320   8.400  0.2655  0.0196  0.1748
 1994W        W 6194   9.821   8.716   1.491 -0.2249  0.0613 -0.0594
 1995W        W 6195   2.370   6.103  12.026  0.1152 -0.1709 -0.0262
 1996W        W 6196   7.070   3.016   9.340  0.2392  0.1663 -0.0447
 1997W        W 6197   3.127   0.901   1.828 -0.2978  0.5303  0.3774
 1998W        W 6198   4.639   1.590   3.108 -0.1260 -0.0972 -0.0927
 1999W        W 6199   2.275   4.758   2.567 -0.0331  0.0682 -0.0115
 2000W        W 6200  10.165   9.985   8.071  0.0944  0.2446 -0.0101
 2001W        W 6201   8.140   7.060   2.388 -0.2027 -0.0432  0.1620
 2002W        W 6202   1.460   4.467   3.924 -0.1541  0.0583  0.1727
 2003W        W 6203   2.978   5.839  11.421 -0.2385  0.0929  0.1088
 2004W        W 6204   7.496   3.031  12.865  0.1640  0.1426  0.2868
 2005W        W 6205   6.219   5.363   2.244 -0.0759 -0.0945 -0.0192
 2006W        W 6206   0.976   1.229   2.360 -0.1085  0.0446 -0.3332
 2007W        W 6207   7.386   6.962   3.827 -0.1434  0.1105  0.2037
 2008W        W 6208   5.340   7.393   0.162 -0.1077 -0.1192  0.1059
 2009W        W 6209   3.334   8.465  12.110 -0.1179  0.0690  0.0009
 2010W        W 6210   0.519   4.111  10.972 -0.4165 -0.2425 -0.0992
 2011W        W 6211   1.864   0.764   8.762  0.0362  0.1131  0.1850
 2012W        W 6212   0.581   5.205  11.206 -0.0300 -0.0068  0.1339
 2013W        W 6213   9.815   5.885  12.084 -0.1263  0.2678 -0.0893
 2014W        W 6214   2.322   5.482   3.285 -0.0696 -0.0438  0.2021
 2015W        W 6215   9.430   0.272  10.962  0.0092 -0.0031 -0.3285
 2016W        W 6216   0.692   4.131   1.104  0.1155 -0.2008  0.2235
 2017W        W 6217  10.085   4.203   2.058  0.4407  0.0818 -0.2013
 2018W        W 6218   2.371   5.736   1.179 -0.0718  0.0802 -0.2617
 2019W        W 6219   4.032   2.341  11.816 -0.2973 -0.0145  0.2017
 2020W        W 6220   3.547   9.651   0.059 -0.1189 -0.1204 -0.2630
 2021W        W 6221   3.310   3.219   9.561 -0.1529  0.1059 -0.0085
 2022W        W 6222  10.147   0.107   1.590 -0.0567  0.0550  0.1016
 2023W        W 6223   6.874   3.403   3.317  0.1036 -0.2225  0.1589
 2024W        W 6224   2.894  10.172   1.398  0.0062  0.0977  0.0300
 2025W        W 6225   9.769   0.239   1.257 -0.2976 -0.0203  0.0805
 2026W        W 6226   0.455   4.357  10.169 -0.0949  0.0201 -0.0812
 2027W        W 6227   2.557   5.729   0.131 -0.2253 -0.2098  0.3196
 2028W        W 6228   2.638   0.604   3.801  0.0925  0.5260 -0.1414
 2029W        W 6229   2.422   2.137   4.967 -0.2186  0.1492 -0.2324
 2030W        W 6230   1.044   8.837   2.847 -0.1148  0.1518  0.1487
 2031W        W 6231   9.150   7.741   4.843 -0.0151  0.0450  0.2222
 2032W        W 6232   8.381   8.794  12.703  0.0368  0.1889  0.1342
 2033W        W 6233   2.148   8.567   9.565  0.0731 -0.1526 -0.2209
 2034W        W 6234  10.034   4.564   3.776 -0.3173 -0.2737 -0.2222
 2035W        W 6235   4.779   6.199   1.359 -0.2653  0.2284  0.2990
 2036W        W 6236   3.766   2.734   9.031 -0.0439 -0.2468 -0.4817
 2037W        W 6237   7.054   8.374   9.722 -0.0924 -0.2011  0.2319
 2038W        W 6238   2.177   7.600   4.187  0.0132  0.0789 -0.2622
 2039W        W 6239   1.465   3.267  13.435  0.1104  0.4450  0.0781
 2040W        W 6240   0.122   2.555  11.861 -0.2746 -0.0459  0.2191
 2041W        W 6241   0.190   3.998   0.206  0.1871 -0.2049 -0.2618
 2042W        W 6242   9.838   1.149  11.056 -0.1006 -0.1552 -0.2132
 2043W        W 6243   2.764   1.735   0.152 -0.1053  0.0619 -0.0508
 2044W        W 6244   6.537   6.415  10.141 -0.2933 -0.2866  0.2217
 2045W        W 6245   3.365   6.601   3.025 -0.0431 -0.0086  0.0775
 2046W        W 6246   9.475  10.209  11.671  0.0804 -0.2805 -0.1091
 2047W        W 6247   4.464   3.911  12.319 -0.0631 -0.1265 -0.1492
 2048W        W 6248   5.568   0.722   2.297 -0.0642 -0.1150 -0.1035
 2049W        W 6249   7.800   0.795   9.261  0.0619  0.1617 -0.1224
 2050W        W 6250   8.011   2.455   1.347  0.1819  0.1554 -0.0511
 2051W        W 6251   3.238   5.829  10.932 -0.0662 -0.0345  0.0280
 2052W        W 6252   1.376   1.392   1.473  0.0324  0.2858 -0.0348
 2053W        W 6253   4.102   1.799   0.174 -0.1340  0.1289 -0.4509
 2054W        W 6254   9.022   8.097   8.941  0.2282 -0.1151  0.0891
 2055W        W 6255   9.697   9.110  11.166  0.1689 -0.3208  0.0242
 2056W        W 6256   4.953   6.867   2.728 -0.0131 -0.2336  0.1213
 2057W        W 6257   6.080   3.032  13.175  0.0961  0.1188 -0.3984
 2058W        W 6258   7.480   7.726   0.198  0.0064  0.3870 -0.1458
 2059W        W 6259   6.177   2.942   9.043 -0.0548  0.1124  0.3794
 2060W        W 6260   9.992   8.720  13.255 -0.0889  0.0587 -0.2053
 2061W        W 6261   9.009   0.791   0.115  0.0186 -0.0084  0.1422
 2062W        W 6262   2.939   9.761  12.611  0.0260 -0.2632  0.0238
 2063W        W 6263   1.718  10.217   9.467  0.0799 -0.1615  0.1477
 2064W        W 6264   5.706  10.248   1.085  0.0907  0.0978  0.0924
 2065W        W 6265   2.903  10.172   3.594  0.3896  0.3363  0.0752
 2066W        W 6266   8.453   3.307   9.633 -0.2103 -0.0300 -0.1474
 2067W        W 6267   9.534   8.514  10.343  0.1051 -0.2871  0.2387
 2068W        W 6268   6.454   0.347   4.121 -0.0641  0.2283 -0.0527
 2069W        W 6269  10.175   8.924   3.027 -0.0489 -0.0666  0.1643
 2070W        W 6270   9.062   4.118  10.037 -0.0319  0.0540  0.1398
 2071W        W 6271   9.032  10.114   3.777 -0.0635 -0.1379  0.0392
 2072W        W 6272   1.018   5.737   3.455  0.1144 -0.1892 -0.0614
 2073W        W 6273   1.266   0.368   5.228  0.1153  0.0220  0.1197
 2074W        W 6274   6.075   6.227   0.000  0.0746  0.2611 -0.0265
 2075W        W 6275   3.069   3.825  10.675 -0.1364 -0.1308 -0.2177
 2076W        W 6276   9.508   7.671   0.480  0.1486  0.1350  0.1468
 2077W        W 6277   1.992   2.954   9.439 -0.0619  0.2072 -0.2866
 2078W        W 6278   4.888   4.475  13.044  0.1372  0.3115  0.0060
 2079W        W 6279   3.219   4.146   9.384 -0.2417  0.0236  0.0399
 2080W        W 6280   9.456   0.932   8.894  0.0850 -0.0143  0.1323
 2081W        W 6281   7.474   6.648  13.434  0.3571 -0.0785  0.3997
 2082W        W 6282   5.341   9.725  10.299  0.1179  0.1100  0.3344
 2083W        W 6283  10.282   0.025   4.975  0.0108 -0.1528 -0.2921
 2084W        W 6284   9.180   8.937   0.506 -0.3077  0.0617  0.1795
 2085W        W 6285   3.507   1.911   9.599 -0.3239 -0.1392 -0.0611
 2086W        W 6286   8.981   5.619  12.599  0.1500  0.1691 -0.0119
 2087W        W 6287   4.905   8.042   3.505 -0.2010  0.0915 -0.3045
 2088W        W 6288   0.640   6.753  12.417  0.1868 -0.2896  0.0059
 2089W        W 6289   5.880   4.508  12.805  0.3761  0.1305  0.0453
 2090W        W 6290   1.843   5.231   3.253  0.3009  0.0645  0.1748
 2091W        W 6291   3.399   2.410  12.843  0.0581  0.3554  0.2636
 2092W        W 6292   4.648   2.550   0.424 -0.1762 -0.0638  0.1466
 2093W        W 6293   3.722   4.157  10.501  0.2595  0.3031 -0.0017
 2094W        W 6294   4.682   8.095   0.960 -0.1094  0.2725  0.0963
 2095W        W 6295   4.979   7.271  10.500 -0.0956 -0.0453 -0.1063
 2096W        W 6296   0.629  10.395  13.357  0.2840 -0.1969 -0.1150
 2097W        W 6297   9.002   2.145   1.944 -0.0880  0.3869 -0.1177
 2098W        W 6298   6.533   6.958  10.442  0.3260  0.0344 -0.2359
 2099W        W 6299   1.071   6.958   1.785  0.0132 -0.2628  0.2177
 2100W        W 6300   5.087   1.612  13.087 -0.0697  0.1851  0.1140
 2101W        W 6301   3.551   7.080  10.379  0.3771 -0.1273  0.0276
 2102W        W 6302   9.385   0.266  10.056 -0.1090 -0.2470  0.0908
 2103W        W 6303   5.298   0.634  11.034  0.2648  0.1905 -0.0237
 2104W        W 6304   9.554   2.233  11.804 -0.0553  0.0297  0.1212
 2105W        W 6305   4.783   5.087  10.565  0.0941  0.0782 -0.0298
 2106W        W 6306   5.247   9.353  12.032 -0.0919 -0.0336  0.1961
 2107W        W 6307   9.680   2.504   0.630  0.0689 -0.0124  0.0661
 2108W        W 6308   8.414   2.418   3.612 -0.0182 -0.0992  0.0893
 2109W        W 6309   4.893   1.745   9.546 -0.2396  0.3517 -0.2097
 2110W        W 6310   9.328   9.671  11.808  0.0722 -0.1865  0.1557
 2111W        W 6311   6.575   2.849   4.054 -0.0104  0.0211  0.1428
 2112W        W 6312   2.285   4.727   9.873 -0.1003  0.0615  0.2665
 2113W        W 6313   5.764   8.547   0.266  0.1765  0.1110  0.0147
 2114W        W 6314   9.999   3.207  10.447 -0.2981 -0.0925  0.0213
 2115W        W 6315   4.594  10.447   1.802  0.0447 -0.0149 -0.3714
 2116W        W 6316   3.426  10.153  10.426 -0.3979 -0.1399 -0.2253
 2117W        W 6317   4.631   9.098  13.092 -0.0435 -0.1013 -0.1026
 2118W        W 6318   3.839   0.318   5.446  0.2360 -0.0434 -0.0856
 2119W        W 6319   4.070   3.840   1.747  0.2196 -0.2306  0.0630
 2120W        W 6320   8.316   0.519  13.081  0.2516  0.1470  0.0642
 2121W        W 6321   1.739   4.487   3.410 -0.0599  0.1679  0.1434
 2122W        W 6322   9.829   1.714   3.340 -0.1369 -0.0313 -0.0849
 2123W        W 6323   8.616   0.027   2.909 -0.1061  0.0134  0.3208
 2124W        W 6324   2.974  10.218  11.278 -0.1202 -0.4623  0.3790
 2125W        W 6325   9.301  10.033   4.239 -0.2575 -0.0563  0.0580
 2126W        W 6326   4.728   8.102  11.735  0.1546  0.0348 -0.0719
 2127W        W 6327   1.504  10.234   3.921  0.0883 -0.2340  0.0598
 2128W        W 6328   1.644   6.088  13.251  0.2887  0.0704 -0.1121
 2129W        W 6329   1.446   9.078  11.604  0.0536 -0.0220 -0.0524
 2130W        W 6330   4.168   1.184   2.263 -0.2072  0.3284 -0.3284
 2131W        W 6331  10.335   4.205   0.576 -0.2033  0.1059  0.0966
 2132W        W 6332   1.712   1.056  12.074  0.0728  0.0591 -0.0682
 2133W        W 6333   3.421   2.775   0.914 -0.1730 -0.1660 -0.0739
 2134W        W 6334  10.079   8.383   9.049  0.2070  0.1564 -0.0649
 2135W        W 6335   3.789   3.518   0.128  0.0898 -0.0741 -0.1868
 2136W        W 6336   2.115   5.942  11.629 -0.2366  0.0742  0.0173
 2137W        W 6337   1.315   2.382  10.949  0.1218 -0.0283  0.1503
 2138W        W 6338   7.772   3.600   3.220  0.0550 -0.0599  0.0343
 2139W        W 6339   3.682   6.975  10.917 -0.1297  0.1949  0.4927
 2140W        W 6340   6.271   0.319  10.051  0.2066  0.0445  0.2222
 2141W        W 6341   7.550   8.880  11.111 -0.1208  0.0386  0.4121
 2142W        W 6342  10.453   6.354  11.052 -0.0316 -0.1258 -0.1440
 2143W        W 6343   0.714   6.649   3.460 -0.0216 -0.1353 -0.1232
 2144W        W 6344   3.374   1.305   1.852  0.0069 -0.0835  0.1700
 2145W        W 6345   7.393  10.062  12.992  0.2562  0.0681 -0.1546
 2146W        W 6346   1.189   5.597   9.719  0.0743  0.0688  0.1952
 2147W        W 6347   1.674   8.724  12.918  0.0761 -0.1101 -0.0861
 2148W        W 6348   2.848   4.995  10.277  0.1110  0.1593 -0.1896
 2149W        W 6349   0.199   9.695   9.995 -0.0536  0.1467  0.1993
 2150W        W 6350   7.557   5.003   1.539 -0.0159 -0.1220  0.2903
 2151W        W 6351   2.020   9.086  10.160 -0.0648  0.0692 -0.1795
 2152W        W 6352   7.983   0.700   0.129  0.1267  0.1975  0.2134
 2153W        W 6353   5.158   7.870  11.259 -0.1174 -0.0189 -0.0169
 2154W        W 6354   7.142   9.450   1.127 -0.2560 -0.0212  0.0723
 2155W        W 6355   8.743   5.039  12.095  0.3253 -0.0455 -0.1010
 2156W        W 6356   4.574   1.523  12.933  0.2953 -0.0441 -0.1439
 2157W        W 6357   3.434   5.209   1.422  0.0247  0.1094  0.2077
 2158W        W 6358   7.755   2.735   1.718 -0.2507 -0.0322 -0.0134
 2159W        W 6359   5.683   1.826  10.497  0.1197  0.2455  0.2402
 2160W        W 6360   8.938   3.930  11.635  0.1286 -0.3915  0.1476
 2161W        W 6361   5.139   4.992   0.596  0.1008 -0.0684  0.0929
 2162W        W 6362   4.459   9.050  11.767 -0.0923 -0.6308 -0.0439
 2163W        W 6363   4.331  10.389   9.463  0.2642 -0.2672 -0.1551
 2164W        W 6364   3.712   8.090  13.308 -0.0300  0.1172 -0.3023
 2165W        W 6365   9.818   2.810   9.743  0.1552 -0.0098 -0.1719
 2166W        W 6366   1.799   5.724   3.542 -0.4756  0.0596  0.1702
 2167W        W 6367   8.308   6.194   0.702  0.0662  0.1404  0.0914
 2168W        W 6368   7.592  10.141   4.866 -0.4502 -0.0986  0.0573
 2169W        W 6369   9.131   2.633   2.451 -0.1349 -0.0631  0.3434
 2170W        W 6370   5.017   3.215   0.933 -0.0930  0.1909  0.3621
 2171W        W 6371   7.242   6.723   1.480 -0.0387 -0.2027 -0.1181
 2172W        W 6372   2.614   2.980  10.575 -0.1541 -0.0053  0.1053
 2173W        W 6373  10.436   9.140  10.217 -0.0022 -0.0191  0.0063
 2174W        W 6374   3.387   7.000   0.078  0.2025  0.0267  0.4515
 2175W        W 6375   7.346   4.531   9.080  0.0140  0.1643  0.3687
 2176W        W 6376   4.321   6.958   1.236  0.0883 -0.0141 -0.1398
 2177W        W 6377   7.097   4.865   3.702  0.2742 -0.2108 -0.0981
 2178W        W 6378   9.403   6.868   0.748  0.1953 -0.0626 -0.0247
 2179W        W 6379   2.600   9.505   0.993 -0.1033  0.0311 -0.2093
 2180W        W 6380   5.266   1.892   1.543 -0.0433  0.0122  0.1005
 2181W        W 6381   1.549   5.093  10.888  0.1267  0.1199 -0.1327
 2182W        W 6382   4.044   6.964  12.643 -0.2774 -0.5736  0.1852
 2183W        W 6383   8.458   1.808   9.723 -0.0393 -0.2027  0.1343
 2184W        W 6384   5.377   7.314   1.849 -0.0109 -0.0446 -0.3624
 2185W        W 6385   4.475   8.935  12.455 -0.0061 -0.1223 -0.0458
 2186W        W 6386   8.274   4.795   1.402 -0.3905  0.0152 -0.3301
 2187W        W 6387   7.790   5.257   3.000  0.0654 -0.2278  0.0327
 2188W        W 6388   8.443   2.137   1.122 -0.1511 -0.3993  0.0243
 2189W        W 6389   1.084   0.034   4.069 -0.3392 -0.0862 -0.0749
 2190W        W 6390   0.880   8.866   1.330  0.0114  0.0682 -0.0413
 2191W        W 6391   3.553   1.776   9.074 -0.0552  0.1917  0.1233
 2192W        W 6392   9.139   9.663  12.897 -0.2613  0.2762 -0.2886
 2193W        W 6393   6.210   5.963   3.322  0.0318  0.1617  0.0915
 2194W        W 6394   9.796   4.204   3.116 -0.0060 -0.1378 -0.0341
 2195W        W 6395   9.477   5.027   9.615 -0.0733 -0.0900  0.1504
 2196W        W 6396   0.671   2.248   2.724  0.0448 -0.0254 -0.0743
 2197W        W 6397   1.751   7.747   2.724  0.1896 -0.0393  0.0802
 2198W        W 6398   2.450   9.363   1.489 -0.3479  0.0471 -0.1973
 2199W        W 6399   2.295   7.006   1.209 -0.1087 -0.1423 -0.3256
 2200W        W 6400   8.381   4.305  12.982 -0.2466 -0.0009 -0.3053
 2201W        W 6401   8.988   7.444   3.421 -0.2715 -0.3523  0.0784
 2202W        W 6402   9.005   3.671   1.314  0.2408  0.0978 -0.1205
 2203W        W 6403  10.062   1.351  10.030 -0.0224  0.0690 -0.0599
 2204W        W 6404   2.413   1.570  11.084 -0.3253 -0.0709 -0.1320
 2205W        W 6405   5.412   8.694   2.388  0.2431  0.2143  0.0123
 2206W        W 6406   6.578   1.698   4.775  0.1700  0.3575  0.0504
 2207W        W 6407   5.420   5.968  11.903 -0.2418 -0.0599 -0.0612
 2208W        W 6408   2.609   6.122   0.923 -0.0482 -0.0015  0.0728
 2209W        W 6409   8.210   9.376   2.029  0.3347  0.3172  0.0611
 2210W        W 6410   6.607   2.726   0.243  0.1780  0.2364 -0.0765
 2211W        W 6411   2.945   0.745  12.684  0.2979  0.2743 -0.0961
 2212W        W 6412   2.533   2.164   0.206 -0.0246  0.2917 -0.0391
 2213W        W 6413   1.548   4.369   1.255 -0.0508 -0.1313 -0.1362
 2214W        W 6414   2.795   5.484  10.233  0.0102  0.0180  0.2814
 2215W        W 6415   8.667   1.012   0.524 -0.0485 -0.3480 -0.3039
 2216W        W 6416   0.758   8.291   9.926 -0.0369  0.2782  0.1416
 2217W        W 6417   2.045   3.792   0.570 -0.1142  0.0237  0.0907
 2218W        W 6418   5.877   5.852   2.438  0.0199  0.0663  0.2305
 2219W        W 6419   1.485   5.786   2.527  0.0993  0.3584  0.2002
 2220W        W 6420   4.104   2.636   1.807  0.0112 -0.1595 -0.1173
 2221W        W 6421   3.400   4.754  12.971 -0.1004 -0.0628 -0.3638
 2222W        W 6422  10.134   9.933   2.433  0.2813 -0.0178  0.1338
 2223W        W 6423  10.468   1.495   1.324 -0.1890 -0.1728  0.1514
 2224W        W 6424   6.673   4.127  11.570  0.2150 -0.0420  0.0765
 2225W        W 6425   9.307   3.206   4.768  0.2318  0.0123  0.1609
 2226W        W 6426   5.362   6.823  12.806 -0.4057  0.1742  0.1721
 2227W        W 6427   0.146   2.177   2.837 -0.0983 -0.2013 -0.1646
 2228W        W 6428   8.316   0.729  12.176  0.2047  0.0140 -0.0619
 2229W        W 6429   4.736   3.404  11.082 -0.0616  0.2392  0.0585
 2230W        W 6430   2.428   5.826   9.958  0.0054 -0.2768  0.4418
 2231W        W 6431   5.779   7.642   2.980  0.0881  0.1117 -0.1261
 2232W        W 6432   6.391   8.275   1.583 -0.0204 -0.0012 -0.3427
 2233W        W 6433   2.730   4.180  11.673  0.2460  0.0193  0.1361
 2234W        W 6434   3.298   3.926  13.090 -0.3076  0.1266 -0.0264
 2235W        W 6435   9.502   5.991  12.984 -0.1567  0.0458 -0.0153
 2236W        W 6436   2.823   9.704  10.495  0.3007  0.3324 -0.1538
 2237W        W 6437   1.492   7.077   1.476 -0.1944  0.3043  0.0194
 2238W        W 6438   3.655   4.775   0.719  0.0188 -0.0861 -0.1752
 2239W        W 6439   9.841   1.222   3.571  0.2000 -0.0714  0.2468
 2240W        W 6440   1.493   4.479   0.793 -0.1774  0.0860 -0.0599
 2241W        W 6441   7.033   9.292   5.190  0.1347 -0.3571 -0.0377
 2242W        W 6442   8.641   5.593   0.898  0.0178 -0.2525 -0.0445
 2243W        W 6443   9.914   7.772   0.754  0.0205 -0.0721 -0.0603
 2244W        W 6444   3.845   4.951   1.134  0.2239 -0.5317 -0.1611
 2245W        W 6445   1.184   8.524  12.916  0.2427  0.2446 -0.0947
 2246W        W 6446   1.720   7.984   3.477  0.0809 -0.3289 -0.0899
 2247W        W 6447   2.090   1.488   4.736  0.2215  0.0596 -0.2159
 2248W        W 6448   9.931   4.947  10.576  0.0988  0.0079  0.2930
 2249W        W 6449   7.092   2.317  12.552 -0.2956 -0.0196  0.0072
 2250W        W 6450   1.441   7.203   1.968 -0.0974 -0.2409 -0.2034
 2251W        W 6451   7.315   3.388   4.157 -0.2600  0.3152  0.0221
 2252W        W 6452   8.664   0.659  11.223  0.1656  0.3932  0.0320
 2253W        W 6453   5.203   1.351   2.080 -0.0245  0.1435  0.0289
 2254W        W 6454   5.898   5.858   1.023 -0.0839  0.1870 -0.0295
 2255W        W 6455   9.525   5.423  12.855  0.0429  0.1795  0.0713
 2256W        W 6456   5.126   5.789   3.293  0.0949  0.1048  0.0711
 2257W        W 6457   3.311   2.118  10.158 -0.0695  0.1314  0.0652
 2258W        W 6458  10.289   3.346  10.843 -0.0836 -0.1438  0.1267
 2259W        W 6459   7.771   7.859   4.155  0.4066  0.1993 -0.0311
 2260W        W 6460   0.988   0.195  11.191 -0.0414 -0.0009  0.2064
 2261W        W 6461   0.484   0.269  10.199 -0.2117 -0.0614 -0.2585
 2262W        W 6462   0.399   8.988   2.286  0.2641  0.1328  0.0116
 2263W        W 6463   3.709   1.299   2.820 -0.2363  0.0539 -0.1322
 2264W        W 6464   4.801   2.953   2.629  0.0004  0.0920  0.3733
 2265W        W 6465   2.541   4.744  10.744  0.0928 -0.0713 -0.3997
 2266W        W 6466   0.619   5.181   2.335  0.3076  0.0996 -0.0156
 2267W        W 6467   2.697   4.741  11.663 -0.2425  0.0410  0.1025
 2268W        W 6468   9.154   3.688  11.260 -0.1361 -0.2333  0.1670
 2269W        W 6469   5.875   6.414   3.264 -0.0143  0.0801  0.1232
 2270W        W 6470   2.922   0.453   1.894 -0.1834 -0.0873 -0.0286
 2271W        W 6471   6.899   3.619  13.253  0.0881 -0.2032  0.1414
 2272W        W 6472   6.694   6.434   3.497  0.3531  0.1088  0.1572
 2273W        W 6473   4.480  10.117  10.692 -0.0002 -0.0791  0.2216
 2274W        W 6474   5.368  10.384   3.423  0.1876 -0.1137  0.1363
 2275W        W 6475   7.188   7.802  10.467 -0.0503  0.5157 -0.0519
 2276W        W 6476   2.552   7.843  13.325  0.3704  0.0083  0.1335
 2277W        W 6477   4.626   0.435   3.951 -0.2663 -0.1348  0.2368
 2278W        W 6478  10.082   5.321  12.197 -0.3230 -0.2023 -0.1500
 2279W        W 6479   7.007   5.906   0.221  0.2364  0.1345  0.1126
 2280W        W 6480   8.519   6.799   2.413 -0.0488  0.2731 -0.0752
 2281W        W 6481   1.113   0.204   2.997 -0.0209  0.1317 -0.0951
 2282W        W 6482   1.091   2.070   9.849  0.0392  0.0468  0.2872
 2283W        W 6483   7.146   4.264  12.674  0.2103 -0.2003 -0.0017
 2284W        W 6484   3.932   8.031   3.309 -0.1144 -0.0045 -0.1884
 2285W        W 6485   4.663   7.203   2.163  0.0102 -0.0218  0.2052
 2286W        W 6486   9.627   7.951   8.463 -0.0018 -0.0224  0.0091
 2287W        W 6487   0.288   7.287  11.152  0.1578 -0.1864 -0.3463
 2288W        W 6488   1.125   3.185  10.656 -0.1975 -0.1979  0.3368
 2289W        W 6489   8.645   3.876  11.261  0.0819 -0.0707  0.2541
 2290W        W 6490   3.108   0.142   0.000 -0.1534 -0.1713 -0.1274
 2291W        W 6491   7.470   6.710  12.466  0.1116 -0.1358 -0.0757
 2292W        W 6492   8.372   8.075   1.638 -0.0418 -0.0185 -0.1437
 2293W        W 6493   0.688   0.652   1.602 -0.1202 -0.0321 -0.1512
 2294W        W 6494   0.179   5.557  10.314 -0.0134  0.0946  0.1551
 2295W        W 6495   8.021   3.115   9.489  0.0123 -0.2174 -0.4014
 2296W        W 6496   5.676   4.234  11.473  0.0466  0.0108 -0.4927
 2297W        W 6497   9.012   1.384  10.204 -0.1968 -0.1105 -0.3620
 2298W        W 6498   4.951   9.255  12.572 -0.2632 -0.1043 -0.0206
 2299W        W 6499   0.418   2.644  10.699  0.0759  0.2053 -0.0557
 2300W        W 6500   2.129   5.137   2.842  0.0259  0.2554  0.0401
 2301W        W 6501   7.335   1.543  10.285  0.1627  0.0376 -0.2050
 2302W        W 6502   7.723   3.009  10.795  0.0633  0.4709  0.4399
 2303W        W 6503   8.479   3.276   2.251  0.0085  0.0371 -0.1567
 2304W        W 6504   3.261   0.065  10.021  0.0348 -0.0151  0.1448
 2305W        W 6505   8.797   0.260   8.313 -0.0402  0.0143 -0.2615
 2306W        W 6506   1.982   3.084   3.628  0.0268  0.1098 -0.1700
 2307W        W 6507   3.985   9.601   0.798  0.4876 -0.1272  0.0091
 2308W        W 6508   9.913   4.162  10.643 -0.1625 -0.1918  0.0709
 2309W        W 6509   7.564   5.761   2.951 -0.3628 -0.2242 -0.0676
 2310W        W 6510   6.965   9.301  11.413  0.2369 -0.1977 -0.3299
 2311W        W 6511   5.702   3.509   0.423  0.1293 -0.0631 -0.0269
 2312W        W 6512   3.037   4.162   9.908 -0.0943  0.3584  0.3066
 2313W        W 6513   9.269   3.202   9.214  0.0014 -0.1771  0.1779
 2314W        W 6514  10.190   4.995  11.084  0.1485  0.0032 -0.0277
 2315W        W 6515   5.438   0.213   5.343  0.1230  0.1602 -0.0420
 2316W        W 6516   1.326   6.713  10.858  0.0171 -0.0568  0.2005
 2317W        W 6517   9.218   9.100  11.315 -0.2129  0.0280 -0.2971
 2318W        W 6518   3.585   3.378  12.307  0.1285  0.0501  0.2334
 2319W        W 6519   2.059   4.414  12.517  0.0546 -0.0734  0.0360
 2320W        W 6520   0.175   5.361   4.089 -0.1098  0.2569 -0.0934
 2321W        W 6521  10.079   0.366   0.111  0.3347 -0.0347 -0.1735
 2322W        W 6522   6.755   3.270   4.190  0.1707  0.1792 -0.0489
 2323W        W 6523   8.945   5.886  13.092 -0.3335  0.1975 -0.1443
 2324W        W 6524   8.017   4.398  10.892 -0.1387 -0.2127 -0.0284
 2325W        W 6525   8.027   5.238  11.168 -0.3830 -0.2547  0.3609
 2326W        W 6526  10.059   8.551   1.900  0.0170 -0.4218 -0.0374
 2327W        W 6527   4.795   4.989  11.033  0.1976 -0.0697 -0.2880
 2328W        W 6528   5.455   4.429  13.447 -0.0954 -0.1143 -0.4073
 2329W        W 6529   7.362   9.556   0.698  0.1919 -0.2104  0.1723
 2330W        W 6530   6.968   1.188   2.427 -0.0806  0.0899 -0.2301
 2331W        W 6531   2.047   4.252   1.435  0.0294  0.1251 -0.2708
 2332W        W 6532   0.506   2.850  11.890 -0.1630 -0.1829 -0.1104
 2333W        W 6533   5.720   1.818  12.516  0.3065  0.0230 -0.4088
 2334W        W 6534   6.268   9.216  10.226  0.1082  0.1365 -0.0782
 2335W        W 6535   6.345   2.606  11.627  0.2177  0.1715 -0.2707
 2336W        W 6536   2.287   5.478   1.894 -0.1956  0.0819  0.2807
 2337W        W 6537   7.816   4.710  12.150 -0.1897 -0.0815  0.1663
 2338W        W 6538   0.716   8.304   9.397  0.0674 -0.1094  0.0137
 2339W        W 6539   1.745   5.672  11.920  0.1496  0.0876 -0.2435
 2340W        W 6540  10.346   4.006   9.409 -0.0929 -0.1292 -0.0887
 2341W        W 6541   9.926   7.425   9.402 -0.0112  0.2849  0.0022
 2342W        W 6542   2.225   7.327  12.808  0.0269 -0.1097 -0.2764
 2343W        W 6543   7.554  10.311   3.754  0.0624 -0.0985  0.1651
 2344W        W 6544   6.493   4.787  13.432  0.0379  0.1497 -0.1694
 2345W        W 6545  10.016   6.710  13.169  0.0794 -0.0176 -0.1271
 2346W        W 6546   5.218   1.073   8.759 -0.4850 -0.0189  0.3015
 2347W        W 6547   7.499   0.426   9.458 -0.3040 -0.1081 -0.1058
 2348W        W 6548   2.799   1.058   4.943  0.1980 -0.0218 -0.1050
 2349W        W 6549  10.301   7.850   1.741  0.0692  0.1899 -0.1495
 2350W        W 6550   4.855   4.574  11.326 -0.0823  0.1893 -0.0399
 2351W        W 6551   4.336   6.069   0.314  0.3579  0.1164  0.1789
 2352W        W 6552   6.526   4.335   9.748  0.3407  0.3475  0.0738
 2353W        W 6553   3.346   0.893   9.838  0.4869  0.0110 -0.4892
 2354W        W 6554   1.845   0.782   4.032  0.0550  0.0009 -0.0120
 2355W        W 6555   4.098  10.300   1.854 -0.2942 -0.2254  0.1519
 2356W        W 6556   5.837   3.898  10.160 -0.1006  0.0499  0.3519
 2357W        W 6557   6.277   2.353  12.068  0.0110  0.2005  0.0484
 2358W        W 6558   6.495   6.016   1.048  0.2759  0.0574 -0.0882
 2359W        W 6559   0.260   3.902   1.461 -0.2291 -0.3364 -0.1221
 2360W        W 6560   5.681   5.290  10.566  0.0739  0.0869 -0.1935
 2361W        W 6561   9.443   9.364   9.574  0.4113  0.0901  0.2798
 2362W        W 6562   4.587   2.462   2.552 -0.2195 -0.2240 -0.1376
 2363W        W 6563   4.265   3.479   4.171 -0.0397  0.2434 -0.2186
 2364W        W 6564   3.581   8.737   1.816 -0.0361  0.1494 -0.2622
 2365W        W 6565  10.457   0.298   0.507  0.0699 -0.0841 -0.0083
 2366W        W 6566   0.637   8.446   0.288 -0.2320 -0.1478  0.1366
 2367W        W 6567   2.034   1.809   3.309  0.1405  0.1614  0.1696
 2368W        W 6568   0.980   9.604   0.989  0.1709 -0.0450  0.0043
 2369W        W 6569   1.458   0.728   9.969  0.0261 -0.1369  0.0686
 2370W        W 6570   4.504   4.404  12.698  0.1462  0.0040 -0.0693
 2371W        W 6571   3.449   2.187   2.342 -0.2130 -0.2172 -0.1151
 2372W        W 6572   2.542   5.178   9.845 -0.1016  0.1465  0.0951
 2373W        W 6573   0.431   4.467  11.352  0.0346 -0.2524 -0.0232
 2374W        W 6574   1.306   5.734   1.892 -0.0327  0.0954 -0.2893
 2375W        W 6575   2.998   8.113   0.895  0.0739 -0.2686 -0.3332
 2376W        W 6576   8.355   5.049   0.791 -0.2550 -0.0578 -0.1412
 2377W        W 6577   1.505   1.714   4.017 -0.3172 -0.4086 -0.0682
 2378W        W 6578   9.571   3.069   8.764 -0.2277 -0.0966 -0.0752
 2379W        W 6579   5.966   1.662   1.854 -0.1070  0.0128  0.2905
 2380W        W 6580   6.917   4.954   2.192 -0.1898  0.0884 -0.3239
 2381W        W 6581   3.455   3.405   2.624 -0.0823  0.1299 -0.2875
 2382W        W 6582   2.093   0.487   9.316 -0.1497 -0.2723  0.1104
 2383W        W 6583   9.257   5.071  11.335 -0.1854  0.1056  0.1187
 2384W        W 6584   3.457   5.596  11.662  0.1022  0.0324  0.0872
 2385W        W 6585   2.245   0.940   1.026  0.1638 -0.1199 -0.2658
 2386W        W 6586   5.699   7.533   1.292 -0.0302 -0.0734  0.1275
 2387W        W 6587   7.337   3.095  12.419  0.3139 -0.2942  0.0933
 2388W        W 6588   5.459   0.552  11.761 -0.0628 -0.0539 -0.1292
 2389W        W 6589   6.032   2.483   3.142  0.2491 -0.1436  0.0446
 2390W        W 6590   2.768   3.877   2.532  0.0965 -0.2256 -0.1634
 2391W        W 6591   4.195   2.720   0.526 -0.0430 -0.0300 -0.1725
 2392W        W 6592   0.192   5.969   3.418  0.1828 -0.1170 -0.0985
 2393W        W 6593   8.225   8.860  10.825 -0.0386 -0.0186  0.0781
 2394W        W 6594   0.476   7.570   2.167  0.1555  0.1709 -0.1751
 2395W        W 6595   3.295   2.810   2.337 -0.1414 -0.3973  0.0047
 2396W        W 6596   1.555   1.495   2.078  0.1816  0.2186 -0.0906
 2397W        W 6597   2.729   4.072  10.335 -0.3522 -0.1436  0.0682
 2398W        W 6598   5.884   4.298   2.046  0.1872 -0.1962  0.2111
 2399W        W 6599   0.826   8.639   3.310  0.1891  0.3806  0.3509
 2400W        W 6600   1.227   2.243   1.446 -0.0327  0.2111 -0.0684
 2401W        W 6601  10.298   1.811   9.877  0.1088 -0.3071 -0.1022
 2402W        W 6602   6.446   9.234   1.257  0.1232 -0.0025 -0.2819
 2403W        W 6603   0.659   2.271   0.836  0.0358  0.1661 -0.0868
 2404W        W 6604   9.172   8.173  11.439  0.1316 -0.0059  0.1523
 2405W        W 6605   1.396   9.661  10.386 -0.0183  0.1899 -0.1117
 2406W        W 6606   4.165  10.464  13.168 -0.1663 -0.0921  0.0274
 2407W        W 6607   0.416   3.331  12.797 -0.1550 -0.4099 -0.0037
 2408W        W 6608  10.258   5.811   3.666 -0.3187  0.3391 -0.2419
 2409W        W 6609   8.599   4.737   0.496 -0.2086 -0.0236 -0.1563
 2410W        W 6610   2.280   9.870  12.866 -0.1690  0.3252 -0.0683
 2411W        W 6611   5.027   0.274  12.425  0.2114  0.1858  0.1185
 2412W        W 6612  10.211   7.443   3.233  0.1031 -0.0248  0.0789
 2413W        W 6613   3.964   2.039  10.103  0.2202  0.3040 -0.1630
 2414W        W 6614   2.593   2.769   0.270  0.1606 -0.0756 -0.2612
 2415W        W 6615   5.311   9.742  10.984  0.1441  0.0398 -0.2464
 2416W        W 6616   9.875   0.353   3.605 -0.0031  0.2410  0.0942
 2417W        W 6617   4.363   9.175   1.278  0.0680  0.0911  0.1395
 2418W        W 6618   8.283   6.577  11.316  0.3566 -0.0239  0.1369
 2419W        W 6619   4.317   0.526   1.093  0.0075 -0.0183 -0.0139
 2420W        W 6620   7.222  10.464  11.248  0.0400  0.1308  0.1187
 2421W        W 6621   6.614   3.431   4.650 -0.0028  0.1987  0.2530
 2422W        W 6622   2.167  10.173   9.049 -0.0808 -0.1940  0.1704
 2423W        W 6623   4.672   7.305   1.343  0.1340 -0.1393 -0.0905
 2424W        W 6624   6.819   1.904   0.295  0.1859  0.0031  0.0280
 2425W        W 6625   2.160   1.989  10.863  0.0612 -0.1308 -0.2941
 2426W        W 6626   6.954   3.120   0.247 -0.2359 -0.1349  0.1730
 2427W        W 6627   2.291  10.456   1.715  0.1479 -0.3308 -0.3572
 2428W        W 6628   1.112   9.136  12.110 -0.0664 -0.1820  0.1456
 2429W        W 6629   8.908   3.078   3.812  0.1518  0.1293 -0.0366
 2430W        W 6630   3.662   2.047   0.098  0.2264 -0.1615 -0.1882
 2431W        W 6631   2.103   7.796   1.875 -0.0430 -0.0966  0.0746
 2432W        W 6632   6.717   4.320   5.048 -0.0528 -0.1025 -0.1683
 2433W        W 6633   1.997   1.463  11.949  0.1545  0.1159 -0.0799
 2434W        W 6634   0.154   4.429   1.041 -0.2418 -0.0888 -0.1223
 2435W        W 6635   4.853   9.379  10.950  0.1362 -0.0152 -0.1090
 2436W        W 6636   8.250   4.187   8.451 -0.0167  0.1924  0.1994
 2437W        W 6637   4.452   9.484   3.436 -0.1746 -0.1202  0.0051
 2438W        W 6638   8.922   3.873   0.073  0.1053  0.1861  0.0518
 2439W        W 6639   8.146   2.814  11.078 -0.3392 -0.1460 -0.3344
 2440W        W 6640  10.359   3.498   9.302 -0.1261 -0.0516 -0.0593
 2441W        W 6641   7.578   6.685  10.307 -0.0566  0.2846 -0.1761
 2442W        W 6642   7.352   1.968  11.645 -0.4538  0.0749  0.0439
 2443W        W 6643   5.045   0.244  13.403 -0.1426 -0.1376 -0.2750
 2444W        W 6644   0.368   5.364   4.517  0.3750  0.3649 -0.3027
 2445W        W 6645   1.897   1.609   9.354  0.0974  0.0303  0.0947
 2446W        W 6646   5.364   6.764   9.350 -0.1508  0.2894 -0.0902
 2447W        W 6647   3.721   2.792   0.476 -0.0880 -0.0539 -0.1211
 2448W        W 6648   1.007   0.973   9.923  0.0436 -0.0180  0.0811
 2449W        W 6649  10.380   0.214   3.255  0.1875 -0.2476 -0.0436
 2450W        W 6650   6.919   8.047   4.268  0.1704  0.1598  0.0683
 2451W        W 6651   0.237   2.694  13.451 -0.0797 -0.0699  0.0800
 2452W        W 6652   5.392   7.328   2.804  0.0523  0.0130  0.0033
 2453W        W 6653   8.323   0.770   9.459  0.3777 -0.2569  0.2977
 2454W        W 6654  10.031   2.720   3.155 -0.3700 -0.2557  0.1442
 2455W        W 6655   3.201   4.239  10.434 -0.2402 -0.3319  0.2347
 2456W        W 6656   5.643   6.643   1.691  0.2105  0.0361  0.0664
 2457W        W 6657   9.281   4.016  13.255 -0.1241  0.0022 -0.0933
 2458W        W 6658   0.344   3.816   4.019  0.1279 -0.1193  0.1853
 2459W        W 6659   4.273   3.362  10.871  0.0280  0.2900 -0.2854
 2460W        W 6660   9.820   8.026   0.214  0.1189  0.1879 -0.0775
 2461W        W 6661   7.049  10.408   0.308 -0.3654 -0.1124 -0.3987
 2462W        W 6662   2.901   5.297  12.193 -0.0203  0.4256 -0.2367
 2463W        W 6663  10.269   4.828  12.895 -0.1554  0.0406 -0.1399
 2464W        W 6664   0.770   8.540  13.267 -0.0457 -0.0247  0.0363
 2465W        W 6665   4.677   1.043  10.011 -0.1551  0.1690  0.0605
 2466W        W 6666   8.447   8.706   4.342 -0.0101  0.0365  0.0240
 2467W        W 6667   8.615   3.649   1.009  0.1469 -0.1049 -0.2653
 2468W        W 6668   5.629   4.719   4.785 -0.1605 -0.1402  0.3650
 2469W        W 6669   8.659   0.349   0.474 -0.1628  0.0992  0.1152
 2470W        W 6670   4.097   1.998   2.454  0.2748 -0.0807  0.0321
 2471W        W 6671   1.101   3.749   2.042 -0.2179  0.1980  0.0548
 2472W        W 6672   7.636   2.107   3.452 -0.0118  0.0831 -0.0822
 2473W        W 6673  10.455   1.650   2.919 -0.1449  0.0389 -0.6319
 2474W        W 6674   0.413   6.081   1.676 -0.0767  0.2379 -0.0539
 2475W        W 6675   4.709   8.728   0.684  0.2526  0.3487 -0.1125
 2476W        W 6676   1.637   6.935   2.950  0.1287  0.2182 -0.0374
 2477W        W 6677   8.420   1.410   2.793  0.2131 -0.0921 -0.1590
 2478W        W 6678   7.627   7.602   3.398 -0.2812 -0.0110 -0.0603
 2479W        W 6679   8.573   5.244  10.801  0.0583  0.0338  0.0097
 2480W        W 6680   7.939   9.974   5.283  0.2857  0.4134  0.1095
 2481W        W 6681   5.041   8.457   2.608  0.2614 -0.0770 -0.0104
 2482W        W 6682   7.325   7.812   3.845 -0.0686  0.0957 -0.1160
 2483W        W 6683   6.655  10.334   1.281 -0.0422 -0.2051  0.0215
 2484W        W 6684   9.726   3.435   2.375 -0.3202 -0.2470 -0.0214
 2485W        W 6685   6.833   0.882   9.083 -0.0077  0.2370  0.2501
 2486W        W 6686   4.517   4.251  11.030  0.0177  0.3028  0.1997
 2487W        W 6687   7.991   1.548   0.455  0.4433  0.0230 -0.1108
 2488W        W 6688   4.112   9.034   3.486  0.1314 -0.1639 -0.1661
 2489W        W 6689   1.114   1.025   1.578  0.1027 -0.4046 -0.4654
 2490W        W 6690  10.265   6.332  12.224  0.0758  0.1069 -0.0298
 2491W        W 6691   0.607   6.206   3.724  0.1453  0.1955  0.5227
 2492W        W 6692   9.039   3.224   9.959  0.2005 -0.1945  0.1870
 2493W        W 6693   7.310   1.252   2.099 -0.1560  0.0818  0.0840
 2494W        W 6694   1.848   5.995  12.429  0.1303 -0.1998 -0.2216
 2495W        W 6695   8.015   2.598   9.142 -0.0135 -0.1810 -0.3030
 2496W        W 6696   1.943   3.518  11.703 -0.1070 -0.1200 -0.1151
 2497W        W 6697   2.701   1.071   2.093 -0.2290  0.1456  0.1365
 2498W        W 6698   3.283   4.243   1.855 -0.1252  0.0243  0.1223
 2499W        W 6699   9.687  10.476  12.859 -0.1839  0.0665  0.1492
 2500W        W 6700   7.463   0.219  12.225  0.1215  0.1784 -0.0754
 2501W        W 6701   6.189   7.583   3.661  0.0598  0.0036  0.1515
 2502W        W 6702   3.534   5.752  12.675 -0.2197  0.0489 -0.0585
 2503W        W 6703   1.282   4.633   1.579 -0.2511 -0.0610 -0.0678
 2504W        W 6704   5.022   6.502   3.619 -0.0156 -0.0917 -0.2393
 2505W        W 6705   6.849   2.059  11.692 -0.1572 -0.1408 -0.2012
 2506W        W 6706   8.671   0.306  11.555  0.1520  0.2033 -0.0362
 2507W        W 6707   0.305   7.718  10.379  0.1306 -0.0689 -0.2048
 2508W        W 6708   9.405   9.394  12.573  0.0424  0.5343  0.0895
 2509W        W 6709   7.091  10.214   2.412 -0.0797 -0.0699 -0.2181
 2510W        W 6710   7.498   7.270   1.261 -0.0744  0.2569  0.0594
 2511W        W 6711   0.864   6.282   0.055  0.0379  0.1452  0.3666
 2512W        W 6712   5.929   8.755   2.086  0.2476  0.0748  0.0038
 2513W        W 6713   0.911   0.444   3.783 -0.1240 -0.1130 -0.1027
 2514W        W 6714   8.891   5.442  11.212 -0.2524  0.2052  0.0584
 2515W        W 6715   3.868   2.052  12.216 -0.1379  0.0481  0.1235
 2516W        W 6716   2.069   9.469  13.383  0.1117 -0.1346 -0.1920
 2517W        W 6717   8.950   1.978   0.438  0.0292  0.1089 -0.2369
 2518W        W 6718   7.935   4.020   1.307 -0.0063 -0.0758  0.2418
 2519W        W 6719   4.477   1.905  13.278 -0.2549 -0.2173 -0.1444
 2520W        W 6720   7.215   4.546  11.361  0.1033  0.2375 -0.3076
 2521W        W 6721   7.059   7.498   1.055  0.0777 -0.3213 -0.6807
 2522W        W 6722   9.830   2.381  12.746 -0.1048 -0.2599 -0.3465
 2523W        W 6723   7.516   2.784   1.284 -0.1673 -0.2278  0.3666
 2524W        W 6724   7.169   5.371   0.257 -0.1261  0.0690  0.1908
 2525W        W 6725   2.668   6.248  11.587 -0.1530  0.0153 -0.1740
 2526W        W 6726   4.009   3.364   2.564 -0.0165 -0.0631 -0.1226
 2527W        W 6727   9.433   0.113   3.587  0.1495 -0.0173 -0.3248
 2528W        W 6728   5.699   4.317   0.938 -0.1178  0.1549  0.0398
 2529W        W 6729   3.778   4.062   2.272  0.0213  0.1197  0.0394
 2530W        W 6730   4.678   2.897   0.772 -0.1996  0.2801  0.1174
 2531W        W 6731   0.100   0.740   8.655  0.0930  0.0670 -0.2014
 2532W        W 6732   2.679   1.110   2.671  0.3244  0.0455  0.2805
 2533W        W 6733   0.859   1.576   9.924 -0.0591  0.0747  0.0281
 2534W        W 6734   2.529   8.133  11.806  0.1428  0.1470 -0.1371
 2535W        W 6735   3.096   8.581  11.177 -0.0029 -0.4545 -0.1754
 2536W        W 6736   6.759   6.400  11.978  0.0354 -0.0306 -0.1462
 2537W        W 6737   6.013   9.327   1.060 -0.1450 -0.2597 -0.0707
 2538W        W 6738   9.043   6.453  13.051  0.1096 -0.3023 -0.0940
 2539W        W 6739   2.292   4.451  11.491  0.0250 -0.0996 -0.1322
 2540W        W 6740   5.401   0.689  10.534  0.5260  0.0496 -0.1104
 2541W        W 6741   1.912   2.828  11.764 -0.2772 -0.1000  0.1364
 2542W        W 6742   2.201   5.517  10.323 -0.3557 -0.0978  0.2806
 2543W        W 6743   9.021   7.232   9.938  0.1167 -0.0207 -0.0784
 2544W        W 6744   2.005   3.947   2.433  0.2148 -0.4075  0.2920
 2545W        W 6745   2.396   0.922  12.653 -0.0041 -0.0710  0.0562
 2546W        W 6746   0.855   2.033  13.284 -0.1767 -0.1432  0.1090
 2547W        W 6747   2.778   3.335   9.510 -0.5547 -0.1141  0.1520
 2548W        W 6748   5.450   3.974   1.824  0.1236 -0.0759 -0.0894
 2549W        W 6749   7.553   2.018  12.429 -0.1578 -0.2382  0.1533
 2550W        W 6750   7.243   8.576   3.702 -0.2115  0.0771  0.0035
 2551W        W 6751   5.587   8.737   3.252 -0.0605  0.0270 -0.2141
 2552W        W 6752   0.430   0.773   2.815  0.0580  0.1537  0.0995
 2553W        W 6753   2.002   4.712  10.625  0.1572  0.0138 -0.0810
 2554W        W 6754   1.494   2.249   0.131 -0.3733 -0.0614 -0.3037
 2555W        W 6755   9.437   1.693   9.351  0.0507  0.0112  0.0200
 2556W        W 6756   1.205   0.118  12.130  0.0886  0.2859 -0.2014
 2557W        W 6757   0.326   3.321   2.680  0.0548 -0.0726 -0.1881
 2558W        W 6758   8.510   0.480   1.342  0.2999 -0.1577  0.0482
 2559W        W 6759   6.455   9.091   8.952 -0.1502 -0.2473  0.4497
 2560W        W 6760   3.482   0.679   2.090 -0.3129  0.0090 -0.2635
 2561W        W 6761   5.125   4.517   9.703  0.1385 -0.1005  0.0893
 2562W        W 6762   2.491   2.404  12.881 -0.4560 -0.3266  0.2162
 2563W        W 6763   0.497   4.157   2.597 -0.1087  0.0799 -0.0220
 2564W        W 6764   7.963   8.781   2.246 -0.0608 -0.1344  0.1530
 2565W        W 6765   7.873   7.904   3.685 -0.0300 -0.1658 -0.1805
 2566W        W 6766   7.463   8.619  11.520 -0.3623 -0.0095 -0.1071
 2567W        W 6767   2.938  10.122  12.201 -0.3470 -0.0426 -0.1863
 2568W        W 6768   0.286   4.277   3.144 -0.0995 -0.1821 -0.4710
 2569W        W 6769   8.114   6.867   0.933  0.0199  0.1437 -0.2266
 2570W        W 6770   7.171   8.201  11.830 -0.0019  0.0085 -0.0337
 2571W        W 6771   6.120   5.819  11.460  0.1137  0.0303  0.1790
 2572W        W 6772   8.490   3.277   2.898 -0.0878  0.3301  0.1194
 2573W        W 6773   9.470   3.169   9.749  0.0761  0.0350  0.1166
 2574W        W 6774   3.258   7.710   2.219  0.3439 -0.2242 -0.2525
 2575W        W 6775   5.541   1.430  12.914 -0.1472  0.1057 -0.0437
 2576W        W 6776   5.273   6.640  10.045 -0.4179 -0.1723 -0.0134
 2577W        W 6777   7.639   4.108   1.742  0.0874 -0.1325 -0.0763
 2578W        W 6778   1.488   5.932   0.713  0.1223  0.0080  0.1756
 2579W        W 6779   0.817   3.337  12.537 -0.3844 -0.1165  0.0582
 2580W        W 6780   0.040   8.601  12.359  0.0018  0.1686 -0.0649
 2581W        W 6781   1.484   8.997   8.758  0.1254  0.1133  0.3827
 2582W        W 6782   2.107   2.742   4.099  0.1044 -0.1144  0.2994
 2583W        W 6783   1.076   3.882  10.084 -0.0563  0.2678 -0.1726
 2584W        W 6784   7.664   4.160   4.365  0.1360 -0.2863 -0.0450
 2585W        W 6785   7.821   5.094   4.501  0.1825  0.2286  0.1089
 2586W        W 6786   7.417   1.206   3.816  0.0904 -0.2087 -0.1511
 2587W        W 6787   4.024   5.489   1.368 -0.0632 -0.0166  0.0853
 2588W        W 6788   3.191   5.347   0.988  0.2198 -0.0993  0.0510
 2589W        W 6789   4.004   4.077  10.107  0.2242  0.1018 -0.2338
 2590W        W 6790   5.682   4.440  10.923  0.1684  0.1570 -0.1556
 2591W        W 6791   7.744   3.109   3.377 -0.0467  0.2733 -0.2469
 2592W        W 6792   7.289   9.728  11.702 -0.2078  0.3894  0.1914
 2593W        W 6793   1.058   6.897  12.809  0.2030  0.3557  0.1722
 2594W        W 6794   5.063   7.641  10.129 -0.2215 -0.0351  0.0360
 2595W        W 6795   6.773   8.653   2.874  0.1077  0.1284 -0.0047
 2596W        W 6796   9.984   8.274   0.784  0.1496  0.3964 -0.1203
 2597W        W 6797   5.008   9.074  11.657  0.2532 -0.2970 -0.0829
 2598W        W 6798   6.466   4.295  10.755  0.2003  0.0245  0.0092
 2599W        W 6799   5.297   7.350  12.685  0.1396 -0.0398 -0.2763
 2600W        W 6800   2.806   9.172  12.517  0.1465 -0.0589  0.2875
 2601W        W 6801   9.692   7.495  12.723 -0.2373  0.2346  0.0364
 2602W        W 6802   9.783   7.505   0.026  0.2367 -0.0006  0.2083
 2603W        W 6803   7.467   7.852   1.210 -0.0724 -0.2235 -0.0543
 2604W        W 6804   7.712   6.556   1.482 -0.0363 -0.3614 -0.3048
 2605W        W 6805   3.349   3.541  12.729  0.3595 -0.0450  0.2251
 2606W        W 6806   5.457   8.395  10.057  0.3232 -0.0484 -0.0625
 2607W        W 6807   4.580   9.352   9.835 -0.2216  0.2676 -0.0034
 2608W        W 6808   0.284   7.616   1.580  0.0565  0.0209 -0.0720
 2609W        W 6809   3.149   3.654  10.202 -0.2254 -0.3004 -0.1437
 2610W        W 6810   4.195   3.962   4.189  0.0301  0.2755 -0.1559
 2611W        W 6811   4.998   3.930   3.592  0.0627 -0.1038 -0.0839
 2612W        W 6812   9.358   2.727   9.984 -0.4660 -0.1336 -0.0066
 2613W        W 6813   1.362   6.578   3.667  0.0617 -0.4265 -0.2113
 2614W        W 6814   0.196   4.074  12.417 -0.2499 -0.0438  0.0798
 2615W        W 6815   0.761   1.215  13.214 -0.2000  0.4822 -0.0167
 2616W        W 6816   9.693   6.881   4.883 -0.0622  0.2614  0.1141
 2617W        W 6817   5.801   0.994  13.127  0.2442  0.2529  0.0357
 2618W        W 6818   5.750   8.913   1.221  0.1299 -0.1612  0.2887
 2619W        W 6819   0.943   5.549   3.998 -0.1021  0.0714  0.3638
 2620W        W 6820   4.851   2.663   9.403  0.0595  0.3688 -0.0227
 2621W        W 6821   9.754   8.166  12.351  0.0211 -0.0877  0.0289
 2622W        W 6822   0.744   2.585  13.093 -0.2609  0.0300  0.1823
 2623W        W 6823  10.451  10.090   1.613  0.2098 -0.1311  0.2835
 2624W        W 6824   5.121   1.609   0.726 -0.1292 -0.2462 -0.0906
 2625W        W 6825   5.735   2.681   5.397 -0.2210 -0.2987 -0.0093
 2626W        W 6826   8.743   8.952  11.757  0.0506 -0.1256 -0.0752
 2627W        W 6827   0.043   1.616  12.143 -0.2287 -0.0211  0.2051
 2628W        W 6828   9.371   3.054   0.512  0.1595  0.2101  0.0747
 2629W        W 6829   8.485   4.742   2.683  0.1706  0.0161 -0.1060
 2630W        W 6830   1.989   5.825  12.928  0.1832  0.1599  0.0887
 2631W        W 6831   6.324   8.807   3.295 -0.2106  0.0595 -0.2017
 2632W        W 6832   8.881   6.325  11.799 -0.0587 -0.0181  0.2993
 2633W        W 6833   3.284   4.418  11.089  0.0316 -0.2626  0.2594
 2634W        W 6834   3.304   6.193   0.160 -0.1528  0.1677 -0.3698
 2635W        W 6835   2.866   6.782  12.672 -0.0474 -0.1487 -0.1464
 2636W        W 6836   4.153   5.766   1.879 -0.1568  0.0677 -0.0901
 2637W        W 6837   0.879   4.765   3.796 -0.1358  0.0520 -0.0352
 2638W        W 6838   0.125   9.946   2.535 -0.1581 -0.0117  0.2573
 2639W        W 6839   5.302   0.422   4.190 -0.2565 -0.0206  0.0918
 2640W        W 6840   8.790   7.782   9.281  0.3082  0.0540 -0.5007
 2641W        W 6841   6.801   8.525  12.922 -0.0263  0.0892 -0.2855
 2642W        W 6842   3.065   2.582   4.158 -0.2498 -0.0215 -0.1003
 2643W        W 6843   6.828   6.751   2.826  0.2193 -0.2241  0.3983
 2644W        W 6844   4.211   3.300   1.769 -0.0319  0.3112 -0.2146
 2645W        W 6845   6.002   6.658   0.831 -0.2574 -0.0009  0.0904
 2646W        W 6846   5.590   0.640   3.719  0.2102 -0.1488 -0.0444
 2647W        W 6847   2.100   6.964  13.385  0.3530  0.1688  0.1216
 2648W        W 6848   0.694   6.326   1.344 -0.0430  0.0620 -0.2695
 2649W        W 6849  10.432   8.567  13.156 -0.0933 -0.2181  0.2840
 2650W        W 6850   6.962   7.446  12.837 -0.2357  0.1836 -0.0874
 2651W        W 6851   1.666   1.321   0.383  0.3889  0.0177 -0.1955
 2652W        W 6852   1.070   8.254   2.879  0.3424 -0.0811 -0.0120
 2653W        W 6853   7.327   4.180   2.674 -0.1246  0.1235 -0.3865
 2654W        W 6854   6.076   2.142  12.755 -0.3108 -0.1322 -0.1205
 2655W        W 6855   6.321   1.317   2.338 -0.2223 -0.1250  0.4208
 2656W        W 6856   7.882   8.204   1.411  0.0112 -0.1932 -0.1881
 2657W        W 6857   8.352   8.305  12.631  0.1352 -0.0704 -0.1733
 2658W        W 6858   9.632   3.426  12.999  0.0187  0.2677 -0.3458
 2659W        W 6859   7.433   6.169  10.479  0.3512  0.3686  0.1036
 2660W        W 6860   6.956   2.523   3.039 -0.0046  0.2099  0.2119
 2661W        W 6861   0.366   2.274  11.092 -0.1555  0.2519 -0.1023
 2662W        W 6862   6.208   8.331  12.076 -0.0607  0.1239 -0.2858
 2663W        W 6863   5.002   2.208   1.894 -0.3258  0.1602  0.0998
 2664W        W 6864   5.094   4.212  10.989  0.0535 -0.2014 -0.0515
 2665W        W 6865   8.396   0.874   2.767  0.4012 -0.1784  0.2699
 2666W        W 6866   2.039   7.998  11.079  0.2804  0.1153 -0.3096
 2667W        W 6867   0.459   8.680  11.363  0.0923  0.1265 -0.0206
 2668W        W 6868   8.745   0.793   4.659  0.0372 -0.0422 -0.0482
 2669W        W 6869   2.850   6.917  12.001 -0.0574 -0.3883  0.0929
 2670W        W 6870   2.346   0.220   4.023 -0.0008 -0.0792 -0.2631
 2671W        W 6871   1.489   9.049   2.534  0.0777  0.1838 -0.2163
 2672W        W 6872   5.638   9.420   1.411 -0.4881  0.1445 -0.2357
 2673W        W 6873   4.568   9.259   2.105  0.0245 -0.0298 -0.0992
 2674W        W 6874   9.741   3.270  11.090 -0.1007  0.3397  0.0079
 2675W        W 6875   5.274   1.753  11.362 -0.0188  0.3118 -0.1148
 2676W        W 6876   8.705   6.049  12.310  0.1309  0.0143  0.2523
 2677W        W 6877   8.686   1.130  10.456 -0.0011  0.4869 -0.2444
 2678W        W 6878   1.821   6.323   4.370  0.1033  0.0565  0.1317
 2679W        W 6879   6.591   7.275   0.227  0.5642 -0.1959 -0.4294
 2680W        W 6880   3.968   8.564  13.358 -0.0842 -0.1945 -0.2166
 2681W        W 6881   8.158   3.343   4.675 -0.2297  0.3397 -0.0772
 2682W        W 6882   9.241   1.966   8.871  0.2042 -0.0985  0.2679
 2683W        W 6883   4.603   5.706   3.096 -0.1425 -0.1499  0.1394
 2684W        W 6884   5.679   4.626   9.609 -0.1251 -0.0295  0.4921
 2685W        W 6885   6.943   0.550   3.357  0.1507  0.0081  0.0770
 2686W        W 6886  10.220   4.326   4.395  0.0883 -0.1766 -0.1422
 2687W        W 6887   3.193   3.721   9.691  0.0528  0.0029 -0.1892
 2688W        W 6888   3.458   7.760   1.594 -0.2471 -0.1350 -0.0259
 2689W        W 6889   7.586   4.368  12.918 -0.1409 -0.3799 -0.1588
 2690W        W 6890   1.304   1.086   2.025  0.1726 -0.1046 -0.3680
 2691W        W 6891   2.340   1.451   9.359  0.3131 -0.0835 -0.0823
 2692W        W 6892   4.802  10.197   8.737 -0.0620 -0.2119 -0.1045
 2693W        W 6893   9.383   3.337  10.797  0.2239  0.0382  0.1079
 2694W        W 6894   6.856   2.600  11.664 -0.3086  0.0510  0.0198
 2695W        W 6895   2.362   4.564   0.093  0.0641  0.1112 -0.1180
 2696W        W 6896   0.730   1.681   0.930  0.2174 -0.0970  0.1255
 2697W        W 6897   6.998   7.543   2.699 -0.1291  0.1012 -0.3759
 2698W        W 6898   3.895   6.169  13.374 -0.0664 -0.1690  0.1960
 2699W        W 6899   4.021   5.651   3.767  0.1036 -0.0115  0.2102
 2700W        W 6900   5.421   1.829   5.231  0.0742 -0.2870 -0.2166
 2701W        W 6901   0.416   4.845   3.699  0.0395 -0.2025  0.0565
 2702W        W 6902   8.966   3.896   4.263 -0.0077 -0.1816 -0.0698
 2703W        W 6903   8.252   6.003  12.031 -0.2115 -0.1266 -0.0113
 2704W        W 6904   7.905   1.391   3.765  0.2826 -0.0247  0.3531
 2705W        W 6905   9.664   4.172  10.058  0.0175  0.3126 -0.2124
 2706W        W 6906   6.478   1.813  12.890 -0.2577  0.2751  0.0321
 2707W        W 6907   6.834   8.973   4.335  0.1050 -0.1864  0.2642
 2708W        W 6908   5.478   3.907   4.343  0.0350 -0.2509  0.1049
 2709W        W 6909   6.558   2.852  12.939 -0.3403 -0.0469 -0.1995
 2710W        W 6910  10.375  10.347   0.793 -0.0450  0.2759 -0.1825
 2711W        W 6911   7.115   6.727   3.322 -0.0594  0.2531  0.0082
 2712W        W 6912   4.795   4.113   9.878 -0.1168 -0.0612 -0.1654
 2713W        W 6913   4.312   9.362  10.297  0.1383 -0.0763  0.2256
 2714W        W 6914   1.595   3.411  12.976  0.0586  0.1640  0.2708
 2715W        W 6915   5.806   8.144  13.358  0.0560  0.0734  0.1253
 2716W        W 6916   9.434   3.678  10.051  0.1308  0.2192 -0.1569
 2717W        W 6917   0.045   4.637  10.143  0.2501 -0.3039  0.0249
 2718W        W 6918   5.511   4.443   3.325  0.1754 -0.0443  0.3094
 2719W        W 6919   8.748   4.096  10.480  0.2809  0.2063 -0.1324
 2720W        W 6920   3.646   1.319  11.293 -0.1957  0.0702 -0.2493
 2721W        W 6921   8.919   0.608  13.027  0.0019 -0.3210  0.3558
 2722W        W 6922   8.515   9.366   1.581  0.1324 -0.0080  0.1164
 2723W        W 6923   3.976   8.503  10.099 -0.1894 -0.2909  0.0503
 2724W        W 6924   9.062   3.593  10.495  0.2728 -0.1455 -0.5028
 2725W        W 6925   4.873   2.953  12.488  0.2984 -0.2850  0.0079
 2726W        W 6926   0.363   0.556   9.834  0.0334 -0.0159 -0.3090
 2727W        W 6927   1.974   1.327  12.493 -0.1219  0.2954  0.0528
 2728W        W 6928  10.327   3.632   9.803  0.0793 -0.0986  0.0687
 2729W        W 6929   0.249   2.642  12.382 -0.0649  0.1675  0.0561
 2730W        W 6930   3.372   7.583  12.788 -0.0723 -0.2362 -0.2457
 2731W        W 6931   7.213   2.113   0.509  0.0227 -0.0944 -0.2156
 2732W        W 6932   9.901   3.630  10.714 -0.0913  0.0263 -0.0361
 2733W        W 6933   8.091  10.396   3.729  0.2166 -0.0082  0.4898
 2734W        W 6934   1.904   9.945   3.925 -0.0228 -0.3582  0.1433
 2735W        W 6935   1.513   4.203   9.545 -0.0090  0.1461  0.1805
 2736W        W 6936   1.326   0.693   2.916 -0.0319 -0.1224 -0.0056
 2737W        W 6937   1.753   8.502  11.777  0.0577  0.3821  0.0459
 2738W        W 6938   1.998   0.713  11.328 -0.2346 -0.3424 -0.1846
 2739W        W 6939   1.665   9.881   4.335  0.2802 -0.2263 -0.1851
 2740W        W 6940   2.710   3.701   9.860  0.0340 -0.0561  0.0312
 2741W        W 6941   1.960   2.225   0.372  0.0243  0.0141  0.0061
 2742W        W 6942   5.936   6.388   9.544 -0.0494  0.1795  0.2772
 2743W        W 6943   8.474   8.238   0.010  0.1458  0.0151 -0.2064
 2744W        W 6944   3.396   6.534   1.107 -0.2894  0.0067 -0.2404
 2745W        W 6945   3.908   5.848   1.058  0.1139  0.0072  0.2692
 2746W        W 6946   2.205   6.105  13.293 -0.1032  0.0577 -0.1517
 2747W        W 6947   1.800   0.302   5.202 -0.0956 -0.0796 -0.1173
 2748W        W 6948   9.378   5.974   1.841  0.0396  0.1054  0.2167
 2749W        W 6949   0.873   7.901  10.911  0.1195  0.0536 -0.0724
 2750W        W 6950   2.474   1.922  12.572  0.0127  0.2419  0.1510
 2751W        W 6951   7.118   3.185  13.200  0.2515  0.1862 -0.3707
 2752W        W 6952   1.682   9.307  12.942 -0.1789 -0.0904  0.1266
 2753W        W 6953   3.605   6.552   0.216  0.1691 -0.1239 -0.0615
 2754W        W 6954   1.907   4.460  13.345 -0.0806 -0.1125  0.0136
 2755W        W 6955  10.430   7.328   1.346 -0.2880 -0.0278 -0.2013
 2756W        W 6956   5.926  10.231   4.040  0.2335 -0.2614 -0.2613
 2757W        W 6957   9.664   4.974   0.204 -0.1479 -0.1420 -0.2014
 2758W        W 6958   4.560   2.616   3.578  0.1663 -0.5799 -0.3699
 2759W        W 6959   5.300   8.978   2.776 -0.3991 -0.0057  0.3283
 2760W        W 6960   6.635   2.410  11.174 -0.1611  0.0138 -0.2863
 2761W        W 6961   3.356   6.189   2.528  0.3903  0.1056 -0.0250
 2762W        W 6962   3.184   2.270  11.482 -0.0249  0.0451  0.2911
 2763W        W 6963   8.841   5.301  11.679  0.2597  0.1797  0.0868
 2764W        W 6964   5.816  10.384  11.381  0.3047 -0.0892 -0.0657
 2765W        W 6965   0.232   6.069   8.720 -0.3375  0.2398 -0.0839
 2766W        W 6966   7.870   4.307  13.437  0.0419 -0.0397  0.0264
 2767W        W 6967   1.846   3.847   2.933 -0.2309 -0.1143  0.0381
 2768W        W 6968   2.040  10.027   0.168  0.0463 -0.0678  0.2836
 2769W        W 6969   4.089   8.254  10.675 -0.0724 -0.1168  0.1479
 2770W        W 6970   7.473   8.362   1.116  0.1794 -0.1068 -0.0425
 2771W        W 6971  10.249   4.344  11.997  0.1467 -0.2147 -0.0534
 2772W        W 6972   0.530   4.095   5.271  0.2510  0.3140  0.2131
 2773W        W 6973   0.549   6.353   2.146  0.1676 -0.2351 -0.3389
 2774W        W 6974   6.212   3.831   0.317  0.3055  0.2573  0.3314
 2775W        W 6975   1.535   3.789   2.498 -0.0562  0.2271 -0.0085
 2776W        W 6976   6.370   9.467   1.678  0.0309 -0.0101  0.2209
 2777W        W 6977   4.303   6.828  11.687  0.1016 -0.0224  0.2227
 2778W        W 6978   3.374   5.660   0.513 -0.2458 -0.1646 -0.1952
 2779W        W 6979   2.561   7.297  11.611 -0.0829  0.1629 -0.0086
 2780W        W 6980   8.320   9.777   0.575 -0.0495 -0.2286  0.3243
 2781W        W 6981   4.141  10.443   5.354 -0.0357 -0.0266 -0.0699
 2782W        W 6982   5.205   2.635  12.509  0.2485  0.0937  0.1481
 2783W        W 6983   4.506   1.032   0.910 -0.0751  0.0085 -0.0375
 2784W        W 6984  10.120   7.661   9.765 -0.4331 -0.0294  0.0417
 2785W        W 6985   7.441   8.254   4.077 -0.0676 -0.2394  0.0597
 2786W        W 6986   6.028   5.155  11.461 -0.1463 -0.6375  0.1940
 2787W        W 6987   9.903   3.658   8.583 -0.1425 -0.1918  0.2056
 2788W        W 6988   7.723   6.071   3.464  0.0454  0.2361  0.0353
 2789W        W 6989   9.213   4.387  11.802 -0.0914  0.0107  0.0742
 2790W        W 6990   2.024   5.291  11.612 -0.1147  0.1150  0.0149
 2791W        W 6991   2.273   0.714   2.781 -0.1370 -0.2482  0.0604
 2792W        W 6992   4.784   3.355   4.288 -0.1331  0.1273 -0.0619
 2793W        W 6993   9.698   3.972  12.962  0.0899 -0.1589  0.1213
 2794W        W 6994   0.751   9.468   9.968  0.0349 -0.2132 -0.3780
 2795W        W 6995   1.076   5.034  11.755 -0.1692  0.3210 -0.2123
 2796W        W 6996   1.581   5.009  11.729 -0.0759  0.0683  0.1488
 2797W        W 6997   7.686   0.343   3.837  0.1363  0.1045 -0.0014
 2798W        W 6998   0.936   7.409   2.079  0.0290 -0.0916 -0.1032
 2799W        W 6999   5.582   9.218   9.438 -0.0680 -0.3648  0.0302
 2800W        W 7000  10.188   1.145   0.321  0.2997  0.2530 -0.0004
 2801W        W 7001   6.201   7.905   3.220 -0.0031  0.3013 -0.2692
 2802W        W 7002   6.466  10.041   2.405 -0.0769  0.0699  0.2752
 2803W        W 7003   9.452   8.902   1.218  0.0952  0.2030 -0.0416
 2804W        W 7004   5.724  10.342  12.415 -0.1186 -0.1783 -0.2206
 2805W        W 7005   7.342   3.837   4.380 -0.1584  0.3057  0.1108
 2806W        W 7006   8.915   1.404   9.630 -0.0134 -0.0442 -0.1778
 2807W        W 7007   6.209   1.666  10.737  0.4996  0.0678 -0.0885
 2808W        W 7008   2.555   9.495  11.234 -0.0068  0.2429 -0.1218
 2809W        W 7009   9.235   9.536   9.093 -0.2755  0.1930 -0.1354
 2810W        W 7010   6.353   1.542   0.321 -0.1226  0.2552 -0.0067
 2811W        W 7011   4.918   2.157  13.431 -0.0472 -0.0509  0.1882
 2812W        W 7012   8.294   7.569   1.994  0.1903  0.1662  0.1364
 2813W        W 7013   7.058   1.832  12.126 -0.1554  0.1628 -0.2213
 2814W        W 7014   0.122   4.951  12.000  0.1024 -0.0304 -0.2350
 2815W        W 7015   3.235   9.074   8.926 -0.1260 -0.0935  0.0877
 2816W        W 7016   0.275  10.316   5.101 -0.2099  0.0993  0.0585
 2817W        W 7017   9.318   9.160   2.115  0.0911 -0.1161  0.0985
 2818W        W 7018  10.201   5.536   9.993 -0.2980 -0.1065 -0.2421
 2819W        W 7019   5.534   8.478   2.824 -0.0044  0.1325  0.1880
 2820W        W 7020   2.573   4.928   2.950 -0.1134 -0.0430  0.0041
 2821W        W 7021   9.441   3.149  10.313 -0.0668 -0.1432  0.0417
 2822W        W 7022   6.698   6.846   1.578  0.0594 -0.2146 -0.0847
 2823W        W 7023   9.014   8.309   3.276  0.2773 -0.1974 -0.3215
 2824W        W 7024   4.847   8.970  12.121  0.0720 -0.0011 -0.0152
 2825W        W 7025   2.065   4.593   0.462 -0.4404 -0.1239 -0.3803
 2826W        W 7026   0.764   7.876   1.676 -0.1846  0.0086  0.1389
 2827W        W 7027   5.536   5.442   3.280 -0.2570 -0.1366  0.2041
 2828W        W 7028   1.212   0.616   3.432 -0.2790 -0.0822 -0.0716
 2829W        W 7029   9.250   5.740   8.047 -0.3556  0.1011  0.3141
 2830W        W 7030   6.899   9.459   3.525  0.0379 -0.0698  0.0483
 2831W        W 7031   5.365   4.694  11.246 -0.4922 -0.0865 -0.2889
 2832W        W 7032   8.233   2.899  12.993 -0.2869  0.2268  0.0123
 2833W        W 7033   6.933   6.437   4.885 -0.0529  0.2124 -0.3966
 2834W        W 7034   7.370   3.972  10.528  0.2721  0.0508 -0.1278
 2835W        W 7035   4.922   9.947  12.838  0.1044 -0.1315 -0.2405
 2836W        W 7036   6.501   0.384   1.285  0.0124  0.4926 -0.4321
 2837W        W 7037   5.308   4.750   3.748  0.1553  0.1873  0.1119
 2838W        W 7038   6.680   7.976   0.471  0.4996 -0.1867 -0.3947
 2839W        W 7039   6.076   3.791   2.975 -0.1731 -0.1026 -0.2439
 2840W        W 7040   4.451   0.050   8.560  0.2353  0.1457 -0.0984
 2841W        W 7041   6.426   9.163  11.656  0.0824 -0.0698 -0.1670
 2842W        W 7042   9.385   3.572   0.441  0.0633 -0.3018  0.1855
 2843W        W 7043  10.207   3.939   3.087 -0.0493 -0.3034  0.2432
 2844W        W 7044   6.456   3.569  13.045 -0.1583 -0.2034  0.1805
 2845W        W 7045   1.898   7.026  11.054 -0.2836 -0.3712  0.1713
 2846W        W 7046   9.823   3.748   0.528 -0.3628  0.1496 -0.0809
 2847W        W 7047   3.004   9.231   3.722  0.0125 -0.0616  0.0593
 2848W        W 7048   2.930   9.724  13.363  0.2515  0.3571  0.0153
 2849W        W 7049   9.292   2.960   0.995  0.0472 -0.4287  0.1815
 2850W        W 7050   0.143   4.436   3.569  0.3094 -0.2584 -0.1242
 2851W        W 7051   6.973   7.065   3.643 -0.1299  0.1570 -0.2717
 2852W        W 7052   5.435   4.580  11.720  0.0758  0.0414 -0.1076
 2853W        W 7053   1.800   2.476  10.749 -0.0855  0.0720  0.1569
 2854W        W 7054   6.170   6.155   9.965 -0.0362 -0.2944  0.1192
 2855W        W 7055   0.924   9.761  10.400 -0.3440 -0.1929  0.1107
 2856W        W 7056   7.698  10.175  11.434 -0.2407  0.0342  0.2373
 2857W        W 7057   8.209   7.070   9.747  0.0614  0.0422 -0.1287
 2858W        W 7058  10.070   9.208  11.612  0.0070  0.1533  0.0372
 2859W        W 7059   1.551   5.456  10.037 -0.1312 -0.1525  0.0185
 2860W        W 7060   6.646   2.326  13.436 -0.1599 -0.0051  0.0100
 2861W        W 7061   7.546  10.257   2.706  0.1894 -0.0910  0.1216
 2862W        W 7062   3.850   4.635   2.601 -0.2192  0.1337 -0.2300
 2863W        W 7063   0.133   1.925  13.003  0.0183 -0.0171  0.2242
 2864W        W 7064   2.762   6.971   2.576  0.0880 -0.3750 -0.3226
 2865W        W 7065   8.125   6.049   8.559 -0.3661  0.0686  0.3652
 2866W        W 7066   1.660   2.240  10.076 -0.1300 -0.1195 -0.0444
 2867W        W 7067   6.111   0.878   2.932  0.2932 -0.2760  0.0614
 2868W        W 7068   4.492   2.891  11.021  0.1042  0.2384  0.0473
 2869W        W 7069   4.349   5.463   0.356 -0.1468 -0.0480  0.0697
 2870W        W 7070   0.142   4.962   0.478  0.1672  0.2818 -0.2140
 2871W        W 7071   7.980  10.126   1.390 -0.0221  0.1549 -0.0073
 2872W        W 7072   9.171  10.344   0.653  0.0235  0.3624 -0.2270
 2873W        W 7073   8.471   3.995   4.247  0.1364 -0.1381 -0.0060
 2874W        W 7074   8.408   7.476   2.493 -0.1612 -0.1364 -0.1568
 2875W        W 7075   5.196   1.686  10.393  0.0828  0.2017 -0.2275
 2876W        W 7076   6.366   9.566   8.809 -0.2077  0.1925 -0.3960
 2877W        W 7077   9.672   2.229   3.792 -0.0516 -0.0079  0.0758
 2878W        W 7078   0.046   6.240   1.103  0.1554  0.1413  0.1967
 2879W        W 7079   4.372   7.562   1.841 -0.0016  0.1462 -0.0788
 2880W        W 7080  10.252   0.014  12.552  0.1382  0.0350 -0.1083
 2881W        W 7081   0.525   6.987  10.833 -0.0307  0.1127  0.2316
 2882W        W 7082   9.872   8.466   2.312  0.1982 -0.1239 -0.0085
 2883W        W 7083   7.607  10.404   0.593 -0.1418 -0.1784 -0.0957
 2884W        W 7084   5.856   3.467  13.008  0.1208 -0.1724 -0.0789
 2885W        W 7085   4.010   9.630   3.593  0.0282  0.0044 -0.0277
 2886W        W 7086   1.141   9.530   4.439 -0.0665 -0.1895  0.1948
 2887W        W 7087   9.039   5.356  12.980 -0.0207  0.1038 -0.0507
 2888W        W 7088   7.838   1.912  13.108 -0.2454  0.0687  0.4671
 2889W        W 7089   2.851   8.876  10.167  0.1447 -0.1950 -0.2072
 2890W        W 7090   4.971   1.758   1.202  0.0111  0.5144  0.1892
 2891W        W 7091   8.717   5.835   4.293 -0.0744 -0.0050  0.4557
 2892W        W 7092   0.195   8.849  12.808 -0.0268 -0.0275  0.0446
 2893W        W 7093   0.416   7.375  13.178  0.0719 -0.0410 -0.0525
 2894W        W 7094   6.787   8.801  10.638 -0.0110 -0.1858 -0.0114
 2895W        W 7095   3.990   2.510   9.942  0.4067  0.0803 -0.2428
 2896W        W 7096   7.452   4.959   3.346  0.0527  0.0991 -0.0864
 2897W        W 7097   8.241   2.500  13.357  0.1894  0.4476 -0.0392
 2898W        W 7098   8.045   9.019  10.396  0.3031  0.2426 -0.0653
 2899W        W 7099   9.319   8.378   8.070 -0.1856 -0.1132  0.1370
 2900W        W 7100   5.224   8.382   3.202  0.1618 -0.0755 -0.0026
 2901W        W 7101   1.640   8.233   2.592  0.0240 -0.1251 -0.0523
 2902W        W 7102   4.384   1.648  11.935  0.1989  0.2967 -0.1210
 2903W        W 7103  10.236   8.349   9.611 -0.3321 -0.1065  0.2219
 2904W        W 7104   6.841   4.476   2.887  0.1059 -0.1499 -0.0389
 2905W        W 7105   4.634  10.471  10.209 -0.0679 -0.0396 -0.0308
 2906W        W 7106   4.257   8.924   0.888 -0.0936  0.1674 -0.0193
 2907W        W 7107   5.308   8.657   0.930  0.4288 -0.3328  0.1150
 2908W        W 7108   3.579   7.927  10.695 -0.0935 -0.0426  0.1261
 2909W        W 7109  10.121   5.366   3.960 -0.1946 -0.1072 -0.4299
 2910W        W 7110   7.526   1.697  12.026  0.0510  0.3310 -0.1790
 2911W        W 7111   6.034   6.921  11.367  0.2044  0.1101 -0.0996
 2912W        W 7112   1.392   5.736   3.835 -0.1700 -0.0078  0.2263
 2913W        W 7113   1.974   5.016   2.324 -0.2973 -0.0975 -0.1291
 2914W        W 7114   1.072   1.669   0.110 -0.0364 -0.5388 -0.0548
 2915W        W 7115   1.415   2.854   0.959  0.2828 -0.2564  0.2489
 2916W        W 7116   1.361   0.580   0.835  0.1648  0.0268  0.0859
 2917W        W 7117   0.943   1.627  13.054  0.1175  0.0315 -0.1124
 2918W        W 7118   2.163   0.448   3.295  0.1213 -0.3238  0.1297
 2919W        W 7119  10.099   9.930   3.784 -0.0993 -0.0361  0.3508
 2920W        W 7120   4.565   5.804  11.851  0.2530 -0.2380 -0.0664
 2921W        W 7121   4.038  10.097   3.703  0.0482  0.1119  0.1266
 2922W        W 7122   4.617   6.848   0.033 -0.4226  0.1269  0.3129
 2923W        W 7123   0.672  10.021   5.180 -0.1280 -0.2317 -0.3185
 2924W        W 7124   0.309   8.586  11.884  0.0585  0.0202  0.0409
 2925W        W 7125   6.058   4.041   1.189 -0.0015  0.2140  0.0408
 2926W        W 7126   5.219  10.299  12.316 -0.0279  0.0488  0.1280
 2927W        W 7127   0.763   5.580   4.436  0.0643  0.0869  0.2353
 2928W        W 7128   7.096   6.980  12.764  0.2223  0.1758  0.1303
 2929W        W 7129   0.888   5.894  12.532 -0.0106 -0.0910  0.0268
 2930W        W 7130   2.334   9.730  10.663  0.0634 -0.2177 -0.0330
 2931W        W 7131   8.655   0.721   0.901  0.0454  0.0166  0.1424
 2932W        W 7132   7.912   2.655   5.201  0.3963 -0.0824  0.0989
 2933W        W 7133   6.877   4.565   3.388 -0.1221 -0.0396  0.0717
 2934W        W 7134   2.677   0.261  10.589  0.1203 -0.0749  0.0560
 2935W        W 7135   3.033   9.324   8.419 -0.1265 -0.0608  0.0280
 2936W        W 7136   1.020   5.950  10.575 -0.0688 -0.0389  0.3024
 2937W        W 7137   0.853   5.535   1.671 -0.0007 -0.1001  0.1596
 2938W        W 7138   1.287   7.264  10.296 -0.1920  0.2391  0.2974
 2939W        W 7139   1.480   4.913  12.393  0.2880 -0.1856  0.0063
 2940W        W 7140   3.219  10.040  13.034  0.1253 -0.3175 -0.1788
 2941W        W 7141   1.095   8.542   9.603 -0.0083  0.0288  0.0666
 2942W        W 7142   0.805   6.568  10.653 -0.2372 -0.0487  0.1010
 2943W        W 7143   0.758   7.791  12.455 -0.0003 -0.4047 -0.1910
 2944W        W 7144   0.077   2.045  11.899 -0.0339  0.1358  0.1344
 2945W        W 7145   3.688   0.267  11.610  0.0999 -0.0920 -0.1654
 2946W        W 7146   6.327   0.426   2.223 -0.3395 -0.3509  0.1236
 2947W        W 7147   0.805   1.954   2.192 -0.2072  0.2184 -0.0364
 2948W        W 7148   6.629   9.768  12.899 -0.1329  0.1677  0.0914
 2949W        W 7149   6.458   4.876   3.151 -0.0755  0.0276 -0.0574
 2950W        W 7150   7.381   9.912  11.176  0.0059 -0.1065 -0.1840
 2951W        W 7151   2.258   0.399   4.932  0.0208 -0.2092  0.1870
 2952W        W 7152   8.014   1.449  12.952  0.3232  0.0715  0.2976
 2953W        W 7153   0.631   3.110  13.152  0.1401  0.3735 -0.0384
 2954W        W 7154   3.969   7.152   2.758 -0.0855  0.0840 -0.0453
 2955W        W 7155  10.130   7.520   0.375  0.0168  0.4684 -0.2723
 2956W        W 7156   8.555   8.051  10.752 -0.2946  0.0652 -0.1182
 2957W        W 7157   5.886   3.530   3.504  0.2747  0.0620 -0.0990
 2958W        W 7158  10.247   8.224   0.376 -0.0745  0.1425  0.0887
 2959W        W 7159   6.587   6.306   0.553  0.0787 -0.0421  0.1228
 2960W        W 7160   2.347   0.581   8.861  0.0875  0.1565 -0.0419
 2961W        W 7161   9.963   6.866  10.912  0.0471  0.1768  0.2231
 2962W        W 7162   3.299   7.435  10.780  0.1307  0.1821  0.0941
 2963W        W 7163   9.119  10.128   2.254  0.1094 -0.0192  0.0867
 2964W        W 7164   8.517   5.351   9.327 -0.0979 -0.0162 -0.0562
 2965W        W 7165   7.050   1.405  12.855 -0.1490 -0.2313 -0.0260
 2966W        W 7166   2.639   0.070  12.222  0.2348  0.2319  0.0763
 2967W        W 7167   4.621   2.608   1.722 -0.0251  0.1128 -0.1349
 2968W        W 7168   2.086   9.717   3.008  0.0504  0.2924  0.2475
 2969W        W 7169   7.337   6.315   4.033 -0.1452  0.0419 -0.1850
 2970W        W 7170   8.795   4.343   0.293 -0.0250  0.0429 -0.1226
 2971W        W 7171   3.864   0.807  11.519 -0.0132 -0.0338  0.2115
 2972W        W 7172   6.748   2.076   3.030  0.2404 -0.1709  0.1124
 2973W        W 7173   2.685   3.327   2.057  0.0927 -0.0378  0.0650
 2974W        W 7174   5.745   8.632  12.115 -0.0991  0.1618 -0.1879
 2975W        W 7175   7.103   1.027   5.105 -0.3645  0.3014 -0.2917
 2976W        W 7176   5.699  10.313   1.937  0.0287  0.1942  0.1196
 2977W        W 7177   9.571   6.819  12.515 -0.0465  0.2991  0.1297
 2978W        W 7178   6.170   9.326  10.785 -0.0872  0.3391  0.0518
 2979W        W 7179   7.158   2.934   3.344 -0.0768  0.2587  0.0796
 2980W        W 7180   2.884  10.048   1.896 -0.3960 -0.1316  0.1604
 2981W        W 7181   2.481   8.173   0.560  0.0819  0.0876 -0.0997
 2982W        W 7182   6.459   8.305  12.531 -0.3321  0.2002 -0.4083
 2983W        W 7183   0.395   1.404  11.421  0.1864  0.0261 -0.0924
 2984W        W 7184   7.806   0.194  11.331  0.2075  0.0866 -0.2219
 2985W        W 7185   5.242   0.514   8.886 -0.2063  0.3735 -0.0762
 2986W        W 7186   9.675   1.757  12.835  0.1958  0.4677  0.3037
 2987W        W 7187   8.169   1.590   2.222 -0.1126  0.2406  0.1023
 2988W        W 7188   6.796   3.521   1.540 -0.1638  0.0752 -0.5291
 2989W        W 7189   1.641   5.152  12.927  0.0348  0.4117  0.1162
 2990W        W 7190   5.427   1.156   0.752 -0.1853  0.2577 -0.1613
 2991W        W 7191   5.212   6.027   2.830 -0.0130 -0.0655  0.2186
 2992W        W 7192   8.217   8.488  10.452 -0.1005  0.1743 -0.1756
 2993W        W 7193   7.014   7.958  10.940 -0.0666 -0.3326  0.1706
 2994W        W 7194   3.390   8.733   0.173 -0.0457 -0.0887  0.0913
 2995W        W 7195   5.472   3.061   1.884  0.1468  0.2912  0.0428
 2996W        W 7196   6.384   3.295   1.448  0.0430  0.0696 -0.3143
 2997W        W 7197   7.010   5.407  12.238  0.0236  0.2540  0.3631
 2998W        W 7198   3.717   6.520   2.630 -0.0669 -0.0993 -0.3776
 2999W        W 7199   7.020   2.661   1.189 -0.0367 -0.1071 -0.0608
 3000W        W 7200   8.237   8.976  12.271 -0.1702  0.1630  0.1578
 3001W        W 7201   0.920   6.059  12.989  0.0227 -0.2531  0.5675
 3002W        W 7202   2.395   1.175  11.823  0.0121 -0.1737 -0.2414
 3003W        W 7203   1.274   5.238   8.729  0.1027  0.1597  0.0731
 3004W        W 7204   0.270   7.997   1.932 -0.4488  0.2618  0.1062
 3005W        W 7205  10.055   6.516   0.293 -0.1755  0.1984 -0.0585
 3006W        W 7206   8.394   6.381   9.370  0.1583 -0.0638 -0.0424
 3007W        W 7207   6.339   2.400   4.199  0.0411  0.0292  0.0148
 3008W        W 7208   1.259   2.881  12.680  0.1778 -0.0119 -0.0831
 3009W        W 7209   4.410   0.355   9.281 -0.2776  0.0431  0.0419
 3010W        W 7210   4.264   0.300  11.405  0.2197  0.2004  0.1327
 3011W        W 7211   0.192   4.461  11.788  0.0551  0.1090  0.1044
 3012W        W 7212   6.835   4.762   9.778 -0.1933 -0.1745  0.0552
 3013W        W 7213   7.619   1.109   2.517 -0.1390  0.0957  0.3004
 3014W        W 7214   0.862   0.380  13.437  0.1453 -0.1149  0.3146
 3015W        W 7215   6.934   0.416   1.562 -0.1419  0.2684 -0.1316
 3016W        W 7216   7.955   3.335  10.409  0.0201 -0.1139 -0.0178
 3017W        W 7217   0.529   1.888   3.101 -0.2189 -0.1008 -0.2349
 3018W        W 7218   6.453   0.083   0.858  0.2326 -0.0598  0.0926
 3019W        W 7219   7.677   0.318   8.956 -0.4405 -0.1142 -0.0908
 3020W        W 7220   2.464   2.883   9.589 -0.0143 -0.0132  0.5203
 3021W        W 7221   4.807   3.759   1.003  0.0378  0.0372  0.0070
 3022W        W 7222   3.389   8.193   0.279  0.4020  0.2570  0.1693
 3023W        W 7223   9.992   8.391  10.461 -0.2536 -0.0985  0.1793
 3024W        W 7224   9.770   6.318   9.673 -0.0555  0.0462 -0.3350
 3025W        W 7225   1.885   4.700  12.182  0.0999  0.0038  0.0875
 3026W        W 7226   8.710   3.171   1.076 -0.2481 -0.0595  0.0041
 3027W        W 7227   2.877   0.290   2.600  0.1933  0.3158 -0.3246
 3028W        W 7228   9.721   8.861  10.660 -0.0366  0.3078 -0.1609
 3029W        W 7229   2.446   5.610   0.605 -0.1154  0.0614  0.0483
 3030W        W 7230   5.019   8.319   0.655 -0.1219  0.2242  0.0293
 3031W        W 7231   1.998   4.143  12.905 -0.5175  0.2063 -0.3840
 3032W        W 7232   9.130   0.220   0.356  0.0898  0.0922  0.4812
 3033W        W 7233   6.757   2.334   3.850 -0.3891 -0.0222 -0.0915
 3034W        W 7234   4.929   4.240   0.063 -0.0929  0.2365 -0.1504
 3035W        W 7235   8.152   9.650   1.297  0.0262 -0.0733 -0.1612
 3036W        W 7236   9.534   2.845   2.978 -0.0396 -0.0898  0.0822
 3037W        W 7237   0.818   9.449   1.424  0.1247 -0.0334 -0.3617
 3038W        W 7238   8.156   4.736  11.229 -0.0135 -0.0114  0.1148
 3039W        W 7239   5.839   0.308   4.089 -0.1014  0.0351 -0.0202
 3040W        W 7240   3.553   4.581   9.188 -0.1153  0.0181 -0.2780
 3041W        W 7241   7.241   4.791  10.803 -0.2877 -0.0191  0.0741
 3042W        W 7242   0.117   7.284   4.362  0.3424  0.0291  0.0862
 3043W        W 7243  10.373   3.459   4.468 -0.0989 -0.3782  0.2261
 3044W        W 7244   8.637   1.603  10.479 -0.1391  0.0084  0.0953
 3045W        W 7245   4.679   7.565  12.993 -0.0758 -0.0206  0.4833
 3046W        W 7246   6.438   0.634   3.188 -0.1250 -0.2242 -0.1226
 3047W        W 7247   8.401   0.973  10.843 -0.3384 -0.3806  0.0310
 3048W        W 7248   1.768  10.435  13.421 -0.2522  0.1603  0.1756
 3049W        W 7249   3.756   3.562   3.381 -0.0055 -0.1120  0.1648
 3050W        W 7250   0.623   1.142   1.320 -0.3317 -0.2569  0.1631
 3051W        W 7251   9.414   7.852   2.702 -0.1751 -0.0298 -0.0833
 3052W        W 7252   4.888   8.912   0.020 -0.1594 -0.0893 -0.4799
 3053W        W 7253   3.811   0.908  13.096  0.1489  0.3947 -0.0316
 3054W        W 7254   0.144   4.349   1.620  0.1031 -0.1907  0.0945
 3055W        W 7255   8.954   6.397   3.181  0.2068  0.0292 -0.2724
 3056W        W 7256   7.141   5.705  10.519 -0.1634  0.0379  0.2033
 3057W        W 7257   8.759   7.486   4.223 -0.3589  0.1428 -0.2875
 3058W        W 7258   0.873   7.050  13.272 -0.1896 -0.1157  0.1422
 3059W        W 7259   1.905   1.872  13.169 -0.4118  0.1839  0.0495
 3060W        W 7260   7.600   4.932  10.472  0.3481 -0.0782  0.1139
 3061W        W 7261   9.557   8.231   9.015 -0.0260  0.2411 -0.0673
 3062W        W 7262   0.494   9.165  11.073 -0.0360  0.0803  0.1839
 3063W        W 7263   4.460   6.498   3.338 -0.0310  0.0536 -0.0720
 3064W        W 7264   3.615   9.731  12.680  0.4100  0.1859  0.0157
 3065W        W 7265   0.739   0.207  12.966  0.0505 -0.1052 -0.3242
 3066W        W 7266   9.773   7.214  12.124 -0.0260 -0.2630  0.0756
 3067W        W 7267   0.171  10.052   1.119 -0.1420 -0.3886  0.3665
 3068W        W 7268   4.622   0.500   4.762  0.0485  0.2657 -0.3454
 3069W        W 7269   3.798   2.828  11.526  0.0185 -0.0268 -0.0062
 3070W        W 7270   4.183   9.781  11.890 -0.0559  0.2210  0.0373
 3071W        W 7271  10.038   1.778   4.910  0.0802 -0.4557  0.3723
 3072W        W 7272   0.536   3.040   9.989 -0.1418  0.1767  0.0714
 3073W        W 7273   7.221   2.988   2.708  0.1553  0.2437 -0.1461
 3074W        W 7274   5.138   5.024  11.902  0.0664 -0.1754  0.0275
 3075W        W 7275  10.242   8.788  10.618  0.2250  0.1728 -0.0128
 3076W        W 7276   0.854   2.191  10.762 -0.2069 -0.2192 -0.1746
 3077W        W 7277   9.624   5.662   1.463 -0.0924 -0.0374  0.0145
 3078W        W 7278   6.029   0.797   4.060 -0.2602 -0.0404  0.0381
 3079W        W 7279   8.637   6.779  11.072  0.2215 -0.2473  0.0148
 3080W        W 7280   2.852  10.368  11.794  0.4174  0.1219 -0.2722
 3081W        W 7281   0.357  10.427   2.434  0.0528  0.1045 -0.2354
 3082W        W 7282   6.556   0.658   3.661 -0.1620  0.2169 -0.0533
 3083W        W 7283   9.780   8.934   2.371  0.2838 -0.1186 -0.3838
 3084W        W 7284   2.610   8.737   9.491  0.0440  0.0074 -0.2529
 3085W        W 7285  10.432   4.224   3.933  0.2871  0.0204 -0.1992
 3086W        W 7286   8.654   0.736   8.975 -0.0372 -0.0375  0.2367
 3087W        W 7287   0.677   7.183   2.510 -0.0137 -0.1221 -0.2092
 3088W        W 7288   1.809   5.537  10.908 -0.1390 -0.3194  0.0568
 3089W        W 7289   3.573   8.584  12.643 -0.1342 -0.0841  0.0634
 3090W        W 7290   9.687   4.539   9.641 -0.1224  0.1153 -0.0574
 3091W        W 7291   9.625   4.546  10.534  0.0785 -0.0630 -0.0171
 3092W        W 7292   3.028   2.903  10.872  0.0707 -0.4485  0.1103
 3093W        W 7293   9.210   6.031   0.653  0.0313 -0.0191 -0.1451
 3094W        W 7294   0.533   8.642   3.738  0.2790  0.0395 -0.2482
 3095W        W 7295   9.155   5.179  10.785  0.1955  0.0217 -0.3629
 3096W        W 7296  10.188   3.713   1.460  0.0760  0.3984 -0.1848
 3097W        W 7297   7.636   8.381   2.304 -0.3753 -0.0245 -0.2220
 3098W        W 7298   3.792   4.293   1.761 -0.1541  0.0346 -0.3068
 3099W        W 7299   7.306   4.449  13.312  0.2483 -0.2439  0.3628
 3100W        W 7300   9.628  10.293   3.193 -0.2517 -0.1126 -0.1684
 3101W        W 7301   2.235   1.452   2.084 -0.0464 -0.1886  0.1842
 3102W        W 7302   1.636   2.821   2.614 -0.0053 -0.0381  0.2873
 3103W        W 7303   2.897   3.857   4.379  0.0096 -0.1025  0.0764
 3104W        W 7304   8.699   0.717  11.795 -0.2837  0.3507 -0.4209
 3105W        W 7305   5.506   1.531   0.443 -0.0204  0.1511 -0.0254
 3106W        W 7306   8.496   8.499   2.065 -0.0003  0.0971  0.2097
 3107W        W 7307   3.635   9.172  12.689  0.1408 -0.0183 -0.2757
 3108W        W 7308   6.136   7.023   2.339  0.0197 -0.1577 -0.0980
 3109W        W 7309   8.522   7.420  12.753 -0.1520 -0.0076 -0.0525
 3110W        W 7310   9.706   2.301  12.298  0.2310  0.0639 -0.0233
 3111W        W 7311   0.439   2.164  10.540  0.3740 -0.2066  0.0637
 3112W        W 7312   6.443   7.260   4.527  0.0780  0.1783  0.2496
 3113W        W 7313   6.825   9.826   2.045 -0.0259  0.1613 -0.2567
 3114W        W 7314   6.927   1.025   3.734  0.3338 -0.1023  0.2039
 3115W        W 7315   9.676   9.277  11.922 -0.0683  0.1288  0.1768
 3116W        W 7316   2.733   3.534   2.901  0.0128  0.0811 -0.3998
 3117W        W 7317   4.000   7.136  11.272 -0.1974 -0.0426  0.0919
 3118W        W 7318   8.296   5.082   4.103  0.0640 -0.0699  0.1085
 3119W        W 7319  10.013   2.086  10.938 -0.1576  0.1646 -0.0105
 3120W        W 7320   9.932   2.991   2.580 -0.0666 -0.0977  0.2102
 3121W        W 7321   7.960   0.832   1.011  0.1291  0.1149 -0.1966
 3122W        W 7322   4.622   1.292  10.897  0.2118  0.0697 -0.2589
 3123W        W 7323   5.592   0.141   8.647  0.2737  0.2230 -0.1173
 3124W        W 7324   1.491   6.800  11.324 -0.0763 -0.0299  0.3939
 3125W        W 7325   3.598   9.367   9.483  0.1780 -0.2372  0.1304
 3126W        W 7326   6.954   4.349   3.908  0.2203 -0.0022  0.0466
 3127W        W 7327   4.301   5.446  11.612 -0.1068  0.2341 -0.1491
 3128W        W 7328   8.079   8.315   2.398 -0.1621  0.0333 -0.3554
 3129W        W 7329   4.218   0.207   3.827  0.0175  0.1267  0.2376
 3130W        W 7330   6.584   2.726   9.773 -0.1952 -0.1885 -0.0871
 3131W        W 7331   8.597   2.276   9.997 -0.3508  0.0672 -0.2568
 3132W        W 7332   1.033   3.659  12.141 -0.0707  0.0512 -0.1617
 3133W        W 7333   5.948   2.826   3.572  0.1361 -0.1600  0.3618
 3134W        W 7334   9.417  10.047   9.429  0.2059  0.1852 -0.0840
 3135W        W 7335   4.830   1.535   2.409 -0.1131 -0.1305  0.0694
 3136W        W 7336   1.057   1.284   1.036 -0.0756  0.2687 -0.0568
 3137W        W 7337   7.350   1.225   1.563 -0.0916  0.0262 -0.4972
 3138W        W 7338   7.191   0.040  11.788  0.1616 -0.0298 -0.0384
 3139W        W 7339  10.104   0.040  10.323  0.1973 -0.1402  0.1732
 3140W        W 7340   6.622   7.557   0.743  0.0423 -0.2523 -0.0424
 3141W        W 7341   6.330   0.570  11.840 -0.2348  0.0728  0.0302
 3142W        W 7342   0.094   3.923   2.753  0.2434  0.0754  0.1205
 3143W        W 7343   6.595   2.208   1.083 -0.0837  0.0432  0.0247
 3144W        W 7344   4.172   0.570   0.072  0.0210 -0.2722  0.1061
 3145W        W 7345   1.982   3.742   4.139  0.3565 -0.0179  0.2659
 3146W        W 7346   4.096   1.581  13.163 -0.1391  0.0990  0.0196
 3147W        W 7347   5.126   7.692   1.468  0.0103 -0.0866  0.0551
 3148W        W 7348   1.771   6.562  13.299 -0.0351  0.0475  0.0608
 3149W        W 7349   9.206   3.328   1.604  0.0103 -0.1411 -0.0335
 3150W        W 7350   0.333   3.719   3.176 -0.0068  0.0208  0.1284
 3151W        W 7351   6.090   2.540   9.934  0.2260 -0.1692 -0.1553
 3152W        W 7352   3.464   4.879  12.461  0.1276  0.0966  0.2425
 3153W        W 7353   4.126   0.459  11.944  0.0927 -0.0025  0.1971
 3154W        W 7354   8.097   5.886   3.746  0.0086 -0.0839 -0.0537
 3155W        W 7355  10.265   9.403   4.062  0.1605 -0.0351 -0.3525
 3156W        W 7356   8.931   4.039   4.738  0.0862 -0.3361 -0.0957
 3157W        W 7357   7.728   7.845   9.429  0.2252  0.2136  0.2906
 3158W        W 7358   5.471   8.104   1.566  0.0482 -0.0388 -0.2465
 3159W        W 7359   5.517   8.757  11.605 -0.1474 -0.1077 -0.2691
 3160W        W 7360   4.169   0.184   3.283 -0.2944 -0.0201  0.1313
 3161W        W 7361   2.888   3.356  13.072 -0.1352  0.0575  0.0050
 3162W        W 7362   9.373   8.456   0.317 -0.3402  0.4418 -0.1756
 3163W        W 7363   5.778   5.881   0.503 -0.0986 -0.3659  0.0115
 3164W        W 7364   6.636   4.852  12.923  0.0021 -0.0180  0.0489
 3165W        W 7365   3.503   2.252   1.187  0.1710  0.0720 -0.1345
 3166W        W 7366   9.742   1.934  10.541  0.2275  0.2401 -0.0246
 3167W        W 7367   6.143   1.513  11.306  0.0762  0.1499 -0.2035
 3168W        W 7368   8.523   5.291   3.257 -0.0322 -0.1311  0.0747
 3169W        W 7369   5.294   7.676   2.283 -0.2784  0.0265  0.2867
 3170W        W 7370   7.859   6.458  12.131  0.2369 -0.0309 -0.2250
 3171W        W 7371   4.856   8.855   1.211 -0.1014  0.0296  0.2148
 3172W        W 7372  10.150   9.439  12.163  0.2869  0.0107  0.1640
 3173W        W 7373  10.467   8.196   8.840 -0.0093  0.3142  0.2104
 3174W        W 7374   7.702   6.081   1.244  0.0325 -0.5887 -0.1290
 3175W        W 7375   6.943   6.341   3.084 -0.2016 -0.2868 -0.1620
 3176W        W 7376   5.594   2.386   1.214 -0.1677 -0.1340 -0.3187
 3177W        W 7377   9.817   3.149   0.216 -0.0080 -0.1382  0.0986
 3178W        W 7378   7.114   8.345   3.105 -0.2571 -0.0783  0.1559
 3179W        W 7379   7.012   8.330  12.514  0.1442  0.2283  0.2021
 3180W        W 7380   1.907   9.018   8.286  0.2062 -0.0478  0.1891
 3181W        W 7381   4.266   3.621   1.349  0.0645  0.2597 -0.0225
 3182W        W 7382   7.127   1.291   8.843 -0.1733 -0.0061  0.1267
 3183W        W 7383   7.176   3.812   3.565  0.3071  0.1106  0.2775
 3184W        W 7384   4.006   0.593  12.418 -0.0117 -0.1499  0.3367
 3185W        W 7385   6.800   3.808  10.621 -0.0942  0.2238  0.2512
 3186W        W 7386   1.126   8.805  10.543 -0.1279 -0.1198  0.0140
 3187W        W 7387   5.498   0.097   2.867 -0.1418 -0.0002 -0.1836
 3188W        W 7388   6.792   8.635   3.446  0.2320 -0.1619  0.0425
 3189W        W 7389   9.240   2.735   3.937 -0.3274  0.4547 -0.4113
 3190W        W 7390   5.257   0.692   0.880  0.3098 -0.3092 -0.0518
 3191W        W 7391   7.650   9.686   3.172  0.4352 -0.0909 -0.0191
 3192W        W 7392   3.971   8.944  10.788 -0.2251  0.1309  0.0306
 3193W        W 7393   2.223   9.368   2.091 -0.3654  0.0056  0.0778
 3194W        W 7394   7.086   3.271   3.763  0.0719 -0.1643 -0.1349
 3195W        W 7395   4.723   2.160   1.312  0.0497  0.0505 -0.4145
 3196W        W 7396   5.270   8.597   9.074  0.1197 -0.2106  0.0867
 3197W        W 7397   3.245   4.663  10.148 -0.2216  0.0243  0.2138
 3198W        W 7398   4.038   2.162  13.210  0.2717 -0.1679  0.2615
 3199W        W 7399   9.118   6.193  12.663 -0.1997 -0.0863 -0.0400
 3200W        W 7400   5.723   2.710  13.254  0.2017 -0.3538  0.1811
 3201W        W 7401   2.475   4.265   9.879  0.0199 -0.2170 -0.0386
 3202W        W 7402   9.552   9.711   0.764 -0.0576 -0.0994 -0.0807
 3203W        W 7403   6.506   4.244   0.941  0.4527  0.2198 -0.3184
 3204W        W 7404   5.695   3.603   2.626 -0.1260  0.0229 -0.0178
 3205W        W 7405   0.953   7.288   9.268 -0.0990 -0.0213  0.2543
 3206W        W 7406   0.835   3.575   3.218 -0.4468  0.0202 -0.2027
 3207W        W 7407   2.171   2.226  12.205 -0.2680 -0.2042  0.0692
 3208W        W 7408   0.450   5.437  12.039 -0.1546 -0.2055 -0.0016
 3209W        W 7409   2.820   5.288   2.667 -0.1542 -0.0254  0.0102
 3210W        W 7410   9.680   4.920  10.063  0.1535 -0.1051 -0.2136
 3211W        W 7411   7.115   3.376  10.638  0.0385  0.2387 -0.1988
 3212W        W 7412   4.088   7.596   3.499 -0.0446  0.1008  0.1932
 3213W        W 7413   3.619   1.209   0.458 -0.0331 -0.1916 -0.0547
 3214W        W 7414   5.543   3.353  10.741 -0.2461  0.1711  0.0377
 3215W        W 7415   7.273   0.793  12.294  0.2702 -0.2076 -0.3594
 3216W        W 7416   0.906   4.701   1.945 -0.0163  0.3779  0.1441
 3217W        W 7417   9.775  10.098   4.123  0.1438  0.1194  0.0056
 3218W        W 7418   0.641   6.146  10.311  0.0479 -0.0530  0.0076
 3219W        W 7419   2.153   0.230  11.203  0.2985 -0.2207 -0.0020
 3220W        W 7420   5.459   9.206  11.561 -0.2017 -0.2196 -0.1512
 3221W        W 7421   9.218   6.395   8.971  0.0735 -0.0058 -0.1678
 3222W        W 7422   6.134   9.406   3.058 -0.5056 -0.1024 -0.0445
 3223W        W 7423   5.748   3.354  11.874  0.1608  0.2269  0.3948
 3224W        W 7424   7.576   1.001  12.596 -0.1867  0.1003  0.0409
 3225W        W 7425   6.096   2.310  11.260  0.2685  0.2284  0.0927
 3226W        W 7426   1.781   4.216   0.359 -0.1423 -0.0490  0.1239
 3227W        W 7427   1.724   5.874   4.195 -0.0487 -0.0914 -0.1602
 3228W        W 7428   5.119   2.794   4.786 -0.3452 -0.2568  0.2335
 3229W        W 7429   3.225   2.460  10.513 -0.0309 -0.0487  0.2805
 3230W        W 7430   9.264   9.903  10.314  0.0213 -0.2593 -0.2641
 3231W        W 7431   1.737   5.566  13.307  0.1785  0.1353  0.1999
 3232W        W 7432   0.252   4.958  11.484 -0.0384  0.0877  0.1787
 3233W        W 7433   4.443   3.069   3.342  0.0074 -0.2847 -0.0737
 3234W        W 7434   6.951   4.693   9.291  0.2001  0.1739 -0.0236
 3235W        W 7435   0.526   1.423   2.248 -0.0076  0.0680 -0.0861
 3236W        W 7436   8.019  10.379  10.543 -0.2582 -0.1803  0.3235
 3237W        W 7437   1.833   1.355  10.266 -0.0621  0.0442  0.1757
 3238W        W 7438   3.498   0.731   2.652  0.0392 -0.0032  0.1016
 3239W        W 7439   6.358   5.183   2.786  0.0290  0.4277 -0.1940
 3240W        W 7440   8.666   5.135  12.718 -0.0924 -0.3702  0.2044
 3241W        W 7441  10.149   3.056   3.502 -0.1086  0.3340 -0.1956
 3242W        W 7442   5.104   7.805  10.735 -0.3064  0.0691  0.2439
 3243W        W 7443   5.603   2.272   2.353  0.0930 -0.0009  0.1190
 3244W        W 7444   5.473   7.868  10.331 -0.3535 -0.0924  0.1764
 3245W        W 7445   4.887   8.892  10.659 -0.2031  0.0606 -0.2339
 3246W        W 7446   2.094   9.279  10.695 -0.0473 -0.2478  0.0671
 3247W        W 7447   7.324   9.628   0.147  0.2021 -0.1959 -0.0995
 3248W        W 7448   4.231   7.258   0.818 -0.1976 -0.1320  0.0652
 3249W        W 7449   8.695   5.845  10.528  0.1268  0.2139  0.0803
 3250W        W 7450   4.238   0.505   2.912 -0.2870 -0.1777 -0.0426
 3251W        W 7451   0.723   0.529  10.718  0.1375  0.1250  0.3039
 3252W        W 7452   6.282   0.704  10.357  0.2053  0.0222  0.1048
 3253W        W 7453   9.208   9.296   8.244 -0.3142  0.0293  0.1056
 3254W        W 7454   2.920   7.609   0.670  0.1127  0.3812 -0.2473
 3255W        W 7455   2.704   9.513   0.317 -0.2141 -0.0732 -0.1256
 3256W        W 7456   2.346   3.958  12.575 -0.1306  0.4428 -0.1694
 3257W        W 7457  10.344   6.638  10.589 -0.0131 -0.0967  0.2546
 3258W        W 7458   9.058   6.548  11.209 -0.0019  0.1050 -0.2059
 3259W        W 7459   1.493   0.788   0.384  0.0790 -0.0248  0.1146
 3260W        W 7460   0.823  10.352   0.375 -0.1154 -0.1329 -0.2011
 3261W        W 7461   9.897   2.370   1.864  0.0074 -0.3131 -0.4167
 3262W        W 7462   8.958   9.922   4.585 -0.0870  0.0419  0.0327
 3263W        W 7463   6.155  10.155   4.504 -0.0826  0.1598 -0.0512
 3264W        W 7464   7.718   3.769   0.941  0.0788  0.2189 -0.1336
 3265W        W 7465   5.165   5.396   1.177 -0.0671 -0.1404 -0.1338
 3266W        W 7466   5.163   7.142   2.321  0.2233 -0.1481  0.0660
 3267W        W 7467   6.511   4.203   4.174  0.4738  0.3005  0.0989
 3268W        W 7468   1.710   3.986  11.600 -0.0423  0.3941  0.1081
 3269W        W 7469   8.808   2.771  10.032 -0.0481 -0.3191 -0.3365
 3270W        W 7470   9.860   3.715   3.351  0.1761 -0.0114  0.2161
 3271W        W 7471   8.245   4.008   0.947  0.1889  0.1487  0.1093
 3272W        W 7472   2.725   7.463  11.158 -0.1420  0.1340 -0.0365
 3273W        W 7473   5.760   4.691  12.347  0.0900 -0.0382 -0.1830
 3274W        W 7474   8.417   5.934   4.645 -0.2223  0.2298  0.0950
 3275W        W 7475   7.777   1.601   1.652 -0.3092 -0.2082  0.6227
 3276W        W 7476   9.816   1.744   8.968  0.0417  0.0774  0.2736
 3277W        W 7477   2.902   8.174  11.434  0.1636  0.1338 -0.1502
 3278W        W 7478   8.568   8.281   9.317  0.0457  0.0816  0.1469
 3279W        W 7479   8.300   7.373  11.215 -0.1227  0.1814  0.2589
 3280W        W 7480   1.202   4.917   9.140  0.4137 -0.1332 -0.0139
 3281W        W 7481   4.325   3.842   5.440 -0.0825  0.0372  0.0119
 3282W        W 7482   7.523   8.254   9.804  0.0711 -0.0624 -0.1015
 3283W        W 7483   3.336   8.479   0.691 -0.3581 -0.0546  0.1546
 3284W        W 7484   7.962   4.022   0.504 -0.2180  0.0984 -0.2688
 3285W        W 7485   6.957   0.446   9.337 -0.1178 -0.1049 -0.2388
 3286W        W 7486   0.911   0.051   3.485 -0.2388  0.3944 -0.0351
 3287W        W 7487   1.980   2.610   9.823 -0.0539 -0.1073 -0.3606
 3288W        W 7488   4.235   9.312   2.619  0.0392 -0.1313 -0.2996
 3289W        W 7489   2.315   1.170  10.381  0.1700  0.0833 -0.1813
 3290W        W 7490   3.358   0.254   2.725 -0.0597 -0.0276  0.0642
 3291W        W 7491   6.693   0.001   9.377  0.2754  0.1376  0.2728
 3292W        W 7492   4.590   2.246   3.233 -0.2636  0.1566  0.2448
 3293W        W 7493   3.083   4.230  13.407  0.1039 -0.2751  0.0330
 3294W        W 7494   3.167   3.033   2.805 -0.2562 -0.1178 -0.2066
 3295W        W 7495   9.809   7.212   2.215 -0.2891  0.0276  0.2846
 3296W        W 7496   2.483   7.755  12.728 -0.0983 -0.0844 -0.1476
 3297W        W 7497   0.579   0.032   8.115  0.1113  0.1093 -0.0294
 3298W        W 7498   0.333   4.000  11.466 -0.1841 -0.0196 -0.2430
 3299W        W 7499   1.369   4.668  12.013  0.0767 -0.0542  0.0229
 3300W        W 7500   0.738   2.868  12.661  0.3083 -0.1693 -0.1292
 3301W        W 7501   2.991  10.139   4.081 -0.5577  0.1583 -0.3027
 3302W        W 7502   9.926   5.138   0.633  0.3729 -0.3187 -0.1671
 3303W        W 7503   4.837   2.790   1.258  0.3520 -0.3453  0.0425
 3304W        W 7504   2.179   5.589  12.463 -0.0891 -0.4289 -0.4519
 3305W        W 7505   4.192   6.525  12.922  0.0332 -0.1721  0.1353
 3306W        W 7506   9.459   8.611   0.782 -0.1831  0.1943  0.0581
 3307W        W 7507   0.852   8.931   0.144  0.2475 -0.0291  0.0513
 3308W        W 7508   6.235   4.742  11.673  0.0254 -0.0811 -0.2698
 3309W        W 7509   7.815   3.075   4.378  0.1719 -0.4112 -0.0478
 3310W        W 7510  10.428   1.539  11.658 -0.2217 -0.2155 -0.2226
 3311W        W 7511   2.266   5.588  12.009 -0.0935 -0.0110  0.1532
 3312W        W 7512   6.552   8.323   3.203 -0.0489 -0.0808 -0.3023
 3313W        W 7513   4.945   5.579   2.024  0.1419 -0.1434  0.2146
 3314W        W 7514   1.488   9.394   0.045  0.3212  0.1915  0.0666
 3315W        W 7515   7.743   0.688  12.228  0.0594  0.1010  0.0237
 3316W        W 7516   7.853   0.814   3.960 -0.0157  0.0183 -0.3407
 3317W        W 7517   8.794   0.191  10.764  0.1028  0.2057  0.1120
 3318W        W 7518   3.425   0.000  10.953 -0.1028 -0.2020  0.0205
 3319W        W 7519   4.606   6.219   2.342 -0.2335 -0.1948  0.3288
 3320W        W 7520   3.418   2.126  11.079  0.3878 -0.0497  0.2459
 3321W        W 7521   3.098   2.433   1.385  0.0160 -0.0187  0.0419
 3322W        W 7522   8.303   3.129   5.210  0.2204 -0.0371 -0.2207
 3323W        W 7523   9.602   0.374  12.344  0.3894  0.1786 -0.0815
 3324W        W 7524   6.602   2.768  12.036 -0.2095 -0.2499  0.2935
 3325W        W 7525   0.910   7.957   0.854  0.2371  0.1086 -0.1258
 3326W        W 7526   9.795  10.018   0.362  0.1626 -0.4293 -0.0039
 3327W        W 7527   3.698   6.759   9.899 -0.0315 -0.0853  0.4067
 3328W        W 7528   3.041   6.677   1.539  0.3030 -0.4177  0.1517
 3329W        W 7529   2.884   7.719  12.410 -0.0824 -0.0065  0.0335
 3330W        W 7530   5.869   7.961   0.418  0.1681 -0.1736  0.1012
 3331W        W 7531   1.116   3.214   9.729  0.0584 -0.0604  0.3138
 3332W        W 7532   1.241   7.758   2.819  0.1377 -0.0693 -0.2839
 3333W        W 7533   8.940   6.078   3.589  0.1951  0.3751  0.0739
 3334W        W 7534   1.157   9.005   9.194  0.0562 -0.3878 -0.3454
 3335W        W 7535   4.168   9.812   1.709 -0.0916  0.1056 -0.0411
 3336W        W 7536   9.832  10.371   8.031 -0.0183 -0.0676 -0.1970
 3337W        W 7537   9.343   5.232   2.500  0.0909 -0.0313  0.1884
 3338W        W 7538   3.761   3.027   3.497  0.0428  0.1494 -0.5429
 3339W        W 7539   4.699   8.468  10.251  0.2349  0.3737 -0.0886
 3340W        W 7540   5.746   9.243  10.298 -0.0121 -0.2649  0.1769
 3341W        W 7541   2.983   6.969   3.004  0.3037  0.0385 -0.0619
 3342W        W 7542   6.840   7.997   0.927  0.0459  0.2889 -0.0358
 3343W        W 7543   1.112   8.656  10.086  0.1077 -0.0821  0.0204
 3344W        W 7544   3.394   1.368  10.439 -0.2348 -0.1883  0.2764
 3345W        W 7545   9.290   4.633   0.124  0.0520 -0.2519 -0.1906
 3346W        W 7546   2.916   1.643   2.725 -0.2429  0.0221  0.1545
 3347W        W 7547   0.028   8.956  11.686  0.0588  0.0867 -0.0330
 3348W        W 7548   9.031   4.223  12.836 -0.0968 -0.3978  0.1941
 3349W        W 7549   0.826   6.893   0.772  0.0836 -0.3826 -0.0322
 3350W        W 7550   7.592  10.262   8.928 -0.1689 -0.2232 -0.2150
 3351W        W 7551   5.694   1.499   4.237 -0.3920 -0.0321 -0.1406
 3352W        W 7552   1.410   0.998   8.125  0.0895  0.5003 -0.0755
 3353W        W 7553  10.154   9.344   2.485  0.1408  0.0846  0.3965
 3354W        W 7554   0.299   1.213   8.756 -0.1183  0.0576 -0.1571
 3355W        W 7555   5.733   9.588   4.047  0.3493 -0.3484 -0.0034
 3356W        W 7556  10.121   8.341   4.617  0.1128  0.2691  0.1295
 3357W        W 7557   6.836   3.177   1.095 -0.2978 -0.1626  0.3921
 3358W        W 7558   5.910   5.151   8.633 -0.0527 -0.0142  0.0864
 3359W        W 7559   5.627   9.977   1.531  0.1733 -0.2775  0.1529
 3360W        W 7560   1.826   1.235   1.160 -0.0033  0.2242 -0.4253
 3361W        W 7561   9.546   2.212   9.234  0.0540 -0.1658 -0.1283
 3362W        W 7562   0.612   5.707  10.531  0.3143  0.2392  0.1323
 3363W        W 7563   4.128   0.078   2.682 -0.0396 -0.0489  0.0206
 3364W        W 7564   1.484   2.156   0.647  0.0949  0.4103  0.1314
 3365W        W 7565   7.843   5.730  10.065  0.0746  0.2064  0.0834
 3366W        W 7566   6.987  10.432   2.904  0.0250  0.1992 -0.4418
 3367W        W 7567   4.066   4.303  12.165  0.4343 -0.2124 -0.1487
 3368W        W 7568   9.086   6.982  13.019 -0.1754  0.1004  0.0297
 3369W        W 7569   7.882  10.474   8.553  0.1236 -0.1352  0.0520
 3370W        W 7570   5.743   6.535  12.687 -0.0750  0.0625 -0.4519
 3371W        W 7571   1.965   5.807   0.254 -0.3305  0.0349 -0.1242
 3372W        W 7572   6.540   1.859  10.103 -0.0009  0.3496  0.2319
 3373W        W 7573   7.312   1.504  12.428  0.1351  0.2779  0.2928
 3374W        W 7574   4.648   3.629   1.833  0.3675  0.0517  0.1160
 3375W        W 7575   0.225   6.556   1.470 -0.0142  0.2026 -0.0260
 3376W        W 7576   7.456   3.256  11.113  0.1001 -0.2543  0.1160
 3377W        W 7577   5.213   8.361  11.721  0.2782  0.0182 -0.1447
 3378W        W 7578   9.583   6.418   1.967 -0.2480  0.3255  0.3029
 3379W        W 7579   2.650   8.216  13.036  0.2780 -0.1493  0.0279
 3380W        W 7580   6.870  10.140  13.249  0.0550  0.2364  0.0326
 3381W        W 7581   9.837   8.982   9.631  0.1186 -0.0224  0.0863
 3382W        W 7582   7.310   7.781   3.003 -0.0865  0.3600 -0.1547
 3383W        W 7583   7.394   6.132   0.606  0.2720  0.0387 -0.1662
 3384W        W 7584   0.043   0.834  12.287  0.1933  0.0258  0.3531
 3385W        W 7585   2.210   3.151  10.378 -0.0563  0.1642 -0.0107
 3386W        W 7586   1.455   9.960   0.118  0.0949 -0.1704 -0.0352
 3387W        W 7587   6.416   4.321   3.196 -0.0289 -0.5381  0.0892
 3388W        W 7588   4.630   5.002  11.626  0.3334 -0.0623  0.0639
 3389W        W 7589   7.102   8.859   8.903 -0.0862 -0.3547  0.1978
 3390W        W 7590   4.291  10.235   4.531 -0.0959  0.1349  0.1280
 3391W        W 7591   2.445   8.854  10.562 -0.2718 -0.1579 -0.1838
 3392W        W 7592  10.465   0.551   1.610  0.0080  0.0811 -0.1738
 3393W        W 7593   5.076   7.629  13.246  0.1081  0.2228 -0.0172
 3394W        W 7594   5.942  10.309   0.115  0.0919  0.0004  0.0517
 3395W        W 7595   3.886   2.460   2.492  0.0028  0.0781  0.3824
 3396W        W 7596   2.140   8.154  13.020  0.2082  0.0814 -0.0096
 3397W        W 7597   6.626   1.481   3.763 -0.1733 -0.2622 -0.1641
 3398W        W 7598   8.733   2.866   5.318  0.0277 -0.2351  0.0400
 3399W        W 7599   4.757   0.269  11.249  0.0657  0.2378  0.0989
 3400W        W 7600   2.302   4.998  10.278 -0.0721  0.1325 -0.0701
 3401W        W 7601   7.508  10.214   1.067 -0.1233  0.2136 -0.0676
 3402W        W 7602   3.073   7.887  10.477  0.2306 -0.0107 -0.0334
 3403W        W 7603   7.477   9.096  10.261  0.2540  0.0940  0.1142
 3404W        W 7604   8.443   4.963   9.601  0.0169  0.1688 -0.0464
 3405W        W 7605   8.365   2.843   9.781  0.3331 -0.1125  0.0624
 3406W        W 7606   9.805   3.379   4.723  0.2044 -0.0453  0.1485
 3407W        W 7607   6.710   5.084  12.471  0.1352 -0.1687 -0.2199
 3408W        W 7608   2.158   3.322   1.946 -0.0739  0.0847  0.4327
 3409W        W 7609   1.014   9.061   9.693 -0.2865  0.0476  0.2747
 3410W        W 7610   8.463   3.200  11.261 -0.0504 -0.1903 -0.2793
 3411W        W 7611   9.055   9.129  10.338 -0.1331  0.3075  0.0127
 3412W        W 7612   0.086   7.606  11.588  0.3494  0.0080  0.2316
 3413W        W 7613   6.716   8.443   1.256  0.0099 -0.1618  0.1095
 3414W        W 7614  10.286   0.828  10.974 -0.0814 -0.1971 -0.0214
 3415W        W 7615   6.236   4.715   9.922 -0.2135 -0.0640  0.1704
 3416W        W 7616   4.607   5.377  10.136  0.3667 -0.1932  0.5095
 3417W        W 7617   8.914   8.758   0.091  0.5073  0.1871 -0.1037
 3418W        W 7618   7.826   4.228   2.837  0.1123 -0.1634 -0.0745
 3419W        W 7619   9.786  10.360   0.764  0.0046  0.0264  0.2428
 3420W        W 7620   4.432   0.020  11.756 -0.0170  0.4358  0.0795
 3421W        W 7621   0.312   3.460  10.556  0.1858  0.1590  0.0684
 3422W        W 7622  10.161   0.138  13.040  0.0073 -0.0204  0.1240
 3423W        W 7623   5.282   4.570  12.233 -0.0659 -0.2113  0.0603
 3424W        W 7624   7.279  10.050   1.661  0.1455 -0.0348  0.1297
 3425W        W 7625   1.328   3.406   3.252 -0.1342 -0.2415 -0.0729
 3426W        W 7626   2.333   4.075   4.095 -0.0219 -0.0179 -0.1330
 3427W        W 7627   1.671   7.144   9.908 -0.1586  0.3023  0.1593
 3428W        W 7628   6.125   9.967  13.160 -0.2801  0.1088  0.0584
 3429W        W 7629   9.225   9.673   2.748  0.0646 -0.0251  0.1244
 3430W        W 7630   6.994   6.733   8.836 -0.2191  0.1229  0.1363
 3431W        W 7631   2.568   5.405   3.868  0.4463  0.1964  0.0257
 3432W        W 7632   3.231   9.492  12.958  0.1318 -0.0255 -0.1182
 3433W        W 7633   9.835   4.134   4.081 -0.2555 -0.1337  0.1182
 3434W        W 7634   6.108   2.208   2.282 -0.1992  0.1476  0.0295
 3435W        W 7635   6.320   2.828   4.533 -0.0762 -0.3989  0.3303
 3436W        W 7636   0.485   7.902   4.467 -0.0846 -0.2842 -0.1275
 3437W        W 7637   0.761   5.183  10.416  0.2076 -0.0434  0.0822
 3438W        W 7638   9.215  10.353  10.763 -0.3471 -0.0789 -0.0336
 3439W        W 7639   8.180   9.391   3.047  0.2910  0.1081  0.0495
 3440W        W 7640   8.258   0.551  11.623 -0.2027  0.0011  0.0577
 3441W        W 7641   2.382   5.204  12.301 -0.3369 -0.0692  0.2155
 3442W        W 7642   6.424   3.775   4.371 -0.6058  0.0844  0.3308
 3443W        W 7643   8.967   9.221   9.325  0.0072  0.0308 -0.0805
 3444W        W 7644   5.103   8.673  11.372  0.0464 -0.0928 -0.2376
 3445W        W 7645   0.193   2.528   0.931  0.1468  0.2184 -0.2819
 3446W        W 7646   0.771   8.241  12.614  0.1649  0.0708 -0.0642
 3447W        W 7647   3.806   6.668  10.508  0.0643 -0.1394  0.1686
 3448W        W 7648   4.801   0.055   4.254  0.0596  0.1509 -0.1578
 3449W        W 7649   3.176  10.400   4.929  0.0975  0.2022  0.0604
 3450W        W 7650   8.299   6.378  12.360 -0.0337 -0.0004 -0.0150
 3451W        W 7651   7.077   8.528   2.564  0.2155  0.0248 -0.3894
 3452W        W 7652   2.524   6.701   2.924  0.0524  0.4166  0.1680
 3453W        W 7653   3.793   9.850  10.918  0.1638 -0.1932 -0.0719
 3454W        W 7654   2.795   3.277   0.415  0.1541  0.0053 -0.1013
 3455W        W 7655   3.836   0.123   1.433 -0.2675  0.2067  0.3660
 3456W        W 7656   8.551   5.534  12.327 -0.2895 -0.2038 -0.2465
 3457W        W 7657   7.739   3.712   2.152  0.1341 -0.4568  0.2778
 3458W        W 7658   7.735   9.585   2.186  0.0216 -0.0373 -0.1491
 3459W        W 7659   9.783   6.600   4.481 -0.3095  0.1191 -0.2901
 3460W        W 7660   2.341   2.505  10.852 -0.2332 -0.0868  0.0866
 3461W        W 7661   8.382   7.618   1.476  0.2358  0.0205 -0.1935
 3462W        W 7662   5.261   2.367   4.551  0.0581  0.2226 -0.0314
 3463W        W 7663   3.867   3.212  10.579 -0.0849  0.2509  0.1070
 3464W        W 7664   2.459   9.988  11.952  0.0188  0.0234 -0.0535
 3465W        W 7665   1.533   8.635  10.851 -0.0231 -0.3608 -0.0851
 3466W        W 7666   9.324   0.477  12.747 -0.1364  0.1908 -0.1590
 3467W        W 7667   7.157   7.865  12.169 -0.2403  0.0557 -0.0307
 3468W        W 7668   0.901   5.172  12.256 -0.1161  0.1905  0.3669
 3469W        W 7669   3.828   3.836   0.514  0.1882 -0.0506  0.1984
 3470W        W 7670   7.756   6.100  10.843 -0.1726 -0.0353 -0.0318
 3471W        W 7671   8.102   5.545   4.485 -0.1661  0.0995 -0.0265
 3472W        W 7672   9.418   6.397  13.337  0.0195  0.1595  0.2312
 3473W        W 7673   9.843  10.342   2.568  0.1239  0.3639 -0.4402
 3474W        W 7674   8.481   8.673   0.350  0.1680  0.1879 -0.0616
 3475W        W 7675   5.305   3.794   0.091  0.3647 -0.0351 -0.0573
 3476W        W 7676   7.334   7.389  10.786 -0.0956  0.0591 -0.4764
 3477W        W 7677   4.232   6.227   1.996 -0.2424 -0.3968  0.1384
 3478W        W 7678   3.669   4.392  10.080  0.0637 -0.2632 -0.2008
 3479W        W 7679   5.739   5.511   0.124 -0.1915 -0.2329  0.0851
 3480W        W 7680   9.767   8.747   3.342 -0.1534  0.0239 -0.1956
 3481W        W 7681   1.464   5.167   9.540 -0.2336 -0.0451  0.4440
 3482W        W 7682   3.519   7.444   9.918  0.3930 -0.1518  0.1204
 3483W        W 7683   4.938   4.919   2.782  0.0257  0.5354  0.2596
 3484W        W 7684   5.629   2.886  10.529  0.0515 -0.0261  0.2974
 3485W        W 7685   2.907   3.875   1.523 -0.1902 -0.1179  0.0900
 3486W        W 7686   0.487   8.017   2.571  0.0545  0.3277 -0.1295
 3487W        W 7687   6.278   0.781   0.490  0.3957 -0.1802  0.2742
 3488W        W 7688   3.458   7.211  11.317 -0.0608  0.1032  0.3954
 3489W        W 7689   5.470   2.444   3.116 -0.1435 -0.3779  0.0298
 3490W        W 7690   0.488   6.139  11.311  0.0112 -0.1826 -0.0829
 3491W        W 7691   8.305   3.657  12.093  0.0216  0.0008  0.0188
 3492W        W 7692   0.474   2.983   1.600 -0.0786  0.0058 -0.0025
 3493W        W 7693   6.990   0.010  12.855 -0.2430 -0.1132  0.0442
 3494W        W 7694   7.436   5.542   4.313 -0.1350 -0.2590  0.0572
 3495W        W 7695   8.574   9.268  12.045  0.1375 -0.2071  0.1306
 3496W        W 7696   1.575   9.356   9.977 -0.4265  0.2664  0.0765
 3497W        W 7697   0.307   8.189  12.521 -0.0694 -0.2381 -0.0833
 3498W        W 7698   9.229   3.813  12.645 -0.1453  0.1280  0.0798
 3499W        W 7699   6.398   4.914   2.364  0.0612  0.0095 -0.1975
 3500W        W 7700   4.293   1.120  13.165  0.1579 -0.0547  0.0457
 3501W        W 7701   3.508   2.188   1.720  0.1109  0.1966 -0.3224
 3502W        W 7702   0.946   9.738   1.889 -0.0154 -0.0206 -0.1250
 3503W        W 7703   3.337  10.339   4.365 -0.2427 -0.0253  0.0872
 3504W        W 7704   4.294   3.638   2.172 -0.1184  0.2528 -0.0220
 3505W        W 7705   9.031   1.559   2.660 -0.0258 -0.3415  0.1770
 3506W        W 7706   6.001   5.613  12.207  0.1059  0.2544 -0.0091
 3507W        W 7707   5.202   1.429   4.389 -0.3138 -0.2261  0.2331
 3508W        W 7708   4.476   7.054   1.739  0.0956 -0.4642  0.0490
 3509W        W 7709   5.127   9.489   1.659 -0.1567  0.1113  0.1197
 3510W        W 7710  10.450  10.102   4.681  0.5012  0.1120 -0.1567
 3511W        W 7711   8.058   3.101   1.972 -0.2613  0.1412 -0.2963
 3512W        W 7712   3.396   7.701  13.309  0.0090  0.1300 -0.0657
 3513W        W 7713   0.390   1.506  10.477 -0.0082 -0.1734 -0.0480
 3514W        W 7714   4.361  10.272  12.178 -0.1945  0.1193  0.2719
 3515W        W 7715   4.906   6.862  12.768  0.0290  0.0426  0.0161
 3516W        W 7716  10.349   3.207  12.820 -0.4018  0.0380  0.0247
 3517W        W 7717   5.672   5.268   1.323  0.3489  0.0069 -0.0394
 3518W        W 7718   6.842   2.972   4.569  0.1589  0.1118 -0.0547
 3519W        W 7719   9.694   9.580   4.013 -0.0957 -0.0914 -0.0160
 3520W        W 7720   4.276   2.988  12.838  0.1037 -0.0883 -0.0221
 3521W        W 7721   1.294  10.271   3.238 -0.0526  0.1876  0.1015
 3522W        W 7722   9.081   0.654   8.587  0.2259  0.2016 -0.1165
 3523W        W 7723  10.152   8.258   1.290  0.0928 -0.1018 -0.1689
 3524W        W 7724   9.833   5.654   4.408  0.2456  0.0224 -0.1372
 3525W        W 7725   4.838   9.433   1.179 -0.0774 -0.2395  0.2190
 3526W        W 7726   6.496   9.563   0.435 -0.3829 -0.0468  0.1304
 3527W        W 7727   1.247   4.491   3.062 -0.3406  0.2835  0.0032
 3528W        W 7728   3.145   3.705   3.440  0.0724  0.0287 -0.1825
 3529W        W 7729   2.518   6.957  13.004  0.0106  0.4742  0.3770
 3530W        W 7730   9.841   2.110   2.496 -0.1750  0.1941 -0.0555
 3531W        W 7731   0.796  10.274   3.081  0.1147  0.1895  0.2454
 3532W        W 7732   2.525   6.224   0.275  0.3091 -0.0196 -0.1314
 3533W        W 7733   1.290  10.125   0.930 -0.0116 -0.2256  0.0299
 3534W        W 7734   7.047   9.469  12.916 -0.0729  0.0732 -0.0295
 3535W        W 7735   6.524  10.017   1.700  0.0616 -0.1209 -0.1636
 3536W        W 7736   7.051   4.870  11.988 -0.1400 -0.1222  0.3241
 3537W        W 7737   8.299  10.127  13.220 -0.0154  0.0719  0.1646
 3538W        W 7738   5.038   4.097   2.651  0.0975  0.2614  0.0670
 3539W        W 7739   8.242   4.588  12.548 -0.0131 -0.0536 -0.3750
 3540W        W 7740   8.034   0.226   4.212 -0.0732  0.0082 -0.0915
 3541W        W 7741   0.988   4.738   0.610 -0.0658  0.1663 -0.2647
 3542W        W 7742   6.056   9.975  10.672 -0.0708  0.0570  0.2880
 3543W        W 7743   6.755  10.151   3.386  0.1638 -0.3568  0.2594
 3544W        W 7744   4.896   5.471   0.753  0.1866 -0.0563  0.0577
 3545W        W 7745   0.061   5.996  11.938 -0.0134 -0.2638  0.0111
 3546W        W 7746   0.568   0.091  10.771  0.2017 -0.0190  0.2358
 3547W        W 7747   2.468   1.853   3.980  0.1550  0.0843  0.4147
 3548W        W 7748   5.775   7.878   2.477 -0.0684 -0.2856  0.1384
 3549W        W 7749   8.687   9.833   2.386  0.3402  0.0823 -0.0361
 3550W        W 7750   6.745   8.267   9.212 -0.1912 -0.0681 -0.0456
 3551W        W 7751   7.865   4.591   9.120  0.0726  0.4316 -0.1629
 3552W        W 7752   7.097   1.602   0.835 -0.0259 -0.2805 -0.0361
 3553W        W 7753   9.094   7.834   4.349  0.0254 -0.3350 -0.2084
 3554W        W 7754  10.012   9.916   3.280 -0.0004 -0.1837 -0.2545
 3555W        W 7755   8.191   6.976  12.125 -0.1468 -0.2430  0.0863
 3556W        W 7756   9.527   0.303   2.713  0.0439 -0.0160 -0.0429
 3557W        W 7757   0.058   9.381  11.390 -0.1826  0.1295  0.1624
 3558W        W 7758   3.189   9.663   9.652 -0.3528  0.2384 -0.1192
 3559W        W 7759   0.479   0.766  11.995  0.2541 -0.2341 -0.0438
 3560W        W 7760   9.447   6.273   3.319  0.0377 -0.2422  0.1234
 3561W        W 7761   6.802   3.765   1.096 -0.0425  0.1248 -0.1839
 3562W        W 7762   0.325   9.903  10.544  0.1494 -0.1635 -0.0369
 3563W        W 7763   8.582   4.457  11.433 -0.1385  0.1500  0.0947
 3564W        W 7764   4.061   7.185   9.940  0.1168 -0.1453 -0.1308
 3565W        W 7765   2.669   3.851  12.122  0.1114  0.1301  0.1185
 3566W        W 7766   5.478   9.488  12.491 -0.1044  0.1647  0.1527
 3567W        W 7767   5.000   2.676   2.079  0.4232 -0.2007 -0.3053
 3568W        W 7768   8.108   2.508   0.408  0.1574 -0.4025 -0.2498
 3569W        W 7769   2.276   1.451   1.209  0.1929  0.0952 -0.0133
 3570W        W 7770   8.597   1.539   3.413  0.1437  0.3318  0.2036
 3571W        W 7771   1.235   1.166  13.013 -0.0549  0.1493 -0.0954
 3572W        W 7772   8.663   4.003   3.834  0.1863 -0.0330  0.0656
 3573W        W 7773   8.053   9.191   2.496 -0.6531 -0.2587  0.1682
 3574W        W 7774   2.611   0.434  12.529 -0.2689  0.0389 -0.2056
 3575W        W 7775   8.637   3.618  10.833 -0.2285 -0.0163  0.0761
 3576W        W 7776   6.721   9.447   4.122  0.0876 -0.1157 -0.0624
 3577W        W 7777   8.477   6.821   5.006  0.0431  0.1568  0.2816
 3578W        W 7778   6.133   4.276   0.036 -0.1542  0.1509 -0.3097
 3579W        W 7779   3.192   0.832  12.195  0.2204  0.1970 -0.0592
 3580W        W 7780   1.144  10.446  13.419  0.0671 -0.0756  0.1802
 3581W        W 7781   0.013   9.425   0.141 -0.1165  0.0301 -0.1396
 3582W        W 7782   4.237  10.116   0.253 -0.1174 -0.1186  0.0672
 3583W        W 7783   5.256   9.130   1.310  0.0068 -0.0717 -0.4699
 3584W        W 7784   3.674   0.420  13.287 -0.0759  0.1655 -0.0119
 3585W        W 7785   8.432   4.459  10.450  0.3430 -0.0288 -0.2285
 3586W        W 7786   4.020   1.931   9.374 -0.1622 -0.2090  0.0705
 3587W        W 7787   5.025   1.971   4.870  0.1716 -0.0659 -0.1828
 3588W        W 7788   3.147   9.752   0.460  0.1071 -0.0766 -0.0902
 3589W        W 7789   1.956   6.839  12.920 -0.1968  0.1681 -0.5494
 3590W        W 7790   1.680   7.880   1.108 -0.1171  0.1914  0.3253
 3591W        W 7791   2.303   0.771   4.144 -0.0286  0.0363 -0.0541
 3592W        W 7792   5.099   9.509  11.381 -0.1799  0.3743 -0.0058
 3593W        W 7793   0.292   5.606   1.637 -0.1327 -0.1217 -0.1083
 3594W        W 7794   8.363   6.014   2.013 -0.0175 -0.0095 -0.0761
 3595W        W 7795   4.553   4.590   4.479 -0.0540 -0.2105 -0.2193
 3596W        W 7796   5.302   2.876  12.964 -0.2343  0.0547 -0.1017
 3597W        W 7797   3.125   3.221   0.826  0.0974 -0.1558  0.1116
 3598W        W 7798  10.211   8.629   2.622  0.1453  0.2089  0.2734
 3599W        W 7799   1.376   0.807   8.618 -0.0328  0.1213 -0.0714
 3600W        W 7800   8.070   8.189   9.494 -0.3157 -0.0665 -0.2342
 3601W        W 7801   8.853   9.286  12.500 -0.0044  0.0270 -0.0487
 3602W        W 7802   3.165   0.602   0.813  0.0636  0.1141 -0.0099
 3603W        W 7803   0.410   1.794   2.566 -0.3844  0.1198 -0.1639
 3604W        W 7804   3.445   9.834  12.215 -0.2699 -0.1885 -0.2138
 3605W        W 7805   1.687   5.290   3.814 -0.1418 -0.0223  0.3916
 3606W        W 7806   9.821   0.174   4.871  0.3039 -0.1817 -0.0850
 3607W        W 7807   3.329   2.684  11.801 -0.0513  0.1069 -0.1020
 3608W        W 7808   1.184   1.664   0.573  0.3732  0.3964  0.0119
 3609W        W 7809   6.759   8.914   1.037  0.3215 -0.3409  0.0540
 3610W        W 7810   3.512   5.165  13.444 -0.0878 -0.3835 -0.2397
 3611W        W 7811   5.869   8.902   2.811  0.3663  0.0486 -0.0168
 3612W        W 7812   1.840   5.257   1.897 -0.0855  0.0471  0.3023
 3613W        W 7813   6.700   3.083   8.896 -0.0216  0.0612  0.0532
 3614W        W 7814   4.385   2.342  12.214  0.3209 -0.1486 -0.0734
 3615W        W 7815   4.985   3.993   1.491 -0.0514 -0.1219 -0.0061
 3616W        W 7816   4.468  10.052  11.609 -0.0588 -0.0118  0.0384
 3617W        W 7817   0.089   5.919   0.665 -0.4207 -0.2657  0.2997
 3618W        W 7818   9.175   8.495   9.211  0.2462 -0.4810 -0.0420
 3619W        W 7819   8.349   5.630   4.063 -0.2551 -0.0059  0.3013
 3620W        W 7820   5.199  10.325   5.609 -0.3089  0.1949  0.3323
 3621W        W 7821   7.446   9.409   3.587 -0.3326 -0.1013  0.0627
 3622W        W 7822   7.785   3.582   9.326 -0.0818  0.2668 -0.0332
 3623W        W 7823   2.757   5.260   1.888  0.0897  0.3203 -0.0049
 3624W        W 7824   2.167   5.686   3.879 -0.2731  0.1702  0.1084
 3625W        W 7825   7.362   7.331  10.303  0.0698  0.2064 -0.1064
 3626W        W 7826   5.404   8.754  13.394 -0.0173 -0.2781  0.2595
 3627W        W 7827   4.400   9.468   8.860  0.0357  0.3719  0.2035
 3628W        W 7828   0.386   4.297  13.219  0.0186  0.1522 -0.1887
 3629W        W 7829   9.987   7.027   1.387 -0.0450  0.0867 -0.2586
 3630W        W 7830   7.683   9.191   3.112 -0.2458 -0.1538 -0.1039
 3631W        W 7831   8.811   8.386   8.168  0.0106 -0.0263  0.2277
 3632W        W 7832   2.322   7.565  10.378 -0.0349 -0.2941 -0.0903
 3633W        W 7833  10.038   3.621  12.676 -0.1820  0.0754  0.1639
 3634W        W 7834   6.602   7.415  10.181 -0.2289  0.4440 -0.1313
 3635W        W 7835   1.379   1.089  10.510  0.0554  0.4403  0.1052
 3636W        W 7836   8.973   0.268   9.721 -0.0027  0.1690  0.3458
 3637W        W 7837   5.639   7.238   2.371 -0.2655 -0.0526  0.1926
 3638W        W 7838   6.196   5.179  12.439  0.4527 -0.2897 -0.5941
 3639W        W 7839   9.634   7.461   8.207  0.0186 -0.3934  0.0233
 3640W        W 7840   5.354   1.424   3.024  0.0363  0.0995  0.0773
 3641W        W 7841  10.055   5.451  11.240  0.2618 -0.2595  0.3974
 3642W        W 7842   3.837   5.348  10.338 -0.1733  0.2389  0.0421
 3643W        W 7843   7.233   2.907   2.132 -0.0304  0.2636 -0.3544
 3644W        W 7844   5.573   3.284   1.121  0.1619  0.0417 -0.3372
 3645W        W 7845   6.874   1.143  10.704  0.1412  0.0599 -0.1591
 3646W        W 7846   4.601   4.552   2.087  0.0313  0.0877  0.1612
 3647W        W 7847   4.451   4.902   1.819 -0.0368 -0.1167 -0.0160
 3648W        W 7848   1.249  10.009   9.122  0.1004  0.1141  0.0067
 3649W        W 7849  10.010   4.195  11.112 -0.1000 -0.2063 -0.1560
 3650W        W 7850   2.078   3.933   1.898 -0.0321 -0.2976 -0.2934
 3651W        W 7851   0.253   6.898  12.156 -0.0681  0.1714  0.1998
 3652W        W 7852   6.573   3.177  13.347 -0.0761  0.2085 -0.0622
 3653W        W 7853   0.562   6.309  12.714  0.0996  0.0040 -0.2308
 3654W        W 7854   4.742   6.643   9.958  0.1532  0.2252 -0.1627
 3655W        W 7855   6.769   1.995   3.503 -0.0372  0.0769  0.1959
 3656W        W 7856   5.281   7.848   3.226 -0.1547  0.0703 -0.0509
 3657W        W 7857   3.003  10.338  10.693  0.0382  0.3409 -0.0543
 3658W        W 7858   6.398   7.777   4.077  0.3039 -0.0378  0.0803
 3659W        W 7859   6.041   7.378  11.692 -0.1173 -0.0246 -0.2061
 3660W        W 7860   3.076   3.183  10.028 -0.0219 -0.1273  0.1180
 3661W        W 7861   6.691   9.533  13.423  0.0707  0.0083  0.0183
 3662W        W 7862   2.702   9.268   8.881 -0.1664  0.1916  0.0728
 3663W        W 7863   2.991   4.482   1.530  0.1046 -0.0534 -0.0908
 3664W        W 7864   5.401   3.397   9.673 -0.0062 -0.3770  0.0446
 3665W        W 7865   3.008   7.122  11.531 -0.4683  0.3451  0.4688
 3666W        W 7866   7.052   2.167   8.332  0.0989  0.1341  0.1070
 3667W        W 7867   3.349   3.309   4.302  0.3891 -0.0639 -0.1020
 3668W        W 7868  10.006   1.499   0.011 -0.2030  0.1625 -0.1048
 3669W        W 7869   8.158   7.326   0.019 -0.0110  0.2855 -0.2893
 3670W        W 7870   1.373   0.945   1.148 -0.1125  0.0577 -0.2283
 3671W        W 7871   2.132   0.282  13.159  0.2828  0.0857 -0.0005
 3672W        W 7872   7.862   0.366  13.226  0.1303  0.2364 -0.0960
 3673W        W 7873   6.429   7.073   2.859 -0.0999  0.1608 -0.2725
 3674W        W 7874   8.353   7.564   3.208  0.0050  0.1714 -0.0270
 3675W        W 7875   7.767   6.622   9.740 -0.2474  0.0803  0.0948
 3676W        W 7876   6.509   2.044  12.396 -0.0003 -0.0117 -0.1715
 3677W        W 7877   3.607   8.535   2.261 -0.2776 -0.0480 -0.1126
 3678W        W 7878   6.976   0.565   4.045  0.0305  0.0706 -0.3315
 3679W        W 7879   4.328   5.076   1.334 -0.1651 -0.2499  0.3062
 3680W        W 7880   8.607   1.775   2.419 -0.1906 -0.2678 -0.0942
 3681W        W 7881   8.992   6.871   2.666  0.4504  0.0327  0.0704
 3682W        W 7882   9.302   6.425  10.711  0.2359  0.2685  0.0912
 3683W        W 7883   8.190   3.668   2.925 -0.0679 -0.0890 -0.0640
 3684W        W 7884   0.000   7.429   1.936 -0.1832 -0.2377 -0.1161
 3685W        W 7885   6.705   8.816   9.327 -0.0117  0.3872  0.4236
 3686W        W 7886   3.317  10.326   3.367 -0.0308  0.0161  0.0908
 3687W        W 7887   9.491   8.525  11.369  0.1658 -0.2936 -0.0851
 3688W        W 7888   8.967   9.685   9.543  0.3009 -0.2783 -0.0975
 3689W        W 7889   9.979   9.134   0.065 -0.3225 -0.1005 -0.1305
 3690W        W 7890   7.494   5.770   0.092 -0.1105  0.1539  0.1303
 3691W        W 7891   3.852   7.268   1.115  0.0543 -0.0036 -0.3471
 3692W        W 7892   6.731   9.504   0.858 -0.0608 -0.0415 -0.0068
 3693W        W 7893   8.432   4.054  11.741 -0.0144 -0.0003 -0.0717
 3694W        W 7894   5.003   0.238   1.699 -0.1176  0.2053 -0.0471
 3695W        W 7895   5.166   7.761  11.747 -0.0801  0.1782 -0.0961
 3696W        W 7896   8.205   4.501   2.348 -0.1451 -0.0605  0.0973
 3697W        W 7897   1.059   6.283  11.009  0.1720  0.1600 -0.0117
 3698W        W 7898   5.419   1.876  13.425  0.1032 -0.0278 -0.4763
 3699W        W 7899   5.364   6.226   3.358 -0.0688 -0.1075 -0.3240
 3700W        W 7900   9.769   1.117   2.581  0.0495  0.0624 -0.0874
 3701W        W 7901   1.189   8.241  10.559  0.1394  0.2587  0.1029
 3702W        W 7902   8.030   4.605   4.358  0.0339  0.3984  0.0286
 3703W        W 7903   3.370   2.947  12.258 -0.0150  0.0394  0.1883
 3704W        W 7904   4.188   0.009  10.455  0.1426  0.1452 -0.1499
 3705W        W 7905   1.040   7.657  10.114  0.1712 -0.0192 -0.5820
 3706W        W 7906   2.189   0.830   3.649  0.0865  0.0094  0.5972
 3707W        W 7907   8.566   0.302   9.293 -0.0461 -0.1719 -0.1280
 3708W        W 7908   6.974   4.692   8.783  0.0697  0.2071 -0.2381
 3709W        W 7909   4.697   2.436  12.586  0.0917  0.2139  0.1107
 3710W        W 7910   8.108   1.186   2.444 -0.2167 -0.1792  0.3096
 3711W        W 7911   6.675   4.407   4.573  0.0467 -0.0943  0.0508
 3712W        W 7912   2.792   0.011   1.742  0.1383  0.0798  0.3991
 3713W        W 7913   1.779   1.442   2.868 -0.0297 -0.0128 -0.0255
 3714W        W 7914   0.582   0.184   9.605  0.4861 -0.2543  0.2389
 3715W        W 7915   8.510   6.122   3.862  0.1250 -0.0280 -0.1020
 3716W        W 7916   0.999   3.364  11.491 -0.1448 -0.1276 -0.1022
 3717W        W 7917   5.436   0.225  12.157  0.1208  0.1510  0.0485
 3718W        W 7918   2.934   2.800  12.956 -0.0473 -0.0848  0.1843
 3719W        W 7919   3.763   3.650   4.198  0.2487  0.1283 -0.0355
 3720W        W 7920   0.585   1.778  11.071 -0.0206  0.2344  0.0882
 3721W        W 7921  10.339   3.815  12.026  0.2094 -0.0474 -0.2191
 3722W        W 7922   5.362   6.148  12.413  0.1030  0.0929  0.3142
 3723W        W 7923   5.761   8.159   3.138 -0.0017  0.1056 -0.2850
 3724W        W 7924   9.977   7.403  10.830 -0.1086 -0.0448 -0.3443
 3725W        W 7925   8.213   1.357  10.520 -0.0366 -0.0039  0.3993
 3726W        W 7926   4.983   7.262   3.125 -0.3694  0.0997 -0.1078
 3727W        W 7927   2.024   4.068   8.734  0.1064 -0.0279  0.2240
 3728W        W 7928   4.956   1.701   0.125  0.1172 -0.0597  0.0724
 3729W        W 7929   0.518   5.599   3.629 -0.1401 -0.2306 -0.3408
 3730W        W 7930   7.250   1.002   2.786 -0.1338  0.0244  0.0299
 3731W        W 7931   3.495   3.570  11.778  0.0967 -0.0373 -0.0793
 3732W        W 7932   2.420   8.551   9.072  0.1700 -0.2189  0.0306
 3733W        W 7933   6.963   6.022  10.149 -0.1679  0.3780 -0.0107
 3734W        W 7934   3.565   3.664  10.508 -0.1884 -0.0378  0.1567
 3735W        W 7935   6.507   0.344  12.847  0.0439 -0.0195  0.2183
 3736W        W 7936   2.247   3.517  10.031  0.2893 -0.0820  0.1876
 3737W        W 7937   9.207   2.494   0.442  0.0659  0.1230 -0.0211
 3738W        W 7938  10.238   7.994  11.585 -0.0526  0.1936  0.2732
 3739W        W 7939   3.853   5.292  11.845  0.1669 -0.2358 -0.3299
 3740W        W 7940   8.116   2.728   3.372 -0.1957  0.3047 -0.0075
 3741W        W 7941   1.720   7.047   3.465  0.0584  0.0564 -0.2827
 3742W        W 7942   6.338   6.025  10.966 -0.1790  0.4667 -0.0777
 3743W        W 7943   6.642   1.022  11.165  0.0544 -0.0357  0.0113
 3744W        W 7944   8.522   0.294  12.076  0.1155  0.1232  0.2024
 3745W        W 7945   1.090  10.240   1.835  0.0396  0.1160 -0.1354
 3746W        W 7946   5.467   1.322   9.509 -0.0961 -0.1602  0.1884
 3747W        W 7947   9.997  10.227  11.671 -0.2371  0.0414  0.0260
 3748W        W 7948   3.150  10.325   2.729  0.0228 -0.1084 -0.1584
 3749W        W 7949   2.003   9.076   9.630  0.3604 -0.0181 -0.2438
 3750W        W 7950   9.213   5.586   0.955  0.1048  0.0331  0.2284
 3751W        W 7951   3.615   1.952   4.512  0.1415  0.2070  0.0122
 3752W        W 7952   7.431   4.133   1.219 -0.1851  0.0941 -0.3185
 3753W        W 7953   8.752   1.233   0.018  0.0785 -0.3629  0.0861
 3754W        W 7954   9.460   4.698   2.517 -0.2002 -0.0513  0.2598
 3755W        W 7955   9.115   0.192   3.935  0.0590 -0.1062  0.1649
 3756W        W 7956   1.249   9.770   9.928 -0.0865  0.0195  0.3023
 3757W        W 7957   9.293   1.504   3.458  0.0485 -0.1766  0.1337
 3758W        W 7958   8.940  10.200   9.534 -0.1378  0.1522 -0.1147
 3759W        W 7959   9.683   1.697  11.737 -0.0285 -0.1407 -0.1122
 3760W        W 7960   9.977   7.167   3.596  0.1233 -0.1073 -0.1737
 3761W        W 7961   7.761   2.479  10.806 -0.1189  0.0427 -0.0239
 3762W        W 7962   1.604   8.885   9.877 -0.0526  0.1294  0.0121
 3763W        W 7963   7.791   8.874   0.043  0.1652  0.1729 -0.1353
 3764W        W 7964   8.971   6.209   4.586 -0.1595  0.0246  0.1097
 3765W        W 7965   9.214   1.198   4.941  0.2863 -0.1232  0.0912
 3766W        W 7966   1.553  10.315  11.940  0.0773  0.0048 -0.2046
 3767W        W 7967   2.919   5.649   3.614 -0.0377 -0.1037  0.2712
 3768W        W 7968   1.685  10.173   8.970  0.0790 -0.0112 -0.0341
 3769W        W 7969   5.746  10.261   8.984 -0.1874  0.2682  0.2221
 3770W        W 7970   6.701   9.958   9.115  0.3180 -0.1595  0.0407
 3771W        W 7971   1.483   1.927   9.413  0.0755  0.0359  0.2790
 3772W        W 7972   0.184   6.707  12.657 -0.0644  0.1210  0.4139
 3773W        W 7973   5.992   0.246   1.836 -0.0944 -0.1250 -0.0880
 3774W        W 7974   9.434   1.261  12.660  0.1352 -0.0678 -0.1157
 3775W        W 7975   9.565   7.695   9.688 -0.0800 -0.0844 -0.1695
 3776W        W 7976   7.662   0.144  10.859  0.0432  0.0003  0.0544
 3777W        W 7977   2.557   5.201  11.822 -0.0822  0.0261  0.3352
 3778W        W 7978   3.324   7.152   2.349 -0.3097  0.5053 -0.0141
 3779W        W 7979   1.475   5.730   1.433 -0.1051 -0.2346  0.0193
 3780W        W 7980   7.481   0.533  12.814  0.1116  0.1010 -0.1185
 3781W        W 7981   8.438   4.543   4.604 -0.4015 -0.0395  0.2108
 3782W        W 7982   9.649   8.352   2.755  0.0383  0.0537  0.0678
 3783W        W 7983   5.775   3.541   5.376  0.0339 -0.2483  0.1212
 3784W        W 7984   8.315   4.284   1.360 -0.1653 -0.3708  0.0918
 3785W        W 7985   8.908   2.625   1.858 -0.2425  0.0501  0.1035
 3786W        W 7986   2.175   2.389   4.524 -0.0980 -0.0811 -0.3507
 3787W        W 7987   4.039   5.619  10.671  0.2027  0.1971  0.0530
 3788W        W 7988   5.220   0.962   1.515 -0.1127  0.1085  0.2686
 3789W        W 7989  10.317   8.150   2.720  0.0452 -0.0073  0.0933
 3790W        W 7990   3.246  10.027  11.671 -0.1675 -0.1973  0.2282
 3791W        W 7991   1.614   9.023   3.066 -0.4906 -0.0603 -0.2390
 3792W        W 7992   2.028   4.272   9.731  0.2780 -0.2239  0.2556
 3793W        W 7993   2.112   6.773   0.358  0.3465 -0.2216 -0.1684
 3794W        W 7994   2.999   9.470   3.040  0.1229  0.1925  0.0531
 3795W        W 7995   3.856   5.780  13.051 -0.1116  0.1453  0.3497
 3796W        W 7996   3.535   6.429  11.689  0.1352 -0.1016 -0.1196
 3797W        W 7997   2.602   2.471   1.105  0.0060  0.0051  0.0098
 3798W        W 7998   3.999   0.750   1.390 -0.1967 -0.0622  0.0416
 3799W        W 7999   3.110   3.558  12.234  0.2613  0.1012  0.1852
 3800W        W 8000   8.411  10.420   0.671  0.1404 -0.0637 -0.0164
 3801W        W 8001   0.812   9.954   9.893  0.2945  0.4678  0.3344
 3802W        W 8002   8.147   6.775   1.487 -0.0915  0.0835  0.0709
 3803W        W 8003   6.119   8.993   3.715  0.0690  0.1090  0.0947
 3804W        W 8004   3.296  10.413   1.534 -0.1487 -0.0042 -0.1551
 3805W        W 8005   2.402   2.100  11.395 -0.0569 -0.0377 -0.3907
 3806W        W 8006   5.997   6.288   1.703  0.1556  0.0250  0.2489
 3807W        W 8007   2.692   7.405  13.158  0.0003  0.0906 -0.0065
 3808W        W 8008   1.622   1.710   9.827  0.0498 -0.2055 -0.2634
 3809W        W 8009   7.295   5.342   3.081  0.0972 -0.0833  0.0753
 3810W        W 8010   0.423   3.448   1.411 -0.1162  0.2883 -0.2258
 3811W        W 8011   9.734   0.032   9.849  0.0535 -0.0522  0.4182
 3812W        W 8012   2.673   5.400  11.357 -0.3453 -0.0299  0.1279
 3813W        W 8013   4.775  10.271   9.400 -0.2687  0.0288  0.0762
 3814W        W 8014   5.079   7.992   1.841  0.0925 -0.1265  0.1849
 3815W        W 8015   2.414   7.690   2.878 -0.3280 -0.4880  0.0135
 3816W        W 8016   8.619   7.111   3.345  0.0573  0.1337  0.3096
 3817W        W 8017   7.656   7.936  10.281  0.1516 -0.3012 -0.1557
 3818W        W 8018   4.053   5.261  13.236  0.3575 -0.0314  0.2081
 3819W        W 8019   0.439   0.463   3.696 -0.0525  0.0056 -0.1281
 3820W        W 8020   4.194   6.599   2.466 -0.0843  0.1454  0.1587
 3821W        W 8021   8.043   1.736   9.337 -0.0626 -0.2445 -0.0087
 3822W        W 8022   8.048   2.367  11.331  0.0701  0.1230 -0.0901
 3823W        W 8023   2.786   1.462  11.592 -0.2726  0.0127 -0.1622
 3824W        W 8024   7.290   6.983   9.956  0.1049  0.0377 -0.0338
 3825W        W 8025   8.341   5.890   9.014  0.1157 -0.0550 -0.1492
 3826W        W 8026  10.217  10.362   3.985  0.0882  0.1195  0.0919
 3827W        W 8027   0.951   0.812  12.320  0.0808 -0.2444  0.2568
 3828W        W 8028   4.442   7.995   3.169 -0.2795  0.0019 -0.1004
 3829W        W 8029   2.402   2.190   2.862 -0.1829  0.2092 -0.0122
 3830W        W 8030   5.935   9.295   9.828 -0.1565  0.0515  0.0572
 3831W        W 8031   6.591   7.729   2.453 -0.0386  0.0108 -0.1195
 3832W        W 8032   3.961   9.363  11.007  0.0047  0.1257 -0.0125
 3833W        W 8033   1.633  10.024  10.119 -0.2941 -0.1631  0.1103
 3834W        W 8034   4.708   5.729   3.613  0.4161 -0.1045  0.0640
 3835W        W 8035   3.871   7.796   0.259 -0.3023 -0.0801  0.0591
 3836W        W 8036   7.468   2.317   3.032  0.1206 -0.0632 -0.2154
 3837W        W 8037   0.489   4.286   9.694 -0.0192  0.1864 -0.0396
 3838W        W 8038   0.011   2.797   8.518  0.0849  0.0001 -0.1865
 3839W        W 8039   4.252   2.390  10.335 -0.0885  0.0290  0.0616
 3840W        W 8040   4.547   3.775   3.858 -0.0942  0.3285  0.1633
 3841W        W 8041   6.453   9.718   4.534 -0.0965 -0.1593  0.0209
 3842W        W 8042   9.762   3.178  11.618 -0.0389  0.0931  0.1962
 3843W        W 8043  10.001   8.881  10.158  0.2120  0.3146 -0.0221
 3844W        W 8044   0.615   1.548   8.981  0.5677  0.1303  0.0117
 3845W        W 8045  10.103   1.984  13.031  0.2171 -0.1739  0.0496
 3846W        W 8046   5.028   0.063   9.879  0.0907  0.5214  0.2873
 3847W        W 8047   9.439   1.187   9.410 -0.0015  0.1613 -0.2607
 3848W        W 8048   3.056   7.311  12.151 -0.1029 -0.1057  0.0077
 3849W        W 8049   3.348  10.001  10.873  0.1419  0.0641  0.0396
 3850W        W 8050   8.099   3.536   1.207 -0.0186 -0.0257  0.1964
 3851W        W 8051   4.463   3.906  10.271 -0.1541 -0.0508  0.0517
 3852W        W 8052   3.477   7.862   9.625  0.0901  0.2606 -0.1098
 3853W        W 8053   1.340   9.786   2.158 -0.3080  0.1877 -0.0618
 3854W        W 8054   6.242   1.856   4.139 -0.0680 -0.0661  0.1597
 3855W        W 8055   0.949   7.048  10.634  0.2054 -0.0116 -0.1680
 3856W        W 8056   3.371   8.514  11.545  0.1211 -0.2393 -0.4949
 3857W        W 8057   6.297   2.903   3.055  0.0591 -0.3040  0.1022
 3858W        W 8058   9.286   4.141   0.379  0.3214 -0.0607 -0.0476
 3859W        W 8059   6.594   0.787   0.916  0.2250 -0.0099  0.2096
 3860W        W 8060   9.129   3.440   0.841 -0.0469 -0.3023 -0.3041
 3861W        W 8061   5.833  10.211   3.280 -0.2004  0.0599  0.1137
 3862W        W 8062   3.365   8.912  10.369  0.0259 -0.0140  0.2636
 3863W        W 8063   6.248   3.300   4.300 -0.3427 -0.1286 -0.1340
 3864W        W 8064   6.245   5.212  11.021  0.3912 -0.2287 -0.0743
 3865W        W 8065   3.441   0.989   0.022  0.3033 -0.2115 -0.0167
 3866W        W 8066   2.497   2.998  11.649 -0.0707  0.1905 -0.2351
 3867W        W 8067   2.965   2.634   2.952  0.2168 -0.2324 -0.1381
 3868W        W 8068   0.726   4.695  13.154  0.1657 -0.0893 -0.2299
 3869W        W 8069   0.902   6.353   0.577 -0.4330 -0.3714 -0.2463
 3870W        W 8070   1.990   2.738   2.310 -0.3394 -0.2433  0.2224
 3871W        W 8071   3.368   1.190  10.956  0.1409  0.1808  0.0402
 3872W        W 8072   0.249  10.250   2.987 -0.2469 -0.3365  0.2795
 3873W        W 8073   2.828   4.712   9.797  0.3053  0.2484  0.1607
 3874W        W 8074   3.435   7.447   0.342  0.1943 -0.4592 -0.1597
 3875W        W 8075   5.966   8.224  12.686  0.0512  0.3347 -0.0701
 3876W        W 8076   6.125   4.667   0.326 -0.1205 -0.1691  0.0404
 3877W        W 8077   5.666   6.481  12.149  0.1648  0.0893  0.3291
 3878W        W 8078   7.647   7.372   4.018 -0.0875 -0.1058  0.1842
 3879W        W 8079   9.772   5.035   3.769  0.3345 -0.0721 -0.0587
 3880W        W 8080   7.289   3.470   2.256 -0.0218 -0.1305 -0.0594
 3881W        W 8081   7.731   2.140   9.431  0.3827 -0.2191 -0.3023
 3882W        W 8082   2.617   3.517  10.343  0.1054  0.2301 -0.0269
 3883W        W 8083   7.830   1.533  12.455 -0.0980  0.0242 -0.1348
 3884W        W 8084   7.805   4.788  12.640  0.1000  0.2933  0.0112
 3885W        W 8085   0.528   5.718   9.988  0.1659 -0.0463  0.0805
 3886W        W 8086   9.508   0.509   3.247 -0.1197 -0.0570  0.0437
 3887W        W 8087   9.985  10.247   8.910  0.4621 -0.0124 -0.1259
 3888W        W 8088   4.242   1.269   0.518  0.1133 -0.1018 -0.2717
 3889W        W 8089   2.199   8.064  10.309 -0.1368 -0.0341  0.0494
 3890W        W 8090   6.574   3.832   2.970 -0.4076  0.2108  0.2465
 3891W        W 8091   7.559   9.162   1.408 -0.1837  0.1499  0.1601
 3892W        W 8092   1.603   8.425   9.714  0.0387 -0.1143  0.0083
 3893W        W 8093   9.096   0.670  10.960 -0.0933 -0.0698 -0.0364
 3894W        W 8094   2.908   5.060   0.701 -0.2712  0.2344  0.3750
 3895W        W 8095   1.791   2.012   3.791 -0.3023  0.1708  0.1368
 3896W        W 8096   7.570   4.500   3.942 -0.0764  0.3575 -0.2654
 3897W        W 8097   0.093  10.300   3.604  0.2609  0.0673  0.0053
 3898W        W 8098  10.437   7.972   9.989 -0.2092 -0.1493  0.4617
 3899W        W 8099   8.411   1.314   9.526 -0.0471 -0.0914  0.0688
 3900W        W 8100   6.474   7.000   0.759  0.0451 -0.0863  0.0345
 3901W        W 8101   6.198  10.173   1.080 -0.2322  0.0797 -0.3782
 3902W        W 8102   1.214   3.096   1.831 -0.1880 -0.1047  0.1164
 3903W        W 8103   1.115   5.344   2.578  0.0269 -0.4414 -0.2851
 3904W        W 8104   5.741   6.565  11.195  0.0780  0.0230  0.0206
 3905W        W 8105   1.206   2.186  10.379  0.3966  0.2687 -0.2716
 3906W        W 8106   4.467   8.035  12.234  0.2956 -0.0564 -0.1159
 3907W        W 8107   8.967   2.646  12.804 -0.0344 -0.0538 -0.0927
 3908W        W 8108   9.931   9.527   0.415 -0.1740 -0.0460 -0.1593
 3909W        W 8109   0.135   0.935   4.694 -0.2013 -0.1123 -0.0652
 3910W        W 8110   6.722   2.251   9.255 -0.0558 -0.2650  0.0499
 3911W        W 8111   5.150  10.267  13.283  0.0706  0.2265  0.1045
 3912W        W 8112   6.993   6.524  12.455  0.0923  0.1415 -0.1519
 3913W        W 8113   7.656   5.301   0.128  0.0290 -0.0567  0.1731
 3914W        W 8114   1.693   4.659   9.585 -0.1002  0.0364 -0.1988
 3915W        W 8115   1.053  10.121   3.748  0.0984  0.4116 -0.2800
 3916W        W 8116   8.089   8.441   2.900  0.3514  0.0853 -0.1215
 3917W        W 8117   3.185   9.752   3.393 -0.5089  0.0196  0.1014
 3918W        W 8118   5.251   3.020   9.386 -0.1478  0.1278  0.0631
 3919W        W 8119   5.772   1.832   3.896 -0.0307  0.0722  0.1735
 3920W        W 8120  10.134   3.301   1.732 -0.3354  0.1347 -0.1489
 3921W        W 8121  10.475   2.260  13.448  0.0738 -0.0518  0.0065
 3922W        W 8122   2.639   8.882   2.356  0.1235 -0.3009  0.1859
 3923W        W 8123   5.399   1.040   4.683  0.3973  0.0457 -0.1317
 3924W        W 8124   6.560   7.609   8.800 -0.3757 -0.0602 -0.2965
 3925W        W 8125   5.964   0.705   1.966 -0.2023  0.2935 -0.3521
 3926W        W 8126   3.010   7.052  11.031  0.1320  0.0156  0.1695
 3927W        W 8127   2.902  10.240  10.205 -0.1597 -0.2538 -0.4168
 3928W        W 8128   0.544   6.987  12.899 -0.0246  0.0532  0.0879
 3929W        W 8129   4.551   1.523   1.019  0.1730  0.5012  0.1771
 3930W        W 8130   3.275   6.252  11.195  0.1073 -0.2097 -0.2246
 3931W        W 8131   8.160   2.188   4.631  0.0639 -0.2000  0.0784
 3932W        W 8132   6.507   6.318   1.618 -0.4183  0.1602  0.1548
 3933W        W 8133   8.215   0.410   3.711 -0.2711  0.3283  0.4010
 3934W        W 8134   7.338   3.410   3.246  0.2670 -0.0305 -0.1516
 3935W        W 8135   0.577  10.073   2.666 -0.0355  0.1293 -0.2082
 3936W        W 8136   8.743   9.029   0.729  0.0646  0.1468  0.1126
 3937W        W 8137   7.530   1.606   3.456 -0.0033  0.0013 -0.2714
 3938W        W 8138   8.754   9.096  11.173  0.2445  0.0172  0.1200
 3939W        W 8139   9.892   2.263  10.161  0.1444  0.3181 -0.0185
 3940W        W 8140   0.463   2.256  12.000 -0.2000  0.0149 -0.2903
 3941W        W 8141   1.258   2.525  13.043  0.1805 -0.3596  0.2502
 3942W        W 8142   1.520   4.246   2.695  0.2126  0.3844 -0.2547
 3943W        W 8143   7.202   0.085   9.064 -0.4361  0.1857 -0.1538
 3944W        W 8144   5.405   6.212  10.646  0.1837 -0.1933  0.2371
 3945W        W 8145   7.618   3.658  11.418  0.1946  0.0293 -0.0442
 3946W        W 8146   9.113   0.914  11.429  0.0820  0.1681  0.0061
 3947W        W 8147   3.006   7.974   1.450 -0.0829 -0.3022 -0.3174
 3948W        W 8148   6.719   3.982  10.205  0.0663  0.0296  0.0308
 3949W        W 8149   6.002   9.298   0.574  0.3317  0.0986 -0.1651
 3950W        W 8150   2.516   1.820  12.026 -0.2882  0.0138 -0.0170
 3951W        W 8151   8.045   9.022   9.542  0.1029 -0.0874 -0.0298
 3952W        W 8152   0.304   7.029   2.893  0.1489  0.2037 -0.0373
 3953W        W 8153   7.890   3.233   2.910 -0.0259  0.1127 -0.0848
 3954W        W 8154  10.097   7.390   4.293 -0.1286 -0.2811 -0.0364
 3955W        W 8155   7.637   5.323   9.584  0.2769 -0.1340 -0.2006
 3956W        W 8156   1.604   8.263   0.326  0.0810 -0.0019  0.0450
 3957W        W 8157   2.684   8.928   4.004  0.1280 -0.0477  0.3142
 3958W        W 8158  10.186   0.807   1.913  0.0534  0.2693  0.1427
 3959W        W 8159   5.532   9.572   0.493  0.0179 -0.0067 -0.1948
 3960W        W 8160   4.255   7.595   1.249  0.1623 -0.0686  0.0170
 3961W        W 8161   8.861   2.206   0.901  0.0435  0.0825  0.1059
 3962W        W 8162  10.020   7.120   0.033  0.0373 -0.0329  0.0856
 3963W        W 8163   0.528   3.671  12.290 -0.2795  0.2396 -0.2995
 3964W        W 8164   9.226   8.723  10.852 -0.1539  0.0918  0.2760
 3965W        W 8165   9.442   4.563  12.593  0.1831  0.0275  0.2476
 3966W        W 8166   8.722   5.792  11.925 -0.2207  0.0606  0.1080
 3967W        W 8167   6.363   5.872   2.483 -0.2680  0.0582 -0.1216
 3968W        W 8168   0.022   9.908  11.274  0.1600  0.2997  0.2997
 3969W        W 8169   4.452   7.397  10.112  0.2096 -0.2919 -0.4630
 3970W        W 8170   1.831   3.016   8.674  0.0186  0.0937 -0.0775
 3971W        W 8171   8.140   8.736  10.009  0.3010  0.0551  0.1145
 3972W        W 8172   3.304   4.348  12.652  0.1562 -0.0949  0.0286
 3973W        W 8173   4.649   9.529  12.812  0.3295  0.1438 -0.0961
 3974W        W 8174   5.998   9.904  11.601 -0.0024 -0.0030 -0.4270
 3975W        W 8175   5.134   4.963   1.956 -0.2753  0.1331  0.3002
 3976W        W 8176   6.936   6.970   4.311 -0.1807  0.1587 -0.1571
 3977W        W 8177   4.602   4.171  11.513 -0.2745 -0.2533  0.2440
 3978W        W 8178   7.871   1.720  10.410 -0.3555 -0.0716 -0.1843
 3979W        W 8179   3.531   3.376  10.041 -0.0182  0.0947  0.0970
 3980W        W 8180   9.506   7.488  10.621  0.3031 -0.1559 -0.0571
 3981W        W 8181   9.716   1.764  12.369 -0.0027  0.3433  0.3018
 3982W        W 8182  10.012   9.182   1.367 -0.4324 -0.3834 -0.0234
 3983W        W 8183   7.818   0.187   2.423 -0.1349 -0.1445  0.2195
 3984W        W 8184   9.809   7.131   0.496 -0.2956 -0.0793  0.1425
 3985W        W 8185   5.978   2.092  10.853  0.4271 -0.0525 -0.0300
 3986W        W 8186  10.116   0.861  12.671 -0.2845  0.1650  0.0409
 3987W        W 8187   0.808   7.477  11.163  0.1960  0.2001 -0.0987
 3988W        W 8188   0.055   3.477   1.127  0.0903 -0.1519  0.1182
 3989W        W 8189   5.657   4.576  10.097 -0.0207  0.1402 -0.1514
 3990W        W 8190   5.811   7.605   0.050 -0.4430  0.0721  0.5052
 3991W        W 8191   5.221   9.046  11.077  0.2217  0.0241 -0.3228
 3992W        W 8192   2.466   0.890   3.222 -0.0864  0.3556 -0.1167
 3993W        W 8193   0.161  10.043  11.724 -0.1621  0.1579 -0.3234
 3994W        W 8194   7.054   2.694  12.233  0.0705  0.1538  0.0788
 3995W        W 8195   0.684   9.165   3.170 -0.0738  0.0979 -0.3458
 3996W        W 8196   4.951   3.920  10.388 -0.3955  0.1836 -0.0979
 3997W        W 8197   4.731   6.342   0.026 -0.1041 -0.1185 -0.0310
 3998W        W 8198   3.765   2.446   3.492 -0.3814  0.2460 -0.1718
 3999W        W 8199   2.801   5.636   2.234  0.2634 -0.6875 -0.0244
 4000W        W 8200   5.872   9.137  13.381  0.0650  0.2048 -0.0384
 4001W        W 8201   6.300   3.871  10.462 -0.0247 -0.0103  0.1930
 4002W        W 8202   2.633   3.331   4.754  0.3903 -0.0963  0.0668
 4003W        W 8203   6.275   3.424   2.308 -0.2572 -0.2271  0.1185
 4004W        W 8204   1.041   9.986  11.277 -0.1004 -0.2282  0.0651
 4005W        W 8205   5.112   6.590  12.398  0.2185 -0.2170 -0.1758
 4006W        W 8206   2.462   9.952   1.316  0.0075  0.0183  0.3034
 4007W        W 8207   4.205   6.756  12.209  0.2450 -0.0408  0.1005
 4008W        W 8208   5.350   2.334   0.151  0.0338 -0.3354  0.0765
 4009W        W 8209   2.055   0.645   2.343 -0.1116 -0.1524  0.1282
 4010W        W 8210   3.260   5.912   0.881  0.2278 -0.0987 -0.0467
 4011W        W 8211   3.062   4.696  10.614  0.1826  0.3148 -0.2691
 4012W        W 8212   3.216   4.310   3.386  0.2908  0.1351 -0.0643
 4013W        W 8213   1.940   2.451   2.759 -0.3435  0.1815 -0.2022
 4014W        W 8214   8.879   5.148   0.787  0.1820  0.3047 -0.1810
 4015W        W 8215   2.734   2.289   9.186  0.1273 -0.0777  0.0521
 4016W        W 8216   9.240   1.339  11.767 -0.1072 -0.0410 -0.1894
 4017W        W 8217   4.769   1.959   0.819 -0.0251  0.1932  0.1361
 4018W        W 8218   3.020   8.812   0.515 -0.1432 -0.2651 -0.0333
 4019W        W 8219   6.753   8.004  11.384  0.1508  0.2877 -0.1152
 4020W        W 8220   9.202   4.362   2.279  0.0114  0.0092 -0.1417
 4021W        W 8221   7.637   5.320  12.698  0.1598  0.1674 -0.0809
 4022W        W 8222   6.732   3.607   2.270 -0.2103  0.0788 -0.0075
 4023W        W 8223   6.511   5.220   4.952 -0.2007  0.2392  0.2078
 4024W        W 8224   6.023   7.895  10.829  0.1961 -0.2379  0.0920
 4025W        W 8225   8.454   3.705   0.017 -0.1474  0.0425 -0.1155
 4026W        W 8226   4.228   7.567  11.238 -0.2408 -0.1382  0.0133
 4027W        W 8227   9.168   4.947   2.054  0.2298  0.0388 -0.1006
 4028W        W 8228   6.898   4.596  12.401  0.4213 -0.1286 -0.1325
 4029W        W 8229   3.340  10.412   3.879 -0.0570 -0.0038  0.2991
 4030W        W 8230   0.483   2.548   1.859  0.0791 -0.1331  0.2907
 4031W        W 8231   6.116   4.015  13.036 -0.1460 -0.0144 -0.0505
 4032W        W 8232   4.610   8.462  10.775  0.0270 -0.0098 -0.0557
 4033W        W 8233   4.342   3.370  13.452  0.1181  0.0610 -0.1307
 4034W        W 8234   1.791   2.489   9.159  0.1438 -0.3090 -0.1157
 4035W        W 8235   3.328   4.151   1.367 -0.1216 -0.2077 -0.0149
 4036W        W 8236   5.127   6.405   2.489 -0.0277 -0.1216  0.0003
 4037W        W 8237   4.059   7.227   2.092 -0.0108 -0.1822 -0.0789
 4038W        W 8238   7.255   2.847  10.796  0.2118 -0.1729 -0.1714
 4039W        W 8239   9.155   5.917   1.355 -0.3241  0.1808 -0.1438
 4040W        W 8240   2.577   9.098   0.640 -0.0322 -0.1092  0.1638
 4041W        W 8241   8.476   7.603  13.217  0.0342 -0.0150 -0.0052
 4042W        W 8242   3.444   0.423   1.174  0.3313  0.0350 -0.0704
 4043W        W 8243   5.344   4.921  12.583  0.1301  0.3662  0.1198
 4044W        W 8244  10.056   3.706   1.998  0.2687 -0.0177  0.0208
 4045W        W 8245   3.970   7.984  11.061  0.1739  0.2047  0.0504
 4046W        W 8246   7.031   3.986   1.502 -0.4147 -0.0284  0.1251
 4047W        W 8247   3.157   2.085  13.212 -0.3759  0.0015 -0.1310
 4048W        W 8248   0.478   7.862  12.886  0.1799  0.2202 -0.1477
 4049W        W 8249  10.148   1.501   1.751  0.0816  0.1193  0.0545
 4050W        W 8250   1.373   5.368  12.128  0.0687  0.1340 -0.2296
 4051W        W 8251   2.035   5.501   2.420  0.0344  0.0800  0.2814
 4052W        W 8252   5.273   0.226  11.396  0.2840  0.2562  0.1978
 4053W        W 8253   5.506   8.256   4.168 -0.2552  0.0697 -0.1892
 4054W        W 8254   3.378   1.123   3.240 -0.0426  0.1882  0.2090
 4055W        W 8255   3.796   1.809  11.012 -0.0206 -0.0729 -0.2940
 4056W        W 8256   1.882   4.463   2.292 -0.0450  0.2068 -0.0539
 4057W        W 8257   3.736   9.093   3.966 -0.3319 -0.0651 -0.4605
 4058W        W 8258   0.289   2.460   2.384 -0.1323  0.1611 -0.2676
 4059W        W 8259   0.691   8.502   0.790  0.0167 -0.0804 -0.0458
 4060W        W 8260   7.585   1.224  10.006 -0.0353  0.0669  0.0201
 4061W        W 8261   4.142   7.396  13.070 -0.3010  0.2008  0.0036
 4062W        W 8262   2.908   4.767   2.574  0.1002  0.1483  0.1286
 4063W        W 8263   6.036   9.759   1.355 -0.1525  0.1048  0.4570
 4064W        W 8264   9.660   8.835  12.837  0.1086  0.0956 -0.2396
 4065W        W 8265   2.340   1.901   4.460  0.1101  0.1345 -0.0079
 4066W        W 8266   0.660   1.925   4.195 -0.3863  0.1705  0.2742
 4067W        W 8267   5.855  10.454  10.415  0.3453  0.1238  0.3360
 4068W        W 8268   3.814   7.790   1.120 -0.0160  0.0602  0.0736
 4069W        W 8269  10.474   5.963   9.996 -0.1800  0.0350  0.0371
 4070W        W 8270   4.073   5.550   2.346  0.2749 -0.1696 -0.0931
 4071W        W 8271   3.298   5.555   3.289 -0.2961  0.0720 -0.1032
 4072W        W 8272   0.035   5.268   2.657  0.1662  0.1303 -0.2996
 4073W        W 8273   7.130   2.693   3.825  0.1690 -0.0230  0.0564
 4074W        W 8274   9.637   1.590  10.880 -0.0952 -0.2253 -0.0197
 4075W        W 8275   7.488   7.053   3.365 -0.1305 -0.6866  0.2378
 4076W        W 8276   6.977   8.967  12.592 -0.0428  0.1380 -0.0380
 4077W        W 8277   9.586   4.225   1.852  0.5866 -0.0722 -0.1402
 4078W        W 8278  10.400   2.246   1.885 -0.1243  0.1549  0.2519
 4079W        W 8279   4.283   8.364  12.520 -0.2485 -0.2274  0.0624
 4080W        W 8280   0.033   5.935   2.089  0.0089 -0.0002  0.0905
 4081W        W 8281   4.713   4.711   0.505  0.1064  0.1421 -0.0092
 4082W        W 8282   8.871   3.444   2.466  0.0792 -0.1182  0.0224
 4083W        W 8283   1.182   7.858   1.965 -0.2838  0.0573  0.2829
 4084W        W 8284   6.195   4.219  11.636  0.0061 -0.2135  0.1187
 4085W        W 8285   8.314   1.869  10.198 -0.2745 -0.0022  0.0056
 4086W        W 8286   4.707  10.108   9.844  0.1108  0.1132  0.0632
 4087W        W 8287   7.653   5.694  10.568  0.0730  0.0962 -0.2722
 4088W        W 8288   7.471   4.025   0.197 -0.3019  0.2132 -0.0096
 4089W        W 8289   7.820   5.600  11.900  0.2214  0.0082  0.1285
 4090W        W 8290   8.182   2.318   9.580  0.2383 -0.0597 -0.2057
 4091W        W 8291   2.659   9.388   2.472  0.1503  0.0134 -0.0381
 4092W        W 8292   5.205   2.781   2.857  0.0422 -0.2162  0.3114
 4093W        W 8293   5.952   8.542   1.564 -0.2896  0.3251  0.1283
 4094W        W 8294   9.814   1.996   9.557  0.0805 -0.1254  0.2350
 4095W        W 8295   4.292   2.404   0.105 -0.0189 -0.2035 -0.0229
 4096W        W 8296   9.976   0.753  11.989 -0.0493  0.0907  0.1430
 4097W        W 8297   5.491   5.433  10.060  0.0893 -0.2782  0.0951
 4098W        W 8298   2.227   0.397  12.200 -0.2341 -0.2634  0.2064
 4099W        W 8299   4.863   5.000   3.801  0.0188 -0.0304  0.0769
 4100W        W 8300   3.305   6.451  10.043 -0.1674  0.0774  0.1407
 4101W        W 8301   4.550   9.349   9.345  0.0060  0.3153 -0.0968
 4102W        W 8302  10.098   5.821   1.342  0.0322 -0.1991  0.2319
 4103W        W 8303   8.533   9.946   9.427 -0.1572  0.0634 -0.0410
 4104W        W 8304   7.630   1.388   8.183  0.0111 -0.0014 -0.2291
 4105W        W 8305   3.452   9.222   0.528  0.3356  0.0478 -0.1750
 4106W        W 8306   6.361   0.974   9.394  0.1767  0.1656 -0.0170
 4107W        W 8307   2.774   1.582  13.002  0.1973 -0.0188  0.0777
 4108W        W 8308   8.776   6.537   3.770  0.2151  0.0515 -0.0303
 4109W        W 8309  10.066   4.569   0.315 -0.0094  0.4083  0.0262
 4110W        W 8310   4.626   0.504   2.535 -0.2091 -0.1503  0.1978
 4111W        W 8311   6.850   4.129  11.081 -0.0955  0.0783  0.0596
 4112W        W 8312   7.111   6.111   9.681  0.3578  0.2327  0.0633
 4113W        W 8313   8.014   6.646   4.929  0.3087  0.1423 -0.0220
 4114W        W 8314   5.634   9.360   5.127 -0.1506  0.0458  0.1090
 4115W        W 8315   8.839   8.610   1.653  0.2401 -0.2136  0.1927
 4116W        W 8316   7.719   8.629  10.287 -0.0239 -0.1837  0.0581
 4117W        W 8317   3.268   8.511   8.952 -0.2059  0.1713  0.0814
 4118W        W 8318   9.354   4.712   2.989 -0.1628 -0.2027  0.1154
 4119W        W 8319   2.784   5.596   3.151 -0.2589  0.4410  0.0900
 4120W        W 8320   5.047  10.094  10.201  0.0667 -0.1768 -0.1957
 4121W        W 8321   2.973   0.761  13.417 -0.2090  0.1187 -0.0475
 4122W        W 8322   9.097   4.718   0.586  0.1735 -0.1650  0.0337
 4123W        W 8323   8.406  10.252   2.537  0.4520  0.0714  0.2936
 4124W        W 8324   7.968   8.480   0.948 -0.1268 -0.0032  0.1466
 4125W        W 8325   4.768   3.609   9.864 -0.0185 -0.0943 -0.0514
 4126W        W 8326   9.995   6.157   4.578  0.1846  0.2841 -0.2597
 4127W        W 8327   4.016   6.067   2.430  0.0331  0.2451  0.1804
 4128W        W 8328   5.033   9.764  12.180 -0.0562  0.2215 -0.0418
 4129W        W 8329   4.651   1.253   9.477  0.0440 -0.0720 -0.2407
 4130W        W 8330   2.618   2.535  11.353  0.0624  0.0549  0.1816
 4131W        W 8331   9.325   5.766   3.313  0.2968 -0.0514 -0.1210
 4132W        W 8332   3.657   5.258   2.300 -0.3915  0.2898  0.1371
 4133W        W 8333   4.021   6.407   0.569  0.0080 -0.0106 -0.1958
 4134W        W 8334   6.726   2.944  10.710 -0.0261  0.1900 -0.1749
 4135W        W 8335   3.630   5.167  12.879 -0.0466 -0.1313 -0.3420
 4136W        W 8336   9.688   6.084   2.850  0.2362  0.0964  0.1948
 4137W        W 8337   4.583   9.507   2.931 -0.2945  0.0666 -0.0238
 4138W        W 8338   6.152   7.498   2.646 -0.2331 -0.1644  0.0442
 4139W        W 8339   1.648   3.507   3.623  0.3192 -0.1009 -0.3494
 4140W        W 8340   9.788   6.362  12.289  0.2340 -0.0037  0.1803
 4141W        W 8341   3.778   3.537   2.148  0.1487  0.2066  0.0608
 4142W        W 8342  10.188   1.856   8.614  0.3277  0.0623  0.0318
 4143W        W 8343   7.641   2.597   3.409  0.0715  0.0966 -0.0959
 4144W        W 8344   1.406   0.434   0.054  0.0190 -0.0621 -0.2967
 4145W        W 8345   6.495   0.136   3.235  0.1039  0.0353 -0.3306
 4146W        W 8346   4.969   5.974   0.908 -0.2431 -0.5017 -0.0822
 4147W        W 8347   8.931   0.767   3.267 -0.4079  0.0306 -0.0766
 4148W        W 8348  10.033   9.431   0.908 -0.0213 -0.1083 -0.0975
 4149W        W 8349   2.920   8.580  11.742 -0.1749 -0.0819 -0.2143
 4150W        W 8350   6.624  10.358  12.501 -0.0288 -0.0701 -0.0381
 4151W        W 8351   3.825   3.739  11.453 -0.2229 -0.4363 -0.2139
 4152W        W 8352   4.275   1.800   0.677 -0.0684 -0.0826 -0.0965
 4153W        W 8353   4.846   0.737  12.483 -0.2710  0.2041 -0.0516
 4154W        W 8354   4.580   4.060  13.152 -0.0855 -0.0029  0.1380
 4155W        W 8355   4.702   7.833   1.364 -0.0210 -0.2158 -0.0396
 4156W        W 8356   6.860   5.953   0.701  0.1462 -0.1232 -0.1051
 4157W        W 8357   4.867   6.839  11.470 -0.1139 -0.1867 -0.0033
 4158W        W 8358   6.636   3.290   9.403 -0.3370  0.1190  0.0570
 4159W        W 8359   8.269   5.937   1.174 -0.0218  0.1525  0.2709
 4160W        W 8360   1.265   8.084   9.844  0.1053  0.1817 -0.0268
 4161W        W 8361   0.878  10.356   8.988 -0.1194 -0.2728 -0.2645
 4162W        W 8362   3.365   6.716  11.287 -0.0978 -0.3032  0.2116
 4163W        W 8363   4.711   6.668   2.356  0.1875 -0.0382 -0.0609
 4164W        W 8364   2.050   5.303   9.846 -0.0627  0.0872 -0.0649
 4165W        W 8365   7.780   9.852   3.699  0.1176 -0.0728  0.2078
 4166W        W 8366   2.469   1.406  12.375 -0.0573 -0.1690 -0.1347
 4167W        W 8367   2.705   7.613   1.319 -0.2808  0.0196 -0.2156
 4168W        W 8368   0.394   1.418  12.968 -0.2550  0.1166  0.0244
 4169W        W 8369   7.154   5.941   4.277  0.2802 -0.0338 -0.1571
 4170W        W 8370   6.818   3.326  12.822  0.1076  0.4033 -0.0015
 4171W        W 8371   1.112   8.891  13.224 -0.0863  0.0641 -0.0510
 4172W        W 8372   6.830   0.104  10.467  0.2427  0.2644  0.0334
 4173W        W 8373   2.832   2.670  11.959 -0.1656 -0.0994  0.2378
 4174W        W 8374   3.370   4.957  11.003  0.0600 -0.1259  0.0171
 4175W        W 8375   9.264   6.732   1.647  0.1694 -0.0003  0.1509
 4176W        W 8376   3.664   9.214  11.360 -0.1229  0.3179  0.0231
 4177W        W 8377   5.471   0.245  10.692 -0.0602  0.3920 -0.4118
 4178W        W 8378   6.182   7.211   9.788  0.3575 -0.1167 -0.1083
 4179W        W 8379   7.313   2.723   4.327 -0.1256  0.0910  0.1269
 4180W        W 8380   6.733   4.061   3.539  0.0670 -0.1664  0.1161
 4181W        W 8381   6.122   7.844   9.781 -0.1154  0.0603  0.0668
 4182W        W 8382   2.366   1.851   0.552 -0.0555 -0.0684  0.4478
 4183W        W 8383   0.613   4.686   2.377  0.1449  0.2019  0.1029
 4184W        W 8384   6.381   9.001   2.001 -0.0451  0.3847 -0.0579
 4185W        W 8385   6.253   8.788  12.285 -0.2331  0.1444  0.3350
 4186W        W 8386  10.076   8.173  13.250  0.1520  0.1568  0.1318
 4187W        W 8387   3.635   5.793   0.108 -0.1460 -0.2910 -0.0666
 4188W        W 8388   5.911   1.507   1.347  0.1498  0.1645 -0.1965
 4189W        W 8389  10.050   9.694   8.639  0.2819  0.1266 -0.1697
 4190W        W 8390   1.087   0.432   8.759  0.2118  0.1593 -0.0294
 4191W        W 8391   2.214   8.986   3.763 -0.0668  0.1868 -0.1294
 4192W        W 8392   8.456   8.577   9.697  0.2383  0.4434 -0.0888
 4193W        W 8393   2.239   2.398  13.309  0.0707  0.1389 -0.0527
 4194W        W 8394   1.370   6.573   2.393  0.0380 -0.0244 -0.0819
 4195W        W 8395   8.039   0.192   0.468  0.1022 -0.1570  0.3685
 4196W        W 8396   7.336   2.172  13.421  0.4905  0.1512  0.1255
 4197W        W 8397   3.019   0.817   4.564 -0.1321 -0.1499 -0.0141
 4198W        W 8398  10.235   7.616   3.799 -0.1153 -0.1424 -0.3121
 4199W        W 8399   7.325   6.784   2.845  0.0038  0.1922  0.3491
 4200W        W 8400   1.586   7.682   0.157  0.1087  0.2189 -0.1341
 4201W        W 8401   4.660   7.764  10.458 -0.0322 -0.0530 -0.2863
 4202W        W 8402   0.863   7.881   9.067  0.4646 -0.0354 -0.1662
 4203W        W 8403   7.037   5.233  12.839  0.0437  0.0350  0.1915
 4204W        W 8404   1.489   3.026   3.480 -0.0612  0.2233  0.3702
 4205W        W 8405   5.096  10.130   4.544 -0.0174 -0.0401 -0.0287
 4206W        W 8406   3.388   1.965   0.694  0.2404 -0.1546 -0.2411
 4207W        W 8407   7.307   4.955  12.372  0.0374  0.0463 -0.1137
 4208W        W 8408   1.416   9.534  11.298 -0.0241  0.0807  0.0393
 4209W        W 8409   5.936   3.836   1.586 -0.0498  0.0570 -0.2196
 4210W        W 8410   2.774   6.500  13.104 -0.1000  0.1689  0.4377
 4211W        W 8411   1.560   8.608  10.315 -0.3373 -0.2558 -0.1300
 4212W        W 8412  10.310   9.064  12.503  0.1585 -0.1852  0.1999
 4213W        W 8413   0.584   1.729   1.799  0.1936  0.1398  0.1624
 4214W        W 8414   0.596   0.884   2.343 -0.0618 -0.1081 -0.0235
 4215W        W 8415   7.061   2.012  11.130  0.2079  0.1154  0.0362
 4216W        W 8416   0.644   4.472   3.446  0.1233  0.1654 -0.2633
 4217W        W 8417   0.486   4.294   9.182 -0.1911 -0.2666  0.1938
 4218W        W 8418   6.529   0.854   2.495  0.1960 -0.0069 -0.2242
 4219W        W 8419   7.612   3.652   2.736  0.0399 -0.1751 -0.1111
 4220W        W 8420   5.125   2.435   1.419 -0.0771 -0.1752 -0.0143
 4221W        W 8421   7.934   6.287   9.253 -0.0843  0.0845  0.3260
 4222W        W 8422   3.559   1.336  13.050 -0.1013  0.1672  0.1276
 4223W        W 8423  10.289   2.315   9.600 -0.0870  0.1221  0.0489
 4224W        W 8424   9.319  10.333   0.054  0.3149 -0.0042  0.2528
 4225W        W 8425   7.064   7.876   4.784 -0.2388  0.0281 -0.3013
 4226W        W 8426   4.324   0.293   4.372  0.0530  0.1615  0.1556
 4227W        W 8427   7.239   1.638   4.446 -0.0543  0.1117 -0.1663
 4228W        W 8428   1.181   5.889  13.337 -0.0324 -0.0338 -0.4492
 4229W        W 8429   9.773   0.496  13.113 -0.4714 -0.0758  0.1937
 4230W        W 8430   5.235   1.466  11.838 -0.3310  0.0872 -0.2044
 4231W        W 8431   9.409   8.522   3.621  0.1811 -0.0085 -0.3184
 4232W        W 8432   4.937   2.573   3.961  0.2853  0.1048  0.2025
 4233W        W 8433   7.064   9.212  13.412 -0.0589  0.2567 -0.0764
 4234W        W 8434   0.734   3.558   9.630  0.1339  0.0467  0.0542
 4235W        W 8435  10.316   3.014   0.204  0.1619 -0.2802 -0.0752
 4236W        W 8436   8.261   4.986   4.654 -0.0537 -0.1917 -0.4050
 4237W        W 8437   6.846   0.121  13.373  0.3840 -0.0083  0.0533
 4238W        W 8438   0.461   3.981   0.581  0.2353  0.3915  0.1109
 4239W        W 8439   1.974   1.368  13.294  0.0141  0.1476  0.4538
 4240W        W 8440   5.664  10.147   5.373 -0.1042  0.3529 -0.2806
 4241W        W 8441   7.446   4.689  11.760  0.1505 -0.2113  0.0230
 4242W        W 8442   7.224   7.100  13.207  0.1420  0.1351 -0.0572
 4243W        W 8443   0.306   8.703  10.381 -0.0829 -0.4363 -0.2733
 4244W        W 8444   6.080   9.047   9.310 -0.0579 -0.3649 -0.1272
 4245W        W 8445   0.965   3.653   1.385 -0.1610 -0.2194  0.0599
 4246W        W 8446   9.750   6.679  10.463  0.0749 -0.1306 -0.0353
 4247W        W 8447   5.452   4.975   9.826 -0.0143 -0.2454  0.0837
 4248W        W 8448   7.356   7.086   8.955  0.3093  0.1123 -0.2645
 4249W        W 8449   8.200   6.975  10.912  0.3895 -0.1233  0.3007
 4250W        W 8450   6.255   4.591   1.268 -0.0751 -0.1016  0.0694
 4251W        W 8451   8.287   4.903   9.125  0.0170 -0.0090 -0.1616
 4252W        W 8452   8.156   3.553   0.726  0.2404 -0.1329  0.2549
 4253W        W 8453   6.966   3.077  10.235  0.2760  0.1484  0.1013
 4254W        W 8454   4.385   8.838   2.486  0.5502  0.2073  0.0602
 4255W        W 8455   7.972   9.355   3.622  0.1203 -0.3444  0.1413
 4256W        W 8456   0.536   7.140   3.334  0.0516  0.0601 -0.1417
 4257W        W 8457   9.032   9.346   1.146 -0.3208 -0.1108 -0.0846
 4258W        W 8458   7.088   0.411   0.209  0.0452 -0.2964 -0.1810
 4259W        W 8459   6.067   7.070   0.523  0.2351 -0.1464 -0.1430
 4260W        W 8460   9.376   6.493   5.083 -0.0107 -0.0172 -0.1058
 4261W        W 8461   7.777   5.622  13.182  0.2115 -0.3673 -0.1667
 4262W        W 8462   7.817   6.030  12.324 -0.4038  0.3671 -0.1707
 4263W        W 8463   5.559   9.708  11.403 -0.0637 -0.2383  0.1644
 4264W        W 8464   4.644   3.115  10.624  0.0273 -0.2686 -0.2141
 4265W        W 8465   8.585   2.384   1.597  0.4745 -0.2293 -0.1874
 4266W        W 8466   0.365   8.201  10.247  0.1696  0.2639  0.0202
 4267W        W 8467   1.643   3.702   1.059  0.0735  0.1058  0.1816
 4268W        W 8468   4.768   0.757   2.930  0.1517 -0.0837  0.1796
 4269W        W 8469   8.115   2.756  10.593  0.0490 -0.4396  0.2675
 4270W        W 8470   9.257   5.103  12.551  0.0234  0.3299 -0.1688
 4271W        W 8471   6.349   3.904   2.461  0.0265  0.0684  0.0278
 4272W        W 8472   1.096   9.206  10.186 -0.0339 -0.1779  0.0173
 4273W        W 8473   2.948   9.136  12.028  0.1035  0.0480  0.0404
 4274W        W 8474   1.732   6.420  10.981 -0.0532 -0.0669  0.2540
 4275W        W 8475   8.112  10.086  11.942 -0.6311 -0.0176  0.0387
 4276W        W 8476   1.817   9.435   4.490 -0.0904 -0.1728  0.0152
 4277W        W 8477   6.948   5.212  10.976 -0.0639  0.1640  0.0877
 4278W        W 8478   1.278   7.507   1.007  0.1576  0.1360  0.0259
 4279W        W 8479   6.916   3.990   4.530  0.0274 -0.2807  0.1521
 4280W        W 8480   6.032   2.925   1.184  0.0226 -0.2223  0.0491
 4281W        W 8481   3.519   6.282  12.316 -0.0400  0.1750 -0.1522
 4282W        W 8482   6.504   3.986  13.326 -0.0113  0.1334 -0.4510
 4283W        W 8483   4.691   9.606  11.828 -0.1020 -0.2756  0.1495
 4284W        W 8484   6.187   8.500   2.928  0.1379 -0.0773  0.2028
 4285W        W 8485   3.223   0.482  11.825 -0.0982 -0.1221  0.0203
 4286W        W 8486   8.373   0.818   2.226  0.2018  0.4003  0.1889
 4287W        W 8487   8.896  10.171   1.158 -0.1529  0.2355  0.0871
 4288W        W 8488   1.184   3.739  13.213 -0.0594 -0.0079  0.0445
 4289W        W 8489   0.579   2.344   3.960  0.0542 -0.1051  0.4549
 4290W        W 8490   4.569   6.825   2.993  0.0776 -0.2022 -0.1532
 4291W        W 8491   9.059   4.177  12.305  0.3837  0.0148  0.2074
 4292W        W 8492   5.270   0.840  12.722  0.2337  0.0977  0.2349
 4293W        W 8493   3.060   6.600   0.202 -0.0240 -0.0980 -0.4583
 4294W        W 8494   2.793   4.211   0.934 -0.1170  0.0935  0.1968
 4295W        W 8495   7.597   6.994  12.867 -0.2234  0.1049  0.1282
 4296W        W 8496   1.171  10.364  12.566 -0.1882  0.1844 -0.2245
 4297W        W 8497   5.845   0.417  11.012  0.0457 -0.0987 -0.3070
 4298W        W 8498   6.217   6.608   0.356 -0.0040  0.1184  0.1946
 4299W        W 8499   8.490   6.647   0.528 -0.1910  0.0792 -0.1373
 4300W        W 8500   0.677   8.043   0.039  0.2094 -0.2640 -0.2989
 4301W        W 8501   9.181   7.398   9.441 -0.1823  0.0502  0.1420
 4302W        W 8502   9.653   6.793   0.135  0.1079 -0.2877  0.2365
 4303W        W 8503   4.009   3.574  11.882 -0.1540  0.0651 -0.1899
 4304W        W 8504   1.608   7.929  12.412  0.0255  0.2409 -0.1302
 4305W        W 8505   6.367   2.690   1.775  0.4092  0.2035 -0.0679
 4306W        W 8506   4.090   2.427  12.604  0.0984  0.1924  0.3878
 4307W        W 8507   5.048  10.159   3.049  0.0698  0.1633 -0.0677
 4308W        W 8508   7.924  10.063   2.942 -0.1932 -0.0203 -0.0404
 4309W        W 8509   4.470   0.788   4.324 -0.0024 -0.1016 -0.1469
 4310W        W 8510   8.900   8.702   9.957  0.1016  0.0236 -0.3336
 4311W        W 8511   4.285   4.004  11.870  0.1567  0.1480  0.0631
 4312W        W 8512   5.149   2.132  12.501 -0.1415 -0.1528 -0.0029
 4313W        W 8513   5.646   0.629   0.563 -0.1462 -0.0504  0.2305
 4314W        W 8514   9.518   5.606   2.829  0.1304  0.0079 -0.1900
 4315W        W 8515   1.479   2.022  11.945  0.1349  0.0028  0.0024
 4316W        W 8516   6.412   9.555   9.318 -0.1190 -0.1296 -0.0682
 4317W        W 8517   0.552   0.377   4.247  0.5107  0.2487 -0.0469
 4318W        W 8518   1.048  10.141  12.105 -0.3333  0.2351 -0.0610
 4319W        W 8519   1.482  10.069   1.614 -0.0562  0.2171 -0.1766
 4320W        W 8520   1.802   6.274   0.391 -0.1875 -0.2015 -0.1102
 4321W        W 8521   5.820   0.532   9.937 -0.1023 -0.0549 -0.1464
 4322W        W 8522   5.570   7.211  13.093  0.0067  0.0849  0.0795
 4323W        W 8523   7.459   9.443  11.210  0.0201 -0.4837 -0.0735
 4324W        W 8524   4.547   1.919   2.722 -0.1542  0.2277  0.0064
 4325W        W 8525   4.577   6.606   1.829  0.2052 -0.0118  0.3562
 4326W        W 8526   7.643   7.371  13.331  0.1603  0.2292 -0.3833
 4327W        W 8527   6.965   6.396   4.365 -0.1553  0.0752 -0.1064
 4328W        W 8528   0.914   5.026  10.842  0.1436  0.2417 -0.1161
 4329W        W 8529   1.916   3.487   3.262 -0.2714  0.3123 -0.0077
 4330W        W 8530   4.972   7.084  10.015  0.1547  0.0035 -0.1708
 4331W        W 8531   8.486   3.928   0.524 -0.0510  0.1632 -0.0398
 4332W        W 8532   0.296   4.435   4.450  0.1770 -0.3363 -0.1327
 4333W        W 8533   9.684  10.228   1.527  0.1792 -0.1288  0.2252
 4334W        W 8534   9.673   3.871  12.420 -0.3408 -0.1816 -0.0279
 4335W        W 8535   8.792   8.332  11.716  0.2307  0.2724 -0.0374
 4336W        W 8536   3.544   2.407   4.151 -0.2921  0.1791  0.0172
 4337W        W 8537   8.994   0.052   2.551 -0.3552 -0.0182  0.2651
 4338W        W 8538   2.922   5.817   2.685 -0.1277 -0.1023 -0.1320
 4339W        W 8539   9.130   3.476  12.112 -0.0363 -0.0587  0.1339
 4340W        W 8540   4.980   9.652   9.923  0.0625  0.3872 -0.3632
 4341W        W 8541   2.697   1.664   1.348 -0.1128  0.3783 -0.1076
 4342W        W 8542   8.859   1.134  10.940 -0.2258 -0.2333  0.3110
 4343W        W 8543   9.619   4.639   3.399 -0.2962 -0.1734  0.0748
 4344W        W 8544   8.443   2.107   9.260 -0.0721 -0.1846  0.3509
 4345W        W 8545   1.830   6.895   0.844 -0.4319 -0.0820  0.1339
 4346W        W 8546   9.530   5.190   1.884 -0.1844 -0.0450 -0.4122
 4347W        W 8547   1.350  10.246   9.802 -0.0014  0.1180  0.0872
 4348W        W 8548   5.024   8.096   9.951 -0.1220  0.0842 -0.1363
 4349W        W 8549   9.111   2.763  10.430 -0.1119  0.1049 -0.0879
 4350W        W 8550   2.458   0.573  10.920 -0.4081  0.0597 -0.1379
 4351W        W 8551   4.354   4.675  11.261 -0.1988  0.3748 -0.0022
 4352W        W 8552   1.488   3.996   0.688  0.1103  0.0423  0.1164
 4353W        W 8553   4.149   4.454   1.448  0.1360 -0.0376  0.0629
 4354W        W 8554   6.394   8.740  13.300 -0.1872  0.1628  0.0892
 4355W        W 8555   9.139  10.420   3.151  0.2994 -0.0308 -0.0300
 4356W        W 8556   3.004   5.060  13.044 -0.1159  0.0905 -0.0581
 4357W        W 8557   8.325   0.240  11.194 -0.3640  0.2090  0.1352
 4358W        W 8558  10.003   7.860  10.623 -0.0795 -0.0578 -0.0413
 4359W        W 8559   3.064   5.995   3.233  0.3112 -0.2085  0.1953
 4360W        W 8560   1.793   3.364  12.223 -0.2752 -0.3381  0.3680
 4361W        W 8561   0.850   4.844  11.338  0.0900  0.0739 -0.0622
 4362W        W 8562   7.439   0.091   4.205 -0.0718 -0.1462  0.0731
 4363W        W 8563   5.588  10.096  13.132 -0.2437  0.0833 -0.2122
 4364W        W 8564   8.979   8.266  12.363  0.3866  0.2392  0.0625
 4365W        W 8565   8.904   2.815   0.744 -0.1650  0.0283 -0.0342
 4366W        W 8566   9.002   1.970   4.219  0.3631 -0.3372 -0.0615
 4367W        W 8567   5.918   0.175   2.372 -0.1628 -0.0543  0.2628
 4368W        W 8568  10.154   1.597  10.780  0.1902 -0.3109  0.2040
 4369W        W 8569   5.519   3.920   3.444  0.0048  0.2133 -0.3027
 4370W        W 8570   8.452   6.036  11.568 -0.1792  0.0437  0.0316
 4371W        W 8571  10.442   7.397  12.087 -0.0861  0.1168 -0.0854
 4372W        W 8572   7.169   6.196   3.519 -0.1294 -0.1877 -0.0606
 4373W        W 8573   5.727   3.319   4.110  0.2488 -0.0359  0.2257
 4374W        W 8574   3.285   4.839   1.035 -0.0372 -0.0099  0.0557
 4375W        W 8575   7.051   9.328  10.378 -0.0302 -0.1688 -0.1994
 4376W        W 8576   5.012   0.391   5.034  0.1698 -0.0108 -0.1469
 4377W        W 8577   0.247   3.464  11.942 -0.0026 -0.2214  0.0606
 4378W        W 8578   2.839   1.276   8.878  0.1602 -0.0153  0.1017
 4379W        W 8579   0.173   3.293   3.656  0.0248 -0.0859  0.2417
 4380W        W 8580   0.771   2.849   3.829  0.0204  0.1451 -0.0847
 4381W        W 8581   7.207   3.978  11.487  0.0208  0.1243 -0.0466
 4382W        W 8582   7.308   5.326   3.733 -0.0487 -0.0704 -0.1037
 4383W        W 8583   0.303   4.484   4.975 -0.3532  0.2763  0.0799
 4384W        W 8584   7.849   1.109   2.042 -0.0420  0.3835 -0.1968
 4385W        W 8585  10.359   0.659   2.909  0.0760  0.2063  0.1157
 4386W        W 8586   7.783   5.522   3.540  0.0975  0.1572 -0.1290
 4387W        W 8587   6.328   7.369  10.761  0.2041 -0.0257 -0.0677
 4388W        W 8588   0.542   0.788  10.242 -0.2762 -0.1451  0.1581
 4389W        W 8589   6.723   7.870   3.291 -0.2874 -0.0496 -0.0760
 4390W        W 8590   5.829   3.176   2.330  0.0346  0.1024  0.1196
 4391W        W 8591   1.894   0.400   2.721 -0.1776  0.2425  0.0400
 4392W        W 8592   4.549   7.066  12.513  0.1070  0.5689 -0.0409
 4393W        W 8593   7.650   0.003   9.349  0.0133 -0.2047  0.2103
 4394W        W 8594   2.583   1.767   3.094  0.1314 -0.1814  0.5225
 4395W        W 8595   1.714   5.551  12.595 -0.0072  0.0034 -0.2193
 4396W        W 8596   6.581   4.944   1.418  0.4530 -0.2265  0.0283
 4397W        W 8597   6.781   0.917   0.326 -0.0948  0.1038 -0.2648
 4398W        W 8598   7.970   9.928  12.383 -0.1801 -0.0114 -0.0755
 4399W        W 8599   3.024   2.243  12.242 -0.2263 -0.1297  0.3171
 4400W        W 8600   1.437   7.289  10.817  0.0473  0.1098 -0.1208
 4401W        W 8601   9.479   0.362   0.786  0.3961 -0.3415 -0.0688
 4402W        W 8602   9.391   6.694  11.628 -0.2692 -0.0832  0.1478
 4403W        W 8603   9.253   6.642   3.595 -0.1401 -0.3161  0.0916
 4404W        W 8604   5.756   0.094   9.716  0.1888  0.0794 -0.1843
 4405W        W 8605  10.186   4.927   2.795 -0.1142 -0.0944  0.3548
 4406W        W 8606  10.239   5.380  10.533  0.3629  0.0078 -0.0264
 4407W        W 8607  10.194   5.198   1.976 -0.1625 -0.0190 -0.1704
 4408W        W 8608   7.653   3.039   2.347  0.0493  0.1304  0.0551
 4409W        W 8609   5.410   3.188   0.594 -0.0990  0.0708 -0.1140
 4410W        W 8610   1.506   7.216  12.800 -0.1458  0.3201  0.2037
 4411W        W 8611   6.994   1.769   9.161 -0.1035 -0.2029 -0.2183
 4412W        W 8612   0.756  10.034   0.963 -0.2224 -0.4232  0.0297
 4413W        W 8613   6.044   5.399   1.676  0.0300  0.0467  0.3622
 4414W        W 8614   7.133   0.429   2.867  0.3637 -0.2041  0.2046
 4415W        W 8615   8.339   7.464  11.700  0.1555 -0.1589  0.0154
 4416W        W 8616   3.803   1.319  10.767  0.0747  0.0770 -0.0280
 4417W        W 8617   9.472   6.996   3.927  0.0123 -0.0832 -0.1745
 4418W        W 8618   8.082   9.558  12.077  0.1186  0.1343  0.1225
 4419W        W 8619   2.625   4.769   2.121 -0.2043  0.2586 -0.0861
 4420W        W 8620   5.698   7.715   1.848  0.1922  0.1457 -0.1797
 4421W        W 8621   2.799   8.628   3.150 -0.1268  0.0109  0.2259
 4422W        W 8622   9.016   5.617   5.413 -0.2986 -0.0769  0.0461
 4423W        W 8623   9.717   7.459   3.951  0.1014  0.0646 -0.1362
 4424W        W 8624   8.767  10.008   0.653  0.1315  0.0591  0.4807
 4425W        W 8625   0.667   4.502   2.906  0.2342 -0.1239 -0.2413
 4426W        W 8626   9.495   9.515  10.449 -0.2397 -0.2756 -0.0755
 4427W        W 8627   1.397  10.330   4.437  0.0468  0.0159  0.0816
 4428W        W 8628   7.026   1.384   4.075  0.3025 -0.4939  0.1904
 4429W        W 8629   2.933   3.745  13.413  0.2496 -0.1491 -0.2496
 4430W        W 8630   4.991   2.679  11.574  0.1730  0.0504 -0.2075
 4431W        W 8631   5.016   0.226  10.444  0.3557  0.1606 -0.0105
 4432W        W 8632   9.825   1.776  10.001  0.2036 -0.0554  0.2056
 4433W        W 8633   3.014   0.695   2.835  0.3166  0.0180 -0.1557
 4434W        W 8634   9.654   5.156   4.353 -0.3622  0.0001 -0.0774
 4435W        W 8635  10.225   3.216   2.213 -0.4440 -0.0788 -0.0505
 4436W        W 8636   1.338   5.355   3.452  0.0008 -0.1305 -0.3364
 4437W        W 8637   0.427   6.811  10.328 -0.1445 -0.1223  0.1533
 4438W        W 8638   4.697   8.940  11.231  0.2058 -0.0506 -0.2193
 4439W        W 8639   2.055   8.706  12.102  0.3028 -0.0269  0.1077
 4440W        W 8640   5.631   7.319   9.347  0.1282 -0.1513  0.0563
 4441W        W 8641   9.471   4.909  11.825  0.0104 -0.0221  0.3833
 4442W        W 8642   3.197   5.424  11.208 -0.2388 -0.0075  0.0682
 4443W        W 8643   6.022   5.870   1.954 -0.2665  0.1629  0.0945
 4444W        W 8644  10.377   6.652  11.878 -0.0809  0.1236 -0.1119
 4445W        W 8645  10.300   7.775   9.192 -0.2599 -0.2221  0.2959
 4446W        W 8646   3.377   3.247  10.864  0.1246 -0.0269 -0.2803
 4447W        W 8647   4.383   5.809   2.681 -0.2157 -0.2342 -0.2098
 4448W        W 8648   1.969   1.204   3.303  0.1974  0.2056 -0.5427
 4449W        W 8649   1.036   5.932   1.428  0.0682  0.1365  0.0275
 4450W        W 8650   7.797   6.981   0.136 -0.0361  0.1252  0.0909
 4451W        W 8651   5.918   9.409   8.989  0.3733 -0.1011 -0.1085
 4452W        W 8652   6.181   1.632  12.491  0.3053 -0.4261 -0.0813
 4453W        W 8653   0.281   7.792  13.342 -0.3019 -0.0548  0.1293
 4454W        W 8654   0.667   5.154   4.133 -0.1357  0.1704  0.4382
 4455W        W 8655   9.180   3.429   4.294 -0.0060 -0.0434  0.0340
 4456W        W 8656   6.257   1.104   3.650 -0.0132  0.0815  0.0428
 4457W        W 8657   8.018   8.031  10.716  0.0343  0.0811  0.2780
 4458W        W 8658   3.192   6.763  13.110  0.2245 -0.2423  0.1262
 4459W        W 8659   3.567   1.969  11.772 -0.1913 -0.0236  0.0995
 4460W        W 8660   5.805   6.048  10.989 -0.1190  0.4334 -0.3383
 4461W        W 8661   4.471   1.367   4.206  0.0352 -0.1337 -0.0871
 4462W        W 8662   2.573   0.673   1.540  0.1696 -0.2550  0.1411
 4463W        W 8663   8.782   7.746   2.675  0.3125  0.1944 -0.3341
 4464W        W 8664   9.298   8.971   4.758  0.1199 -0.1010 -0.0030
 4465W        W 8665   4.892   4.977  12.933 -0.1374  0.1642  0.0253
 4466W        W 8666   7.146   8.390   2.096 -0.0576 -0.1526  0.0286
 4467W        W 8667   3.947   8.870  12.951 -0.1724 -0.2103 -0.2185
 4468W        W 8668   5.323   5.900   1.235  0.2177 -0.0548  0.1604
 4469W        W 8669   0.452   0.379  11.297 -0.1965  0.3612  0.1143
 4470W        W 8670   7.466   8.013   8.869  0.2994 -0.1321 -0.2238
 4471W        W 8671   5.566   0.290  12.653  0.0764 -0.2461  0.0130
 4472W        W 8672   8.994   3.908   3.391 -0.3223  0.0663 -0.0989
 4473W        W 8673   2.097   6.909   2.653 -0.0769  0.0481 -0.0866
 4474W        W 8674   3.116   5.447  10.632 -0.0880  0.0051  0.1732
 4475W        W 8675   2.182   7.758   2.374 -0.2538 -0.2370  0.1695
 4476W        W 8676   1.012   2.085   3.088 -0.2761  0.2728  0.0240
 4477W        W 8677   1.777   9.871  11.954 -0.3316  0.0362  0.1437
 4478W        W 8678   0.009   7.639  12.853 -0.2741 -0.0901 -0.4135
 4479W        W 8679   0.974   0.217   1.709 -0.1873 -0.3974  0.0742
 4480W        W 8680   5.258   3.438   4.385  0.1764  0.0194 -0.1941
 4481W        W 8681   9.982  10.141   9.929 -0.0586 -0.0641  0.1020
 4482W        W 8682   4.175   4.292   3.800  0.1042  0.2246 -0.1084
 4483W        W 8683   9.640   8.908   8.417  0.1758  0.0767  0.2282
 4484W        W 8684   9.428   6.943   2.914 -0.0717 -0.0810  0.2723
 4485W        W 8685   2.378   1.071  11.349  0.0402 -0.2113  0.0241
 4486W        W 8686   2.817   7.332  12.729  0.0036  0.1498 -0.1019
 4487W        W 8687   9.617   1.652   0.415 -0.1189  0.2384  0.1472
 4488W        W 8688  10.288   5.768   3.160  0.1148  0.1427 -0.0891
 4489W        W 8689   6.160   7.800  12.165 -0.1347 -0.1314  0.1601
 4490W        W 8690   7.010   8.446  11.342  0.0448  0.0013  0.0254
 4491W        W 8691   9.912   5.104  13.237  0.1851 -0.4475 -0.1728
 4492W        W 8692   3.243   3.476   0.297  0.2094 -0.0565  0.3852
 4493W        W 8693   3.974   4.944   3.324  0.0579 -0.0421 -0.0226
 4494W        W 8694   8.592   4.138  12.544 -0.1217  0.0089  0.2382
 4495W        W 8695   0.975   2.484   0.077 -0.0627  0.2846  0.0748
 4496W        W 8696   3.885   4.791  13.247 -0.0588 -0.3117  0.0339
 4497W        W 8697   7.335   1.678   1.800 -0.0172 -0.0896 -0.0084
 4498W        W 8698   5.522   0.767  12.278 -0.1722  0.0135 -0.0545
 4499W        W 8699   7.447   0.745   2.108  0.0048 -0.3612  0.0253
 4500W        W 8700   3.960   8.523   1.042 -0.0564 -0.0834  0.0644
 4501W        W 8701   5.991   2.234   0.843  0.0757 -0.0976  0.1080
 4502W        W 8702   9.311   8.120   9.489 -0.0867  0.1715 -0.0321
 4503W        W 8703   5.581   2.351  10.579  0.2137 -0.0044  0.0720
 4504W        W 8704   6.472   5.631   3.768  0.1487 -0.3399 -0.0902
 4505W        W 8705   0.421   5.043   2.844 -0.0268  0.0405  0.1576
 4506W        W 8706   5.256   6.495  11.074 -0.2288  0.2399 -0.0025
 4507W        W 8707   7.199   2.444   2.428 -0.1458 -0.1790 -0.3191
 4508W        W 8708   2.442  10.310  11.406 -0.1260 -0.0418 -0.0485
 4509W        W 8709   7.203   0.993   4.216 -0.0021  0.1555 -0.1541
 4510W        W 8710   8.421   9.441   2.624 -0.2182  0.1455  0.0399
 4511W        W 8711   4.935  10.103   4.017 -0.2610 -0.1956  0.0242
 4512W        W 8712   6.796   5.432   2.900 -0.3588 -0.1542 -0.0503
 4513W        W 8713   4.793   2.742   3.111 -0.2626 -0.0400  0.6159
 4514W        W 8714   6.785   7.287   9.559 -0.0912 -0.2745 -0.0340
 4515W        W 8715   5.230   5.501  11.841 -0.3794  0.0195  0.0784
 4516W        W 8716   8.759   7.766   0.164  0.3607 -0.1435  0.3275
 4517W        W 8717  10.005  10.023  12.660  0.3440 -0.2090 -0.2576
 4518W        W 8718   7.761   8.051   3.104  0.0307 -0.1169  0.0678
 4519W        W 8719   2.898   8.510   9.799 -0.0209 -0.1823 -0.0040
 4520W        W 8720   9.671   3.811  11.105  0.2024 -0.0862  0.0167
 4521W        W 8721   8.828   3.351   3.403 -0.0158  0.1346  0.2990
 4522W        W 8722   5.497   5.734   3.684  0.1146 -0.2484  0.3460
 4523W        W 8723   6.139   6.293   2.361  0.0721  0.0653  0.0891
 4524W        W 8724   5.695   1.662   0.943 -0.2680 -0.0353 -0.1223
 4525W        W 8725   3.261   9.341   1.240  0.1164  0.3123  0.2139
 4526W        W 8726   0.393   9.927   0.075  0.0868  0.2577  0.0763
 4527W        W 8727   8.869   4.890   2.991  0.0545  0.0192 -0.0711
 4528W        W 8728   5.868   1.748  13.073  0.0225 -0.3828  0.2555
 4529W        W 8729   7.229   4.000   2.204  0.1053 -0.1492 -0.4377
 4530W        W 8730   7.231   7.393  12.411 -0.0169 -0.1359  0.1991
 4531W        W 8731   6.592   0.836  12.144 -0.1561 -0.1056  0.4227
 4532W        W 8732   3.425   3.779   1.801 -0.0051  0.2663  0.0203
 4533W        W 8733   1.675   9.673   9.108 -0.0343  0.1537  0.0585
 4534W        W 8734   2.131   4.050  10.150  0.2261 -0.1159  0.0796
 4535W        W 8735   0.352   6.905   9.743 -0.0293 -0.2425 -0.0993
 4536W        W 8736   8.042   1.092  12.281 -0.1182 -0.2685 -0.0993
 4537W        W 8737   5.283   3.463  11.251 -0.1765 -0.0627 -0.2224
 4538W        W 8738   7.436   4.514   1.560 -0.6123 -0.0070  0.2893
 4539W        W 8739   0.163   1.185   0.480  0.1990 -0.1304  0.0576
 4540W        W 8740   6.245   5.273   4.102  0.1393 -0.2895 -0.1174
 4541W        W 8741   9.461  10.033   1.903  0.3144 -0.0432  0.0202
 4542W        W 8742   9.903   8.272   3.646 -0.4428  0.1920  0.0746
 4543W        W 8743   1.924   4.923   0.092  0.1529  0.0659 -0.1237
 4544W        W 8744   4.051   4.691   2.089  0.1782  0.2108 -0.0449
 4545W        W 8745   5.757   0.933  10.231  0.1244 -0.2243 -0.1679
 4546W        W 8746   2.822   9.043   2.807 -0.2244  0.1581  0.0471
 4547W        W 8747   2.800   5.096   9.441  0.3297  0.1991  0.0067
 4548W        W 8748   0.227   9.711   9.123  0.0136 -0.1091 -0.0593
 4549W        W 8749   6.569   6.210  12.571 -0.4295  0.1313  0.2871
 4550W        W 8750   4.786   5.519  11.418 -0.0581 -0.1747  0.0449
 4551W        W 8751   1.264   8.576  11.933  0.3810 -0.3350  0.3443
 4552W        W 8752   5.617   6.245   1.321 -0.0224 -0.2739 -0.3353
 4553W        W 8753   4.710   6.066  11.179  0.0414 -0.1770 -0.0954
 4554W        W 8754   6.272   7.815   1.758 -0.1872 -0.1832  0.3197
 4555W        W 8755   5.401   4.159  11.987 -0.4387  0.3289  0.0609
 4556W        W 8756   7.682   9.404   4.106  0.0960 -0.3020  0.0256
 4557W        W 8757   7.150   5.016  11.442  0.0406 -0.3654  0.1390
 4558W        W 8758   5.773   2.983  12.806  0.1327  0.1243 -0.1827
 4559W        W 8759   6.439   5.956  12.960  0.0487 -0.0480 -0.0655
 4560W        W 8760   5.628   6.574  13.306 -0.0368  0.3662  0.1121
 4561W        W 8761   9.136   9.793  12.405  0.0523 -0.1625  0.0781
 4562W        W 8762   0.014   1.964  10.743  0.1645 -0.2562  0.0697
 4563W        W 8763   0.283   9.351  12.597  0.0536  0.0545  0.0508
 4564W        W 8764   0.576   5.850   1.257  0.0443  0.2125  0.1792
 4565W        W 8765   5.203   4.091   0.940  0.3266  0.0297  0.0951
 4566W        W 8766   8.078   0.260   9.508  0.3794 -0.0808  0.1013
 4567W        W 8767   3.754   6.095   3.848  0.1107 -0.1739  0.1199
 4568W        W 8768   5.473  10.128   0.205  0.4003 -0.2097 -0.2124
 4569W        W 8769   4.631   5.085  12.553 -0.1350 -0.1132  0.0275
 4570W        W 8770   1.427   1.583   2.535  0.0919  0.0170  0.2598
 4571W        W 8771   3.397   2.558   2.750  0.1482  0.0449  0.0338
 4572W        W 8772   5.529   5.531   2.716 -0.0482  0.0949 -0.4939
 4573W        W 8773   7.264   9.905   3.641  0.2133  0.2184  0.0547
 4574W        W 8774   5.800   0.331   4.922  0.0123  0.1741 -0.2869
 4575W        W 8775   5.029   1.910   3.275 -0.1646  0.0685  0.1066
 4576W        W 8776   0.940   2.709  10.780  0.1387 -0.2459  0.0926
 4577W        W 8777  10.153  10.283  11.199  0.0063  0.0473  0.1792
 4578W        W 8778   8.201   8.138   8.957 -0.0297  0.1077  0.2956
 4579W        W 8779   5.866   9.636   9.445  0.2658 -0.3282  0.4832
 4580W        W 8780   7.641   0.767   3.082  0.3122  0.1500 -0.1488
 4581W        W 8781   7.342   5.317  13.262 -0.0579  0.1771  0.1797
 4582W        W 8782   4.155   2.863   3.782  0.1490 -0.4101  0.0466
 4583W        W 8783   2.787   3.181   4.283  0.0235 -0.0738 -0.0935
 4584W        W 8784   0.650   6.705   1.642  0.0539  0.2467 -0.3815
 4585W        W 8785   4.215   1.600  10.805 -0.2120 -0.1285  0.3193
 4586W        W 8786   1.751   8.503   3.325  0.1491 -0.1050  0.0577
 4587W        W 8787   6.481   7.101   1.948 -0.1467  0.1960 -0.1122
 4588W        W 8788   6.567   7.927  10.015  0.1033 -0.0829 -0.1591
 4589W        W 8789   7.879   8.463   4.050  0.3040 -0.1579  0.1868
 4590W        W 8790   7.014   8.394   4.886 -0.0258  0.0941  0.0614
 4591W        W 8791   6.305   8.101   0.120 -0.0874 -0.2560  0.0208
 4592W        W 8792   9.526   2.003   4.245  0.1668  0.2517  0.1060
 4593W        W 8793   8.399   9.152   3.513  0.1524  0.1887 -0.0142
 4594W        W 8794   1.826   6.355  11.507 -0.0943 -0.0368  0.1429
 4595W        W 8795   9.490   3.620   5.037 -0.0489 -0.2179 -0.1949
 4596W        W 8796   2.727   1.594   8.454 -0.1162 -0.0049 -0.1107
 4597W        W 8797   7.789  10.315   4.471 -0.2565  0.0483  0.5477
 4598W        W 8798   0.020   2.667   0.487 -0.3041  0.2408  0.0021
 4599W        W 8799   1.199  10.169  10.339  0.2181  0.1009  0.1793
 4600W        W 8800   1.583   6.526   3.187 -0.2864 -0.2853  0.1695
 4601W        W 8801   0.072   5.378  11.702  0.1783 -0.0251 -0.0772
 4602W        W 8802   2.602   2.181   1.501 -0.0556  0.2425 -0.0130
 4603W        W 8803   3.109   2.079   2.878  0.2825 -0.4071  0.2010
 4604W        W 8804   3.660   0.097  10.550 -0.1057  0.0355  0.0555
 4605W        W 8805   2.752   0.542   9.167  0.1645  0.1840  0.4997
 4606W        W 8806   3.997   2.188   4.164 -0.2583  0.2710  0.2875
 4607W        W 8807   9.202   0.420  10.522  0.2743  0.0957 -0.1800
 4608W        W 8808   1.933   0.190   2.182 -0.2919  0.0596  0.1012
 4609W        W 8809   2.824   1.356   9.422  0.4148 -0.0107 -0.0276
 4610W        W 8810   3.229   1.672  12.864 -0.1890  0.0438  0.1880
 4611W        W 8811   5.092   3.683  10.864 -0.1025  0.1262  0.1573
 4612W        W 8812   5.538   3.998   1.326  0.0850  0.0940  0.1670
 4613W        W 8813   5.235   0.061   9.427  0.0519 -0.0691  0.2528
 4614W        W 8814   4.384   4.156   1.102  0.0209  0.1346 -0.0776
 4615W        W 8815   4.242  10.203   9.949 -0.3141  0.2695  0.1246
 4616W        W 8816   0.727   9.297   9.215 -0.3853  0.0352  0.1582
 4617W        W 8817   6.683   5.534   0.427  0.2273  0.0699  0.1267
 4618W        W 8818   4.385   8.342   0.681 -0.1316  0.3240  0.0279
 4619W        W 8819   7.811   6.694   3.167 -0.3420  0.2585 -0.2289
 4620W        W 8820   8.929  10.144  13.245 -0.2094  0.1084  0.0115
 4621W        W 8821   7.989   7.239   1.365 -0.0847  0.0298  0.0919
 4622W        W 8822   4.666   5.178   2.154 -0.2084 -0.1437  0.0207
 4623W        W 8823   5.822   2.165   9.307 -0.1536 -0.1410  0.2727
 4624W        W 8824   8.313   4.980   5.179 -0.1020 -0.0614  0.0322
 4625W        W 8825   4.895   2.156   4.310 -0.0945  0.0109 -0.1340
 4626W        W 8826  10.467   0.188   2.734  0.0284 -0.1364 -0.3194
 4627W        W 8827   2.077   7.825   9.276 -0.1589  0.2597  0.0948
 4628W        W 8828   6.443   5.487   1.016  0.1586 -0.2184 -0.0763
 4629W        W 8829   9.282  10.288   9.888  0.1272  0.2429  0.0795
 4630W        W 8830   7.582   0.279   0.187  0.1869  0.0637 -0.1667
 4631W        W 8831   3.960   9.961  13.272 -0.0814  0.1013  0.1418
 4632W        W 8832   3.276   7.070  12.627  0.0912 -0.1521 -0.0096
 4633W        W 8833  10.174   0.535  10.588  0.1960  0.1707 -0.0391
 4634W        W 8834   3.361   9.050  13.110 -0.0241  0.3478 -0.0173
 4635W        W 8835   4.086   2.994   0.134 -0.2047 -0.1880 -0.4155
 4636W        W 8836   7.826   8.570   8.303 -0.1362  0.1617 -0.0238
 4637W        W 8837   2.078   7.834   0.504 -0.1194  0.0748  0.1102
 4638W        W 8838   3.138   9.802  10.140 -0.1450  0.1500 -0.0643
 4639W        W 8839   1.367   7.573  11.761  0.0378 -0.2059  0.0152
 4640W        W 8840   5.055   4.723   0.110  0.1906  0.0347  0.0670
 4641W        W 8841   6.216   7.266  13.331  0.0741  0.1657  0.0085
 4642W        W 8842   6.621   7.218   2.465 -0.0231  0.0035  0.3688
 4643W        W 8843   1.350   8.126   0.756  0.2879 -0.3683 -0.1276
 4644W        W 8844   9.956   3.854   9.178  0.1600  0.2647 -0.1309
 4645W        W 8845   7.846   5.659   0.980 -0.0016  0.1341  0.1805
 4646W        W 8846   3.600   4.333  13.120  0.0018  0.5009  0.0062
 4647W        W 8847   7.658   9.514  10.092  0.0943 -0.3461 -0.0866
 4648W        W 8848   2.238   7.444  13.335  0.2589  0.4144 -0.3748
 4649W        W 8849   6.111   0.786   1.319 -0.1689 -0.0906  0.1696
 4650W        W 8850   3.931   2.055   3.217 -0.1663  0.2065 -0.0474
 4651W        W 8851   8.542   8.971   1.281  0.2204 -0.0048  0.3470
 4652W        W 8852   3.436   5.029  10.446  0.2944 -0.1095  0.0510
 4653W        W 8853   1.644   6.923   0.165  0.0349  0.2087  0.0333
 4654W        W 8854   6.908   1.357   8.377 -0.0310 -0.1233 -0.1748
 4655W        W 8855  10.378  10.465  11.924  0.0772 -0.0694  0.0062
 4656W        W 8856   0.322   5.607  13.178  0.1740 -0.2285 -0.0422
 4657W        W 8857   7.110   0.885   1.267  0.2242 -0.2826 -0.0943
 4658W        W 8858   2.437   1.342   0.397 -0.0346 -0.1553  0.0994
 4659W        W 8859   9.816   5.873   3.322  0.0227  0.2130  0.1695
 4660W        W 8860   6.181   6.421  12.890  0.1254 -0.0917 -0.0069
 4661W        W 8861   9.936   0.361   9.541 -0.0254  0.0315 -0.1304
 4662W        W 8862   3.861   8.891   4.398  0.3474 -0.4014  0.0229
 4663W        W 8863   7.463   6.243   3.087 -0.0052  0.0246  0.2049
 4664W        W 8864   1.643   7.110   2.486  0.2833 -0.1243 -0.0380
 4665W        W 8865   7.276   2.338  10.781 -0.3244  0.1795 -0.1297
 4666W        W 8866   3.617   3.684   9.389  0.2162  0.1670 -0.1156
 4667W        W 8867   2.506   4.101   1.338 -0.1129 -0.1332  0.3351
 4668W        W 8868   9.938   7.360   1.027 -0.0874 -0.2366 -0.0083
 4669W        W 8869   0.823   9.503  11.686  0.0361  0.1674  0.0079
 4670W        W 8870   3.109   2.384   0.860  0.1571 -0.1013  0.1375
 4671W        W 8871   4.868   6.846   1.388  0.0720 -0.1900  0.0953
 4672W        W 8872   7.810   5.803   0.505 -0.0467 -0.1944  0.0191
 4673W        W 8873   4.905   4.590  12.534 -0.2988 -0.0247  0.1712
 4674W        W 8874   5.502   0.019   1.553 -0.0375 -0.0503  0.2203
 4675W        W 8875   0.184   4.016   2.014 -0.0002 -0.0188  0.0397
 4676W        W 8876   1.797   5.162   1.382  0.2132 -0.2239  0.1169
 4677W        W 8877   3.830  10.325   0.576  0.0204  0.3616  0.0676
 4678W        W 8878   8.332   1.013  11.434  0.0742  0.1029  0.3685
 4679W        W 8879   3.083   8.096  11.863  0.2526 -0.2703  0.0973
 4680W        W 8880   8.658   5.364   9.826  0.1110 -0.0195  0.0738
 4681W        W 8881   7.266   0.288   1.877 -0.5410 -0.0291 -0.4360
 4682W        W 8882   9.830   8.853   3.892  0.0869 -0.0862 -0.0588
 4683W        W 8883   4.171   6.319  10.960  0.0856  0.0067  0.0386
 4684W        W 8884   8.374   0.417   3.074 -0.0759  0.1672 -0.3934
 4685W        W 8885   7.796   0.532   0.622  0.0527 -0.2701 -0.3072
 4686W        W 8886   8.869   9.228   2.543  0.2485  0.1070  0.4252
 4687W        W 8887   5.165   1.826   2.181 -0.2139 -0.3983  0.1464
 4688W        W 8888   0.915   1.641   8.605  0.0983  0.3148  0.0374
 4689W        W 8889   6.124   7.519   0.885 -0.1163  0.0101 -0.1668
 4690W        W 8890   4.749  10.474   4.727 -0.0805 -0.0618  0.0523
 4691W        W 8891   5.746   4.731  10.518  0.0111  0.0988  0.0743
 4692W        W 8892   9.058   7.745  11.932  0.1441  0.1168  0.1280
 4693W        W 8893   7.884   8.993   0.533 -0.3728 -0.1404  0.1244
 4694W        W 8894   7.261   1.147  13.440  0.1892 -0.3123  0.0050
 4695W        W 8895   7.891   3.098   8.939 -0.2033 -0.3219 -0.3551
 4696W        W 8896   3.304  10.125   0.140 -0.0031  0.1867  0.1812
 4697W        W 8897   7.053   0.990   0.733  0.1920  0.0261  0.1487
 4698W        W 8898  10.364   8.825   9.816  0.0569  0.1902  0.1170
 4699W        W 8899   7.737   7.147   9.955  0.2637  0.0754 -0.0707
 4700W        W 8900   9.241   8.855  11.855  0.2178 -0.1187  0.0808
 4701W        W 8901   7.920   3.112   0.538 -0.1576  0.2573 -0.3953
 4702W        W 8902   0.846   9.632   2.399  0.5458 -0.1214  0.1935
 4703W        W 8903   7.571   4.646   4.540  0.2779  0.1143 -0.1087
 4704W        W 8904   8.020   8.923  11.795 -0.2221  0.2475  0.2391
 4705W        W 8905   9.108   9.706  13.389  0.1190  0.0847  0.1439
 4706W        W 8906   2.715   5.773   1.784 -0.1050 -0.0808 -0.0693
 4707W        W 8907   4.562   0.893   0.128  0.2387  0.0780 -0.0522
 4708W        W 8908   3.950   7.706  12.100 -0.0983  0.0995  0.0388
 4709W        W 8909   0.558   1.173   9.927  0.0135 -0.0692  0.0479
 4710W        W 8910   7.913   4.995   1.114 -0.1291  0.1326  0.2759
 4711W        W 8911   8.778   4.368   3.471  0.1861  0.1760  0.1368
 4712W        W 8912   1.255   8.073  11.611 -0.1083 -0.2812 -0.2526
 4713W        W 8913   2.433  10.161   9.505 -0.0944  0.4543  0.0407
 4714W        W 8914   5.617   4.482   2.506 -0.3006 -0.0958  0.0345
 4715W        W 8915   9.094  10.098  12.006  0.1255 -0.0176  0.0661
 4716W        W 8916  10.166   4.260   1.073  0.0935 -0.1960 -0.2428
 4717W        W 8917   2.994   6.519   9.595  0.4616  0.0287  0.1769
 4718W        W 8918   2.776   8.486   1.637 -0.1172 -0.0177 -0.1432
 4719W        W 8919   0.362   0.426  13.148  0.0494 -0.2697 -0.0330
 4720W        W 8920   8.262   7.608  10.756  0.0672  0.1985  0.0498
 4721W        W 8921   1.828   1.163   8.465 -0.1328 -0.0346  0.2086
 4722W        W 8922   1.728   8.758   9.381 -0.3477 -0.2892 -0.2702
 4723W        W 8923   0.279   2.624  10.212  0.2194  0.3182 -0.0200
 4724W        W 8924  10.065   9.197  12.910  0.4502  0.0675 -0.1182
 4725W        W 8925   5.322   8.363   0.171  0.1376  0.0162  0.0420
 4726W        W 8926  10.118   4.114   3.576 -0.0789  0.2454  0.0031
 4727W        W 8927   0.824   2.019  12.238 -0.0933 -0.1255  0.2253
 4728W        W 8928   0.887   9.281   2.702 -0.0804  0.0918 -0.1665
 4729W        W 8929   3.894   5.953   1.524 -0.0663 -0.0603  0.1755
 4730W        W 8930   7.400   4.489  12.294 -0.1599  0.0602  0.4024
 4731W        W 8931  10.196   6.329   2.055 -0.2590  0.0489  0.0419
 4732W        W 8932   5.801   1.979   1.420 -0.1290 -0.0622 -0.1472
 4733W        W 8933   4.062   4.917  11.533  0.0365  0.1761 -0.1948
 4734W        W 8934   2.295   3.113   3.242 -0.0053 -0.2651 -0.1765
 4735W        W 8935   7.591   4.317   5.211  0.2615  0.3014 -0.1652
 4736W        W 8936   8.778   9.717   1.328  0.1379 -0.2205 -0.0125
 4737W        W 8937   0.772   4.980  12.762 -0.1923  0.0238  0.0771
 4738W        W 8938   2.953   2.850   1.232  0.0151  0.1224 -0.2062
 4739W        W 8939   7.044   3.598  10.175  0.1794 -0.1175 -0.4512
 4740W        W 8940   1.763   4.256  10.575 -0.0454 -0.2027 -0.2495
 4741W        W 8941  10.171   5.885   4.158 -0.0487 -0.5196  0.0765
 4742W        W 8942   1.116   2.011   2.631  0.0670 -0.4544 -0.0009
 4743W        W 8943   2.912   4.171   0.457 -0.1766 -0.2916  0.2250
 4744W        W 8944   3.352   9.581  10.500 -0.3930  0.1111  0.0391
 4745W        W 8945   6.081   5.624  10.788 -0.0288  0.1321  0.1286
 4746W        W 8946   1.286   8.037   3.844  0.0435 -0.1684  0.0946
 4747W        W 8947   2.105  10.047  11.002  0.2620  0.2526 -0.1186
 4748W        W 8948   4.787   6.511  10.879  0.1581 -0.0009 -0.1968
 4749W        W 8949   4.425   4.209   0.613 -0.1571 -0.2075  0.1754
 4750W        W 8950  10.425   6.135  10.501  0.0118  0.2433 -0.0996
 4751W        W 8951   3.835   2.868  12.512  0.0724 -0.0628  0.1944
 4752W        W 8952   7.319   0.990   9.193  0.0342  0.0799 -0.2828
 4753W        W 8953   0.846   2.439   2.283  0.0790  0.1756  0.0278
 4754W        W 8954   0.493   6.143   0.848  0.2260  0.2082  0.1394
 4755W        W 8955  10.413   2.443  10.854  0.0207 -0.2091  0.0004
 4756W        W 8956   1.127   2.910   2.415  0.1227 -0.2204 -0.1249
 4757W        W 8957   6.182   3.443  13.434  0.0858 -0.1979  0.2824
 4758W        W 8958   6.334   4.627   9.378 -0.1225 -0.1269 -0.1131
 4759W        W 8959   7.150  10.278  10.785  0.2205 -0.0636  0.0342
 4760W        W 8960   7.879   4.825   0.615  0.1473  0.2743  0.0951
 4761W        W 8961   1.210   8.614   2.450 -0.1069  0.0680 -0.1107
 4762W        W 8962   4.008   5.049   0.667 -0.2059 -0.2839  0.0532
 4763W        W 8963   0.985   5.923   0.362 -0.1084 -0.0488  0.1183
 4764W        W 8964   0.521   8.901   2.809  0.0632 -0.3260  0.0671
 4765W        W 8965   1.708   0.589   3.574 -0.3637 -0.3665 -0.0166
 4766W        W 8966   5.572   4.048   0.464  0.0928  0.0084 -0.1280
 4767W        W 8967   3.100   1.735   9.354 -0.1876 -0.1326 -0.1765
 4768W        W 8968   9.819   7.779   3.520 -0.2031 -0.0919  0.1818
 4769W        W 8969   2.165   3.688  10.508 -0.0761  0.4255 -0.1921
 4770W        W 8970  10.359   9.870   9.641  0.1938 -0.2452 -0.2151
 4771W        W 8971   4.785  10.439  13.003  0.1016  0.0064  0.1418
 4772W        W 8972   8.001   8.873   3.291  0.3050  0.2620 -0.2438
 4773W        W 8973   0.264   4.784   9.693  0.0037  0.0332 -0.0492
 4774W        W 8974   3.068   1.377   4.537 -0.0298  0.0645 -0.0886
 4775W        W 8975   7.158   0.897  12.822 -0.1360  0.1771  0.1805
 4776W        W 8976   1.483   8.650   0.769 -0.0194 -0.1138 -0.0101
 4777W        W 8977   6.497   6.657  12.375  0.0376 -0.2279  0.2336
 4778W        W 8978   5.898   2.285  11.729 -0.0116 -0.1008  0.0958
 4779W        W 8979   7.375   7.268   2.939  0.0909 -0.1857  0.1039
 4780W        W 8980   2.902   6.146  12.387  0.3288  0.1195 -0.0868
 4781W        W 8981   5.493   9.650   9.721  0.0929 -0.2963 -0.0231
 4782W        W 8982   7.093   7.083   2.499  0.2500 -0.0553 -0.3408
 4783W        W 8983   8.386   8.172   0.619  0.1811 -0.2320 -0.1382
 4784W        W 8984  10.092   5.369   9.008  0.0597  0.0545 -0.0901
 4785W        W 8985   8.450   5.169  13.325  0.3890  0.0563 -0.0531
 4786W        W 8986   6.830   4.394  13.311 -0.1380 -0.0274  0.3890
 4787W        W 8987   3.210   8.793   2.514 -0.1087  0.1841  0.1486
 4788W        W 8988   7.295   6.445  12.090  0.0771 -0.3925 -0.0578
 4789W        W 8989   3.015   9.477  11.464  0.3900 -0.3218  0.1435
 4790W        W 8990   1.491   5.320   2.284  0.0859 -0.1617  0.0011
 4791W        W 8991   8.347   1.692  11.766 -0.0312 -0.0217 -0.3188
 4792W        W 8992   5.020   7.154  13.163 -0.2385 -0.3621 -0.0456
 4793W        W 8993   0.720   8.876  11.911 -0.0845 -0.0854  0.2327
 4794W        W 8994   6.961   6.139  12.889 -0.3149 -0.2775  0.0226
 4795W        W 8995   6.902   3.738   4.091  0.1488 -0.1431  0.2657
 4796W        W 8996   8.473   9.640  12.462 -0.0843  0.3178  0.3197
 4797W        W 8997   2.011   1.962   2.833  0.0618  0.0477 -0.5383
 4798W        W 8998   6.254   0.711  12.538  0.0785  0.3117 -0.3348
 4799W        W 8999   5.286   1.181  10.447  0.0693  0.1021  0.1297
 4800W        W 9000   2.740   0.505   0.447  0.2088  0.3480  0.1229
 4801W        W 9001  10.087   1.837  12.002  0.4330  0.1953  0.0655
 4802W        W 9002   4.517   6.160  10.686 -0.0228  0.2816 -0.3682
 4803W        W 9003   3.784  10.053   1.505  0.0463 -0.2525  0.1218
 4804W        W 9004  10.341   9.710   2.867  0.2052 -0.1521 -0.1067
 4805W        W 9005   6.810   7.915   1.418 -0.0480  0.0118 -0.3128
 4806W        W 9006   9.211   6.843   9.177 -0.0385 -0.1184  0.0732
 4807W        W 9007   1.120   8.490   1.073 -0.1658  0.1126  0.1150
 4808W        W 9008   3.895   1.633  10.422 -0.1113 -0.0788  0.0498
 4809W        W 9009   3.842  10.385   4.635 -0.0952 -0.1402 -0.0873
 4810W        W 9010  10.018   5.024   9.376  0.0509 -0.0622  0.0462
 4811W        W 9011  10.281   1.213  11.356  0.4690 -0.2336  0.2995
 4812W        W 9012   7.420   7.885   2.124  0.2973  0.3425 -0.3360
 4813W        W 9013   2.131   2.490  10.376 -0.0065  0.3814  0.2149
 4814W        W 9014   8.767   9.612   2.930 -0.3068 -0.0599 -0.1950
 4815W        W 9015   8.390   3.143  10.771  0.0622  0.0810  0.1715
 4816W        W 9016   0.346   8.284   3.456 -0.3824 -0.0348 -0.2502
 4817W        W 9017   7.028   9.445  10.898  0.2524  0.0140  0.3279
 4818W        W 9018   6.606   1.520  11.483 -0.1368  0.0878 -0.2010
 4819W        W 9019   8.003   0.825  10.557 -0.0966 -0.2161  0.3200
 4820W        W 9020   5.167   9.576   0.821 -0.2519  0.0785 -0.3005
 4821W        W 9021   0.887   2.217  11.231  0.0948 -0.0476 -0.0938
 4822W        W 9022   2.489   0.176   3.480  0.1576  0.0235  0.0814
 4823W        W 9023   7.287   5.616   9.918  0.1073 -0.1735 -0.1207
 4824W        W 9024   3.194   0.940   0.432 -0.0087 -0.1677  0.2258
 4825W        W 9025   2.642   8.391  10.373  0.3463  0.0748  0.0043
 4826W        W 9026   1.938   0.587   0.066  0.0035 -0.0419  0.1817
 4827W        W 9027   4.988  10.400  10.894  0.0839 -0.0416 -0.1371
 4828W        W 9028   7.563   3.304   1.810 -0.3009 -0.1463 -0.0800
 4829W        W 9029   6.731   7.528   1.764 -0.2623 -0.0629 -0.0554
 4830W        W 9030   1.928   7.912  13.382  0.1215  0.1582 -0.0150
 4831W        W 9031   7.321   8.696   0.068  0.1581 -0.2030  0.1547
 4832W        W 9032   9.078   2.942   4.439  0.1910 -0.2043 -0.4171
 4833W        W 9033   4.257   0.150   4.874 -0.1096 -0.3116 -0.0131
 4834W        W 9034   1.035   2.148  12.827  0.5557 -0.0404 -0.2577
 4835W        W 9035   8.157   5.658  11.493  0.1843  0.2671 -0.4060
 4836W        W 9036   8.057   1.973  12.085  0.3601  0.1711  0.0538
 4837W        W 9037   5.363   1.863   9.312 -0.0153 -0.0508  0.1818
 4838W        W 9038  10.309   6.919   0.647 -0.0468  0.0810 -0.1724
 4839W        W 9039   9.168   1.571   0.176  0.3321  0.1504 -0.0712
 4840W        W 9040   4.912   4.462  11.819  0.0947 -0.2913  0.0675
 4841W        W 9041   4.975   3.301   2.971 -0.1606 -0.0227  0.3470
 4842W        W 9042   6.272   6.626   1.984  0.1839  0.1449 -0.1840
 4843W        W 9043   6.688   5.446   2.379  0.0094 -0.0774  0.3708
 4844W        W 9044   5.172   0.399   0.459  0.0870 -0.2943 -0.0875
 4845W        W 9045   3.549   3.216   3.114  0.1995 -0.0586  0.3566
 4846W        W 9046   9.093   9.786   0.926 -0.1897 -0.0960  0.3728
 4847W        W 9047   9.017   0.614  10.103 -0.2835 -0.1822  0.1748
 4848W        W 9048  10.290   0.588   9.284 -0.4515 -0.3484 -0.0109
 4849W        W 9049   0.671   5.212   0.546 -0.1388 -0.2121 -0.2571
 4850W        W 9050   7.678  10.338  11.940 -0.0226 -0.2233 -0.0206
 4851W        W 9051   5.864   9.733  10.117  0.3028 -0.0990  0.0483
 4852W        W 9052   9.561   9.387   1.176  0.1479 -0.1286  0.0362
 4853W        W 9053   7.453   1.232   0.880 -0.3337 -0.1189  0.1902
 4854W        W 9054   3.092   4.736   1.920  0.1637 -0.1075  0.1154
 4855W        W 9055   8.755   1.729   1.020 -0.1256 -0.3005 -0.2241
 4856W        W 9056   0.050   4.345   2.339  0.0262 -0.0103 -0.1857
 4857W        W 9057   5.663   0.165   9.239  0.1918  0.0028  0.0668
 4858W        W 9058   3.584   0.829   4.208  0.0432  0.0553  0.1083
 4859W        W 9059   3.325   3.711  11.119 -0.0372 -0.1941  0.2001
 4860W        W 9060   3.032   5.804  12.770  0.0309  0.2494  0.4195
 4861W        W 9061   8.571   7.090   0.760 -0.0340 -0.0692 -0.2541
 4862W        W 9062   5.769   2.876  11.795 -0.3137  0.1315 -0.0333
 4863W        W 9063  10.234   4.489   3.244 -0.0427  0.1253 -0.1192
 4864W        W 9064   1.071   3.388   0.962 -0.1686  0.0230  0.1497
 4865W        W 9065   2.127   9.852  12.376  0.0666  0.1969 -0.0474
 4866W        W 9066   2.637   8.754  11.115 -0.0960  0.1012 -0.0786
 4867W        W 9067   8.429   9.500  13.306 -0.3790  0.0695 -0.1991
 4868W        W 9068   6.727   7.603  12.414 -0.3135 -0.0639 -0.3463
 4869W        W 9069   6.061   4.559   4.508 -0.0803  0.0060 -0.0220
 4870W        W 9070   0.386   6.128  13.168  0.2158  0.1998  0.0331
 4871W        W 9071  10.449   1.052   9.102  0.0877 -0.0095 -0.1560
 4872W        W 9072   1.263   6.891   9.377 -0.0720  0.2899 -0.1126
 4873W        W 9073   4.238   2.713  11.429 -0.1050 -0.2174  0.5194
 4874W        W 9074   5.368   1.884   4.291 -0.0823  0.0875  0.2260
 4875W        W 9075   5.097  10.314   5.117 -0.0198  0.0702 -0.1961
 4876W        W 9076   5.459   2.006  12.923  0.2258  0.3019 -0.0286
 4877W        W 9077   7.477   5.947   4.949  0.2179 -0.0846 -0.1600
 4878W        W 9078   9.595   5.021  10.935 -0.2408  0.0478 -0.0491
 4879W        W 9079   2.325   7.325   2.535  0.2078  0.0541  0.0190
 4880W        W 9080   7.482   7.410  11.900  0.1537  0.0524  0.1259
 4881W        W 9081   6.873   4.956   0.316 -0.1429 -0.0015 -0.0501
 4882W        W 9082  10.398   6.003   9.541 -0.2011 -0.1054 -0.1986
 4883W        W 9083   4.544   0.579   2.042 -0.1588  0.1962 -0.1312
 4884W        W 9084   4.485   5.349   3.842 -0.0750 -0.3142 -0.2765
 4885W        W 9085   4.785   6.542   0.980 -0.2636  0.0843  0.2518
 4886W        W 9086   0.122   9.115  10.707  0.2063 -0.1930 -0.0103
 4887W        W 9087   5.024   3.393  11.778  0.1290 -0.0901  0.0949
 4888W        W 9088   2.484   8.161   3.011  0.0295  0.1512 -0.2062
 4889W        W 9089  10.388   6.128   1.620 -0.0874 -0.2719 -0.1845
 4890W        W 9090   0.510   1.289   3.744 -0.1466  0.1111  0.1072
 4891W        W 9091  10.454   9.085   1.633 -0.1894  0.1397  0.2883
 4892W        W 9092   6.283   2.216   4.638  0.0751 -0.2949  0.1407
 4893W        W 9093   0.952   9.705   3.376 -0.3240  0.0094 -0.1214
 4894W        W 9094   1.584   1.597  12.781  0.0142 -0.3048 -0.0644
 4895W        W 9095   2.303   0.215   2.520 -0.1063 -0.0895  0.1078
 4896W        W 9096   9.719   2.111   1.073  0.4578  0.2245  0.0926
 4897W        W 9097   7.048   5.907   2.967  0.1006 -0.0605  0.0111
 4898W        W 9098   3.563   5.968   2.146 -0.3040  0.2006 -0.0628
 4899W        W 9099  10.126   6.826   9.484  0.2347  0.0232  0.0052
 4900W        W 9100   5.948   3.692  10.859 -0.1771  0.1039 -0.0504
 4901W        W 9101   2.905   3.277  11.347  0.3130  0.1325 -0.0761
 4902W        W 9102   6.548   4.400  11.996  0.0402 -0.0155  0.0140
 4903W        W 9103   8.533   6.971   2.865 -0.0457 -0.3422  0.1584
 4904W        W 9104   3.759   8.577  11.922 -0.1703  0.1842 -0.0421
 4905W        W 9105   2.817   7.341   3.309 -0.2217  0.1050 -0.0560
 4906W        W 9106   3.408   2.918  12.997  0.2676  0.0060  0.2603
 4907W        W 9107   5.919   6.027  11.919 -0.0090  0.1637 -0.0279
 4908W        W 9108   3.292   4.610   9.660 -0.1993  0.0066 -0.1980
 4909W        W 9109   5.254   6.327  12.862 -0.1136  0.0613 -0.0361
 4910W        W 9110   9.723   9.470   2.678  0.3915  0.1598  0.1181
 4911W        W 9111   1.389   6.897  13.200  0.2930  0.0684  0.1099
 4912W        W 9112   3.760   3.524   1.557 -0.1382  0.2596 -0.1742
 4913W        W 9113   1.446   9.837   3.629 -0.0758  0.0071  0.2476
 4914W        W 9114   0.451   9.868   2.150  0.1405  0.2721  0.0587
 4915W        W 9115   0.171   2.788   9.669 -0.2169 -0.0126 -0.0600
 4916W        W 9116   6.750   2.712   2.090 -0.1656  0.0885  0.2415
 4917W        W 9117   3.740   0.541   9.251  0.1811  0.1453 -0.5163
 4918W        W 9118   8.283   5.424  10.344  0.0631 -0.1617 -0.4281
 4919W        W 9119  10.131   5.963   0.141 -0.2367 -0.0293 -0.0097
 4920W        W 9120   7.856   3.915  10.525  0.0421 -0.0572  0.2596
 4921W        W 9121   0.081   4.087   8.495 -0.0046 -0.0079  0.0743
 4922W        W 9122   3.987   7.691   9.986  0.1241  0.0094  0.1606
 4923W        W 9123   2.435   2.668   3.069 -0.0299 -0.3703  0.1804
 4924W        W 9124   2.113   6.359   3.046 -0.1256  0.0466  0.0407
 4925W        W 9125   6.029   5.593   2.894  0.1274 -0.0340  0.0349
 4926W        W 9126   2.007   5.985  11.157 -0.0506 -0.0357 -0.0090
 4927W        W 9127   3.993   2.889   2.259  0.0885 -0.3180  0.0427
 4928W        W 9128   6.502   1.240  12.887 -0.1376 -0.0655 -0.1638
 4929W        W 9129   7.467   5.450   8.704 -0.2705  0.2955  0.0845
 4930W        W 9130   8.329   2.581   0.904 -0.0492 -0.0301 -0.3296
 4931W        W 9131   4.366   6.135  13.260 -0.0483  0.0999 -0.1571
 4932W        W 9132   2.696   3.928   3.663 -0.1147 -0.0784  0.0915
 4933W        W 9133   2.283   6.270  10.138 -0.0344  0.0666 -0.4087
 4934W        W 9134   0.589   1.912  12.788 -0.2220  0.2899 -0.2801
 4935W        W 9135   4.774   6.159   3.290 -0.1423 -0.2462  0.1780
 4936W        W 9136   8.544   1.474   9.048 -0.2096 -0.0774  0.1966
 4937W        W 9137   1.468   2.733   0.032  0.2829 -0.4594  0.3037
 4938W        W 9138   8.109   7.222  12.561  0.1084 -0.1968 -0.1149
 4939W        W 9139   1.755   0.820   9.449  0.0683  0.1574  0.0341
 4940W        W 9140   9.412   4.220   4.391 -0.2394  0.1372 -0.2286
 4941W        W 9141   9.223   9.603   1.743  0.0486  0.2757  0.1296
 4942W        W 9142   1.080   0.776  13.294  0.0676  0.0922  0.0781
 4943W        W 9143   7.510   6.575  10.809  0.0464 -0.0565  0.3077
 4944W        W 9144   6.868   2.850   0.670 -0.4132  0.2022 -0.2072
 4945W        W 9145   5.607   4.924   3.412  0.4119  0.2232  0.1302
 4946W        W 9146   9.645   6.235  10.181  0.1486 -0.1621  0.1845
 4947W        W 9147   5.951   4.146  10.621  0.1862 -0.1179  0.3255
 4948W        W 9148   2.051   0.450   1.761  0.1577 -0.2860 -0.1034
 4949W        W 9149   3.615   2.043   3.721 -0.4440 -0.2261 -0.0086
 4950W        W 9150   3.983   9.871   2.760 -0.1965 -0.0550  0.1841
 4951W        W 9151   9.637   2.367   2.860 -0.2169 -0.1591  0.0694
 4952W        W 9152   8.103   5.022   2.616 -0.0891  0.0734 -0.0068
 4953W        W 9153   8.093  10.064   4.816 -0.0291 -0.2858 -0.0225
 4954W        W 9154   2.828   1.124  10.089  0.6433 -0.1043 -0.1786
 4955W        W 9155   1.763   5.980  10.593 -0.0686 -0.1401 -0.1796
 4956W        W 9156   3.445   3.841   0.856 -0.1439  0.4536  0.1261
 4957W        W 9157   4.617   1.065   2.491  0.3564  0.1816 -0.2388
 4958W        W 9158   0.641   7.320  10.359  0.0383 -0.1942  0.3659
 4959W        W 9159   0.515   4.611   0.618 -0.3560 -0.4105  0.0761
 4960W        W 9160   2.851   9.958   9.818 -0.1660 -0.0765  0.0393
 4961W        W 9161   0.487   2.906   8.760 -0.2890  0.1749 -0.0136
 4962W        W 9162   5.340   6.971   4.212 -0.0801 -0.0624  0.0631
 4963W        W 9163   0.153   3.635  13.201 -0.0409  0.2373  0.1340
 4964W        W 9164   0.400   8.838   1.750  0.1076  0.1352  0.0125
 4965W        W 9165   0.159   8.533   9.278  0.2057  0.2468  0.1121
 4966W        W 9166   2.139   2.568  11.356  0.1505  0.1128 -0.1293
 4967W        W 9167   6.322   3.948   8.851 -0.0188  0.1938 -0.3547
 4968W        W 9168   7.541   7.375   2.030 -0.1362 -0.1072 -0.0663
 4969W        W 9169   1.972   0.392  12.691 -0.2054  0.0576  0.0030
 4970W        W 9170   2.208   1.747   9.726  0.2843 -0.3370 -0.0163
 4971W        W 9171   5.288   6.098   1.732 -0.1978 -0.0188 -0.1167
 4972W        W 9172   4.622   5.366   2.661 -0.0243  0.1500 -0.1755
 4973W        W 9173   8.060   3.402  11.742  0.1617  0.0698  0.1611
 4974W        W 9174   8.629   6.234   1.506  0.1805 -0.0219  0.1490
 4975W        W 9175   0.458   1.100  12.415 -0.2884  0.2689 -0.0585
 4976W        W 9176   3.420   1.973   5.415 -0.3887 -0.1179 -0.1299
 4977W        W 9177   0.051   3.590  11.525  0.1189 -0.1632 -0.0284
 4978W        W 9178   9.428   0.190   1.637 -0.2304  0.0343  0.2340
 4979W        W 9179   6.186   3.458  12.108  0.0173 -0.2495 -0.0879
 4980W        W 9180   3.058   7.090   1.900 -0.3841 -0.0821 -0.1724
 4981W        W 9181   0.815   6.040   4.207  0.2066 -0.0812  0.0002
 4982W        W 9182   9.047   5.252   4.403  0.0753  0.1123  0.0186
 4983W        W 9183   7.899   6.122   2.260 -0.1655 -0.0632  0.0551
 4984W        W 9184   0.377   5.729  11.566  0.3253  0.1175 -0.1023
 4985W        W 9185   8.129   0.690   4.890 -0.1294 -0.3025  0.0614
 4986W        W 9186   6.573   0.901   4.112 -0.1769  0.0154  0.0718
 4987W        W 9187   3.821   0.316  11.130  0.1809 -0.0128 -0.1690
 4988W        W 9188   7.376   1.477   9.517 -0.0044 -0.1723  0.1196
 4989W        W 9189   6.201   8.227  10.049 -0.0945 -0.2050  0.3680
 4990W        W 9190   4.666   1.284  12.334  0.1582 -0.1829  0.1487
 4991W        W 9191   5.968   4.969   2.624  0.4611  0.0578 -0.0059
 4992W        W 9192   1.425   3.385   4.230  0.0565 -0.1481  0.2264
 4993W        W 9193   7.896  10.430  12.445  0.1138 -0.2602  0.0111
 4994W        W 9194   5.169   3.037  10.690  0.4844  0.0919 -0.0437
 4995W        W 9195   9.313   8.690   3.013  0.0161  0.2460  0.4328
 4996W        W 9196   3.975   2.462   9.436 -0.0351  0.3188 -0.0763
 4997W        W 9197   9.403   2.511   1.873 -0.0874  0.3322  0.0748
 4998W        W 9198   4.307   5.105  12.017  0.1392  0.3574  0.0864
 4999W        W 9199   0.795   3.840  11.716  0.1714  0.0175 -0.0328
 5000W        W 9200   6.739   8.990  10.142  0.1486  0.1325  0.1951
 5001W        W 9201   8.553   2.694   2.267  0.1992  0.1179  0.0297
 5002W        W 9202  10.306   7.538  10.297  0.0272 -0.2847 -0.0841
 5003W        W 9203   7.805  10.366  13.288  0.0734 -0.0477  0.1551
 5004W        W 9204   9.594   2.800  12.504 -0.3924 -0.2793 -0.2393
 5005W        W 9205   8.264   4.279   3.558  0.0763 -0.1725 -0.0789
 5006W        W 9206   0.693   9.589  10.798 -0.0749  0.0925 -0.0743
 5007W        W 9207   7.799   9.192   4.659  0.2229  0.2274 -0.0395
 5008W        W 9208   3.076   5.111   2.211  0.0016 -0.0309  0.0071
 5009W        W 9209   0.778   2.540  12.240 -0.1588 -0.1002 -0.0605
 5010W        W 9210   9.051   0.025  11.710 -0.1291  0.0253  0.1503
 5011W        W 9211   2.155   9.770   9.355 -0.1484 -0.2356 -0.1232
 5012W        W 9212   0.717   7.694   3.551  0.0452 -0.0689  0.3103
 5013W        W 9213   4.730   2.354  10.214 -0.4249 -0.0812 -0.0683
 5014W        W 9214   6.763   1.613  12.526 -0.1533 -0.2891  0.1366
 5015W        W 9215   5.655   0.784  11.304 -0.0590 -0.2041 -0.0393
 5016W        W 9216   7.457   3.200  10.307 -0.1573 -0.1507 -0.2478
 5017W        W 9217   3.941   3.181  13.172  0.1160 -0.2353  0.2625
 5018W        W 9218   3.985   1.365   3.986  0.1967  0.0310  0.1801
 5019W        W 9219   1.198   6.689   2.887 -0.0646  0.4919  0.1047
 5020W        W 9220   2.330   8.558   8.561 -0.0373 -0.1816 -0.0833
 5021W        W 9221   7.962   6.120  11.653  0.1775  0.1237 -0.1550
 5022W        W 9222   4.978   1.096   1.033 -0.1909 -0.3296  0.0009
 5023W        W 9223   8.992   6.564   0.796  0.0150  0.0118  0.1354
 5024W        W 9224   4.565   3.754  10.792 -0.1342 -0.0157 -0.3083
 5025W        W 9225   3.220   4.358   0.862 -0.5558 -0.1246 -0.1212
 5026W        W 9226   9.650   3.770   0.025 -0.0655  0.1863  0.1691
 5027W        W 9227   5.715   5.736   1.563 -0.2489  0.1428  0.0953
 5028W        W 9228   2.166   8.744   0.797  0.2310  0.2893  0.0386
 5029W        W 9229   9.315  10.107   8.590 -0.0422  0.1071  0.0288
 5030W        W 9230   0.893  10.262   9.497  0.2342  0.2209  0.0064
 5031W        W 9231   8.345   4.680  11.969  0.0256  0.0035 -0.0886
 5032W        W 9232   8.284   1.217   0.262 -0.2302 -0.0192  0.0314
 5033W        W 9233   0.948   5.077   0.953 -0.0773 -0.2626 -0.1056
 5034W        W 9234   1.507   4.682  10.583 -0.1533 -0.1520  0.4790
 5035W        W 9235   5.313   4.783  13.102 -0.1699  0.0681  0.1990
 5036W        W 9236   6.089  10.159   1.604  0.3073 -0.3889  0.1447
 5037W        W 9237   4.252   6.151   3.003  0.2334  0.0733  0.0405
 5038W        W 9238   3.854  10.287   3.073 -0.0115 -0.1718  0.2666
 5039W        W 9239  10.037   5.291  12.702  0.0258  0.5143  0.3333
 5040W        W 9240   3.690   7.235  12.921 -0.0482  0.1264 -0.1182
 5041W        W 9241   3.535   0.435   9.815 -0.2387  0.0790 -0.2167
 5042W        W 9242   8.934   2.067   8.377 -0.0892  0.0399 -0.0501
 5043W        W 9243   7.954   4.532  11.730  0.1725  0.3130  0.1681
 5044W        W 9244   5.981   9.824   0.303 -0.1635  0.0934 -0.1631
 5045W        W 9245   2.405   2.118   3.547 -0.1727  0.1231 -0.0211
 5046W        W 9246   7.866   5.724  12.698 -0.0513  0.0056  0.0702
 5047W        W 9247   0.415   9.804   3.075  0.0418  0.0409  0.3221
 5048W        W 9248   9.669   4.493  12.061  0.1264  0.2340 -0.2417
 5049W        W 9249   4.978   1.221  12.786 -0.0238  0.1239  0.3330
 5050W        W 9250  10.162   3.404   0.570 -0.3417 -0.1913 -0.2764
 5051W        W 9251   8.695   0.514   1.906 -0.1166  0.1880 -0.1581
 5052W        W 9252   8.450  10.304  10.843  0.2706 -0.2062  0.3219
 5053W        W 9253   6.631   9.052   3.687  0.0934  0.0760  0.0049
 5054W        W 9254   4.817   3.874  11.207  0.1284 -0.0313  0.4018
 5055W        W 9255   5.705   7.697   3.524 -0.3686 -0.1417  0.0446
 5056W        W 9256  10.144   3.993   0.213  0.1366  0.4235  0.2182
 5057W        W 9257   7.521   8.248   0.061  0.1313  0.2144 -0.2006
 5058W        W 9258   1.844   1.083   2.095  0.0363 -0.1690 -0.0327
 5059W        W 9259   9.180   7.557   3.907  0.0765 -0.0569 -0.1519
 5060W        W 9260   6.439   2.977  10.303 -0.0399  0.1118 -0.1467
 5061W        W 9261   3.776   8.735  11.477  0.4611 -0.1424 -0.2037
 5062W        W 9262   3.078   1.798   3.318 -0.2094 -0.3788  0.4316
 5063W        W 9263  10.400   5.615  12.894  0.1476  0.0839 -0.0283
 5064W        W 9264   9.132   2.233   2.890 -0.0536  0.1356  0.1144
 5065W        W 9265   5.324   5.005  10.346 -0.0475 -0.1108  0.0170
 5066W        W 9266   2.034   2.818  12.330  0.0818  0.0423  0.2566
 5067W        W 9267   9.276   1.970  10.829 -0.0340 -0.0219 -0.1987
 5068W        W 9268   3.806   0.888  10.428  0.1462 -0.0905 -0.0524
 5069W        W 9269   4.770   7.651   2.980  0.4021  0.0439  0.0883
 5070W        W 9270   7.940   3.803  13.332 -0.2807  0.2440 -0.1008
 5071W        W 9271   1.969   1.816  12.379  0.1435 -0.0548 -0.2361
 5072W        W 9272  10.161   2.912  10.955  0.3389  0.1440  0.1861
 5073W        W 9273   5.763   7.527   9.983 -0.0231 -0.2043 -0.1146
 5074W        W 9274   1.173   3.329   3.812  0.1212  0.1906 -0.1766
 5075W        W 9275   4.176   4.604   0.452 -0.3847 -0.2803 -0.3684
 5076W        W 9276   5.560   3.375  10.213 -0.1158 -0.1596 -0.0897
 5077W        W 9277   7.862   5.525   4.081  0.0027 -0.1599 -0.0252
 5078W        W 9278   7.168   8.565   9.251  0.4166  0.1521  0.2301
 5079W        W 9279   0.402   7.269  11.784 -0.2134  0.4782 -0.2797
 5080W        W 9280   0.414   5.800  12.765 -0.0820 -0.1257 -0.0016
 5081W        W 9281   7.543   8.588   3.258 -0.0862 -0.1692  0.1503
 5082W        W 9282   7.437   9.184   0.305 -0.0353 -0.1366  0.0361
 5083W        W 9283   4.376   2.927   9.464 -0.1190 -0.3604 -0.3210
 5084W        W 9284   4.534   0.933   3.849  0.1441 -0.2365  0.1910
 5085W        W 9285  10.260   5.545   0.367 -0.0840 -0.0136 -0.2194
 5086W        W 9286  10.361   4.229   4.852 -0.1288 -0.0884 -0.1687
 5087W        W 9287   2.060   4.839  13.089  0.2806 -0.1667  0.3167
 5088W        W 9288   4.970   0.178  11.921  0.0423 -0.1069  0.2341
 5089W        W 9289   1.042   3.929   2.519  0.1062 -0.0857 -0.1320
 5090W        W 9290   1.062   2.525   1.087  0.1426  0.0229 -0.1931
 5091W        W 9291   5.230   7.161   0.556 -0.0054 -0.0169  0.1352
 5092W        W 9292   0.312   3.482  10.061 -0.0189  0.3039  0.0857
 5093W        W 9293   2.394   4.897  11.251 -0.1804 -0.0871  0.1387
 5094W        W 9294   7.587   1.805   0.248 -0.0797 -0.2657  0.1519
 5095W        W 9295   5.384   3.223  12.626 -0.1833 -0.0470  0.0975
 5096W        W 9296   6.003   0.987  12.205 -0.1001 -0.0298 -0.1417
 5097W        W 9297   0.170   7.711   4.083 -0.0142 -0.0069 -0.1582
 5098W        W 9298   5.168   1.227  11.394 -0.0652 -0.0393  0.1074
 5099W        W 9299   7.139   2.553   0.263  0.1081  0.2622 -0.1457
 5100W        W 9300   9.519   8.111   0.669 -0.0617 -0.0897  0.0469
 5101W        W 9301  10.462   9.782   0.530 -0.1222 -0.1085 -0.1644
 5102W        W 9302   9.945   5.130   1.527 -0.1830  0.1302 -0.0199
 5103W        W 9303   2.576   0.020   1.300  0.2824 -0.0069  0.0838
 5104W        W 9304  10.472   6.759   4.240 -0.1421  0.0096  0.0962
 5105W        W 9305   6.989   3.846  11.941 -0.0432  0.2517  0.2351
 5106W        W 9306  10.317   3.098   9.017 -0.1523 -0.1506 -0.2195
 5107W        W 9307   4.986   2.245  10.609  0.0344  0.2019  0.2334
 5108W        W 9308   4.038   7.151  10.445 -0.0889 -0.2327 -0.0575
 5109W        W 9309   3.890   1.623   3.602 -0.0756 -0.3169  0.0526
 5110W        W 9310   7.534   9.255   2.684 -0.1760 -0.0154  0.1852
 5111W        W 9311   5.503   2.654   3.685 -0.0312 -0.0765 -0.1808
 5112W        W 9312   0.602   9.339  12.138 -0.0357  0.0169 -0.0140
 5113W        W 9313   5.902   3.191   0.758 -0.1654 -0.3071  0.0313
 5114W        W 9314   0.819   9.392  12.557  0.1442 -0.1799 -0.4334
 5115W        W 9315   9.055   6.623   5.462  0.0970  0.0793 -0.0132
 5116W        W 9316   1.370   0.568  12.227 -0.1457 -0.0733  0.0960
 5117W        W 9317   4.326   4.689   1.045  0.0695 -0.2001 -0.1590
 5118W        W 9318   6.029   4.786   3.920  0.1887  0.0164  0.0948
 5119W        W 9319   0.656  10.025  11.841  0.0385 -0.0478 -0.2100
 5120W        W 9320   5.358   7.317  11.938  0.0619 -0.0134  0.1163
 5121W        W 9321   3.530   0.563  10.793  0.1309 -0.1143 -0.3386
 5122W        W 9322   4.499   4.907  10.191 -0.0740  0.1720  0.2268
 5123W        W 9323   4.707   3.572   3.394  0.0398  0.2634  0.1219
 5124W        W 9324   9.806   2.966  12.955  0.1423 -0.1416 -0.1267
 5125W        W 9325   4.967   5.932  10.646  0.2197  0.1328  0.0473
 5126W        W 9326   5.755   8.123  12.216 -0.0205 -0.1036  0.0247
 5127W        W 9327   8.608   2.858   4.435 -0.1384 -0.1383 -0.3931
 5128W        W 9328   4.728   4.846  12.141  0.1697 -0.0850 -0.0368
 5129W        W 9329   3.464   8.826  10.878  0.2924 -0.4143  0.0482
 5130W        W 9330   2.149   3.753   1.375  0.2557 -0.0673  0.1075
 5131W        W 9331   9.634   8.404  10.877 -0.1551 -0.1640  0.1745
 5132W        W 9332   6.406   1.066  11.649 -0.4314 -0.1246 -0.2377
 5133W        W 9333   6.924   1.952  13.121  0.1105  0.0246 -0.2596
 5134W        W 9334   1.804   4.665   1.505  0.0821 -0.0923  0.0103
 5135W        W 9335   8.501   3.761   2.502  0.0211  0.1175  0.0227
 5136W        W 9336   7.160   8.673  10.252  0.2004  0.2744 -0.0408
 5137W        W 9337   7.842   6.858   3.719  0.4887  0.2684 -0.2752
 5138W        W 9338   6.298   2.541   3.736 -0.0085 -0.3154  0.2552
 5139W        W 9339   5.541   0.861   4.139  0.0970 -0.0377  0.0412
 5140W        W 9340   8.852   0.295  13.405 -0.3328 -0.1450  0.1690
 5141W        W 9341   9.091   8.277   0.945 -0.0959  0.1221  0.1311
 5142W        W 9342   5.885   1.865   0.162  0.0061 -0.0439 -0.0750
 5143W        W 9343   1.116   5.176  13.198 -0.0471  0.0784 -0.0192
 5144W        W 9344   1.598   0.374  11.277  0.1340  0.0293  0.3587
 5145W        W 9345   5.407   0.120   0.791  0.4362 -0.0362 -0.1492
 5146W        W 9346   0.803   7.926  11.451  0.0748  0.3421 -0.0274
 5147W        W 9347   5.516   9.820   3.263 -0.0322  0.0786 -0.0346
 5148W        W 9348   2.675   2.000   2.466  0.0028  0.1155 -0.2077
 5149W        W 9349   1.869   0.255   3.924  0.0661  0.0135 -0.0173
 5150W        W 9350   0.829   8.191   3.601 -0.0883 -0.2222  0.0701
 5151W        W 9351   8.272   2.340   4.119  0.0173 -0.1526 -0.1634
 5152W        W 9352   3.941   9.996   5.461  0.0936 -0.1236  0.2060
 5153W        W 9353   0.701   3.967   1.687  0.1206 -0.0453  0.2088
 5154W        W 9354   3.592   4.625  10.617 -0.0436 -0.0238 -0.2117
 5155W        W 9355   3.532   1.712   2.044  0.1425  0.0045 -0.2843
 5156W        W 9356   1.371   5.833  12.314  0.1107  0.1310 -0.1635
 5157W        W 9357   6.523   9.259  11.196  0.1646  0.0660 -0.1170
 5158W        W 9358   0.868   1.563   2.699  0.3079  0.3652 -0.2557
 5159W        W 9359   0.741   1.116  11.768  0.1445 -0.0006 -0.0960
 5160W        W 9360   5.765   8.402   1.077 -0.2362 -0.2196 -0.2460
 5161W        W 9361   3.144   4.494  11.611  0.2765 -0.1511 -0.1229
 5162W        W 9362   7.070   1.573  11.724 -0.0028 -0.2232  0.2555
 5163W        W 9363   6.958   5.486   1.926 -0.1828 -0.1741 -0.0375
 5164W        W 9364   4.751   8.625  11.794 -0.3519  0.0849 -0.0655
 5165W        W 9365   9.662   7.054   1.746 -0.1599  0.2258 -0.2098
 5166W        W 9366   2.115   0.112   9.593  0.0994  0.1814 -0.0416
 5167W        W 9367   8.156   9.462   4.296 -0.1725 -0.2161 -0.0029
 5168W        W 9368   5.435   8.763   4.111 -0.1555 -0.1083 -0.0096
 5169W        W 9369   6.326  10.112  11.209 -0.0775  0.0811  0.1852
 5170W        W 9370   1.280   1.745   5.256  0.1149 -0.0260  0.2580
 5171W        W 9371   4.598   3.745   4.494  0.4762 -0.1881 -0.0382
 5172W        W 9372   1.340   8.940   0.288  0.1339 -0.0704 -0.0723
 5173W        W 9373   8.101   6.406   1.183  0.0318 -0.2848 -0.0563
 5174W        W 9374   7.830   9.666  10.966 -0.2167  0.0455  0.0635
 5175W        W 9375   0.199   5.782  10.778 -0.0601  0.1076 -0.1546
 5176W        W 9376   1.788   6.314   0.914 -0.3976 -0.3239 -0.0322
 5177W        W 9377   0.895   7.053   1.306 -0.0200  0.3973  0.0683
 5178W        W 9378   1.155   2.317   8.592 -0.1019 -0.0467 -0.2861
 5179W        W 9379   1.671   3.722   2.067 -0.4755 -0.1874  0.2076
 5180W        W 9380   6.302   1.015   4.581 -0.0049 -0.3212 -0.1520
 5181W        W 9381   6.552   7.752   9.289  0.0596 -0.1670  0.3736
 5182W        W 9382   1.912   2.217  11.686  0.0321 -0.0479 -0.3833
 5183W        W 9383   2.306   7.684  11.784  0.0946 -0.1361 -0.1716
 5184W        W 9384   0.777   1.143  11.205 -0.0694  0.3258 -0.0434
 5185W        W 9385   4.514   5.755   2.216  0.0751  0.0130  0.0287
 5186W        W 9386   1.204   7.708  12.628 -0.2116 -0.0976  0.2862
 5187W        W 9387   1.734   6.177  11.978 -0.0485 -0.0042 -0.0725
 5188W        W 9388   9.054   6.157  10.306 -0.0600 -0.2250  0.1697
 5189W        W 9389   2.418  10.360  10.005  0.2675  0.2512 -0.2922
 5190W        W 9390   4.893   8.373   1.507  0.0388  0.2280  0.2324
 5191W        W 9391   6.579   7.557  11.741  0.0561 -0.2990  0.0049
 5192W        W 9392   2.044  10.081  11.558  0.0396  0.0630 -0.2503
 5193W        W 9393   8.695   3.608  10.019  0.1512  0.0662 -0.2094
 5194W        W 9394  10.322   2.252  10.367  0.1729 -0.1599 -0.0881
 5195W        W 9395   2.277   1.482   3.633 -0.0159  0.3136 -0.2460
 5196W        W 9396   4.086   9.440   3.084  0.2137 -0.0010 -0.2365
 5197W        W 9397   0.051   1.155   2.354  0.0032  0.3026 -0.0892
 5198W        W 9398   4.175   3.408   3.607  0.1312 -0.2865  0.3535
 5199W        W 9399   6.835   9.904   4.255  0.2293 -0.0586 -0.0221
 5200W        W 9400   8.247   9.500   8.967  0.1836 -0.0158  0.3144
 5201W        W 9401   0.118   9.554   1.535 -0.2225  0.0241 -0.0053
 5202W        W 9402   5.179   4.163  11.479  0.4106  0.0361  0.0039
 5203W        W 9403   1.452   8.123  12.935  0.0499 -0.0355  0.0405
 5204W        W 9404   2.175   0.078  10.643 -0.2191 -0.0464  0.3927
 5205W        W 9405   8.409   9.950   2.957  0.0957 -0.0250  0.0158
 5206W        W 9406   5.045   1.259   0.251 -0.0524  0.2640 -0.4794
 5207W        W 9407   5.919   9.033  11.839 -0.0192  0.0031 -0.2303
 5208W        W 9408   7.862   1.326   1.164 -0.0989 -0.1734 -0.0139
 5209W        W 9409   0.194   1.969   9.409  0.1079 -0.0893 -0.1602
 5210W        W 9410   2.665   5.136   3.499  0.0821  0.2313 -0.1711
 5211W        W 9411   1.829   9.186   0.329  0.0514  0.0946 -0.4693
 5212W        W 9412   6.683   6.784   0.301 -0.0277 -0.3667 -0.2649
 5213W        W 9413   7.334   4.873   0.139 -0.2544  0.3475 -0.1472
 5214W        W 9414   3.721   1.175  10.030 -0.0554  0.1844 -0.0176
 5215W        W 9415   6.004  10.132   9.831  0.1054 -0.1513  0.0068
 5216W        W 9416   2.770  10.423   0.414 -0.0706  0.3438 -0.0192
 5217W        W 9417   4.348   5.692  12.981  0.2606 -0.0840 -0.1341
 5218W        W 9418   7.208   2.604  10.320  0.2747  0.0137  0.2151
 5219W        W 9419  10.086   5.646   0.866  0.0973 -0.0382  0.0031
 5220W        W 9420   0.014   4.912  10.544  0.1313  0.1500 -0.0679
 5221W        W 9421   0.698   2.915   0.182 -0.0143  0.2974 -0.1057
 5222W        W 9422   2.741  10.234   8.880  0.1602 -0.1271  0.0875
 5223W        W 9423   8.621   3.492   4.284 -0.0840 -0.1860  0.1487
 5224W        W 9424   2.049   2.939  10.822 -0.1320 -0.2000  0.4384
 5225W        W 9425   1.570   4.291  11.084 -0.1514  0.2353  0.0849
 5226W        W 9426   6.096   8.441   0.612  0.2770 -0.0839 -0.1864
 5227W        W 9427   3.343   1.729   1.552 -0.0334  0.1795 -0.0602
 5228W        W 9428   7.155   7.984  10.045 -0.2124 -0.3021  0.2282
 5229W        W 9429   3.751   2.740   8.392  0.0618  0.0329  0.0013
 5230W        W 9430   6.920   6.599   0.757  0.1398 -0.1304 -0.1069
 5231W        W 9431   3.177   7.031  10.046 -0.0688  0.1033  0.0418
 5232W        W 9432   0.879   4.283  11.333  0.1303 -0.1935 -0.0168
 5233W        W 9433   7.743   7.041   4.841 -0.2795  0.0159 -0.2850
 5234W        W 9434   5.365   3.096  11.579  0.0037  0.2603 -0.3620
 5235W        W 9435   7.309   7.770   4.353  0.1701 -0.0763  0.0575
 5236W        W 9436   8.556   6.884   9.447  0.0282  0.0953 -0.1567
 5237W        W 9437   5.707   3.775   0.874  0.0008 -0.1100 -0.3349
 5238W        W 9438   4.635   4.663   3.144 -0.2863  0.1705  0.1313
 5239W        W 9439   2.669   4.215   1.820 -0.0081 -0.1424  0.0807
 5240W        W 9440   3.032   2.813   9.583  0.3184  0.0312 -0.1177
 5241W        W 9441   4.085   7.770  10.584 -0.0538 -0.0616  0.1639
 5242W        W 9442   1.372   7.158   0.498 -0.1381 -0.2368 -0.0486
 5243W        W 9443   2.408   3.811   0.951 -0.2920 -0.0295 -0.3644
 5244W        W 9444   8.746   1.265  11.571  0.2118  0.0388 -0.0388
 5245W        W 9445   6.902   0.919  13.256  0.2918  0.0616  0.0696
 5246W        W 9446   8.628   4.302   0.748  0.0893  0.0300  0.3519
 5247W        W 9447   8.941   9.208   3.784  0.2291 -0.1701 -0.0779
 5248W        W 9448   7.659   4.261  11.475 -0.0677  0.1057 -0.3162
 5249W        W 9449   8.367   3.305   1.572 -0.0896  0.0040 -0.2444
 5250W        W 9450   7.620  10.444   5.235  0.0575  0.1614  0.1960
 5251W        W 9451   6.785   1.289   1.020  0.0384  0.0884 -0.4002
 5252W        W 9452   4.027  10.308  11.492  0.0719 -0.1944 -0.2651
 5253W        W 9453   9.069   1.544  10.744 -0.0241 -0.2372 -0.0693
 5254W        W 9454  10.173   5.551   9.512  0.1176  0.0772 -0.0819
 5255W        W 9455   6.025   2.599  10.443 -0.0489 -0.2145  0.0535
 5256W        W 9456   7.549   6.383  11.715  0.0276 -0.1654  0.2739
 5257W        W 9457   9.464   7.282   1.323 -0.2118  0.2437  0.1497
 5258W        W 9458   2.616   1.053  13.090 -0.3199 -0.0556  0.1506
 5259W        W 9459   1.022   0.704  10.370 -0.2370  0.2088  0.0760
 5260W        W 9460   7.105   2.967  11.330  0.0048 -0.2602 -0.6040
 5261W        W 9461   4.015   1.429   0.941  0.0395 -0.3920  0.1886
 5262W        W 9462   4.491   5.102   0.722 -0.0661 -0.0887  0.0258
 5263W        W 9463   2.342   0.066   4.474  0.1695  0.0971 -0.2674
 5264W        W 9464   0.370   9.487   2.559 -0.1857  0.2033  0.1032
 5265W        W 9465   3.237   3.870   2.308  0.1315 -0.1018 -0.0445
 5266W        W 9466   9.918   5.853  10.326 -0.2895  0.0802  0.3697
 5267W        W 9467   7.330   2.752  11.750 -0.1250 -0.2264 -0.0064
 5268W        W 9468   8.377   6.804   0.112 -0.1182  0.0344  0.1320
 5269W        W 9469   0.111   6.299  11.574  0.4478 -0.0575  0.0805
 5270W        W 9470   9.345   0.825  13.132  0.0308  0.3175  0.0313
 5271W        W 9471   4.164   5.024   2.416  0.3395  0.2255 -0.0704
 5272W        W 9472   7.177   3.689   1.839  0.3014  0.1041 -0.1419
 5273W        W 9473   9.906   5.930   9.297 -0.2207 -0.2379  0.2668
 5274W        W 9474   4.076   8.111   3.787  0.0387  0.0045 -0.3090
 5275W        W 9475   9.578   1.659  13.319  0.1495  0.2231 -0.0045
 5276W        W 9476   9.637   5.957   1.025  0.0026 -0.4336  0.0624
 5277W        W 9477   2.961   0.360  12.993  0.0637 -0.0638  0.2726
 5278W        W 9478   4.546   8.450   2.797  0.2265 -0.1725  0.0665
 5279W        W 9479   9.289   1.578   4.164 -0.1462 -0.1212  0.0386
 5280W        W 9480   3.415   8.950  12.004  0.5128 -0.1975 -0.1763
 5281W        W 9481   9.349   1.005   3.420  0.0308  0.0084 -0.2215
 5282W        W 9482   4.978  10.208  11.493  0.3069 -0.5488 -0.2801
 5283W        W 9483   1.218   0.329  13.052  0.2791 -0.1475 -0.0943
 5284W        W 9484   4.632   1.270  11.420 -0.2425  0.1013  0.1928
 5285W        W 9485   9.538   0.236  11.865 -0.0865  0.0335  0.0762
 5286W        W 9486   0.559  10.386   1.916 -0.2223  0.0357 -0.3234
 5287W        W 9487   3.365   3.384  13.203 -0.0335  0.0450  0.1273
 5288W        W 9488   2.851   2.869   2.143  0.0280 -0.1688  0.0499
 5289W        W 9489   6.815   0.413   2.072  0.0381 -0.3079 -0.1387
 5290W        W 9490   1.582   7.252   4.298 -0.4190 -0.1043  0.1272
 5291W        W 9491  10.460   7.682   8.714 -0.3354 -0.2024 -0.0841
 5292W        W 9492   3.754   8.072  10.240 -0.3434  0.0969  0.0288
 5293W        W 9493   6.969   5.991  12.241  0.1949 -0.1333  0.3497
 5294W        W 9494   8.121   5.180   0.320 -0.1200  0.2560  0.3214
 5295W        W 9495   2.602   6.017   9.486 -0.0299 -0.2863 -0.1130
 5296W        W 9496   2.876   7.027  13.440  0.4403 -0.0939  0.0017
 5297W        W 9497   5.978   1.302  12.774  0.0491 -0.3316  0.1733
 5298W        W 9498   2.751   4.549  11.216  0.3065  0.1325  0.0049
 5299W        W 9499   9.957   6.258   3.716 -0.3096 -0.0865  0.0043
 5300W        W 9500   0.108   5.221   8.899  0.3106 -0.2018  0.0080
 5301W        W 9501   1.769   0.975   2.596  0.0700  0.2618 -0.0996
 5302W        W 9502   7.177   4.020  13.129 -0.0041  0.1597 -0.0664
 5303W        W 9503   2.184   8.667   3.290 -0.2283 -0.0891  0.1414
 5304W        W 9504   0.706   0.781  12.893  0.1590 -0.1996 -0.0171
 5305W        W 9505   2.188   8.416   2.485  0.2095  0.4290 -0.0738
 5306W        W 9506  10.132   3.068   4.520  0.4680  0.2410 -0.2179
 5307W        W 9507   7.297   7.360   9.566 -0.0482  0.2079 -0.0435
 5308W        W 9508   5.890   5.767  10.280 -0.1091 -0.1672  0.3353
 5309W        W 9509   0.870   1.715  10.565  0.0552  0.0883  0.1764
 5310W        W 9510   6.045   7.517   2.171 -0.2712 -0.0519 -0.2106
 5311W        W 9511   0.328   9.229   9.730  0.1283 -0.0291 -0.0884
 5312W        W 9512   1.426   1.871   1.639 -0.1305 -0.1239 -0.0345
 5313W        W 9513   9.261   9.887   0.392  0.5720 -0.2893  0.1689
 5314W        W 9514   6.172   2.661   4.997 -0.0452 -0.0131 -0.0749
 5315W        W 9515   4.687   1.078   3.370  0.1990  0.0705  0.1720
 5316W        W 9516   3.777   9.973   2.085  0.0934 -0.0997 -0.2157
 5317W        W 9517   5.039   9.302   9.523  0.3419 -0.0628  0.0629
 5318W        W 9518   6.869   9.790   2.585 -0.0374 -0.0659 -0.3879
 5319W        W 9519   6.604   9.259  10.583 -0.0524 -0.2990 -0.2703
 5320W        W 9520   3.485   4.878  11.740 -0.0314 -0.2494  0.2219
 5321W        W 9521   8.805   1.084  13.003  0.2797 -0.1039 -0.0965
 5322W        W 9522   2.070   8.161  11.566  0.0197  0.0871 -0.0466
 5323W        W 9523   9.497   6.281   1.443 -0.0311 -0.0098 -0.1758
 5324W        W 9524   1.178   8.049   2.412  0.0302 -0.0644 -0.0352
 5325W        W 9525   7.566   1.874   0.796  0.0434  0.3339  0.1395
 5326W        W 9526   3.360   9.945   3.794  0.1962 -0.1230 -0.0596
 5327W        W 9527   7.062   6.400   0.320 -0.0637 -0.1704  0.3329
 5328W        W 9528   9.419   9.090   3.633 -0.1306 -0.4968  0.1237
 5329W        W 9529   6.901   5.465   3.412  0.1914 -0.0038 -0.2072
 5330W        W 9530   8.720   9.114   3.114 -0.0657 -0.1789 -0.1160
 5331W        W 9531   4.239   8.682  10.467 -0.0709  0.0475  0.0400
 5332W        W 9532   2.896   4.924   3.958 -0.0476  0.1854  0.0168
 5333W        W 9533   4.185   5.266  12.743 -0.3423 -0.3316 -0.0293
 5334W        W 9534   3.827   9.136   1.081  0.1970 -0.0273 -0.1805
 5335W        W 9535   6.142   0.351   0.330  0.2693 -0.0342  0.0661
 5336W        W 9536   4.771   2.853  10.104  0.0357  0.1506  0.0409
 5337W        W 9537   9.499   7.275   9.063 -0.2157  0.0829  0.1305
 5338W        W 9538   0.553   7.765   9.946  0.0815 -0.0707 -0.1794
 5339W        W 9539   3.829   1.064   3.598 -0.1657  0.1764 -0.2642
 5340W        W 9540   8.964   6.937   0.480 -0.1410 -0.0609 -0.2011
 5341W        W 9541   4.492  10.310   3.287 -0.5175  0.1854  0.0960
 5342W        W 9542   8.131   9.960   9.127  0.1704  0.0928  0.0028
 5343W        W 9543   5.665   6.928  11.824  0.0283 -0.3624  0.1160
 5344W        W 9544   4.729   3.731   2.874 -0.0464  0.0269  0.2963
 5345W        W 9545   8.215   9.824   1.795  0.0044 -0.0354 -0.0150
 5346W        W 9546   9.681   4.691   1.568  0.2088 -0.1446  0.3305
 5347W        W 9547   2.677   7.836  10.201 -0.1191  0.3867 -0.1722
 5348W        W 9548   6.089   0.173   8.917  0.0216  0.0968  0.2783
 5349W        W 9549   6.085   2.851   0.211 -0.1225 -0.0597  0.2347
 5350W        W 9550   1.929   1.089  11.637  0.0120  0.0410 -0.1532
 5351W        W 9551   2.673   5.723  11.805 -0.1246 -0.3071  0.2029
 5352W        W 9552   9.147   7.632   8.932 -0.3449  0.0564  0.0287
 5353W        W 9553   6.542   2.007  10.563 -0.0830  0.4561 -0.0934
 5354W        W 9554   9.825   6.031   2.311 -0.1642 -0.1632  0.2151
 5355W        W 9555   6.455   8.611   0.351  0.0089  0.3542  0.3098
 5356W        W 9556   5.391   7.883   0.247 -0.3756 -0.0826 -0.2483
 5357W        W 9557   2.118   3.975   0.080 -0.0089 -0.0075  0.1111
 5358W        W 9558   9.001   3.190  11.105  0.0784 -0.2215  0.0252
 5359W        W 9559   9.716   9.971  11.244  0.4065 -0.3714 -0.1668
 5360W        W 9560   2.899   1.950  11.184  0.0059 -0.1013  0.0636
 5361W        W 9561   4.828   3.080   1.813  0.0254 -0.1173  0.2785
 5362W        W 9562   0.753   2.552  10.312 -0.0872 -0.0627 -0.0426
 5363W        W 9563   3.030   5.400   4.073 -0.0942 -0.1263  0.1041
 5364W        W 9564   8.817   2.154   3.448 -0.0050  0.2982 -0.1479
 5365W        W 9565   8.689   4.848   4.351 -0.0458 -0.2036 -0.0539
 5366W        W 9566   1.654  10.030  10.665 -0.1568  0.0576 -0.0850
 5367W        W 9567   6.893   6.654  13.302 -0.1326  0.2853  0.1737
 5368W        W 9568   2.586   9.816   2.220  0.1711 -0.2850 -0.0062
 5369W        W 9569   4.175   8.209   0.181 -0.0903 -0.0459 -0.1715
 5370W        W 9570   9.494   2.000   2.011  0.1310 -0.2667 -0.0846
 5371W        W 9571   5.900   0.390  11.526 -0.2416 -0.0431 -0.1086
 5372W        W 9572   4.167  10.077   8.459  0.0833  0.0957 -0.2579
 5373W        W 9573   9.879   6.785   0.872  0.2530 -0.0386  0.2091
 5374W        W 9574   4.247   4.187   2.049  0.2468 -0.4001  0.0887
 5375W        W 9575   5.867   2.181   2.755 -0.0903  0.5123  0.0047
 5376W        W 9576   0.622   8.896   8.880 -0.2435  0.3553  0.2651
 5377W        W 9577   3.364   1.379  11.825  0.0870  0.1147 -0.0941
 5378W        W 9578   3.516   0.862   1.453  0.3323 -0.0701  0.1453
 5379W        W 9579  10.217   3.147  10.007  0.0761 -0.1769 -0.0540
 5380W        W 9580   7.909   4.295   4.768  0.0392  0.2805  0.2623
 5381W        W 9581   6.619   2.792   9.298  0.3744 -0.1446  0.1596
 5382W        W 9582   2.552   6.311   1.536 -0.0738  0.2159 -0.0769
 5383W        W 9583   7.939   6.735  11.641  0.2634  0.1773 -0.0763
 5384W        W 9584   9.537   3.079   4.289  0.0588  0.2750  0.0098
 5385W        W 9585   4.810   9.874  11.137  0.2162 -0.1116 -0.1394
 5386W        W 9586   7.263   6.314  11.199  0.2869  0.0890 -0.2788
 5387W        W 9587   1.709   9.866   2.676  0.1303  0.1343 -0.0415
 5388W        W 9588   5.722   2.090   9.937 -0.1145 -0.2046 -0.2834
 5389W        W 9589   5.221   3.101   1.454  0.1080  0.1317  0.0496
 5390W        W 9590   9.229   5.035   8.660  0.1259 -0.1745 -0.2412
 5391W        W 9591   8.704   3.615   1.963  0.1204  0.1509  0.2998
 5392W        W 9592   1.832   9.351   2.803  0.2426 -0.0750 -0.0747
 5393W        W 9593   8.691   7.664  11.050 -0.1739  0.2992  0.1205
 5394W        W 9594   0.933   3.342   0.080 -0.1360  0.1141 -0.1569
 5395W        W 9595  10.176   9.493   1.756  0.0844  0.2454  0.0289
 5396W        W 9596   2.312   2.199   9.982  0.3672 -0.1422 -0.2917
 5397W        W 9597   6.783   9.312   1.991  0.0887 -0.1598 -0.3207
 5398W        W 9598   9.503   5.636   0.497 -0.1795  0.1104 -0.0513
 5399W        W 9599   0.141   6.242   9.165  0.0509 -0.1234 -0.0256
 5400W        W 9600   8.556  10.351   9.082 -0.1265  0.1702 -0.0009
 5401W        W 9601   8.445   3.052   0.633 -0.1323  0.1616 -0.1538
 5402W        W 9602   9.186   4.552   1.779 -0.0082 -0.1024 -0.1412
 5403W        W 9603   3.962   2.785   4.252 -0.1584 -0.0279 -0.2041
 5404W        W 9604   8.377   4.547   9.893  0.1353 -0.1263 -0.0133
 5405W        W 9605   1.779   7.598  10.966  0.1433  0.0441  0.1036
 5406W        W 9606   3.522   2.422  12.289 -0.0095  0.0927 -0.0180
 5407W        W 9607   2.223   7.396  10.857 -0.2788 -0.0474  0.2960
 5408W        W 9608   3.760   4.814   0.279 -0.0846  0.3371 -0.0353
 5409W        W 9609   9.288   3.647   2.615 -0.0008 -0.1783 -0.0067
 5410W        W 9610   1.731   9.764   9.632  0.2096  0.1389 -0.1038
 5411W        W 9611   5.421   1.950  11.966  0.2372  0.1061  0.1724
 5412W        W 9612  10.351   4.919   3.698 -0.2876  0.1542  0.0482
 5413W        W 9613   9.618   1.133  11.489  0.2162 -0.1712 -0.0912
 5414W        W 9614   2.932   2.394   2.512  0.0144  0.4073  0.0471
 5415W        W 9615   1.245   1.921   8.966  0.2428 -0.1295 -0.2083
 5416W        W 9616   3.065   6.914   1.061  0.2502  0.0235  0.0125
 5417W        W 9617   2.954   3.975  12.514  0.0611  0.1480  0.0506
 5418W        W 9618   1.006   0.057   0.885  0.0461 -0.2507 -0.1832
 5419W        W 9619   1.415   2.377   9.590  0.2904 -0.4084 -0.0743
 5420W        W 9620   1.755   0.005   3.406 -0.4725  0.3650 -0.1145
 5421W        W 9621   1.405   4.141  12.963 -0.1676 -0.1737  0.2115
 5422W        W 9622   9.746   5.459  10.826 -0.4529 -0.2412 -0.0629
 5423W        W 9623   8.451   2.970   3.744 -0.1792  0.1455 -0.2156
 5424W        W 9624   5.947   4.183   3.332 -0.0503 -0.0876 -0.1998
 5425W        W 9625   1.163   4.007  10.953  0.0054 -0.3215  0.1706
 5426W        W 9626   1.362   9.801  13.103 -0.1656 -0.0214  0.0925
 5427W        W 9627   8.930   9.728   8.668 -0.2086  0.1212  0.1404
 5428W        W 9628   0.633   5.219  13.267  0.0113 -0.0326 -0.0166
 5429W        W 9629   7.613   0.370  11.776 -0.1086  0.0019 -0.0452
 5430W        W 9630   8.199   9.809   2.359  0.2770 -0.0313  0.0984
 5431W        W 9631   2.215   5.528  11.231  0.0381 -0.2024 -0.0956
 5432W        W 9632   9.132   8.295   2.741  0.0734  0.0584 -0.1881
 5433W        W 9633   2.412   7.347   1.835  0.0922 -0.0212 -0.3188
 5434W        W 9634   6.125   6.217   0.707 -0.0305  0.0864 -0.2146
 5435W        W 9635   0.944   4.108   9.610  0.2580 -0.2674 -0.0198
 5436W        W 9636   9.021   6.413   1.295 -0.0690 -0.2187  0.1189
 5437W        W 9637   6.527   5.229   1.844  0.0256 -0.0420 -0.1110
 5438W        W 9638   8.854   4.532  10.210 -0.2164 -0.1184 -0.1645
 5439W        W 9639   4.921   0.928   1.888  0.0316  0.0435 -0.0242
 5440W        W 9640   8.124   7.119   3.137  0.1491  0.1169  0.2298
 5441W        W 9641   3.051   3.720  11.641  0.1805 -0.0676 -0.1772
 5442W        W 9642   0.669   1.124  10.729 -0.0610 -0.0336  0.1483
 5443W        W 9643   4.339   0.048   0.824  0.2538  0.1693  0.0849
 5444W        W 9644   7.573   9.248   9.615 -0.0350 -0.0578 -0.0186
 5445W        W 9645  10.278   2.619   4.006  0.2463 -0.0906 -0.0960
 5446W        W 9646   9.005   2.189   9.603  0.0481 -0.2105 -0.1783
 5447W        W 9647   6.029   1.653  10.139  0.3989  0.1521  0.0729
 5448W        W 9648   9.314   0.524   1.244  0.1313  0.2047 -0.0210
 5449W        W 9649   9.767   1.444   8.573  0.1237 -0.1931 -0.1987
 5450W        W 9650   1.031   5.802   2.332 -0.2242 -0.1662  0.0878
 5451W        W 9651   6.328   8.811   9.894 -0.0920 -0.0038  0.1907
 5452W        W 9652   3.385   0.417   1.691 -0.1537  0.2637 -0.0369
 5453W        W 9653   1.423   3.089   4.610  0.2386  0.1207  0.0079
 5454W        W 9654   9.236   4.046   8.661 -0.1382 -0.2478 -0.4375
 5455W        W 9655   4.718   6.379  12.946  0.2622 -0.0404 -0.0392
 5456W        W 9656   7.514   1.647   4.065  0.0420 -0.1708 -0.0825
 5457W        W 9657   8.817   7.310  11.870  0.0541  0.0674 -0.0047
 5458W        W 9658   6.756   5.759  11.794  0.1278 -0.1625 -0.1727
 5459W        W 9659   6.230   3.862   9.896  0.2951  0.0040  0.1825
 5460W        W 9660   3.353  10.103   0.744  0.3589  0.1356 -0.0386
 5461W        W 9661   3.268   1.680   3.747  0.0632  0.0823  0.1451
 5462W        W 9662   0.853   7.585  13.338 -0.1204 -0.0705  0.0493
 5463W        W 9663   9.282   1.966   3.352  0.3396 -0.1429 -0.3954
 5464W        W 9664   1.560   0.930  13.314  0.3364 -0.0601 -0.0495
 5465W        W 9665   2.027   2.740   0.163  0.0660  0.0146  0.0169
 5466W        W 9666   6.778   5.484   9.878 -0.1245  0.3586 -0.1996
 5467W        W 9667   7.210   0.434  10.351  0.1297  0.1620  0.0848
 5468W        W 9668   0.830   7.472   8.759  0.2765  0.1914 -0.1493
 5469W        W 9669   6.435   3.805  11.053  0.0344  0.5620 -0.0414
 5470W        W 9670   0.692   1.304   0.288  0.0539  0.3305 -0.1342
 5471W        W 9671   0.884   4.944   2.749  0.0230 -0.2895  0.0655
 5472W        W 9672   4.831   1.308  10.427  0.1647 -0.3780 -0.1955
 5473W        W 9673   8.011   4.045  10.066  0.0464 -0.3038 -0.0019
 5474W        W 9674   9.853   5.535   0.135  0.1965  0.2609  0.1857
 5475W        W 9675   1.643   2.340   1.153  0.0018  0.2469 -0.0497
 5476W        W 9676   4.751   9.717   8.572 -0.0780 -0.2417 -0.1588
 5477W        W 9677   4.946   3.423  12.794 -0.0060  0.1237  0.0219
 5478W        W 9678   6.682   8.519  10.094 -0.1264  0.1802 -0.0711
 5479W        W 9679   7.650   0.259   9.957 -0.1462 -0.0581  0.3919
 5480W        W 9680   7.118  10.385  12.322  0.3902 -0.2638 -0.2217
 5481W        W 9681   8.424   8.890   1.768  0.2031 -0.0267 -0.2857
 5482W        W 9682   9.555   6.403   9.286 -0.0342  0.1792 -0.0157
 5483W        W 9683   2.982   9.115  11.090  0.0926  0.1740 -0.1985
 5484W        W 9684   1.764  10.116   0.706  0.0189 -0.0612 -0.0085
 5485W        W 9685   8.306   1.013  13.242  0.0091  0.1771 -0.1217
 5486W        W 9686  10.009  10.132  13.202  0.0640  0.0215 -0.0470
 5487W        W 9687   1.164   1.615   4.378 -0.1492  0.0926  0.2114
 5488W        W 9688   0.621   5.445  12.503  0.0878  0.2802 -0.1133
 5489W        W 9689   0.867   5.439   8.547 -0.1212  0.1680 -0.0221
 5490W        W 9690   1.893   9.927   2.213 -0.1097  0.2162 -0.3089
 5491W        W 9691   9.669   8.627  12.213  0.2834  0.1246  0.1685
 5492W        W 9692   0.623   3.628   1.007 -0.4187 -0.3612  0.0446
 5493W        W 9693   4.304   2.517   4.545 -0.0955 -0.0730 -0.3813
 5494W        W 9694   9.949   7.918   8.890 -0.1400  0.1843  0.0526
 5495W        W 9695   1.281   7.266   0.035  0.0583  0.0089  0.1147
 5496W        W 9696   3.080   9.637   2.168  0.2692  0.0179 -0.0688
 5497W        W 9697   0.014   9.957   3.324  0.2805  0.1346  0.4909
 5498W        W 9698   3.464   0.026  13.041 -0.0386  0.0521  0.1686
 5499W        W 9699   2.763   7.463  10.610  0.2678  0.3844  0.1124
 5500W        W 9700   6.357   3.697   1.878 -0.0522  0.2977  0.0086
 5501W        W 9701   5.926   2.583   4.489  0.0436  0.0812  0.1332
 5502W        W 9702   1.535   2.106  12.667  0.0018  0.0838  0.1056
 5503W        W 9703   4.792   8.056  13.068 -0.1645  0.1509 -0.0722
 5504W        W 9704   2.868   1.223   0.106  0.3245  0.3406  0.0648
 5505W        W 9705   7.420   0.882   0.409 -0.0509 -0.0397  0.2788
 5506W        W 9706   5.386   2.435   1.920 -0.5436  0.2720 -0.0828
 5507W        W 9707   1.238   3.053  10.191  0.2267  0.0185  0.2340
 5508W        W 9708   0.341   9.393   4.787  0.0294  0.0959 -0.0716
 5509W        W 9709   4.915   0.794  10.425  0.2315  0.0324  0.0510
 5510W        W 9710   2.587   4.494   3.247  0.2360 -0.2740  0.1465
 5511W        W 9711   7.183   3.784   9.740 -0.0894  0.2614  0.2206
 5512W        W 9712   1.715   3.318   2.793  0.0947  0.0846 -0.0248
 5513W        W 9713   1.928   7.387   2.143  0.0676 -0.4886 -0.2921
 5514W        W 9714   1.157   7.824   3.324 -0.0528  0.2688 -0.0738
 5515W        W 9715   9.489   2.067   5.002 -0.1841 -0.3241 -0.1334
 5516W        W 9716   5.077   1.565  12.361 -0.1047  0.1266  0.0904
 5517W        W 9717   7.692   4.017   3.614 -0.0221 -0.0365 -0.3965
 5518W        W 9718   0.190   3.971   0.965 -0.3482 -0.2184  0.4117
 5519W        W 9719   7.723   7.918  13.162 -0.2463  0.1384 -0.1992
 5520W        W 9720   9.975   1.393  12.636 -0.0385  0.3419 -0.0373
 5521W        W 9721   0.859   5.343   3.089 -0.1273 -0.2343 -0.1176
 5522W        W 9722   7.012   5.880   2.474  0.1575 -0.1954  0.1080
 5523W        W 9723   7.133   0.024  10.059  0.2964 -0.1911 -0.0076
 5524W        W 9724   6.523   1.273   2.802 -0.2639  0.2290  0.3455
 5525W        W 9725   0.953   1.705   1.455 -0.0571  0.1497  0.2938
 5526W        W 9726  10.409   9.165  13.215  0.0324 -0.4113  0.0406
 5527W        W 9727   1.646   7.870   2.186  0.0805 -0.2616 -0.1697
 5528W        W 9728   0.373  10.464   9.162 -0.0066  0.1479 -0.2263
 5529W        W 9729   9.815   7.464  10.104  0.0477  0.0611  0.0578
 5530W        W 9730   9.089   3.273   8.707 -0.1033  0.0231  0.1815
 5531W        W 9731   1.092   6.207   2.648 -0.2020 -0.1799 -0.0434
 5532W        W 9732   0.711   7.545   0.710  0.2304  0.2255 -0.2702
 5533W        W 9733   7.277   2.437  11.343 -0.1570 -0.1660  0.1221
 5534W        W 9734   7.967   2.606   2.256  0.0394 -0.2324 -0.1651
 5535W        W 9735   3.515   2.492   8.699  0.2240  0.0775 -0.0471
 5536W        W 9736   8.896   8.280   9.707 -0.3022  0.2689  0.0677
 5537W        W 9737   1.381   2.032  13.162 -0.1628  0.3164  0.0286
 5538W        W 9738   5.076  10.364   1.325  0.0633  0.3837  0.1493
 5539W        W 9739   7.340   8.660  12.095  0.0884 -0.4379 -0.0683
 5540W        W 9740   8.677   8.774   3.860  0.0376  0.0981 -0.1012
 5541W        W 9741   4.874   0.516  10.010 -0.0079 -0.0767  0.0164
 5542W        W 9742   3.016   9.830   2.625 -0.1445 -0.2815  0.1607
 5543W        W 9743   3.740   8.741   0.540  0.0336  0.2239 -0.0140
 5544W        W 9744   6.909   9.708   1.611  0.1991  0.0092 -0.0829
 5545W        W 9745   0.821   6.953  12.011  0.3962 -0.0898 -0.4463
 5546W        W 9746   7.880   7.216  11.453  0.2888  0.0242 -0.2906
 5547W        W 9747   7.840   9.807   0.936  0.4197  0.0012 -0.3195
 5548W        W 9748   0.890   8.393  11.592  0.0703  0.1366  0.1390
 5549W        W 9749   1.346   2.092   2.113  0.0501 -0.2010  0.1419
 5550W        W 9750   9.447   6.678   9.939  0.1741  0.0636 -0.2918
 5551W        W 9751   7.903   2.864  13.395  0.0974 -0.1644 -0.1765
 5552W        W 9752   4.293   6.481   1.470 -0.1895  0.2720 -0.1095
 5553W        W 9753   3.432   5.961   9.950 -0.0510 -0.0832 -0.2619
 5554W        W 9754   5.891   0.422  13.090  0.3844 -0.1265 -0.3437
 5555W        W 9755   8.594   0.898   9.984 -0.1733  0.0297  0.2335
 5556W        W 9756   8.920   2.652   4.816 -0.0511  0.1122  0.3800
 5557W        W 9757   5.567   2.016   0.587 -0.2448  0.0789  0.0254
 5558W        W 9758   8.497   1.517  10.958  0.0449  0.0016 -0.1994
 5559W        W 9759   3.729   6.891   3.305 -0.3815  0.3784  0.1255
 5560W        W 9760   2.475   4.070  11.161 -0.0088  0.1042  0.1332
 5561W        W 9761   2.690   2.515  10.455 -0.3035  0.1576 -0.0709
 5562W        W 9762   5.087   2.359   3.479 -0.0042 -0.2186 -0.0478
 5563W        W 9763   2.588   4.132   0.057 -0.0778  0.0294 -0.0940
 5564W        W 9764   7.063   4.324   9.949  0.1115  0.1008 -0.0819
 5565W        W 9765   1.529   2.876   9.792  0.0216  0.3213 -0.0154
 5566W        W 9766   5.684   4.141  12.520  0.0082  0.1177 -0.0919
 5567W        W 9767  10.478   8.820   8.888 -0.0152  0.2150 -0.2901
 5568W        W 9768   0.465   8.189   3.991 -0.1220  0.0888  0.2537
 5569W        W 9769   6.964   6.979   1.126 -0.2396  0.1568  0.2425
 5570W        W 9770   8.907   2.622   3.563 -0.0914  0.1133 -0.1354
 5571W        W 9771   3.489   4.359   0.403 -0.0979  0.2480 -0.1204
 5572W        W 9772   9.037   5.259   9.478  0.0970  0.0008  0.1189
 5573W        W 9773   9.097   4.433   9.057 -0.4779  0.0256 -0.0231
 5574W        W 9774   8.086   6.428   3.472 -0.2604 -0.0271  0.0860
 5575W        W 9775   2.992   8.609   2.111  0.2218 -0.1954 -0.1504
 5576W        W 9776   2.888   3.746   0.701 -0.2807  0.0067  0.0444
 5577W        W 9777   2.741   2.865   0.749  0.0649 -0.1771  0.0685
 5578W        W 9778   1.935   7.246   3.895 -0.0471  0.3367 -0.2176
 5579W        W 9779   9.744   3.028   1.500 -0.0611  0.1398  0.3329
 5580W        W 9780   5.294   5.247  10.866  0.0785  0.3452  0.2838
 5581W        W 9781   0.055   8.158  12.009  0.1953 -0.1011 -0.0170
 5582W        W 9782   7.621   9.393  13.286  0.0762  0.0754 -0.0718
 5583W        W 9783   0.459   8.982   0.415 -0.0911  0.2700 -0.1824
 5584W        W 9784   0.167   6.453   3.347  0.4587 -0.0403 -0.0017
 5585W        W 9785   2.485   8.965  12.008 -0.1392  0.1267 -0.1334
 5586W        W 9786   5.301   3.755  12.615 -0.2284 -0.0533  0.1730
 5587W        W 9787   9.293   4.312   3.277  0.1039  0.1121 -0.0316
 5588W        W 9788   5.711   7.749  11.797  0.0897 -0.0705 -0.3628
 5589W        W 9789   1.070   4.290   0.635  0.0698 -0.1831  0.4556
 5590W        W 9790  10.388  10.257   9.416 -0.0615  0.0347 -0.0806
 5591W        W 9791   7.017   7.482   0.088 -0.1993 -0.1235  0.1551
 5592W        W 9792   5.191   0.381   1.236 -0.1708  0.1678 -0.1436
 5593W        W 9793   9.339   5.924   9.275 -0.1609 -0.1056  0.1336
 5594W        W 9794   0.476   1.271   2.703 -0.1885  0.1325 -0.1682
 5595W        W 9795   0.103   9.206  12.079 -0.2140 -0.0162  0.1424
 5596W        W 9796   0.759   9.902   9.168  0.2422  0.1585 -0.0430
 5597W        W 9797   2.638   5.251   1.034 -0.2087  0.0300 -0.1283
 5598W        W 9798   2.005   8.279   2.010  0.1482  0.0580 -0.0424
 5599W        W 9799   0.758  10.058  10.864 -0.0519  0.0991  0.1256
 5600W        W 9800   5.997   6.233   4.196 -0.0775  0.1777  0.4194
 5601W        W 9801   0.074   0.505  12.727  0.1882 -0.1492  0.2195
 5602W        W 9802   5.813   1.695   9.649 -0.2348 -0.2277  0.0004
 5603W        W 9803   4.725   4.346  10.557 -0.2302 -0.1157 -0.1007
 5604W        W 9804   3.004   2.732  10.131 -0.0894  0.2120  0.1447
 5605W        W 9805   3.729   6.889   2.347  0.0474  0.3969 -0.0238
 5606W        W 9806   7.083   0.785  10.995  0.1546 -0.0086  0.1388
 5607W        W 9807   2.334   9.468   8.478  0.2185 -0.0128  0.3547
 5608W        W 9808   9.407   2.222   8.316 -0.1667 -0.0820 -0.3894
 5609W        W 9809   1.876   4.190   3.884  0.0650  0.2038 -0.1913
 5610W        W 9810   5.209   5.780  12.743 -0.1005 -0.1497 -0.1972
 5611W        W 9811   2.230   6.832   3.699 -0.1544  0.0556 -0.2266
 5612W        W 9812   0.333   8.098  10.766 -0.1286  0.0772  0.0278
 5613W        W 9813   2.187   8.805   2.133  0.0077  0.2194  0.0694
 5614W        W 9814   3.314   1.369  12.334 -0.1355  0.1288  0.1290
 5615W        W 9815   9.756   6.701   3.578 -0.0460  0.4258  0.2344
 5616W        W 9816   7.745   7.988   2.554  0.3006  0.0440  0.3185
 5617W        W 9817   1.151   2.579  10.057 -0.0358  0.1188  0.0685
 5618W        W 9818   5.428  10.050   2.704 -0.2019  0.1204 -0.1000
 5619W        W 9819   5.212   0.210   4.622 -0.0857 -0.1951 -0.1060
 5620W        W 9820   4.368   0.911  11.649 -0.2946 -0.2154  0.1181
 5621W        W 9821   3.770   9.909   4.077  0.1722  0.0480  0.0481
 5622W        W 9822   2.919   6.321   1.837 -0.1853  0.0726 -0.0216
 5623W        W 9823   4.786   5.892  13.001  0.2033  0.0198 -0.0812
 5624W        W 9824   5.225   5.562   0.316 -0.0332 -0.0205  0.0601
 5625W        W 9825   1.362   9.692   1.347 -0.3767 -0.0832  0.0625
 5626W        W 9826   4.869   2.492  12.165 -0.1312  0.0643  0.3278
 5627W        W 9827   1.345   6.208   1.733  0.1848  0.1609  0.1108
 5628W        W 9828   5.762   7.074   1.480 -0.1092  0.1235  0.2779
 5629W        W 9829   4.399   7.336  12.087  0.0603  0.0269 -0.0267
 5630W        W 9830   5.692   1.067   3.087  0.0567 -0.0750  0.1441
 5631W        W 9831   7.078   6.422  10.726 -0.1612 -0.0524 -0.1657
 5632W        W 9832   4.177   1.175  12.131  0.0401 -0.0313  0.2402
 5633W        W 9833   2.905   4.510  12.925  0.3617 -0.2738  0.0289
 5634W        W 9834   0.477  10.378   0.779  0.3164  0.1456  0.0608
 5635W        W 9835   3.871   3.991   1.305 -0.0306  0.2817 -0.0040
 5636W        W 9836   1.886   6.881   2.174 -0.0826  0.2105  0.0390
 5637W        W 9837   6.842   4.998   2.672  0.0747 -0.1014 -0.1340
 5638W        W 9838   0.029   2.088   0.475  0.2786 -0.2086  0.0381
 5639W        W 9839   5.426   0.644  13.195  0.0732  0.4502 -0.1522
 5640W        W 9840   3.609   5.019   9.942 -0.1059 -0.0209 -0.0255
 5641W        W 9841   8.011   2.188   0.887 -0.0459  0.0216 -0.1521
 5642W        W 9842   3.652   1.825  13.129  0.1488 -0.2754  0.2441
 5643W        W 9843   8.350   8.059   1.144  0.1375 -0.1227 -0.0284
 5644W        W 9844  10.290   1.067  13.241 -0.1798 -0.0673 -0.0692
 5645W        W 9845   3.753   1.687   0.505  0.0377  0.1423 -0.2405
 5646W        W 9846   9.832   5.770   8.030 -0.1045  0.1899  0.0448
 5647W        W 9847  10.430   1.132  10.568 -0.0454 -0.1762 -0.0976
 5648W        W 9848  10.144   1.090   1.424 -0.3140  0.0820  0.1675
 5649W        W 9849   3.698   5.375   3.408 -0.0234 -0.0990 -0.1789
 5650W        W 9850   1.286   1.182  12.478 -0.1473 -0.0801 -0.0327
 5651W        W 9851   1.488   0.790   4.426 -0.2823  0.1006  0.0861
 5652W        W 9852   8.569   2.004  12.171  0.3875  0.2949 -0.3105
 5653W        W 9853   4.078   6.100  10.393  0.3704 -0.0842  0.3801
 5654W        W 9854   9.102   5.127   5.256  0.0422  0.0851  0.1951
 5655W        W 9855   3.035   8.442  12.694 -0.1040  0.2900 -0.0460
 5656W        W 9856   8.284   9.338  10.944 -0.0416 -0.0680 -0.2839
 5657W        W 9857   7.303   0.146  13.228  0.0006  0.0655  0.2504
 5658W        W 9858   4.284   0.312   1.616  0.1260 -0.2550 -0.1541
 5659W        W 9859   8.895   5.528   2.676  0.1037  0.3760  0.4005
 5660W        W 9860   5.944   0.714   3.386  0.3433 -0.0774  0.2034
 5661W        W 9861   9.930   0.645   0.520  0.1477 -0.0229 -0.1572
 5662W        W 9862   8.637   8.317  10.087 -0.0538 -0.1704  0.1780
 5663W        W 9863   5.774   6.142  13.045  0.1475 -0.2766 -0.0251
 5664W        W 9864   1.929   3.357   2.380 -0.2278 -0.3257 -0.1173
 5665W        W 9865   6.580   2.912  11.168 -0.0973  0.0840 -0.1279
 5666W        W 9866   1.520   1.033   9.080 -0.1505 -0.0888  0.2023
 5667W        W 9867   9.198   8.815   4.008 -0.0385  0.1341 -0.3169
 5668W        W 9868  10.371   5.887  11.417 -0.1475  0.0044  0.2815
 5669W        W 9869   6.534   4.981  11.321 -0.1168  0.1231 -0.0650
 5670W        W 9870   0.018   6.502  13.052 -0.1531 -0.1866 -0.2488
 5671W        W 9871   1.761   2.163  11.137  0.0472  0.2578  0.1777
 5672W        W 9872   0.722   7.967   3.098  0.2471  0.0506 -0.0161
 5673W        W 9873  10.056   1.918   2.004  0.1616  0.0848  0.4124
 5674W        W 9874  10.120   4.079  12.489  0.0990  0.2158 -0.1570
 5675W        W 9875   6.560   7.282   1.220 -0.0068  0.0089  0.2316
 5676W        W 9876  10.334   9.586  12.696 -0.0992 -0.0362 -0.0781
 5677W        W 9877   1.931   7.631  10.049 -0.2938 -0.1490  0.2329
 5678W        W 9878   5.266   2.923  13.418  0.0367 -0.0512 -0.0715
 5679W        W 9879   0.886  10.141   2.272  0.0440 -0.0768 -0.0099
 5680W        W 9880   4.405   9.609  10.698  0.2168  0.0914  0.1197
 5681W        W 9881   1.726  10.435  11.028 -0.3684  0.0889 -0.2071
 5682W        W 9882   8.349   3.666  10.393 -0.1966 -0.0226 -0.0094
 5683W        W 9883   5.172   1.490   4.907 -0.1524 -0.1372 -0.0871
 5684W        W 9884   5.368   0.477   9.615 -0.0102  0.0874 -0.0538
 5685W        W 9885   3.342   3.613   1.328 -0.0593 -0.0102  0.3227
 5686W        W 9886   1.254   2.516   1.901  0.0267  0.1959  0.0584
 5687W        W 9887   8.331   1.624   1.280 -0.1484  0.1295  0.2328
 5688W        W 9888   9.207   0.639   1.744 -0.0875  0.1521 -0.0498
 5689W        W 9889   0.071   0.502   4.485 -0.0409  0.2805 -0.2390
 5690W        W 9890   4.860   7.737   4.028 -0.2407 -0.3606  0.1142
 5691W        W 9891   7.222   6.181  13.307  0.2176 -0.0877  0.1121
 5692W        W 9892   5.532   3.456   3.130 -0.0167  0.0158  0.2258
 5693W        W 9893   8.520  10.147   3.810  0.0971  0.1169  0.2680
 5694W        W 9894   7.197   2.696   1.674  0.0194 -0.1588  0.0111
 5695W        W 9895   5.210   2.665   9.808 -0.1911  0.3338 -0.2081
 5696W        W 9896   5.926   8.425  10.896 -0.3540  0.3176 -0.4245
 5697W        W 9897   3.826   2.511   0.030  0.0811 -0.4234  0.1106
 5698W        W 9898   6.173   0.384   2.745  0.1067 -0.0384  0.2766
 5699W        W 9899   4.111   2.415   5.034 -0.0872  0.2783 -0.0199
 5700W        W 9900   6.690   9.583   3.120  0.1229  0.4619  0.1438
 5701W        W 9901   9.009   5.889  11.430 -0.1373 -0.4975  0.1519
 5702W        W 9902   9.821   3.507   4.254  0.0322 -0.0019 -0.3870
 5703W        W 9903   1.932   4.823  11.338 -0.3386  0.1537  0.0001
 5704W        W 9904   2.480   7.579   0.388 -0.0394  0.1975 -0.3239
 5705W        W 9905   3.871   5.041  10.760  0.1090  0.0286 -0.1167
 5706W        W 9906   6.696   3.641  11.538  0.1920  0.1740  0.0258
 5707W        W 9907   7.909   3.840   5.746 -0.2041 -0.1759  0.2472
 5708W        W 9908   8.444   7.986   2.199  0.0203 -0.1932 -0.2299
 5709W        W 9909   2.190   6.488  11.801 -0.1954 -0.3295 -0.1169
 5710W        W 9910   3.619   7.515   2.590 -0.3302 -0.0679 -0.2181
 5711W        W 9911   6.814   7.732   3.846  0.2349 -0.0838  0.0374
 5712W        W 9912   5.207   6.417   0.729  0.3976 -0.0830  0.0946
 5713W        W 9913   9.146   5.469   1.726  0.1693  0.1441 -0.0319
 5714W        W 9914   1.710   9.765  12.671 -0.0500 -0.0479 -0.1642
 5715W        W 9915   7.082  10.246   3.997 -0.0867 -0.3608 -0.0123
 5716W        W 9916   6.556   7.544   2.973 -0.0859 -0.2408 -0.0417
 5717W        W 9917   2.116   0.845  13.068  0.1067  0.0005 -0.1842
 5718W        W 9918   7.992   8.437   1.866  0.0303 -0.0216  0.1914
 5719W        W 9919   0.036   1.158   4.225 -0.0070 -0.1307 -0.1587
 5720W        W 9920   3.700   4.494   3.524  0.0956  0.2236 -0.0021
 5721W        W 9921   2.266   0.318   0.379 -0.2766  0.1905  0.2742
 5722W        W 9922   9.156   7.174   4.282 -0.1427 -0.0229  0.0727
 5723W        W 9923   1.351   6.973   0.954 -0.0401  0.0500  0.1496
 5724W        W 9924   9.686   3.256   5.308 -0.0453  0.2488  0.0706
 5725W        W 9925   2.603   5.938  10.450 -0.0995  0.2104  0.2547
 5726W        W 9926   5.574   1.606   3.426  0.3051  0.0172  0.1338
 5727W        W 9927   6.833   9.789  10.531  0.1833 -0.4532 -0.0329
 5728W        W 9928   5.558   8.717  11.109 -0.3446 -0.3947  0.1886
 5729W        W 9929   0.522   6.489   2.970 -0.3415  0.0820 -0.1226
 5730W        W 9930   7.822   7.214   9.015  0.1755  0.0963 -0.3058
 5731W        W 9931   9.519   3.599   9.394 -0.1241 -0.2288  0.0646
 5732W        W 9932   8.004   6.552  13.355 -0.2331 -0.3942  0.1984
 5733W        W 9933   8.186   1.127   9.023  0.0034 -0.0852 -0.1258
 5734W        W 9934  10.008   0.210   9.042 -0.2182 -0.1072  0.0670
 5735W        W 9935   5.631   5.074   1.764 -0.0888  0.1466 -0.1128
 5736W        W 9936   4.288   6.563  10.424  0.0144 -0.3201  0.1389
 5737W        W 9937   5.385   6.764   2.091  0.3588 -0.1181  0.0600
 5738W        W 9938   6.756   2.375   1.576 -0.1513 -0.1901  0.0488
 5739W        W 9939   5.777   4.357   3.735  0.0118  0.2820 -0.1211
 5740W        W 9940   6.332   2.039   1.559 -0.0898  0.1640 -0.0812
 5741W        W 9941   1.865   7.707  11.992  0.0723  0.0213 -0.1932
 5742W        W 9942   9.474   0.714   0.368 -0.0235 -0.0817  0.3929
 5743W        W 9943   2.335   9.017  12.543 -0.3778  0.0044 -0.0176
 5744W        W 9944   3.343   9.903   1.247  0.3074 -0.0755 -0.1438
 5745W        W 9945   4.188   9.737  12.814  0.0258 -0.0860 -0.0729
 5746W        W 9946   1.441   1.535  13.318 -0.1025 -0.2764  0.1505
 5747W        W 9947   6.240   9.318   4.165 -0.1368 -0.2778  0.3026
 5748W        W 9948   4.230   2.223   3.681  0.2898  0.3073  0.3909
 5749W        W 9949   7.889   4.059   9.230  0.1019  0.0035  0.0998
 5750W        W 9950   3.133   0.397  12.389  0.1315 -0.3203  0.0654
 5751W        W 9951   2.739   0.230  10.101  0.0668 -0.0700 -0.2548
 5752W        W 9952   0.441   0.286   2.903 -0.0964 -0.3016 -0.0512
 5753W        W 9953   5.170   6.137  13.325  0.2396  0.0572 -0.2537
 5754W        W 9954   7.760   1.344   9.195  0.1013  0.1427 -0.3222
 5755W        W 9955   5.860   0.478  10.485 -0.0348 -0.0464  0.0680
 5756W        W 9956   0.248   4.680  12.804  0.1761  0.3806  0.0442
 5757W        W 9957   5.012   1.652   5.396 -0.1114  0.2638  0.0569
 5758W        W 9958   4.015   1.029   0.075 -0.4284  0.1772 -0.2122
 5759W        W 9959   9.747   8.256  11.812 -0.0944  0.3776  0.0005
 5760W        W 9960   6.381   5.142   3.651  0.0085 -0.2610 -0.0936
 5761W        W 9961   2.219   2.646   1.471 -0.2451  0.0099 -0.0242
 5762W        W 9962   0.252   1.089   3.106 -0.1519  0.4787  0.1135
 5763W        W 9963   1.203   7.264   2.844 -0.1653  0.1390  0.1798
 5764W        W 9964   0.858   7.692   2.521 -0.0658  0.1555  0.4282
 5765W        W 9965   4.051   1.716   4.339  0.2834  0.3137 -0.0914
 5766W        W 9966   8.008   5.799   2.667  0.0191 -0.0572  0.0654
 5767W        W 9967   2.025   3.797  12.189  0.1429  0.1301  0.0516
 5768W        W 9968   8.338   0.236   0.071  0.2060  0.0960  0.2020
 5769W        W 9969   9.445   7.031  10.290  0.0491  0.2220 -0.0461
 5770W        W 9970   7.022   9.960  12.603  0.0439 -0.2311 -0.3987
 5771W        W 9971   5.908   8.688  12.633  0.0322 -0.2070  0.0254
 5772W        W 9972   9.028   0.621   0.580 -0.1155  0.0751 -0.2836
 5773W        W 9973   9.187   4.808   3.485 -0.0039  0.0285  0.0494
 5774W        W 9974   4.100   4.217  11.427 -0.1544 -0.1923  0.1977
 5775W        W 9975   8.243   5.406   1.247  0.0071  0.0349 -0.1533
 5776W        W 9976   0.193   9.045   4.224 -0.0244  0.0039  0.1106
 5777W        W 9977   6.533   5.729   1.957  0.2497 -0.1083 -0.3215
 5778W        W 9978   5.385  10.230  11.166 -0.1440 -0.2042 -0.1620
 5779W        W 9979   1.771   9.666   0.398  0.3517  0.0737 -0.0562
 5780W        W 9980   4.881   9.610   3.871 -0.3772 -0.1071  0.0497
 5781W        W 9981   9.503   1.625   2.500  0.0881  0.4589  0.0390
 5782W        W 9982   1.988   5.583   1.527 -0.0450  0.0816  0.1024
 5783W        W 9983   6.528   0.685   1.676 -0.0448 -0.0150 -0.0211
 5784W        W 9984   0.820   3.148   2.853  0.0915  0.0251 -0.1054
 5785W        W 9985   1.161   8.283  11.148 -0.1460  0.0172 -0.1686
 5786W        W 9986   0.464   5.128   8.567 -0.1776  0.3205 -0.2033
 5787W        W 9987   1.975   7.467   9.588  0.1075 -0.0577  0.1010
 5788W        W 9988   6.721   6.037  10.611 -0.0849 -0.0814  0.2181
 5789W        W 9989   7.757   3.448  12.600  0.1607 -0.3719  0.0579
 5790W        W 9990   1.181   9.282   3.137  0.0120  0.0118  0.3161
 5791W        W 9991   0.894   8.980   2.267  0.1669  0.0333 -0.0664
 5792W        W 9992   2.476   0.226   0.831  0.2365 -0.0507  0.0125
 5793W        W 9993   6.263   1.902  11.602  0.1047 -0.0108  0.1615
 5794W        W 9994   2.991   0.343   1.350 -0.0821  0.0694  0.0789
 5795W        W 9995   8.868   4.079   2.910  0.2712 -0.1322  0.0368
 5796W        W 9996   0.730   1.171   1.870 -0.0978 -0.1216  0.0819
 5797W        W 9997   3.670   6.423  10.973 -0.0240 -0.0570 -0.2190
 5798W        W 9998   2.580   9.004   3.396 -0.0958  0.1934 -0.0929
 5799W        W 9999   1.240   0.747  12.766  0.2734 -0.2926  0.3143
 5800W        W10000   9.831   6.733  11.876  0.0851  0.0692  0.2198
 5801W        W10001   0.884   0.566   2.677 -0.1363  0.1540 -0.0049
 5802W        W10002   5.801   3.796   0.035 -0.1255 -0.2385  0.1164
 5803W        W10003   2.017   8.079   9.740  0.0275 -0.1968 -0.0889
 5804W        W10004   6.511   0.192   1.781 -0.2035 -0.0996  0.2062
 5805W        W10005   6.731  10.002  10.095  0.0811  0.1330  0.4036
 5806W        W10006   2.482   9.500  12.317 -0.0602 -0.0293 -0.0512
 5807W        W10007   5.924   0.977   0.780  0.2337 -0.0635 -0.1862
 5808W        W10008   4.555   2.608  11.771  0.0142  0.1429 -0.0020
 5809W        W10009   1.143   1.449   9.058 -0.0730  0.1440  0.1592
 5810W        W10010   6.024   9.038   8.661 -0.2597  0.0530 -0.3537
 5811W        W10011   4.748   1.081   4.574 -0.0127  0.1359  0.0308
 5812W        W10012   1.610   0.131   0.926 -0.0139 -0.2467  0.0302
 5813W        W10013   8.432   0.121   1.773  0.0200  0.2769  0.1562
 5814W        W10014   5.132   8.759  10.282 -0.3099  0.0647 -0.1055
 5815W        W10015   9.865   8.222  11.285 -0.1047  0.0208 -0.0409
 5816W        W10016   3.811   9.582   1.320  0.1432 -0.0739  0.2028
 5817W        W10017   9.284   8.359  11.958 -0.2822 -0.0343  0.0598
 5818W        W10018   1.072   2.959  13.271  0.0756  0.3669  0.2244
 5819W        W10019   5.515   4.050   2.856  0.2463 -0.0118  0.0381
 5820W        W10020   2.857   8.446   0.190 -0.1498  0.0396  0.1197
 5821W        W10021   0.317   9.592  11.792  0.1036 -0.3532 -0.0553
 5822W        W10022   7.066   7.700   0.585 -0.1179 -0.2571  0.1641
 5823W        W10023   9.220   9.305  12.104  0.3355 -0.2356 -0.0412
 5824W        W10024   1.288   9.929  11.694 -0.2355  0.0093  0.0154
 5825W        W10025   7.645   2.384   4.869  0.5130 -0.0495 -0.0600
 5826W        W10026   3.933   5.925  11.826 -0.2612 -0.1507 -0.1339
 5827W        W10027   7.149   3.492  11.510  0.0628  0.2311  0.2594
 5828W        W10028   4.913   3.332   4.743 -0.0135 -0.0087 -0.1082
 5829W        W10029  10.123   2.472   3.568  0.0925  0.1766 -0.0379
 5830W        W10030   7.774   3.339  13.119 -0.1061  0.1676 -0.0581
 5831W        W10031   4.714   0.006   3.731  0.0422  0.0004 -0.3461
 5832W        W10032   6.078   6.873   3.295  0.1121  0.1250  0.1121
 5833W        W10033   4.380   3.878   9.763 -0.1857 -0.2798 -0.2452
 5834W        W10034   3.016   9.222  10.578 -0.1387 -0.4181  0.0634
 5835W        W10035   3.675   6.839   1.387  0.1826  0.0493  0.2529
 5836W        W10036   2.709   0.894   9.632  0.0614  0.2325 -0.0092
 5837W        W10037   0.933   6.778  11.113  0.1543 -0.0765 -0.2582
 5838W        W10038   2.349   4.273   9.092  0.2477  0.0040  0.4645
 5839W        W10039   4.116   8.170  11.893 -0.2444  0.1834  0.1152
 5840W        W10040   9.036   7.454   0.487 -0.0107  0.0556  0.2186
 5841W        W10041   0.288   8.902   0.911  0.1768 -0.0795 -0.0644
 5842W        W10042   0.386   4.015  11.956  0.1045  0.4880  0.2435
 5843W        W10043   7.463  10.476  10.436  0.3698  0.0935  0.1969
 5844W        W10044   9.669   3.448   1.853  0.2851 -0.1710 -0.0340
 5845W        W10045   8.785   4.108   1.134 -0.2098  0.0216 -0.0105
 5846W        W10046   7.726   7.083  10.557 -0.0246  0.2113  0.0339
 5847W        W10047   1.686   9.651   1.813 -0.0173 -0.0442 -0.1299
 5848W        W10048   1.521   5.155   0.096  0.0311  0.1967 -0.0782
 5849W        W10049   5.117   6.785  10.522  0.1287 -0.0498 -0.2787
 5850W        W10050   1.929   6.344  12.895  0.3656 -0.0338 -0.2187
 5851W        W10051   8.967   1.127   9.247  0.0655  0.1839  0.0776
 5852W        W10052   1.887   2.851   3.184 -0.0949 -0.1301 -0.2267
 5853W        W10053   8.019   5.408  12.299 -0.1072  0.3029 -0.0077
 5854W        W10054   9.111   1.886  12.758 -0.1299  0.3212 -0.1392
 5855W        W10055  10.392   4.737   1.867  0.1150  0.1600 -0.0386
 5856W        W10056   0.371  10.127   9.530  0.1400  0.0322  0.1892
 5857W        W10057   5.680   5.140  13.093  0.4897  0.0713 -0.1952
 5858W        W10058  10.448   8.775   2.167  0.0601  0.0378 -0.2749
 5859W        W10059   2.968   6.452   0.754 -0.2129  0.0908 -0.0044
 5860W        W10060   9.795   0.709   0.984  0.2770  0.0926 -0.2968
 5861W        W10061   8.870   7.198   9.111 -0.1150  0.0095 -0.0590
 5862W        W10062   5.907   5.099   9.539  0.0316  0.0818 -0.0808
 5863W        W10063   2.467   1.447  13.359  0.2976  0.2669  0.0378
 5864W        W10064   5.906   8.421   2.478 -0.1370 -0.0038 -0.1589
 5865W        W10065  10.421   5.671   4.519 -0.0419 -0.0954  0.0800
 5866W        W10066   9.682   5.126   3.004 -0.0162 -0.1822  0.0662
 5867W        W10067   7.268   9.064   0.785 -0.0383  0.0303  0.1764
 5868W        W10068   1.334   8.969  12.625 -0.0735 -0.4114 -0.0397
 5869W        W10069   6.799   5.157   8.722 -0.2775 -0.1712  0.0501
 5870W        W10070   4.066   4.756  10.392 -0.0204  0.3702 -0.2754
 5871W        W10071   2.492   1.911  13.152  0.0636  0.0278  0.2309
 5872W        W10072   0.698   4.119   4.391  0.2669  0.1882 -0.1850
 5873W        W10073   5.602   4.603   0.477 -0.0188 -0.0403  0.0934
 5874W        W10074   7.603   0.642   4.751  0.0002  0.0987  0.0486
 5875W        W10075   7.220   3.225   1.397 -0.0273 -0.2171 -0.0433
 5876W        W10076   9.692   3.319   0.765  0.1845 -0.3060  0.2539
 5877W        W10077   6.206   3.147  11.675  0.0500  0.1362 -0.1301
 5878W        W10078   9.608   4.263   1.100 -0.0433  0.1166  0.2410
 5879W        W10079   7.739   8.815   5.134  0.3560 -0.1059  0.0458
 5880W        W10080   9.709   2.783  11.891  0.2386 -0.1100 -0.0095
 5881W        W10081   7.143   1.680   0.043  0.0132 -0.1451 -0.3033
 5882W        W10082   9.974   2.728   8.920  0.1987 -0.3099 -0.1555
 5883W        W10083   8.765   1.388   1.432  0.1333 -0.2666 -0.1486
 5884W        W10084   3.045  10.446   0.976 -0.0293 -0.0770  0.2669
 5885W        W10085   9.469   3.277  12.476  0.0323  0.0022  0.3126
 5886W        W10086   8.966   5.733  10.026 -0.2146  0.1906  0.1893
 5887W        W10087   2.030   8.223   2.941 -0.1550  0.1479 -0.2375
 5888W        W10088   6.673   4.974  10.577  0.2267 -0.0287 -0.3548
 5889W        W10089   9.941   0.418  12.650  0.0486 -0.0416 -0.0512
 5890W        W10090   2.280   4.300  12.020 -0.0056  0.0405 -0.0507
 5891W        W10091   2.834   8.686  12.231  0.2520  0.2598  0.0844
 5892W        W10092   9.229   0.644   3.750 -0.0334  0.2733  0.2270
 5893W        W10093   8.372   2.906   0.161  0.2382 -0.1371  0.1551
 5894W        W10094   3.562   7.884  12.450 -0.1246 -0.0802 -0.0365
 5895W        W10095   8.060  10.475   9.042 -0.1942 -0.0340  0.0155
 5896W        W10096   7.190   8.439  10.865 -0.1385  0.0453 -0.0344
 5897W        W10097   2.234   3.949  11.624  0.0694 -0.2050 -0.0271
 5898W        W10098   2.656   6.802   0.575  0.1559  0.3126 -0.0598
 5899W        W10099   4.206   0.210   2.153 -0.1141  0.0942  0.0429
 5900W        W10100   4.524   9.663   2.441 -0.2096 -0.0507 -0.2132
 5901W        W10101   8.030   7.512  13.014  0.2129 -0.2011  0.1114
 5902W        W10102   9.961   4.908   4.678  0.0009  0.1515 -0.3031
 5903W        W10103   0.629   1.877   3.599  0.1570  0.1364 -0.0350
 5904W        W10104   3.186   9.068   9.758  0.1690  0.2721  0.2236
 5905W        W10105   5.568   3.440   1.602  0.3146 -0.0843 -0.0679
 5906W        W10106  10.444   7.112  13.019 -0.1669 -0.0661 -0.1602
 5907W        W10107   5.830   8.261   9.668  0.0610  0.2218  0.0973
 5908W        W10108   4.473   3.335  12.548  0.0784  0.1046  0.1684
 5909W        W10109   3.075   7.478   9.649 -0.3127  0.2014  0.1331
 5910W        W10110   1.128   9.361  12.932 -0.0383  0.0731 -0.2391
 5911W        W10111   1.344   9.279   3.601  0.1407 -0.3254 -0.2368
 5912W        W10112   8.688   7.618  10.545 -0.0466 -0.1171 -0.2553
 5913W        W10113   9.680   2.572   2.402  0.1012 -0.1081 -0.3930
 5914W        W10114   4.524   6.521  11.314  0.0851  0.2509  0.0057
 5915W        W10115   7.573   1.195  12.131 -0.2413 -0.0816 -0.1398
 5916W        W10116   3.597   8.871   9.249 -0.1104 -0.0771 -0.1241
 5917W        W10117   2.493   3.185   1.607  0.2131  0.0002  0.3127
 5918W        W10118   6.187   7.377   1.551  0.1930  0.1755  0.2100
 5919W        W10119   9.562   9.261  13.124  0.1745  0.0363 -0.0020
 5920W        W10120   0.518   7.760  11.920  0.2004 -0.2348  0.1692
 5921W        W10121   6.763   0.740  11.636  0.2687 -0.0987  0.1916
 5922W        W10122   7.834   9.641   4.927 -0.1453 -0.0918  0.0866
 5923W        W10123   9.879   7.942   2.535 -0.0559 -0.4337  0.1539
 5924W        W10124   2.751   0.755  10.483  0.2898  0.0287 -0.1103
 5925W        W10125   3.266   8.384   1.617  0.0118 -0.0096 -0.0587
 5926W        W10126   2.834   1.301  12.110 -0.1865 -0.1553  0.1322
 5927W        W10127   9.507   3.781   4.015  0.0845  0.1572 -0.1256
 5928W        W10128   5.014   6.923  10.981 -0.0742  0.0520  0.2997
 5929W        W10129   0.215   7.725   3.570  0.0357 -0.0716 -0.2894
 5930W        W10130   3.240   1.610  13.360 -0.2129 -0.1363  0.0800
 5931W        W10131   6.715   1.005  10.235  0.0288  0.1600  0.3628
 5932W        W10132   2.553  10.460  12.940  0.1812  0.1831  0.0487
 5933W        W10133   7.581   3.001   3.901  0.4652 -0.0353 -0.0029
 5934W        W10134   2.987   2.904   4.720  0.4251 -0.2452  0.3295
 5935W        W10135   6.198  10.210   0.554  0.1047 -0.2322 -0.2230
 5936W        W10136   7.894   3.130   1.485  0.0130  0.1154  0.1086
 5937W        W10137   6.278   4.151  12.340 -0.1263 -0.1253  0.1073
 5938W        W10138   6.867   8.729  13.406 -0.2445 -0.0231  0.3999
 5939W        W10139   0.590   9.731  11.255 -0.1471 -0.0396  0.3045
 5940W        W10140   2.869   7.806   3.124  0.0898 -0.1604  0.0108
 5941W        W10141   9.480   3.820   1.526  0.2299 -0.4951  0.3714
 5942W        W10142   1.454  10.290  12.971  0.1366 -0.1647  0.3512
 5943W        W10143   6.251   5.883   1.484  0.2331  0.0169 -0.4316
 5944W        W10144   3.722   7.638   2.048  0.0508  0.1480 -0.2731
 5945W        W10145   0.148   0.344   8.348 -0.1599  0.1114 -0.1922
 5946W        W10146  10.301   9.661  11.722  0.1707  0.0815  0.0905
 5947W        W10147  10.286   0.610   9.777  0.1205  0.2273 -0.0734
 5948W        W10148   2.391   6.035   2.681  0.1562  0.0975 -0.0547
 5949W        W10149   8.847   4.894  11.180  0.1312  0.0808  0.4618
 5950W        W10150   7.108   7.532   3.464  0.1368 -0.3618 -0.2975
 5951W        W10151   2.903   6.992  10.457 -0.0114  0.0087  0.2167
 5952W        W10152   5.936   7.378  11.055 -0.0155  0.0877 -0.0929
 5953W        W10153   7.468  10.383   2.089 -0.0350 -0.0082 -0.3263
 5954W        W10154   9.964   7.088  12.780  0.3475  0.0416 -0.1819
 5955W        W10155   8.476   9.788  11.734 -0.0370  0.1074  0.2429
 5956W        W10156   6.879   9.487   9.027 -0.0178 -0.1306 -0.0779
 5957W        W10157   1.124   5.099   9.938  0.0155 -0.1945 -0.2658
 5958W        W10158   7.877   2.952  12.594 -0.2718 -0.0908  0.2652
 5959W        W10159   1.886   5.190  12.133  0.3817 -0.1915  0.2482
 5960W        W10160   2.000  10.311  12.879  0.2467  0.3724  0.1508
 5961W        W10161   1.963   8.740  10.571 -0.1483 -0.1065 -0.3853
 5962W        W10162   1.280   8.655   4.247 -0.3145 -0.0313 -0.2575
 5963W        W10163   3.520   1.880  10.569 -0.0755 -0.0518  0.0763
 5964W        W10164   8.403   5.399  11.875  0.1759  0.0546 -0.1609
 5965W        W10165   0.745   2.046  10.142  0.3026  0.0669 -0.1101
 5966W        W10166   2.442   2.963   1.114 -0.3952  0.1679 -0.0605
 5967W        W10167   1.336   3.759   0.288 -0.4791  0.1719  0.0484
 5968W        W10168   4.942   9.947   2.569 -0.4218  0.0696 -0.5584
 5969W        W10169   8.568   7.414   3.710  0.1437  0.2361 -0.1367
 5970W        W10170   0.756   3.272  10.993  0.0062 -0.1906  0.2238
 5971W        W10171   1.748  10.175   3.035 -0.0676 -0.0246  0.3241
 5972W        W10172   8.925  10.046   8.226 -0.0209 -0.0112  0.3691
 5973W        W10173   4.120   3.849  13.247  0.2280  0.1002 -0.2557
 5974W        W10174   9.743   0.065  13.346 -0.0433  0.0420  0.2553
 5975W        W10175   9.240   6.975  12.070  0.0711 -0.1369 -0.2876
 5976W        W10176   4.903   0.425   9.523  0.1086 -0.0285 -0.1189
 5977W        W10177   3.227   6.858   3.384  0.4171 -0.0357  0.0805
 5978W        W10178   3.361   3.258   2.022 -0.0401  0.1448  0.1978
 5979W        W10179   7.734   6.434  11.226  0.2930 -0.2627 -0.1641
 5980W        W10180   1.703   4.360   1.837  0.0167 -0.1241 -0.3486
 5981W        W10181   2.083   4.467  11.029 -0.2464 -0.2506  0.0982
 5982W        W10182   0.584   4.917  11.845 -0.1666  0.1631  0.0703
 5983W        W10183  10.241   4.547  10.777 -0.0258  0.2238 -0.4540
 5984W        W10184   0.089   5.701   1.184 -0.0642  0.0188  0.0128
 5985W        W10185   5.532   9.900  12.172  0.2086  0.2206 -0.0343
 5986W        W10186   1.362   8.604  11.437  0.0435  0.1994  0.1323
 5987W        W10187   2.444   0.787  10.075  0.1801  0.0687  0.5845
 5988W        W10188   7.441   5.547   9.179  0.2724  0.0490  0.1527
 5989W        W10189   0.291   6.831   3.803  0.2359  0.3645 -0.1753
 5990W        W10190   9.668   4.962  12.784 -0.2064 -0.2583  0.0484
 5991W        W10191   8.937   1.332   3.152 -0.0910  0.3828  0.1163
 5992W        W10192   9.605   4.674   0.585  0.0573 -0.0289 -0.1813
 5993W        W10193   0.468   9.123  11.571 -0.0096 -0.1001  0.2147
 5994W        W10194   6.407   1.072   0.054  0.1619  0.1294 -0.0908
 5995W        W10195   2.864   7.473   2.735  0.3456 -0.1492 -0.3070
 5996W        W10196   0.236   7.986   2.994  0.2144  0.1073  0.3134
 5997W        W10197   2.912   0.669   3.403  0.4748 -0.1174  0.3697
 5998W        W10198   3.789   8.754   3.218 -0.1420 -0.1733 -0.1021
 5999W        W10199   5.464   3.172   2.737 -0.0866  0.2306 -0.1209
 6000W        W10200   4.250   0.124   0.366  0.0692  0.0096 -0.1177
 6001W        W10201   0.218   9.764   4.427 -0.4028  0.0993 -0.2577
 6002W        W10202   3.249   1.223   2.711  0.1018  0.2799 -0.0750
 6003W        W10203   6.804   0.859   2.952 -0.3055  0.2331  0.0901
 6004W        W10204   8.056   8.208  12.202  0.1351  0.3292 -0.2616
 6005W        W10205   1.539   1.040  10.976 -0.0994  0.1863  0.1395
 6006W        W10206  10.234  10.208   2.897 -0.1386  0.1446  0.1387
 6007W        W10207   3.631   0.083   8.487 -0.1009  0.0113  0.0355
 6008W        W10208   6.002   1.921  12.135 -0.1873  0.1804 -0.1789
 6009W        W10209   8.858   7.189  10.393 -0.0202  0.0942  0.2194
 6010W        W10210   6.628   8.381   0.767 -0.2624  0.0253  0.1817
 6011W        W10211   7.726   6.244   5.268 -0.1459 -0.1172 -0.1994
 6012W        W10212   6.187   7.922  11.646  0.0252  0.0643  0.0703
 6013W        W10213   9.892  10.241   9.407  0.1437  0.0563 -0.0307
 6014W        W10214   0.177   4.500   0.276  0.1925 -0.0060  0.4050
 6015W        W10215   1.178   6.529   0.971 -0.1178  0.3193 -0.2251
 6016W        W10216   2.092   6.861   3.191  0.1441  0.0069 -0.3529
 6017W        W10217   7.674   0.863  11.325  0.0122 -0.0975  0.0676
 6018W        W10218   2.276   5.259  12.892  0.1451 -0.2997  0.0057
 6019W        W10219   3.065   4.965  11.367 -0.0286 -0.1124  0.1006
 6020W        W10220   0.887   3.092   1.362 -0.1227  0.0410  0.0225
 6021W        W10221   6.329   9.481   3.530  0.1382  0.0015 -0.0140
 6022W        W10222   8.818   8.861  12.209  0.1755  0.2141 -0.0802
 6023W        W10223   4.063   3.069   1.378  0.1729 -0.1356 -0.0840
 6024W        W10224   7.300   3.888   8.419 -0.2686  0.3194 -0.0321
 6025W        W10225   6.002   0.151   1.337 -0.0623 -0.2162  0.0972
 6026W        W10226  10.140   4.874   8.146 -0.3082  0.2739  0.2306
 6027W        W10227   2.950   0.317  10.982  0.1735  0.0419  0.3289
 6028W        W10228   1.013   7.354  12.354  0.1424 -0.2403 -0.1146
 6029W        W10229   7.680   6.536   2.524  0.1379  0.1070 -0.0646
 6030W        W10230   2.706   4.090   9.407 -0.0228 -0.0397  0.0253
 6031W        W10231   4.449   2.053   4.434  0.0146 -0.3010 -0.2254
 6032W        W10232   5.501   8.036  12.693  0.2335  0.1068 -0.1303
 6033W        W10233   9.623   4.178   3.629  0.1272  0.2194 -0.2589
 6034W        W10234   3.870   2.546   0.936 -0.2993  0.0764 -0.1291
 6035W        W10235   1.646   1.529   3.540 -0.2317  0.1429  0.0122
 6036W        W10236   9.133   2.469  13.329  0.1226 -0.1433  0.1161
 6037W        W10237   4.900   1.728   4.070  0.5207 -0.2519  0.0819
 6038W        W10238   5.887   4.520   5.117 -0.0297 -0.3309  0.1537
 6039W        W10239  10.041   0.289  11.624 -0.4106  0.0942 -0.0655
 6040W        W10240   1.362   3.300  11.913 -0.0498 -0.0283  0.2231
 6041W        W10241   9.330   8.074   9.973 -0.0917  0.0192  0.2806
 6042W        W10242   4.449   2.373  13.031  0.2977  0.0758 -0.2143
 6043W        W10243   9.627   0.842  12.482  0.3274 -0.1573  0.0750
 6044W        W10244   1.051   7.003   4.286  0.1679  0.0575  0.3492
 6045W        W10245   8.975   8.663   1.153  0.2398 -0.0490  0.1057
 6046W        W10246   9.905   3.376   9.608  0.1563 -0.1045 -0.0665
 6047W        W10247  10.394   0.806   0.674 -0.3126 -0.0024  0.1454
 6048W        W10248  10.321   7.651   2.786  0.3789  0.0398  0.0500
 6049W        W10249   4.910   9.794  10.621  0.2430 -0.0285 -0.2202
 6050W        W10250   2.983   7.578   1.807  0.3794  0.1593 -0.1376
 6051W        W10251   4.607   1.280   1.977  0.0880  0.1016  0.2166
 6052W        W10252   7.509   1.483  13.157 -0.2744  0.1391 -0.1498
 6053W        W10253  10.442   3.000  12.144 -0.0532 -0.0172  0.0114
 6054W        W10254   4.595   8.988  10.274  0.2250 -0.0671 -0.2736
 6055W        W10255   3.699   5.699  12.192 -0.1216  0.0182 -0.0985
 6056W        W10256   9.594   8.380  13.321  0.1854  0.1168 -0.1598
 6057W        W10257   4.074   8.375   2.977 -0.2587  0.0294  0.3447
 6058W        W10258   5.058   7.144   9.382 -0.1373  0.1210 -0.2389
 6059W        W10259   9.097   6.422   9.520 -0.1180  0.1859 -0.2128
 6060W        W10260   0.149   1.149   0.968 -0.0254  0.2248 -0.0647
 6061W        W10261   0.513   9.892   0.559 -0.0519 -0.0006  0.1204
 6062W        W10262   8.004   0.291  12.109 -0.2172 -0.1139 -0.1074
 6063W        W10263   1.283   0.764   2.446  0.1405  0.3961  0.3388
 6064W        W10264   8.528   7.096   1.253 -0.0345 -0.1490 -0.0891
 6065W        W10265   8.036   6.617   2.179 -0.0355  0.2019 -0.1221
 6066W        W10266   2.320   2.583  11.915 -0.1198 -0.1536  0.0840
 6067W        W10267   7.857   3.771  12.280 -0.0212 -0.4977 -0.1949
 6068W        W10268   3.914   3.773  12.357  0.1167  0.1881 -0.1078
 6069W        W10269   4.162   6.868  10.853  0.1056  0.1088 -0.2098
 6070W        W10270   9.061   3.717   9.719  0.1036 -0.0201 -0.0909
 6071W        W10271   2.842   0.796   8.703 -0.4673 -0.1401 -0.3722
 6072W        W10272   0.520  10.219  11.374 -0.0551  0.0112 -0.1146
 6073W        W10273   6.023   3.248   1.782 -0.1261 -0.3323 -0.2206
 6074W        W10274   6.645   5.566   1.490  0.1555 -0.0291 -0.1441
 6075W        W10275   7.515   5.212  11.963 -0.0512  0.0267 -0.3643
 6076W        W10276   8.142   2.426   1.859 -0.0702 -0.2172  0.2590
 6077W        W10277   8.178   7.717  12.595 -0.0413 -0.0582 -0.0020
 6078W        W10278   8.297   7.328   9.244  0.2110  0.0608 -0.1539
 6079W        W10279   3.424   0.746   3.754 -0.0670 -0.0525 -0.2641
 6080W        W10280   2.895   1.341   3.167 -0.4077  0.2117 -0.0668
 6081W        W10281   4.406   6.994  13.074 -0.0647 -0.0834  0.1589
 6082W        W10282   8.571  10.347   9.861 -0.0870  0.0383  0.1801
 6083W        W10283   5.157   8.734   0.429  0.3469  0.2549 -0.1482
 6084W        W10284   9.107   0.976  12.102  0.3191 -0.0316  0.1567
 6085W        W10285   4.992   0.998  10.981 -0.2691 -0.1735 -0.1162
 6086W        W10286   5.556   1.187  12.510  0.0680  0.0178  0.0661
 6087W        W10287   1.249   8.241  12.446 -0.0535 -0.1424  0.1361
 6088W        W10288   1.249   8.840   3.391  0.2142 -0.0940  0.1864
 6089W        W10289   7.086   3.211  11.937 -0.0459  0.0831  0.0203
 6090W        W10290   3.230   7.707   1.133 -0.2796 -0.0710  0.0966
 6091W        W10291   8.000   1.539   9.927 -0.3027 -0.0472 -0.0958
 6092W        W10292   3.785   8.300   1.535 -0.0724  0.0101  0.1955
 6093W        W10293   4.298   3.743   0.883  0.3363 -0.4126  0.0673
 6094W        W10294   0.155   9.662  13.148  0.0046 -0.0190 -0.0223
 6095W        W10295   0.884   5.531  12.956 -0.2885  0.1709 -0.0147
 6096W        W10296   6.752   5.966   3.427  0.2191  0.1312  0.1748
 6097W        W10297   7.193   5.401   1.500  0.2003 -0.0249 -0.0813
 6098W        W10298   2.492   8.685   1.244  0.1878  0.0887  0.2518
 6099W        W10299   5.800   2.983   3.058  0.3117 -0.1577 -0.1560
 6100W        W10300   5.753   8.998  10.707 -0.1504 -0.0314 -0.3659
 6101W        W10301   4.564   7.642   2.363  0.1331 -0.2711  0.1151
 6102W        W10302   1.702   0.526   1.227  0.0817 -0.1087  0.0897
 6103W        W10303   6.486   5.507  11.341 -0.1212  0.0233  0.0927
 6104W        W10304   7.631   3.219   1.028 -0.1446 -0.3455 -0.2115
 6105W        W10305   8.482   1.381  10.045  0.1590 -0.2493 -0.0603
 6106W        W10306   0.974   4.203  13.170 -0.0640  0.1827 -0.0228
 6107W        W10307   2.510   0.577  12.960 -0.0902 -0.4777  0.0470
 6108W        W10308   7.961   1.144   9.591  0.1562  0.0339 -0.0253
 6109W        W10309   3.470   9.028   2.892 -0.0564 -0.1076 -0.0760
 6110W        W10310   9.319   7.789   0.031 -0.0855  0.2814 -0.0237
 6111W        W10311   9.571   6.799   1.267 -0.1435  0.0298 -0.2259
 6112W        W10312   4.730  10.230   0.971  0.2321  0.1002 -0.1598
 6113W        W10313   8.865   3.555   2.927 -0.3130 -0.2692  0.2273
 6114W        W10314   4.671   7.722  11.383  0.1250 -0.2635  0.0172
 6115W        W10315   2.455   8.356  11.308 -0.0335 -0.1403  0.6066
 6116W        W10316   6.145   0.407   3.677 -0.2168  0.1503 -0.2470
 6117W        W10317   7.129   0.316  10.823 -0.0988 -0.1109 -0.0448
 6118W        W10318   0.370   0.336   1.997 -0.0827  0.1805 -0.0071
 6119W        W10319   9.242   9.964   3.246 -0.0727  0.1388  0.2909
 6120W        W10320   9.664   4.170  11.526 -0.2758 -0.0397  0.2353
 6121W        W10321   3.774   0.295   0.355 -0.0896  0.0562  0.1571
 6122W        W10322   0.116   6.787   9.207 -0.0661 -0.3096  0.2492
 6123W        W10323   5.884   2.357   3.870 -0.0055  0.0774 -0.2356
 6124W        W10324   6.428   5.769  10.245 -0.2448  0.0272 -0.1321
 6125W        W10325   2.369   6.145  12.495  0.2094 -0.0679 -0.0448
 6126W        W10326   6.955   8.922  11.086  0.2662 -0.2024 -0.0110
 6127W        W10327   8.710   6.717   1.580 -0.2133 -0.3546 -0.2823
 6128W        W10328   3.242   8.175   9.334  0.0093 -0.0028 -0.0229
 6129W        W10329   9.828   5.841   3.832 -0.1997  0.4291 -0.2161
 6130W        W10330   3.688   9.145   0.093  0.0129  0.1144  0.0017
 6131W        W10331   6.590   1.621   3.155  0.1667 -0.0612 -0.1719
 6132W        W10332   9.564   6.877  13.027  0.3005  0.0654  0.0524
 6133W        W10333   9.471   7.083   3.408 -0.1809 -0.0666  0.1155
 6134W        W10334   6.760   8.102   2.804  0.0697 -0.0330 -0.2020
 6135W        W10335   9.525  10.366   8.994 -0.2106  0.2996  0.0476
 6136W        W10336   7.729   6.227   0.225  0.2667  0.2116  0.1777
 6137W        W10337   2.218   0.839   9.623 -0.1404  0.2175 -0.0391
 6138W        W10338   7.266   8.957  10.723  0.0866 -0.0673 -0.1105
 6139W        W10339   0.431   3.205   3.226  0.0012  0.1026 -0.0967
 6140W        W10340   2.810   4.425   3.750  0.1298 -0.1227  0.0445
 6141W        W10341   7.241   8.013   2.535 -0.1683  0.1030 -0.1746
 6142W        W10342   8.850   1.169   0.977 -0.1232  0.2425  0.2018
 6143W        W10343   4.032   9.627   2.304 -0.2936 -0.1138 -0.0817
 6144W        W10344   4.501   1.205   8.393  0.1436  0.3139 -0.0150
 6145W        W10345   5.695   0.486   1.043 -0.1677  0.1246 -0.1017
 6146W        W10346   6.915   5.773  13.173 -0.0641  0.0859  0.0710
 6147W        W10347   0.070   0.027  11.354 -0.0906  0.0184 -0.2350
 6148W        W10348   4.914   7.573   0.383 -0.1272  0.0014 -0.2537
 6149W        W10349   8.178   8.090  13.061 -0.1328 -0.0085  0.0944
 6150W        W10350   5.205   3.565   1.267 -0.0544 -0.0192  0.2708
 6151W        W10351   5.856   3.245  11.289 -0.1046 -0.2078 -0.0658
 6152W        W10352   9.054   9.123   1.590  0.1216  0.2698 -0.3471
 6153W        W10353   4.266   0.802   3.419  0.1502 -0.1778  0.0556
 6154W        W10354   9.406   4.159   2.725 -0.0412  0.1034 -0.0979
 6155W        W10355   9.665   9.818   9.041  0.2278  0.3784 -0.4179
 6156W        W10356   3.003   9.638  10.959 -0.1427  0.1899 -0.1043
 6157W        W10357   5.998   0.723   0.018 -0.1573  0.3037  0.1224
 6158W        W10358   5.281   8.786   9.564  0.1268 -0.0005 -0.0330
 6159W        W10359   4.471  10.280  11.196  0.1276  0.2253  0.2779
 6160W        W10360   4.022   4.490  10.963  0.0061  0.0538  0.0416
 6161W        W10361   0.572   1.211   0.780 -0.1144  0.0757 -0.0049
 6162W        W10362   2.423   9.116   9.292 -0.0576 -0.2513  0.2134
 6163W        W10363   7.048   7.475   9.985 -0.1094 -0.0761 -0.0558
 6164W        W10364   1.150   9.892   0.536  0.2200 -0.3131 -0.2610
 6165W        W10365   4.365  10.255   4.027 -0.2608 -0.0756 -0.2815
 6166W        W10366   9.743   9.680   1.564  0.0909 -0.0544 -0.2485
 6167W        W10367   6.805   1.658   2.652 -0.2283 -0.1977  0.2093
 6168W        W10368   1.255   2.422   9.042 -0.1672 -0.0945  0.1598
 6169W        W10369   6.152   4.969  12.908 -0.1633  0.4217  0.1773
 6170W        W10370   5.378   2.480   0.687  0.0617  0.0593 -0.0999
 6171W        W10371   3.528   3.504   3.820  0.4103  0.2660  0.4070
 6172W        W10372  10.340   8.780   1.236  0.1229 -0.0347  0.0823
 6173W        W10373  10.208   9.764   9.144  0.0800 -0.2997  0.1165
 6174W        W10374   7.506   6.524   3.549  0.1188  0.0970 -0.1351
 6175W        W10375   9.593   9.547   3.385 -0.1695 -0.0818  0.1348
 6176W        W10376   1.410   6.691   9.874  0.2670 -0.2011 -0.0013
 6177W        W10377   2.220   3.170  12.014 -0.1152 -0.1756 -0.0985
 6178W        W10378   0.303   0.605   9.209  0.5130 -0.2063 -0.1712
 6179W        W10379   5.170   2.183  11.655 -0.1935 -0.1068  0.0058
 6180W        W10380   4.291   7.892  12.772  0.1777 -0.0393  0.1953
 6181W        W10381   0.367   2.431   9.379 -0.0584  0.1631 -0.0129
 6182W        W10382   8.388  10.052  10.246 -0.0257 -0.1501 -0.0960
 6183W        W10383   3.213   5.436   1.808  0.1884 -0.1000 -0.2020
 6184W        W10384  10.048   4.938   3.288 -0.1717  0.0753  0.0215
 6185W        W10385   2.886   3.146   3.202  0.0843  0.2781  0.2803
 6186W        W10386   1.228   1.577   3.053  0.0992 -0.2451 -0.1400
 6187W        W10387   3.998   2.195   0.452 -0.3284  0.3094 -0.1881
 6188W        W10388   8.925   3.560   4.755 -0.0093  0.1433 -0.0802
 6189W        W10389   0.410   6.675   0.979 -0.1098 -0.1012 -0.2158
 6190W        W10390   0.449   6.115   5.288  0.2317 -0.0312 -0.1679
 6191W        W10391   5.574   7.338  11.476  0.0184  0.3819 -0.0607
 6192W        W10392   9.030   4.767  12.884 -0.1083 -0.1312 -0.0786
 6193W        W10393   3.102   2.837  11.393  0.0828  0.0150 -0.2273
 6194W        W10394   1.460   2.388   2.995 -0.1626 -0.2059 -0.0495
 6195W        W10395   1.409  10.319   2.229 -0.1269 -0.0078  0.1573
 6196W        W10396   7.559   5.334  11.490 -0.2378 -0.0457  0.1690
 6197W        W10397   0.403   4.602   1.957 -0.1744 -0.1081  0.4016
 6198W        W10398   5.313   4.342  12.796  0.0782  0.1064 -0.0584
 6199W        W10399   0.508   9.648   9.537 -0.1388  0.2401 -0.0299
 6200W        W10400   8.651   6.438   2.794 -0.1002  0.3937  0.1640
 6201W        W10401   1.518   6.769  10.385  0.2230  0.1103  0.1007
 6202W        W10402   1.303   5.167   4.628  0.1307 -0.0289 -0.2815
 6203W        W10403   4.502   5.485   1.692 -0.3148  0.0993 -0.0491
 6204W        W10404   7.100   4.418   0.877 -0.1680 -0.3857  0.0115
 6205W        W10405   2.396   4.145   0.568 -0.0741  0.0952 -0.1799
 6206W        W10406   1.369   9.784   3.060 -0.1075  0.1766  0.3136
 6207W        W10407   6.307   0.220  13.308 -0.1368  0.2769 -0.0521
 6208W        W10408   7.578   9.750   1.333  0.1502  0.0309 -0.1601
 6209W        W10409   2.839   4.658   0.033  0.1713  0.0556  0.0364
 6210W        W10410   7.648   0.816   9.751  0.1397 -0.0265  0.0094
 6211W        W10411   2.379   6.953  12.447 -0.1298 -0.2017  0.0098
 6212W        W10412   7.291   6.252   1.562 -0.4505 -0.1110 -0.2988
 6213W        W10413   7.362   9.053  11.635 -0.2462  0.1833 -0.1158
 6214W        W10414   4.714   2.097   2.279 -0.2017  0.0160  0.1436
 6215W        W10415   7.629   4.835  11.306  0.0056  0.0373 -0.1603
 6216W        W10416   2.026   1.645   4.036 -0.0709 -0.1501  0.2793
 6217W        W10417   5.608   2.095  11.203  0.1086  0.1480 -0.1074
 6218W        W10418   2.343   4.909   0.711  0.2119  0.0032 -0.2489
 6219W        W10419   1.017   8.866   0.670  0.0652 -0.1290  0.0874
 6220W        W10420   1.888   1.133   4.342  0.0791  0.0481  0.0954
 6221W        W10421   7.573   9.760   8.985  0.0988 -0.0515 -0.0322
 6222W        W10422   3.567   4.841   2.010 -0.1144 -0.5182 -0.2782
 6223W        W10423   8.120   0.063  11.656 -0.2423  0.4120  0.0314
 6224W        W10424   4.460   7.973  10.908 -0.1068 -0.5786  0.0227
 6225W        W10425   2.641   8.701  12.734 -0.1640  0.0905 -0.1051
 6226W        W10426   9.827   0.829   0.027 -0.1052 -0.1471 -0.0476
 6227W        W10427   1.635   2.019  10.591 -0.0792  0.4107  0.2088
 6228W        W10428   0.189   5.567   9.664 -0.1137  0.2002 -0.2800
 6229W        W10429   5.595   9.142   4.680  0.0560 -0.1231  0.0196
 6230W        W10430   6.432   6.450   2.989  0.0567 -0.0962  0.0819
 6231W        W10431  10.317   5.175   4.512  0.2198  0.0988 -0.0298
 6232W        W10432   7.901   7.574   0.443 -0.1667  0.1111 -0.0218
 6233W        W10433   0.217   6.384  10.129  0.0544 -0.1642 -0.1618
 6234W        W10434   7.274   9.794   9.907 -0.0910  0.1990  0.0703
 6235W        W10435   3.673   2.726   1.357 -0.0301 -0.3526  0.0319
 6236W        W10436   5.062  10.438   2.639 -0.2417  0.2357  0.4712
 6237W        W10437   3.336   6.070  13.114 -0.0405 -0.0074 -0.0785
 6238W        W10438   2.607   2.414  12.378  0.2305 -0.1784 -0.0143
 6239W        W10439   3.547   6.396   1.558  0.0594  0.0145  0.2071
 6240W        W10440   9.119   7.641  11.350 -0.1380 -0.0453  0.1194
 6241W        W10441   7.894  10.126  12.819  0.1334  0.0700 -0.1346
 6242W        W10442   5.837   7.283  12.139 -0.1605  0.0399  0.0008
 6243W        W10443   1.692   3.360   9.591 -0.1997  0.6237 -0.1184
 6244W        W10444   2.197  10.320   0.576  0.1099 -0.2416 -0.0986
 6245W        W10445   7.075   6.618  11.652 -0.1606  0.0062  0.1910
 6246W        W10446   9.975   8.833   8.807  0.2846  0.2298 -0.2142
 6247W        W10447   8.218   5.349   3.638 -0.1328  0.0885  0.0261
 6248W        W10448   2.915   9.708   3.860 -0.0940  0.1130 -0.1551
 6249W        W10449   5.690   1.623  11.013  0.1663 -0.0785  0.2408
 6250W        W10450   7.954   0.891  11.824 -0.1515  0.2230  0.0835
 6251W        W10451   9.614   2.148  13.142  0.0138  0.1802  0.0961
 6252W        W10452   1.938   2.147   9.614  0.2856 -0.1146 -0.0597
 6253W        W10453   6.688   9.842   8.521 -0.2922 -0.0267 -0.1459
 6254W        W10454   0.301   0.875  11.516 -0.0956 -0.2076  0.2243
 6255W        W10455   2.054   1.732   0.217  0.1832 -0.0445 -0.0958
 6256W        W10456   0.767   2.057   0.356 -0.0930 -0.0692 -0.2288
 6257W        W10457   3.595   6.695  12.758  0.2195 -0.1002  0.0648
 6258W        W10458   4.537   7.943   9.795  0.2971 -0.1561 -0.1409
 6259W        W10459   8.116   1.180   4.783  0.2693 -0.0606 -0.5162
 6260W        W10460   3.171   5.735  12.181  0.0347  0.4371 -0.0706
 6261W        W10461   7.268   7.722   1.691 -0.0254 -0.0902  0.1174
 6262W        W10462   4.046   0.721   3.958  0.1606 -0.0337  0.0819
 6263W        W10463   7.662   1.561   2.252 -0.0504  0.2789  0.0530
 6264W        W10464  10.078   4.558  10.244  0.2363  0.3029 -0.0953
 6265W        W10465   5.323   5.876   2.342  0.1037  0.1265  0.1423
 6266W        W10466   5.978   9.285   2.049 -0.0170  0.0893 -0.2533
 6267W        W10467   1.172   7.275   9.785  0.0561  0.0255 -0.0573
 6268W        W10468   2.370   3.626   2.321  0.0427 -0.1879  0.0112
 6269W        W10469   1.114   2.000   4.023 -0.0505  0.1532 -0.1687
 6270W        W10470   9.340   2.185   2.420 -0.0803 -0.1651 -0.0205
 6271W        W10471   1.492   2.908   9.262  0.1810 -0.1735  0.0345
 6272W        W10472   4.870   1.886  10.073  0.0452 -0.1362  0.2755
 6273W        W10473  10.239   3.256  11.340  0.0003  0.2161  0.2611
 6274W        W10474   6.682   2.682   2.588 -0.0275 -0.1403 -0.4360
 6275W        W10475   8.505   1.575  13.115 -0.2705  0.0568  0.2101
 6276W        W10476   3.025   4.758   3.476 -0.3171 -0.0284  0.2237
 6277W        W10477   9.735   2.879   1.025  0.2962  0.2137  0.0362
 6278W        W10478   1.801   0.388  10.366  0.0499 -0.2127  0.1379
 6279W        W10479  10.218   6.991   1.915 -0.0453 -0.2475 -0.0767
 6280W        W10480   1.569   9.668   0.874 -0.0715 -0.0031 -0.0307
 6281W        W10481   4.776   0.584   0.994  0.1248 -0.0008 -0.1448
 6282W        W10482   0.792   6.911   2.954 -0.0329 -0.0939  0.2750
 6283W        W10483  10.402  10.059  10.236  0.2123  0.0351 -0.1817
 6284W        W10484   0.290   6.979   0.497 -0.1487 -0.2005 -0.0117
 6285W        W10485   5.112   3.217   2.297 -0.1019 -0.0818 -0.0076
 6286W        W10486   3.868   0.415   4.364 -0.1364 -0.2434 -0.0168
 6287W        W10487   5.408   7.501  11.011  0.0871  0.1143 -0.2566
 6288W        W10488   6.265   8.565   9.456  0.0713 -0.0372 -0.3256
 6289W        W10489   1.547   0.849  11.463  0.0099 -0.0485 -0.0514
 6290W        W10490   4.018   3.990   3.406 -0.5091 -0.2545 -0.1080
 6291W        W10491   2.177   4.783   3.252 -0.1452  0.0276  0.2555
 6292W        W10492   2.064   4.296   2.823 -0.2053  0.0624  0.1401
 6293W        W10493   1.580   1.818   0.286  0.1482 -0.1753 -0.3019
 6294W        W10494   8.394   0.147  12.517 -0.1859 -0.2254  0.1483
 6295W        W10495  10.044   6.159  11.748  0.2465  0.1281  0.1754
 6296W        W10496   1.109   1.235   3.468  0.1350  0.1558 -0.2305
 6297W        W10497   1.140   1.827   3.504 -0.3738 -0.1100 -0.0747
 6298W        W10498   7.627  10.095  10.723 -0.0058 -0.1763 -0.2093
 6299W        W10499   6.865   4.014   0.641 -0.1797  0.2395 -0.2922
 6300W        W10500   6.929   7.179   0.629  0.0658 -0.0660  0.1430
 6301W        W10501   4.266   9.234   3.901  0.1171 -0.0503  0.0585
 6302W        W10502   3.546   8.672   1.267 -0.0981  0.0888 -0.1466
 6303W        W10503   3.229   3.153   3.530 -0.1757 -0.0733 -0.2913
 6304W        W10504   6.621   2.514   4.833  0.1613  0.0650 -0.2719
 6305W        W10505   7.765   2.333  13.391  0.1080  0.2871  0.3198
 6306W        W10506   0.773   6.516  13.090 -0.2689  0.5499 -0.0214
 6307W        W10507   4.211   8.925   9.985 -0.0407  0.0120  0.2420
 6308W        W10508   2.880   0.764  11.231 -0.0113 -0.0352  0.2916
 6309W        W10509   1.294   8.984  11.094  0.0840 -0.4812  0.1732
 6310W        W10510   8.927  10.197   1.729  0.0949  0.0036 -0.0520
 6311W        W10511   6.990   8.365   0.421  0.0238  0.0904  0.3429
 6312W        W10512   2.039   1.056   0.231 -0.0569 -0.0969  0.1171
 6313W        W10513   9.343   0.971   0.925  0.2264  0.0888  0.1244
 6314W        W10514  10.200   6.952  12.239 -0.1300  0.1215  0.0977
 6315W        W10515   0.709   1.445   3.259  0.1512 -0.2310 -0.0449
 6316W        W10516   4.161   1.140  11.132  0.0616 -0.1617  0.0281
 6317W        W10517   1.690   9.010  12.038  0.2237 -0.2948 -0.0099
 6318W        W10518   1.823   8.264  10.654 -0.1328  0.3799 -0.0547
 6319W        W10519   1.851   0.980  10.639 -0.5778  0.2534  0.1899
 6320W        W10520   5.797   8.732  10.248  0.0860  0.1080  0.3128
 6321W        W10521   0.446   1.602  12.426  0.2592 -0.1195  0.0864
 6322W        W10522   9.658   4.271   0.101  0.0165 -0.0195 -0.2892
 6323W        W10523   8.243   6.099   4.238 -0.1180  0.0247  0.1568
 6324W        W10524   7.965   5.029  10.142  0.1401  0.0201  0.2843
 6325W        W10525   8.712   6.367   0.020 -0.1641 -0.0894  0.2627
 6326W        W10526   1.543   3.741  11.985 -0.0170  0.2460  0.0452
 6327W        W10527   2.284   8.551  11.720 -0.0021 -0.1811 -0.0949
 6328W        W10528   8.231   7.885  11.161  0.1619 -0.0959 -0.1940
 6329W        W10529   8.923   4.886   9.852 -0.0012 -0.1385 -0.0493
 6330W        W10530   4.706   4.593   1.419  0.0012  0.0444 -0.0761
 6331W        W10531   6.583   3.576   3.742  0.0115 -0.1697 -0.2010
 6332W        W10532   9.221   0.066  13.060 -0.1722  0.1423 -0.2167
 6333W        W10533   4.140   3.288  11.370 -0.0538 -0.2080 -0.0865
 6334W        W10534   2.654   9.499  12.900 -0.0259  0.2303  0.0401
 6335W        W10535   3.694   9.933   3.376 -0.1024 -0.0891 -0.1920
 6336W        W10536   5.630   2.572  11.444 -0.0807  0.0633  0.0861
 6337W        W10537   4.597   4.075   2.415 -0.1621  0.1049  0.2075
 6338W        W10538   0.247   2.120  12.448 -0.0775  0.0313 -0.0604
 6339W        W10539   1.693   2.697  11.163  0.0108 -0.1112 -0.0091
 6340W        W10540   8.558   6.463   2.023 -0.0063 -0.1401  0.0016
 6341W        W10541   7.347   9.887   2.118  0.0619 -0.1041  0.2489
 6342W        W10542   8.736   9.611   9.111 -0.0193 -0.1977  0.0559
 6343W        W10543   0.250   1.044   9.534  0.1316 -0.1326  0.1672
 6344W        W10544   2.577   6.881   3.377  0.0012 -0.2857  0.0854
 6345W        W10545   7.389   0.641  13.331  0.2956  0.0956 -0.2966
 6346W        W10546   0.689   5.726  13.437 -0.1701 -0.1705 -0.2232
 6347W        W10547   9.384   2.467   3.360  0.2314  0.0401 -0.3010
 6348W        W10548   0.142   6.079   2.933  0.1035  0.0420  0.1787
 6349W        W10549   9.078   7.896  10.652 -0.2926  0.1906 -0.0407
 6350W        W10550   6.283   0.199  10.640 -0.0353  0.1219 -0.1095
 6351W        W10551   0.673   3.075  10.525 -0.1882  0.3547  0.1205
 6352W        W10552   5.672   0.580   2.851  0.1180  0.1811 -0.0191
 6353W        W10553   3.872   6.349   3.298  0.0550  0.0360  0.4589
 6354W        W10554   3.721   2.082  12.702 -0.1803  0.1535 -0.1131
 6355W        W10555   7.322   5.722  10.987  0.0778  0.2563 -0.2400
 6356W        W10556   8.881   7.333   2.314  0.0362  0.3132  0.1372
 6357W        W10557   3.220   6.729   2.549 -0.0542  0.1672 -0.0565
 6358W        W10558   2.540   2.387   0.627  0.0308 -0.1237 -0.0198
 6359W        W10559   4.982   5.924  11.641 -0.1475 -0.0679 -0.1670
 6360W        W10560   1.106   0.835   4.821  0.0819  0.1032  0.3729
 6361W        W10561   6.020   5.579  12.994 -0.1539 -0.1545 -0.2421
 6362W        W10562   2.919   6.356  10.357  0.0076 -0.3140  0.3493
 6363W        W10563   4.898   0.802   9.232 -0.4970 -0.0578  0.2420
 6364W        W10564   0.059   6.210   3.844 -0.4349  0.1279  0.1577
 6365W        W10565   1.525   9.096  10.427  0.0398  0.0618 -0.0664
 6366W        W10566   2.951   1.993   1.149 -0.3375 -0.0531 -0.2573
 6367W        W10567   7.275   9.184   4.456  0.3077  0.0769  0.2067
 6368W        W10568   8.860  10.338   8.665  0.1896 -0.1542 -0.1132
 6369W        W10569   5.610   2.796   1.479  0.0107  0.2291  0.1832
 6370W        W10570   0.906   2.212   1.787  0.2293 -0.0162 -0.0003
 6371W        W10571   3.002   5.210   0.084  0.3111 -0.0751  0.0767
 6372W        W10572   3.700   9.351   2.541  0.0091  0.2564  0.0121
 6373W        W10573   8.047   4.642   3.890 -0.1808  0.0630 -0.2358
 6374W        W10574   1.671   8.040   1.674  0.1513 -0.3532 -0.0368
 6375W        W10575  10.281   4.643   0.791  0.1406  0.0656 -0.3163
 6376W        W10576   1.743   1.702   1.313  0.4117  0.2852  0.1317
 6377W        W10577   3.666   0.481  12.740 -0.0505 -0.2770  0.2555
 6378W        W10578   2.908   5.523   0.619 -0.0808  0.0117  0.0300
 6379W        W10579   2.772   2.291   3.303 -0.1566  0.0441 -0.0258
 6380W        W10580   7.920   2.139   9.980  0.0239  0.1471  0.2555
 6381W        W10581   5.827   8.248   2.019  0.0131 -0.3672 -0.0922
 6382W        W10582   6.891   5.993   1.624 -0.1472 -0.2146 -0.1814
 6383W        W10583   3.831   9.521  12.242  0.1576  0.0639 -0.0269
 6384W        W10584   7.981   7.984   1.984 -0.4073  0.0504 -0.1373
 6385W        W10585   4.080   9.950  10.382  0.0040  0.1396  0.4167
 6386W        W10586   2.245   3.418   2.799 -0.1400  0.0982 -0.0353
 6387W        W10587   1.212   1.170   0.140  0.3802 -0.2108  0.1627
 6388W        W10588   2.582   3.838  10.762 -0.2348 -0.0622 -0.3360
 6389W        W10589   4.590   5.696  13.401 -0.2467  0.1805 -0.0832
 6390W        W10590  10.416   4.577  11.326  0.0440 -0.1722 -0.1886
 6391W        W10591   2.325   3.315  12.477  0.0812 -0.2160 -0.0573
 6392W        W10592   9.476   7.316  11.614  0.0329 -0.0506  0.0278
 6393W        W10593   0.484   6.592  11.219  0.1326 -0.1208 -0.1147
 6394W        W10594   9.667   0.745  10.784 -0.1011 -0.2314  0.1161
 6395W        W10595   8.838   5.938   1.814  0.3155 -0.1653  0.1332
 6396W        W10596   6.004   8.641  11.482 -0.3975 -0.0957  0.2353
 6397W        W10597  10.447   5.284   1.442 -0.0277 -0.0308 -0.0357
 6398W        W10598   4.743  10.355  12.504 -0.0456 -0.0522 -0.1485
 6399W        W10599   4.920   5.543  10.969 -0.0365 -0.2921 -0.0097
 6400W        W10600   7.734   1.036   3.464  0.3148 -0.1423 -0.3822
 6401W        W10601   6.418   1.127   1.429 -0.0711  0.0476  0.1593
 6402W        W10602  10.035   8.332   3.172  0.1512 -0.0209  0.0957
 6403W        W10603   7.181   1.904   3.212 -0.1289  0.1882  0.0113
 6404W        W10604   1.110   0.242   2.165  0.4247  0.1750  0.1254
 6405W        W10605   2.575   0.384   3.027 -0.0207 -0.2968  0.0566
 6406W        W10606   6.736   6.425  11.146 -0.0647  0.3805 -0.0582
 6407W        W10607   0.978   8.668  12.398 -0.1264 -0.2090  0.2397
 6408W        W10608   0.256  10.320   0.339 -0.1874 -0.2121  0.3143
 6409W        W10609   9.434   3.790   3.093  0.0430  0.2693  0.0402
 6410W        W10610   1.098   5.410   0.246 -0.0822  0.0675  0.0283
 6411W        W10611   1.259   6.890  12.303  0.2194  0.3423  0.1575
 6412W        W10612   9.628   9.136   1.693  0.0111  0.0156 -0.2190
 6413W        W10613   6.293   3.685   0.853 -0.2213 -0.2533 -0.0464
 6414W        W10614   3.298   5.913   9.450 -0.2224  0.3166 -0.0913
 6415W        W10615   1.237   3.472  11.040  0.0835 -0.2237 -0.0488
 6416W        W10616   4.546   7.776   3.607  0.3420 -0.1464  0.1231
 6417W        W10617   1.154   4.711  12.804  0.2231  0.0856  0.5608
 6418W        W10618   7.020   4.938   1.102 -0.0655 -0.0282 -0.1682
 6419W        W10619   3.589   7.671  11.123 -0.1925  0.2037  0.0048
 6420W        W10620   6.128  10.446   9.379 -0.0786 -0.0258 -0.0109
 6421W        W10621  10.191   0.840   4.405  0.1232  0.0009 -0.0249
 6422W        W10622   5.618   6.024   0.038 -0.3289 -0.3679 -0.3074
 6423W        W10623   0.209   0.034   1.595 -0.2335 -0.0186  0.2854
 6424W        W10624   3.654   9.295   3.401 -0.1176 -0.2641  0.0911
 6425W        W10625   0.068   8.175  11.204 -0.1288 -0.0600 -0.0779
 6426W        W10626   1.253   7.615   9.010 -0.1482  0.0929  0.1724
 6427W        W10627   5.964   1.301   2.661  0.0198 -0.0180  0.1660
 6428W        W10628   9.349   5.062   0.889  0.0034  0.0984 -0.2093
 6429W        W10629   1.393   6.536  11.747  0.1062 -0.0203 -0.0551
 6430W        W10630   9.937   3.988   9.709 -0.1678  0.0452  0.0294
 6431W        W10631   9.518   5.961  12.497 -0.1554 -0.1782  0.0736
 6432W        W10632   9.817   3.822   1.140  0.0493  0.3440 -0.1883
 6433W        W10633   7.283   3.805  10.982  0.0949  0.2228 -0.3592
 6434W        W10634   7.742   9.952   1.803 -0.2329 -0.0893 -0.1143
 6435W        W10635   1.134   3.430   9.287  0.1297  0.0485  0.0514
 6436W        W10636   6.728   0.464  11.130  0.1354 -0.1660  0.0484
 6437W        W10637   8.655   7.398   9.584 -0.1879  0.0410 -0.2667
 6438W        W10638   6.462   7.807  11.020 -0.1646  0.1792 -0.0474
 6439W        W10639   1.141   3.003   0.386  0.3933  0.1846  0.4201
 6440W        W10640   8.720   2.735  13.277  0.3363 -0.1161  0.2238
 6441W        W10641   3.330   2.550  13.448 -0.1765 -0.3539  0.0040
 6442W        W10642   0.221   0.952  12.901  0.1657  0.0338  0.2535
 6443W        W10643   1.838   5.004   0.614 -0.2237  0.0664 -0.0777
 6444W        W10644   9.861   6.924   2.567  0.1284  0.1242  0.1277
 6445W        W10645   3.036   1.698  10.352  0.2768 -0.3087 -0.0223
 6446W        W10646   8.755   6.153   0.464  0.0102 -0.0844 -0.2633
 6447W        W10647   8.882   9.989   9.976  0.0711  0.1454 -0.1269
 6448W        W10648   2.558   3.617  11.423  0.3295  0.0404 -0.0684
 6449W        W10649   9.506   4.544   3.963  0.0741  0.2967  0.0429
 6450W        W10650   7.470   0.326   3.347 -0.0330  0.0191  0.1892
 6451W        W10651   6.523   5.418  12.869 -0.1212  0.0408 -0.3876
 6452W        W10652   5.294   9.234  10.612 -0.3107 -0.1985 -0.0248
 6453W        W10653   0.512   2.784   1.187 -0.0145  0.1065  0.3063
 6454W        W10654   1.081   6.290   3.217  0.4172 -0.0777 -0.0129
 6455W        W10655   1.436   7.690  10.451  0.0844  0.1958 -0.1167
 6456W        W10656   8.677   3.252  13.314  0.0543 -0.0191 -0.1100
 6457W        W10657   9.463   5.561   4.097 -0.0014  0.2571 -0.0667
 6458W        W10658   1.484   6.084  12.766 -0.0546 -0.1444  0.1268
 6459W        W10659   6.791   1.470  13.295 -0.0163 -0.2796  0.2217
 6460W        W10660   7.183   9.557   4.080  0.0126 -0.1007 -0.2264
 6461W        W10661   7.739   9.267  10.750 -0.2600  0.3319  0.2816
 6462W        W10662   5.407   9.943   2.186 -0.3665  0.0377  0.1296
 6463W        W10663   0.485   1.755  13.347  0.0676 -0.1171  0.1217
 6464W        W10664   2.906   1.619   9.889  0.0471 -0.1748  0.1226
 6465W        W10665   6.439   5.493   3.258  0.1886 -0.0608 -0.0334
 6466W        W10666   8.417   4.070   4.779 -0.0165  0.3081 -0.0118
 6467W        W10667   6.959   5.708   3.845  0.0547 -0.1404  0.0033
 6468W        W10668   3.387   8.079  12.894  0.1389  0.0483  0.1111
 6469W        W10669   6.244   8.058   2.230 -0.1641  0.2593 -0.1530
 6470W        W10670   6.076   4.214   0.568  0.1319  0.0773 -0.1915
 6471W        W10671   6.320   6.127   3.811  0.1898  0.5177 -0.2114
 6472W        W10672   5.223   5.239   3.611  0.0146  0.0816 -0.0194
 6473W        W10673   6.529   9.129   0.137 -0.0181 -0.0314 -0.1047
 6474W        W10674   7.598   2.817   2.936 -0.3175 -0.0852  0.3179
 6475W        W10675   2.605   6.807  11.560 -0.2322 -0.0170  0.0998
 6476W        W10676   6.189   4.895  10.437 -0.1464  0.0008  0.0277
 6477W        W10677   6.532   0.025   0.291  0.5299  0.1452 -0.0158
 6478W        W10678   6.918   7.835   9.606 -0.0387  0.1256  0.1718
 6479W        W10679   7.535   3.634   1.392  0.2814  0.0039  0.0490
 6480W        W10680   0.026   2.404  12.840 -0.2553 -0.2744  0.1370
 6481W        W10681   4.135   7.595   2.973  0.2150 -0.2506  0.2134
 6482W        W10682   0.424   3.584   0.164  0.1912  0.3058 -0.0167
 6483W        W10683   8.526   5.556  13.026  0.0238 -0.0046  0.0976
 6484W        W10684   9.333   9.158   2.616 -0.1147  0.1488  0.1116
 6485W        W10685   6.188   7.689  10.297 -0.0357 -0.5523  0.1874
 6486W        W10686  10.181   9.790  10.836  0.1411  0.0301 -0.0456
 6487W        W10687   0.306   4.917   8.090  0.1734  0.1605  0.2608
 6488W        W10688   7.597   6.998   1.688  0.1430  0.0233 -0.0658
 6489W        W10689  10.232   4.118  11.544 -0.1639 -0.1118 -0.2856
 6490W        W10690  10.183   6.844   3.210  0.1087  0.2045 -0.1449
 6491W        W10691   0.038   9.048   2.665 -0.2404  0.0650  0.0369
 6492W        W10692  10.425   1.512   9.430 -0.2504  0.1202 -0.1767
 6493W        W10693   6.789   6.494   9.646 -0.0919  0.3223  0.1877
 6494W        W10694   2.363   4.493   1.028  0.0702 -0.0128  0.4346
 6495W        W10695   0.660   6.141   9.077 -0.2730  0.2040 -0.0571
 6496W        W10696   1.710   1.147  12.890 -0.4594 -0.2335  0.1388
 6497W        W10697   9.166   5.898   8.826 -0.1016  0.1896  0.0019
 6498W        W10698   9.230   1.034   9.810 -0.0079  0.3171  0.1272
 6499W        W10699   5.234   2.051   3.824  0.1204  0.0321 -0.0548
 6500W        W10700   9.544   0.548   8.506 -0.2318  0.0642  0.1066
 6501W        W10701   4.642   7.374  13.423  0.0256 -0.0563 -0.0757
 6502W        W10702   9.293   4.634   1.208  0.0190 -0.0339 -0.0778
 6503W        W10703   2.251   6.458   2.511 -0.0393 -0.0787  0.1877
 6504W        W10704   4.915   2.469   0.861  0.0407 -0.2217 -0.1296
 6505W        W10705   3.183   7.436  10.300 -0.1175  0.2261 -0.1730
 6506W        W10706   7.018   6.965  10.436 -0.1947 -0.1809 -0.3576
 6507W        W10707   5.341   7.934   3.783  0.0662  0.3152  0.3295
 6508W        W10708   6.777   4.491   2.339 -0.0143 -0.1635 -0.0719
 6509W        W10709   7.153   6.998   2.014  0.2317  0.1322  0.3635
 6510W        W10710   7.519   5.491   4.842 -0.0256 -0.0012 -0.1924
 6511W        W10711   8.890  10.090   2.779  0.1760  0.1193  0.0426
 6512W        W10712   7.021   7.786   9.032  0.0039  0.1273 -0.1903
 6513W        W10713   6.650   8.326  10.944 -0.0522 -0.0478 -0.0108
 6514W        W10714   0.704   9.112   0.923 -0.2158  0.1836 -0.1985
 6515W        W10715   3.566   5.521   3.979 -0.1550 -0.1199  0.0259
 6516W        W10716   7.815   2.646   0.883  0.0285 -0.1275 -0.0677
 6517W        W10717   3.699   4.008  11.042 -0.1662 -0.2032 -0.5993
 6518W        W10718   0.426   9.403  10.377  0.0926 -0.2849  0.0862
 6519W        W10719   1.565   9.485   4.042  0.1919 -0.5048  0.0398
 6520W        W10720   7.745   8.463  10.881  0.3781  0.2239  0.0480
 6521W        W10721   9.889   1.441   9.501 -0.1301  0.0081 -0.0881
 6522W        W10722   3.747   0.372   4.908 -0.2948 -0.0617 -0.2319
 6523W        W10723   2.669   9.451   1.931  0.2979 -0.0798  0.2063
 6524W        W10724   9.371   1.052  11.007  0.2876  0.0976  0.0611
 6525W        W10725   3.914   7.166  12.136  0.5102  0.3108  0.0318
 6526W        W10726   2.985   3.023  13.429 -0.2945  0.2219 -0.1227
 6527W        W10727   2.956   2.000   1.717  0.1500  0.0806 -0.0095
 6528W        W10728   3.707   2.948   2.635  0.0147 -0.0576  0.3140
 6529W        W10729   2.616   1.095   3.721 -0.1050 -0.0363  0.0692
 6530W        W10730   6.275   8.719  10.392  0.1924 -0.2836 -0.0605
 6531W        W10731  10.144   6.335  10.122  0.0510 -0.2680 -0.0793
 6532W        W10732   0.628   3.922   9.973  0.0637 -0.0774 -0.0422
 6533W        W10733   9.111   5.971   2.826  0.0536 -0.1612  0.3694
 6534W        W10734   0.436   0.791  11.034  0.0522 -0.0144  0.0309
 6535W        W10735   4.789   9.960   0.022  0.1345 -0.1901  0.0847
 6536W        W10736   3.029   5.319  11.700 -0.1802 -0.1102  0.0143
 6537W        W10737   6.391   5.611   4.606  0.2233 -0.2903 -0.0323
 6538W        W10738  10.003   7.376   8.873  0.0723 -0.3121  0.1472
 6539W        W10739   2.062   9.405  12.644  0.1151 -0.1745 -0.1723
 6540W        W10740   9.150   4.193   3.832 -0.0045 -0.0297 -0.2057
 6541W        W10741   0.817   4.112  12.228 -0.3247 -0.1772  0.1604
 6542W        W10742   9.839   5.886   4.981 -0.0934  0.0945  0.0924
 6543W        W10743   0.424   9.635   1.136  0.6682  0.1010  0.0185
 6544W        W10744   5.430   8.539  12.864  0.2593  0.4725  0.3140
 6545W        W10745   6.546   4.945  12.062  0.0279  0.1631  0.1172
 6546W        W10746  10.287   9.163   0.555 -0.1097 -0.1705  0.2058
 6547W        W10747   0.918   6.951  10.116  0.2308  0.1700  0.1627
 6548W        W10748   8.358   7.259  10.380  0.1125  0.4975  0.0015
 6549W        W10749   5.811   5.806  12.604  0.0844  0.2459  0.2586
 6550W        W10750   9.663   9.096   4.285  0.0708 -0.0950 -0.2593
 6551W        W10751   7.019   4.907   1.665 -0.3846  0.2928  0.2410
 6552W        W10752   2.888   6.421   2.755 -0.1298  0.0192 -0.1063
 6553W        W10753   4.656   1.579   0.510  0.1050  0.3759  0.0566
 6554W        W10754   0.715   2.010   9.008 -0.1900  0.4192 -0.0825
 6555W        W10755   2.197   0.300  10.111 -0.2103 -0.1514 -0.0524
 6556W        W10756   0.034  10.205   8.884 -0.0575 -0.0228 -0.0835
 6557W        W10757   5.341   6.817  11.463  0.4062 -0.0062  0.2558
 6558W        W10758  10.041   2.151   4.131 -0.1717 -0.0946 -0.2060
 6559W        W10759   3.779   3.691   2.879 -0.0974  0.0552 -0.0367
 6560W        W10760   4.661   0.123   2.869 -0.1620  0.0326  0.0923
 6561W        W10761   7.908   7.601   2.300  0.1808 -0.0408  0.0419
 6562W        W10762   8.415   3.176  10.185  0.0762  0.1549 -0.2277
 6563W        W10763   5.846   7.790  11.286 -0.1087 -0.1392 -0.0406
 6564W        W10764   4.369   1.054   2.954  0.2401 -0.2210  0.3584
 6565W        W10765   0.512   5.517   0.928  0.0323 -0.2822 -0.3383
 6566W        W10766   8.483   8.924   2.385 -0.1800  0.0055 -0.1754
 6567W        W10767   8.256   7.314   4.110 -0.1128  0.0764  0.0095
 6568W        W10768   4.652   9.580   1.647  0.1286  0.4359 -0.1546
 6569W        W10769   5.944   0.092   0.720 -0.0358  0.0095  0.0258
 6570W        W10770   9.802   0.432   1.980  0.0339  0.0817 -0.1492
 6571W        W10771   2.648   1.615  10.695  0.1139  0.0152  0.2326
 6572W        W10772   1.480   5.742   0.240  0.2395 -0.0227  0.0906
 6573W        W10773   1.142   4.192   8.701  0.0036  0.2061 -0.4124
 6574W        W10774   5.524   0.318   2.003  0.0384 -0.1104  0.1743
 6575W        W10775   8.160   8.604  13.100 -0.3952 -0.4412 -0.0217
 6576W        W10776   9.390   1.142   2.202  0.2761 -0.1122  0.0018
 6577W        W10777   1.075   7.831  12.082  0.0121 -0.0753  0.0694
 6578W        W10778   8.938   8.825   8.903  0.0220  0.2916 -0.0349
 6579W        W10779   6.321   4.325   1.749  0.0217 -0.3813  0.0603
 6580W        W10780   9.939   4.608  11.629 -0.1047 -0.2788 -0.1707
 6581W        W10781   4.223   4.284  10.547  0.3081 -0.2212  0.3145
 6582W        W10782   7.473   9.910   4.107  0.2770 -0.2145  0.2262
 6583W        W10783   6.968   4.332  10.636 -0.2121 -0.0770  0.0668
 6584W        W10784   8.481  10.460   1.214  0.1603 -0.0490 -0.0577
 6585W        W10785   4.177   1.196   1.335  0.1117 -0.3170  0.1218
 6586W        W10786   2.101   7.491  11.355 -0.1381  0.1509 -0.1614
 6587W        W10787   8.930   8.616  11.284 -0.2670 -0.3474  0.1871
 6588W        W10788   4.435   5.827   0.770  0.0249 -0.0592 -0.3428
 6589W        W10789   5.897   9.172  12.365  0.0742 -0.0672 -0.1763
 6590W        W10790   3.469   8.840   3.564 -0.1319 -0.0559 -0.0510
 6591W        W10791   5.237   7.985  12.189 -0.3893 -0.0280  0.4206
 6592W        W10792   8.938   0.430  12.416 -0.1537  0.1281  0.2130
 6593W        W10793   6.139   3.654   4.986 -0.2756  0.0017 -0.1715
 6594W        W10794   0.032   8.525   1.710 -0.5205  0.0503 -0.0977
 6595W        W10795   1.084   5.079   2.190 -0.1466  0.1148 -0.1703
 6596W        W10796   1.746   0.790  12.524 -0.3126 -0.1634  0.2698
 6597W        W10797   9.238   4.585   9.495  0.0098  0.1276 -0.1648
 6598W        W10798   5.993   1.168   1.683 -0.2505  0.1927  0.2050
 6599W        W10799   9.686   2.739   3.676  0.0085 -0.1490 -0.1789
 6600W        W10800   5.827   2.608  10.909 -0.1406  0.2948  0.0816
 6601W        W10801   6.147  10.299   2.828  0.2425 -0.0569  0.0895
 6602W        W10802   5.797   9.944   4.877  0.0268 -0.2152 -0.1228
 6603W        W10803   1.756   6.540   2.680 -0.0285  0.0340  0.0589
 6604W        W10804   5.986   2.361   1.742 -0.2922 -0.1180 -0.0938
 6605W        W10805   1.974   9.609  10.113 -0.2627  0.3515 -0.1526
 6606W        W10806   3.942   3.277   9.500 -0.3187 -0.2246  0.1745
 6607W        W10807   0.378   6.846  13.323 -0.2706 -0.1036 -0.0953
 6608W        W10808   2.316  10.418   0.030 -0.1079 -0.0849  0.0540
 6609W        W10809   5.238   6.872   0.976  0.1497 -0.1225 -0.0676
 6610W        W10810   1.844   0.071  11.607  0.0917  0.0284  0.1140
 6611W        W10811   4.590   2.433  11.233  0.1518 -0.1193  0.0635
 6612W        W10812   6.046   9.047   1.605  0.2744 -0.1405 -0.3602
 6613W        W10813   8.938   4.812  11.647  0.2671 -0.0593  0.0575
 6614W        W10814   9.426   6.436   0.957 -0.1359 -0.1482 -0.1389
 6615W        W10815   3.754   1.575  12.641  0.0701 -0.0282  0.1462
 6616W        W10816   8.945   9.381  11.604 -0.1390 -0.3677 -0.4584
 6617W        W10817   6.686   9.208   9.707  0.0529 -0.1845 -0.0814
 6618W        W10818  10.472   9.752   2.096  0.0789  0.1630  0.2404
 6619W        W10819   9.027   6.902   9.619 -0.0980  0.2061  0.0028
 6620W        W10820   7.496   0.606   4.262  0.1188  0.1363  0.0616
 6621W        W10821   7.091   8.569   0.906 -0.0227 -0.1545  0.0392
 6622W        W10822   5.102   3.521   1.801  0.2262 -0.0717  0.3285
 6623W        W10823   4.469   1.534   1.494 -0.1250  0.1346  0.0622
 6624W        W10824   3.336   2.852   1.696  0.0576 -0.1535  0.6890
 6625W        W10825   1.418   6.310  10.583 -0.3751 -0.0648  0.0969
 6626W        W10826  10.374   6.565   2.824  0.0318  0.2184  0.0060
 6627W        W10827   1.365   0.178   3.614  0.0442 -0.3321 -0.0998
 6628W        W10828   8.280   3.277  12.551  0.2998  0.0003  0.2006
 6629W        W10829   6.820   1.414   2.055  0.1082  0.1996 -0.2504
 6630W        W10830   8.294   6.555   9.797 -0.0926 -0.2774  0.1914
 6631W        W10831   4.483   3.288   2.839 -0.0992  0.0263 -0.0816
 6632W        W10832   7.745   4.334   0.883 -0.0922  0.0474  0.1166
 6633W        W10833   3.830   5.857   0.565  0.1381 -0.0416 -0.0172
 6634W        W10834   5.513   8.478  10.606  0.0687 -0.0169 -0.2087
 6635W        W10835   6.231   8.795  10.858 -0.3305  0.0980  0.2375
 6636W        W10836   9.139   8.575   4.445 -0.1796 -0.0210  0.2195
 6637W        W10837   5.182   3.071  10.076 -0.1821  0.2167  0.0409
 6638W        W10838   6.023   6.143   2.839  0.2155  0.2872  0.2649
 6639W        W10839   1.304   8.794   1.925  0.1382  0.2564  0.1643
 6640W        W10840   9.985   2.563  10.658 -0.0142 -0.0793 -0.4233
 6641W        W10841   0.681   0.922   3.491 -0.2052 -0.2116 -0.0799
 6642W        W10842   6.339   8.577   3.824 -0.2008  0.0787 -0.1132
 6643W        W10843   2.766   8.255  10.843 -0.3052  0.1385  0.1874
 6644W        W10844   9.258   5.514  11.641 -0.2493  0.2004  0.1088
 6645W        W10845   7.929   1.439  11.900  0.0052 -0.1455  0.1691
 6646W        W10846   8.718   8.608  10.838 -0.0063  0.0800 -0.0680
 6647W        W10847   1.072   3.331  12.937 -0.0409  0.1264  0.2598
 6648W        W10848   6.209   0.807   9.825 -0.0510 -0.0394  0.1602
 6649W        W10849   3.783   5.288  12.439 -0.1857 -0.1752 -0.0948
 6650W        W10850   7.706   7.748  12.417  0.0012 -0.1906  0.4470
 6651W        W10851   6.516   5.596   9.358  0.1680 -0.1272  0.2397
 6652W        W10852   2.836   4.687   1.044 -0.0249  0.2314  0.1614
 6653W        W10853  10.153   8.914   4.235  0.2000  0.1834  0.1385
 6654W        W10854   8.881   4.730   3.901 -0.2319  0.0558 -0.0924
 6655W        W10855   2.136   3.570   3.712 -0.1289  0.0917 -0.0955
 6656W        W10856   0.119   4.903   2.345 -0.1025  0.0195  0.2290
 6657W        W10857   9.587   7.564   8.693  0.1002  0.4129 -0.5375
 6658W        W10858   8.868   6.841   2.103 -0.0909  0.0085 -0.0258
 6659W        W10859   5.102   9.864   0.418  0.2631 -0.0348 -0.2247
 6660W        W10860   7.185   9.685   8.620 -0.2646 -0.1822 -0.3143
 6661W        W10861   0.498   3.317  11.407  0.3120 -0.0659 -0.0555
 6662W        W10862   9.395   6.193   2.382  0.2057 -0.1698  0.1227
 6663W        W10863   7.803   0.805   1.498 -0.3456  0.2655  0.0317
 6664W        W10864   4.954   4.230   3.146  0.0665  0.0988  0.0293
 6665W        W10865   3.750   0.521   3.469 -0.1677 -0.1486  0.0605
 6666W        W10866   1.249  10.464   1.326  0.1955 -0.0821 -0.1359
 6667W        W10867   0.060   0.698   0.129  0.0253  0.0062 -0.3465
 6668W        W10868   8.066   9.828   9.964 -0.3107  0.1293  0.1116
 6669W        W10869   9.729   1.914   1.566  0.1699  0.4497 -0.0695
 6670W        W10870   9.073   0.887  12.605 -0.1350 -0.1792  0.1406
 6671W        W10871   1.159   6.700   0.126 -0.1458 -0.1909 -0.3534
 6672W        W10872   9.609   6.080   4.239 -0.2154  0.0731 -0.2075
 6673W        W10873  10.197   9.847   4.287  0.0498  0.1018 -0.1355
 6674W        W10874   0.647   4.565  10.858  0.0664 -0.1573  0.0985
 6675W        W10875   2.061   9.558  11.173 -0.1198  0.2321  0.1021
 6676W        W10876   8.574   2.160  10.490 -0.1526 -0.2816 -0.4569
 6677W        W10877   4.709   8.279  11.264  0.1027 -0.0183  0.0225
 6678W        W10878  10.466   6.899  11.035 -0.0890 -0.1797  0.4468
 6679W        W10879   2.480   3.116   3.887 -0.2123 -0.1430  0.0734
 6680W        W10880   2.449   4.839  12.690 -0.0602 -0.0978 -0.0601
 6681W        W10881   1.720  10.030   1.184  0.0477 -0.1075 -0.0650
 6682W        W10882   4.831   1.531   3.612  0.1610  0.2236  0.0819
 6683W        W10883   9.381   5.604  13.311  0.0042 -0.0818  0.0238
 6684W        W10884   6.674   2.020   4.450 -0.0798  0.0388  0.0886
 6685W        W10885   0.439   7.199   0.981  0.2561 -0.1708  0.2162
 6686W        W10886   7.066   4.455   1.877 -0.0317 -0.0919 -0.0513
 6687W        W10887   7.157   2.515   4.763  0.3252  0.0191  0.0884
 6688W        W10888   2.190   0.369   1.282 -0.2272  0.0387 -0.0442
 6689W        W10889   5.912   3.833   2.112  0.0853  0.2302  0.3328
 6690W        W10890   0.213   7.445   3.143 -0.1566  0.2279 -0.1477
 6691W        W10891   5.775   6.390   0.346 -0.1124 -0.0773  0.1810
 6692W        W10892   0.955  10.191  13.003  0.0861 -0.1591  0.3322
 6693W        W10893   0.918   9.412  11.200 -0.5959  0.4663  0.0491
 6694W        W10894   2.824   1.893   4.581  0.0945  0.1381  0.1409
 6695W        W10895   3.728   8.426  10.982  0.2695 -0.0335 -0.0585
 6696W        W10896   8.309   3.989  10.825 -0.0720  0.1929  0.0208
 6697W        W10897   0.252   5.040   1.021 -0.2129 -0.1017  0.1071
 6698W        W10898   8.948   7.254   1.554  0.0703 -0.1909  0.0232
 6699W        W10899   8.310   3.474  13.008 -0.1117  0.0814 -0.0335
 6700W        W10900   3.064   1.506   0.426 -0.1041 -0.1667 -0.1016
 6701W        W10901   7.103   9.916   3.055 -0.0882  0.1762 -0.0587
 6702W        W10902   8.603   7.221  10.872  0.0245 -0.1446 -0.2176
 6703W        W10903   2.296   6.396  11.339  0.2328 -0.0196  0.1321
 6704W        W10904   8.253   0.726   0.564  0.1783  0.2219 -0.0556
 6705W        W10905   9.034   5.958  10.912 -0.2620  0.0202 -0.0749
 6706W        W10906   3.678   2.042   2.814  0.1812 -0.0589  0.0188
 6707W        W10907   9.607   7.419  11.150 -0.2049  0.1104 -0.2170
 6708W        W10908   0.232   1.286  13.439  0.1218  0.0285 -0.0189
 6709W        W10909   7.576   4.151  12.000 -0.1054  0.0184  0.4337
 6710W        W10910   7.157   1.530  11.214  0.2737  0.2759 -0.1722
 6711W        W10911   4.734   6.913   3.470 -0.1147  0.0573 -0.0084
 6712W        W10912  10.253   1.215   3.288  0.1510  0.0375  0.1962
 6713W        W10913   2.526   5.076   0.243  0.2745 -0.1580  0.3823
 6714W        W10914   6.303   0.671  11.391 -0.1207 -0.3393 -0.1491
 6715W        W10915   2.285   2.815   1.943 -0.3647 -0.0427 -0.2671
 6716W        W10916   3.716   2.444  10.322 -0.0988 -0.0388  0.2280
 6717W        W10917   6.478   6.502  10.648 -0.1830  0.2394  0.0715
 6718W        W10918   2.483   2.997  11.148  0.1857  0.4854  0.0632
 6719W        W10919   6.648   7.275   4.020  0.0928  0.2639  0.1355
 6720W        W10920  10.341   3.890  10.723  0.1746 -0.0459 -0.0912
 6721W        W10921   1.126   5.300  11.247 -0.0022 -0.4263 -0.0736
 6722W        W10922   2.112   0.008   2.988  0.2105 -0.2006 -0.1895
 6723W        W10923   1.676   8.695   2.261  0.0333  0.1775  0.0433
 6724W        W10924   7.378   7.963  11.364 -0.1745  0.2873  0.0076
 6725W        W10925  10.099   5.624  11.703 -0.0796  0.6467 -0.2163
 6726W        W10926   9.831   7.975  10.051  0.0430 -0.1773  0.2937
 6727W        W10927   4.709   0.827  12.953 -0.0909 -0.2599 -0.0108
 6728W        W10928   5.895   2.344   0.314  0.1525  0.0869 -0.1396
 6729W        W10929   4.814   5.860   0.404  0.1896  0.2559  0.3661
 6730W        W10930   5.264   9.781   4.158  0.2675 -0.4730  0.0032
 6731W        W10931   9.409   3.862   0.878 -0.0867 -0.0122  0.0772
 6732W        W10932   3.865   6.350   1.178 -0.1426  0.0471  0.0784
 6733W        W10933   6.669  10.326   8.796  0.1040 -0.2419 -0.3178
 6734W        W10934   8.958   0.185   1.468  0.1892  0.0457  0.0890
 6735W        W10935   7.517   5.838   3.876  0.0257  0.1617 -0.0898
 6736W        W10936   2.912  10.058   3.090  0.0744 -0.1815 -0.2116
 6737W        W10937   8.986   1.707   5.029 -0.1335 -0.3299  0.0430
 6738W        W10938   2.643   5.700  12.320  0.2192  0.0723  0.1973
 6739W        W10939   2.308   1.489  12.862 -0.1340  0.1068 -0.2742
 6740W        W10940   1.414   3.381   1.416 -0.0308 -0.0182  0.0916
 6741W        W10941   7.732   9.406  11.722 -0.3649 -0.1050  0.1171
 6742W        W10942   2.031   2.312   3.232  0.1101  0.1224 -0.2584
 6743W        W10943   5.089   7.371   0.962  0.0887  0.2570 -0.1584
 6744W        W10944   8.787   1.504  12.042  0.1917 -0.4301  0.1570
 6745W        W10945   2.544   4.394  12.558 -0.0216  0.0426 -0.2666
 6746W        W10946   9.973   5.456   3.516 -0.1923  0.0338 -0.0082
 6747W        W10947   8.670   8.845  13.082  0.0018  0.0282 -0.2591
 6748W        W10948   1.403   5.865  10.991 -0.0711 -0.2517  0.0823
 6749W        W10949   5.406   9.976  12.710 -0.3663  0.0360  0.2666
 6750W        W10950   1.232   9.167   1.104 -0.0663  0.0169  0.1055
 6751W        W10951   2.324   3.127   4.402 -0.1476  0.0158  0.0245
 6752W        W10952   9.441   7.879  11.059 -0.1394 -0.2704  0.1292
 6753W        W10953   9.116   6.589   4.129 -0.3021 -0.3292  0.0234
 6754W        W10954   1.009   5.380   9.297  0.4241 -0.1534  0.1189
 6755W        W10955   7.948   4.562  10.205 -0.0334  0.0796  0.1526
 6756W        W10956   5.186   2.680  10.360  0.0936 -0.0691  0.1720
 6757W        W10957  10.075   1.966   2.877 -0.0610 -0.1788 -0.4148
 6758W        W10958   2.632   2.346   2.049  0.0752 -0.0407 -0.3984
 6759W        W10959   2.114   1.489  10.720 -0.0623 -0.2239 -0.0608
 6760W        W10960  10.193   9.541  10.009  0.0634  0.1914 -0.3786
 6761W        W10961   7.466   1.117  10.960  0.1260  0.0307 -0.0976
 6762W        W10962   4.614   0.087   1.307 -0.1965  0.2523  0.3336
 6763W        W10963   4.821   5.157   1.580 -0.1945  0.4460  0.0295
 6764W        W10964   4.357   3.256   9.822 -0.1398 -0.0790 -0.1349
 6765W        W10965   6.080   9.074  12.883 -0.0690  0.1875  0.0357
 6766W        W10966   7.007   2.813  12.749 -0.2505  0.0882  0.1338
 6767W        W10967   6.124   7.825  13.173  0.0621 -0.2415  0.1899
 6768W        W10968   9.263   8.520   1.520  0.1274  0.0392  0.1053
 6769W        W10969   1.496   1.148   3.145  0.1894  0.3222  0.0205
 6770W        W10970   9.247   9.437   4.330  0.2002 -0.0786  0.0230
 6771W        W10971  10.234   5.025   9.860  0.0248  0.1421 -0.1438
 6772W        W10972   0.545   3.190   4.179 -0.3492 -0.1933 -0.2302
 6773W        W10973   0.313   4.795   1.465  0.1494  0.2140  0.0159
 6774W        W10974   7.718   3.544   0.364  0.0244 -0.2222  0.1979
 6775W        W10975   6.477   6.556   8.896 -0.2581 -0.1255 -0.1939
 6776W        W10976   9.621   5.972   0.136 -0.0708  0.0912 -0.1058
 6777W        W10977   8.944   2.862   8.962  0.1131 -0.1565 -0.0608
 6778W        W10978   0.648   6.071   2.619 -0.0871  0.0617 -0.2594
 6779W        W10979   8.181   4.550   0.957  0.0095 -0.1072 -0.1960
 6780W        W10980   5.614   9.064  12.940  0.0138  0.1667  0.0644
 6781W        W10981   6.447   3.358   9.883  0.0495 -0.0071  0.0935
 6782W        W10982   6.332   2.049   0.372  0.1726  0.1084 -0.0697
 6783W        W10983   2.779   8.204   3.449  0.3071  0.2111 -0.2363
 6784W        W10984   7.630   0.714  10.261 -0.1076 -0.0606  0.1360
 6785W        W10985   4.203   4.987   0.144 -0.1070  0.0647  0.2950
 6786W        W10986   2.890   3.458   1.188  0.5707  0.1025  0.0402
 6787W        W10987   8.471   7.562  12.180 -0.1769  0.0855  0.0399
 6788W        W10988   7.038   7.506   2.198  0.1909 -0.0204 -0.0614
 6789W        W10989   2.683   1.515   2.319 -0.2247  0.1570  0.0240
 6790W        W10990   1.688   8.092  10.205  0.0497 -0.2672 -0.1120
 6791W        W10991   0.875   8.429   4.076  0.1031  0.2430 -0.0573
 6792W        W10992   5.662   5.137   9.090  0.0592  0.1675  0.0555
 6793W        W10993  10.184   6.895   8.872  0.1025 -0.4064 -0.0521
 6794W        W10994  10.474   3.431  12.372  0.1615 -0.0509  0.0143
 6795W        W10995   7.830   5.267  10.691 -0.4100 -0.3708  0.3123
 6796W        W10996   8.550   7.113  13.123  0.3145  0.3172 -0.3447
 6797W        W10997   0.984   6.031   0.938 -0.3928 -0.2319  0.0431
 6798W        W10998   3.237   4.022  11.970  0.0337 -0.0984 -0.3059
 6799W        W10999   8.187   0.537   9.026 -0.2295  0.2549  0.0123
 6800W        W11000   0.169   1.612   0.850  0.1234  0.1810  0.1569
 6801W        W11001   1.454   2.964  11.567  0.0181 -0.1678 -0.0304
 6802W        W11002   8.052   9.151   1.290 -0.0841  0.0608 -0.0267
 6803W        W11003   1.190   2.957  11.146  0.0175 -0.3329 -0.2854
 6804W        W11004   3.231   1.072  11.406  0.1261  0.2732  0.0487
 6805W        W11005   1.438   9.926  12.287 -0.0295 -0.1261 -0.0351
 6806W        W11006   6.534   9.169  13.067 -0.1925  0.0061  0.0476
 6807W        W11007  10.209   3.885   2.405 -0.0323  0.0376 -0.1072
 6808W        W11008   9.686   5.359  11.882  0.2216 -0.3651 -0.1977
 6809W        W11009   5.310   1.948  10.848  0.2348  0.0481 -0.0722
 6810W        W11010   0.193   7.335  10.010  0.0453 -0.0942  0.0595
 6811W        W11011   4.362   2.692   1.120 -0.2230 -0.1372 -0.0438
 6812W        W11012   8.638   2.328   4.518  0.1963 -0.1181  0.0334
 6813W        W11013   6.504   5.929   2.925 -0.3565 -0.0557  0.1481
 6814W        W11014  10.197   5.042   0.249  0.0391 -0.0190  0.0458
 6815W        W11015   2.466   5.766  12.895  0.2242  0.1164 -0.0439
 6816W        W11016   1.616   7.945   9.474  0.0912 -0.3193  0.0462
 6817W        W11017   2.264  10.269   2.182 -0.2108 -0.1034 -0.2963
 6818W        W11018  10.143   2.715   1.638  0.1375 -0.2094 -0.2152
 6819W        W11019   3.851   1.896   1.481 -0.0983 -0.1394  0.0093
 6820W        W11020   1.996   1.862   7.941  0.0232  0.0661 -0.1385
 6821W        W11021   1.816   4.532  10.166 -0.2303  0.2689  0.0905
 6822W        W11022   0.061   7.803   0.513  0.2989 -0.0878  0.1946
 6823W        W11023  10.105   3.311   1.116  0.3567 -0.0668 -0.0392
 6824W        W11024   0.285   2.739   3.902 -0.1302 -0.1389 -0.1188
 6825W        W11025   8.474   9.105   9.191 -0.0030 -0.0729 -0.2899
 6826W        W11026  10.386   8.108   3.844  0.5247  0.0914 -0.1827
 6827W        W11027   3.976  10.340  10.886 -0.3039  0.1373 -0.0646
 6828W        W11028   3.040   4.612   3.000  0.0821 -0.0941  0.0309
 6829W        W11029   6.827   3.119   2.380 -0.2229  0.4278 -0.1083
 6830W        W11030   0.150   7.634   9.616  0.0560 -0.0411 -0.3278
 6831W        W11031   3.244   5.323  12.626 -0.0676  0.0492 -0.0347
 6832W        W11032   6.702   0.499  10.088 -0.0485 -0.0433  0.1325
 6833W        W11033   0.417   5.185   3.325 -0.2260  0.2399  0.0891
 6834W        W11034  10.015   9.263  10.496  0.1616 -0.1515  0.4392
 6835W        W11035   1.261   4.689   4.324  0.2031 -0.0651 -0.2080
 6836W        W11036   6.031   9.855   3.655 -0.0783 -0.1693  0.0651
 6837W        W11037   0.858   9.716  13.103  0.1021 -0.0610 -0.1380
 6838W        W11038   2.872   1.223  12.595  0.1167 -0.1935 -0.4301
 6839W        W11039  10.420   8.103  10.486  0.0005 -0.3418  0.3303
 6840W        W11040   1.511   3.444  11.478  0.0123 -0.1091  0.1841
 6841W        W11041   1.267   2.362  12.364  0.1421  0.1500  0.0437
 6842W        W11042   6.645   3.566   0.209  0.1181 -0.2270 -0.2248
 6843W        W11043   1.687   2.629  12.636  0.2268 -0.0926  0.3049
 6844W        W11044   1.093   1.684  12.482 -0.0544 -0.4735 -0.1966
 6845W        W11045   1.830   7.668  12.883 -0.3470  0.1715 -0.0337
 6846W        W11046   4.742   8.438   9.051  0.1638 -0.1929  0.1993
 6847W        W11047  10.038   7.093  10.422 -0.1627 -0.1928  0.0088
 6848W        W11048   4.089   4.534   9.828 -0.0289  0.2655  0.0332
 6849W        W11049   5.494   9.488   1.975 -0.0333 -0.0523  0.0748
 6850W        W11050   4.179   4.396  13.098 -0.0280  0.0153  0.0630
 6851W        W11051   6.785   8.562   1.769 -0.0673  0.1625  0.3068
 6852W        W11052   3.330   0.702  13.082 -0.1622  0.1470  0.0153
 6853W        W11053   3.515   8.130   1.965 -0.0029  0.1313  0.1990
 6854W        W11054   6.204   8.246  11.262 -0.0590  0.0824 -0.1504
 6855W        W11055   0.239   5.319   0.166 -0.0787 -0.2396  0.1537
 6856W        W11056   8.379   6.996  11.574  0.1040  0.0985 -0.3184
 6857W        W11057   3.490   9.035   2.202  0.1212 -0.0788 -0.1960
 6858W        W11058   7.569   6.820   0.990  0.5075 -0.0014  0.0514
 6859W        W11059   7.976   2.088   3.049 -0.2750 -0.2028 -0.1999
 6860W        W11060   5.685   9.629   0.008  0.2402  0.1073  0.4072
 6861W        W11061   3.709   4.615  11.316  0.1051 -0.1016 -0.2166
 6862W        W11062  10.109   5.069   8.615  0.0769  0.1963 -0.1940
 6863W        W11063   2.245   5.980   1.743 -0.0278 -0.1528  0.1814
 6864W        W11064   8.759   5.185   1.265 -0.2238 -0.1360 -0.0650
 6865W        W11065   2.457   3.656   1.712 -0.0106  0.1520  0.1800
 6866W        W11066   4.056   1.689   2.916  0.1904 -0.0200 -0.0216
 6867W        W11067   6.327   3.389   3.267  0.1655 -0.1411 -0.4000
 6868W        W11068   1.136   7.030   2.347 -0.4850 -0.1209  0.0992
 6869W        W11069   7.424   0.543   1.419  0.0194 -0.3836  0.0358
 6870W        W11070   2.576   9.789   2.812 -0.2279 -0.0099 -0.0785
 6871W        W11071   7.868   7.325   0.906  0.1609 -0.1967 -0.1908
 6872W        W11072   1.031   5.525  10.223  0.0310 -0.2059 -0.0897
 6873W        W11073   3.514   4.499   2.991 -0.0686 -0.2270 -0.1907
 6874W        W11074   0.453   0.774   0.518 -0.1219  0.0291 -0.1053
 6875W        W11075   1.451   9.486  11.937 -0.3894  0.0906  0.1831
 6876W        W11076   7.438   7.460  11.292 -0.2036 -0.1473 -0.0036
 6877W        W11077   8.773   1.933   1.547  0.1850  0.3078  0.1708
 6878W        W11078   9.364   3.483   3.438 -0.0409  0.3495  0.1836
 6879W        W11079   5.354  10.329  11.773 -0.1948 -0.0237  0.0046
 6880W        W11080   6.864   8.513   4.006  0.1288 -0.0449 -0.0124
 6881W        W11081   9.452   8.951  10.100 -0.4563  0.2964  0.0608
 6882W        W11082   2.463   0.179   9.211 -0.2382 -0.0021  0.0911
 6883W        W11083   2.775   8.946   0.050 -0.0367  0.1283 -0.0582
 6884W        W11084   8.864   0.920   4.094 -0.0741 -0.0368  0.3138
 6885W        W11085   7.429   8.885   2.369 -0.2274 -0.1563 -0.7089
 6886W        W11086   9.617   6.486   4.009  0.2109 -0.1445  0.1962
 6887W        W11087   1.583   7.509   3.655  0.0588 -0.1854  0.1273
 6888W        W11088   0.204   0.683  10.528  0.1237  0.2323 -0.2936
 6889W        W11089   6.955   6.354   9.217 -0.0115  0.0191 -0.1208
 6890W        W11090   4.813   9.442  13.392  0.3935  0.0698 -0.1611
 6891W        W11091   2.135   7.726   3.678 -0.0480 -0.1798  0.1256
 6892W        W11092   2.685   4.044  13.000 -0.2438 -0.0406  0.2548
 6893W        W11093   8.945   8.698  12.671  0.1910  0.0236  0.3760
 6894W        W11094   9.478   1.915  11.273 -0.1147  0.1834  0.2126
 6895W        W11095   2.614   6.765   1.845 -0.0159  0.0480 -0.0303
 6896W        W11096   1.161  10.140   2.698  0.1837 -0.1720 -0.0891
 6897W        W11097   1.729   9.430   2.317 -0.0359  0.1557 -0.4852
 6898W        W11098   4.589   0.449   3.331  0.0107  0.1158  0.1501
 6899W        W11099   7.864   5.161   9.157  0.1050 -0.1836 -0.2949
 6900W        W11100   8.727   9.569  11.210  0.2743 -0.0334 -0.0868
 6901W        W11101   8.509   6.800  10.536  0.1734 -0.0783  0.0690
 6902W        W11102   9.711   9.678  12.874 -0.2504  0.0104 -0.1419
 6903W        W11103   6.950   0.369   1.020 -0.2240 -0.0732  0.1372
 6904W        W11104   7.766   3.980  11.051 -0.0295  0.2435 -0.2776
 6905W        W11105  10.290   2.644   9.956 -0.1527 -0.1498  0.0074
 6906W        W11106   3.958   6.863   1.783 -0.3403  0.0741  0.2290
 6907W        W11107   6.256   1.834   1.130  0.0267 -0.0331 -0.1807
 6908W        W11108   9.887   1.690   4.440 -0.0310  0.0127 -0.1031
 6909W        W11109   0.090   5.151   4.939  0.1003 -0.1257  0.3698
 6910W        W11110   8.072   8.489   0.127 -0.1809  0.1991  0.3360
 6911W        W11111   3.406   0.515  11.257 -0.0269 -0.1867 -0.4373
 6912W        W11112   5.656   7.704  12.390  0.0684  0.1110  0.1828
 6913W        W11113   8.178   3.667  11.336  0.0941 -0.2366  0.0086
 6914W        W11114   7.512   5.987   9.444  0.1471  0.1365  0.2715
 6915W        W11115   4.486   7.392  10.681  0.1756  0.0491 -0.3017
 6916W        W11116   2.069   3.136  11.395  0.0122 -0.1688 -0.2891
 6917W        W11117   7.341   9.508   1.737  0.0145  0.0618 -0.3430
 6918W        W11118   9.823   1.487   2.901 -0.2021 -0.1817 -0.1437
 6919W        W11119   7.496   7.535   2.498 -0.0310 -0.1636 -0.1329
 6920W        W11120   9.248   6.467  12.102 -0.0022  0.0578  0.0220
 6921W        W11121   6.566   0.587  13.412 -0.1196 -0.1680  0.1818
 6922W        W11122   0.368   5.140  10.003 -0.1347 -0.0037  0.2499
 6923W        W11123   8.916   7.741   1.353  0.3302 -0.1435  0.1596
 6924W        W11124  10.009   5.482   2.774 -0.0044  0.2470  0.2853
 6925W        W11125   5.902   7.131   1.930 -0.0601 -0.1656 -0.1230
 6926W        W11126   7.253   1.897   3.754  0.2201  0.0362  0.0539
 6927W        W11127   0.518   2.449  11.548  0.2079 -0.1089 -0.2044
 6928W        W11128   5.505   3.818  10.506  0.2257 -0.0939 -0.1257
 6929W        W11129   8.207   9.919   3.419 -0.1970 -0.0553 -0.2462
 6930W        W11130   3.384   9.854   1.781  0.0475  0.0784  0.2047
 6931W        W11131   9.451   2.363  10.441 -0.1337  0.0756  0.1380
 6932W        W11132   9.620   9.726  12.271 -0.1618 -0.1427 -0.3079
 6933W        W11133   6.610   5.970   9.726 -0.2213 -0.0698 -0.0749
 6934W        W11134   3.092   0.488   9.592  0.1398  0.2423  0.0041
 6935W        W11135   0.425   2.145   1.571  0.2382  0.1768 -0.1215
 6936W        W11136   3.389   7.919   0.689 -0.1696 -0.1114 -0.1201
 6937W        W11137   3.782   0.994   1.840  0.0991 -0.1421  0.0459
 6938W        W11138   7.154   5.090   9.981 -0.0005  0.0069  0.3457
 6939W        W11139   0.118   5.436   2.154 -0.2336  0.2818 -0.1685
 6940W        W11140  10.028   9.076   1.992 -0.0812  0.0431  0.0374
 6941W        W11141  10.241   8.567   8.495  0.0918 -0.2265 -0.0474
 6942W        W11142  10.065   2.084  11.489 -0.0106  0.1582  0.0856
 6943W        W11143   8.865   2.876   8.336 -0.1000 -0.0767 -0.3066
 6944W        W11144   8.603   1.630   0.563 -0.2617 -0.0711  0.2027
 6945W        W11145   2.569   4.718  12.190 -0.0044  0.3107  0.0761
 6946W        W11146   8.448   2.598  11.402 -0.2319 -0.1585 -0.1569
 6947W        W11147   4.189   9.284   1.696  0.0840 -0.2094  0.1171
 6948W        W11148   9.738   5.625   1.954  0.4219 -0.0526 -0.0240
 6949W        W11149   7.806   1.957   1.333 -0.0672  0.0230 -0.1651
 6950W        W11150   9.473   5.325   3.478 -0.0356  0.0900 -0.1939
 6951W        W11151   6.632   0.407   2.718 -0.0178  0.2412  0.0302
 6952W        W11152   1.672   3.262   1.822 -0.0098  0.0421 -0.3071
 6953W        W11153   0.315   5.319  10.719 -0.2424  0.0871 -0.0898
 6954W        W11154  10.119   7.791  11.116  0.0200 -0.0649  0.0672
 6955W        W11155   1.802   4.428  11.727  0.2653 -0.2639 -0.2395
 6956W        W11156   1.424   3.933   3.967 -0.0423  0.0219  0.0724
 6957W        W11157   5.838   8.172  10.446 -0.1322  0.1537 -0.0424
 6958W        W11158   8.246   8.381  10.978 -0.1789  0.1905 -0.0076
 6959W        W11159   8.351   7.785   3.988  0.5043  0.0493  0.1330
 6960W        W11160   3.080   0.818   1.283  0.2793  0.3522 -0.1665
 6961W        W11161   6.460   3.348  10.785  0.0228  0.0561 -0.0016
 6962W        W11162   8.748   4.211   8.719 -0.0782 -0.2593  0.0474
 6963W        W11163   8.524   3.778   3.320  0.2226  0.0992  0.3202
 6964W        W11164   4.896   2.000  12.880 -0.0649  0.2871  0.1310
 6965W        W11165   1.329   4.385  12.457  0.0413 -0.0392  0.3052
 6966W        W11166   0.906   0.428   9.989 -0.1915  0.0806  0.0198
 6967W        W11167   8.747  10.079   3.303 -0.0008 -0.2482  0.0262
 6968W        W11168   9.086   6.647  10.291 -0.3165 -0.0923  0.0695
 6969W        W11169   8.615   8.256  11.248  0.1821  0.2976  0.5104
 6970W        W11170   4.695   6.810  12.004  0.2528  0.1197  0.0769
 6971W        W11171   9.828   9.306   9.235  0.3216 -0.0705  0.0136
 6972W        W11172   3.176   8.348  10.232 -0.3599  0.0786  0.1977
 6973W        W11173   0.074   6.282   2.400 -0.0038 -0.1460 -0.2602
 6974W        W11174   5.270   0.813  10.082 -0.2990  0.0056 -0.1529
 6975W        W11175   6.213   2.014   3.157 -0.1639 -0.3465 -0.0203
 6976W        W11176   0.305   1.985   2.120 -0.3196  0.0955  0.2177
 6977W        W11177   3.841   5.105   2.824  0.2232 -0.0876  0.2259
 6978W        W11178   1.941   6.459   3.497 -0.4227 -0.0205  0.2718
 6979W        W11179   8.080   2.043   0.210 -0.0604  0.2747  0.2386
 6980W        W11180   5.167  10.103   9.692  0.0875  0.2110 -0.0905
 6981W        W11181   1.221  10.283  10.905  0.0666 -0.0408  0.1314
 6982W        W11182   3.964   1.476   1.845  0.0325  0.0138  0.3671
 6983W        W11183   5.405   5.679  10.677  0.2850 -0.0581  0.2891
 6984W        W11184   8.134   3.057  12.138  0.1443 -0.1113  0.0397
 6985W        W11185   6.058   3.764  11.448 -0.0758  0.2694  0.4560
 6986W        W11186   3.974   5.562   2.997  0.2199  0.2042  0.3261
 6987W        W11187   1.696   9.193   0.795 -0.0797 -0.1163  0.1583
 6988W        W11188   2.309   0.682  11.750  0.2845  0.1871  0.3736
 6989W        W11189   3.781   1.087   8.980  0.2271 -0.1496 -0.0682
 6990W        W11190   7.165   6.961   0.240  0.1510  0.0257 -0.0052
 6991W        W11191   2.721   7.346  10.061  0.0534  0.0758  0.0414
 6992W        W11192   2.445   1.278   1.668 -0.3002  0.3731  0.3119
 6993W        W11193   9.109   1.632   2.156 -0.3082 -0.0165 -0.2241
 6994W        W11194   7.077   4.306  11.824 -0.1982 -0.2363 -0.0839
 6995W        W11195   3.457   4.394  12.202  0.0798 -0.2013 -0.0273
 6996W        W11196   9.511   0.772  11.835 -0.1593 -0.3378  0.0120
 6997W        W11197   9.336   2.449   1.044 -0.1423  0.0685 -0.0433
 6998W        W11198   7.910   8.633  12.476  0.0852  0.0488 -0.0816
 6999W        W11199   4.887   7.432  10.945  0.1110 -0.1078 -0.2529
 7000W        W11200   8.311   1.250   0.894  0.2345  0.4101 -0.0904
 7001W        W11201   7.450   5.208  11.006  0.1001  0.1290 -0.2292
 7002W        W11202   7.947   3.642   1.657 -0.3004 -0.3422  0.1882
 7003W        W11203   2.088   1.745   8.754 -0.2517  0.0215 -0.1227
 7004W        W11204   7.541   3.518   3.687 -0.1495  0.1593  0.1044
 7005W        W11205   1.407   4.891   1.181 -0.0678 -0.0992  0.1925
 7006W        W11206   2.818   1.235  11.081 -0.0872 -0.2669  0.0481
 7007W        W11207   2.233   6.507   0.723 -0.1084 -0.4164 -0.0163
 7008W        W11208   8.563   3.356   8.769 -0.0844  0.1354  0.0559
 7009W        W11209   0.652   2.253   4.560  0.2615 -0.0047 -0.0230
 7010W        W11210   9.142   9.146  12.872 -0.0452  0.1115  0.1773
 7011W        W11211   3.136   1.343   2.278 -0.0807  0.1274  0.1439
 7012W        W11212   3.701   2.352  11.447  0.0831 -0.0664 -0.0311
 7013W        W11213   7.749   8.450  11.854 -0.2422  0.2537  0.1320
 7014W        W11214   8.395   8.248   3.797  0.1261 -0.1623  0.2727
 7015W        W11215   6.134   9.755   0.798 -0.4015 -0.0679 -0.3380
 7016W        W11216   2.176   9.487   8.996  0.0514  0.2627  0.0590
 7017W        W11217   6.466   6.604   1.048  0.1260  0.2914  0.3971
 7018W        W11218   3.052   4.220   2.676 -0.0064  0.0372  0.1939
 7019W        W11219   1.174   7.201  11.297 -0.2451  0.0221 -0.1146
 7020W        W11220   9.843   7.478   2.652 -0.0845 -0.0345  0.0928
 7021W        W11221   5.548   8.998   3.690  0.2333 -0.2046 -0.1801
 7022W        W11222   8.019   7.125   1.933  0.3320  0.2616  0.3629
 7023W        W11223   7.964   1.658   2.689  0.2699  0.2555 -0.1862
 7024W        W11224   6.136   2.410   1.289  0.1110 -0.2548  0.1737
 7025W        W11225   3.537   8.310   9.875 -0.0386  0.4441  0.1262
 7026W        W11226   3.423   9.466   3.838  0.0874 -0.0471  0.1234
 7027W        W11227  10.328   0.277   2.032 -0.3546 -0.0554 -0.0364
 7028W        W11228   7.667   1.161   4.254  0.0226 -0.0578 -0.0777
 7029W        W11229   1.298   4.210  10.530 -0.0326 -0.0282  0.1581
 7030W        W11230   2.788   3.126  12.259 -0.0872 -0.0394  0.0172
 7031W        W11231   2.044   7.795   3.165  0.0858 -0.0220  0.2903
 7032W        W11232   1.748   2.429  13.097 -0.1263  0.1211  0.0846
 7033W        W11233   9.800   6.331   8.857  0.0874 -0.0213 -0.1895
 7034W        W11234   1.092   1.600   1.915 -0.0553 -0.2620  0.0116
 7035W        W11235   9.546   0.817  10.228 -0.1804 -0.2317  0.2646
 7036W        W11236   5.073   6.616   3.130  0.3048 -0.1592 -0.1230
 7037W        W11237   7.173   9.069   3.873 -0.1153 -0.0768 -0.1637
 7038W        W11238   4.894   7.552   1.910  0.0937  0.0724 -0.1083
 7039W        W11239   5.543   9.030   1.743  0.2875 -0.1098  0.3982
 7040W        W11240   4.798   1.281  11.863  0.1588  0.1231 -0.0290
 7041W        W11241   8.433  10.047  11.288 -0.0711  0.0081 -0.3196
 7042W        W11242   8.850  10.002  10.989 -0.0865 -0.2038 -0.2848
 7043W        W11243   2.558   3.692   0.357  0.0155  0.2637 -0.0559
 7044W        W11244   3.781   6.465   2.054 -0.1301  0.3435 -0.4496
 7045W        W11245   1.382   2.981   2.983 -0.4402  0.2662 -0.0962
 7046W        W11246   8.393   5.841  10.126 -0.2244  0.3046  0.2046
 7047W        W11247   4.778   8.449  12.272 -0.1097 -0.2918  0.0528
 7048W        W11248   0.670   5.766   9.489  0.2323 -0.2520  0.2349
 7049W        W11249   3.817   9.021  10.282 -0.1160  0.1055 -0.2409
 7050W        W11250   8.808  10.281   4.223 -0.3305 -0.1914  0.0851
 7051W        W11251   2.838   1.992   0.666  0.1131  0.2386  0.0691
 7052W        W11252   4.704   2.652  10.613  0.1520  0.1376 -0.3080
 7053W        W11253   7.931   2.616   3.806  0.0679  0.0221 -0.0696
 7054W        W11254   2.759   3.522  12.649 -0.1672  0.0020  0.1799
 7055W        W11255   1.701   4.508   4.407  0.1708  0.2379 -0.2117
 7056W        W11256   6.601   5.546  10.727 -0.1560 -0.2508 -0.2430
 7057W        W11257  10.223   2.970   9.494 -0.1895  0.2921  0.2530
 7058W        W11258   3.459   9.619   0.889 -0.0560  0.2086 -0.0544
 7059W        W11259   5.581   5.081  11.619  0.3706  0.1689  0.2002
 7060W        W11260   0.914   9.778   2.913  0.1400  0.2038  0.0214
 7061W        W11261   6.391  10.048   0.115 -0.0278  0.1566 -0.2144
 7062W        W11262   9.976   4.634  12.504 -0.1736  0.1954 -0.4857
 7063W        W11263   2.436   9.393  10.274 -0.2089  0.0059  0.2181
 7064W        W11264   1.038   2.980  12.239  0.0538 -0.3544  0.3839
 7065W        W11265   8.726   2.211  13.028  0.2507 -0.2549 -0.2088
 7066W        W11266   4.335   5.163   3.000 -0.3039 -0.0897  0.1874
 7067W        W11267   0.988   5.875  11.403  0.3504  0.1814 -0.1639
 7068W        W11268   0.813   1.159   8.713 -0.1153  0.0867 -0.1134
 7069W        W11269   4.065   0.694   2.169 -0.0767 -0.2932 -0.0743
 7070W        W11270   5.013   3.806   4.127 -0.0036  0.1323  0.0193
 7071W        W11271   9.740   0.830   3.923 -0.2063 -0.0809 -0.1502
 7072W        W11272   0.343   6.454  10.632 -0.1182  0.0894  0.2156
 7073W        W11273   9.363   1.645   4.763 -0.0806  0.2856  0.0175
 7074W        W11274   0.014   3.124   4.120 -0.0186 -0.2211  0.2103
 7075W        W11275   6.280   0.022  12.173  0.0203 -0.0207 -0.1694
 7076W        W11276   7.865   9.105  12.924 -0.0821 -0.0677  0.3842
 7077W        W11277   4.480  10.102   2.809  0.0472  0.3038  0.2534
 7078W        W11278   8.667   1.078  12.313  0.0165 -0.0237 -0.2061
 7079W        W11279   0.422   2.260  13.220  0.1769 -0.0761  0.1875
 7080W        W11280   7.165   9.228   9.917 -0.1262 -0.0660  0.2922
 7081W        W11281   6.968   7.422  12.024 -0.1020 -0.1490 -0.1900
 7082W        W11282   4.155   9.078  13.392  0.1149  0.1789  0.0706
 7083W        W11283  10.295   1.531   8.921 -0.1747 -0.0075 -0.1735
 7084W        W11284   1.875  10.257   1.811 -0.0617  0.2467 -0.3149
 7085W        W11285   9.497   7.328   0.849 -0.0565 -0.0596 -0.2074
 7086W        W11286   1.137   6.880   3.340 -0.2117 -0.1677 -0.0841
 7087W        W11287   8.017   1.147   2.938  0.0070  0.2286  0.3170
 7088W        W11288  10.089   2.397  11.860 -0.0995  0.0783 -0.0815
 7089W        W11289   8.004   4.682  13.085  0.0906 -0.2358  0.0902
 7090W        W11290   3.282   1.365   9.064 -0.0278  0.2497  0.0777
 7091W        W11291   9.860   7.771   3.025  0.3253  0.0802 -0.2502
 7092W        W11292   1.706   3.220  11.103 -0.3725 -0.1962 -0.1176
 7093W        W11293   8.838   0.705   9.548  0.1303  0.0893 -0.1332
 7094W        W11294   4.414   5.662  11.056 -0.2880 -0.0005  0.0642
 7095W        W11295   0.125   0.075  12.932 -0.0186  0.0619  0.1243
 7096W        W11296   8.135   5.735   3.186 -0.0740  0.1827 -0.0080
 7097W        W11297   5.470   8.925  12.480 -0.0247  0.2531 -0.0697
 7098W        W11298   0.620   8.287  11.135  0.1386  0.1704  0.0030
 7099W        W11299   5.285   8.780  12.067 -0.0182 -0.0536  0.3183
 7100W        W11300   8.774   9.184   2.037 -0.0028 -0.3043  0.0581
 7101W        W11301   2.078  10.040  10.387  0.0698  0.1026  0.2195
 7102W        W11302   4.155   5.456   0.898  0.1182 -0.2912  0.2619
 7103W        W11303  10.223   5.132   1.022 -0.2020 -0.0738  0.0127
 7104W        W11304   2.291   3.285   0.371  0.2225  0.1402 -0.3037
 7105W        W11305   9.773   8.514   9.446 -0.2254 -0.1384 -0.0453
 7106W        W11306   4.912   8.040   2.312 -0.4670 -0.0368 -0.0797
 7107W        W11307   4.452   4.362  10.127 -0.1798  0.0974  0.1576
 7108W        W11308   4.477   6.153  12.232 -0.1037  0.1281  0.0007
 7109W        W11309   8.100   3.975   2.451 -0.2379  0.0576  0.2618
 7110W        W11310   2.155   9.387   0.620  0.0988  0.0430  0.1465
 7111W        W11311   1.893   3.218   4.090 -0.0243  0.0045  0.0421
 7112W        W11312   8.216   7.764   9.400 -0.0326 -0.0981 -0.0035
 7113W        W11313   3.579   1.659   3.171 -0.0238 -0.1438  0.3281
 7114W        W11314   3.315   8.976   0.922 -0.0570 -0.0880  0.1651
 7115W        W11315   9.182   7.487   5.249  0.0863 -0.1855 -0.0577
 7116W        W11316   6.595   7.111  11.553  0.0161  0.2855 -0.1807
 7117W        W11317   2.185   9.817   1.842  0.0636 -0.0079  0.1277
 7118W        W11318   9.380   3.930  12.004 -0.1370  0.1851 -0.1963
 7119W        W11319   8.383   5.870  12.633 -0.0386  0.2477 -0.0235
 7120W        W11320   5.287   7.107   1.406  0.1745 -0.0323  0.0874
 7121W        W11321   1.942   4.014   9.284  0.0350  0.0093  0.1681
 7122W        W11322   2.061  10.061   9.808 -0.0359 -0.2999  0.1675
 7123W        W11323   6.947   8.891   0.411 -0.2739  0.2085 -0.0625
 7124W        W11324   2.415   6.303   2.088  0.2143 -0.2962  0.3813
 7125W        W11325   7.519  10.050  12.449  0.0347 -0.1908  0.1716
 7126W        W11326   9.221   0.046  12.215 -0.0280 -0.1691 -0.0461
 7127W        W11327   7.168   3.630   0.409 -0.1382  0.1219 -0.0811
 7128W        W11328   6.812   1.100   4.609 -0.1969 -0.1703 -0.2489
 7129W        W11329   9.491   0.360   9.067 -0.1700 -0.0901 -0.4586
 7130W        W11330   0.509   4.853   0.142 -0.0297 -0.0695 -0.0156
 7131W        W11331   4.936   7.958  12.591 -0.0432 -0.2460  0.2972
 7132W        W11332   8.215   4.441   0.483  0.1967 -0.0373 -0.1615
 7133W        W11333   9.103   0.642   9.124  0.0082  0.0686  0.1544
 7134W        W11334   6.628   6.236  13.369  0.0685  0.0206 -0.2913
 7135W        W11335   1.828   1.219   9.754  0.0191  0.2491  0.0748
 7136W        W11336   4.989   2.951  11.155 -0.2053 -0.1333  0.1436
 7137W        W11337   6.499   1.248   9.808 -0.0067  0.0089  0.1193
 7138W        W11338   7.852   8.152  11.240  0.4659  0.1136 -0.1283
 7139W        W11339   7.674  10.244   3.302 -0.3119  0.2048  0.0876
 7140W        W11340   6.984   9.382   0.418  0.0758 -0.5050 -0.1932
 7141W        W11341   3.201   8.192   2.382 -0.3200  0.2613 -0.0140
 7142W        W11342   1.761   6.791  11.979 -0.2327  0.0656 -0.3963
 7143W        W11343   8.839   9.650  12.045 -0.0853 -0.3254  0.1978
 7144W        W11344   1.098  10.006   4.254 -0.1771  0.1191 -0.0860
 7145W        W11345   2.662   5.182   4.398 -0.2624 -0.0407 -0.0777
 7146W        W11346   4.162   4.489   3.252  0.2130  0.5874 -0.1067
 7147W        W11347   6.861   1.318   1.538 -0.1337  0.3724 -0.1566
 7148W        W11348   1.380   1.249  10.018 -0.1340  0.1915  0.1048
 7149W        W11349   9.369   1.341   2.958  0.1756 -0.0416  0.1140
 7150W        W11350   9.014  10.157  12.771 -0.4121  0.0216 -0.0721
 7151W        W11351   3.195   7.259   1.432 -0.3930 -0.1928  0.1352
 7152W        W11352   5.445   4.360   9.313 -0.2010 -0.1941 -0.3463
 7153W        W11353   4.491   9.990  13.078 -0.1020 -0.3039  0.2340
 7154W        W11354   0.587   9.994   3.927 -0.4341  0.1236 -0.2108
 7155W        W11355   9.302   5.716   2.276  0.0241  0.0931  0.0138
 7156W        W11356   6.014   5.149   3.209  0.0743  0.1658  0.1093
 7157W        W11357   0.364  10.305  10.029  0.0224  0.0349  0.0109
 7158W        W11358   1.025   5.470   1.200  0.0400 -0.1015 -0.2833
 7159W        W11359   3.188   5.233   3.632 -0.0712  0.3053 -0.1420
 7160W        W11360   1.854   6.349   2.015 -0.1838 -0.2434  0.1565
 7161W        W11361   3.321   7.866  10.080 -0.2133  0.3994 -0.0247
 7162W        W11362   8.374   4.701  13.447 -0.0898  0.3177 -0.0111
 7163W        W11363   8.582   8.065  12.113 -0.2423  0.0213  0.3690
 7164W        W11364   7.665   8.905   3.682 -0.1346 -0.1444  0.1545
 7165W        W11365   7.306   1.049   8.368  0.0085 -0.0225  0.1632
 7166W        W11366   3.890   1.010   5.462 -0.0153  0.3214  0.0807
 7167W        W11367   2.179   9.838   0.806  0.1489 -0.0965 -0.0202
 7168W        W11368   0.792   3.723  10.640  0.0413 -0.2649  0.0486
 7169W        W11369   8.479   7.959   9.775  0.0361  0.1816  0.1369
 7170W        W11370   5.019   2.297   2.973  0.0429  0.1401  0.0281
 7171W        W11371   6.326   2.555   0.599  0.2305 -0.0169  0.0779
 7172W        W11372   3.938   6.923   0.395  0.4812  0.3533  0.0164
 7173W        W11373   1.436   8.581   2.946  0.1438  0.0442 -0.0230
 7174W        W11374   0.139   0.372  10.923  0.0791 -0.0722  0.0612
 7175W        W11375   0.983   5.486  10.788  0.3831 -0.1589 -0.1411
 7176W        W11376   8.949   0.131  10.262 -0.3575 -0.0891 -0.0378
 7177W        W11377   5.171   4.638   2.336  0.2095 -0.0801 -0.1705
 7178W        W11378   7.011   2.201   1.983  0.0919 -0.0559 -0.1046
 7179W        W11379   7.369   4.049   3.977 -0.3125 -0.2998 -0.2266
 7180W        W11380   9.716   9.949   1.145 -0.1622  0.2272 -0.2475
 7181W        W11381   4.521   2.145  11.604  0.2137  0.0512  0.1340
 7182W        W11382   7.560   5.724   2.285  0.1448 -0.0973 -0.0354
 7183W        W11383   8.688   2.273   0.091  0.1565 -0.1948  0.0333
 7184W        W11384   7.424   3.607  13.353  0.1529  0.1477 -0.1641
 7185W        W11385   3.317   5.518  13.082 -0.4680 -0.3096  0.0715
 7186W        W11386   1.523   5.364   1.055 -0.2084 -0.0322  0.0253
 7187W        W11387   1.341   5.100   0.591 -0.0737 -0.0750  0.3369
 7188W        W11388   4.062   1.342   3.226  0.1226  0.2920 -0.0361
 7189W        W11389   7.733   6.496  12.890  0.0867 -0.1457  0.0534
 7190W        W11390   0.506   7.367  12.278  0.1225  0.0343 -0.0197
 7191W        W11391   4.370   3.019   4.269 -0.3204  0.3227 -0.0477
 7192W        W11392  10.365   8.488   3.560  0.1826  0.1017 -0.0659
 7193W        W11393   0.543   9.795  12.478  0.1959  0.1530 -0.0737
 7194W        W11394   6.620   2.572  12.483 -0.2261 -0.0472  0.2778
 7195W        W11395   0.871   3.686   4.126  0.1566  0.0774 -0.1686
 7196W        W11396   9.608   9.892   2.402  0.0143 -0.0020  0.0582
 7197W        W11397   4.816   3.022  11.997  0.0333  0.1975 -0.1591
 7198W        W11398   4.002   0.149  12.576  0.0171 -0.0508  0.0900
 7199W        W11399   3.937   9.196   0.562 -0.1241  0.1237  0.0986
 7200W        W11400   3.464   3.199   4.917 -0.0807  0.2788  0.1270
 7201W        W11401   7.322   5.616   0.734 -0.2552  0.1816  0.2195
 7202W        W11402   8.871   4.953   8.249 -0.0036 -0.0486  0.0103
 7203W        W11403   3.317   1.377   9.581  0.1604 -0.0765 -0.1134
 7204W        W11404   6.509   9.764   1.189  0.0527 -0.1391 -0.0615
 7205W        W11405   8.811   2.285  11.291  0.1458  0.1140 -0.2262
 7206W        W11406   3.279   8.314  10.774  0.0587 -0.0072 -0.1857
 7207W        W11407   8.005   8.213  10.014 -0.1846  0.0178  0.1483
 7208W        W11408   2.473   0.956   9.153  0.2312  0.1046 -0.0299
 7209W        W11409   6.938   1.590   9.988  0.1926  0.1315 -0.0225
 7210W        W11410   7.883   7.714  11.510  0.1585 -0.0016  0.2033
 7211W        W11411   1.743   7.780  11.461 -0.1410 -0.0963 -0.0622
 7212W        W11412   9.942   6.204  11.272 -0.1629  0.4319  0.0907
 7213W        W11413   4.917   9.628   2.084 -0.1495 -0.0591  0.3701
 7214W        W11414   4.520   8.772   1.857  0.2941 -0.2797  0.3439
 7215W        W11415   2.102   9.055  13.011 -0.1433  0.0447 -0.0433
 7216W        W11416   6.215   1.196  10.266 -0.2266 -0.1125 -0.1812
 7217W        W11417   6.275   9.937   3.186  0.0470 -0.2105  0.3838
 7218W        W11418   8.502   2.410   3.018 -0.0010  0.2829  0.0921
 7219W        W11419   3.697   0.287   2.319  0.2081 -0.0978 -0.0857
 7220W        W11420   0.366   2.272   3.388 -0.1353 -0.0518 -0.0168
 7221W        W11421   1.910   1.952   0.825 -0.0270 -0.0654  0.2076
 7222W        W11422   2.002   6.741  10.088  0.2333 -0.1143  0.0728
 7223W        W11423   6.634  10.028   0.809 -0.1635 -0.4328 -0.0017
 7224W        W11424   0.603   8.933  10.050 -0.0572  0.1127 -0.3688
 7225W        W11425   8.819   3.394   9.328 -0.3005 -0.1264  0.1755
 7226W        W11426   0.041  10.203  13.243 -0.2128  0.1889 -0.1117
 7227W        W11427   5.332   3.132  12.119 -0.0048 -0.0194  0.2007
 7228W        W11428   4.254   6.083  11.401 -0.2504 -0.0571 -0.0179
 7229W        W11429   8.179   5.444   9.736  0.3187  0.0971  0.1971
 7230W        W11430   7.383   4.506   3.040  0.0214  0.1395 -0.3369
 7231W        W11431   0.844   0.455  11.945  0.0268  0.1377 -0.1067
 7232W        W11432   4.543   9.847  12.415  0.1953  0.0534 -0.0056
 7233W        W11433   8.386   9.105   4.624  0.3303  0.2425 -0.1770
 7234W        W11434   8.897   5.966   2.367  0.1933  0.0441 -0.3924
 7235W        W11435   5.016   6.645  13.177 -0.2676 -0.1225 -0.1544
 7236W        W11436   0.601   6.088  11.831  0.2139 -0.1918  0.2781
 7237W        W11437   1.808   2.742   1.718  0.2489 -0.2431 -0.1409
 7238W        W11438   5.296   9.199   9.929 -0.1931 -0.1359  0.0793
 7239W        W11439   1.200   7.738   9.478  0.0128 -0.0025  0.0808
 7240W        W11440   6.805   5.894  11.085 -0.2480  0.2239 -0.0803
 7241W        W11441   0.014   1.628   2.249 -0.0307 -0.0513 -0.0179
 7242W        W11442   3.979   6.464  11.839 -0.1035  0.1411  0.2045
 7243W        W11443   3.537   6.237  10.485 -0.0461  0.2582  0.1992
 7244W        W11444   1.351   5.886  10.123 -0.1353 -0.1297  0.2083
 7245W        W11445   5.060   0.890   2.343 -0.0410  0.1494 -0.1562
 7246W        W11446   7.788   4.463   3.360 -0.2224 -0.0718  0.1898
 7247W        W11447   8.162   0.048  12.964 -0.3074  0.0500  0.1445
 7248W        W11448   4.791   5.371  11.997  0.1518  0.1486  0.0201
 7249W        W11449   2.351   3.911   2.891  0.2477  0.1493 -0.0334
 7250W        W11450   2.626   1.953   9.548  0.0839 -0.2372  0.0509
 7251W        W11451   6.443   2.163   5.117  0.1697 -0.0641 -0.1696
 7252W        W11452   7.224   2.440   9.298  0.3131  0.1478 -0.2308
 7253W        W11453   0.835   0.996   3.017  0.3140  0.3001  0.0669
 7254W        W11454   6.667   8.017  13.004  0.2474 -0.0025  0.1868
 7255W        W11455   2.928   4.864  12.541 -0.0333 -0.1219  0.1099
 7256W        W11456   2.412   8.258   9.936 -0.2376 -0.0573  0.0401
 7257W        W11457   0.291   3.779   9.467  0.0186  0.0161 -0.3430
 7258W        W11458   4.842   2.714   0.018 -0.2162  0.1089  0.0545
 7259W        W11459   7.798   5.668  11.094  0.2390  0.2709 -0.1056
 7260W        W11460   9.828   6.005   0.590 -0.2996  0.2282  0.0088
 7261W        W11461   0.597   1.037   9.155  0.1253 -0.1092 -0.1466
 7262W        W11462   8.976   2.643   3.093  0.2643  0.0874 -0.2886
 7263W        W11463   8.903   8.460   0.536  0.3641  0.2781  0.2716
 7264W        W11464   8.729   2.816  10.887 -0.1598  0.0542 -0.2253
 7265W        W11465   7.936   7.905   0.876  0.1263  0.4240  0.0160
 7266W        W11466   0.021   8.180   0.859 -0.3546 -0.1460 -0.1624
 7267W        W11467   6.403   7.301  12.127 -0.0713  0.0289 -0.1464
 7268W        W11468   9.036   8.259  10.939  0.0748  0.1689 -0.0913
 7269W        W11469   4.904   0.809   0.558  0.3133 -0.2881 -0.0943
 7270W        W11470   3.086   1.192  13.103 -0.1879 -0.0354  0.2353
 7271W        W11471   7.024   7.262   1.489  0.0749 -0.0659 -0.0232
 7272W        W11472   1.434   3.309   2.322  0.2345  0.0566 -0.1069
 7273W        W11473   4.367   2.785  13.246 -0.2753 -0.3106 -0.1388
 7274W        W11474   4.222   5.371   3.376  0.1583 -0.3036  0.0236
 7275W        W11475   0.237   1.458   4.632  0.0242  0.0938  0.3785
 7276W        W11476   8.063   0.619   9.864  0.1354 -0.0470 -0.4001
 7277W        W11477   3.562   3.980   3.218  0.1465 -0.2263 -0.2138
 7278W        W11478   6.143   7.445  12.523 -0.1053  0.1437  0.0677
 7279W        W11479   5.785   8.784   0.752  0.0732  0.0938 -0.2616
 7280W        W11480   2.580   3.168   9.965 -0.0356  0.1998 -0.1019
 7281W        W11481   0.035   1.825  11.242  0.1156 -0.1486  0.1808
 7282W        W11482   9.683   1.551   1.964  0.1195  0.1224 -0.0218
 7283W        W11483   4.500   4.219   2.941 -0.1043 -0.1419  0.0599
 7284W        W11484   9.563   2.836  11.305  0.1327 -0.0471 -0.2718
 7285W        W11485   3.618   3.304   0.578 -0.2311  0.1361  0.3375
 7286W        W11486   0.622   6.046   3.132  0.0967 -0.5291 -0.2179
 7287W        W11487   1.337   7.616  13.154 -0.1973  0.1481 -0.0570
 7288W        W11488   3.581  10.444   1.959  0.1267 -0.0898  0.1761
 7289W        W11489   5.041   4.319   1.933 -0.1079 -0.0582 -0.1391
 7290W        W11490   8.283   8.278  11.628  0.0045  0.3018 -0.0380
 7291W        W11491  10.220   1.306   4.597 -0.0238 -0.1129 -0.1236
 7292W        W11492   6.968   5.512  11.384 -0.2306  0.0350  0.1878
 7293W        W11493   6.802   4.661  11.040 -0.0597  0.1233 -0.2059
 7294W        W11494   8.053   1.640   8.810 -0.2766 -0.0372  0.3486
 7295W        W11495   9.534   5.991  10.660  0.0696  0.2955 -0.0815
 7296W        W11496   7.423   2.293  12.015  0.2971 -0.1026 -0.3652
 7297W        W11497   4.567   6.556  12.504  0.3586 -0.0558  0.0664
 7298W        W11498   1.257   7.680  11.250  0.1307  0.1001 -0.2806
 7299W        W11499   6.247   3.180   3.786 -0.2126 -0.0344  0.1801
 7300W        W11500   1.574   1.466  11.751  0.2160  0.1494 -0.1695
 7301W        W11501   7.148   8.245   1.571  0.1040  0.1156  0.0066
 7302W        W11502   0.001   8.880  11.161  0.1736 -0.1350 -0.0558
 7303W        W11503   8.721  10.412  11.223 -0.3076  0.0840  0.2371
 7304W        W11504   6.448   1.090   1.899  0.1759  0.3454  0.1134
 7305W        W11505   5.056   5.346   3.007 -0.2776  0.1351  0.2443
 7306W        W11506   6.492  10.176  10.709 -0.0112 -0.0761 -0.1151
 7307W        W11507   3.443   4.713   1.527 -0.0381  0.0205 -0.2128
 7308W        W11508   9.258   1.743   1.641 -0.1923  0.2543  0.2455
 7309W        W11509   3.379   2.217   3.256 -0.1692 -0.3085  0.0302
 7310W        W11510   8.375   2.949   8.651 -0.3463  0.2568 -0.1651
 7311W        W11511   4.911   4.479   3.656 -0.2853 -0.5675 -0.0493
 7312W        W11512   4.704   6.032   1.860 -0.1880 -0.2218  0.0214
 7313W        W11513   0.125   2.552   1.449  0.0559 -0.5427  0.1383
 7314W        W11514   1.859   0.801   3.076  0.0960  0.3675  0.1370
 7315W        W11515   0.277   7.748   1.022 -0.0012  0.0964  0.1288
 7316W        W11516   0.187   5.727   2.576 -0.2974 -0.1524 -0.2870
 7317W        W11517   3.432   1.638   2.556 -0.0070  0.0390 -0.3550
 7318W        W11518   2.966   9.810   0.907  0.0269 -0.0322  0.0932
 7319W        W11519   1.265   2.500  11.409  0.1756  0.0144  0.1987
 7320W        W11520   9.016   7.765   9.726  0.1435  0.2451 -0.2278
 7321W        W11521   0.646   3.061   9.458 -0.3392  0.0157 -0.2268
 7322W        W11522   2.922   5.089  10.881 -0.3891 -0.1170 -0.2685
 7323W        W11523   2.495   5.947  11.264 -0.0014 -0.0458  0.2947
 7324W        W11524   9.688   2.993   9.292  0.0102  0.1639 -0.2300
 7325W        W11525   3.648   9.528   2.968  0.3294 -0.5119 -0.0842
 7326W        W11526   1.753   2.235   1.646 -0.2617 -0.1586  0.3373
 7327W        W11527   8.221   2.821   4.147 -0.0549  0.2110  0.0355
 7328W        W11528   7.074   6.892   9.313  0.0618  0.0086  0.1777
 7329W        W11529   3.008   7.137   0.490  0.1308 -0.1227 -0.1254
 7330W        W11530   7.535   4.243  10.056  0.2829 -0.0123 -0.1985
 7331W        W11531   4.854   6.128   9.688 -0.0574  0.2599 -0.0222
 7332W        W11532  10.246   8.908   9.306 -0.0500  0.0130 -0.0218
 7333W        W11533   9.785   9.909   2.864  0.0046 -0.1139  0.0303
 7334W        W11534   6.214   1.319   3.182  0.1062  0.1513 -0.3239
 7335W        W11535   0.721   0.763   9.537 -0.0385 -0.3370  0.3196
 7336W        W11536   7.082   5.160   9.524  0.3034 -0.3909  0.5567
 7337W        W11537   1.720   0.585  11.840  0.1536  0.2088 -0.0987
 7338W        W11538   0.407   1.932  11.581  0.1124 -0.0517  0.1117
 7339W        W11539   8.093   3.723   3.639 -0.1395  0.0035 -0.3199
 7340W        W11540   3.157   4.901   8.930  0.0691 -0.1158 -0.0856
 7341W        W11541   8.043   5.076  11.676  0.1988 -0.0202  0.1111
 7342W        W11542   5.473   0.011   2.389 -0.0906  0.1337  0.0972
 7343W        W11543   2.409   1.059  10.867 -0.0040  0.0886 -0.2372
 7344W        W11544  10.135   5.614   2.272 -0.0646  0.1688  0.0782
 7345W        W11545   0.286   9.371   0.679  0.0664  0.0387 -0.3889
 7346W        W11546   4.222   8.119   1.194 -0.0884  0.2251  0.3653
 7347W        W11547   0.879   0.416   1.179  0.1741  0.2206 -0.2437
 7348W        W11548   7.869   4.495   1.354 -0.2303 -0.2802  0.2031
 7349W        W11549   7.667   7.119  12.359  0.4347  0.2682  0.0541
 7350W        W11550   2.497   6.643   0.044  0.2802 -0.2261  0.0233
 7351W        W11551   6.492   9.292  12.529  0.1620 -0.0784  0.0980
 7352W        W11552   8.500   7.461   8.225 -0.2129  0.0010 -0.2985
 7353W        W11553   9.786   9.526  10.925  0.0578 -0.2470  0.2342
 7354W        W11554   3.977   5.184   3.872 -0.2448 -0.0100 -0.3404
 7355W        W11555  10.269   8.102  12.454 -0.1519 -0.4525  0.0080
 7356W        W11556   0.087   2.788   3.423  0.2621 -0.1117 -0.0230
 7357W        W11557  10.249   9.318   8.925 -0.1236  0.2817  0.1524
 7358W        W11558   5.625   9.366  11.092  0.1548  0.0912  0.2668
 7359W        W11559   9.489  10.145  12.582  0.2502 -0.1709  0.2528
 7360W        W11560   4.795   7.657  12.049  0.0901  0.0933 -0.0395
 7361W        W11561   7.655   3.963   9.675  0.2267 -0.0067 -0.0361
 7362W        W11562   9.140   0.371  11.374  0.0166 -0.1153  0.2198
 7363W        W11563   2.576   1.871   1.968  0.4244 -0.0331  0.1088
 7364W        W11564   7.866   1.914  11.620  0.2078  0.2406  0.3587
 7365W        W11565   6.366   5.759  12.525 -0.1911 -0.0922 -0.1872
 7366W        W11566   1.997   0.466   0.831 -0.0386 -0.0596 -0.6033
 7367W        W11567   9.855   6.423   4.961 -0.2623 -0.1331 -0.0572
 7368W        W11568   1.339   1.272   8.549 -0.0579  0.3137 -0.0004
 7369W        W11569   5.294   3.376  13.140  0.1129  0.0469  0.0942
 7370W        W11570   8.108   6.688   2.721  0.0539 -0.3019 -0.2856
 7371W        W11571   6.366   8.865   4.199  0.0023  0.1669 -0.3472
 7372W        W11572   9.869   6.700   5.413 -0.2080  0.1943  0.1301
 7373W        W11573   6.703   3.466  12.015  0.1117 -0.4277 -0.3896
 7374W        W11574   2.214   1.118   2.458 -0.1367  0.0126  0.1091
 7375W        W11575   5.100  10.395   2.077 -0.0978  0.0274  0.1086
 7376W        W11576   1.266   6.372  13.170  0.0734 -0.2821  0.0432
 7377W        W11577   8.115   4.729   8.671 -0.0083 -0.0256 -0.1612
 7378W        W11578   5.989   3.056  10.096  0.0610  0.0233 -0.1196
 7379W        W11579   1.494   6.618   0.578 -0.2673  0.0006 -0.0136
 7380W        W11580   3.743   3.995  11.941 -0.2386 -0.2253 -0.1429
 7381W        W11581   4.073   3.784  10.595 -0.2119 -0.0120  0.1342
 7382W        W11582   9.072   6.121   4.107 -0.0754  0.1690 -0.1394
 7383W        W11583   5.868   4.644   2.991 -0.0541 -0.0053 -0.1020
 7384W        W11584   6.623   0.219  11.558  0.0311  0.0010 -0.1448
 7385W        W11585   7.417   6.195  12.561 -0.1884 -0.0481  0.0092
 7386W        W11586   8.039   0.515   2.699  0.0741 -0.2897  0.1721
 7387W        W11587   9.668   1.306  12.181  0.2377 -0.1985 -0.1917
 7388W        W11588   1.538   2.952  10.768 -0.0784 -0.2445 -0.0396
 7389W        W11589   3.711   5.894   3.386  0.0717  0.5428 -0.2818
 7390W        W11590   9.633   4.683   2.064  0.0214 -0.0293 -0.2237
 7391W        W11591   9.724   9.451   2.183  0.0295  0.2334  0.0367
 7392W        W11592   3.441   2.866   9.959  0.1748 -0.3537 -0.0907
 7393W        W11593   1.720   8.981   3.577  0.2868  0.2719  0.5040
 7394W        W11594  10.181   3.411   2.711  0.0910 -0.2133 -0.0278
 7395W        W11595   6.081   4.852   1.714  0.1535 -0.3379 -0.1685
 7396W        W11596   7.867   4.473   9.660  0.3366  0.0155 -0.1269
 7397W        W11597   1.447   0.523   9.140 -0.1851  0.1117  0.0151
 7398W        W11598   7.547   2.319   1.148 -0.0806 -0.3242 -0.3806
 7399W        W11599   8.884   2.824  11.425  0.0899  0.1609 -0.1247
 7400W        W11600   4.287   2.671   9.007 -0.2850 -0.1408  0.0539
 7401W        W11601   1.682   9.505   3.295  0.1399 -0.2786 -0.1275
 7402W        W11602   9.309   0.806   8.167  0.1222 -0.0538  0.1070
 7403W        W11603   0.609   1.599  11.882 -0.2257  0.2056 -0.0810
 7404W        W11604   7.460   4.942   4.931  0.0309  0.0854 -0.2111
 7405W        W11605   7.499   7.639   0.786 -0.1096 -0.0807 -0.0124
 7406W        W11606  10.172   4.590   9.728 -0.3520  0.2096 -0.0525
 7407W        W11607  10.161   4.017  10.190 -0.2866 -0.2290  0.0134
 7408W        W11608   0.869   6.331  12.153  0.0750 -0.1986  0.0051
 7409W        W11609   2.074   9.183   3.256  0.1495 -0.0607 -0.0656
 7410W        W11610   2.633   7.738   3.560 -0.0677  0.0577  0.1757
 7411W        W11611   1.299   0.518   1.513  0.0767  0.0970  0.1627
 7412W        W11612   4.698   6.293   0.556 -0.3292 -0.2304  0.0181
 7413W        W11613   1.154   5.293  12.627  0.2000 -0.2476 -0.1637
 7414W        W11614   7.238   6.119   2.039 -0.0370  0.0159  0.0902
 7415W        W11615   8.755   1.953  10.882  0.0304  0.1058 -0.0601
 7416W        W11616   7.660   2.112  11.162 -0.0179  0.1481  0.0402
 7417W        W11617   3.509   0.113  12.419 -0.1998 -0.0141  0.2167
 7418W        W11618   4.513   4.218   3.462 -0.0339  0.0875  0.2449
 7419W        W11619   9.649   2.937  10.747 -0.0527  0.0194  0.3579
 7420W        W11620   1.546   4.124  10.053  0.3805  0.1360 -0.0332
 7421W        W11621   1.212   3.853  11.464 -0.1435  0.1160  0.0220
 7422W        W11622  10.337   1.608   4.238 -0.0530 -0.0895 -0.3724
 7423W        W11623   9.461   1.170   0.056 -0.0329 -0.0591  0.0066
 7424W        W11624   7.377   3.925   9.276  0.1433 -0.1229 -0.1113
 7425W        W11625   7.958   1.604   3.227  0.1303 -0.2021  0.0700
 7426W        W11626   0.282   8.163   9.686 -0.1112 -0.1212  0.1213
 7427W        W11627   6.400   3.222   0.921 -0.1607 -0.0053 -0.3020
 7428W        W11628   1.084   0.371   9.495 -0.0909 -0.1279 -0.0995
 7429W        W11629   4.875   2.016  12.039  0.0689  0.1903 -0.0068
 7430W        W11630   3.394   5.274  12.089 -0.0751  0.1812 -0.0887
 7431W        W11631   0.558   5.253   1.367  0.0697  0.0075  0.0324
 7432W        W11632   4.018   6.281  12.386 -0.2270 -0.1759 -0.0001
 7433W        W11633   5.478   1.915   3.042  0.0747 -0.2742  0.2407
 7434W        W11634   8.028   5.216   1.679  0.1717 -0.1953 -0.0604
 7435W        W11635  10.182   5.074  11.624 -0.0688 -0.0063 -0.0984
 7436W        W11636   1.284   9.325   1.642  0.0018  0.2295  0.4313
 7437W        W11637   1.830   7.199  10.439 -0.1946 -0.2600 -0.1786
 7438W        W11638   6.991   5.249   0.697  0.3778  0.2215 -0.3296
 7439W        W11639   6.656   7.990  11.970  0.1409 -0.2856 -0.0427
 7440W        W11640   0.176   7.734  12.346 -0.4074 -0.1243  0.1425
 7441W        W11641   4.311   3.245   1.009 -0.1033  0.0035  0.2077
 7442W        W11642   3.508   9.446  11.779  0.0001 -0.0567 -0.0335
 7443W        W11643   4.802   1.703  11.603  0.1230 -0.1482 -0.3877
 7444W        W11644   1.000   1.487   3.892 -0.2026 -0.0693  0.4765
 7445W        W11645   0.055   0.498  11.887  0.1137  0.2828 -0.1245
 7446W        W11646   4.348   3.333   4.650 -0.1805 -0.3087 -0.0541
 7447W        W11647   7.787   7.365   9.494 -0.1257  0.1136 -0.0458
 7448W        W11648   0.294   3.321   8.687 -0.1325 -0.2713 -0.1254
 7449W        W11649   7.794   8.585   9.608 -0.2003 -0.2659  0.0677
 7450W        W11650   4.833   3.926  12.715 -0.0207  0.2416 -0.3085
 7451W        W11651   7.943   9.205  11.324  0.2072 -0.1828 -0.1961
 7452W        W11652   0.780   2.139   1.243 -0.0489  0.0019 -0.1193
 7453W        W11653  10.419   6.834   0.156 -0.0306 -0.0422 -0.0376
 7454W        W11654   5.662   6.037   9.287  0.1560  0.0860 -0.1254
 7455W        W11655   8.289   7.523   0.998 -0.0676 -0.1451  0.0802
 7456W        W11656   4.521   0.422  10.388  0.0262 -0.1979 -0.2878
 7457W        W11657   9.385   5.049  13.254  0.0185  0.0983 -0.0215
 7458W        W11658   0.353   5.851   4.114 -0.0472 -0.2692 -0.0488
 7459W        W11659   3.565   9.494   2.057  0.2684  0.0889 -0.0559
 7460W        W11660   2.882   1.227  10.581 -0.0570  0.2487 -0.2071
 7461W        W11661   8.811   7.899   3.941 -0.1190 -0.0617 -0.0058
 7462W        W11662   8.423   9.277  11.557  0.2047 -0.0219  0.1765
 7463W        W11663   8.962   3.949   2.374  0.1910  0.2112  0.3276
 7464W        W11664   5.787   5.549  11.206  0.2300 -0.0470  0.4629
 7465W        W11665   4.176   2.629   3.299  0.0843  0.0242  0.1145
 7466W        W11666   6.828  10.254  11.544  0.2441  0.3185  0.0508
 7467W        W11667   2.555   9.148   9.777  0.1364  0.0465  0.1597
 7468W        W11668   2.652   6.602  10.790 -0.3056  0.2068 -0.2710
 7469W        W11669   4.663   9.290   4.203  0.1178  0.1128 -0.3186
 7470W        W11670  10.410   0.507  11.368  0.2236  0.0773 -0.2927
 7471W        W11671   8.810   8.207   1.333  0.0049  0.1066 -0.5103
 7472W        W11672   5.797   5.166   3.778  0.0864 -0.2237  0.0372
 7473W        W11673   7.171   0.098   9.567 -0.2390 -0.2457  0.3308
 7474W        W11674   6.284   7.859  12.652  0.1077  0.0388  0.1933
 7475W        W11675   7.646   8.845   1.061  0.2113  0.3084  0.1253
 7476W        W11676   8.038  10.336   1.931 -0.3209  0.0796 -0.2338
 7477W        W11677   7.626   0.973   8.753 -0.0542  0.1146 -0.2529
 7478W        W11678   3.177   6.636  12.211  0.3786 -0.1241  0.0770
 7479W        W11679   8.642   6.254  11.119 -0.1102  0.0868 -0.4721
 7480W        W11680   8.578   6.862  10.055  0.0765 -0.1682  0.1306
 7481W        W11681   5.380   0.892   9.212  0.0988 -0.0709 -0.0498
 7482W        W11682   7.103   6.124  11.625 -0.1705  0.0892 -0.2820
 7483W        W11683   9.520   4.664  11.345  0.1571 -0.1146 -0.2350
 7484W        W11684   3.304   0.882  10.357 -0.0576 -0.0805 -0.1598
 7485W        W11685   2.786   2.148  10.093 -0.0354  0.1441 -0.2002
 7486W        W11686   8.728   1.738  11.413  0.1745 -0.0020 -0.2806
 7487W        W11687   4.152   1.238  10.277 -0.2175 -0.1525  0.0525
 7488W        W11688   2.339   8.269   0.066  0.1344 -0.0766  0.0198
 7489W        W11689   2.168   7.312   0.771 -0.3648  0.1320 -0.1694
 7490W        W11690   7.081   3.288   9.773 -0.0491 -0.0557  0.0033
 7491W        W11691  10.339   8.478  11.507 -0.2436  0.0270 -0.1298
 7492W        W11692   8.929   5.644   0.473  0.2531 -0.0905  0.0639
 7493W        W11693   1.361   4.867   3.593  0.2615  0.0590 -0.1478
 7494W        W11694   2.214   2.177   2.303  0.0422  0.3502  0.0256
 7495W        W11695   2.647   9.715   9.216  0.2670  0.1160 -0.1255
 7496W        W11696   6.748   9.513  10.065 -0.0266 -0.0369 -0.2684
 7497W        W11697   4.176   5.196   9.970 -0.0920 -0.0522  0.1465
 7498W        W11698   6.710   0.562  10.623  0.0463  0.2218 -0.5601
 7499W        W11699  10.176   2.837  11.700 -0.3998  0.2963 -0.0575
 7500W        W11700   0.743   8.031   2.149 -0.0523 -0.0327  0.0900
 7501W        W11701   7.648   6.935   2.239  0.1599 -0.2711 -0.2627
 7502W        W11702   7.991   2.091   2.205  0.0202 -0.1843  0.0926
 7503W        W11703   5.449   8.301  11.275  0.1692 -0.2307  0.1096
 7504W        W11704   8.046   6.143   9.836 -0.0825 -0.0805 -0.2510
 7505W        W11705   7.493   0.607   2.591 -0.1535 -0.0518 -0.0721
 7506W        W11706   9.378   5.605   9.687 -0.0563 -0.1566 -0.0192
 7507W        W11707   1.863   1.323   1.624  0.0337  0.2901  0.1400
 7508W        W11708   6.121   3.208   2.725  0.2091 -0.2018  0.0909
 7509W        W11709   1.623   0.336   9.605 -0.0758 -0.1611 -0.1171
 7510W        W11710  10.291   1.828  12.568 -0.0803  0.3766 -0.1059
 7511W        W11711   1.809   6.963  12.447  0.1288 -0.0578  0.1212
 7512W        W11712   1.706   1.635  11.134 -0.1353 -0.2154 -0.0879
 7513W        W11713   1.250   8.314   3.377  0.2070  0.0027 -0.0272
 7514W        W11714   0.554   2.743   4.353 -0.2002  0.0790 -0.0066
 7515W        W11715   2.531   9.353  13.343 -0.0252 -0.0008 -0.2098
 7516W        W11716   0.073   2.747  11.295 -0.0475  0.1261 -0.0340
 7517W        W11717   1.552   1.904   3.170  0.0442 -0.0704 -0.2431
 7518W        W11718   6.812   9.080   3.148 -0.2685  0.1815  0.2323
 7519W        W11719   9.564   2.439  10.933 -0.3185 -0.1616  0.2495
 7520W        W11720   5.572   6.817   0.551  0.0977  0.0838  0.3414
 7521W        W11721   0.590   2.032   9.646 -0.0668  0.2185 -0.1084
 7522W        W11722   2.594   7.764   2.085 -0.0016  0.3367  0.0060
 7523W        W11723   6.551   1.736  11.997  0.0280  0.2825  0.2217
 7524W        W11724   7.501   4.735  10.016 -0.2933  0.1777 -0.1121
 7525W        W11725   5.296   1.761   9.830  0.0695  0.3061  0.0111
 7526W        W11726   1.598   6.504   9.376 -0.1324 -0.2921 -0.2101
 7527W        W11727   6.556   9.870  12.430 -0.0170 -0.0115 -0.0183
 7528W        W11728   4.185   1.905  12.768 -0.3069  0.2544  0.0978
 7529W        W11729   5.638   0.241   0.249 -0.1939 -0.0578 -0.0541
 7530W        W11730   6.597   3.456  10.344 -0.2558 -0.2370  0.1551
 7531W        W11731   2.780   6.166   2.318  0.0394 -0.0431 -0.0250
 7532W        W11732   0.143   3.071  11.672  0.2298  0.1918  0.1118
 7533W        W11733   8.247   2.971   2.554  0.2320  0.1065 -0.0738
 7534W        W11734   9.241   8.180  13.036  0.1085 -0.0620 -0.2196
 7535W        W11735   6.241   3.204  12.701 -0.0438  0.1216 -0.6201
 7536W        W11736   5.083   0.683  11.484  0.1452 -0.1626 -0.4063
 7537W        W11737   1.576   1.517   0.844  0.2352 -0.3038  0.1499
 7538W        W11738   0.086   8.506   3.024 -0.1854  0.3014  0.1522
 7539W        W11739   8.845   8.758   2.818 -0.1371  0.2461 -0.2082
 7540W        W11740   8.247   6.888   4.510  0.1449  0.1843  0.3869
 7541W        W11741   6.011   3.778  12.520 -0.2404  0.1049 -0.2427
 7542W        W11742   4.277   0.944   1.731  0.0092 -0.0161 -0.2661
 7543W        W11743   6.664   5.083   9.210  0.1775 -0.2749  0.1038
 7544W        W11744   6.545   3.177   2.001  0.0993  0.0113 -0.0039
 7545W        W11745   5.537   0.957   0.196 -0.1039 -0.1059  0.1035
 7546W        W11746   8.843   1.862  10.029  0.2928  0.2221 -0.1655
 7547W        W11747   8.460   5.131  11.408  0.0142  0.0904  0.2335
 7548W        W11748   2.587   4.343   2.714  0.0306  0.1586 -0.1232
 7549W        W11749   1.374   3.354  12.494 -0.1867 -0.0927  0.1893
 7550W        W11750   7.188   5.551  11.785  0.1982  0.0834 -0.1711
 7551W        W11751   7.545   4.486   0.393 -0.0894 -0.1013 -0.1521
 7552W        W11752   7.414   8.566  12.629  0.0720 -0.0616  0.2996
 7553W        W11753   7.257   5.838   1.245  0.1249 -0.1087  0.1843
 7554W        W11754   5.844   1.111   9.267  0.2844  0.0395 -0.2413
 7555W        W11755   7.152   9.063   9.397 -0.1572 -0.1505  0.1297
 7556W        W11756   1.615   2.035   2.563 -0.1748  0.0682  0.0340
 7557W        W11757   7.984   9.331   0.139  0.0276 -0.0379  0.0383
 7558W        W11758   6.182   0.522   0.915 -0.0518  0.1041  0.0381
 7559W        W11759   5.629   0.906   9.737  0.2608  0.3398 -0.0997
 7560W        W11760   1.091   9.310  10.699  0.0327  0.0534  0.1107
 7561W        W11761   8.777   5.079   4.882  0.0230 -0.0946  0.2450
 7562W        W11762   4.280  10.024   0.755 -0.0079 -0.1561 -0.0484
 7563W        W11763   7.831   9.833   4.471  0.0009 -0.0950  0.2097
 7564W        W11764   5.587   7.237   3.286  0.1688 -0.1518 -0.1412
 7565W        W11765   1.551   0.052  10.564  0.1216  0.1998  0.1499
 7566W        W11766   6.429   6.295   9.376 -0.1205  0.2574  0.0907
 7567W        W11767   4.108   8.620   2.062 -0.0262  0.3006  0.0699
 7568W        W11768   7.505   6.829  11.442 -0.0448 -0.2863 -0.0597
 7569W        W11769   3.769   7.989   2.367  0.0277  0.3923 -0.1226
 7570W        W11770   8.532   7.161   1.854 -0.2196  0.0837  0.0359
 7571W        W11771   5.545   8.366   3.623 -0.1762  0.1254 -0.2433
 7572W        W11772   5.929   1.242   0.391  0.1063 -0.0411 -0.0154
 7573W        W11773   7.116   7.682  11.627 -0.1647  0.2141 -0.0469
 7574W        W11774   8.450   1.296  12.712 -0.1380 -0.0948  0.3360
 7575W        W11775   6.629   2.874   3.514  0.1566 -0.1312 -0.0126
 7576W        W11776   6.447   1.888  11.142 -0.0973 -0.1648 -0.2303
 7577W        W11777  10.372   3.560  10.346  0.2812  0.3091  0.1536
 7578W        W11778   0.904   6.390  11.500 -0.2589  0.2601  0.1790
 7579W        W11779   4.964   5.022  10.028  0.5412  0.0018 -0.1768
 7580W        W11780   5.193   5.971  11.112  0.0234  0.2511  0.1881
 7581W        W11781   8.788   2.283   2.519 -0.0663  0.2439 -0.4171
 7582W        W11782   4.254   4.725   2.834  0.0934 -0.2415 -0.0611
 7583W        W11783   8.148   3.060   1.026 -0.1453  0.2573 -0.1238
 7584W        W11784   9.353   4.105   9.646 -0.4275 -0.1862  0.2757
 7585W        W11785   8.866   9.449   0.522 -0.1806 -0.0296 -0.1799
 7586W        W11786   8.146   0.363   0.966  0.0644  0.4056  0.0375
 7587W        W11787   4.199  10.232   1.291  0.2331  0.2958 -0.0835
 7588W        W11788   5.822   3.851   9.552  0.3193 -0.3509 -0.0230
 7589W        W11789   1.350   4.616  10.084  0.0746 -0.0422 -0.0854
 7590W        W11790   3.275   3.527   8.700  0.0000  0.1506  0.1539
 7591W        W11791   9.196   3.019   3.411 -0.0321  0.3221  0.0904
 7592W        W11792   1.588   6.009   9.157  0.3322 -0.0226 -0.1936
 7593W        W11793   5.127   5.136  11.440  0.2079  0.1273  0.1981
 7594W        W11794   4.817   7.955   9.383  0.1505  0.0727 -0.1058
 7595W        W11795   8.388   1.149  11.889 -0.1882 -0.0609 -0.3384
 7596W        W11796   6.418   1.219  12.395 -0.1568 -0.0598  0.0672
 7597W        W11797   4.848   8.815   2.297 -0.2399 -0.1628  0.1408
 7598W        W11798   5.689   2.804  12.333 -0.1900 -0.0046  0.3022
 7599W        W11799   8.651   9.618   3.468 -0.0666  0.0624  0.0647
 7600W        W11800   3.119   5.882  10.352  0.0369 -0.2048 -0.1796
 7601W        W11801   6.721   0.142   3.708  0.1501 -0.1422  0.0312
 7602W        W11802   1.287   2.595  11.886  0.2041 -0.1517 -0.0539
 7603W        W11803   6.135   5.911   9.502  0.0042 -0.4338  0.1582
 7604W        W11804   7.612   9.143   1.968  0.0947  0.0846  0.0139
 7605W        W11805   2.968   2.076  10.656 -0.0992  0.1021 -0.0201
 7606W        W11806   2.373   8.782  10.012 -0.3688 -0.2086  0.0514
 7607W        W11807   0.475   7.529  10.790 -0.2685 -0.0345 -0.2998
 7608W        W11808   9.957   6.645   8.462  0.0381  0.2412 -0.0432
 7609W        W11809   2.924   2.037   3.810  0.1568 -0.1553  0.3942
 7610W        W11810  10.427   5.633   8.724  0.0820 -0.1082  0.1020
 7611W        W11811   8.669   4.333  10.972 -0.0106  0.0665  0.1368
 7612W        W11812   7.935   5.138  13.190  0.1647 -0.1985  0.0278
 7613W        W11813   5.521   1.453   1.707  0.2975  0.0868  0.2574
 7614W        W11814   8.347   1.582   3.898  0.1831  0.0986 -0.0842
 7615W        W11815   0.593   6.101  10.836 -0.0858 -0.0023 -0.0851
 7616W        W11816   4.779   3.084   9.151  0.2343 -0.0205 -0.0467
 7617W        W11817   2.407   9.904  13.344 -0.0085 -0.0278 -0.2648
 7618W        W11818   2.447   1.992   1.068 -0.1170 -0.0756 -0.1453
 7619W        W11819  10.379   8.260   2.133 -0.0256 -0.0690  0.2144
 7620W        W11820   9.609   7.062   4.436  0.1344 -0.2013  0.0008
 7621W        W11821   4.847  10.185  12.021 -0.1366 -0.0638  0.0303
 7622W        W11822   7.429   9.780   2.702  0.1500  0.2352  0.3681
 7623W        W11823   1.260   7.032  11.770  0.3105  0.0109 -0.1937
 7624W        W11824   8.840   1.774   9.326 -0.1314 -0.1134 -0.1251
 7625W        W11825   7.925   7.688   8.942  0.2052  0.2231 -0.0033
 7626W        W11826   6.814   9.546  11.882  0.0923  0.0737 -0.0750
 7627W        W11827   6.369   8.510   2.009  0.0171 -0.3900 -0.4360
 7628W        W11828   2.149   2.938   2.757 -0.1776 -0.0066  0.0374
 7629W        W11829   6.436   8.796  12.735 -0.0009  0.3153 -0.1331
 7630W        W11830   2.573   0.678   2.386 -0.1074 -0.0347 -0.1053
 7631W        W11831   6.322   3.861   3.385  0.0878 -0.0775  0.0557
 7632W        W11832   7.353   8.242  10.469 -0.3000 -0.1039  0.2832
 7633W        W11833   3.761   6.108  11.358 -0.0026 -0.1575  0.0806
 7634W        W11834   9.982   2.922   0.603 -0.0036 -0.0222 -0.0213
 7635W        W11835   8.122   7.127   0.536 -0.0455 -0.1349  0.2317
 7636W        W11836   2.141   6.034   3.448  0.2807 -0.2488  0.1713
 7637W        W11837   3.661  10.244   2.578 -0.2837 -0.1955 -0.0351
 7638W        W11838   6.771   5.286  13.370  0.1826  0.2741 -0.0749
 7639W        W11839   8.512   4.745  12.941  0.1440 -0.1196  0.1899
 7640W        W11840   6.850   3.494  11.053 -0.0018 -0.2016 -0.1964
 7641W        W11841   7.710   0.963  13.087 -0.2366  0.1136  0.3414
 7642W        W11842   4.874   8.935   9.810  0.1856 -0.1446  0.0222
 7643W        W11843   1.741   5.007  10.057 -0.0994  0.0456  0.0089
 7644W        W11844   2.395   8.640  13.180 -0.4004 -0.1406 -0.1262
 7645W        W11845  10.288   7.945   3.355  0.0683  0.0166  0.0392
 7646W        W11846   8.934   1.726   3.718 -0.2944  0.0596 -0.0318
 7647W        W11847   3.385   5.474  10.134  0.1206 -0.0130  0.2562
 7648W        W11848   6.168   1.533   4.553  0.0837  0.2646 -0.1618
 7649W        W11849   4.042   7.892   1.620 -0.0543  0.0286  0.1151
 7650W        W11850   0.838   9.220   3.649 -0.3469 -0.0150  0.2044
 7651W        W11851   7.584   9.533  12.372  0.0344  0.3019  0.0914
 7652W        W11852   1.344  10.357   0.485  0.2150 -0.3198  0.0597
 7653W        W11853   9.937   7.464   1.770  0.2510  0.1128  0.0075
 7654W        W11854   3.556  10.416   1.026 -0.1920 -0.0153  0.0669
 7655W        W11855   3.328   0.524   0.258  0.0545  0.1055  0.5269
 7656W        W11856   2.356   1.323   2.981 -0.1900 -0.0177  0.0453
 7657W        W11857   0.491   4.899  12.337 -0.1960 -0.2171  0.2608
 7658W        W11858   3.603   8.469  10.471 -0.0319 -0.2701  0.3132
 7659W        W11859   4.401   4.580  11.765 -0.1957 -0.0744  0.0804
 7660W        W11860   4.344  10.358   8.996 -0.1578  0.2211  0.3504
 7661W        W11861   6.659   9.044  12.096  0.0622 -0.4214 -0.2673
 7662W        W11862   6.198   6.762   1.494 -0.0985  0.0062 -0.1148
 7663W        W11863   2.749   0.472  11.939  0.0572  0.1958 -0.1120
 7664W        W11864  10.371   3.936   5.271 -0.3562  0.1187  0.0930
 7665W        W11865   7.331   5.755  12.908  0.1827  0.0120  0.0036
 7666W        W11866   9.199   8.658  13.166  0.0089  0.1294 -0.0629
 7667W        W11867   7.741   2.191   2.617  0.2921 -0.1584 -0.3065
 7668W        W11868   3.634   5.772  10.427  0.0186  0.0627  0.1600
 7669W        W11869   5.170   4.418   0.531 -0.0174 -0.0489 -0.2577
 7670W        W11870   4.529   0.781  12.129  0.0350  0.0080 -0.7022
 7671W        W11871   4.267   4.837   9.484 -0.0584 -0.1109  0.4748
 7672W        W11872   9.319   4.992   9.175  0.2073  0.1087  0.1313
 7673W        W11873   9.032   8.234   0.049  0.0536 -0.0680 -0.1465
 7674W        W11874   2.417   7.763   0.920 -0.1560 -0.0199  0.3232
 7675W        W11875   9.547  10.077   3.632 -0.0441 -0.2935 -0.3028
 7676W        W11876   5.736   2.239  13.266 -0.0345 -0.0067 -0.0903
 7677W        W11877   5.780   1.172   3.797  0.0667  0.0123  0.2043
 7678W        W11878   0.991   4.665  10.451  0.0841  0.1518 -0.3360
 7679W        W11879   5.160   3.009   3.981 -0.0065 -0.0078  0.0953
 7680W        W11880   9.973   0.202   2.983  0.0351  0.2836  0.1284
 7681W        W11881   6.723   3.169  11.602  0.2179 -0.0401 -0.2263
 7682W        W11882   7.370   4.905   0.663  0.1437  0.0471 -0.1325
 7683W        W11883   2.247   8.170   3.455  0.0456  0.0310  0.1532
 7684W        W11884   9.376  10.233   2.784  0.2014  0.3495 -0.3004
 7685W        W11885   0.029   4.117   9.884  0.2172 -0.0568 -0.0455
 7686W        W11886   6.105   2.106  10.348 -0.0777  0.1118  0.1622
 7687W        W11887   6.987   4.880  13.248  0.2236  0.4416 -0.0571
 7688W        W11888   6.110   4.692  10.936 -0.1693  0.2493  0.1174
 7689W        W11889  10.375   5.259   3.111 -0.1298 -0.1769  0.0040
 7690W        W11890   7.805  10.046   2.305  0.1163 -0.0988 -0.0637
 7691W        W11891   6.990   0.449  13.052 -0.2421  0.1503 -0.1876
 7692W        W11892   4.718   5.924  10.194  0.2748  0.1740  0.3053
 7693W        W11893   8.589   5.808   0.083  0.1280  0.1518 -0.1442
 7694W        W11894   0.644  10.265  10.414  0.0122  0.2606 -0.2047
 7695W        W11895   9.967   9.425   4.468  0.2118  0.0413  0.0224
 7696W        W11896   0.385   3.119  12.347 -0.2037 -0.1137  0.1007
 7697W        W11897   9.036   6.893   3.195 -0.0466  0.0938 -0.1678
 7698W        W11898   6.550  10.014  11.939 -0.1186 -0.0932  0.1498
 7699W        W11899   5.075   6.396  11.549  0.0540 -0.1047  0.1885
 7700W        W11900   1.069   4.431   2.572 -0.1361 -0.0508  0.0959
 7701W        W11901   4.577   5.234  13.260  0.0465  0.2636  0.0937
 7702W        W11902   6.574   4.500  10.301 -0.1707 -0.1347  0.0379
 7703W        W11903   7.124   0.467  11.532  0.0566  0.2283  0.1538
 7704W        W11904   6.939   1.164  12.472  0.2848  0.3344 -0.0495
 7705W        W11905   3.553   0.956   9.396  0.0291 -0.1113  0.0242
 7706W        W11906   6.865   1.805   1.730  0.0526 -0.0291 -0.1566
 7707W        W11907   6.731   2.913   1.502 -0.0850  0.3659  0.1323
 7708W        W11908   2.718   8.566   0.775 -0.0166 -0.4787  0.1267
 7709W        W11909   7.371   8.847   2.888  0.3043 -0.1901 -0.2846
 7710W        W11910   3.886   8.873   2.729 -0.2028  0.0168 -0.2565
 7711W        W11911   0.960   3.807   0.689 -0.1737  0.0354  0.0900
 7712W        W11912   3.715   0.874  11.068  0.1245  0.0180 -0.1130
 7713W        W11913   3.912   3.066  10.027 -0.0883  0.0677  0.2269
 7714W        W11914   9.967   7.552  11.580  0.1652 -0.3064  0.0139
 7715W        W11915   9.966   8.704  11.066  0.1508 -0.0081 -0.1492
 7716W        W11916   3.913   7.762  11.528 -0.0569  0.3200  0.0816
 7717W        W11917   8.899   5.035   2.492  0.2977  0.2711  0.2386
 7718W        W11918   3.484   2.786  11.027  0.0881 -0.1344 -0.0394
 7719W        W11919   6.558   5.471  12.184  0.0492  0.0240  0.2616
 7720W        W11920   4.070   3.705   4.589 -0.0178 -0.1970 -0.0564
 7721W        W11921   1.722   5.533   0.578  0.1694 -0.0451  0.3649
 7722W        W11922   6.262   8.347  13.011  0.0438  0.1770 -0.0811
 7723W        W11923   6.400   5.085   9.607 -0.0697 -0.0861  0.2118
 7724W        W11924   6.624   9.292   2.456  0.0526 -0.1737 -0.1740
 7725W        W11925   2.453   3.354   0.817 -0.1057  0.1737  0.0677
 7726W        W11926   3.641   3.997   3.768 -0.3162 -0.0832  0.2265
 7727W        W11927   1.479   6.116   9.699 -0.3634 -0.0303 -0.0769
 7728W        W11928  10.117   6.428   4.176 -0.0863 -0.1178  0.2934
 7729W        W11929   6.504   3.969   1.449  0.3216  0.0868  0.1883
 7730W        W11930   2.172   2.271   3.976  0.0322 -0.0070  0.2876
 7731W        W11931   9.255   9.679   3.761 -0.0940  0.0593  0.1450
 7732W        W11932   8.229   3.282   3.379 -0.2137 -0.2947 -0.1955
 7733W        W11933   9.255   0.091   4.414  0.3519  0.0446  0.0842
 7734W        W11934   9.026   8.343  10.370  0.2228  0.0633  0.1007
 7735W        W11935   4.230   2.862  10.398  0.0897  0.1963 -0.0643
 7736W        W11936   0.476   6.219   0.303  0.1859  0.0387 -0.1952
 7737W        W11937   2.210  10.444  12.443 -0.2556 -0.1808 -0.3938
 7738W        W11938   5.967  10.432  12.972  0.1671  0.0230 -0.2440
 7739W        W11939   7.987   9.745  11.502 -0.0661 -0.0052 -0.0175
 7740W        W11940   5.543   7.005  10.979 -0.0287 -0.0012  0.1495
 7741W        W11941   2.052   6.431   9.185 -0.3097 -0.3348 -0.0763
 7742W        W11942   2.781   5.962  13.182 -0.4522 -0.4290  0.1997
 7743W        W11943   4.331   1.853   3.976 -0.1503  0.2316 -0.4442
 7744W        W11944  10.372   5.292  13.292  0.2519  0.1551  0.1056
 7745W        W11945   6.447   8.805   1.510  0.1207 -0.0990 -0.2309
 7746W        W11946   3.636   9.210   1.608 -0.0776 -0.2210 -0.0436
 7747W        W11947   4.643   7.192   0.439 -0.3711 -0.1653 -0.2223
 7748W        W11948   3.870   3.920   5.082 -0.0905  0.3192 -0.1813
 7749W        W11949  10.112   1.208   0.864 -0.2408 -0.2680  0.0364
 7750W        W11950   6.418   9.012   2.834 -0.0420  0.2711 -0.0737
 7751W        W11951   2.214   4.403   1.881 -0.0072 -0.3013 -0.0546
 7752W        W11952   2.402   6.535  12.804  0.2004 -0.0905 -0.3938
 7753W        W11953   7.985   1.891  10.859  0.4503  0.2272 -0.1192
 7754W        W11954   8.539  10.021  12.175  0.1467  0.0712 -0.0311
 7755W        W11955   1.551   0.231   1.821  0.1289 -0.1057  0.0443
 7756W        W11956   6.735   0.003  11.970  0.1749  0.0634 -0.3915
 7757W        W11957   0.774   7.230   0.291 -0.0283 -0.1616 -0.1582
 7758W        W11958   8.924   1.803   3.093  0.0747  0.2682 -0.1892
 7759W        W11959   0.366   7.335   3.808  0.0669 -0.1382  0.0732
 7760W        W11960   1.767   9.054  12.485 -0.3019 -0.0203  0.0841
 7761W        W11961   3.652   2.588   2.032  0.1441 -0.0743  0.0852
 7762W        W11962   1.613   5.293  11.331  0.1529  0.1089 -0.2350
 7763W        W11963   5.089   5.295  12.384 -0.1492 -0.1433 -0.1157
 7764W        W11964   3.935   9.016  12.301  0.5340 -0.0880 -0.0348
 7765W        W11965   0.651   6.899   2.099 -0.2438  0.0976 -0.2055
 7766W        W11966   1.765   2.045   9.020 -0.1582  0.0383  0.0620
 7767W        W11967   0.663   6.554   9.918  0.0307 -0.1138  0.0107
 7768W        W11968   2.944   0.070   3.154 -0.3429  0.1380  0.1194
 7769W        W11969   7.049   9.116   2.639 -0.2926  0.2367 -0.4973
 7770W        W11970  10.157   1.814   3.773  0.1499 -0.1709  0.0770
 7771W        W11971   5.049   1.328   9.921 -0.2200 -0.0437  0.1226
 7772W        W11972   9.642   0.742   2.323  0.1501  0.5380 -0.3091
 7773W        W11973   9.435   2.223   9.905  0.2082  0.2671  0.2234
 7774W        W11974   1.527   0.256  12.661 -0.0323 -0.1640 -0.1466
 7775W        W11975   3.163   2.135   8.977  0.1754 -0.3158  0.1533
 7776W        W11976   6.705   1.552  10.942 -0.0301 -0.0558 -0.0950
 7777W        W11977  10.358   2.073   2.424 -0.4821  0.2201  0.0005
 7778W        W11978   8.231   8.580   1.386 -0.0157  0.2462  0.3244
 7779W        W11979   7.393   0.809  11.809  0.0243 -0.1764  0.1494
 7780W        W11980   6.611   1.765   0.734 -0.1843  0.0742 -0.2603
 7781W        W11981   8.714   3.072  12.845 -0.2477  0.1574  0.0814
 7782W        W11982  10.335   1.485  13.013  0.2345 -0.0239 -0.0692
 7783W        W11983  10.145  10.317   8.464 -0.1303  0.0742  0.1523
 7784W        W11984   9.547   0.636  11.300  0.3469 -0.1876  0.0557
 7785W        W11985   9.325   2.822   1.479 -0.2210  0.0398 -0.0137
 7786W        W11986   9.090   9.491   3.344 -0.4200 -0.2311  0.0675
 7787W        W11987   2.567   4.973  13.220  0.3248  0.1153  0.3055
 7788W        W11988   0.991   4.097   4.898  0.1264  0.3140 -0.0210
 7789W        W11989   1.500   6.694   1.842 -0.3088 -0.3080  0.0796
 7790W        W11990   6.921   9.504  12.354 -0.2083  0.2398  0.0930
 7791W        W11991  10.463   6.453   9.652 -0.1095 -0.3007  0.1874
 7792W        W11992   8.235   3.681   2.045  0.0960  0.0234 -0.0580
 7793W        W11993   5.620   2.582  10.067 -0.2847 -0.0954  0.0091
 7794W        W11994   4.228   7.172   0.094 -0.1180 -0.2245  0.0620
 7795W        W11995   2.131   6.586   1.628 -0.1562 -0.0730  0.0684
 7796W        W11996   0.923   2.855  11.566 -0.1894 -0.3862  0.0164
 7797W        W11997   9.620   0.194   0.349 -0.1290  0.1385 -0.1291
 7798W        W11998  10.152   4.673   2.372 -0.0328 -0.0245 -0.2611
 7799W        W11999   2.673   1.139   1.213  0.1394 -0.3563  0.1021
 7800W        W12000   5.494   2.929  11.117  0.2285 -0.0937 -0.4845
 7801W        W12001   6.918   7.200   3.111  0.0537 -0.0968  0.0472
 7802W        W12002   1.175   1.227  11.504  0.2354 -0.0522 -0.0018
 7803W        W12003   6.361   9.795  10.363 -0.0296 -0.0725 -0.3491
 7804W        W12004  10.315   4.377  13.366 -0.0010 -0.0369 -0.1657
 7805W        W12005  10.096   4.310   1.565 -0.0601 -0.0811 -0.5068
 7806W        W12006   8.358   6.225   2.467  0.0396  0.1917 -0.0872
 7807W        W12007   4.022   8.095   9.660  0.0353  0.1062 -0.1861
 7808W        W12008   6.681   6.674  12.853  0.1569 -0.1407 -0.0585
 7809W        W12009   7.462  10.245   9.752 -0.4420 -0.1203 -0.0082
 7810W        W12010   8.723   9.230  10.689  0.0706  0.0179 -0.0919
 7811W        W12011   6.745   6.264   2.645  0.0763  0.1410 -0.0110
 7812W        W12012   3.200   7.270  13.145  0.2570  0.0515 -0.0465
 7813W        W12013   4.052   5.248   1.940  0.3534  0.5917 -0.2662
 7814W        W12014   2.418   7.839  10.812  0.1617 -0.3144  0.2979
 7815W        W12015   3.051   3.242  10.496 -0.0391 -0.2673  0.0186
 7816W        W12016   2.710   2.451   9.750 -0.0868 -0.0588  0.0483
 7817W        W12017   2.440   3.613   3.294 -0.1192 -0.1635 -0.1202
 7818W        W12018   2.578   9.602   3.309 -0.0084  0.2915 -0.0866
 7819W        W12019   3.885   4.797  12.713 -0.2060  0.2238 -0.1488
 7820W        W12020   7.535   6.216   9.951 -0.2242  0.3039 -0.1057
 7821W        W12021   3.588   3.302  11.350 -0.2597  0.0812  0.0238
 7822W        W12022   3.769   8.207   0.619 -0.0635  0.1961 -0.0270
 7823W        W12023   1.802   3.850   9.714  0.0830 -0.0417  0.1453
 7824W        W12024   6.829   2.473  10.657 -0.1911  0.1696  0.2583
 7825W        W12025   8.035   7.745   9.864 -0.0672 -0.1127  0.0236
 7826W        W12026   0.858   1.225  12.678  0.1110 -0.0451 -0.1256
 7827W        W12027   6.524   6.100  11.509 -0.0727 -0.0710  0.0637
 7828W        W12028   1.031   3.792  12.734 -0.3667 -0.0144  0.0333
 7829W        W12029   7.277  10.030   0.662 -0.1478  0.1200 -0.3186
 7830W        W12030   1.727   3.794  10.369 -0.0607 -0.4216  0.1540
 7831W        W12031   2.104   5.136  10.956 -0.0535  0.0261  0.2089
 7832W        W12032   1.176   0.728  11.096 -0.3715  0.1850 -0.2262
 7833W        W12033  10.475   8.105  12.922 -0.0150 -0.1797 -0.0520
 7834W        W12034   0.224   2.063   1.070 -0.0219 -0.0158 -0.1701
 7835W        W12035   9.838   7.001  11.396  0.1727 -0.3043  0.0659
 7836W        W12036   2.244   4.930   1.772 -0.0490  0.1815  0.1393
 7837W        W12037   8.955   7.331  13.410 -0.0511 -0.1176  0.1562
 7838W        W12038   3.804   4.481  11.779  0.0128  0.1481 -0.0700
 7839W        W12039   1.488   3.480  10.056  0.1971 -0.2594  0.1982
 7840W        W12040   2.967   3.014   3.891 -0.1290  0.0370  0.2673
 7841W        W12041   1.943   7.091   1.676 -0.0623 -0.1067  0.1652
 7842W        W12042   0.178   4.811   4.137  0.0965 -0.0983  0.3506
 7843W        W12043  10.178   8.287  10.905  0.2895  0.0147  0.3765
 7844W        W12044   0.198   4.384  10.644 -0.0449  0.4179 -0.2593
 7845W        W12045   4.650   4.239   4.025  0.2709  0.1314  0.3008
 7846W        W12046   3.011   5.166   3.123  0.1324 -0.1852 -0.0299
 7847W        W12047  10.258   0.069   9.802 -0.1363 -0.1473  0.0124
 7848W        W12048   4.428   8.697  13.435 -0.1646  0.2496  0.3280
 7849W        W12049   6.783   6.159   3.925  0.0225  0.1216 -0.0925
 7850W        W12050   8.820   3.159  10.483 -0.0667 -0.2660  0.2016
 7851W        W12051   7.542   2.814   0.359 -0.0725  0.1448 -0.0762
 7852W        W12052   8.068   4.203  12.095 -0.2434 -0.3267 -0.0657
 7853W        W12053   1.779   6.338  10.226 -0.1195 -0.1693  0.0490
 7854W        W12054   4.175   8.482   3.507 -0.1430 -0.1017 -0.0702
 7855W        W12055   6.723   6.763   2.251 -0.0580  0.0608  0.0660
 7856W        W12056   5.580   5.194  12.140 -0.1575 -0.0244 -0.0286
 7857W        W12057   5.640   9.383   2.823  0.3773  0.1549 -0.2598
 7858W        W12058   1.504   0.312   4.296 -0.1016 -0.1804 -0.3261
 7859W        W12059   1.911   0.158   8.957  0.1930  0.3494  0.1505
 7860W        W12060   1.872   1.169   3.804  0.0627  0.0634 -0.0625
 7861W        W12061   7.203  10.363   3.398  0.0037  0.0123 -0.0142
 7862W        W12062   4.551   9.436  11.385  0.0795 -0.0845  0.4228
 7863W        W12063   4.938   1.232   2.850 -0.0860 -0.1264  0.0942
 7864W        W12064   8.420   3.820   1.468 -0.2097 -0.2178  0.1090
 7865W        W12065   5.456   6.799   2.643  0.1953 -0.2966  0.1239
 7866W        W12066   0.904  10.434   9.989  0.0660  0.1101  0.1271
 7867W        W12067   4.984   7.528   2.565  0.1515 -0.1561  0.3663
 7868W        W12068  10.394   2.535   9.168  0.1189 -0.0965  0.1471
 7869W        W12069   2.571   7.348  12.148  0.0284 -0.1526 -0.2974
 7870W        W12070   9.195   1.447   8.971  0.1188 -0.1280 -0.2091
 7871W        W12071   0.684   0.017  12.179  0.1311  0.1659  0.0744
 7872W        W12072   4.773   5.449  12.843  0.1013  0.0582 -0.0452
 7873W        W12073   8.010   9.365  12.506  0.0401  0.1745  0.3041
 7874W        W12074   3.886   1.027   4.895 -0.0807 -0.4069 -0.0683
 7875W        W12075   0.749   4.461   1.553 -0.1384  0.2052  0.1251
 7876W        W12076   9.171   4.733  12.189  0.1229 -0.1030  0.1951
 7877W        W12077   5.028   9.111   0.782 -0.0346  0.4008 -0.0458
 7878W        W12078   8.581   1.797  12.669  0.0782  0.1932  0.0293
 7879W        W12079   3.099   5.684   0.062  0.1119 -0.0314 -0.0374
 7880W        W12080  10.453   7.700  10.759 -0.2574 -0.4252 -0.0189
 7881W        W12081   5.642   6.800  10.423 -0.3446 -0.0214  0.1122
 7882W        W12082   9.838   0.638   2.817 -0.1213  0.3335 -0.0451
 7883W        W12083   0.177  10.246  10.931 -0.4856  0.0241 -0.1292
 7884W        W12084   2.313   1.663   2.585 -0.3242 -0.2725 -0.2195
 7885W        W12085   7.009   3.525  12.401  0.0516 -0.0152 -0.1316
 7886W        W12086   4.476   1.607   9.841  0.1035  0.0492  0.0048
 7887W        W12087   0.410   8.423  12.974 -0.0116  0.3076 -0.1798
 7888W        W12088   7.989   4.938   3.447 -0.2900  0.2621  0.1454
 7889W        W12089   0.893   2.131  11.717  0.0171 -0.1153 -0.0805
 7890W        W12090   9.993   4.350  12.990 -0.0661 -0.0039  0.4188
 7891W        W12091   1.558   7.483   3.135 -0.3028 -0.2055 -0.0679
 7892W        W12092   9.883   2.061   0.539  0.0573  0.2209  0.0712
 7893W        W12093   8.705   8.353  12.999  0.0038 -0.2685 -0.2176
 7894W        W12094   4.653   9.024   3.373 -0.2991 -0.1864 -0.0313
 7895W        W12095   4.386   2.253   0.835  0.0935 -0.1178 -0.0441
 7896W        W12096   6.504   2.269   2.001 -0.4284  0.0044  0.0393
 7897W        W12097  10.389   3.536   0.182 -0.1347 -0.0297  0.2681
 7898W        W12098   8.024   1.721   0.911 -0.2143  0.1999  0.1731
 7899W        W12099   0.404   3.183   2.093  0.1341  0.2129  0.0938
 7900W        W12100   8.877   4.421  13.266  0.1753 -0.0504 -0.5806
 7901W        W12101  10.120   7.625   2.255 -0.0140 -0.3628  0.0563
 7902W        W12102   3.219   8.871  12.578 -0.0513 -0.3043 -0.2401
 7903W        W12103   7.375   4.037   0.690 -0.1658 -0.1470 -0.1136
 7904W        W12104   9.495  10.155   4.728  0.0241 -0.1285 -0.0033
 7905W        W12105   5.176   1.570   8.610  0.3965 -0.1625  0.1337
 7906W        W12106   1.107   1.690  11.920 -0.1467  0.0756 -0.1156
 7907W        W12107   0.828   3.410  10.158 -0.0481 -0.1578  0.1041
 7908W        W12108   2.002   3.178  13.390 -0.0573 -0.1905 -0.1388
 7909W        W12109  10.109   6.391   9.272  0.0226  0.0375 -0.0778
 7910W        W12110   7.893   2.052   4.075 -0.0045  0.3382 -0.0257
 7911W        W12111   1.648   3.757  10.855 -0.0130  0.0302  0.1971
 7912W        W12112   7.670   2.779  11.299 -0.2328  0.0069  0.3543
 7913W        W12113   6.133   1.947   5.505 -0.2778 -0.0188 -0.0594
 7914W        W12114   2.995   9.322   0.696  0.0976 -0.0634  0.0666
 7915W        W12115   2.322   5.847   2.237 -0.2517 -0.0592 -0.2898
 7916W        W12116   0.914   0.747   0.324 -0.3591 -0.1915 -0.2780
 7917W        W12117   8.418   5.612   2.456  0.1184  0.1584 -0.1836
 7918W        W12118   1.948   0.883  10.171  0.2755 -0.0467 -0.0132
 7919W        W12119   1.666   9.520  10.789  0.1896 -0.1942  0.3192
 7920W        W12120   5.315   4.214   3.923 -0.2265 -0.3368  0.0220
 7921W        W12121   4.300   3.338  10.292 -0.0804  0.0456 -0.0473
 7922W        W12122   3.926  10.002  12.315 -0.1889  0.1977  0.1564
 7923W        W12123   0.415   0.051  11.798  0.3089  0.1999  0.3613
 7924W        W12124   5.930   3.476   9.864  0.0763 -0.0232  0.1355
 7925W        W12125   7.983   6.574  10.660 -0.0942  0.0332 -0.0361
 7926W        W12126   7.301   1.520   2.598  0.1945  0.3634  0.0316
 7927W        W12127   1.427   6.152   2.209 -0.0670  0.0206 -0.3509
 7928W        W12128   6.038   5.488   0.693  0.0676  0.1777  0.0465
 7929W        W12129   2.556   0.393   9.623  0.2583  0.0565  0.0338
 7930W        W12130   5.472   3.532   2.148 -0.1681 -0.0192 -0.1630
 7931W        W12131  10.001   0.315   2.462 -0.3210  0.2081  0.3266
 7932W        W12132   4.236   3.775  11.147 -0.0435  0.0505 -0.0351
 7933W        W12133   6.662   6.922  11.997 -0.2659  0.0745 -0.1363
 7934W        W12134   7.928   6.175  10.383 -0.0712 -0.3802  0.1988
 7935W        W12135   0.241   4.859  10.971  0.0280  0.0322  0.3510
 7936W        W12136   1.381   5.593  12.968 -0.0637 -0.0869  0.0634
 7937W        W12137   2.985   8.606  13.159 -0.0027 -0.1889 -0.0403
 7938W        W12138   1.427   4.791  11.318 -0.2456 -0.0125 -0.0507
 7939W        W12139   3.130   2.954   5.203 -0.2285 -0.1006 -0.1430
 7940W        W12140  10.311   9.019   3.549 -0.2548 -0.0441 -0.0917
 7941W        W12141   0.037   0.197   0.011 -0.1075 -0.0235 -0.3491
 7942W        W12142   0.352   0.606   0.990  0.0037 -0.3000 -0.0702
 7943W        W12143   0.704   7.693   9.466  0.0841 -0.0636  0.0771
 7944W        W12144   5.664   9.618  10.609  0.0971  0.3670 -0.2523
 7945W        W12145   9.087   3.588  13.150  0.0080  0.1985  0.0533
 7946W        W12146   5.909   3.662   4.529  0.0980 -0.2035  0.1618
 7947W        W12147   3.676   5.583   1.846 -0.0348 -0.2564 -0.2854
 7948W        W12148   6.408   5.973  12.068 -0.2331  0.2231  0.2065
 7949W        W12149   9.288   2.954   2.006 -0.3223 -0.3011 -0.2148
 7950W        W12150   9.961   2.013   0.082  0.4814 -0.0324  0.0319
 7951W        W12151   0.025   5.369   3.549  0.1333  0.1557 -0.1079
 7952W        W12152   1.312   7.513   2.379 -0.1227  0.0080 -0.3009
 7953W        W12153   3.189   2.912   0.482  0.2538 -0.0258 -0.1234
 7954W        W12154   1.315   4.321  11.528  0.0282  0.0074  0.1304
 7955W        W12155   9.090   5.933   0.134  0.3127 -0.1582  0.3078
 7956W        W12156   6.983   1.342   3.008 -0.0168  0.2369 -0.4374
 7957W        W12157  10.309   0.605  13.126 -0.1913 -0.0139  0.2991
 7958W        W12158   5.067   8.855   3.290 -0.3338  0.1878 -0.2433
 7959W        W12159   4.700   7.508  12.493 -0.0364 -0.2911  0.1519
 7960W        W12160   5.540   1.341  10.066 -0.0621 -0.1957  0.1608
 7961W        W12161   8.376   6.966   8.938  0.0292 -0.0288  0.3828
 7962W        W12162   6.362   7.749   1.251 -0.1716  0.3040  0.0556
 7963W        W12163   8.322   4.394   9.432 -0.1618 -0.1290 -0.4065
 7964W        W12164   2.360   0.173  11.789  0.1574  0.2061 -0.1744
 7965W        W12165   3.810   4.171   4.613  0.3115 -0.0619 -0.2841
 7966W        W12166   5.046   1.778   2.739  0.0855 -0.0374  0.0733
 7967W        W12167   6.220   7.634   0.372  0.2731  0.0060 -0.0146
 7968W        W12168   3.930   9.066  11.811  0.0416 -0.1908  0.0812
 7969W        W12169   5.657   6.340   0.810 -0.3420 -0.0192 -0.2715
 7970W        W12170   0.624   0.901   4.280  0.0021 -0.2735 -0.1298
 7971W        W12171   9.409   6.030   3.752  0.1593  0.1227 -0.3212
 7972W        W12172   2.725   1.648   3.635 -0.2416 -0.0873  0.0731
 7973W        W12173   8.030  10.139  11.050 -0.0353  0.1470 -0.2832
 7974W        W12174   7.666   2.312   0.469 -0.0299  0.0610  0.0003
 7975W        W12175   8.841   7.128  12.380  0.2530 -0.1267 -0.0931
 7976W        W12176   4.584   4.376  12.207 -0.1189 -0.1410  0.0106
 7977W        W12177   0.639   3.470   3.678  0.0244 -0.0293 -0.0363
 7978W        W12178   2.894   6.597  11.225 -0.1078 -0.1813  0.1942
 7979W        W12179   1.246   3.973   1.086 -0.0205  0.1449 -0.0062
 7980W        W12180   1.774   9.116   1.905  0.3328 -0.0697 -0.3495
 7981W        W12181   7.819   4.632   1.868 -0.0736 -0.3279 -0.2429
 7982W        W12182   7.264   2.117   1.538  0.1308 -0.0254  0.0383
 7983W        W12183   1.526   4.350   9.004  0.0610 -0.2184 -0.0054
 7984W        W12184   0.447   5.905  12.283 -0.0349 -0.0144  0.1503
 7985W        W12185   7.207   0.212   3.736  0.1873  0.0050 -0.0526
 7986W        W12186   7.864   9.476   1.673 -0.0728 -0.1951  0.1914
 7987W        W12187   1.425   0.316   2.630  0.0723 -0.0218 -0.0915
 7988W        W12188   1.738   3.359  10.604 -0.2096 -0.1476 -0.0666
 7989W        W12189   6.857   4.458   1.451  0.2773 -0.0621 -0.1393
 7990W        W12190   7.170   0.565   9.795  0.1858 -0.0249  0.0608
 7991W        W12191   1.935   6.063   2.422  0.0393 -0.3937 -0.0214
 7992W        W12192   5.414   8.212   2.316  0.3159 -0.1700  0.0787
 7993W        W12193   5.662   0.993   1.278 -0.3704 -0.3196  0.2610
 7994W        W12194   0.143   6.464   0.618 -0.2008 -0.0063 -0.0791
 7995W        W12195   8.954   0.882   2.116 -0.1715 -0.1965  0.3496
 7996W        W12196   9.909   6.259  13.312 -0.0968 -0.1109  0.3192
 7997W        W12197   4.769   4.989   1.086 -0.2682 -0.1436  0.1582
 7998W        W12198   6.571   1.515   4.277  0.0523  0.2339  0.1589
 7999W        W12199   7.979   5.654   9.350 -0.0110 -0.1400 -0.2197
 8000W        W12200   9.751   2.975   2.040 -0.1370  0.1671  0.1128
 8001W        W12201   3.955   5.255   9.534  0.0683  0.0612 -0.0643
 8002W        W12202   1.191   7.985   0.038 -0.2571  0.1543 -0.1436
 8003W        W12203   4.228   9.031  11.333  0.0982 -0.0729  0.0460
 8004W        W12204   4.363   4.833  12.917 -0.0358 -0.1064 -0.1689
 8005W        W12205   5.979   3.073  10.824 -0.0982  0.1007  0.1865
 8006W        W12206   7.821   2.584  12.960 -0.1002  0.2563  0.2435
 8007W        W12207   9.602   7.679   2.265 -0.2898  0.1363  0.2661
 8008W        W12208   6.700   0.394   0.529  0.0398 -0.0146 -0.1806
 8009W        W12209   3.183   3.796   2.851  0.0460 -0.1522  0.2476
 8010W        W12210   6.528   2.394   3.339 -0.2998  0.0708  0.1150
 8011W        W12211   3.345   6.793   0.654 -0.2549 -0.0027  0.0816
 8012W        W12212   0.514   0.818  13.424 -0.2181  0.1256  0.0819
 8013W        W12213   1.336   9.488   2.660  0.1938 -0.1639  0.0035
 8014W        W12214   0.563   8.419   2.957  0.4303  0.0326 -0.1883
 8015W        W12215   1.739   7.316  13.301 -0.3572 -0.2002 -0.2091
 8016W        W12216   6.160   3.708   3.884 -0.2288  0.1368  0.2107
 8017W        W12217   7.338   1.692   1.274 -0.0266  0.0358  0.1409
 8018W        W12218   6.979   1.809   2.255 -0.1225 -0.1850 -0.0927
 8019W        W12219   2.547   3.363  13.400  0.2319  0.2338 -0.1452
 8020W        W12220   7.541  10.478   1.605 -0.1679 -0.1099  0.0733
 8021W        W12221   2.136   2.408   0.948  0.0659 -0.1837 -0.0305
 8022W        W12222   9.243   5.249   0.339 -0.0811 -0.0214 -0.2334
 8023W        W12223   6.516   8.373   2.496  0.0276  0.3988 -0.2508
 8024W        W12224   7.002   4.058   3.088 -0.0899  0.1807  0.0553
 8025W        W12225   0.348   8.632   9.731  0.0266  0.1011  0.0111
 8026W        W12226   3.837   0.455   1.802 -0.1337  0.1641  0.2056
 8027W        W12227   8.497   5.216   2.820 -0.1437 -0.1258  0.0803
 8028W        W12228   5.302   8.120  13.159 -0.1233  0.3948 -0.0209
 8029W        W12229   2.034   0.460   4.364  0.0295  0.0801 -0.0770
 8030W        W12230   8.372   4.571   1.846  0.0275 -0.0684  0.0123
 8031W        W12231   7.221   3.551   0.969 -0.0109  0.2052 -0.1321
 8032W        W12232   3.187   6.647  10.698  0.0026 -0.1949 -0.3007
 8033W        W12233   8.332   9.003   2.852 -0.2834  0.1189  0.1199
 8034W        W12234   3.452   9.386  10.017  0.6759  0.1777  0.1520
 8035W        W12235   5.064   2.119   0.474  0.3479 -0.1609 -0.1893
 8036W        W12236  10.174   6.653  11.372 -0.0930 -0.0715  0.0363
 8037W        W12237   7.229   8.305  13.100  0.1054  0.2257  0.1836
 8038W        W12238   0.656   4.730   1.163  0.0740 -0.0641 -0.0072
 8039W        W12239   5.611   2.512  12.781  0.2816 -0.2378 -0.0709
 8040W        W12240   4.308   8.058  11.400 -0.1510  0.1696  0.1576
 8041W        W12241   9.368   2.295  12.648  0.3984 -0.3516 -0.1551
 8042W        W12242   4.235   2.282   2.854 -0.0971 -0.0283  0.1597
 8043W        W12243   8.298   7.870   2.836  0.3045  0.4352 -0.0057
 8044W        W12244   8.812   5.621   9.013 -0.2483  0.3831 -0.0208
 8045W        W12245   6.745  10.449  11.072 -0.1647 -0.0232  0.2497
 8046W        W12246   9.799   8.775  11.659 -0.0688  0.0790  0.0656
 8047W        W12247   9.648   1.655   3.809  0.0985  0.1550 -0.5138
 8048W        W12248   0.633   3.693   2.716  0.0849  0.0602  0.1994
 8049W        W12249   6.031   1.079  11.146  0.0361 -0.0597 -0.0929
 8050W        W12250   6.516   9.706  11.469 -0.0540  0.2801  0.1831
 8051W        W12251   0.138   1.949   8.900 -0.1321 -0.0920  0.1478
 8052W        W12252   8.769   8.368   8.665 -0.0366  0.1619  0.2604
 8053W        W12253   7.188   0.993   3.312 -0.2437  0.2499 -0.0059
 8054W        W12254   8.460   5.039   2.192 -0.1198 -0.1653  0.1821
 8055W        W12255   3.551  10.217  11.327 -0.2005  0.0915 -0.0943
 8056W        W12256   1.480   7.633   9.842  0.0148 -0.0673 -0.2180
 8057W        W12257   7.692   2.741  10.315 -0.1296  0.1393 -0.1911
 8058W        W12258   9.361   9.377   0.331 -0.2169  0.0200 -0.0950
 8059W        W12259   3.125   2.467   1.925  0.0217 -0.2653 -0.2511
 8060W        W12260   1.993   3.620  12.659 -0.0761  0.2548 -0.0750
 8061W        W12261   0.905   7.402  11.772  0.2994 -0.2179  0.3445
 8062W        W12262   5.138   3.770   3.128 -0.2054 -0.5282  0.2603
 8063W        W12263   9.239   7.638  10.138 -0.2788 -0.1171 -0.1974
 8064W        W12264   5.449   3.387   9.093 -0.2132 -0.1094  0.1100
 8065W        W12265   5.029   0.720   4.514 -0.1781  0.3426 -0.1271
 8066W        W12266   2.453   7.186   2.987  0.0218  0.0034 -0.1460
 8067W        W12267  10.138   5.822  10.849 -0.1271 -0.2701  0.0782
 8068W        W12268   3.003   3.433   2.450  0.2039 -0.1918  0.4199
 8069W        W12269   2.699   9.040  11.537  0.2833 -0.1781 -0.0667
 8070W        W12270   8.488   5.732  11.056  0.1308 -0.1498 -0.0770
 8071W        W12271   8.160   4.892  10.717  0.0087 -0.0992  0.0764
 8072W        W12272   9.270   6.101   9.823  0.1924 -0.0667  0.0047
 8073W        W12273   3.457   3.927  12.456  0.0778 -0.0173 -0.2874
 8074W        W12274   8.890   1.153   3.631  0.0118  0.0663 -0.2082
 8075W        W12275   9.217   5.276   3.019 -0.3911 -0.5418  0.0016
 8076W        W12276   9.084   7.755   2.296 -0.2085  0.0013  0.1182
 8077W        W12277  10.024   0.285  12.134  0.0596  0.3414  0.2225
 8078W        W12278   9.915   8.026   2.042  0.2700  0.1303 -0.0302
 8079W        W12279   5.363  10.369   4.074 -0.2276  0.2343  0.1497
 8080W        W12280   4.417   8.424   9.893  0.1641  0.0892  0.3071
 8081W        W12281   5.044   2.445  13.013 -0.4875  0.4100  0.0209
 8082W        W12282   5.760   6.360  10.208 -0.1118  0.1741 -0.3170
 8083W        W12283   5.450   8.559   1.928  0.0657  0.0511 -0.0197
 8084W        W12284   1.399   8.292   2.024 -0.0548 -0.1313  0.0753
 8085W        W12285   8.868   5.359   8.538 -0.0340  0.0424 -0.2983
 8086W        W12286   3.582   0.354   3.948  0.0774  0.0655  0.1967
 8087W        W12287   8.762   3.553  12.662  0.3597 -0.0257 -0.1713
 8088W        W12288   5.166   6.767  11.912 -0.5643  0.3595 -0.0892
 8089W        W12289   0.619   8.146   1.164 -0.1216  0.0239 -0.1852
 8090W        W12290   9.554   7.749   9.192  0.1655 -0.1450  0.2136
 8091W        W12291  10.287   7.148   2.802  0.1021  0.2384  0.0462
 8092W        W12292   4.606   1.820  12.415  0.3295  0.3306 -0.0481
 8093W        W12293   0.413   7.513   0.318  0.3511 -0.0253 -0.0237
 8094W        W12294   8.508   2.127   2.054 -0.2405 -0.0793  0.0371
 8095W        W12295   9.827   9.756  11.802  0.0334  0.0946  0.0286
 8096W        W12296   7.204   1.853  12.749 -0.1264  0.0868  0.1498
 8097W        W12297   9.183   4.271   0.875  0.4797  0.2009 -0.0419
 8098W        W12298   5.468   4.602   1.915  0.1847 -0.1149  0.1155
 8099W        W12299   8.344   1.965  11.201  0.3317  0.0879  0.0583
 8100W        W12300   9.826   5.312   9.766  0.0157  0.3139 -0.1547
 8101W        W12301   6.440   9.675  10.936 -0.1179 -0.2324 -0.2871
 8102W        W12302   8.071   3.353   0.054  0.1405  0.0450 -0.1173
 8103W        W12303   7.820   6.304   0.755 -0.5206 -0.0306 -0.3114
 8104W        W12304   3.089   4.863  12.023 -0.0135  0.3536  0.1734
 8105W        W12305   7.225   9.171  12.098 -0.1569 -0.0356  0.2005
 8106W        W12306   7.561   6.920   9.423 -0.1295 -0.1569  0.2132
 8107W        W12307   6.274   0.815  13.033 -0.3045 -0.0265 -0.1805
 8108W        W12308   5.398   5.694   0.804  0.1328 -0.3645  0.0164
 8109W        W12309   3.862   3.213   4.509 -0.0679 -0.2248  0.1909
 8110W        W12310   8.415   2.765  12.500 -0.3971  0.1813  0.0233
 8111W        W12311   2.258   4.911   1.282  0.0952 -0.1303 -0.1195
 8112W        W12312   8.643   5.636   3.647 -0.2701 -0.2974 -0.0585
 8113W        W12313   5.059   0.404   2.185  0.1669 -0.0267 -0.1871
 8114W        W12314   0.024   2.281  11.455  0.2794  0.2501 -0.1797
 8115W        W12315   7.104   1.074  11.451 -0.0221 -0.1439 -0.1086
 8116W        W12316   7.131   7.129  11.626  0.0260 -0.2880 -0.1124
 8117W        W12317   6.812   3.040   2.975 -0.0134 -0.1610  0.0259
 8118W        W12318   1.548   2.898  12.153  0.0926 -0.1332  0.0465
 8119W        W12319   0.731   3.313  11.957  0.1351  0.0310 -0.2484
 8120W        W12320   1.327   5.223   1.571  0.0410 -0.2242 -0.0429
 8121W        W12321   4.192   0.656  11.085 -0.1851 -0.0139 -0.0123
 8122W        W12322   8.050   2.854  11.639  0.2132  0.0285  0.0126
 8123W        W12323   5.361   1.012  11.807 -0.1766  0.1120 -0.0665
 8124W        W12324   8.273   6.420   8.886 -0.0758 -0.2183  0.1251
 8125W        W12325   2.573   4.576  10.275 -0.3946 -0.5266  0.2531
 8126W        W12326   6.037   0.842   2.472 -0.0454  0.2111 -0.3666
 8127W        W12327   7.480   4.722   1.115 -0.1157 -0.0547 -0.2336
 8128W        W12328   6.451   8.067   3.699  0.1662 -0.0210 -0.1025
 8129W        W12329   7.299   0.330   0.629  0.1731 -0.0118 -0.0587
 8130W        W12330   7.262   9.384   2.279  0.0401 -0.0033 -0.1329
 8131W        W12331   1.961   6.866   9.561 -0.0619  0.1530 -0.0547
 8132W        W12332   8.888   2.564   1.249 -0.0271  0.1256 -0.0452
 8133W        W12333   9.242   7.776   0.904  0.0447  0.0652  0.3664
 8134W        W12334   8.964   2.381  10.754  0.0926 -0.2447 -0.1376
 8135W        W12335   2.079   2.797  12.996 -0.4355 -0.0012 -0.0403
 8136W        W12336   2.652   9.962  11.030 -0.2125  0.2673 -0.0225
 8137W        W12337   9.632   7.925  13.111  0.1003 -0.0377 -0.3670
 8138W        W12338   8.383   6.602  12.998 -0.2380 -0.2308  0.2824
 8139W        W12339   2.852  10.234  13.330  0.1200 -0.0924 -0.0174
 8140W        W12340   8.995   7.417  12.803  0.2897 -0.1581  0.1214
 8141W        W12341   7.163   7.338   4.034 -0.0937 -0.0672 -0.0448
 8142W        W12342  10.204   2.227   1.412  0.1868 -0.2091  0.1639
 8143W        W12343   3.884   1.607   9.834 -0.2726 -0.2929  0.2186
 8144W        W12344   0.046   3.958   4.444 -0.1702 -0.3286  0.1129
 8145W        W12345   7.773   9.442   8.666  0.0523  0.1481 -0.0621
 8146W        W12346   3.644   9.792  10.136 -0.3127 -0.0747  0.1289
 8147W        W12347   5.879   8.674  13.118  0.2017 -0.1931  0.0735
 8148W        W12348   6.764   3.434   0.671  0.3088  0.1438  0.1189
 8149W        W12349   7.142   7.849  13.279 -0.1127 -0.2559  0.2865
 8150W        W12350   9.901   8.001   9.472  0.0006  0.2644 -0.2555
 8151W        W12351   9.546   7.857  11.597  0.2130 -0.2678 -0.2769
 8152W        W12352   5.998   9.735  11.135 -0.2462 -0.0152  0.3365
 8153W        W12353   9.752   1.901   8.182  0.2446  0.1706 -0.1187
 8154W        W12354   4.713   4.068   4.950 -0.3022  0.0764 -0.2363
 8155W        W12355   4.097   7.562   2.478 -0.2234  0.1200 -0.2784
 8156W        W12356   8.853   3.136   1.995  0.0161 -0.3204 -0.0313
 8157W        W12357   4.386   9.700   1.165  0.2190  0.1947  0.0117
 8158W        W12358   0.945   9.904   0.077  0.1443 -0.2081  0.1486
 8159W        W12359   5.865   1.628   2.990 -0.2996  0.0224  0.1723
 8160W        W12360   4.086   0.481  13.009  0.1998 -0.0344 -0.2193
 8161W        W12361   0.793   4.090   3.120  0.0914  0.0423  0.2476
 8162W        W12362   8.531   6.131   3.306  0.1632  0.0382  0.0628
 8163W        W12363   2.212   9.081   2.556 -0.0705 -0.0926  0.0051
 8164W        W12364   9.895   3.488   3.774 -0.4821  0.1124 -0.1224
 8165W        W12365   0.470   9.957   1.584  0.0352  0.2494  0.0719
 8166W        W12366   4.451   4.169   9.019 -0.1947  0.1302  0.2601
 8167W        W12367   2.518   2.885  12.659 -0.1206  0.2813 -0.0062
 8168W        W12368   8.588   5.931   2.806  0.2455 -0.0887 -0.3100
 8169W        W12369   7.265   2.566   0.763 -0.2089  0.1851 -0.2238
 8170W        W12370   3.170   9.326   0.057 -0.5725  0.2267 -0.0412
 8171W        W12371   1.355   3.892   3.049 -0.1534  0.0244  0.3082
 8172W        W12372  10.288   6.641   3.693 -0.2858 -0.1172  0.0265
 8173W        W12373   9.517   3.458   1.213 -0.3938 -0.1002  0.1347
 8174W        W12374   4.596   6.921  10.349 -0.1524  0.0301 -0.3331
 8175W        W12375   2.997   1.229   8.359  0.1214  0.2069  0.0213
 8176W        W12376   4.960   8.437   1.981 -0.1925  0.1011  0.1293
 8177W        W12377  10.019   2.548  11.308 -0.0311 -0.0775  0.0955
 8178W        W12378   5.820   8.845   9.777 -0.2450  0.0090 -0.0374
 8179W        W12379   0.946   8.503   2.024  0.4532 -0.2614 -0.3530
 8180W        W12380   8.414   9.801  10.821  0.1689 -0.2172 -0.1151
 8181W        W12381   5.916   6.908   9.439  0.1403 -0.1782  0.0607
 8182W        W12382   4.289   1.908   1.200 -0.0077  0.3428  0.0870
 8183W        W12383   5.129   2.398   2.473  0.0849 -0.0249 -0.2493
 8184W        W12384   7.827   9.418   9.190 -0.4339  0.2549  0.2421
 8185W        W12385   3.845   0.878   3.153 -0.0503  0.2642 -0.2068
 8186W        W12386   4.251   3.774   2.682 -0.1546  0.3135 -0.2456
 8187W        W12387   4.353   6.750   0.568 -0.2127 -0.0977  0.1857
 8188W        W12388   7.505   4.049   3.154 -0.4605  0.5888 -0.2505
 8189W        W12389   9.904   0.650   1.484  0.0994 -0.0850 -0.0233
 8190W        W12390   3.707   1.464   9.397  0.2988  0.3323  0.2169
 8191W        W12391   6.508   6.580  11.578 -0.0232 -0.2430  0.1812
 8192W        W12392   8.193   4.185  11.299 -0.1754  0.2835 -0.0660
 8193W        W12393  10.070  10.406   3.477  0.1093  0.4681  0.2232
 8194W        W12394   8.881   8.204   2.279 -0.0770  0.1192  0.1730
 8195W        W12395   5.056   3.839   2.205 -0.1062 -0.0476 -0.0388
 8196W        W12396   0.223   6.654   8.718  0.2848  0.0118  0.0118
 8197W        W12397   0.914   8.933  11.469 -0.2447  0.2189  0.1268
 8198W        W12398   1.992   4.937  12.602  0.0351 -0.2124 -0.0505
 8199W        W12399   7.713   6.944  11.025  0.3405  0.0591 -0.0051
 8200W        W12400   8.082   4.147   1.923  0.0217 -0.2398 -0.0346
 8201W        W12401   3.524   0.121   8.986 -0.1120 -0.2341 -0.0267
 8202W        W12402   0.461   6.330   4.206 -0.0443 -0.2843  0.1937
 8203W        W12403   2.115   1.557  11.481 -0.0096  0.0095 -0.1439
 8204W        W12404   9.515   7.776   1.761 -0.2486 -0.2081 -0.0656
 8205W        W12405   5.513   3.654  12.154  0.0323  0.1130  0.2269
 8206W        W12406   7.711   9.774   0.433  0.1921  0.1802 -0.0623
 8207W        W12407   9.997   0.807  11.454 -0.1886  0.1588  0.1216
 8208W        W12408   0.058   1.387   9.891 -0.2184  0.0882  0.4154
 8209W        W12409   1.776   7.345   1.096 -0.0155  0.0162 -0.0611
 8210W        W12410   4.416   1.703  11.279  0.0240  0.0827  0.1157
 8211W        W12411   0.730   8.376  10.606 -0.3316 -0.2702 -0.0956
 8212W        W12412   3.142   7.568  11.389  0.1975 -0.3159 -0.0784
 8213W        W12413   9.517   6.229  11.743  0.2431 -0.0302 -0.1211
 8214W        W12414   9.376   6.146  11.205 -0.1782  0.2278  0.2081
 8215W        W12415  10.403   6.866   8.397 -0.3248 -0.0722 -0.1436
 8216W        W12416   1.314  10.382  11.467 -0.3630  0.0450 -0.3010
 8217W        W12417   8.410   9.139   4.079 -0.2261  0.4325  0.1249
 8218W        W12418   8.464   2.886   1.815 -0.0541  0.4536  0.4052
 8219W        W12419   5.575   5.129   0.855 -0.3787 -0.0354  0.1415
 8220W        W12420   6.754   2.192   2.484 -0.3679 -0.1574  0.2442
 8221W        W12421   0.114   3.501   1.807 -0.0096 -0.0334 -0.0281
 8222W        W12422   1.634   2.613   0.588  0.0232  0.1391 -0.0927
 8223W        W12423   8.885   0.902   2.656 -0.2402  0.1038  0.1397
 8224W        W12424   1.493   3.340   8.963  0.1233  0.5654 -0.0537
 8225W        W12425   0.359   2.677   2.855  0.2022 -0.0798 -0.5410
 8226W        W12426   5.746  10.121   0.610 -0.2095 -0.1962 -0.1828
 8227W        W12427   6.088   4.170  11.093 -0.1014  0.1142 -0.1328
 8228W        W12428   7.824   9.843  13.396 -0.1892 -0.0379  0.3587
 8229W        W12429   7.760   8.314   9.189 -0.0562  0.0668  0.2780
 8230W        W12430   5.727   1.446   4.726  0.0395  0.3995 -0.0157
 8231W        W12431   5.580  10.022   4.413 -0.0590  0.1018 -0.1342
 8232W        W12432   4.699   0.405   0.336  0.1536 -0.0235  0.0094
 8233W        W12433   6.885   5.701  12.673 -0.0893  0.0849 -0.2117
 8234W        W12434   3.537   9.919   4.515 -0.1711  0.4736 -0.0740
 8235W        W12435   5.256   1.133  13.230 -0.1808  0.6136 -0.2441
 8236W        W12436   3.454   4.920   3.177  0.0430  0.0598  0.0523
 8237W        W12437   4.208   1.155   9.750 -0.0048 -0.1257 -0.0695
 8238W        W12438   8.661   8.137   2.982  0.3065  0.0705 -0.0572
 8239W        W12439   4.004   0.462  10.627 -0.1776 -0.3291 -0.0037
 8240W        W12440   8.565   2.649  10.472 -0.4048 -0.0928  0.0587
 8241W        W12441   2.856   0.921  11.751  0.2044 -0.0571  0.3771
 8242W        W12442   7.428   6.530   9.068  0.1811  0.4194  0.0626
 8243W        W12443  10.087   7.470  13.100 -0.1286  0.5396  0.0426
 8244W        W12444   5.910   1.753   2.349  0.1291 -0.0498  0.0486
 8245W        W12445   1.884   1.474   2.411 -0.2508  0.1810 -0.1000
 8246W        W12446   8.844   5.688   3.163 -0.2377  0.1468  0.2366
 8247W        W12447   0.907   5.199   3.593  0.0654  0.2207  0.2679
 8248W        W12448  10.149   7.493  12.473  0.0361  0.1126  0.1127
 8249W        W12449   5.288   6.056   0.402 -0.1660  0.6449  0.0810
 8250W        W12450   1.372   8.509  13.450  0.2192  0.0929 -0.0231
 8251W        W12451   9.458   0.069   9.461  0.1260 -0.0034 -0.1614
 8252W        W12452  10.009   0.772   3.388  0.1405 -0.0325 -0.4291
 8253W        W12453   3.773   2.458   4.579  0.1691  0.1602 -0.1623
 8254W        W12454   4.341   3.794   0.268 -0.2453 -0.0054  0.0521
 8255W        W12455   3.777   6.230  12.829  0.0975 -0.2109  0.2603
 8256W        W12456   3.829  10.013   0.994 -0.3225 -0.1498  0.3882
 8257W        W12457   1.449   5.547  10.535 -0.0670 -0.2494 -0.1573
 8258W        W12458   7.749  10.149  10.180 -0.1467  0.1760  0.2208
 8259W        W12459   5.194   9.861  11.751 -0.0102  0.0045  0.3545
 8260W        W12460   8.657   7.878   4.617 -0.0623  0.2220  0.3441
 8261W        W12461   2.012   8.546   3.810  0.1147  0.1618  0.0086
 8262W        W12462   5.842   4.463  11.929  0.0762 -0.2062 -0.1974
 8263W        W12463   2.901   1.560   4.089 -0.0555  0.1002  0.0475
 8264W        W12464   7.542   7.534  12.833  0.0187  0.1294 -0.2461
 8265W        W12465   9.991   1.327  11.754 -0.0080 -0.4471 -0.0300
 8266W        W12466   8.791   1.397   4.091 -0.1484  0.4798  0.0881
 8267W        W12467   1.960   1.214  11.146  0.0543 -0.0656  0.0640
 8268W        W12468   6.587   1.475  10.447 -0.2426  0.1408  0.2100
 8269W        W12469   7.577   1.798   9.910 -0.0037 -0.2517  0.0995
 8270W        W12470   3.578   8.400   2.834 -0.3324 -0.1672 -0.0679
 8271W        W12471   8.499   3.476   3.792 -0.3767  0.1873  0.0684
 8272W        W12472   3.115   7.865  10.940 -0.1616 -0.3095 -0.1523
 8273W        W12473   0.088  10.152  12.671  0.0923 -0.0351  0.0717
 8274W        W12474   2.195   1.726   1.645 -0.1003 -0.0635  0.2391
 8275W        W12475   8.132   6.743  10.214  0.0642 -0.2389  0.3000
 8276W        W12476   9.822   8.303  12.867  0.1812 -0.1109  0.1243
 8277W        W12477   7.102   2.337   3.424  0.0895  0.2875 -0.2436
 8278W        W12478   8.264   9.669   3.859  0.0204  0.2716 -0.3321
 8279W        W12479   1.436   1.210   4.137 -0.0349 -0.1429  0.0168
 8280W        W12480   3.238   9.019  11.536  0.3729 -0.1210 -0.1729
 8281W        W12481   1.226   0.856  11.849 -0.1335  0.3225 -0.3471
 8282W        W12482   8.897   4.601   4.770  0.1363 -0.0227 -0.1775
 8283W        W12483   6.727   3.911   5.457  0.0058 -0.1912  0.2346
 8284W        W12484   8.910   2.917   0.272 -0.2369  0.0237 -0.1612
 8285W        W12485   4.772   2.364   4.741  0.2366 -0.0472 -0.0594
 8286W        W12486   7.514   4.888  13.021  0.0658 -0.0137  0.0056
 8287W        W12487   3.639  10.356   5.127  0.2315  0.0616  0.0644
 8288W        W12488  10.282   4.707   1.303  0.2120 -0.0954 -0.1186
 8289W        W12489   6.757   1.767   1.245  0.0245 -0.0614  0.1999
 8290W        W12490   4.961   8.792  12.610 -0.3436  0.3875  0.1713
 8291W        W12491   0.348   7.466   4.751  0.1362 -0.2140  0.0354
 8292W        W12492   9.174   2.271   1.487  0.1019 -0.0407 -0.2285
 8293W        W12493   0.137   9.561  10.927 -0.2323  0.0363 -0.1468
 8294W        W12494   7.396   9.837   5.204 -0.1966 -0.0487  0.2832
 8295W        W12495   6.832   2.516   4.287  0.0166  0.0471 -0.0256
 8296W        W12496   3.285   9.392  12.424 -0.1447  0.0827  0.1419
 8297W        W12497   3.365  10.132  12.586 -0.1860 -0.3912 -0.1842
 8298W        W12498   6.206   1.474   9.487 -0.1783  0.2128  0.1780
 8299W        W12499   5.331   5.435   1.710  0.2707 -0.0446  0.0511
 8300W        W12500   2.464   5.523   9.462 -0.2112 -0.2757 -0.0460
 8301W        W12501   6.294   9.646   9.813  0.0853  0.1529  0.3996
 8302W        W12502   0.212   3.250   9.639 -0.1080 -0.2210 -0.0248
 8303W        W12503   3.800   7.553   0.689  0.0539 -0.0561 -0.2136
 8304W        W12504   1.736  10.272  12.493  0.0226 -0.0875 -0.1076
 8305W        W12505   4.669   0.018   2.312 -0.0170  0.4361 -0.0049
 8306W        W12506   0.020   7.366   0.038 -0.2628 -0.0432 -0.3167
 8307W        W12507   0.245   8.524   2.584 -0.1643 -0.1335 -0.3039
 8308W        W12508   5.789   9.455   3.543  0.1587  0.1023 -0.4657
 8309W        W12509   8.916   4.398   4.283 -0.0978  0.2506  0.2514
 8310W        W12510   2.753   7.258   2.207 -0.3139 -0.5153  0.1297
 8311W        W12511   7.860   1.128   0.622 -0.1227  0.4140 -0.0297
 8312W        W12512   1.556   2.859   4.072 -0.0434 -0.1445 -0.0305
 8313W        W12513   2.758   2.216  11.799 -0.0827 -0.0811 -0.0197
 8314W        W12514   7.609   3.328   9.773 -0.0040 -0.2211 -0.4530
 8315W        W12515   4.538   7.253   2.679  0.0483  0.1822 -0.2306
 8316W        W12516   5.180   1.186   3.516  0.2684 -0.2940  0.3841
 8317W        W12517   3.486   3.184   1.205 -0.2813  0.1156  0.1629
 8318W        W12518   8.543   0.166   3.967 -0.3351  0.1339 -0.2601
 8319W        W12519   2.220   0.625  10.493  0.0888  0.1344 -0.2597
 8320W        W12520   8.125   7.852  11.896  0.0883 -0.2113  0.0007
 8321W        W12521   2.001   8.565  12.603  0.2000  0.1592  0.5275
 8322W        W12522   1.675   0.489  13.066  0.0261  0.0229 -0.3103
 8323W        W12523   1.705   3.124   0.404  0.0130  0.2940 -0.2292
 8324W        W12524   1.889   0.523  10.887 -0.1393  0.0642  0.1369
 8325W        W12525   5.006   6.249  12.038 -0.1730  0.1854 -0.1352
 8326W        W12526   6.662   2.249   9.800  0.2014 -0.0561  0.1659
 8327W        W12527   5.819   5.052   0.424  0.0887 -0.3540  0.3154
 8328W        W12528   0.987   9.372  13.417  0.1373 -0.0138  0.0055
 8329W        W12529   8.624   2.501   9.562 -0.4091  0.3366  0.3393
 8330W        W12530   8.058   2.078   5.137 -0.0671  0.3160 -0.4858
 8331W        W12531   5.760   0.745  12.727 -0.0636 -0.1135 -0.2935
 8332W        W12532   5.542   9.238   0.879  0.0330 -0.1842 -0.2985
 8333W        W12533   1.021   5.804   2.934 -0.3434  0.1202 -0.3101
 8334W        W12534   0.225   3.581  11.037  0.1067  0.2285 -0.0813
 8335W        W12535   6.900   4.795   4.155  0.1323  0.0378 -0.2214
 8336W        W12536   2.891   4.988   1.446 -0.0571  0.1686 -0.0309
 8337W        W12537   5.943   1.231   9.848 -0.1544  0.1651  0.1186
 8338W        W12538   9.238   1.382   1.202 -0.1341 -0.1186  0.0590
 8339W        W12539   8.088   6.230  12.730 -0.0288  0.1503  0.0088
 8340W        W12540   9.469   1.463  10.410  0.3136  0.2319  0.0900
 8341W        W12541   3.957   5.646  11.305  0.1322 -0.2684 -0.3308
 8342W        W12542   9.966   5.627  13.074 -0.1653  0.2655  0.1281
 8343W        W12543   6.550   6.936  11.024  0.1686 -0.1327  0.1774
 8344W        W12544   1.916   4.691   0.992  0.0301 -0.0057 -0.3481
 8345W        W12545   1.454   0.986   3.667 -0.0062 -0.2970 -0.0017
 8346W        W12546   4.351   1.292   4.708  0.0489 -0.0525 -0.2331
 8347W        W12547   3.294  10.449  11.954  0.3747 -0.1124 -0.1010
 8348W        W12548   4.351   8.363   1.623 -0.0106 -0.2170 -0.1426
 8349W        W12549  10.129   8.435  12.042 -0.2205 -0.1949  0.0387
 8350W        W12550   8.729   0.626   3.702 -0.2591  0.0946  0.0605
 8351W        W12551   6.566   0.575   4.517 -0.4662  0.1262  0.0503
 8352W        W12552   9.420   7.368  13.105  0.0332  0.3743  0.1275
 8353W        W12553   0.424   9.449   1.857 -0.2020  0.1777 -0.1277
 8354W        W12554   4.582   5.615  10.562  0.1235  0.0885 -0.2589
 8355W        W12555   9.797   9.144  12.437  0.0612  0.2050 -0.0319
 8356W        W12556   3.807  10.169  12.850  0.0143 -0.0257 -0.1412
 8357W        W12557   4.026   0.874   2.621 -0.3050 -0.2043 -0.2413
 8358W        W12558   1.293   0.392  11.676 -0.1094  0.0695  0.0656
 8359W        W12559   9.085   8.134   1.835 -0.3391 -0.0827 -0.1022
 8360W        W12560   0.943   8.040  13.050 -0.0659 -0.1482  0.1292
 8361W        W12561   8.482   1.068   3.225  0.1596  0.1089  0.0612
 8362W        W12562   8.085  10.203   0.274 -0.0046 -0.2613  0.3385
 8363W        W12563   2.513   9.618   9.671 -0.3741 -0.1124  0.0166
 8364W        W12564   0.884   1.710  11.456  0.0095 -0.1383  0.0507
 8365W        W12565   6.655   6.176   2.158 -0.0607  0.1732  0.2102
 8366W        W12566   9.340   8.024   1.363 -0.0060  0.1215 -0.1312
 8367W        W12567   6.074   5.124  13.425 -0.4118  0.0391  0.0026
 8368W        W12568   3.930   2.038   1.975  0.0706 -0.1231  0.1722
 8369W        W12569   8.636   0.446   2.546 -0.1282 -0.1672 -0.3171
 8370W        W12570   6.828   1.861   3.966  0.0098  0.0898 -0.2541
 8371W        W12571   2.109   0.911   1.496 -0.0537  0.0863 -0.0151
 8372W        W12572   8.761   6.609   9.051  0.1421  0.0470 -0.2240
 8373W        W12573   1.651   8.235  11.238  0.0638  0.0153  0.0752
 8374W        W12574   9.558   8.029  10.501  0.1684  0.1336  0.0417
 8375W        W12575   8.347   1.529  12.293  0.1135  0.1379  0.1768
 8376W        W12576   6.189   5.376  10.395  0.2816 -0.0165 -0.2429
 8377W        W12577   2.956   5.631   1.333 -0.1844  0.3352  0.3756
 8378W        W12578   8.862   5.336  10.374 -0.1609 -0.1324  0.0629
 8379W        W12579   5.825   3.283   8.828  0.2878  0.1179 -0.0501
 8380W        W12580   7.379   4.922   2.793  0.2905  0.1117 -0.0924
 8381W        W12581   8.437   1.857   2.935  0.5359 -0.2707  0.1279
 8382W        W12582   5.847   4.685  13.286  0.2777  0.0649 -0.1684
 8383W        W12583   2.045   8.179  12.050  0.3589 -0.1497 -0.0540
 8384W        W12584   1.512   1.546  12.286 -0.4296  0.1790  0.0769
 8385W        W12585   4.191   8.587  11.062  0.1148  0.1274  0.4003
 8386W        W12586  10.131   6.595  12.618  0.0579 -0.3200  0.0811
 8387W        W12587   6.060   8.439   3.452 -0.0436 -0.2130  0.5387
 8388W        W12588   2.192   1.591   8.281  0.0876  0.1209  0.1842
 8389W        W12589   8.347   4.289   8.962 -0.0128 -0.3305 -0.2906
 8390W        W12590   3.783   7.350  13.435 -0.0833  0.0424  0.0003
 8391W        W12591   9.070   0.077   9.170  0.2869 -0.1575 -0.1388
 8392W        W12592   8.833   3.406   0.324 -0.0018 -0.0932  0.0652
 8393W        W12593  10.264   7.298  11.238  0.2485  0.0421 -0.0483
 8394W        W12594   6.820   4.001   2.540 -0.1117  0.0866  0.1090
 8395W        W12595   5.542   3.190   3.613 -0.0655  0.0010 -0.2997
 8396W        W12596   7.850   3.043   4.919  0.1052 -0.3092  0.0843
 8397W        W12597   0.033   7.128   3.465 -0.1817 -0.0700  0.1941
 8398W        W12598   1.809   5.810   1.983 -0.0647 -0.0514  0.3105
 8399W        W12599   2.912   9.375  10.037  0.3223  0.1838  0.1010
 8400W        W12600   3.390   7.925   3.326 -0.1949  0.4364  0.1279
 8401W        W12601   0.683   6.502   8.698 -0.0179  0.1203 -0.1118
 8402W        W12602   2.480   8.064   1.675  0.0726  0.0755 -0.2820
 8403W        W12603   9.170   0.948  10.525 -0.0402 -0.0790 -0.2577
 8404W        W12604   6.125   5.129   1.250  0.0835 -0.3501  0.0028
 8405W        W12605   6.525   2.370  12.942 -0.1078 -0.0650 -0.1376
 8406W        W12606   0.828   6.014   1.910 -0.2601  0.3061  0.0813
 8407W        W12607   5.705   9.058   2.373  0.0190  0.0289  0.1054
 8408W        W12608   0.404   4.817   9.137 -0.0782 -0.2504 -0.0413
 8409W        W12609   2.556   0.029  10.992 -0.1945  0.0676  0.2044
 8410W        W12610   8.900   5.423  13.405  0.0886  0.2076  0.0645
 8411W        W12611   4.406   2.256   9.336 -0.0687  0.0698  0.3300
 8412W        W12612   3.477   4.139  11.536  0.1587 -0.1795  0.1846
 8413W        W12613   9.778  10.036   8.397  0.3602 -0.0257  0.1259
 8414W        W12614   6.321   2.601  10.851  0.0280 -0.1349  0.3752
 8415W        W12615   2.529   5.257  10.681  0.2864  0.0226  0.0038
 8416W        W12616   3.442   2.935   3.984 -0.2602 -0.0507  0.1474
 8417W        W12617   1.060   6.420  12.607 -0.2197 -0.0132  0.2142
 8418W        W12618   5.220   3.605   2.653  0.0146 -0.1236 -0.2768
 8419W        W12619   6.371   1.157  10.757 -0.0856 -0.1551 -0.1239
 8420W        W12620   7.081   1.110   9.896  0.1552 -0.0946 -0.0342
 8421W        W12621   4.985   0.893   4.963 -0.1223  0.2605  0.1962
 8422W        W12622   3.343   7.326   0.864  0.0992  0.1974 -0.1212
 8423W        W12623   9.013   9.629  10.702  0.0750 -0.1591  0.0231
 8424W        W12624   2.581   6.559  12.155  0.2547 -0.0291 -0.0254
 8425W        W12625   4.253   2.799   2.677  0.4497  0.2759 -0.3017
 8426W        W12626   3.513   1.085   0.987  0.2995  0.1434  0.2398
 8427W        W12627   0.871   6.652   2.507  0.0207  0.0830 -0.2634
 8428W        W12628   0.769   0.468   3.240 -0.0154  0.0863  0.1555
 8429W        W12629   7.117   8.969   2.046  0.0402  0.3025 -0.0239
 8430W        W12630   7.799   3.892   8.405 -0.0099 -0.2990 -0.0868
 8431W        W12631   8.474   8.628   3.164 -0.3312  0.0540 -0.3641
 8432W        W12632   7.146   8.691   1.362  0.3740 -0.0425 -0.2581
 8433W        W12633   1.100   6.342  10.236  0.2231 -0.3047 -0.3526
 8434W        W12634   3.235   5.959   1.725  0.2452 -0.1562  0.2060
 8435W        W12635   9.731   3.378   2.879  0.0099 -0.1832 -0.0729
 8436W        W12636   7.683   3.240  12.133  0.3094 -0.2360 -0.0406
 8437W        W12637   0.426   1.701   1.356  0.1995  0.1721 -0.0594
 8438W        W12638   9.148   4.660  10.861 -0.0959  0.2687 -0.1770
 8439W        W12639  10.053   3.109   8.592  0.1969 -0.0896  0.3897
 8440W        W12640   4.187   9.262  12.738  0.2130  0.2630 -0.2180
 8441W        W12641   8.884   7.376   1.020 -0.0740  0.0862  0.0353
 8442W        W12642   1.643   7.312  11.389  0.2311  0.1085 -0.0217
 8443W        W12643   3.713   2.148   5.014  0.2499  0.0748 -0.1264
 8444W        W12644   7.365   5.688  12.397 -0.1166 -0.1979  0.0905
 8445W        W12645   8.454   8.720   8.844 -0.2978 -0.0862 -0.2055
 8446W        W12646   3.223   0.100  11.497 -0.1634  0.1511 -0.3030
 8447W        W12647   7.851   0.321  10.426  0.3556  0.4396  0.0168
 8448W        W12648   8.704   0.107  12.954  0.1958 -0.0352  0.1414
 8449W        W12649   2.156   2.801   0.696 -0.0524 -0.0283  0.2610
 8450W        W12650   9.199   5.625  10.587  0.3965 -0.0197 -0.0851
 8451W        W12651   6.350   8.264  10.507 -0.1495  0.1994 -0.0685
 8452W        W12652   6.273   0.192  11.210  0.2605  0.0175 -0.0021
 8453W        W12653   4.041   2.332   1.343 -0.0410  0.0834  0.3518
 8454W        W12654   7.840   6.941   4.244 -0.0286  0.1366 -0.0401
 8455W        W12655   3.575   7.183   1.828 -0.3058  0.0257 -0.1077
 8456W        W12656   0.174   1.275  10.998  0.0960  0.0052 -0.0899
 8457W        W12657   2.943   7.518   0.123 -0.3946  0.2142 -0.0346
 8458W        W12658   9.594  10.284  10.297 -0.0297 -0.2749 -0.5036
 8459W        W12659   5.907   4.785   2.177  0.2382 -0.1407 -0.0816
 8460W        W12660   9.684   5.414   9.306 -0.0303  0.3029 -0.0065
 8461W        W12661   3.916   2.751  12.036 -0.0068 -0.3111  0.2088
 8462W        W12662   9.057   7.850   3.073  0.0750  0.0201 -0.1333
 8463W        W12663   4.284   4.707  12.379 -0.1062  0.2565  0.0288
 8464W        W12664   7.396  10.153   0.052  0.1805  0.2206  0.0029
 8465W        W12665   9.928  10.402   1.990 -0.0059 -0.0889 -0.1221
 8466W        W12666   5.017   7.146  12.288  0.1999  0.1838 -0.0352
 8467W        W12667   1.980   9.445   3.738 -0.4118 -0.2513 -0.0226
 8468W        W12668   0.130   4.803   3.234  0.0820  0.2779 -0.0636
 8469W        W12669   0.425   4.335   3.965 -0.0621  0.1836 -0.1155
 8470W        W12670   0.292   5.201  12.829  0.0117  0.1557 -0.2287
 8471W        W12671   0.920   2.297   9.401 -0.0166 -0.1119  0.0144
 8472W        W12672   4.033   1.273  11.652  0.3630  0.0140  0.0809
 8473W        W12673  10.389   2.814  10.487  0.0557 -0.0030  0.2104
 8474W        W12674   5.245   5.937  10.204 -0.2200 -0.1229 -0.2730
 8475W        W12675   6.728   5.274  11.718  0.3294  0.4940 -0.1234
 8476W        W12676   0.779   5.476  11.609  0.2461  0.3199 -0.2683
 8477W        W12677   3.966   7.380  10.871 -0.1163  0.4224  0.1672
 8478W        W12678   1.558   0.338   3.136  0.0030  0.0436 -0.1761
 8479W        W12679   8.644   6.946   4.126  0.1421  0.0045 -0.2084
 8480W        W12680  10.411   1.626  10.311  0.3012 -0.1337 -0.0988
 8481W        W12681   3.303   8.557   3.245  0.0146  0.0199  0.2365
 8482W        W12682   6.990   0.695   2.439 -0.3737  0.1020 -0.0860
 8483W        W12683   1.217   4.129   1.634  0.1852 -0.1740  0.2046
 8484W        W12684   2.768   7.950   2.544 -0.0235  0.1294  0.2047
 8485W        W12685   1.784   0.203  12.193 -0.1076 -0.2538 -0.1563
 8486W        W12686   7.950   5.006   2.137 -0.1510 -0.0111  0.2900
 8487W        W12687   9.312   4.546   9.994 -0.0590 -0.1577 -0.2352
 8488W        W12688   9.512   7.201   9.813 -0.1351 -0.0438  0.2390
 8489W        W12689   4.413   0.967  12.641 -0.0334 -0.2236 -0.0384
 8490W        W12690   3.583   1.143   2.332 -0.0110  0.0060 -0.1007
 8491W        W12691   4.629  10.448   0.018  0.0006  0.1363  0.2750
 8492W        W12692   7.316   3.217   0.599 -0.1768  0.0486  0.0585
 8493W        W12693   8.482   1.866   4.359  0.0179  0.1375  0.2666
 8494W        W12694   1.289   1.906   1.119 -0.0309 -0.3406 -0.0464
 8495W        W12695   6.049   6.932  10.731  0.1774  0.0833 -0.3117
 8496W        W12696   9.811   9.486   8.266 -0.2019  0.0201  0.1685
 8497W        W12697   2.234   2.276   1.810  0.1016 -0.3032 -0.1466
 8498W        W12698   5.626   6.306   2.606 -0.0271  0.0952 -0.2070
 8499W        W12699   3.366   4.946   2.603 -0.0070  0.2915  0.4333
 8500W        W12700   2.969   6.259   1.230  0.0221 -0.0480  0.2084
 8501W        W12701   9.704   2.479   1.413 -0.0177  0.1452  0.0630
 8502W        W12702   2.552  10.066  12.488 -0.0336  0.2382  0.1074
 8503W        W12703  10.117  10.272   1.208  0.1964 -0.1760 -0.3651
 8504W        W12704   8.019   3.996   3.233  0.1441 -0.5058  0.0479
 8505W        W12705   9.462   2.110   0.176  0.0648  0.0579  0.1743
 8506W        W12706   6.913   4.163   9.419  0.0237 -0.4533  0.3465
 8507W        W12707   3.455   2.386   0.456 -0.3110 -0.5412 -0.0073
 8508W        W12708   9.470   0.979   1.400  0.0333  0.1314  0.1018
 8509W        W12709   0.058   4.213  11.080 -0.0946 -0.5040  0.0636
 8510W        W12710   5.520   0.383   3.304  0.0918 -0.0034 -0.1784
 8511W        W12711   0.130   5.437  11.211 -0.0810  0.2494  0.1841
 8512W        W12712   1.033   2.751   9.575  0.0267 -0.1669 -0.2098
 8513W        W12713   0.817   2.885   2.012 -0.3711  0.1177  0.1856
 8514W        W12714   9.730   0.086  11.360  0.1682  0.0302  0.4230
 8515W        W12715   9.862   4.009  11.953  0.2898  0.1321  0.0231
 8516W        W12716   7.806   4.205  12.532 -0.0048 -0.2300  0.0173
 8517W        W12717   3.222  10.185   2.245  0.1011  0.1464 -0.1415
 8518W        W12718   9.319   9.137   3.111 -0.0695 -0.0480 -0.3243
 8519W        W12719   8.579   6.657   1.087 -0.0269  0.2471 -0.1295
 8520W        W12720   6.671   0.033   2.370  0.1207  0.0003 -0.1505
 8521W        W12721   7.075   2.137   1.074  0.0126 -0.3603 -0.1461
 8522W        W12722   5.737   1.451  12.123  0.0409  0.0010  0.0899
 8523W        W12723   7.570   3.929   4.827  0.1871 -0.2324  0.1263
 8524W        W12724   0.106  10.243   2.045  0.0303  0.2365  0.0555
 8525W        W12725   7.660   9.842  12.022  0.3879  0.0236  0.1169
 8526W        W12726   6.248  10.348  11.679  0.1033  0.0846 -0.0190
 8527W        W12727   8.559  10.160   2.054 -0.0058  0.2901  0.1927
 8528W        W12728   6.878   2.261  12.132 -0.1054  0.2000  0.0544
 8529W        W12729   9.242   9.693  11.164  0.0602 -0.0039  0.1042
 8530W        W12730   6.211   2.958   9.550  0.2616 -0.1627  0.2631
 8531W        W12731   5.059  10.343   0.311  0.1475 -0.0331  0.0849
 8532W        W12732   7.845   6.304   3.938 -0.1370  0.0333 -0.2352
 8533W        W12733   5.883   5.094  10.109  0.1677 -0.0842  0.1328
 8534W        W12734   5.037   4.534  10.186 -0.2318 -0.1543  0.2809
 8535ION    NA+12735   9.615   8.392   1.185 -0.2040  0.0876 -0.0618
 8536ION    NA+12736   4.582   9.952   3.655 -0.2379  0.0741 -0.1606
 8537ION    NA+12737   9.036   3.861   5.201 -0.0141 -0.1396 -0.2249
 8538ION    NA+12738   7.955   5.271   4.953  0.2747  0.0255  0.0379
 8539ION    NA+12739   2.756   7.106   1.457  0.1733  0.1417  0.3964
 8540ION    NA+12740   8.297   5.676   0.587 -0.3409 -0.1385  0.2261
 8541ION    NA+12741   8.147   6.097  11.125  0.0792  0.2454  0.1628
 8542ION    NA+12742   2.868   0.033   4.391  0.2692 -0.1731  0.1163
 8543ION    NA+12743   7.594   1.506   8.669  0.0709  0.2726 -0.1924
 8544ION    NA+12744   0.526   9.332   0.108  0.0677 -0.1078  0.2792
 8545ION    NA+12745   6.985   6.638   3.911  0.1586  0.0877  0.0961
 8546ION    NA+12746   7.049   4.179   8.872  0.0719  0.0865 -0.2600
 8547ION    NA+12747   5.928   7.091   2.873  0.2455 -0.1781 -0.2724
 8548ION    NA+12748   4.850   8.466   9.533 -0.1558 -0.1652  0.0031
 8549ION    NA+12749   7.609   6.476   2.001  0.1720  0.5154  0.0910
 8550ION    NA+12750   2.070   1.404   0.728  0.1465 -0.0897  0.1624
 8551ION    NA+12751   3.638   0.506  12.117  0.2515 -0.0110 -0.0321
 8552ION    NA+12752   0.117   0.931  10.075 -0.0381 -0.3840 -0.0033
 8553ION    NA+12753   3.427   9.319  10.888 -0.0981  0.0133 -0.1188
 8554ION    NA+12754   1.369   2.731   1.466 -0.1676  0.1963  0.0369
 8555ION    NA+12755   5.512  10.313   4.872  0.1547  0.0019  0.2220
 8556ION    NA+12756   6.192   9.541  12.842  0.0670 -0.1192  0.0853
 8557ION    NA+12757   9.661   4.863   8.386  0.0982 -0.0707  0.1325
 8558ION    NA+12758   8.844   6.528   4.975 -0.0215  0.2857  0.3259
 8559ION    NA+12759   4.429   2.109   8.834  0.1740  0.1285  0.1247
 8560ION    NA+12760   5.111   4.750   4.623 -0.1569 -0.0346 -0.2168
 8561ION    NA+12761   1.889   8.713   1.174  0.1048 -0.3715  0.1332
 8562ION    NA+12762   8.801   6.404  10.647  0.1507  0.3144  0.1136
 8563ION    NA+12763   0.371   8.470   2.128  0.4557  0.0055  0.2169
 8564ION    NA+12764   3.481   2.877   4.531 -0.0608  0.0731  0.1525
 8565ION    NA+12765   2.438   4.163   2.261  0.1081  0.2655  0.0407
 8566ION    NA+12766   1.709   4.205  12.177  0.0105  0.0371  0.1669
 8567ION    NA+12767   2.416   8.675   2.824  0.1562  0.1353  0.0046
 8568ION    NA+12768   8.599   4.223   2.538  0.0361  0.0423 -0.0810
 8569ION    NA+12769   6.201   2.461   5.464  0.2665 -0.3257 -0.0042
 8570ION    NA+12770   5.620   2.143   3.502  0.1371 -0.2951  0.1079
 8571ION    NA+12771   5.374   2.812   1.036 -0.1870 -0.0361 -0.3408
 8572ION    NA+12772   0.339   5.614   3.088 -0.0357  0.0924 -0.1052
 8573ION    NA+12773  10.041   1.203   2.182 -0.2690  0.0694  0.0745
 8574ION    NA+12774   1.410   0.568  10.708 -0.0348 -0.2227 -0.3536
 8575ION    NA+12775   7.684   4.259   2.210  0.2103 -0.4143  0.3059
 8576ION    NA+12776   4.488   9.776  10.141 -0.0261 -0.1332 -0.0367
 8577ION    NA+12777   3.786  10.301  10.112  0.2120  0.0605 -0.0701
 8578ION    NA+12778   2.233   9.079   4.238  0.1003  0.0440 -0.1448
 8579ION    NA+12779   5.917   0.488  12.069  0.3734 -0.1779  0.3533
 8580ION    NA+12780   5.510   0.131  13.218 -0.0033  0.0371  0.2603
 8581ION    NA+12781   7.231   8.904  13.043 -0.0460  0.0007 -0.2277
 8582ION    NA+12782   0.701   7.297   9.808  0.2950 -0.3052  0.0489
 8583ION    NA+12783   3.105   1.593   0.931 -0.0972  0.2676 -0.1314
 8584ION    NA+12784   9.908   6.725   2.138  0.2972  0.3190 -0.0414
 8585ION    NA+12785   0.173   8.326   0.112 -0.0150  0.4884 -0.1430
 8586ION    NA+12786   1.067   0.283   4.721 -0.1374 -0.1378 -0.0055
 8587ION    NA+12787   7.076   2.629   9.703 -0.0482 -0.0513  0.0963
 8588ION    NA+12788   7.418   9.604  10.656  0.1287  0.0210  0.2667
 8589ION    NA+12789   4.184   6.595   0.093 -0.1087 -0.2453 -0.2733
 8590ION    NA+12790   8.457   2.077   0.648  0.0079  0.1421 -0.1252
 8591ION    NA+12791   3.514   5.513   9.648  0.0072  0.1553 -0.0593
 8592ION    NA+12792   4.179   1.343   5.192  0.0291 -0.1286  0.1916
 8593ION    NA+12793   1.065   3.693   8.791 -0.3364  0.0527  0.0479
 8594ION    NA+12794   8.837   6.061   0.954  0.2629 -0.1558  0.0303
 8595ION    NA+12795   3.028   8.583   1.145  0.0405  0.3465 -0.1541
 8596ION    NA+12796   6.121   2.668  12.767  0.0783  0.1385 -0.0042
 8597ION    NA+12797   6.639   3.842   4.936 -0.0048 -0.0333 -0.1053
 8598ION    NA+12798   8.752   7.871   0.895 -0.2017  0.4354 -0.3822
 8599ION    NA+12799   2.439   8.689   0.373 -0.0755  0.0468  0.1850
 8600ION    NA+12800   5.475   1.132  10.993 -0.3154 -0.1713 -0.1577
 8601ION    NA+12801   5.176   6.465   0.241 -0.1961  0.2256  0.1467
 8602ION    NA+12802   4.356   1.682   2.123  0.2017  0.1063 -0.0327
 8603ION    NA+12803   4.227   8.748   0.368 -0.0512  0.2215 -0.0662
 8604ION    NA+12804   3.371   2.751   3.221 -0.2235 -0.0544 -0.1908
 8605ION    NA+12805   9.246   7.050  11.256  0.1267 -0.1151 -0.2995
 8606ION    NA+12806   2.981  10.018   9.323 -0.2681 -0.1788 -0.1775
 8607ION    NA+12807   4.295   3.073  11.800 -0.2241 -0.0353 -0.2034
 8608ION    NA+12808   2.509   1.634  10.214  0.0026  0.0442  0.1647
 8609ION    NA+12809   1.701   8.976   4.085  0.3408  0.0334  0.1278
 8610ION    NA+12810   0.396   4.004   4.813  0.2662 -0.1460 -0.0164
 8611ION    NA+12811   2.028   8.096   1.392 -0.2577 -0.0144  0.0986
 8612ION    NA+12812   5.529   1.383   8.970  0.1605  0.0188  0.0357
 8613ION    NA+12813   5.005   8.191   4.065 -0.0475 -0.1036  0.2399
 8614ION    NA+12814   6.448   5.560   8.867 -0.0447 -0.0389  0.1803
 8615ION    NA+12815   0.529   1.416   4.250 -0.2348  0.0933  0.1538
 8616ION    NA+12816   5.923   9.841   2.838  0.0284  0.1148 -0.4285
 8617ION    NA+12817   9.064   6.372   1.936 -0.0440  0.0999  0.0938
 8618ION    NA+12818   4.719   7.019   0.928  0.0000  0.1118 -0.0604
 8619ION    NA+12819   0.984   8.535   4.613 -0.2071  0.0569 -0.0348
 8620ION    NA+12820   3.531   4.116   2.663 -0.1114 -0.1623 -0.0788
 8621ION    NA+12821  10.226   8.064   8.388 -0.1271 -0.1558 -0.0437
 8622ION    NA+12822   7.941   0.210   3.362 -0.0379 -0.1768  0.0040
 8623ION    NA+12823   4.696   1.741  10.730  0.1716 -0.3094 -0.3112
 8624ION    NA+12824   5.218  10.139   0.860  0.2743  0.2314 -0.3106
 8625ION    CL-12825   6.654   0.053   9.899  0.1675  0.1656  0.1603
 8626ION    CL-12826   7.147   2.028   9.602 -0.0904  0.3052 -0.2068
 8627ION    CL-12827   2.486   2.039  10.511 -0.0378 -0.2664  0.0151
 8628ION    CL-12828   8.938   5.774   9.532 -0.2955 -0.0451 -0.0125
 8629ION    CL-12829   6.969   0.453  12.043  0.0063 -0.2053 -0.1325
 8630ION    CL-12830   4.099   9.965   9.273 -0.2845  0.1532  0.0674
 8631ION    CL-12831   4.008   2.083  10.631 -0.2046 -0.1378  0.0997
 8632ION    CL-12832   5.929   0.948  11.713 -0.1860  0.1039  0.0954
 8633ION    CL-12833   7.769   5.071   3.877 -0.0228 -0.0749  0.1867
 8634ION    CL-12834   1.931   8.757   2.750  0.0944  0.0573 -0.0992
 8635ION    CL-12835   4.646   7.559   0.869 -0.0100 -0.3286  0.1079
 8636ION    CL-12836   3.306   1.744  11.405 -0.1459  0.4129  0.0925
 8637ION    CL-12837   4.390   1.346   3.661  0.0107  0.3384  0.2995
 8638ION    CL-12838   1.660   4.656  12.813  0.1417 -0.1216 -0.0485
 8639ION    CL-12839   2.648   7.260   0.948 -0.3024  0.2749  0.0972
 8640ION    CL-12840   6.064   6.685   2.710 -0.2966  0.0886  0.4890
 8641ION    CL-12841   9.253   5.793   4.496  0.1189  0.0254 -0.0552
 8642ION    CL-12842   2.366   1.284   9.830  0.0816  0.0283 -0.0441
 8643ION    CL-12843   8.682   5.725   1.344 -0.1964  0.0130  0.2629
 8644ION    CL-12844   8.004   3.808   4.535  0.0965  0.2320  0.0096
 8645ION    CL-12845   9.880   8.825   0.988  0.1435  0.0627 -0.0128
 8646ION    CL-12846   1.572   8.316   1.241  0.0022 -0.0654 -0.1188
 8647ION    CL-12847   3.981   3.597   9.880 -0.0555 -0.0531 -0.0279
 8648ION    CL-12848   2.197   8.984   0.054  0.2122 -0.2427 -0.1628
 8649ION    CL-12849   0.771   0.061   2.628 -0.0505  0.4213 -0.0033
 8650ION    CL-12850   0.146   0.055  10.482 -0.1705 -0.1396 -0.3537
 8651ION    CL-12851   8.432   2.966   9.199 -0.2910 -0.0017  0.0871
 8652ION    CL-12852   3.184   9.306   2.563 -0.2032 -0.2221  0.1261
 8653ION    CL-12853   8.324   6.185  10.632  0.0166  0.0069  0.0733
 8654ION    CL-12854   9.391   6.799   2.280  0.2625 -0.2509 -0.0770
 8655ION    CL-12855   4.935   9.265   2.520  0.2508  0.1235  0.1488
 8656ION    CL-12856   4.885   6.786   0.515  0.0441  0.0877 -0.2905
 8657ION    CL-12857   9.058   7.998   0.475 -0.1145 -0.1330  0.1651
 8658ION    CL-12858   0.244   8.542   0.591  0.1963 -0.1895 -0.0703
 8659ION    CL-12859   1.926   8.302   0.838 -0.1366 -0.4273  0.1018
 8660ION    CL-12860   5.123   1.495  10.897  0.3814 -0.1594 -0.2095
 8661ION    CL-12861   0.747   0.384   9.101  0.3580 -0.1826 -0.1972
 8662ION    CL-12862   8.644   1.029   1.748 -0.2191 -0.3815  0.2338
 8663ION    CL-12863   8.288   0.210   2.244 -0.1719 -0.1023  0.0764
 8664ION    CL-12864   5.833   3.270  12.407  0.1443 -0.0304 -0.1290
 8665ION    CL-12865   3.137   2.578   3.613 -0.1923  0.0976 -0.1668
 8666ION    CL-12866   2.844   0.097   3.879  0.2906  0.1025  0.3592
 8667ION    CL-12867   0.690   5.555   2.663  0.0178  0.1061 -0.1550
 8668ION    CL-12868   5.701   9.631  12.953  0.0311  0.0900  0.0549
 8669ION    CL-12869   7.715   6.067   1.801 -0.0049 -0.0913 -0.1212
 8670ION    CL-12870   4.413   2.838  12.289 -0.2720  0.0914  0.1989
 8671ION    CL-12871   9.935   6.887   4.066 -0.2818  0.3746 -0.0848
 8672ION    CL-12872   3.132   2.246   9.513  0.0383  0.0772 -0.1193
 8673ION    CL-12873  10.032   1.622   2.446  0.1164 -0.2086  0.0740
 8674ION    CL-12874   8.554   4.907  10.215 -0.1594 -0.3449 -0.1723
 8675ION    CL-12875   4.107   7.484  12.542  0.1517  0.0061  0.0464
 8676ION    CL-12876   7.557   7.869  10.813 -0.1067  0.3076 -0.0612
 8677ION    CL-12877   9.742   9.367  10.023 -0.0953  0.2099  0.3216
 8678ION    CL-12878   8.212   6.640   4.055  0.0001  0.1685 -0.0185
 8679ION    CL-12879   4.030   1.048   4.359 -0.2388  0.0670 -0.2236
 8680ION    CL-12880   9.703   0.985   1.855  0.2075  0.3216 -0.0860
 8681ION    CL-12881   6.571   4.665   3.778  0.2562 -0.2074  0.0382
 8682ION    CL-12882   8.409   4.668   3.205  0.0677 -0.0704  0.3574
 8683ION    CL-12883   6.059   7.208  10.312 -0.1631 -0.0672  0.2491
 8684ION    CL-12884   6.091   5.566   9.886  0.1712  0.3867 -0.0827
 8685ION    CL-12885   5.837   0.870  10.749  0.2377 -0.0516 -0.0451
 8686ION    CL-12886   5.883  10.113   2.381  0.0999  0.1446 -0.4404
 8687ION    CL-12887   0.527   8.338   1.724  0.2863  0.0677 -0.2139
 8688ION    CL-12888   0.410   6.156   9.572  0.0388  0.4157 -0.0132
 8689ION    CL-12889   8.620   4.109   2.008  0.0487  0.0196 -0.1406
 8690ION    CL-12890   5.223   3.651   0.718  0.1948  0.0220 -0.2508
 8691ION    CL-12891   4.496   9.137   0.285 -0.1133  0.0062 -0.2834
 8692ION    CL-12892  10.212   1.049   9.673 -0.0187 -0.1281  0.3086
 8693ION    CL-12893   3.834  10.270   9.569 -0.3043 -0.1455 -0.0565
 8694ION    CL-12894   4.831   9.404  10.363  0.0592  0.1366 -0.1016
 8695ION    CL-12895  10.410   9.508   3.518 -0.1275 -0.2881  0.0620
 8696ION    CL-12896   5.935   9.608   4.472 -0.1160  0.2546  0.2042
 8697ION    CL-12897   1.586   6.126   2.889 -0.0884 -0.2040  0.2044
 8698ION    CL-12898   8.797   7.283  11.351 -0.0715 -0.3601 -0.1965
 8699ION    CL-12899   4.988   7.018   1.820 -0.0391  0.1700 -0.1049
 8700ION    CL-12900   3.407   9.714  11.296  0.1180  0.1918  0.3346
 8701ION    CL-12901   2.422   0.798   0.062  0.5309 -0.0384  0.4299
 8702ION    CL-12902   4.655   5.545   1.168  0.0812  0.2079  0.1817
 8703ION    CL-12903   7.465   9.070  12.623  0.0761  0.0013  0.0878
 8704ION    CL-12904   9.520   6.993  10.853 -0.1638  0.0361 -0.0783
 8705ION    CL-12905   7.242   4.580   2.354 -0.2036 -0.2179 -0.1068
 8706ION    CL-12906   2.615   1.513   0.896 -0.0654  0.1608 -0.2988
 8707ION    CL-12907   2.242   2.599   3.568  0.1441  0.2586 -0.0623
 8708ION    CL-12908   0.564   3.757   2.204 -0.1873  0.1141  0.4750
 8709ION    CL-12909   2.928   4.307   2.207  0.2804  0.0431 -0.0101
 8710ION    CL-12910   0.360   8.830  13.328 -0.0433  0.3502  0.0369
 8711ION    CL-12911   8.913   8.356   3.781 -0.2619  0.3629 -0.0328
 8712ION    CL-12912   3.598   5.441  10.832  0.0481  0.1927  0.0475
 8713ION    CL-12913   0.716   8.490   2.501  0.1172 -0.0903 -0.2396
 8714ION    CL-12914   5.781  10.468  11.921 -0.3351 -0.2342 -0.0115
  10.47913  10.47913  13.45221
