#include "/home/jje63/Documents/Force_Fields/Martini_scripts/martini_v2.2.itp"
#include "cg.itp

#ifdef POSRES
#include "posresrid1.itp"
#endif

#include "cg2.itp"

#include "/home/jje63/Documents/Force_Fields/Martini_scripts/martini_v2.0_solvents.itp"
#include "/home/jje63/Documents/Force_Fields/Martini_scripts/martini_v2.0_lipids_all_201506.itp"
#include "/home/jje63/Documents/Force_Fields/Martini_scripts/martini_v2.0_ions.itp"

[ system ]
; name
Protein in INSANE! Membrane UpperLeaflet>POPC=1.0 LowerLeaflet>POPC=1.0


[ molecules ]
; name  number
AU1              1
AU2              1
POPC           971
POPC           973
W            53717
NA+            591
CL-            591
