Protein in INSANE! Membrane UpperLeaflet>POPC=1.0 LowerLeaflet>POPC=1.0
11125
    1AU     AUC    1   5.247   5.298   6.009
    1AU     AUC    2   5.539   5.300   5.839
    1AU     AUC    3   5.510   5.299   6.178
    1AU     AUC    4   4.973   5.285   5.847
    1AU     AUC    5   4.978   5.333   6.198
    1AU     AUC    6   5.071   5.566   6.012
    1AU     AUC    7   5.436   5.561   5.998
    1AU     AUC    8   5.059   5.031   6.010
    1AU     AUC    9   5.413   5.030   6.017
    1AU     AUC   10   5.252   5.135   6.282
    1AU     AUC   11   5.233   5.467   6.269
    1AU     AUC   12   5.245   5.133   5.741
    1AU     AUC   13   5.276   5.447   5.738
    1AU     AUC   14   5.871   5.294   5.679
    1AU     AUC   15   5.866   5.283   6.018
    1AU     AUC   16   5.801   5.291   6.364
    1AU     AUC   17   4.655   5.293   5.682
    1AU     AUC   18   4.632   5.333   6.045
    1AU     AUC   19   4.677   5.365   6.390
    1AU     AUC   20   4.910   5.893   5.984
    1AU     AUC   21   5.255   5.901   5.961
    1AU     AUC   22   5.620   5.863   5.982
    1AU     AUC   23   4.855   4.744   6.012
    1AU     AUC   24   5.189   4.689   5.980
    1AU     AUC   25   5.578   4.705   5.999
    1AU     AUC   26   5.237   4.963   6.577
    1AU     AUC   27   5.270   5.332   6.627
    1AU     AUC   28   5.263   5.661   6.563
    1AU     AUC   29   5.273   4.961   5.458
    1AU     AUC   30   5.260   5.273   5.399
    1AU     AUC   31   5.271   5.596   5.429
    1AU     AUC   32   5.527   5.114   6.504
    1AU     AUC   33   5.557   5.482   6.502
    1AU     AUC   34   5.587   5.117   5.524
    1AU     AUC   35   5.592   5.465   5.534
    1AU     AUC   36   4.944   5.174   6.530
    1AU     AUC   37   4.962   5.535   6.496
    1AU     AUC   38   4.944   5.115   5.555
    1AU     AUC   39   4.928   5.428   5.509
    1AU     AUC   40   5.784   5.578   5.830
    1AU     AUC   41   5.747   5.595   6.176
    1AU     AUC   42   4.756   5.599   5.847
    1AU     AUC   43   4.770   5.659   6.198
    1AU     AUC   44   5.749   4.985   5.852
    1AU     AUC   45   5.705   4.964   6.185
    1AU     AUC   46   4.711   5.003   5.879
    1AU     AUC   47   4.772   5.059   6.224
    1AU     AUC   48   5.070   5.839   6.274
    1AU     AUC   49   5.433   5.779   6.250
    1AU     AUC   50   5.043   4.842   6.296
    1AU     AUC   51   5.378   4.792   6.282
    1AU     AUC   52   5.078   5.724   5.702
    1AU     AUC   53   5.464   5.750   5.667
    1AU     AUC   54   5.039   4.814   5.725
    1AU     AUC   55   5.427   4.844   5.723
    1AU    AUSL   56   5.811   5.252   6.709
    1AU    AUSL   57   5.535   4.790   6.681
    1AU     AUL   58   5.855   4.843   6.841
    1AU       S   59   5.862   4.427   6.650
    1AU     LIG   60   5.771   4.276   7.011
    1AU     LIG   61   6.009   3.964   7.225
    1AU     LIG   62   6.265   3.642   7.435
    1AU     LIG   63   6.428   3.502   7.847
    1AU       S   64   6.080   5.232   6.778
    1AU     LIG   65   6.034   5.139   7.246
    1AU     LIG   66   6.154   5.040   7.704
    1AU     LIG   67   6.486   5.047   8.060
    1AU     LIG   68   6.847   5.165   8.359
    1AU    AUSL   69   5.415   5.149   6.898
    1AU    AUSL   70   5.116   5.490   6.927
    1AU     AUL   71   5.316   5.436   7.254
    1AU       S   72   5.562   5.101   7.067
    1AU     LIG   73   5.411   4.942   7.435
    1AU     LIG   74   5.656   4.825   7.819
    1AU     LIG   75   5.769   4.643   8.245
    1AU     LIG   76   5.927   4.639   8.691
    1AU       S   77   4.934   5.211   7.156
    1AU     LIG   78   4.983   5.164   7.632
    1AU     LIG   79   4.690   5.184   7.985
    1AU     LIG   80   4.525   5.222   8.423
    1AU     LIG   81   4.533   5.479   8.825
    1AU    AUSL   82   5.531   5.587   6.867
    1AU    AUSL   83   5.901   5.667   6.602
    1AU     AUL   84   5.808   5.525   6.991
    1AU       S   85   5.406   5.860   6.990
    1AU     LIG   86   5.658   5.823   7.383
    1AU     LIG   87   5.730   5.905   7.862
    1AU     LIG   88   5.779   5.951   8.349
    1AU     LIG   89   5.810   5.890   8.826
    1AU       S   90   5.994   5.895   6.776
    1AU     LIG   91   6.374   5.729   6.879
    1AU     LIG   92   6.685   5.928   7.184
    1AU     LIG   93   6.947   6.188   7.488
    1AU     LIG   94   7.311   6.397   7.701
    1AU    AUSL   95   5.776   5.330   5.390
    1AU    AUSL   96   5.678   5.763   5.298
    1AU     AUL   97   5.982   5.565   5.124
    1AU       S   98   5.620   5.506   4.864
    1AU     LIG   99   6.065   5.465   4.608
    1AU     LIG  100   6.237   5.148   4.314
    1AU     LIG  101   6.288   5.012   3.875
    1AU     LIG  102   6.479   5.047   3.449
    1AU       S  103   5.983   6.013   5.288
    1AU     LIG  104   6.135   6.170   4.911
    1AU     LIG  105   6.296   6.352   4.518
    1AU     LIG  106   6.512   6.653   4.258
    1AU     LIG  107   6.711   6.972   4.014
    1AU    AUSL  108   5.560   5.082   5.090
    1AU    AUSL  109   5.986   4.952   5.422
    1AU     AUL  110   5.929   5.103   5.146
    1AU       S  111   6.079   4.656   5.188
    1AU     LIG  112   6.257   4.331   4.875
    1AU     LIG  113   6.510   3.961   4.721
    1AU     LIG  114   6.778   3.711   4.427
    1AU     LIG  115   7.204   3.755   4.210
    1AU       S  116   5.668   5.318   4.829
    1AU     LIG  117   5.809   4.981   4.571
    1AU     LIG  118   5.897   4.775   4.146
    1AU     LIG  119   5.885   4.757   3.671
    1AU     LIG  120   6.105   4.750   3.258
    1AU    AUSL  121   5.373   5.452   5.267
    1AU    AUSL  122   5.141   5.067   5.212
    1AU     AUL  123   5.281   5.112   4.943
    1AU       S  124   4.822   5.117   4.809
    1AU     LIG  125   4.790   4.813   4.476
    1AU     LIG  126   4.673   4.622   4.066
    1AU     LIG  127   4.497   4.711   3.646
    1AU     LIG  128   4.594   4.793   3.200
    1AU       S  129   5.445   5.566   4.929
    1AU     LIG  130   5.491   5.445   4.393
    1AU     LIG  131   5.802   5.273   4.049
    1AU     LIG  132   5.941   5.265   3.579
    1AU     LIG  133   5.920   5.490   3.159
    1AU    AUSL  134   4.713   5.425   6.763
    1AU    AUSL  135   5.022   5.773   6.616
    1AU     AUL  136   4.877   5.717   6.958
    1AU       S  137   4.760   5.347   7.231
    1AU     LIG  138   4.511   5.033   7.439
    1AU     LIG  139   4.262   4.938   7.834
    1AU     LIG  140   4.103   4.954   8.280
    1AU     LIG  141   3.756   5.080   8.575
    1AU       S  142   4.598   6.028   6.730
    1AU     LIG  143   4.702   6.223   7.108
    1AU     LIG  144   4.514   6.450   7.466
    1AU     LIG  145   4.183   6.697   7.696
    1AU     LIG  146   4.035   6.876   8.118
    1AU    AUSL  147   5.036   5.130   6.684
    1AU    AUSL  148   4.584   5.015   6.644
    1AU     AUL  149   4.575   5.177   6.847
    1AU       S  150   4.444   4.721   6.882
    1AU     LIG  151   4.023   4.475   6.840
    1AU     LIG  152   3.730   4.124   6.920
    1AU     LIG  153   3.499   3.825   7.200
    1AU     LIG  154   3.083   3.701   7.405
    1AU       S  155   4.981   5.058   7.075
    1AU     LIG  156   4.928   4.728   7.375
    1AU     LIG  157   4.729   4.698   7.781
    1AU     LIG  158   4.568   4.728   8.209
    1AU     LIG  159   4.437   4.570   8.614
    1AU    AUSL  160   4.736   5.210   5.299
    1AU    AUSL  161   4.936   4.828   5.503
    1AU     AUL  162   4.920   4.826   5.151
    1AU       S  163   4.598   5.107   4.963
    1AU     LIG  164   4.333   5.008   4.616
    1AU     LIG  165   4.290   4.957   4.154
    1AU     LIG  166   4.024   4.925   3.762
    1AU     LIG  167   3.590   5.053   3.594
    1AU       S  168   4.516   4.693   5.317
    1AU     LIG  169   4.539   4.368   5.054
    1AU     LIG  170   4.206   4.104   4.883
    1AU     LIG  171   3.861   3.915   4.630
    1AU     LIG  172   3.673   3.689   4.253
    1AU    AUSL  173   4.998   5.490   5.062
    1AU    AUSL  174   4.523   5.575   5.426
    1AU     AUL  175   4.647   5.539   5.110
    1AU       S  176   4.253   5.756   5.259
    1AU     LIG  177   4.054   6.015   4.924
    1AU     LIG  178   3.990   6.233   4.518
    1AU     LIG  179   3.662   6.398   4.230
    1AU     LIG  180   3.183   6.457   4.198
    1AU       S  181   4.901   5.346   4.769
    1AU     LIG  182   4.680   5.300   4.349
    1AU     LIG  183   4.707   5.131   3.910
    1AU     LIG  184   4.642   5.231   3.459
    1AU     LIG  185   4.765   5.485   3.068
    1AU    AUSL  186   6.002   5.800   6.004
    1AU    AUSL  187   6.019   5.628   5.589
    1AU     AUL  188   6.289   5.926   5.849
    1AU       S  189   6.108   5.870   5.445
    1AU     LIG  190   6.433   5.807   5.141
    1AU     LIG  191   6.590   5.972   4.741
    1AU     LIG  192   6.819   6.299   4.504
    1AU     LIG  193   7.048   6.623   4.252
    1AU       S  194   6.470   5.666   6.205
    1AU     LIG  195   6.838   5.870   6.036
    1AU     LIG  196   7.273   6.057   6.053
    1AU     LIG  197   7.465   6.507   6.079
    1AU     LIG  198   7.717   6.790   6.354
    1AU    AUSL  199   6.229   5.408   5.900
    1AU    AUSL  200   6.178   5.074   6.211
    1AU     AUL  201   6.549   5.173   6.214
    1AU       S  202   6.353   5.486   5.962
    1AU     LIG  203   6.790   5.397   5.840
    1AU     LIG  204   7.235   5.568   5.847
    1AU     LIG  205   7.655   5.741   5.771
    1AU     LIG  206   8.040   5.514   5.581
    1AU       S  207   6.426   4.782   6.013
    1AU     LIG  208   6.872   4.696   6.101
    1AU     LIG  209   7.264   4.450   6.196
    1AU     LIG  210   7.683   4.342   6.306
    1AU     LIG  211   8.092   4.490   6.447
    1AU    AUSL  212   5.947   5.439   6.246
    1AU    AUSL  213   5.809   6.014   6.330
    1AU     AUL  214   6.080   5.878   6.318
    1AU       S  215   6.007   6.193   6.665
    1AU     LIG  216   6.398   6.257   6.906
    1AU     LIG  217   6.726   6.513   7.143
    1AU     LIG  218   6.908   6.944   7.273
    1AU     LIG  219   6.995   7.432   7.226
    1AU       S  220   6.287   5.489   6.400
    1AU     LIG  221   6.743   5.491   6.569
    1AU     LIG  222   7.149   5.587   6.350
    1AU     LIG  223   7.597   5.719   6.347
    1AU     LIG  224   8.017   5.875   6.536
    1AU    AUSL  225   4.585   5.882   6.020
    1AU    AUSL  226   4.639   5.669   6.419
    1AU     AUL  227   4.354   6.002   6.266
    1AU       S  228   4.489   5.818   6.671
    1AU     LIG  229   4.251   5.959   7.077
    1AU     LIG  230   4.048   6.238   7.401
    1AU     LIG  231   3.782   6.377   7.770
    1AU     LIG  232   3.409   6.452   8.054
    1AU       S  233   4.588   6.267   5.946
    1AU     LIG  234   4.114   6.229   5.853
    1AU     LIG  235   3.632   6.337   5.856
    1AU     LIG  236   3.207   6.570   5.899
    1AU     LIG  237   2.784   6.679   6.079
    1AU    AUSL  238   4.560   5.479   5.836
    1AU    AUSL  239   4.689   5.948   5.605
    1AU     AUL  240   4.383   5.835   5.707
    1AU       S  241   4.185   5.270   5.459
    1AU     LIG  242   3.835   5.606   5.546
    1AU     LIG  243   3.446   5.872   5.671
    1AU     LIG  244   3.097   6.154   5.500
    1AU     LIG  245   2.617   6.196   5.454
    1AU       S  246   4.526   6.191   5.423
    1AU     LIG  247   4.288   6.442   5.119
    1AU     LIG  248   4.231   6.646   4.711
    1AU     LIG  249   3.986   7.002   4.547
    1AU     LIG  250   3.667   7.293   4.730
    1AU    AUSL  251   4.298   5.549   6.193
    1AU    AUSL  252   4.264   5.176   5.912
    1AU     AUL  253   4.155   5.480   5.892
    1AU       S  254   4.057   5.106   6.176
    1AU     LIG  255   3.763   5.142   5.821
    1AU     LIG  256   3.381   4.895   5.688
    1AU     LIG  257   2.968   4.675   5.715
    1AU     LIG  258   2.568   4.814   5.629
    1AU       S  259   4.156   5.576   6.390
    1AU     LIG  260   3.730   5.547   6.206
    1AU     LIG  261   3.318   5.727   6.399
    1AU     LIG  262   2.880   5.940   6.401
    1AU     LIG  263   2.474   6.213   6.361
    1AU    AUSL  264   5.960   4.716   6.051
    1AU    AUSL  265   5.787   4.987   6.377
    1AU     AUL  266   6.123   4.888   6.423
    1AU       S  267   6.271   4.604   6.068
    1AU     LIG  268   6.591   4.292   5.925
    1AU     LIG  269   7.014   4.074   5.947
    1AU     LIG  270   7.463   3.928   6.045
    1AU     LIG  271   7.772   3.844   6.381
    1AU       S  272   6.009   4.461   6.511
    1AU     LIG  273   6.284   4.258   6.872
    1AU     LIG  274   6.537   4.017   7.193
    1AU     LIG  275   6.756   3.807   7.551
    1AU     LIG  276   7.083   3.890   7.891
    1AU    AUSL  277   5.949   5.093   5.823
    1AU    AUSL  278   5.827   4.599   5.650
    1AU     AUL  279   6.085   4.735   5.666
    1AU       S  280   6.427   4.982   5.804
    1AU     LIG  281   6.712   4.683   5.604
    1AU     LIG  282   7.135   4.504   5.690
    1AU     LIG  283   7.571   4.362   5.776
    1AU     LIG  284   7.978   4.318   5.569
    1AU       S  285   6.016   4.431   5.310
    1AU     LIG  286   6.085   3.990   5.234
    1AU     LIG  287   6.282   3.621   5.028
    1AU     LIG  288   6.584   3.347   4.795
    1AU     LIG  289   6.802   2.917   4.885
    1AU    AUSL  290   4.448   4.806   6.078
    1AU    AUSL  291   4.581   5.033   5.660
    1AU     AUL  292   4.228   4.881   5.783
    1AU       S  293   4.446   4.845   5.377
    1AU     LIG  294   4.072   4.612   5.119
    1AU     LIG  295   3.732   4.283   5.002
    1AU     LIG  296   3.375   4.062   4.766
    1AU     LIG  297   3.031   4.079   4.440
    1AU       S  298   4.024   4.858   6.212
    1AU     LIG  299   3.699   4.648   6.004
    1AU     LIG  300   3.257   4.560   6.119
    1AU     LIG  301   2.901   4.373   6.372
    1AU     LIG  302   2.571   4.006   6.331
    1AU    AUSL  303   4.543   5.202   6.263
    1AU    AUSL  304   4.799   4.812   6.327
    1AU     AUL  305   4.441   4.812   6.407
    1AU       S  306   4.499   4.510   6.738
    1AU     LIG  307   4.336   4.076   6.656
    1AU     LIG  308   3.997   3.729   6.696
    1AU     LIG  309   3.716   3.428   6.938
    1AU     LIG  310   3.284   3.331   7.119
    1AU       S  311   4.087   5.109   6.357
    1AU     LIG  312   3.563   5.065   6.286
    1AU     LIG  313   3.130   5.053   6.106
    1AU     LIG  314   2.744   4.856   6.149
    1AU     LIG  315   2.436   4.650   6.426
    1AU    AUSL  316   5.256   6.121   6.481
    1AU    AUSL  317   4.836   6.052   6.331
    1AU     AUL  318   5.056   6.111   6.717
    1AU       S  319   4.697   6.266   6.458
    1AU     LIG  320   4.364   6.457   6.783
    1AU     LIG  321   4.167   6.687   7.159
    1AU     LIG  322   3.941   7.063   7.369
    1AU     LIG  323   3.673   7.481   7.351
    1AU       S  324   5.296   6.451   6.446
    1AU     LIG  325   5.448   6.518   6.841
    1AU     LIG  326   5.508   6.950   7.012
    1AU     LIG  327   5.594   7.388   7.165
    1AU     LIG  328   5.640   7.705   7.514
    1AU    AUSL  329   5.087   6.274   6.062
    1AU    AUSL  330   5.423   6.221   5.713
    1AU     AUL  331   5.300   6.572   5.857
    1AU       S  332   5.113   6.523   6.282
    1AU     LIG  333   5.306   6.937   6.520
    1AU     LIG  334   5.344   7.380   6.696
    1AU     LIG  335   5.136   7.818   6.683
    1AU     LIG  336   4.852   8.153   6.867
    1AU       S  337   5.157   6.367   5.478
    1AU     LIG  338   5.487   6.761   5.431
    1AU     LIG  339   5.717   7.210   5.348
    1AU     LIG  340   5.980   7.652   5.313
    1AU     LIG  341   6.164   8.115   5.276
    1AU    AUSL  342   5.452   6.017   6.099
    1AU    AUSL  343   5.483   5.758   6.488
    1AU     AUL  344   5.563   6.089   6.553
    1AU       S  345   5.842   6.024   6.908
    1AU     LIG  346   6.136   5.996   7.262
    1AU     LIG  347   6.430   6.270   7.487
    1AU     LIG  348   6.693   6.565   7.745
    1AU     LIG  349   6.694   6.817   8.148
    1AU       S  350   5.539   6.386   6.197
    1AU     LIG  351   5.765   6.683   6.474
    1AU     LIG  352   5.803   7.134   6.632
    1AU     LIG  353   5.844   7.583   6.758
    1AU     LIG  354   5.837   8.035   6.761
    1AU    AUSL  355   5.203   4.652   6.431
    1AU    AUSL  356   5.620   4.593   6.286
    1AU     AUL  357   5.404   4.490   6.659
    1AU       S  358   5.191   4.105   6.521
    1AU     LIG  359   4.891   3.939   6.840
    1AU     LIG  360   4.824   3.482   6.890
    1AU     LIG  361   4.887   3.021   6.909
    1AU     LIG  362   4.716   2.655   7.167
    1AU       S  363   5.775   4.375   6.359
    1AU     LIG  364   5.955   3.946   6.620
    1AU     LIG  365   6.288   3.687   6.891
    1AU     LIG  366   6.655   3.464   7.140
    1AU     LIG  367   6.888   3.015   7.133
    1AU    AUSL  368   4.875   4.429   6.170
    1AU    AUSL  369   4.933   4.726   6.755
    1AU     AUL  370   4.891   4.470   6.512
    1AU       S  371   4.992   4.040   6.367
    1AU     LIG  372   4.771   3.649   6.402
    1AU     LIG  373   4.639   3.196   6.478
    1AU     LIG  374   4.489   2.782   6.676
    1AU     LIG  375   4.589   2.333   6.757
    1AU       S  376   4.721   4.637   6.934
    1AU     LIG  377   4.533   4.224   7.126
    1AU     LIG  378   4.159   3.940   7.139
    1AU     LIG  379   3.946   3.614   7.399
    1AU     LIG  380   4.019   3.447   7.845
    1AU    AUSL  381   5.309   4.343   6.129
    1AU    AUSL  382   5.057   4.461   5.770
    1AU     AUL  383   4.934   4.205   5.940
    1AU       S  384   5.298   4.171   5.663
    1AU     LIG  385   5.004   3.760   5.714
    1AU     LIG  386   4.787   3.302   5.655
    1AU     LIG  387   4.732   2.832   5.497
    1AU     LIG  388   4.605   2.475   5.211
    1AU       S  389   5.311   4.159   6.259
    1AU     LIG  390   5.272   3.675   6.194
    1AU     LIG  391   5.158   3.302   6.490
    1AU     LIG  392   5.361   2.899   6.657
    1AU     LIG  393   5.787   2.665   6.679
    1AU    AUSL  394   5.278   5.919   5.388
    1AU    AUSL  395   5.680   5.879   5.722
    1AU     AUL  396   5.545   6.110   5.379
    1AU       S  397   5.144   6.338   5.267
    1AU     LIG  398   5.422   6.524   4.990
    1AU     LIG  399   5.485   6.978   4.934
    1AU     LIG  400   5.466   7.344   4.644
    1AU     LIG  401   5.608   7.635   4.298
    1AU       S  402   5.936   6.119   5.617
    1AU     LIG  403   6.379   6.288   5.382
    1AU     LIG  404   6.584   6.447   4.963
    1AU     LIG  405   6.822   6.783   4.698
    1AU     LIG  406   7.135   7.164   4.688
    1AU    AUSL  407   5.074   5.952   5.780
    1AU    AUSL  408   4.965   5.631   5.465
    1AU     AUL  409   4.930   5.936   5.329
    1AU       S  410   4.966   6.331   5.600
    1AU     LIG  411   4.979   6.822   5.475
    1AU     LIG  412   5.184   7.229   5.323
    1AU     LIG  413   5.050   7.702   5.301
    1AU     LIG  414   4.783   8.039   5.093
    1AU       S  415   4.498   5.981   5.175
    1AU     LIG  416   4.523   6.161   4.749
    1AU     LIG  417   4.452   6.366   4.338
    1AU     LIG  418   4.150   6.680   4.172
    1AU     LIG  419   4.152   7.147   4.046
    1AU    AUSL  420   5.268   4.573   5.396
    1AU    AUSL  421   4.655   4.602   5.760
    1AU     AUL  422   4.908   4.440   5.461
    1AU       S  423   4.463   4.549   5.553
    1AU     LIG  424   4.190   4.204   5.407
    1AU     LIG  425   3.909   3.862   5.235
    1AU     LIG  426   3.597   3.622   4.975
    1AU     LIG  427   3.425   3.184   4.846
    1AU       S  428   5.306   4.156   5.439
    1AU     LIG  429   5.231   3.724   5.255
    1AU     LIG  430   4.979   3.307   5.172
    1AU     LIG  431   4.817   2.896   4.976
    1AU     LIG  432   4.771   2.626   4.574
    1AU    AUSL  433   5.449   4.620   5.830
    1AU    AUSL  434   5.539   4.898   5.473
    1AU     AUL  435   5.582   4.531   5.437
    1AU       S  436   5.533   4.198   5.751
    1AU     LIG  437   5.515   3.722   5.715
    1AU     LIG  438   5.297   3.323   5.584
    1AU     LIG  439   5.233   2.885   5.389
    1AU     LIG  440   5.383   2.420   5.431
    1AU       S  441   5.804   4.656   5.064
    1AU     LIG  442   5.745   4.229   4.925
    1AU     LIG  443   5.988   3.895   4.706
    1AU     LIG  444   6.255   3.612   4.432
    1AU     LIG  445   6.469   3.555   4.009
    2POPC   NC3  446  10.141   5.909   8.071
    2POPC   PO4  447   0.010   5.360   7.952
    2POPC   GL1  448  10.304   5.524   7.665
    2POPC   GL2  449   9.983   5.605   7.691
    2POPC   C1A  450  10.163   5.340   7.272
    2POPC   D2A  451  10.361   5.385   6.877
    2POPC   C3A  452  10.143   5.435   6.462
    2POPC   C4A  453  10.130   5.402   5.975
    2POPC   C1B  454  10.218   5.836   7.303
    2POPC   C2B  455  10.279   5.983   6.930
    2POPC   C3B  456  10.056   5.947   6.590
    2POPC   C4B  457  10.200   5.859   6.202
    3POPC   NC3  458   0.464   9.273   8.313
    3POPC   PO4  459   0.653   9.627   7.820
    3POPC   GL1  460   0.468   9.504   7.469
    3POPC   GL2  461   0.319   9.234   7.529
    3POPC   C1A  462   0.191   9.609   7.187
    3POPC   D2A  463   0.352   9.684   6.811
    3POPC   C3A  464   0.067   9.658   6.511
    3POPC   C4A  465   0.258   9.723   6.156
    3POPC   C1B  466   0.270   9.046   7.137
    3POPC   C2B  467   0.543   9.091   6.762
    3POPC   C3B  468   0.441   9.331   6.406
    3POPC   C4B  469   0.506   9.316   5.925
    4POPC   NC3  470   9.382   7.411   8.184
    4POPC   PO4  471   8.874   7.052   7.988
    4POPC   GL1  472   9.123   7.047   7.670
    4POPC   GL2  473   9.468   7.116   7.746
    4POPC   C1A  474   9.260   7.056   7.277
    4POPC   D2A  475   9.162   6.917   6.912
    4POPC   C3A  476   9.196   7.189   6.569
    4POPC   C4A  477   9.203   7.098   6.150
    4POPC   C1B  478   9.746   7.185   7.381
    4POPC   C2B  479   9.751   7.047   6.975
    4POPC   C3B  480   9.831   7.188   6.587
    4POPC   C4B  481   9.611   7.389   6.271
    5POPC   NC3  482   5.914   8.570   7.975
    5POPC   PO4  483   5.742   9.245   8.098
    5POPC   GL1  484   5.962   9.011   7.757
    5POPC   GL2  485   5.648   8.970   7.540
    5POPC   C1A  486   6.118   8.988   7.333
    5POPC   D2A  487   5.829   9.206   7.018
    5POPC   C3A  488   5.748   9.058   6.581
    5POPC   C4A  489   5.660   8.730   6.293
    5POPC   C1B  490   5.737   8.685   7.188
    5POPC   C2B  491   5.584   8.534   6.781
    5POPC   C3B  492   5.518   8.248   6.427
    5POPC   C4B  493   5.671   8.258   5.999
    6POPC   NC3  494   6.445   1.979   8.080
    6POPC   PO4  495   6.052   2.444   7.984
    6POPC   GL1  496   6.359   2.160   7.613
    6POPC   GL2  497   6.503   1.799   7.595
    6POPC   C1A  498   6.490   2.034   7.140
    6POPC   D2A  499   6.287   2.271   6.777
    6POPC   C3A  500   6.539   2.336   6.394
    6POPC   C4A  501   6.389   2.258   5.953
    6POPC   C1B  502   6.679   1.467   7.288
    6POPC   C2B  503   6.740   1.593   6.859
    6POPC   C3B  504   6.568   1.878   6.635
    6POPC   C4B  505   6.391   1.862   6.260
    7POPC   NC3  506   8.768   5.860   7.892
    7POPC   PO4  507   8.846   5.268   8.134
    7POPC   GL1  508   8.706   5.334   7.696
    7POPC   GL2  509   8.501   5.594   7.554
    7POPC   C1A  510   8.914   5.463   7.312
    7POPC   D2A  511   8.977   5.627   6.877
    7POPC   C3A  512   8.912   5.486   6.440
    7POPC   C4A  513   8.893   5.642   6.036
    7POPC   C1B  514   8.492   5.655   7.108
    7POPC   C2B  515   8.491   5.431   6.712
    7POPC   C3B  516   8.431   5.623   6.303
    7POPC   C4B  517   8.069   5.679   6.058
    8POPC   NC3  518   3.725   9.669   8.025
    8POPC   PO4  519   3.068   9.711   8.105
    8POPC   GL1  520   3.294   9.678   7.723
    8POPC   GL2  521   3.388   9.323   7.769
    8POPC   C1A  522   3.354   9.797   7.289
    8POPC   D2A  523   3.151   9.742   6.873
    8POPC   C3A  524   3.456   9.610   6.571
    8POPC   C4A  525   3.440   9.447   6.149
    8POPC   C1B  526   3.424   9.165   7.361
    8POPC   C2B  527   3.433   9.291   6.962
    8POPC   C3B  528   3.535   9.087   6.551
    8POPC   C4B  529   3.774   8.946   6.202
    9POPC   NC3  530   2.598   7.855   8.435
    9POPC   PO4  531   3.043   8.203   8.090
    9POPC   GL1  532   2.686   7.969   7.859
    9POPC   GL2  533   2.456   8.167   7.680
    9POPC   C1A  534   2.597   7.760   7.409
    9POPC   D2A  535   2.844   7.619   7.034
    9POPC   C3A  536   2.685   7.696   6.615
    9POPC   C4A  537   2.511   7.528   6.242
    9POPC   C1B  538   2.881   8.194   7.426
    9POPC   C2B  539   2.984   8.113   6.998
    9POPC   C3B  540   3.012   8.087   6.541
    9POPC   C4B  541   2.794   7.967   6.164
   10POPC   NC3  542   8.466   7.009   8.181
   10POPC   PO4  543   8.522   7.576   8.402
   10POPC   GL1  544   8.600   7.473   7.876
   10POPC   GL2  545   8.509   7.125   7.665
   10POPC   C1A  546   8.666   7.520   7.362
   10POPC   D2A  547   8.445   7.568   6.931
   10POPC   C3A  548   8.420   7.449   6.477
   10POPC   C4A  549   8.417   7.514   6.023
   10POPC   C1B  550   8.742   7.027   7.255
   10POPC   C2B  551   8.728   7.149   6.802
   10POPC   C3B  552   8.734   7.022   6.360
   10POPC   C4B  553   8.765   7.159   5.904
   11POPC   NC3  554   6.117   9.046   8.258
   11POPC   PO4  555   6.286   8.377   8.158
   11POPC   GL1  556   6.365   8.537   7.720
   11POPC   GL2  557   6.626   8.775   7.697
   11POPC   C1A  558   6.424   8.583   7.252
   11POPC   D2A  559   6.681   8.436   6.912
   11POPC   C3A  560   6.507   8.518   6.508
   11POPC   C4A  561   6.419   8.525   6.075
   11POPC   C1B  562   6.674   9.000   7.321
   11POPC   C2B  563   6.560   8.967   6.904
   11POPC   C3B  564   6.622   9.004   6.484
   11POPC   C4B  565   6.186   8.949   6.261
   12POPC   NC3  566   5.046   1.183   8.063
   12POPC   PO4  567   5.266   1.830   8.057
   12POPC   GL1  568   4.902   1.583   7.755
   12POPC   GL2  569   4.942   1.244   7.588
   12POPC   C1A  570   4.735   1.550   7.269
   12POPC   D2A  571   5.039   1.485   6.889
   12POPC   C3A  572   4.814   1.518   6.500
   12POPC   C4A  573   4.852   1.430   6.041
   12POPC   C1B  574   4.955   1.055   7.195
   12POPC   C2B  575   4.807   1.070   6.781
   12POPC   C3B  576   5.013   1.064   6.377
   12POPC   C4B  577   4.623   0.988   6.169
   13POPC   NC3  578   0.190   9.554   7.889
   13POPC   PO4  579   9.965   9.404   8.039
   13POPC   GL1  580  10.189   9.582   7.709
   13POPC   GL2  581  10.310   9.241   7.658
   13POPC   C1A  582  10.147   9.863   7.344
   13POPC   D2A  583  10.276   9.765   6.921
   13POPC   C3A  584  10.090   9.871   6.535
   13POPC   C4A  585  10.219   9.680   6.134
   13POPC   C1B  586  10.251   9.343   7.248
   13POPC   C2B  587  10.407   9.266   6.847
   13POPC   C3B  588  10.115   9.351   6.552
   13POPC   C4B  589   9.979   9.248   6.174
   14POPC   NC3  590   1.667   5.547   8.379
   14POPC   PO4  591   1.019   5.513   8.185
   14POPC   GL1  592   1.153   5.558   7.723
   14POPC   GL2  593   1.354   5.285   7.562
   14POPC   C1A  594   1.119   5.838   7.340
   14POPC   D2A  595   1.260   5.686   6.917
   14POPC   C3A  596   1.116   5.877   6.503
   14POPC   C4A  597   1.145   5.676   6.111
   14POPC   C1B  598   0.945   5.372   7.298
   14POPC   C2B  599   0.811   5.388   6.842
   14POPC   C3B  600   0.849   5.371   6.374
   14POPC   C4B  601   0.847   5.305   5.890
   15POPC   NC3  602   8.580   3.371   8.002
   15POPC   PO4  603   8.623   4.000   7.812
   15POPC   GL1  604   8.705   3.646   7.501
   15POPC   GL2  605   8.708   3.251   7.515
   15POPC   C1A  606   8.840   3.510   7.069
   15POPC   D2A  607   8.613   3.445   6.685
   15POPC   C3A  608   8.843   3.350   6.340
   15POPC   C4A  609   8.787   3.549   5.957
   15POPC   C1B  610   8.367   3.395   7.214
   15POPC   C2B  611   8.208   3.676   6.907
   15POPC   C3B  612   8.114   3.501   6.520
   15POPC   C4B  613   8.365   3.568   6.208
   16POPC   NC3  614   0.510   2.701   8.015
   16POPC   PO4  615   0.318   2.061   8.206
   16POPC   GL1  616   0.161   2.347   7.826
   16POPC   GL2  617   0.123   2.704   7.694
   16POPC   C1A  618   0.098   2.380   7.334
   16POPC   D2A  619   0.152   2.622   6.929
   16POPC   C3A  620   0.474   2.533   6.596
   16POPC   C4A  621   0.150   2.477   6.275
   16POPC   C1B  622   0.393   2.822   7.331
   16POPC   C2B  623   0.471   3.027   6.941
   16POPC   C3B  624   0.319   3.019   6.515
   16POPC   C4B  625   0.493   2.858   6.149
   17POPC   NC3  626   8.915   7.796   8.290
   17POPC   PO4  627   8.583   8.213   7.933
   17POPC   GL1  628   8.653   7.980   7.591
   17POPC   GL2  629   8.966   7.777   7.676
   17POPC   C1A  630   8.626   8.235   7.223
   17POPC   D2A  631   8.361   8.240   6.882
   17POPC   C3A  632   8.493   7.981   6.601
   17POPC   C4A  633   8.592   8.172   6.204
   17POPC   C1B  634   9.059   7.926   7.251
   17POPC   C2B  635   8.956   8.124   6.834
   17POPC   C3B  636   8.967   7.923   6.432
   17POPC   C4B  637   8.903   7.503   6.273
   18POPC   NC3  638   2.861  10.069   8.334
   18POPC   PO4  639   3.317  10.293   7.901
   18POPC   GL1  640   3.574  10.154   7.613
   18POPC   GL2  641   3.917  10.085   7.742
   18POPC   C1A  642   3.585  10.264   7.188
   18POPC   D2A  643   3.430  10.188   6.767
   18POPC   C3A  644   3.595  10.424   6.383
   18POPC   C4A  645   3.392  10.344   5.951
   18POPC   C1B  646   3.892   9.861   7.350
   18POPC   C2B  647   3.746   9.809   6.956
   18POPC   C3B  648   3.825   9.963   6.565
   18POPC   C4B  649   3.556   9.950   6.218
   19POPC   NC3  650   9.673   8.258   8.016
   19POPC   PO4  651   9.363   7.812   8.415
   19POPC   GL1  652   9.508   7.769   7.874
   19POPC   GL2  653   9.459   8.012   7.622
   19POPC   C1A  654   9.367   7.543   7.454
   19POPC   D2A  655   9.163   7.484   7.006
   19POPC   C3A  656   9.365   7.662   6.610
   19POPC   C4A  657   9.331   7.766   6.123
   19POPC   C1B  658   9.588   8.198   7.289
   19POPC   C2B  659   9.456   8.062   6.909
   19POPC   C3B  660   9.448   8.145   6.466
   19POPC   C4B  661   9.713   8.093   6.102
   20POPC   NC3  662   8.385   9.242   8.188
   20POPC   PO4  663   8.946   8.980   8.020
   20POPC   GL1  664   8.645   9.088   7.684
   20POPC   GL2  665   8.464   9.408   7.682
   20POPC   C1A  666   8.550   9.189   7.220
   20POPC   D2A  667   8.737   9.114   6.828
   20POPC   C3A  668   8.570   9.128   6.442
   20POPC   C4A  669   8.807   9.145   6.094
   20POPC   C1B  670   8.856   9.525   7.432
   20POPC   C2B  671   8.890   9.583   6.987
   20POPC   C3B  672   8.563   9.591   6.675
   20POPC   C4B  673   8.640   9.603   6.247
   21POPC   NC3  674   9.352   4.613   8.449
   21POPC   PO4  675   9.366   4.483   7.833
   21POPC   GL1  676   9.508   4.756   7.596
   21POPC   GL2  677   9.526   5.041   7.768
   21POPC   C1A  678   9.498   4.784   7.160
   21POPC   D2A  679   9.197   4.761   6.882
   21POPC   C3A  680   9.314   4.685   6.481
   21POPC   C4A  681   8.987   4.647   6.209
   21POPC   C1B  682   9.663   5.227   7.389
   21POPC   C2B  683   9.403   5.386   7.065
   21POPC   C3B  684   9.274   5.234   6.687
   21POPC   C4B  685   9.472   5.143   6.320
   22POPC   NC3  686   0.815   0.936   8.134
   22POPC   PO4  687   1.411   0.794   8.075
   22POPC   GL1  688   1.177   0.854   7.716
   22POPC   GL2  689   1.169   1.203   7.816
   22POPC   C1A  690   1.156   1.057   7.291
   22POPC   D2A  691   1.386   1.087   6.917
   22POPC   C3A  692   1.216   0.900   6.570
   22POPC   C4A  693   1.191   1.081   6.198
   22POPC   C1B  694   1.336   1.470   7.517
   22POPC   C2B  695   1.241   1.566   7.077
   22POPC   C3B  696   1.109   1.445   6.655
   22POPC   C4B  697   1.404   1.522   6.355
   23POPC   NC3  698   6.897   8.687   8.117
   23POPC   PO4  699   7.308   9.198   8.148
   23POPC   GL1  700   7.067   9.046   7.798
   23POPC   GL2  701   7.269   8.735   7.738
   23POPC   C1A  702   7.173   9.046   7.356
   23POPC   D2A  703   7.110   8.786   6.979
   23POPC   C3A  704   7.246   8.877   6.550
   23POPC   C4A  705   7.045   8.808   6.156
   23POPC   C1B  706   7.004   8.524   7.424
   23POPC   C2B  707   7.140   8.266   7.082
   23POPC   C3B  708   7.128   8.375   6.646
   23POPC   C4B  709   6.909   8.335   6.238
   24POPC   NC3  710   0.101   6.422   8.223
   24POPC   PO4  711  10.002   6.373   8.097
   24POPC   GL1  712   9.901   6.409   7.676
   24POPC   GL2  713  10.140   6.181   7.634
   24POPC   C1A  714   9.828   6.242   7.217
   24POPC   D2A  715  10.005   6.434   6.839
   24POPC   C3A  716   9.792   6.392   6.478
   24POPC   C4A  717   9.752   6.083   6.207
   24POPC   C1B  718  10.304   6.394   7.281
   24POPC   C2B  719  10.493   6.446   6.864
   24POPC   C3B  720  10.335   6.368   6.432
   24POPC   C4B  721  10.449   6.584   6.051
   25POPC   NC3  722   5.346   0.414   8.182
   25POPC   PO4  723   4.684   0.147   8.195
   25POPC   GL1  724   4.800   0.361   7.798
   25POPC   GL2  725   4.942   0.716   7.794
   25POPC   C1A  726   4.976   0.269   7.368
   25POPC   D2A  727   5.105   0.415   6.957
   25POPC   C3A  728   4.969   0.132   6.624
   25POPC   C4A  729   5.124   0.121   6.209
   25POPC   C1B  730   4.688   0.689   7.428
   25POPC   C2B  731   4.628   0.650   6.994
   25POPC   C3B  732   4.796   0.618   6.565
   25POPC   C4B  733   4.965   0.604   6.151
   26POPC   NC3  734   5.930   1.266   7.994
   26POPC   PO4  735   5.404   0.843   7.980
   26POPC   GL1  736   5.389   0.997   7.552
   26POPC   GL2  737   5.477   1.348   7.628
   26POPC   C1A  738   5.453   1.126   7.087
   26POPC   D2A  739   5.786   1.224   6.743
   26POPC   C3A  740   5.598   1.027   6.367
   26POPC   C4A  741   5.397   0.848   6.024
   26POPC   C1B  742   5.701   1.520   7.245
   26POPC   C2B  743   5.529   1.670   6.850
   26POPC   C3B  744   5.412   1.511   6.460
   26POPC   C4B  745   5.804   1.461   6.235
   27POPC   NC3  746   9.405   5.174   8.242
   27POPC   PO4  747   9.684   5.794   8.167
   27POPC   GL1  748   9.457   5.765   7.778
   27POPC   GL2  749   9.654   5.984   7.626
   27POPC   C1A  750   9.253   5.817   7.353
   27POPC   D2A  751   9.427   5.950   6.921
   27POPC   C3A  752   9.279   5.825   6.513
   27POPC   C4A  753   9.296   5.950   6.106
   27POPC   C1B  754   9.735   5.729   7.281
   27POPC   C2B  755   9.888   5.595   6.932
   27POPC   C3B  756   9.676   5.538   6.599
   27POPC   C4B  757   9.695   5.579   6.175
   28POPC   NC3  758   5.295   9.150   7.893
   28POPC   PO4  759   5.627   9.745   8.078
   28POPC   GL1  760   5.515   9.558   7.705
   28POPC   GL2  761   5.799   9.461   7.629
   28POPC   C1A  762   5.382   9.331   7.285
   28POPC   D2A  763   5.180   9.459   6.905
   28POPC   C3A  764   5.330   9.348   6.513
   28POPC   C4A  765   5.434   9.547   6.145
   28POPC   C1B  766   5.758   9.672   7.274
   28POPC   C2B  767   5.605   9.772   6.906
   28POPC   C3B  768   5.758   9.615   6.539
   28POPC   C4B  769   5.952   9.439   6.197
   29POPC   NC3  770   9.734   2.510   8.008
   29POPC   PO4  771   9.751   3.205   8.106
   29POPC   GL1  772   9.589   2.922   7.751
   29POPC   GL2  773   9.234   2.764   7.710
   29POPC   C1A  774   9.600   2.702   7.359
   29POPC   D2A  775   9.273   2.781   7.050
   29POPC   C3A  776   9.404   2.876   6.651
   29POPC   C4A  777   9.640   2.626   6.356
   29POPC   C1B  778   9.199   2.392   7.402
   29POPC   C2B  779   9.113   2.291   7.003
   29POPC   C3B  780   9.215   2.401   6.610
   29POPC   C4B  781   9.247   2.346   6.200
   30POPC   NC3  782   2.687   3.444   8.497
   30POPC   PO4  783   2.278   3.332   8.146
   30POPC   GL1  784   2.342   3.473   7.748
   30POPC   GL2  785   2.375   3.157   7.595
   30POPC   C1A  786   2.579   3.565   7.354
   30POPC   D2A  787   2.760   3.400   6.977
   30POPC   C3A  788   2.581   3.495   6.556
   30POPC   C4A  789   2.450   3.481   6.123
   30POPC   C1B  790   2.827   3.106   7.444
   30POPC   C2B  791   2.964   2.927   7.046
   30POPC   C3B  792   2.961   3.074   6.624
   30POPC   C4B  793   3.168   3.231   6.254
   31POPC   NC3  794   4.678  10.172   8.343
   31POPC   PO4  795   4.167   9.809   8.106
   31POPC   GL1  796   4.439   9.922   7.801
   31POPC   GL2  797   4.440  10.255   7.717
   31POPC   C1A  798   4.416   9.861   7.355
   31POPC   D2A  799   4.233   9.980   6.958
   31POPC   C3A  800   4.310   9.819   6.568
   31POPC   C4A  801   4.437   9.967   6.176
   31POPC   C1B  802   4.150  10.316   7.341
   31POPC   C2B  803   3.972  10.399   6.909
   31POPC   C3B  804   4.180  10.317   6.537
   31POPC   C4B  805   4.148   0.020   6.185
   32POPC   NC3  806   2.801   5.324   8.597
   32POPC   PO4  807   2.358   5.227   8.144
   32POPC   GL1  808   2.439   5.334   7.647
   32POPC   GL2  809   2.447   5.711   7.604
   32POPC   C1A  810   2.588   5.431   7.194
   32POPC   D2A  811   2.714   5.632   6.800
   32POPC   C3A  812   2.880   5.423   6.395
   32POPC   C4A  813   3.120   5.540   5.979
   32POPC   C1B  814   2.473   5.945   7.193
   32POPC   C2B  815   2.289   5.941   6.770
   32POPC   C3B  816   2.428   5.705   6.391
   32POPC   C4B  817   2.403   5.879   5.950
   33POPC   NC3  818   5.653  10.208   8.124
   33POPC   PO4  819   6.257  10.103   7.885
   33POPC   GL1  820   5.887   9.990   7.652
   33POPC   GL2  821   5.542  10.123   7.651
   33POPC   C1A  822   5.818  10.164   7.244
   33POPC   D2A  823   5.977  10.339   6.897
   33POPC   C3A  824   5.851  10.117   6.555
   33POPC   C4A  825   6.010  10.160   6.148
   33POPC   C1B  826   5.303  10.324   7.311
   33POPC   C2B  827   5.455  10.265   6.904
   33POPC   C3B  828   5.392  10.338   6.508
   33POPC   C4B  829   5.507  10.176   6.121
   34POPC   NC3  830   6.152   9.660   7.963
   34POPC   PO4  831   6.553   9.079   8.124
   34POPC   GL1  832   6.440   9.274   7.715
   34POPC   GL2  833   6.759   9.403   7.585
   34POPC   C1A  834   6.214   9.474   7.352
   34POPC   D2A  835   6.121   9.621   6.924
   34POPC   C3A  836   6.195   9.308   6.618
   34POPC   C4A  837   6.459   9.392   6.226
   34POPC   C1B  838   6.638   9.609   7.165
   34POPC   C2B  839   6.605   9.543   6.745
   34POPC   C3B  840   6.755   9.745   6.444
   34POPC   C4B  841   6.958   9.823   6.119
   35POPC   NC3  842   0.553   1.812   7.876
   35POPC   PO4  843   0.031   1.378   7.851
   35POPC   GL1  844   0.135   1.600   7.563
   35POPC   GL2  845   0.118   1.917   7.578
   35POPC   C1A  846   0.347   1.528   7.230
   35POPC   D2A  847   0.438   1.665   6.882
   35POPC   C3A  848   0.472   1.492   6.550
   35POPC   C4A  849   0.423   1.696   6.213
   35POPC   C1B  850   0.448   2.021   7.292
   35POPC   C2B  851   0.364   2.158   6.927
   35POPC   C3B  852   0.267   2.049   6.543
   35POPC   C4B  853   0.572   2.171   6.202
   36POPC   NC3  854   3.468   1.002   8.213
   36POPC   PO4  855   3.134   1.438   7.912
   36POPC   GL1  856   3.402   1.216   7.671
   36POPC   GL2  857   3.530   0.881   7.669
   36POPC   C1A  858   3.272   1.147   7.273
   36POPC   D2A  859   3.013   1.087   6.942
   36POPC   C3A  860   3.278   1.203   6.601
   36POPC   C4A  861   3.168   1.349   6.200
   36POPC   C1B  862   3.769   1.015   7.312
   36POPC   C2B  863   3.811   1.253   6.974
   36POPC   C3B  864   3.838   1.097   6.610
   36POPC   C4B  865   3.656   1.198   6.241
   37POPC   NC3  866   9.777   4.338   8.004
   37POPC   PO4  867   0.003   4.415   7.985
   37POPC   GL1  868  10.321   4.438   7.649
   37POPC   GL2  869  10.069   4.191   7.614
   37POPC   C1A  870  10.399   4.438   7.264
   37POPC   D2A  871  10.125   4.466   6.960
   37POPC   C3A  872  10.363   4.476   6.632
   37POPC   C4A  873  10.256   4.620   6.235
   37POPC   C1B  874  10.248   3.936   7.295
   37POPC   C2B  875  10.139   3.946   6.899
   37POPC   C3B  876   9.975   4.177   6.573
   37POPC   C4B  877  10.152   4.127   6.178
   38POPC   NC3  878   7.577   0.132   7.836
   38POPC   PO4  879   7.644   0.760   8.013
   38POPC   GL1  880   7.900   0.516   7.705
   38POPC   GL2  881   7.956   0.159   7.529
   38POPC   C1A  882   7.894   0.600   7.275
   38POPC   D2A  883   7.836   0.853   6.947
   38POPC   C3A  884   7.775   0.669   6.580
   38POPC   C4A  885   7.984   0.778   6.256
   38POPC   C1B  886   7.977   0.115   7.137
   38POPC   C2B  887   7.687   0.247   6.851
   38POPC   C3B  888   7.915   0.176   6.494
   38POPC   C4B  889   7.917   0.294   6.071
   39POPC   NC3  890   8.044   1.980   8.083
   39POPC   PO4  891   7.463   1.608   8.188
   39POPC   GL1  892   7.569   1.673   7.728
   39POPC   GL2  893   7.911   1.754   7.659
   39POPC   C1A  894   7.632   1.652   7.253
   39POPC   D2A  895   7.905   1.720   6.910
   39POPC   C3A  896   7.617   1.781   6.588
   39POPC   C4A  897   7.568   1.767   6.172
   39POPC   C1B  898   7.974   2.034   7.350
   39POPC   C2B  899   8.207   2.133   6.954
   39POPC   C3B  900   8.023   2.074   6.537
   39POPC   C4B  901   7.849   2.195   6.173
   40POPC   NC3  902  10.313   7.836   7.955
   40POPC   PO4  903   9.827   7.355   8.018
   40POPC   GL1  904   9.925   7.590   7.620
   40POPC   GL2  905   9.961   7.952   7.595
   40POPC   C1A  906   9.779   7.700   7.180
   40POPC   D2A  907   9.958   7.954   6.837
   40POPC   C3A  908  10.018   7.817   6.407
   40POPC   C4A  909  10.394   7.780   6.111
   40POPC   C1B  910  10.284   7.815   7.279
   40POPC   C2B  911  10.472   7.856   6.861
   40POPC   C3B  912  10.386   8.159   6.537
   40POPC   C4B  913  10.220   8.265   6.135
   41POPC   NC3  914   2.186   4.760   8.045
   41POPC   PO4  915   1.700   5.291   8.000
   41POPC   GL1  916   1.886   5.279   7.576
   41POPC   GL2  917   1.826   4.950   7.534
   41POPC   C1A  918   2.212   5.098   7.249
   41POPC   D2A  919   2.199   4.955   6.796
   41POPC   C3A  920   2.404   5.157   6.414
   41POPC   C4A  921   2.274   4.978   5.998
   41POPC   C1B  922   1.756   5.215   7.096
   41POPC   C2B  923   1.693   5.090   6.677
   41POPC   C3B  924   1.925   4.882   6.348
   41POPC   C4B  925   1.788   4.661   5.957
   42POPC   NC3  926   7.698   8.526   8.084
   42POPC   PO4  927   8.281   8.430   8.360
   42POPC   GL1  928   8.139   8.438   7.824
   42POPC   GL2  929   7.861   8.643   7.633
   42POPC   C1A  930   8.128   8.355   7.341
   42POPC   D2A  931   7.924   8.498   6.945
   42POPC   C3A  932   7.952   8.293   6.528
   42POPC   C4A  933   8.147   8.382   6.133
   42POPC   C1B  934   7.609   8.800   7.291
   42POPC   C2B  935   7.674   8.917   6.864
   42POPC   C3B  936   7.756   8.820   6.437
   42POPC   C4B  937   7.532   8.964   6.055
   43POPC   NC3  938   1.180   5.931   8.052
   43POPC   PO4  939   1.271   6.619   8.076
   43POPC   GL1  940   1.389   6.296   7.766
   43POPC   GL2  941   1.100   6.269   7.637
   43POPC   C1A  942   1.510   6.163   7.353
   43POPC   D2A  943   1.254   6.210   6.994
   43POPC   C3A  944   1.423   6.317   6.611
   43POPC   C4A  945   1.510   6.121   6.230
   43POPC   C1B  946   1.209   6.619   7.372
   43POPC   C2B  947   1.182   6.824   6.984
   43POPC   C3B  948   1.270   6.927   6.550
   43POPC   C4B  949   1.146   6.596   6.280
   44POPC   NC3  950   1.463   3.191   8.351
   44POPC   PO4  951   0.885   2.996   8.002
   44POPC   GL1  952   1.139   3.188   7.664
   44POPC   GL2  953   1.241   3.555   7.721
   44POPC   C1A  954   1.219   3.317   7.241
   44POPC   D2A  955   1.166   3.586   6.908
   44POPC   C3A  956   1.253   3.317   6.618
   44POPC   C4A  957   1.075   3.271   6.254
   44POPC   C1B  958   1.459   3.768   7.353
   44POPC   C2B  959   1.675   3.564   7.015
   44POPC   C3B  960   1.611   3.685   6.612
   44POPC   C4B  961   1.426   3.612   6.230
   45POPC   NC3  962   1.184   9.485   7.888
   45POPC   PO4  963   0.747   8.965   8.122
   45POPC   GL1  964   0.828   9.155   7.669
   45POPC   GL2  965   0.971   9.503   7.444
   45POPC   C1A  966   0.784   9.103   7.232
   45POPC   D2A  967   1.079   9.334   6.956
   45POPC   C3A  968   0.898   9.461   6.593
   45POPC   C4A  969   0.895   9.190   6.256
   45POPC   C1B  970   1.376   9.613   7.281
   45POPC   C2B  971   1.500   9.719   6.894
   45POPC   C3B  972   1.405   9.508   6.557
   45POPC   C4B  973   1.241   9.527   6.190
   46POPC   NC3  974   8.893   2.462   8.280
   46POPC   PO4  975   8.508   2.957   8.199
   46POPC   GL1  976   8.497   2.793   7.740
   46POPC   GL2  977   8.748   2.507   7.728
   46POPC   C1A  978   8.343   2.878   7.296
   46POPC   D2A  979   8.555   2.994   6.922
   46POPC   C3A  980   8.361   3.023   6.518
   46POPC   C4A  981   8.543   3.013   6.121
   46POPC   C1B  982   8.785   2.643   7.270
   46POPC   C2B  983   8.626   2.466   6.872
   46POPC   C3B  984   8.615   2.587   6.438
   46POPC   C4B  985   9.001   2.802   6.260
   47POPC   NC3  986   0.454   8.600   8.024
   47POPC   PO4  987   0.061   9.147   8.100
   47POPC   GL1  988   0.113   8.818   7.717
   47POPC   GL2  989   0.483   8.758   7.534
   47POPC   C1A  990   0.066   8.499   7.386
   47POPC   D2A  991   0.105   8.387   6.962
   47POPC   C3A  992   0.290   8.654   6.640
   47POPC   C4A  993   0.145   8.544   6.210
   47POPC   C1B  994   0.592   8.646   7.080
   47POPC   C2B  995   0.796   8.411   6.725
   47POPC   C3B  996   0.861   8.703   6.393
   47POPC   C4B  997   0.500   8.881   6.196
   48POPC   NC3  998   2.781   0.540   8.110
   48POPC   PO4  999   2.672  10.415   8.056
   48POPC   GL1 1000   2.553   0.276   7.721
   48POPC   GL2 1001   2.641   0.621   7.605
   48POPC   C1A 1002   2.502   0.235   7.278
   48POPC   D2A 1003   2.581   0.518   6.955
   48POPC   C3A 1004   2.717   0.331   6.566
   48POPC   C4A 1005   2.509   0.373   6.172
   48POPC   C1B 1006   2.963   0.711   7.293
   48POPC   C2B 1007   3.074   0.599   6.854
   48POPC   C3B 1008   3.022   0.775   6.524
   48POPC   C4B 1009   2.910   0.669   6.187
   49POPC   NC3 1010   9.680   0.298   8.280
   49POPC   PO4 1011   9.686   0.852   7.940
   49POPC   GL1 1012   9.605   0.496   7.661
   49POPC   GL2 1013   9.251   0.489   7.619
   49POPC   C1A 1014   9.503   0.320   7.209
   49POPC   D2A 1015   9.144   0.175   6.913
   49POPC   C3A 1016   9.320   0.261   6.499
   49POPC   C4A 1017   9.670   0.199   6.226
   49POPC   C1B 1018   9.306   0.780   7.286
   49POPC   C2B 1019   9.255   0.674   6.870
   49POPC   C3B 1020   9.319   0.790   6.458
   49POPC   C4B 1021   9.450   0.619   6.087
   50POPC   NC3 1022   3.952   1.076   7.901
   50POPC   PO4 1023   4.579   1.227   8.167
   50POPC   GL1 1024   4.494   1.050   7.766
   50POPC   GL2 1025   4.343   0.732   7.803
   50POPC   C1A 1026   4.452   1.119   7.316
   50POPC   D2A 1027   4.362   1.356   6.951
   50POPC   C3A 1028   4.378   1.248   6.543
   50POPC   C4A 1029   4.368   1.514   6.173
   50POPC   C1B 1030   4.167   0.681   7.372
   50POPC   C2B 1031   4.157   0.865   6.976
   50POPC   C3B 1032   4.244   0.736   6.588
   50POPC   C4B 1033   4.121   0.949   6.224
   51POPC   NC3 1034   3.198   2.729   8.019
   51POPC   PO4 1035   3.771   2.803   8.102
   51POPC   GL1 1036   3.655   2.758   7.651
   51POPC   GL2 1037   3.430   2.455   7.633
   51POPC   C1A 1038   3.656   2.957   7.199
   51POPC   D2A 1039   3.439   2.990   6.777
   51POPC   C3A 1040   3.644   3.021   6.363
   51POPC   C4A 1041   3.563   3.153   5.916
   51POPC   C1B 1042   3.306   2.568   7.205
   51POPC   C2B 1043   3.152   2.538   6.778
   51POPC   C3B 1044   3.283   2.664   6.382
   51POPC   C4B 1045   3.216   2.353   6.038
   52POPC   NC3 1046   2.522   1.188   7.948
   52POPC   PO4 1047   2.868   1.623   8.347
   52POPC   GL1 1048   2.702   1.615   7.759
   52POPC   GL2 1049   2.840   1.257   7.557
   52POPC   C1A 1050   2.651   1.579   7.231
   52POPC   D2A 1051   2.888   1.540   6.796
   52POPC   C3A 1052   2.752   1.214   6.465
   52POPC   C4A 1053   2.549   1.348   6.063
   52POPC   C1B 1054   2.583   1.029   7.265
   52POPC   C2B 1055   2.368   0.996   6.874
   52POPC   C3B 1056   2.480   0.782   6.511
   52POPC   C4B 1057   2.443   0.866   6.091
   53POPC   NC3 1058   3.455   7.935   8.092
   53POPC   PO4 1059   3.918   8.449   8.003
   53POPC   GL1 1060   3.664   8.304   7.627
   53POPC   GL2 1061   3.335   8.114   7.649
   53POPC   C1A 1062   3.537   8.185   7.188
   53POPC   D2A 1063   3.416   8.288   6.785
   53POPC   C3A 1064   3.496   8.001   6.432
   53POPC   C4A 1065   3.306   8.100   6.040
   53POPC   C1B 1066   3.235   7.800   7.344
   53POPC   C2B 1067   3.355   7.762   6.902
   53POPC   C3B 1068   3.178   7.596   6.515
   53POPC   C4B 1069   3.173   7.622   6.072
   54POPC   NC3 1070   3.619   8.803   7.905
   54POPC   PO4 1071   3.050   8.979   7.973
   54POPC   GL1 1072   3.055   8.894   7.571
   54POPC   GL2 1073   3.239   8.608   7.580
   54POPC   C1A 1074   2.974   8.686   7.159
   54POPC   D2A 1075   3.268   8.790   6.873
   54POPC   C3A 1076   3.230   8.680   6.484
   54POPC   C4A 1077   3.208   8.968   6.148
   54POPC   C1B 1078   3.591   8.684   7.249
   54POPC   C2B 1079   3.790   8.643   6.804
   54POPC   C3B 1080   3.687   8.467   6.374
   54POPC   C4B 1081   3.517   8.577   5.941
   55POPC   NC3 1082   1.390   4.157   8.103
   55POPC   PO4 1083   0.985   4.594   8.052
   55POPC   GL1 1084   0.948   4.349   7.685
   55POPC   GL2 1085   1.111   4.055   7.686
   55POPC   C1A 1086   1.170   4.416   7.273
   55POPC   D2A 1087   1.287   4.585   6.853
   55POPC   C3A 1088   1.027   4.509   6.526
   55POPC   C4A 1089   1.094   4.420   6.121
   55POPC   C1B 1090   0.998   3.936   7.267
   55POPC   C2B 1091   1.335   4.068   6.923
   55POPC   C3B 1092   1.263   4.048   6.479
   55POPC   C4B 1093   0.939   3.742   6.391
   56POPC   NC3 1094   9.063   8.528   8.045
   56POPC   PO4 1095   9.633   8.780   8.020
   56POPC   GL1 1096   9.470   8.584   7.656
   56POPC   GL2 1097   9.224   8.818   7.625
   56POPC   C1A 1098   9.510   8.711   7.205
   56POPC   D2A 1099   9.291   8.536   6.814
   56POPC   C3A 1100   9.482   8.651   6.487
   56POPC   C4A 1101   9.480   8.550   6.079
   56POPC   C1B 1102   9.124   9.088   7.290
   56POPC   C2B 1103   9.234   9.031   6.868
   56POPC   C3B 1104   9.080   8.943   6.463
   56POPC   C4B 1105   9.301   9.027   6.068
   57POPC   NC3 1106   1.107   7.846   8.104
   57POPC   PO4 1107   1.412   8.303   7.788
   57POPC   GL1 1108   1.256   7.955   7.613
   57POPC   GL2 1109   0.883   7.923   7.652
   57POPC   C1A 1110   1.397   7.994   7.205
   57POPC   D2A 1111   1.495   7.745   6.904
   57POPC   C3A 1112   1.356   7.908   6.558
   57POPC   C4A 1113   1.544   7.804   6.220
   57POPC   C1B 1114   0.853   7.759   7.263
   57POPC   C2B 1115   0.966   7.927   6.901
   57POPC   C3B 1116   0.804   7.897   6.515
   57POPC   C4B 1117   1.001   7.965   6.175
   58POPC   NC3 1118   2.118   7.330   7.977
   58POPC   PO4 1119   1.496   7.591   8.008
   58POPC   GL1 1120   1.624   7.303   7.651
   58POPC   GL2 1121   1.930   7.275   7.514
   58POPC   C1A 1122   1.546   7.082   7.257
   58POPC   D2A 1123   1.766   7.289   6.907
   58POPC   C3A 1124   1.645   7.274   6.462
   58POPC   C4A 1125   1.692   6.890   6.179
   58POPC   C1B 1126   2.337   7.302   7.338
   58POPC   C2B 1127   2.398   7.386   6.915
   58POPC   C3B 1128   2.137   7.451   6.587
   58POPC   C4B 1129   2.098   7.214   6.201
   59POPC   NC3 1130   6.898   9.408   8.168
   59POPC   PO4 1131   7.478   9.845   8.102
   59POPC   GL1 1132   7.206   9.613   7.779
   59POPC   GL2 1133   7.427   9.366   7.656
   59POPC   C1A 1134   7.128   9.585   7.298
   59POPC   D2A 1135   6.951   9.277   6.982
   59POPC   C3A 1136   7.044   9.342   6.574
   59POPC   C4A 1137   6.982   9.303   6.173
   59POPC   C1B 1138   7.605   9.334   7.277
   59POPC   C2B 1139   7.430   9.342   6.918
   59POPC   C3B 1140   7.563   9.306   6.545
   59POPC   C4B 1141   7.482   9.448   6.205
   60POPC   NC3 1142   0.508   7.539   7.851
   60POPC   PO4 1143   0.635   8.175   8.024
   60POPC   GL1 1144   0.452   8.242   7.642
   60POPC   GL2 1145   0.182   7.998   7.596
   60POPC   C1A 1146   0.559   8.181   7.239
   60POPC   D2A 1147   0.454   8.041   6.861
   60POPC   C3A 1148   0.386   8.191   6.487
   60POPC   C4A 1149   0.623   8.324   6.193
   60POPC   C1B 1150   0.314   7.721   7.246
   60POPC   C2B 1151   0.479   7.557   6.844
   60POPC   C3B 1152   0.272   7.704   6.458
   60POPC   C4B 1153   0.476   7.868   6.072
   61POPC   NC3 1154   2.667   1.969   8.139
   61POPC   PO4 1155   2.065   2.211   8.258
   61POPC   GL1 1156   2.313   2.172   7.767
   61POPC   GL2 1157   2.663   2.127   7.658
   61POPC   C1A 1158   2.389   2.044   7.255
   61POPC   D2A 1159   2.578   1.927   6.809
   61POPC   C3A 1160   2.453   2.155   6.396
   61POPC   C4A 1161   2.341   2.196   5.911
   61POPC   C1B 1162   2.978   1.950   7.381
   61POPC   C2B 1163   3.095   2.051   6.952
   61POPC   C3B 1164   2.997   2.042   6.527
   61POPC   C4B 1165   2.757   1.713   6.331
   62POPC   NC3 1166   4.191   2.623   8.081
   62POPC   PO4 1167   4.604   3.114   7.903
   62POPC   GL1 1168   4.363   2.813   7.579
   62POPC   GL2 1169   4.145   2.492   7.582
   62POPC   C1A 1170   4.203   2.757   7.122
   62POPC   D2A 1171   3.981   2.985   6.785
   62POPC   C3A 1172   4.159   3.034   6.377
   62POPC   C4A 1173   4.020   2.931   5.987
   62POPC   C1B 1174   3.801   2.471   7.255
   62POPC   C2B 1175   3.693   2.559   6.815
   62POPC   C3B 1176   3.913   2.571   6.410
   62POPC   C4B 1177   4.347   2.484   6.279
   63POPC   NC3 1178   2.812   8.594   7.982
   63POPC   PO4 1179   2.314   9.064   8.103
   63POPC   GL1 1180   2.564   8.978   7.735
   63POPC   GL2 1181   2.619   8.631   7.534
   63POPC   C1A 1182   2.647   9.073   7.328
   63POPC   D2A 1183   2.532   8.880   6.970
   63POPC   C3A 1184   2.758   8.879   6.595
   63POPC   C4A 1185   2.581   8.877   6.210
   63POPC   C1B 1186   2.486   8.390   7.191
   63POPC   C2B 1187   2.626   8.406   6.783
   63POPC   C3B 1188   2.680   8.417   6.374
   63POPC   C4B 1189   3.005   8.499   6.083
   64POPC   NC3 1190   5.803   0.544   7.929
   64POPC   PO4 1191   5.348   0.017   7.944
   64POPC   GL1 1192   5.599   0.155   7.657
   64POPC   GL2 1193   5.412   0.465   7.596
   64POPC   C1A 1194   5.683   0.153   7.226
   64POPC   D2A 1195   5.578   0.233   6.816
   64POPC   C3A 1196   5.810   0.122   6.457
   64POPC   C4A 1197   5.678   0.143   6.006
   64POPC   C1B 1198   5.678   0.664   7.248
   64POPC   C2B 1199   5.615   0.730   6.799
   64POPC   C3B 1200   5.441   0.524   6.421
   64POPC   C4B 1201   5.824   0.583   6.209
   65POPC   NC3 1202   8.920   4.369   7.899
   65POPC   PO4 1203   9.474   4.129   8.296
   65POPC   GL1 1204   9.362   3.993   7.810
   65POPC   GL2 1205   9.641   3.875   7.655
   65POPC   C1A 1206   9.316   4.183   7.317
   65POPC   D2A 1207   9.464   4.310   6.895
   65POPC   C3A 1208   9.104   4.243   6.619
   65POPC   C4A 1209   9.200   4.154   6.213
   65POPC   C1B 1210   9.723   3.894   7.205
   65POPC   C2B 1211   9.657   3.813   6.767
   65POPC   C3B 1212   9.635   3.899   6.340
   65POPC   C4B 1213   9.665   4.358   6.210
   66POPC   NC3 1214   1.453  10.203   8.218
   66POPC   PO4 1215   0.916   0.039   8.120
   66POPC   GL1 1216   1.203  10.394   7.764
   66POPC   GL2 1217   1.308  10.030   7.740
   66POPC   C1A 1218   1.370  10.464   7.337
   66POPC   D2A 1219   1.329  10.215   6.932
   66POPC   C3A 1220   1.419  10.405   6.605
   66POPC   C4A 1221   1.363  10.391   6.207
   66POPC   C1B 1222   1.095  10.027   7.350
   66POPC   C2B 1223   0.986   9.846   6.929
   66POPC   C3B 1224   1.079   9.960   6.483
   66POPC   C4B 1225   1.147   9.983   6.019
   67POPC   NC3 1226  10.270   1.060   8.014
   67POPC   PO4 1227   0.494   1.261   8.097
   67POPC   GL1 1228   0.467   1.219   7.646
   67POPC   GL2 1229   0.720   1.076   7.633
   67POPC   C1A 1230   0.222   1.046   7.290
   67POPC   D2A 1231   0.029   1.241   6.953
   67POPC   C3A 1232   0.201   1.065   6.601
   67POPC   C4A 1233   0.314   1.017   6.178
   67POPC   C1B 1234   0.829   1.444   7.369
   67POPC   C2B 1235   0.749   1.256   6.970
   67POPC   C3B 1236   0.730   1.057   6.567
   67POPC   C4B 1237   0.753   1.301   6.179
   68POPC   NC3 1238   8.718   6.622   7.896
   68POPC   PO4 1239   8.432   6.075   7.668
   68POPC   GL1 1240   8.811   6.226   7.515
   68POPC   GL2 1241   8.952   6.595   7.459
   68POPC   C1A 1242   8.853   6.045   7.125
   68POPC   D2A 1243   8.602   5.994   6.734
   68POPC   C3A 1244   8.807   6.021   6.362
   68POPC   C4A 1245   8.898   6.189   5.968
   68POPC   C1B 1246   8.650   6.529   7.146
   68POPC   C2B 1247   8.603   6.609   6.730
   68POPC   C3B 1248   8.618   6.515   6.315
   68POPC   C4B 1249   8.408   6.829   6.012
   69POPC   NC3 1250   7.706   9.439   8.055
   69POPC   PO4 1251   8.107   8.898   8.030
   69POPC   GL1 1252   7.962   9.146   7.658
   69POPC   GL2 1253   7.949   9.502   7.629
   69POPC   C1A 1254   8.038   9.072   7.211
   69POPC   D2A 1255   8.223   9.199   6.818
   69POPC   C3A 1256   8.053   9.257   6.419
   69POPC   C4A 1257   8.270   9.334   6.043
   69POPC   C1B 1258   8.097   9.592   7.259
   69POPC   C2B 1259   7.889   9.566   6.882
   69POPC   C3B 1260   7.805   9.808   6.544
   69POPC   C4B 1261   7.931   9.705   6.153
   70POPC   NC3 1262   1.282   4.970   8.061
   70POPC   PO4 1263   1.753   4.431   8.129
   70POPC   GL1 1264   1.449   4.606   7.705
   70POPC   GL2 1265   1.140   4.811   7.622
   70POPC   C1A 1266   1.439   4.855   7.250
   70POPC   D2A 1267   1.259   5.152   6.981
   70POPC   C3A 1268   1.193   5.031   6.581
   70POPC   C4A 1269   1.422   4.775   6.294
   70POPC   C1B 1270   0.900   4.864   7.283
   70POPC   C2B 1271   0.800   4.761   6.920
   70POPC   C3B 1272   0.701   4.907   6.548
   70POPC   C4B 1273   0.927   4.894   6.167
   71POPC   NC3 1274  10.446   1.809   8.042
   71POPC   PO4 1275   9.876   2.189   8.310
   71POPC   GL1 1276  10.081   2.151   7.867
   71POPC   GL2 1277  10.069   1.850   7.700
   71POPC   C1A 1278  10.086   2.232   7.381
   71POPC   D2A 1279  10.288   2.246   6.953
   71POPC   C3A 1280  10.213   2.016   6.557
   71POPC   C4A 1281  10.443   1.928   6.174
   71POPC   C1B 1282  10.227   1.746   7.300
   71POPC   C2B 1283  10.446   1.762   6.950
   71POPC   C3B 1284  10.470   1.581   6.570
   71POPC   C4B 1285   0.005   1.415   6.196
   72POPC   NC3 1286   7.309   1.362   8.544
   72POPC   PO4 1287   7.151   0.912   8.108
   72POPC   GL1 1288   7.168   0.987   7.652
   72POPC   GL2 1289   6.946   1.267   7.727
   72POPC   C1A 1290   6.955   0.967   7.258
   72POPC   D2A 1291   6.714   1.065   6.900
   72POPC   C3A 1292   6.920   1.086   6.531
   72POPC   C4A 1293   7.006   0.957   6.125
   72POPC   C1B 1294   7.183   1.449   7.413
   72POPC   C2B 1295   7.161   1.373   7.001
   72POPC   C3B 1296   7.222   1.468   6.591
   72POPC   C4B 1297   7.258   1.379   6.167
   73POPC   NC3 1298  10.484   3.966   7.890
   73POPC   PO4 1299   0.635   3.942   8.000
   73POPC   GL1 1300   0.545   4.031   7.614
   73POPC   GL2 1301   0.332   4.317   7.586
   73POPC   C1A 1302   0.401   3.913   7.214
   73POPC   D2A 1303   0.114   4.105   6.947
   73POPC   C3A 1304   0.021   4.004   6.535
   73POPC   C4A 1305   0.133   4.284   6.229
   73POPC   C1B 1306   0.668   4.364   7.258
   73POPC   C2B 1307   0.805   4.195   6.874
   73POPC   C3B 1308   0.607   4.157   6.490
   73POPC   C4B 1309   0.601   4.487   6.215
   74POPC   NC3 1310   1.697   6.437   8.138
   74POPC   PO4 1311   1.868   6.953   7.978
   74POPC   GL1 1312   1.670   6.719   7.657
   74POPC   GL2 1313   1.874   6.384   7.645
   74POPC   C1A 1314   1.705   6.606   7.207
   74POPC   D2A 1315   1.663   6.749   6.798
   74POPC   C3A 1316   2.011   6.893   6.592
   74POPC   C4A 1317   2.304   6.715   6.301
   74POPC   C1B 1318   2.015   6.193   7.230
   74POPC   C2B 1319   2.077   6.420   6.861
   74POPC   C3B 1320   1.948   6.329   6.481
   74POPC   C4B 1321   1.989   5.936   6.274
   75POPC   NC3 1322  10.045   0.182   7.908
   75POPC   PO4 1323  10.177   0.738   8.347
   75POPC   GL1 1324  10.123   0.654   7.793
   75POPC   GL2 1325  10.419   0.731   7.618
   75POPC   C1A 1326  10.007   0.522   7.332
   75POPC   D2A 1327   9.974   0.272   6.943
   75POPC   C3A 1328   9.781   0.517   6.618
   75POPC   C4A 1329   9.936   0.629   6.221
   75POPC   C1B 1330   0.022   0.561   7.219
   75POPC   C2B 1331   0.036   0.481   6.812
   75POPC   C3B 1332  10.400   0.633   6.435
   75POPC   C4B 1333  10.332   0.261   6.193
   76POPC   NC3 1334   6.449   7.953   8.221
   76POPC   PO4 1335   6.810   7.538   8.007
   76POPC   GL1 1336   6.518   7.810   7.735
   76POPC   GL2 1337   6.174   8.010   7.792
   76POPC   C1A 1338   6.485   8.124   7.418
   76POPC   D2A 1339   6.221   8.157   7.071
   76POPC   C3A 1340   6.354   8.067   6.678
   76POPC   C4A 1341   6.472   8.050   6.253
   76POPC   C1B 1342   6.141   7.745   7.383
   76POPC   C2B 1343   6.328   7.627   6.969
   76POPC   C3B 1344   6.289   7.605   6.499
   76POPC   C4B 1345   5.989   7.888   6.267
   77POPC   NC3 1346   1.876   8.945   8.000
   77POPC   PO4 1347   1.570   8.420   8.280
   77POPC   GL1 1348   1.858   8.492   7.789
   77POPC   GL2 1349   2.221   8.588   7.857
   77POPC   C1A 1350   1.686   8.573   7.285
   77POPC   D2A 1351   1.633   8.824   6.877
   77POPC   C3A 1352   1.719   8.655   6.456
   77POPC   C4A 1353   1.799   8.738   6.007
   77POPC   C1B 1354   2.154   8.734   7.403
   77POPC   C2B 1355   2.094   8.610   6.965
   77POPC   C3B 1356   2.241   8.687   6.575
   77POPC   C4B 1357   2.215   8.525   6.207
   78POPC   NC3 1358   2.069  10.068   8.334
   78POPC   PO4 1359   1.685   0.073   8.003
   78POPC   GL1 1360   1.793  10.229   7.665
   78POPC   GL2 1361   2.093  10.043   7.437
   78POPC   C1A 1362   1.645  10.054   7.271
   78POPC   D2A 1363   1.845  10.114   6.837
   78POPC   C3A 1364   1.604   9.972   6.464
   78POPC   C4A 1365   1.647   9.785   6.090
   78POPC   C1B 1366   2.103  10.407   7.217
   78POPC   C2B 1367   2.261   0.055   6.819
   78POPC   C3B 1368   2.150  10.357   6.436
   78POPC   C4B 1369   2.087   9.944   6.342
   79POPC   NC3 1370   0.518   7.169   8.351
   79POPC   PO4 1371   0.047   7.430   7.907
   79POPC   GL1 1372   0.279   7.122   7.668
   79POPC   GL2 1373   0.638   7.040   7.745
   79POPC   C1A 1374   0.366   7.215   7.249
   79POPC   D2A 1375   0.117   7.207   6.913
   79POPC   C3A 1376   0.328   7.188   6.521
   79POPC   C4A 1377   0.664   7.439   6.312
   79POPC   C1B 1378   0.623   6.780   7.335
   79POPC   C2B 1379   0.400   6.746   6.916
   79POPC   C3B 1380   0.294   6.669   6.486
   79POPC   C4B 1381   0.448   6.871   6.140
   80POPC   NC3 1382   1.866   0.856   8.052
   80POPC   PO4 1383   2.134   1.470   7.931
   80POPC   GL1 1384   2.050   1.123   7.638
   80POPC   GL2 1385   1.666   1.026   7.598
   80POPC   C1A 1386   2.165   1.296   7.251
   80POPC   D2A 1387   2.191   1.634   6.983
   80POPC   C3A 1388   2.359   1.488   6.623
   80POPC   C4A 1389   2.168   1.184   6.361
   80POPC   C1B 1390   1.809   0.950   7.167
   80POPC   C2B 1391   1.884   1.223   6.809
   80POPC   C3B 1392   1.674   1.112   6.426
   80POPC   C4B 1393   1.566   0.732   6.232
   81POPC   NC3 1394   2.923  10.074   7.824
   81POPC   PO4 1395   2.237  10.036   7.909
   81POPC   GL1 1396   2.518  10.267   7.576
   81POPC   GL2 1397   2.862  10.436   7.517
   81POPC   C1A 1398   2.565  10.218   7.135
   81POPC   D2A 1399   2.376  10.024   6.791
   81POPC   C3A 1400   2.599  10.042   6.417
   81POPC   C4A 1401   2.636  10.413   6.259
   81POPC   C1B 1402   3.070  10.231   7.159
   81POPC   C2B 1403   2.956  10.397   6.738
   81POPC   C3B 1404   3.102  10.214   6.364
   81POPC   C4B 1405   3.038   9.768   6.310
   82POPC   NC3 1406   7.920  10.192   8.227
   82POPC   PO4 1407   8.191   9.635   8.061
   82POPC   GL1 1408   8.120   9.984   7.761
   82POPC   GL2 1409   7.818  10.182   7.726
   82POPC   C1A 1410   8.164  10.149   7.331
   82POPC   D2A 1411   8.221   9.968   6.921
   82POPC   C3A 1412   8.211  10.233   6.575
   82POPC   C4A 1413   7.921  10.240   6.233
   82POPC   C1B 1414   7.657  10.278   7.296
   82POPC   C2B 1415   7.760  10.236   6.848
   82POPC   C3B 1416   7.502  10.346   6.493
   82POPC   C4B 1417   7.518  10.431   6.001
   83POPC   NC3 1418   1.419   7.081   8.035
   83POPC   PO4 1419   0.839   7.461   8.167
   83POPC   GL1 1420   1.074   7.438   7.746
   83POPC   GL2 1421   1.149   7.089   7.608
   83POPC   C1A 1422   1.293   7.518   7.338
   83POPC   D2A 1423   1.235   7.314   6.928
   83POPC   C3A 1424   1.109   7.462   6.559
   83POPC   C4A 1425   1.240   7.417   6.150
   83POPC   C1B 1426   0.873   7.235   7.297
   83POPC   C2B 1427   0.743   7.124   6.895
   83POPC   C3B 1428   0.762   6.877   6.554
   83POPC   C4B 1429   0.922   7.040   6.205
   84POPC   NC3 1430   6.983   9.921   8.152
   84POPC   PO4 1431   7.143   0.059   7.974
   84POPC   GL1 1432   7.183  10.397   7.597
   84POPC   GL2 1433   7.317  10.113   7.708
   84POPC   C1A 1434   7.167  10.168   7.215
   84POPC   D2A 1435   6.934   9.938   6.922
   84POPC   C3A 1436   6.854  10.219   6.590
   84POPC   C4A 1437   7.074  10.310   6.223
   84POPC   C1B 1438   7.559   9.818   7.436
   84POPC   C2B 1439   7.471   9.834   6.983
   84POPC   C3B 1440   7.285   9.803   6.561
   84POPC   C4B 1441   7.456   9.946   6.173
   85POPC   NC3 1442   4.374   0.499   8.276
   85POPC   PO4 1443   3.807   0.653   8.043
   85POPC   GL1 1444   3.968   0.367   7.725
   85POPC   GL2 1445   4.282   0.223   7.835
   85POPC   C1A 1446   3.871   0.241   7.310
   85POPC   D2A 1447   3.826   0.473   6.951
   85POPC   C3A 1448   3.915   0.291   6.580
   85POPC   C4A 1449   3.954   0.480   6.203
   85POPC   C1B 1450   4.436   0.236   7.407
   85POPC   C2B 1451   4.290   0.287   6.985
   85POPC   C3B 1452   4.440   0.250   6.571
   85POPC   C4B 1453   4.469   0.482   6.194
   86POPC   NC3 1454   1.642   2.384   8.365
   86POPC   PO4 1455   1.519   2.987   7.948
   86POPC   GL1 1456   1.647   2.826   7.557
   86POPC   GL2 1457   2.004   2.804   7.601
   86POPC   C1A 1458   1.639   2.558   7.197
   86POPC   D2A 1459   1.664   2.364   6.785
   86POPC   C3A 1460   1.507   2.520   6.462
   86POPC   C4A 1461   1.784   2.671   6.184
   86POPC   C1B 1462   2.147   2.493   7.344
   86POPC   C2B 1463   2.094   2.583   6.952
   86POPC   C3B 1464   2.135   2.566   6.546
   86POPC   C4B 1465   2.327   2.622   6.170
   87POPC   NC3 1466   8.431   5.060   8.046
   87POPC   PO4 1467   8.853   4.581   8.333
   87POPC   GL1 1468   9.026   4.859   7.908
   87POPC   GL2 1469   8.742   4.825   7.710
   87POPC   C1A 1470   9.092   4.994   7.399
   87POPC   D2A 1471   8.841   5.120   6.971
   87POPC   C3A 1472   8.841   4.978   6.557
   87POPC   C4A 1473   8.609   5.134   6.213
   87POPC   C1B 1474   8.629   4.793   7.288
   87POPC   C2B 1475   8.744   4.528   6.941
   87POPC   C3B 1476   8.629   4.470   6.524
   87POPC   C4B 1477   8.455   4.654   6.145
   88POPC   NC3 1478  10.139   9.818   8.166
   88POPC   PO4 1479   9.756  10.373   8.127
   88POPC   GL1 1480   9.940  10.225   7.709
   88POPC   GL2 1481  10.302  10.184   7.760
   88POPC   C1A 1482   9.804  10.401   7.287
   88POPC   D2A 1483   9.575  10.392   6.887
   88POPC   C3A 1484   9.844  10.332   6.546
   88POPC   C4A 1485  10.027  10.363   6.145
   88POPC   C1B 1486  10.306  10.370   7.346
   88POPC   C2B 1487  10.187  10.268   6.934
   88POPC   C3B 1488   0.009  10.161   6.631
   88POPC   C4B 1489  10.450  10.114   6.218
   89POPC   NC3 1490   0.761   1.911   8.354
   89POPC   PO4 1491   1.378   2.011   8.299
   89POPC   GL1 1492   1.368   2.076   7.861
   89POPC   GL2 1493   1.075   1.857   7.777
   89POPC   C1A 1494   1.451   1.953   7.440
   89POPC   D2A 1495   1.370   2.079   7.060
   89POPC   C3A 1496   1.281   1.944   6.651
   89POPC   C4A 1497   1.420   2.013   6.241
   89POPC   C1B 1498   0.961   2.063   7.379
   89POPC   C2B 1499   0.867   1.916   7.000
   89POPC   C3B 1500   0.765   1.944   6.612
   89POPC   C4B 1501   0.940   1.771   6.287
   90POPC   NC3 1502   8.649   5.098   8.528
   90POPC   PO4 1503   8.297   5.506   8.029
   90POPC   GL1 1504   8.175   5.233   7.628
   90POPC   GL2 1505   8.223   4.888   7.602
   90POPC   C1A 1506   8.324   5.174   7.169
   90POPC   D2A 1507   8.392   4.891   6.783
   90POPC   C3A 1508   8.153   5.011   6.396
   90POPC   C4A 1509   8.124   5.117   5.943
   90POPC   C1B 1510   8.138   4.677   7.183
   90POPC   C2B 1511   7.879   4.787   6.792
   90POPC   C3B 1512   7.656   4.856   6.364
   90POPC   C4B 1513   7.456   4.849   5.933
   91POPC   NC3 1514   5.580   2.187   7.949
   91POPC   PO4 1515   6.097   1.693   7.956
   91POPC   GL1 1516   5.728   1.826   7.646
   91POPC   GL2 1517   5.862   2.187   7.546
   91POPC   C1A 1518   5.549   2.017   7.214
   91POPC   D2A 1519   5.764   2.183   6.856
   91POPC   C3A 1520   5.547   2.220   6.452
   91POPC   C4A 1521   5.517   1.902   6.131
   91POPC   C1B 1522   6.047   1.883   7.272
   91POPC   C2B 1523   6.079   1.780   6.852
   91POPC   C3B 1524   5.934   1.893   6.458
   91POPC   C4B 1525   5.984   1.982   5.999
   92POPC   NC3 1526   1.702   8.040   8.030
   92POPC   PO4 1527   2.278   7.726   8.145
   92POPC   GL1 1528   2.125   7.741   7.666
   92POPC   GL2 1529   1.766   7.794   7.586
   92POPC   C1A 1530   2.096   7.724   7.172
   92POPC   D2A 1531   2.354   7.985   6.883
   92POPC   C3A 1532   2.329   8.010   6.407
   92POPC   C4A 1533   2.046   7.721   6.174
   92POPC   C1B 1534   1.981   8.165   7.396
   92POPC   C2B 1535   1.845   8.163   6.979
   92POPC   C3B 1536   1.875   7.933   6.617
   92POPC   C4B 1537   1.855   8.190   6.245
   93POPC   NC3 1538   9.588   3.675   8.167
   93POPC   PO4 1539   8.884   3.692   8.210
   93POPC   GL1 1540   9.090   3.559   7.814
   93POPC   GL2 1541   9.411   3.405   7.764
   93POPC   C1A 1542   9.222   3.690   7.379
   93POPC   D2A 1543   9.203   3.865   6.958
   93POPC   C3A 1544   9.140   3.687   6.594
   93POPC   C4A 1545   9.236   3.635   6.167
   93POPC   C1B 1546   9.252   3.184   7.381
   93POPC   C2B 1547   9.339   3.363   6.956
   93POPC   C3B 1548   9.546   3.376   6.549
   93POPC   C4B 1549   9.477   3.120   6.213
   94POPC   NC3 1550   0.533   4.416   8.057
   94POPC   PO4 1551   0.285   5.003   8.301
   94POPC   GL1 1552   0.286   4.825   7.799
   94POPC   GL2 1553   0.628   4.772   7.702
   94POPC   C1A 1554   0.337   4.731   7.290
   94POPC   D2A 1555   0.351   4.540   6.846
   94POPC   C3A 1556   0.238   4.755   6.452
   94POPC   C4A 1557   0.205   4.735   5.989
   94POPC   C1B 1558   0.503   5.173   7.469
   94POPC   C2B 1559   0.381   5.169   7.013
   94POPC   C3B 1560   0.337   5.277   6.580
   94POPC   C4B 1561   0.455   5.141   6.146
   95POPC   NC3 1562   1.207   8.629   8.059
   95POPC   PO4 1563   1.561   9.209   7.807
   95POPC   GL1 1564   1.368   8.828   7.616
   95POPC   GL2 1565   0.996   8.650   7.594
   95POPC   C1A 1566   1.244   8.862   7.208
   95POPC   D2A 1567   1.033   8.837   6.855
   95POPC   C3A 1568   1.273   9.006   6.542
   95POPC   C4A 1569   1.312   8.831   6.157
   95POPC   C1B 1570   1.047   8.384   7.203
   95POPC   C2B 1571   1.324   8.371   6.830
   95POPC   C3B 1572   1.271   8.371   6.369
   95POPC   C4B 1573   1.053   8.434   5.959
   96POPC   NC3 1574   6.781   0.750   7.899
   96POPC   PO4 1575   6.125   0.838   8.085
   96POPC   GL1 1576   6.346   0.990   7.741
   96POPC   GL2 1577   6.426   1.326   7.782
   96POPC   C1A 1578   6.427   0.928   7.311
   96POPC   D2A 1579   6.137   0.843   6.981
   96POPC   C3A 1580   6.312   0.918   6.591
   96POPC   C4A 1581   6.106   1.030   6.228
   96POPC   C1B 1582   6.186   1.383   7.379
   96POPC   C2B 1583   6.277   1.332   6.949
   96POPC   C3B 1584   6.282   1.433   6.516
   96POPC   C4B 1585   6.555   1.250   6.215
   97POPC   NC3 1586   3.282   1.750   8.207
   97POPC   PO4 1587   3.831   1.386   8.219
   97POPC   GL1 1588   3.728   1.597   7.793
   97POPC   GL2 1589   3.412   1.831   7.706
   97POPC   C1A 1590   3.628   1.559   7.335
   97POPC   D2A 1591   3.373   1.583   6.960
   97POPC   C3A 1592   3.474   1.684   6.517
   97POPC   C4A 1593   3.269   1.855   6.146
   97POPC   C1B 1594   3.488   2.056   7.303
   97POPC   C2B 1595   3.611   2.059   6.878
   97POPC   C3B 1596   3.509   2.208   6.475
   97POPC   C4B 1597   3.728   2.165   6.109
   98POPC   NC3 1598   6.317   0.536   8.390
   98POPC   PO4 1599   5.751   0.197   8.241
   98POPC   GL1 1600   6.091   0.121   7.840
   98POPC   GL2 1601   6.268   0.449   7.699
   98POPC   C1A 1602   6.173   0.052   7.346
   98POPC   D2A 1603   6.076   0.343   6.950
   98POPC   C3A 1604   6.253   0.401   6.516
   98POPC   C4A 1605   6.176   0.191   6.113
   98POPC   C1B 1606   6.530   0.412   7.310
   98POPC   C2B 1607   6.584   0.556   6.905
   98POPC   C3B 1608   6.744   0.614   6.511
   98POPC   C4B 1609   6.560   0.738   6.162
   99POPC   NC3 1610   1.291   2.599   7.874
   99POPC   PO4 1611   0.755   2.219   7.977
   99POPC   GL1 1612   0.631   2.431   7.580
   99POPC   GL2 1613   0.826   2.748   7.568
   99POPC   C1A 1614   0.727   2.477   7.115
   99POPC   D2A 1615   1.070   2.395   6.810
   99POPC   C3A 1616   1.027   2.331   6.366
   99POPC   C4A 1617   0.892   2.573   6.000
   99POPC   C1B 1618   1.169   2.791   7.271
   99POPC   C2B 1619   1.322   2.852   6.869
   99POPC   C3B 1620   1.077   2.827   6.503
   99POPC   C4B 1621   1.287   2.853   6.138
  100POPC   NC3 1622   1.959   4.002   8.100
  100POPC   PO4 1623   2.314   4.352   7.874
  100POPC   GL1 1624   1.920   4.408   7.648
  100POPC   GL2 1625   1.664   4.136   7.684
  100POPC   C1A 1626   1.684   4.414   7.250
  100POPC   D2A 1627   1.791   4.636   6.886
  100POPC   C3A 1628   1.748   4.417   6.507
  100POPC   C4A 1629   2.097   4.358   6.206
  100POPC   C1B 1630   1.930   3.984   7.350
  100POPC   C2B 1631   1.887   4.030   6.915
  100POPC   C3B 1632   2.057   3.945   6.519
  100POPC   C4B 1633   1.737   3.998   6.226
  101POPC   NC3 1634   8.166   2.650   8.113
  101POPC   PO4 1635   8.171   3.205   7.814
  101POPC   GL1 1636   7.958   2.822   7.651
  101POPC   GL2 1637   8.076   2.441   7.664
  101POPC   C1A 1638   7.817   2.982   7.252
  101POPC   D2A 1639   8.023   3.147   6.892
  101POPC   C3A 1640   7.857   3.045   6.475
  101POPC   C4A 1641   8.062   3.185   6.105
  101POPC   C1B 1642   7.991   2.514   7.233
  101POPC   C2B 1643   8.151   2.653   6.871
  101POPC   C3B 1644   8.029   2.570   6.505
  101POPC   C4B 1645   8.110   2.682   6.127
  102POPC   NC3 1646   1.255   0.349   8.022
  102POPC   PO4 1647   0.594   0.563   7.987
  102POPC   GL1 1648   0.826   0.285   7.683
  102POPC   GL2 1649   1.149   0.371   7.533
  102POPC   C1A 1650   0.851  10.499   7.321
  102POPC   D2A 1651   1.057   0.137   6.932
  102POPC   C3A 1652   0.909  10.466   6.531
  102POPC   C4A 1653   0.732   0.189   6.199
  102POPC   C1B 1654   1.423   0.620   7.286
  102POPC   C2B 1655   1.531   0.587   6.852
  102POPC   C3B 1656   1.338   0.380   6.504
  102POPC   C4B 1657   1.209   0.359   6.080
  103POPC   NC3 1658  10.381   4.938   8.100
  103POPC   PO4 1659   9.724   4.796   8.207
  103POPC   GL1 1660   9.974   4.769   7.822
  103POPC   GL2 1661  10.055   5.083   7.717
  103POPC   C1A 1662   9.960   4.715   7.372
  103POPC   D2A 1663   9.938   4.972   6.984
  103POPC   C3A 1664   9.839   4.747   6.589
  103POPC   C4A 1665   9.939   4.998   6.228
  103POPC   C1B 1666  10.406   4.937   7.442
  103POPC   C2B 1667  10.450   4.876   6.991
  103POPC   C3B 1668  10.303   4.974   6.603
  103POPC   C4B 1669  10.463   5.121   6.232
  104POPC   NC3 1670  10.198   7.086   7.950
  104POPC   PO4 1671   0.322   6.814   8.116
  104POPC   GL1 1672   0.003   6.693   7.738
  104POPC   GL2 1673  10.148   6.831   7.529
  104POPC   C1A 1674   0.080   6.807   7.301
  104POPC   D2A 1675  10.240   6.867   7.015
  104POPC   C3A 1676  10.356   6.894   6.618
  104POPC   C4A 1677  10.096   6.812   6.356
  104POPC   C1B 1678  10.257   7.267   7.323
  104POPC   C2B 1679  10.156   7.442   6.925
  104POPC   C3B 1680  10.338   7.420   6.527
  104POPC   C4B 1681  10.099   7.360   6.188
  105POPC   NC3 1682   8.198   5.954   8.038
  105POPC   PO4 1683   8.319   6.585   8.148
  105POPC   GL1 1684   8.239   6.556   7.685
  105POPC   GL2 1685   7.947   6.324   7.684
  105POPC   C1A 1686   8.158   6.476   7.222
  105POPC   D2A 1687   8.183   6.288   6.826
  105POPC   C3A 1688   8.140   6.501   6.459
  105POPC   C4A 1689   8.271   6.167   6.199
  105POPC   C1B 1690   7.685   6.567   7.356
  105POPC   C2B 1691   7.748   6.579   6.874
  105POPC   C3B 1692   7.685   6.285   6.516
  105POPC   C4B 1693   7.780   6.117   6.118
  106POPC   NC3 1694   1.788   1.850   8.105
  106POPC   PO4 1695   1.755   2.508   7.932
  106POPC   GL1 1696   1.827   2.220   7.611
  106POPC   GL2 1697   1.938   1.847   7.611
  106POPC   C1A 1698   1.883   2.089   7.160
  106POPC   D2A 1699   2.099   2.084   6.764
  106POPC   C3A 1700   1.901   2.144   6.364
  106POPC   C4A 1701   1.847   2.230   5.933
  106POPC   C1B 1702   1.754   1.594   7.254
  106POPC   C2B 1703   1.688   1.706   6.832
  106POPC   C3B 1704   1.893   1.627   6.461
  106POPC   C4B 1705   2.229   1.750   6.195
  107POPC   NC3 1706   9.580   6.235   8.163
  107POPC   PO4 1707   8.958   6.256   8.031
  107POPC   GL1 1708   9.266   6.276   7.732
  107POPC   GL2 1709   9.405   6.589   7.752
  107POPC   C1A 1710   9.302   6.304   7.274
  107POPC   D2A 1711   9.069   6.415   6.875
  107POPC   C3A 1712   9.243   6.330   6.484
  107POPC   C4A 1713   9.376   6.485   6.099
  107POPC   C1B 1714   9.614   6.694   7.360
  107POPC   C2B 1715   9.543   6.582   6.921
  107POPC   C3B 1716   9.491   6.787   6.534
  107POPC   C4B 1717   9.655   6.897   6.162
  108POPC   NC3 1718   2.207   2.602   8.035
  108POPC   PO4 1719   2.871   2.394   8.042
  108POPC   GL1 1720   2.897   2.582   7.629
  108POPC   GL2 1721   2.544   2.653   7.619
  108POPC   C1A 1722   2.820   2.423   7.228
  108POPC   D2A 1723   2.555   2.408   6.917
  108POPC   C3A 1724   2.629   2.688   6.647
  108POPC   C4A 1725   2.823   2.488   6.335
  108POPC   C1B 1726   2.480   2.838   7.197
  108POPC   C2B 1727   2.328   3.080   6.867
  108POPC   C3B 1728   2.340   3.060   6.418
  108POPC   C4B 1729   2.723   2.967   6.195
  109POPC   NC3 1730   6.612  10.397   7.953
  109POPC   PO4 1731   6.619   9.707   7.964
  109POPC   GL1 1732   6.538   9.857   7.574
  109POPC   GL2 1733   6.836   9.995   7.553
  109POPC   C1A 1734   6.305  10.008   7.218
  109POPC   D2A 1735   6.430  10.015   6.797
  109POPC   C3A 1736   6.241   9.803   6.431
  109POPC   C4A 1737   6.269   9.757   5.931
  109POPC   C1B 1738   6.685  10.362   7.282
  109POPC   C2B 1739   6.490   0.033   6.890
  109POPC   C3B 1740   6.301  10.385   6.500
  109POPC   C4B 1741   6.542  10.142   6.188
  110POPC   NC3 1742   2.094   5.541   7.938
  110POPC   PO4 1743   1.701   5.978   8.205
  110POPC   GL1 1744   1.627   5.781   7.772
  110POPC   GL2 1745   1.932   5.867   7.598
  110POPC   C1A 1746   1.595   5.660   7.304
  110POPC   D2A 1747   1.777   5.843   6.900
  110POPC   C3A 1748   1.583   5.700   6.518
  110POPC   C4A 1749   1.630   5.582   6.089
  110POPC   C1B 1750   2.097   5.612   7.247
  110POPC   C2B 1751   2.177   5.456   6.850
  110POPC   C3B 1752   1.993   5.429   6.463
  110POPC   C4B 1753   2.130   5.471   6.075
  111POPC   NC3 1754   0.772   3.448   7.972
  111POPC   PO4 1755   0.197   3.046   8.055
  111POPC   GL1 1756   0.444   3.157   7.699
  111POPC   GL2 1757   0.385   3.533   7.648
  111POPC   C1A 1758   0.712   3.258   7.339
  111POPC   D2A 1759   0.655   3.533   6.973
  111POPC   C3A 1760   0.726   3.320   6.601
  111POPC   C4A 1761   0.593   3.378   6.158
  111POPC   C1B 1762   0.218   3.411   7.251
  111POPC   C2B 1763   0.057   3.595   6.875
  111POPC   C3B 1764   0.292   3.576   6.517
  111POPC   C4B 1765   0.364   3.843   6.153
  112POPC   NC3 1766   6.449   2.671   8.039
  112POPC   PO4 1767   6.926   3.044   7.953
  112POPC   GL1 1768   6.670   2.891   7.602
  112POPC   GL2 1769   6.691   2.542   7.621
  112POPC   C1A 1770   6.392   3.025   7.235
  112POPC   D2A 1771   6.423   3.173   6.789
  112POPC   C3A 1772   6.738   3.027   6.469
  112POPC   C4A 1773   6.712   3.030   6.009
  112POPC   C1B 1774   6.519   2.532   7.220
  112POPC   C2B 1775   6.597   2.685   6.819
  112POPC   C3B 1776   6.281   2.747   6.502
  112POPC   C4B 1777   6.029   2.393   6.310
  113POPC   NC3 1778  10.066   8.948   8.048
  113POPC   PO4 1779  10.140   8.267   7.979
  113POPC   GL1 1780   9.993   8.466   7.605
  113POPC   GL2 1781   9.922   8.826   7.577
  113POPC   C1A 1782  10.085   8.328   7.189
  113POPC   D2A 1783   9.799   8.444   6.881
  113POPC   C3A 1784   9.909   8.376   6.508
  113POPC   C4A 1785   9.950   8.764   6.343
  113POPC   C1B 1786  10.186   8.834   7.214
  113POPC   C2B 1787  10.246   8.722   6.781
  113POPC   C3B 1788  10.421   8.940   6.432
  113POPC   C4B 1789  10.497   9.254   6.174
  114POPC   NC3 1790  10.213   3.118   8.007
  114POPC   PO4 1791  10.054   3.809   7.988
  114POPC   GL1 1792   9.998   3.513   7.694
  114POPC   GL2 1793  10.360   3.445   7.633
  114POPC   C1A 1794   9.714   3.399   7.337
  114POPC   D2A 1795   9.737   3.054   7.024
  114POPC   C3A 1796   9.904   3.010   6.597
  114POPC   C4A 1797   9.949   3.278   6.218
  114POPC   C1B 1798  10.196   3.434   7.212
  114POPC   C2B 1799  10.008   3.453   6.831
  114POPC   C3B 1800  10.097   3.685   6.469
  114POPC   C4B 1801  10.413   3.628   6.178
  115POPC   NC3 1802   7.289   0.465   8.169
  115POPC   PO4 1803   6.611   0.364   8.079
  115POPC   GL1 1804   6.883   0.331   7.659
  115POPC   GL2 1805   7.244   0.481   7.664
  115POPC   C1A 1806   7.044   0.245   7.253
  115POPC   D2A 1807   7.103   0.444   6.884
  115POPC   C3A 1808   7.030   0.199   6.547
  115POPC   C4A 1809   6.668   0.142   6.288
  115POPC   C1B 1810   7.384   0.674   7.269
  115POPC   C2B 1811   7.311   0.901   6.855
  115POPC   C3B 1812   7.267   0.690   6.464
  115POPC   C4B 1813   7.466   0.330   6.311
  116POPC   NC3 1814   9.209  10.208   8.185
  116POPC   PO4 1815   9.262   0.400   8.128
  116POPC   GL1 1816   9.389   0.030   7.790
  116POPC   GL2 1817   9.441  10.146   7.757
  116POPC   C1A 1818   9.273  10.381   7.349
  116POPC   D2A 1819   9.191  10.043   7.046
  116POPC   C3A 1820   9.140  10.228   6.629
  116POPC   C4A 1821   9.379  10.295   6.301
  116POPC   C1B 1822   9.618   9.950   7.400
  116POPC   C2B 1823   9.748   9.908   6.972
  116POPC   C3B 1824   9.560   9.895   6.561
  116POPC   C4B 1825   9.753   9.944   6.160
  117POPC   NC3 1826   7.500   1.195   7.958
  117POPC   PO4 1827   8.180   1.449   7.966
  117POPC   GL1 1828   8.045   1.263   7.558
  117POPC   GL2 1829   7.778   1.004   7.571
  117POPC   C1A 1830   8.264   0.982   7.268
  117POPC   D2A 1831   8.367   0.934   6.835
  117POPC   C3A 1832   8.076   1.165   6.583
  117POPC   C4A 1833   7.998   1.525   6.330
  117POPC   C1B 1834   7.560   1.153   7.250
  117POPC   C2B 1835   7.636   1.304   6.834
  117POPC   C3B 1836   7.579   1.114   6.444
  117POPC   C4B 1837   7.712   1.163   6.034
  118POPC   NC3 1838   9.365   9.209   7.993
  118POPC   PO4 1839   9.044   9.794   8.033
  118POPC   GL1 1840   9.296   9.643   7.674
  118POPC   GL2 1841   9.650   9.494   7.644
  118POPC   C1A 1842   9.340   9.559   7.232
  118POPC   D2A 1843   9.458   9.475   6.829
  118POPC   C3A 1844   9.110   9.470   6.511
  118POPC   C4A 1845   9.116   9.849   6.244
  118POPC   C1B 1846   9.714   9.190   7.283
  118POPC   C2B 1847   9.779   8.996   6.855
  118POPC   C3B 1848   9.589   9.140   6.472
  118POPC   C4B 1849   9.520   9.493   6.189
  119POPC   NC3 1850   0.425   5.481   8.127
  119POPC   PO4 1851   0.751   6.029   7.897
  119POPC   GL1 1852   0.645   5.705   7.661
  119POPC   GL2 1853   0.294   5.708   7.683
  119POPC   C1A 1854   0.617   5.770   7.247
  119POPC   D2A 1855   0.814   5.913   6.904
  119POPC   C3A 1856   0.603   5.776   6.550
  119POPC   C4A 1857   0.630   5.851   6.143
  119POPC   C1B 1858   0.159   5.533   7.299
  119POPC   C2B 1859   0.254   5.694   6.907
  119POPC   C3B 1860   0.052   5.739   6.556
  119POPC   C4B 1861   0.168   5.582   6.209
  120POPC   NC3 1862   4.258   1.551   8.298
  120POPC   PO4 1863   4.413   2.194   8.128
  120POPC   GL1 1864   4.321   1.944   7.727
  120POPC   GL2 1865   4.367   1.565   7.776
  120POPC   C1A 1866   4.023   2.033   7.361
  120POPC   D2A 1867   4.106   2.245   6.920
  120POPC   C3A 1868   4.065   2.078   6.494
  120POPC   C4A 1869   4.225   2.028   6.049
  120POPC   C1B 1870   4.138   1.532   7.378
  120POPC   C2B 1871   3.991   1.722   6.971
  120POPC   C3B 1872   3.989   1.579   6.565
  120POPC   C4B 1873   3.879   1.678   6.161
  121POPC   NC3 1874   2.151   9.524   8.140
  121POPC   PO4 1875   1.501   9.728   8.125
  121POPC   GL1 1876   1.734   9.706   7.678
  121POPC   GL2 1877   2.087   9.592   7.663
  121POPC   C1A 1878   1.892   9.612   7.205
  121POPC   D2A 1879   2.077   9.626   6.785
  121POPC   C3A 1880   1.894   9.480   6.423
  121POPC   C4A 1881   1.635   9.219   6.162
  121POPC   C1B 1882   2.183   9.248   7.414
  121POPC   C2B 1883   2.091   9.132   6.981
  121POPC   C3B 1884   2.314   9.186   6.584
  121POPC   C4B 1885   2.138   9.113   6.174
  122POPC   NC3 1886   8.675   1.543   8.020
  122POPC   PO4 1887   8.431   2.239   8.164
  122POPC   GL1 1888   8.522   1.992   7.795
  122POPC   GL2 1889   8.909   1.986   7.787
  122POPC   C1A 1890   8.388   1.760   7.389
  122POPC   D2A 1891   8.346   1.473   7.011
  122POPC   C3A 1892   8.371   1.742   6.650
  122POPC   C4A 1893   8.394   1.863   6.220
  122POPC   C1B 1894   8.756   2.124   7.357
  122POPC   C2B 1895   8.730   1.961   6.934
  122POPC   C3B 1896   8.791   2.094   6.475
  122POPC   C4B 1897   8.766   2.300   6.038
  123POPC   NC3 1898   8.603   9.854   7.935
  123POPC   PO4 1899   8.765  10.376   8.258
  123POPC   GL1 1900   8.881  10.399   7.800
  123POPC   GL2 1901   8.950  10.074   7.611
  123POPC   C1A 1902   8.745  10.493   7.361
  123POPC   D2A 1903   8.454  10.483   7.011
  123POPC   C3A 1904   8.662   0.041   6.637
  123POPC   C4A 1905   8.895   0.051   6.264
  123POPC   C1B 1906   8.674   9.991   7.247
  123POPC   C2B 1907   8.707  10.060   6.809
  123POPC   C3B 1908   8.670  10.102   6.356
  123POPC   C4B 1909   8.332  10.012   6.080
  124POPC   NC3 1910   1.912   3.211   7.909
  124POPC   PO4 1911   1.568   3.733   8.121
  124POPC   GL1 1912   1.790   3.637   7.700
  124POPC   GL2 1913   1.650   3.327   7.503
  124POPC   C1A 1914   2.075   3.504   7.329
  124POPC   D2A 1915   2.239   3.614   6.943
  124POPC   C3A 1916   2.041   3.421   6.613
  124POPC   C4A 1917   1.953   3.545   6.206
  124POPC   C1B 1918   1.871   3.061   7.160
  124POPC   C2B 1919   1.811   2.944   6.723
  124POPC   C3B 1920   1.660   3.142   6.355
  124POPC   C4B 1921   1.874   3.118   5.964
  125POPC   NC3 1922   4.856   2.055   8.012
  125POPC   PO4 1923   5.283   2.413   7.685
  125POPC   GL1 1924   5.191   1.999   7.598
  125POPC   GL2 1925   4.821   2.020   7.502
  125POPC   C1A 1926   5.208   1.676   7.332
  125POPC   D2A 1927   5.000   1.959   7.022
  125POPC   C3A 1928   5.135   1.937   6.609
  125POPC   C4A 1929   5.042   1.855   6.201
  125POPC   C1B 1930   4.491   1.984   7.174
  125POPC   C2B 1931   4.450   1.820   6.755
  125POPC   C3B 1932   4.589   1.976   6.382
  125POPC   C4B 1933   4.843   2.333   6.263
  126POPC   NC3 1934   2.794   9.310   8.154
  126POPC   PO4 1935   2.470   9.812   8.358
  126POPC   GL1 1936   2.585   9.680   7.866
  126POPC   GL2 1937   2.831   9.439   7.686
  126POPC   C1A 1938   2.515   9.710   7.389
  126POPC   D2A 1939   2.502   9.447   7.024
  126POPC   C3A 1940   2.650   9.580   6.637
  126POPC   C4A 1941   2.405   9.576   6.258
  126POPC   C1B 1942   2.993   9.440   7.299
  126POPC   C2B 1943   2.949   9.204   6.940
  126POPC   C3B 1944   3.069   9.283   6.546
  126POPC   C4B 1945   2.828   9.311   6.208
  127POPC   NC3 1946   7.375   2.048   8.071
  127POPC   PO4 1947   6.798   2.349   8.092
  127POPC   GL1 1948   7.057   2.195   7.712
  127POPC   GL2 1949   7.045   1.826   7.729
  127POPC   C1A 1950   7.423   2.099   7.386
  127POPC   D2A 1951   7.675   2.173   6.969
  127POPC   C3A 1952   7.515   2.289   6.578
  127POPC   C4A 1953   7.339   2.222   6.176
  127POPC   C1B 1954   6.965   1.892   7.283
  127POPC   C2B 1955   7.230   1.891   6.923
  127POPC   C3B 1956   7.085   1.935   6.503
  127POPC   C4B 1957   6.844   1.652   6.271
  128POPC   NC3 1958   3.530   0.200   7.940
  128POPC   PO4 1959   3.165   0.741   7.979
  128POPC   GL1 1960   3.106   0.370   7.648
  128POPC   GL2 1961   3.382   0.135   7.479
  128POPC   C1A 1962   3.029   0.230   7.166
  128POPC   D2A 1963   3.389   0.196   6.851
  128POPC   C3A 1964   3.226   0.285   6.424
  128POPC   C4A 1965   3.014   0.186   6.033
  128POPC   C1B 1966   3.447   0.561   7.285
  128POPC   C2B 1967   3.492   0.847   6.927
  128POPC   C3B 1968   3.555   0.674   6.558
  128POPC   C4B 1969   3.421   0.734   6.197
  129POPC   NC3 1970   8.059   0.983   8.001
  129POPC   PO4 1971   8.692   0.795   8.017
  129POPC   GL1 1972   8.642   1.108   7.684
  129POPC   GL2 1973   8.918   0.949   7.542
  129POPC   C1A 1974   8.745   1.418   7.336
  129POPC   D2A 1975   8.863   1.463   6.873
  129POPC   C3A 1976   8.566   1.307   6.546
  129POPC   C4A 1977   8.490   0.915   6.324
  129POPC   C1B 1978   8.805   0.964   7.117
  129POPC   C2B 1979   8.893   0.971   6.690
  129POPC   C3B 1980   8.966   1.128   6.272
  129POPC   C4B 1981   9.183   1.003   5.935
  130POPC   NC3 1982   8.282   7.983   8.212
  130POPC   PO4 1983   7.682   7.780   7.963
  130POPC   GL1 1984   7.797   8.090   7.684
  130POPC   GL2 1985   8.149   7.950   7.693
  130POPC   C1A 1986   7.618   8.296   7.312
  130POPC   D2A 1987   7.598   8.109   6.878
  130POPC   C3A 1988   7.477   8.073   6.436
  130POPC   C4A 1989   7.433   8.474   6.241
  130POPC   C1B 1990   8.191   7.873   7.243
  130POPC   C2B 1991   7.944   7.738   6.868
  130POPC   C3B 1992   7.851   7.650   6.440
  130POPC   C4B 1993   8.146   7.872   6.266
  131POPC   NC3 1994   7.237   7.712   7.988
  131POPC   PO4 1995   7.254   8.382   8.110
  131POPC   GL1 1996   7.271   8.161   7.709
  131POPC   GL2 1997   6.891   8.167   7.792
  131POPC   C1A 1998   7.412   7.845   7.324
  131POPC   D2A 1999   7.220   7.775   6.894
  131POPC   C3A 2000   7.338   7.576   6.488
  131POPC   C4A 2001   7.445   7.680   6.060
  131POPC   C1B 2002   6.929   7.915   7.412
  131POPC   C2B 2003   6.743   7.928   7.012
  131POPC   C3B 2004   6.849   7.954   6.590
  131POPC   C4B 2005   6.977   7.820   6.202
  132POPC   NC3 2006   0.264   0.878   7.944
  132POPC   PO4 2007  10.488   0.280   7.834
  132POPC   GL1 2008   0.331   0.324   7.567
  132POPC   GL2 2009   0.430   0.657   7.521
  132POPC   C1A 2010   0.507   0.342   7.135
  132POPC   D2A 2011   0.489   0.735   6.919
  132POPC   C3A 2012   0.409   0.620   6.505
  132POPC   C4A 2013   0.336   0.521   6.131
  132POPC   C1B 2014   0.816   0.689   7.342
  132POPC   C2B 2015   1.014   0.654   6.973
  132POPC   C3B 2016   0.872   0.501   6.604
  132POPC   C4B 2017   0.830   0.704   6.214
  133POPC   NC3 2018   4.200   8.055   8.068
  133POPC   PO4 2019   3.790   7.629   8.079
  133POPC   GL1 2020   3.894   7.847   7.681
  133POPC   GL2 2021   4.254   7.808   7.635
  133POPC   C1A 2022   3.950   7.898   7.208
  133POPC   D2A 2023   3.904   8.118   6.778
  133POPC   C3A 2024   3.992   7.886   6.362
  133POPC   C4A 2025   3.689   7.656   6.057
  133POPC   C1B 2026   4.425   8.083   7.323
  133POPC   C2B 2027   4.378   7.942   6.918
  133POPC   C3B 2028   4.514   7.954   6.528
  133POPC   C4B 2029   4.501   8.029   6.132
  134POPC   NC3 2030   8.535   8.654   8.040
  134POPC   PO4 2031   9.155   8.096   8.009
  134POPC   GL1 2032   9.038   8.291   7.619
  134POPC   GL2 2033   8.784   8.559   7.613
  134POPC   C1A 2034   9.113   8.424   7.265
  134POPC   D2A 2035   8.866   8.695   7.076
  134POPC   C3A 2036   8.758   8.578   6.668
  134POPC   C4A 2037   9.027   8.427   6.344
  134POPC   C1B 2038   8.449   8.726   7.393
  134POPC   C2B 2039   8.365   8.745   6.974
  134POPC   C3B 2040   8.262   8.721   6.543
  134POPC   C4B 2041   8.556   8.685   6.198
  135POPC   NC3 2042   0.469   0.010   7.984
  135POPC   PO4 2043   0.087   9.941   8.117
  135POPC   GL1 2044   0.330  10.048   7.707
  135POPC   GL2 2045   0.711  10.137   7.692
  135POPC   C1A 2046   0.335  10.364   7.353
  135POPC   D2A 2047   0.148   0.014   6.978
  135POPC   C3A 2048   0.377   0.088   6.586
  135POPC   C4A 2049   0.268  10.498   6.149
  135POPC   C1B 2050   0.604   9.956   7.261
  135POPC   C2B 2051   0.576  10.188   6.886
  135POPC   C3B 2052   0.507  10.067   6.469
  135POPC   C4B 2053   0.676  10.179   6.095
  136POPC   NC3 2054   9.826   1.071   8.308
  136POPC   PO4 2055  10.029   1.694   8.201
  136POPC   GL1 2056   9.847   1.430   7.844
  136POPC   GL2 2057  10.102   1.319   7.596
  136POPC   C1A 2058   9.748   1.584   7.366
  136POPC   D2A 2059  10.009   1.390   7.004
  136POPC   C3A 2060   9.879   1.544   6.618
  136POPC   C4A 2061  10.025   1.630   6.243
  136POPC   C1B 2062  10.193   1.003   7.284
  136POPC   C2B 2063  10.202   0.854   6.880
  136POPC   C3B 2064  10.214   1.133   6.553
  136POPC   C4B 2065  10.145   1.078   6.160
  137POPC   NC3 2066   0.639   6.458   7.981
  137POPC   PO4 2067   0.131   5.980   8.156
  137POPC   GL1 2068   0.147   6.190   7.725
  137POPC   GL2 2069   0.463   6.297   7.554
  137POPC   C1A 2070   0.171   6.049   7.266
  137POPC   D2A 2071   0.413   6.195   6.933
  137POPC   C3A 2072   0.295   6.170   6.534
  137POPC   C4A 2073   0.157   6.092   6.132
  137POPC   C1B 2074   0.792   6.295   7.255
  137POPC   C2B 2075   0.839   6.472   6.867
  137POPC   C3B 2076   0.798   6.282   6.504
  137POPC   C4B 2077   0.585   6.370   6.156
  138POPC   NC3 2078   9.181   0.839   7.973
  138POPC   PO4 2079   9.138   1.531   8.159
  138POPC   GL1 2080   9.101   1.404   7.716
  138POPC   GL2 2081   9.406   1.218   7.698
  138POPC   C1A 2082   9.223   1.305   7.252
  138POPC   D2A 2083   9.506   1.359   6.946
  138POPC   C3A 2084   9.312   1.344   6.577
  138POPC   C4A 2085   9.386   1.486   6.174
  138POPC   C1B 2086   9.696   1.090   7.357
  138POPC   C2B 2087   9.715   0.885   6.984
  138POPC   C3B 2088   9.734   1.040   6.576
  138POPC   C4B 2089   9.653   1.073   6.149
  139POPC   NC3 2090   2.186  10.498   7.918
  139POPC   PO4 2091   2.360   0.746   8.024
  139POPC   GL1 2092   2.099   0.564   7.700
  139POPC   GL2 2093   1.693   0.517   7.719
  139POPC   C1A 2094   2.204   0.662   7.305
  139POPC   D2A 2095   2.048   0.505   6.957
  139POPC   C3A 2096   1.969   0.747   6.630
  139POPC   C4A 2097   2.065   0.577   6.272
  139POPC   C1B 2098   1.800   0.284   7.365
  139POPC   C2B 2099   1.706   0.110   6.968
  139POPC   C3B 2100   1.823   0.230   6.564
  139POPC   C4B 2101   1.720   0.245   6.135
  140POPC   NC3 2102   5.303   9.492   8.277
  140POPC   PO4 2103   4.821   9.055   8.045
  140POPC   GL1 2104   4.788   9.227   7.678
  140POPC   GL2 2105   5.000   9.462   7.622
  140POPC   C1A 2106   4.905   9.079   7.280
  140POPC   D2A 2107   4.695   9.154   6.936
  140POPC   C3A 2108   4.857   9.187   6.564
  140POPC   C4A 2109   4.766   8.913   6.276
  140POPC   C1B 2110   4.822   9.586   7.236
  140POPC   C2B 2111   4.728   9.666   6.804
  140POPC   C3B 2112   4.793   9.668   6.408
  140POPC   C4B 2113   4.947   9.527   6.024
  141POPC   NC3 2114   9.576   1.816   8.219
  141POPC   PO4 2115   9.268   2.334   8.013
  141POPC   GL1 2116   9.549   2.119   7.718
  141POPC   GL2 2117   9.457   1.776   7.730
  141POPC   C1A 2118   9.602   2.099   7.267
  141POPC   D2A 2119   9.859   1.943   6.951
  141POPC   C3A 2120   9.710   2.132   6.568
  141POPC   C4A 2121   9.640   2.026   6.159
  141POPC   C1B 2122   9.180   1.816   7.372
  141POPC   C2B 2123   9.257   1.808   6.929
  141POPC   C3B 2124   9.260   1.879   6.487
  141POPC   C4B 2125   9.106   1.898   6.047
  142POPC   NC3 2126  10.317   2.237   8.404
  142POPC   PO4 2127  10.187   2.650   7.955
  142POPC   GL1 2128  10.068   2.702   7.588
  142POPC   GL2 2129  10.027   3.033   7.527
  142POPC   C1A 2130  10.074   2.685   7.146
  142POPC   D2A 2131   9.779   2.548   6.873
  142POPC   C3A 2132  10.081   2.513   6.568
  142POPC   C4A 2133  10.056   2.352   6.176
  142POPC   C1B 2134  10.421   2.998   7.336
  142POPC   C2B 2135  10.460   3.098   6.914
  142POPC   C3B 2136  10.367   3.239   6.519
  142POPC   C4B 2137  10.291   2.882   6.283
  143POPC   NC3 2138   4.495   9.484   8.066
  143POPC   PO4 2139   3.908   9.160   7.976
  143POPC   GL1 2140   4.237   9.198   7.707
  143POPC   GL2 2141   4.121   9.539   7.663
  143POPC   C1A 2142   4.421   9.295   7.340
  143POPC   D2A 2143   4.314   9.494   7.001
  143POPC   C3A 2144   4.372   9.325   6.582
  143POPC   C4A 2145   4.434   9.434   6.162
  143POPC   C1B 2146   3.903   9.349   7.275
  143POPC   C2B 2147   3.892   9.348   6.799
  143POPC   C3B 2148   3.907   9.397   6.394
  143POPC   C4B 2149   4.000   9.682   6.190
  144POPC   NC3 2150   4.925   8.582   8.105
  144POPC   PO4 2151   5.496   8.750   7.980
  144POPC   GL1 2152   5.156   8.733   7.640
  144POPC   GL2 2153   4.778   8.718   7.644
  144POPC   C1A 2154   5.229   8.702   7.206
  144POPC   D2A 2155   5.344   8.980   6.910
  144POPC   C3A 2156   5.221   8.835   6.541
  144POPC   C4A 2157   5.154   8.546   6.244
  144POPC   C1B 2158   4.776   8.486   7.259
  144POPC   C2B 2159   4.797   8.663   6.831
  144POPC   C3B 2160   4.695   8.441   6.454
  144POPC   C4B 2161   4.540   8.522   6.045
  145POPC   NC3 2162   8.697   4.119   8.258
  145POPC   PO4 2163   8.389   4.611   8.003
  145POPC   GL1 2164   8.432   4.417   7.601
  145POPC   GL2 2165   8.759   4.348   7.438
  145POPC   C1A 2166   8.299   4.165   7.253
  145POPC   D2A 2167   8.301   4.270   6.850
  145POPC   C3A 2168   8.266   4.010   6.473
  145POPC   C4A 2169   8.085   4.124   6.058
  145POPC   C1B 2170   8.788   4.036   7.165
  145POPC   C2B 2171   8.696   3.936   6.769
  145POPC   C3B 2172   8.754   3.895   6.345
  145POPC   C4B 2173   8.729   4.222   6.093
  146POPC   NC3 2174   7.157   2.682   8.083
  146POPC   PO4 2175   7.735   2.339   8.059
  146POPC   GL1 2176   7.505   2.512   7.675
  146POPC   GL2 2177   7.174   2.705   7.583
  146POPC   C1A 2178   7.485   2.583   7.214
  146POPC   D2A 2179   7.648   2.725   6.842
  146POPC   C3A 2180   7.384   2.820   6.516
  146POPC   C4A 2181   7.599   2.651   6.212
  146POPC   C1B 2182   7.011   2.407   7.257
  146POPC   C2B 2183   6.861   2.245   6.879
  146POPC   C3B 2184   7.019   2.433   6.555
  146POPC   C4B 2185   6.994   2.645   6.226
  147POPC   NC3 2186   4.932  10.366   7.890
  147POPC   PO4 2187   4.892   9.761   8.205
  147POPC   GL1 2188   5.138   9.891   7.834
  147POPC   GL2 2189   4.885   9.976   7.576
  147POPC   C1A 2190   5.279   9.821   7.345
  147POPC   D2A 2191   5.065   9.976   6.986
  147POPC   C3A 2192   5.228   9.867   6.566
  147POPC   C4A 2193   5.025  10.062   6.204
  147POPC   C1B 2194   4.720  10.290   7.289
  147POPC   C2B 2195   4.563  10.362   6.922
  147POPC   C3B 2196   4.691  10.177   6.578
  147POPC   C4B 2197   4.652  10.425   6.221
  148POPC   NC3 2198   8.689   0.327   8.151
  148POPC   PO4 2199   7.993   0.104   8.034
  148POPC   GL1 2200   8.390   0.274   7.733
  148POPC   GL2 2201   8.742   0.421   7.664
  148POPC   C1A 2202   8.381   0.439   7.286
  148POPC   D2A 2203   8.176   0.472   6.856
  148POPC   C3A 2204   8.360   0.438   6.466
  148POPC   C4A 2205   8.358   0.077   6.214
  148POPC   C1B 2206   8.896   0.476   7.260
  148POPC   C2B 2207   8.702   0.503   6.886
  148POPC   C3B 2208   8.872   0.493   6.530
  148POPC   C4B 2209   8.943   0.612   6.167
  149POPC   NC3 2210   4.222   8.802   8.034
  149POPC   PO4 2211   4.602   8.263   8.069
  149POPC   GL1 2212   4.331   8.459   7.664
  149POPC   GL2 2213   4.005   8.701   7.579
  149POPC   C1A 2214   4.395   8.792   7.298
  149POPC   D2A 2215   4.197   8.967   6.946
  149POPC   C3A 2216   4.319   8.830   6.525
  149POPC   C4A 2217   4.284   8.962   6.097
  149POPC   C1B 2218   4.041   8.417   7.221
  149POPC   C2B 2219   4.312   8.436   6.851
  149POPC   C3B 2220   4.191   8.355   6.402
  149POPC   C4B 2221   4.035   8.547   6.013
  150POPC   NC3 2222   9.819  10.347   4.078
  150POPC   PO4 2223   9.186  10.314   3.706
  150POPC   GL1 2224   9.233   9.939   4.153
  150POPC   GL2 2225   9.543   9.999   4.349
  150POPC   C1A 2226   9.107  10.086   4.668
  150POPC   D2A 2227   9.044  10.364   5.068
  150POPC   C3A 2228   9.226  10.233   5.467
  150POPC   C4A 2229   9.104  10.241   5.886
  150POPC   C1B 2230   9.634  10.177   4.766
  150POPC   C2B 2231   9.806  10.064   5.174
  150POPC   C3B 2232   9.832  10.347   5.535
  150POPC   C4B 2233   9.606  10.345   5.862
  151POPC   NC3 2234   6.355   9.865   3.936
  151POPC   PO4 2235   6.851  10.093   3.694
  151POPC   GL1 2236   6.779  10.012   4.164
  151POPC   GL2 2237   6.569  10.311   4.252
  151POPC   C1A 2238   6.503   9.909   4.576
  151POPC   D2A 2239   6.286   9.994   4.968
  151POPC   C3A 2240   6.559   9.925   5.299
  151POPC   C4A 2241   6.676   9.961   5.718
  151POPC   C1B 2242   6.247  10.364   4.586
  151POPC   C2B 2243   6.237   0.025   4.998
  151POPC   C3B 2244   6.336  10.373   5.361
  151POPC   C4B 2245   6.316  10.318   5.778
  152POPC   NC3 2246   0.757   9.583   4.128
  152POPC   PO4 2247   1.237   9.174   3.884
  152POPC   GL1 2248   1.198   9.359   4.277
  152POPC   GL2 2249   1.451   9.584   4.210
  152POPC   C1A 2250   0.994   9.216   4.674
  152POPC   D2A 2251   1.035   9.003   5.080
  152POPC   C3A 2252   0.810   9.155   5.448
  152POPC   C4A 2253   0.997   9.386   5.780
  152POPC   C1B 2254   1.457   9.692   4.625
  152POPC   C2B 2255   1.389   9.391   4.941
  152POPC   C3B 2256   1.281   9.369   5.352
  152POPC   C4B 2257   1.501   9.490   5.721
  153POPC   NC3 2258   1.235  10.328   3.903
  153POPC   PO4 2259   0.667   9.995   3.887
  153POPC   GL1 2260   0.877  10.190   4.252
  153POPC   GL2 2261   1.111   9.945   4.263
  153POPC   C1A 2262   1.165  10.282   4.628
  153POPC   D2A 2263   0.915  10.269   4.978
  153POPC   C3A 2264   0.945  10.296   5.432
  153POPC   C4A 2265   1.024  10.448   5.841
  153POPC   C1B 2266   0.966   9.808   4.692
  153POPC   C2B 2267   1.146   9.822   5.092
  153POPC   C3B 2268   1.151   9.833   5.524
  153POPC   C4B 2269   1.497  10.057   5.665
  154POPC   NC3 2270   1.153   1.417   4.075
  154POPC   PO4 2271   1.579   0.871   3.875
  154POPC   GL1 2272   1.474   1.069   4.293
  154POPC   GL2 2273   1.155   1.018   4.460
  154POPC   C1A 2274   1.470   1.335   4.724
  154POPC   D2A 2275   1.311   1.381   5.153
  154POPC   C3A 2276   1.569   1.485   5.524
  154POPC   C4A 2277   1.572   1.261   5.923
  154POPC   C1B 2278   0.911   1.362   4.666
  154POPC   C2B 2279   0.804   1.470   5.052
  154POPC   C3B 2280   0.834   1.217   5.382
  154POPC   C4B 2281   1.082   1.252   5.714
  155POPC   NC3 2282   8.799   7.806   3.891
  155POPC   PO4 2283   8.266   8.287   3.849
  155POPC   GL1 2284   8.295   8.124   4.276
  155POPC   GL2 2285   8.621   7.962   4.334
  155POPC   C1A 2286   8.290   8.045   4.712
  155POPC   D2A 2287   8.560   8.134   5.032
  155POPC   C3A 2288   8.530   8.006   5.452
  155POPC   C4A 2289   8.281   7.993   5.808
  155POPC   C1B 2290   8.845   7.853   4.691
  155POPC   C2B 2291   8.825   7.704   5.110
  155POPC   C3B 2292   9.028   7.855   5.493
  155POPC   C4B 2293   8.822   7.850   5.906
  156POPC   NC3 2294   2.744   1.059   3.981
  156POPC   PO4 2295   3.161   1.507   3.707
  156POPC   GL1 2296   3.012   1.419   4.216
  156POPC   GL2 2297   2.651   1.392   4.331
  156POPC   C1A 2298   2.977   1.408   4.703
  156POPC   D2A 2299   3.009   1.065   5.016
  156POPC   C3A 2300   3.081   1.183   5.448
  156POPC   C4A 2301   2.889   1.048   5.857
  156POPC   C1B 2302   2.516   1.187   4.709
  156POPC   C2B 2303   2.583   1.391   5.109
  156POPC   C3B 2304   2.588   1.294   5.525
  156POPC   C4B 2305   2.323   0.980   5.619
  157POPC   NC3 2306   0.575   3.319   4.009
  157POPC   PO4 2307  10.433   3.417   3.879
  157POPC   GL1 2308   0.134   3.507   4.286
  157POPC   GL2 2309   0.350   3.227   4.436
  157POPC   C1A 2310   0.070   3.589   4.727
  157POPC   D2A 2311   0.294   3.455   5.078
  157POPC   C3A 2312   0.144   3.446   5.482
  157POPC   C4A 2313   0.356   3.162   5.750
  157POPC   C1B 2314   0.658   3.421   4.679
  157POPC   C2B 2315   0.834   3.469   5.062
  157POPC   C3B 2316   0.752   3.357   5.462
  157POPC   C4B 2317   0.550   3.653   5.727
  158POPC   NC3 2318   8.777   5.380   3.834
  158POPC   PO4 2319   8.887   6.053   3.952
  158POPC   GL1 2320   8.819   5.763   4.328
  158POPC   GL2 2321   8.482   5.773   4.296
  158POPC   C1A 2322   8.941   5.523   4.746
  158POPC   D2A 2323   8.735   5.508   5.137
  158POPC   C3A 2324   8.850   5.526   5.538
  158POPC   C4A 2325   8.514   5.395   5.796
  158POPC   C1B 2326   8.460   5.685   4.724
  158POPC   C2B 2327   8.244   5.676   5.102
  158POPC   C3B 2328   8.420   5.830   5.449
  158POPC   C4B 2329   8.501   5.892   5.857
  159POPC   NC3 2330   7.902   4.896   3.852
  159POPC   PO4 2331   8.425   4.718   3.924
  159POPC   GL1 2332   8.228   4.797   4.311
  159POPC   GL2 2333   7.861   4.761   4.354
  159POPC   C1A 2334   8.191   4.881   4.771
  159POPC   D2A 2335   8.072   4.683   5.184
  159POPC   C3A 2336   7.835   4.811   5.572
  159POPC   C4A 2337   7.938   4.647   5.992
  159POPC   C1B 2338   7.720   5.043   4.731
  159POPC   C2B 2339   7.822   5.177   5.190
  159POPC   C3B 2340   7.597   5.253   5.610
  159POPC   C4B 2341   7.665   5.304   6.063
  160POPC   NC3 2342   1.946  10.260   3.852
  160POPC   PO4 2343   1.502   0.219   3.875
  160POPC   GL1 2344   1.755   0.045   4.235
  160POPC   GL2 2345   1.570  10.240   4.299
  160POPC   C1A 2346   2.075   0.043   4.648
  160POPC   D2A 2347   2.187  10.416   5.114
  160POPC   C3A 2348   2.001   0.097   5.520
  160POPC   C4A 2349   2.170   0.067   5.968
  160POPC   C1B 2350   1.689  10.172   4.745
  160POPC   C2B 2351   1.820  10.038   5.174
  160POPC   C3B 2352   1.999  10.087   5.606
  160POPC   C4B 2353   1.815  10.242   6.021
  161POPC   NC3 2354   1.884   4.487   4.044
  161POPC   PO4 2355   1.847   3.830   3.846
  161POPC   GL1 2356   2.038   4.013   4.237
  161POPC   GL2 2357   1.780   4.074   4.446
  161POPC   C1A 2358   2.190   4.002   4.714
  161POPC   D2A 2359   1.941   4.095   5.091
  161POPC   C3A 2360   2.173   3.998   5.495
  161POPC   C4A 2361   2.216   3.939   5.960
  161POPC   C1B 2362   1.793   4.460   4.690
  161POPC   C2B 2363   1.788   4.651   5.089
  161POPC   C3B 2364   1.778   4.432   5.443
  161POPC   C4B 2365   1.792   4.183   5.781
  162POPC   NC3 2366   7.081   0.617   4.036
  162POPC   PO4 2367   7.679   0.471   3.859
  162POPC   GL1 2368   7.603   0.596   4.263
  162POPC   GL2 2369   7.380   0.300   4.307
  162POPC   C1A 2370   7.544   0.530   4.721
  162POPC   D2A 2371   7.462   0.418   5.158
  162POPC   C3A 2372   7.384   0.720   5.490
  162POPC   C4A 2373   7.433   0.719   5.969
  162POPC   C1B 2374   7.083   0.337   4.692
  162POPC   C2B 2375   6.994   0.222   5.115
  162POPC   C3B 2376   7.099   0.286   5.587
  162POPC   C4B 2377   7.029   0.404   6.048
  163POPC   NC3 2378   7.947   0.123   3.964
  163POPC   PO4 2379   8.604   0.091   3.844
  163POPC   GL1 2380   8.348   0.173   4.260
  163POPC   GL2 2381   8.157   0.527   4.220
  163POPC   C1A 2382   7.999   0.198   4.594
  163POPC   D2A 2383   7.774  10.450   4.916
  163POPC   C3A 2384   7.846   0.096   5.349
  163POPC   C4A 2385   7.610   0.306   5.672
  163POPC   C1B 2386   7.999   0.719   4.609
  163POPC   C2B 2387   7.966   0.492   5.006
  163POPC   C3B 2388   7.876   0.652   5.371
  163POPC   C4B 2389   7.890   0.732   5.768
  164POPC   NC3 2390   8.825  10.237   4.078
  164POPC   PO4 2391   8.762   9.607   3.924
  164POPC   GL1 2392   8.857   9.731   4.378
  164POPC   GL2 2393   8.634  10.001   4.481
  164POPC   C1A 2394   8.821   9.662   4.814
  164POPC   D2A 2395   8.829   9.929   5.107
  164POPC   C3A 2396   8.972   9.805   5.500
  164POPC   C4A 2397   8.769   9.885   5.862
  164POPC   C1B 2398   8.679  10.393   4.707
  164POPC   C2B 2399   8.540  10.483   5.115
  164POPC   C3B 2400   8.638  10.233   5.469
  164POPC   C4B 2401   8.622  10.360   5.861
  165POPC   NC3 2402   2.135   2.643   3.892
  165POPC   PO4 2403   1.480   2.609   3.852
  165POPC   GL1 2404   1.622   2.752   4.254
  165POPC   GL2 2405   1.968   2.741   4.356
  165POPC   C1A 2406   1.582   2.771   4.716
  165POPC   D2A 2407   1.799   2.729   5.113
  165POPC   C3A 2408   1.544   2.855   5.369
  165POPC   C4A 2409   1.556   2.801   5.724
  165POPC   C1B 2410   2.109   2.610   4.746
  165POPC   C2B 2411   2.331   2.425   5.062
  165POPC   C3B 2412   2.172   2.376   5.452
  165POPC   C4B 2413   2.033   2.658   5.744
  166POPC   NC3 2414   6.620   8.361   3.731
  166POPC   PO4 2415   6.142   8.840   3.863
  166POPC   GL1 2416   6.153   8.764   4.377
  166POPC   GL2 2417   6.516   8.786   4.543
  166POPC   C1A 2418   6.251   8.436   4.748
  166POPC   D2A 2419   6.494   8.561   5.122
  166POPC   C3A 2420   6.320   8.526   5.549
  166POPC   C4A 2421   6.161   8.174   5.817
  166POPC   C1B 2422   6.227   8.946   4.859
  166POPC   C2B 2423   6.205   9.027   5.283
  166POPC   C3B 2424   6.552   8.978   5.532
  166POPC   C4B 2425   6.607   8.985   5.968
  167POPC   NC3 2426  10.213   7.233   3.974
  167POPC   PO4 2427   9.784   6.786   3.832
  167POPC   GL1 2428   9.819   7.037   4.274
  167POPC   GL2 2429  10.160   7.150   4.451
  167POPC   C1A 2430   9.808   7.011   4.760
  167POPC   D2A 2431   9.956   6.870   5.139
  167POPC   C3A 2432  10.009   7.094   5.493
  167POPC   C4A 2433  10.062   6.980   5.879
  167POPC   C1B 2434  10.216   7.398   4.840
  167POPC   C2B 2435  10.413   7.202   5.218
  167POPC   C3B 2436   0.020   6.953   5.648
  167POPC   C4B 2437  10.493   7.067   6.136
  168POPC   NC3 2438   8.292   1.603   4.205
  168POPC   PO4 2439   8.193   0.928   3.906
  168POPC   GL1 2440   8.221   1.086   4.277
  168POPC   GL2 2441   7.860   1.094   4.300
  168POPC   C1A 2442   8.392   1.114   4.693
  168POPC   D2A 2443   8.178   0.946   5.060
  168POPC   C3A 2444   8.299   0.938   5.496
  168POPC   C4A 2445   8.206   1.117   5.914
  168POPC   C1B 2446   7.909   1.238   4.697
  168POPC   C2B 2447   7.879   1.344   5.129
  168POPC   C3B 2448   7.805   1.171   5.525
  168POPC   C4B 2449   7.596   1.539   5.709
  169POPC   NC3 2450   4.912   8.433   4.060
  169POPC   PO4 2451   4.801   9.124   3.928
  169POPC   GL1 2452   4.875   8.921   4.303
  169POPC   GL2 2453   4.594   8.717   4.345
  169POPC   C1A 2454   4.798   9.006   4.736
  169POPC   D2A 2455   4.610   8.941   5.111
  169POPC   C3A 2456   4.785   8.838   5.459
  169POPC   C4A 2457   4.940   8.710   5.826
  169POPC   C1B 2458   4.796   8.477   4.692
  169POPC   C2B 2459   4.926   8.528   5.100
  169POPC   C3B 2460   4.869   8.328   5.507
  169POPC   C4B 2461   4.944   8.193   5.937
  170POPC   NC3 2462   7.789   6.509   3.930
  170POPC   PO4 2463   7.559   7.035   4.076
  170POPC   GL1 2464   7.798   6.726   4.409
  170POPC   GL2 2465   8.044   6.466   4.368
  170POPC   C1A 2466   7.930   6.538   4.853
  170POPC   D2A 2467   7.694   6.391   5.215
  170POPC   C3A 2468   7.739   6.585   5.620
  170POPC   C4A 2469   7.989   6.562   5.971
  170POPC   C1B 2470   8.211   6.143   4.630
  170POPC   C2B 2471   8.333   6.201   5.043
  170POPC   C3B 2472   8.182   6.392   5.389
  170POPC   C4B 2473   8.046   6.100   5.702
  171POPC   NC3 2474   5.714   2.263   3.987
  171POPC   PO4 2475   5.370   1.662   3.852
  171POPC   GL1 2476   5.518   1.728   4.265
  171POPC   GL2 2477   5.840   1.859   4.278
  171POPC   C1A 2478   5.671   1.642   4.701
  171POPC   D2A 2479   5.854   1.728   5.085
  171POPC   C3A 2480   5.598   1.833   5.418
  171POPC   C4A 2481   5.727   1.626   5.764
  171POPC   C1B 2482   5.669   2.136   4.646
  171POPC   C2B 2483   5.754   2.234   5.096
  171POPC   C3B 2484   5.873   2.255   5.551
  171POPC   C4B 2485   5.643   2.369   5.941
  172POPC   NC3 2486   1.473   3.773   4.127
  172POPC   PO4 2487   0.925   3.473   3.769
  172POPC   GL1 2488   1.005   3.556   4.218
  172POPC   GL2 2489   1.063   3.242   4.383
  172POPC   C1A 2490   1.102   3.705   4.665
  172POPC   D2A 2491   1.300   3.725   5.091
  172POPC   C3A 2492   0.999   3.791   5.454
  172POPC   C4A 2493   1.028   3.590   5.867
  172POPC   C1B 2494   1.367   3.250   4.709
  172POPC   C2B 2495   1.240   3.177   5.107
  172POPC   C3B 2496   1.345   3.378   5.475
  172POPC   C4B 2497   1.403   3.256   5.866
  173POPC   NC3 2498   0.758   2.336   4.052
  173POPC   PO4 2499   0.731   2.921   4.175
  173POPC   GL1 2500   0.638   2.639   4.437
  173POPC   GL2 2501   0.311   2.692   4.466
  173POPC   C1A 2502   0.688   2.398   4.772
  173POPC   D2A 2503   0.489   2.483   5.143
  173POPC   C3A 2504   0.663   2.634   5.544
  173POPC   C4A 2505   0.423   2.463   5.836
  173POPC   C1B 2506   0.495   2.932   4.831
  173POPC   C2B 2507   0.460   2.995   5.253
  173POPC   C3B 2508   0.175   2.730   5.474
  173POPC   C4B 2509   0.040   2.793   5.873
  174POPC   NC3 2510   1.846   7.159   3.976
  174POPC   PO4 2511   2.504   7.122   3.928
  174POPC   GL1 2512   2.217   7.050   4.318
  174POPC   GL2 2513   1.926   7.285   4.448
  174POPC   C1A 2514   2.156   7.007   4.786
  174POPC   D2A 2515   2.131   7.291   5.135
  174POPC   C3A 2516   2.145   6.992   5.458
  174POPC   C4A 2517   2.101   6.849   5.856
  174POPC   C1B 2518   1.677   7.179   4.796
  174POPC   C2B 2519   1.699   6.992   5.194
  174POPC   C3B 2520   1.685   7.136   5.607
  174POPC   C4B 2521   1.702   7.415   5.932
  175POPC   NC3 2522   7.230   7.356   4.046
  175POPC   PO4 2523   6.760   7.934   3.900
  175POPC   GL1 2524   7.033   7.939   4.349
  175POPC   GL2 2525   7.401   8.004   4.404
  175POPC   C1A 2526   7.091   7.765   4.778
  175POPC   D2A 2527   7.253   7.759   5.223
  175POPC   C3A 2528   7.080   7.706   5.659
  175POPC   C4A 2529   7.051   7.364   5.972
  175POPC   C1B 2530   7.328   8.237   4.765
  175POPC   C2B 2531   7.378   8.384   5.170
  175POPC   C3B 2532   7.196   8.192   5.511
  175POPC   C4B 2533   7.258   8.133   5.920
  176POPC   NC3 2534   1.522   2.151   3.760
  176POPC   PO4 2535   1.610   1.539   4.127
  176POPC   GL1 2536   1.509   1.865   4.366
  176POPC   GL2 2537   1.179   1.760   4.454
  176POPC   C1A 2538   1.477   1.878   4.816
  176POPC   D2A 2539   1.379   1.972   5.188
  176POPC   C3A 2540   1.104   1.743   5.458
  176POPC   C4A 2541   1.252   1.659   5.906
  176POPC   C1B 2542   0.933   1.898   4.819
  176POPC   C2B 2543   0.927   2.196   5.167
  176POPC   C3B 2544   0.758   2.147   5.563
  176POPC   C4B 2545   0.998   2.095   5.904
  177POPC   NC3 2546   5.048   0.549   3.852
  177POPC   PO4 2547   4.437   0.593   4.115
  177POPC   GL1 2548   4.645   0.631   4.475
  177POPC   GL2 2549   4.891   0.388   4.314
  177POPC   C1A 2550   4.667   0.662   4.940
  177POPC   D2A 2551   4.672   0.377   5.257
  177POPC   C3A 2552   4.750   0.571   5.625
  177POPC   C4A 2553   4.759   0.239   5.849
  177POPC   C1B 2554   4.945   0.299   4.721
  177POPC   C2B 2555   5.126   0.485   5.071
  177POPC   C3B 2556   5.156   0.325   5.447
  177POPC   C4B 2557   5.279   0.392   5.820
  178POPC   NC3 2558   3.488   1.711   3.978
  178POPC   PO4 2559   2.961   1.873   4.062
  178POPC   GL1 2560   3.247   1.851   4.408
  178POPC   GL2 2561   3.562   1.995   4.390
  178POPC   C1A 2562   3.182   1.857   4.848
  178POPC   D2A 2563   3.394   1.934   5.214
  178POPC   C3A 2564   3.228   1.659   5.463
  178POPC   C4A 2565   2.955   1.580   5.807
  178POPC   C1B 2566   3.450   2.262   4.733
  178POPC   C2B 2567   3.584   2.412   5.115
  178POPC   C3B 2568   3.727   2.282   5.495
  178POPC   C4B 2569   3.463   2.036   5.715
  179POPC   NC3 2570   6.598   2.281   3.944
  179POPC   PO4 2571   6.875   1.681   4.049
  179POPC   GL1 2572   6.681   1.876   4.362
  179POPC   GL2 2573   6.348   1.837   4.288
  179POPC   C1A 2574   6.640   1.993   4.786
  179POPC   D2A 2575   6.775   1.888   5.180
  179POPC   C3A 2576   6.586   2.092   5.513
  179POPC   C4A 2577   6.604   1.799   5.814
  179POPC   C1B 2578   6.144   1.944   4.708
  179POPC   C2B 2579   6.233   2.064   5.156
  179POPC   C3B 2580   6.146   1.820   5.543
  179POPC   C4B 2581   6.200   1.500   5.922
  180POPC   NC3 2582   8.973   0.338   3.811
  180POPC   PO4 2583   9.304  10.407   4.180
  180POPC   GL1 2584   8.934   0.166   4.349
  180POPC   GL2 2585   8.743   0.485   4.252
  180POPC   C1A 2586   8.900   0.366   4.771
  180POPC   D2A 2587   9.135   0.371   5.158
  180POPC   C3A 2588   8.917   0.170   5.478
  180POPC   C4A 2589   8.740   0.339   5.813
  180POPC   C1B 2590   8.488   0.604   4.620
  180POPC   C2B 2591   8.487   0.523   5.086
  180POPC   C3B 2592   8.317   0.407   5.512
  180POPC   C4B 2593   8.330   0.570   5.956
  181POPC   NC3 2594  10.370   0.528   3.961
  181POPC   PO4 2595   9.687   0.570   3.955
  181POPC   GL1 2596   9.913   0.332   4.238
  181POPC   GL2 2597  10.207   0.391   4.419
  181POPC   C1A 2598   9.820   0.150   4.641
  181POPC   D2A 2599   9.684   0.426   4.970
  181POPC   C3A 2600   9.831   0.421   5.398
  181POPC   C4A 2601   9.969   0.278   5.814
  181POPC   C1B 2602  10.182   0.429   4.826
  181POPC   C2B 2603  10.170   0.670   5.140
  181POPC   C3B 2604  10.365   0.690   5.490
  181POPC   C4B 2605  10.355   0.674   5.922
  182POPC   NC3 2606   8.440   2.573   4.013
  182POPC   PO4 2607   8.932   3.073   3.892
  182POPC   GL1 2608   8.932   2.882   4.281
  182POPC   GL2 2609   8.586   2.986   4.373
  182POPC   C1A 2610   9.073   2.740   4.686
  182POPC   D2A 2611   8.938   2.891   5.048
  182POPC   C3A 2612   9.014   2.601   5.354
  182POPC   C4A 2613   8.935   2.699   5.755
  182POPC   C1B 2614   8.578   2.596   4.640
  182POPC   C2B 2615   8.606   2.494   5.051
  182POPC   C3B 2616   8.534   2.788   5.362
  182POPC   C4B 2617   8.440   2.685   5.759
  183POPC   NC3 2618   4.617  10.192   3.917
  183POPC   PO4 2619   5.216   0.057   3.852
  183POPC   GL1 2620   5.221  10.454   4.259
  183POPC   GL2 2621   5.051  10.136   4.181
  183POPC   C1A 2622   5.321  10.462   4.683
  183POPC   D2A 2623   5.070  10.454   5.068
  183POPC   C3A 2624   5.264  10.338   5.433
  183POPC   C4A 2625   5.067  10.350   5.790
  183POPC   C1B 2626   4.815  10.256   4.577
  183POPC   C2B 2627   4.803  10.033   4.987
  183POPC   C3B 2628   4.973   9.896   5.366
  183POPC   C4B 2629   4.762   9.927   5.774
  184POPC   NC3 2630   9.172   1.296   3.917
  184POPC   PO4 2631   9.728   1.381   4.241
  184POPC   GL1 2632   9.647   1.012   4.450
  184POPC   GL2 2633   9.325   1.037   4.345
  184POPC   C1A 2634   9.865   0.864   4.759
  184POPC   D2A 2635   9.689   0.884   5.141
  184POPC   C3A 2636   9.828   1.120   5.401
  184POPC   C4A 2637   9.535   1.246   5.684
  184POPC   C1B 2638   9.344   1.240   4.773
  184POPC   C2B 2639   9.388   1.329   5.189
  184POPC   C3B 2640   9.078   1.197   5.476
  184POPC   C4B 2641   9.038   1.468   5.805
  185POPC   NC3 2642   2.464   8.799   3.939
  185POPC   PO4 2643   2.853   8.277   3.761
  185POPC   GL1 2644   2.718   8.527   4.254
  185POPC   GL2 2645   2.379   8.570   4.400
  185POPC   C1A 2646   2.784   8.698   4.690
  185POPC   D2A 2647   2.958   8.740   5.106
  185POPC   C3A 2648   2.765   9.071   5.379
  185POPC   C4A 2649   2.841   8.914   5.796
  185POPC   C1B 2650   2.221   8.397   4.779
  185POPC   C2B 2651   2.437   8.545   5.100
  185POPC   C3B 2652   2.631   8.588   5.477
  185POPC   C4B 2653   2.571   8.407   5.873
  186POPC   NC3 2654   7.285  10.213   3.811
  186POPC   PO4 2655   6.906   0.172   4.087
  186POPC   GL1 2656   7.148  10.336   4.300
  186POPC   GL2 2657   7.307   9.964   4.250
  186POPC   C1A 2658   6.937  10.169   4.636
  186POPC   D2A 2659   6.697  10.308   4.975
  186POPC   C3A 2660   6.863  10.331   5.403
  186POPC   C4A 2661   6.811  10.437   5.826
  186POPC   C1B 2662   7.308   9.829   4.685
  186POPC   C2B 2663   7.200  10.048   5.056
  186POPC   C3B 2664   7.073   9.867   5.422
  186POPC   C4B 2665   7.197  10.099   5.763
  187POPC   NC3 2666   7.114   9.227   3.807
  187POPC   PO4 2667   7.569   9.507   4.071
  187POPC   GL1 2668   7.413   9.247   4.394
  187POPC   GL2 2669   7.077   9.235   4.310
  187POPC   C1A 2670   7.206   9.320   4.802
  187POPC   D2A 2671   7.332   9.561   5.124
  187POPC   C3A 2672   7.359   9.345   5.481
  187POPC   C4A 2673   7.233   9.561   5.796
  187POPC   C1B 2674   6.904   9.609   4.494
  187POPC   C2B 2675   6.848   9.682   4.952
  187POPC   C3B 2676   6.888   9.328   5.288
  187POPC   C4B 2677   7.026   9.053   5.687
  188POPC   NC3 2678   9.158   8.924   3.898
  188POPC   PO4 2679   9.710   8.588   3.841
  188POPC   GL1 2680   9.696   8.676   4.254
  188POPC   GL2 2681   9.377   8.624   4.318
  188POPC   C1A 2682   9.751   8.778   4.686
  188POPC   D2A 2683   9.622   8.867   5.112
  188POPC   C3A 2684   9.886   8.835   5.466
  188POPC   C4A 2685   9.778   8.904   5.889
  188POPC   C1B 2686   9.211   8.795   4.727
  188POPC   C2B 2687   9.157   8.694   5.157
  188POPC   C3B 2688   9.283   8.739   5.593
  188POPC   C4B 2689   8.969   8.680   5.905
  189POPC   NC3 2690   3.618  10.154   3.905
  189POPC   PO4 2691   2.943   9.783   3.844
  189POPC   GL1 2692   3.110   9.741   4.255
  189POPC   GL2 2693   3.391   9.928   4.291
  189POPC   C1A 2694   2.983   9.868   4.674
  189POPC   D2A 2695   3.091  10.075   5.069
  189POPC   C3A 2696   3.043   9.882   5.465
  189POPC   C4A 2697   3.238   9.843   5.850
  189POPC   C1B 2698   3.420  10.144   4.670
  189POPC   C2B 2699   3.614  10.132   5.078
  189POPC   C3B 2700   3.534  10.172   5.500
  189POPC   C4B 2701   3.837  10.495   5.714
  190POPC   NC3 2702   8.328   9.397   3.858
  190POPC   PO4 2703   8.387  10.058   3.985
  190POPC   GL1 2704   8.398   9.595   4.292
  190POPC   GL2 2705   8.714   9.261   4.260
  190POPC   C1A 2706   8.459   9.319   4.662
  190POPC   D2A 2707   8.636   9.223   5.067
  190POPC   C3A 2708   8.589   9.539   5.316
  190POPC   C4A 2709   8.634   9.438   5.719
  190POPC   C1B 2710   8.975   9.224   4.618
  190POPC   C2B 2711   9.144   9.319   5.045
  190POPC   C3B 2712   9.042   9.279   5.470
  190POPC   C4B 2713   9.111   9.480   5.883
  191POPC   NC3 2714   2.551   0.462   3.857
  191POPC   PO4 2715   3.063   0.808   3.741
  191POPC   GL1 2716   2.877   0.527   4.210
  191POPC   GL2 2717   2.869   0.187   4.196
  191POPC   C1A 2718   2.735   0.697   4.685
  191POPC   D2A 2719   2.543   0.841   5.089
  191POPC   C3A 2720   2.756   0.805   5.415
  191POPC   C4A 2721   2.664   0.589   5.752
  191POPC   C1B 2722   2.553   0.253   4.536
  191POPC   C2B 2723   2.449   0.345   4.965
  191POPC   C3B 2724   2.465   0.291   5.391
  191POPC   C4B 2725   2.612   0.081   5.739
  192POPC   NC3 2726   8.789   6.527   3.895
  192POPC   PO4 2727   8.161   6.784   3.988
  192POPC   GL1 2728   8.501   6.654   4.298
  192POPC   GL2 2729   8.538   6.292   4.273
  192POPC   C1A 2730   8.462   6.606   4.746
  192POPC   D2A 2731   8.751   6.544   5.103
  192POPC   C3A 2732   8.737   6.740   5.537
  192POPC   C4A 2733   8.915   6.684   5.969
  192POPC   C1B 2734   8.736   6.143   4.664
  192POPC   C2B 2735   8.792   6.003   5.082
  192POPC   C3B 2736   8.755   6.200   5.483
  192POPC   C4B 2737   8.473   6.392   5.795
  193POPC   NC3 2738   9.717   8.095   3.869
  193POPC   PO4 2739   9.040   8.196   3.977
  193POPC   GL1 2740   9.187   8.161   4.365
  193POPC   GL2 2741   9.539   8.107   4.344
  193POPC   C1A 2742   9.435   8.351   4.758
  193POPC   D2A 2743   9.591   8.121   5.099
  193POPC   C3A 2744   9.428   8.226   5.512
  193POPC   C4A 2745   9.184   8.196   5.899
  193POPC   C1B 2746   9.359   7.855   4.709
  193POPC   C2B 2747   9.337   7.667   5.109
  193POPC   C3B 2748   9.545   7.693   5.520
  193POPC   C4B 2749   9.854   7.662   5.869
  194POPC   NC3 2750   1.183   2.941   3.966
  194POPC   PO4 2751   1.045   2.245   3.720
  194POPC   GL1 2752   1.245   2.279   4.191
  194POPC   GL2 2753   1.137   2.600   4.319
  194POPC   C1A 2754   1.212   2.292   4.687
  194POPC   D2A 2755   1.357   2.473   5.073
  194POPC   C3A 2756   1.190   2.445   5.530
  194POPC   C4A 2757   1.377   2.412   5.960
  194POPC   C1B 2758   1.061   2.802   4.729
  194POPC   C2B 2759   0.941   2.759   5.144
  194POPC   C3B 2760   1.073   2.940   5.541
  194POPC   C4B 2761   0.864   3.064   5.861
  195POPC   NC3 2762   6.630   1.040   3.505
  195POPC   PO4 2763   7.210   1.108   3.909
  195POPC   GL1 2764   7.027   1.097   4.266
  195POPC   GL2 2765   7.137   1.377   4.435
  195POPC   C1A 2766   6.947   0.843   4.632
  195POPC   D2A 2767   7.136   0.806   5.009
  195POPC   C3A 2768   6.899   0.677   5.314
  195POPC   C4A 2769   6.843   0.746   5.709
  195POPC   C1B 2770   7.441   1.028   4.587
  195POPC   C2B 2771   7.621   0.938   5.007
  195POPC   C3B 2772   7.374   1.203   5.285
  195POPC   C4B 2773   7.289   1.146   5.723
  196POPC   NC3 2774   1.914   1.235   3.937
  196POPC   PO4 2775   2.442   1.573   3.911
  196POPC   GL1 2776   2.152   1.495   4.303
  196POPC   GL2 2777   2.160   1.108   4.356
  196POPC   C1A 2778   2.037   1.385   4.756
  196POPC   D2A 2779   2.119   1.115   5.088
  196POPC   C3A 2780   2.107   1.396   5.414
  196POPC   C4A 2781   2.092   1.395   5.844
  196POPC   C1B 2782   1.811   0.959   4.643
  196POPC   C2B 2783   1.640   0.944   5.075
  196POPC   C3B 2784   1.783   1.006   5.516
  196POPC   C4B 2785   1.941   0.935   5.956
  197POPC   NC3 2786   3.375   9.195   4.050
  197POPC   PO4 2787   4.075   9.140   4.037
  197POPC   GL1 2788   3.762   9.140   4.378
  197POPC   GL2 2789   3.634   9.480   4.378
  197POPC   C1A 2790   3.719   9.202   4.837
  197POPC   D2A 2791   3.691   9.193   5.280
  197POPC   C3A 2792   3.877   9.557   5.428
  197POPC   C4A 2793   3.720   9.734   5.774
  197POPC   C1B 2794   3.367   9.555   4.711
  197POPC   C2B 2795   3.418   9.665   5.129
  197POPC   C3B 2796   3.357   9.498   5.501
  197POPC   C4B 2797   3.050   9.371   5.767
  198POPC   NC3 2798   8.390  10.267   3.546
  198POPC   PO4 2799   7.768  10.190   3.832
  198POPC   GL1 2800   7.976  10.224   4.247
  198POPC   GL2 2801   7.673  10.361   4.367
  198POPC   C1A 2802   8.204  10.231   4.647
  198POPC   D2A 2803   8.314   9.968   5.018
  198POPC   C3A 2804   8.121  10.129   5.405
  198POPC   C4A 2805   8.111  10.422   5.771
  198POPC   C1B 2806   7.770   9.982   4.624
  198POPC   C2B 2807   7.738   9.905   5.044
  198POPC   C3B 2808   7.587  10.076   5.412
  198POPC   C4B 2809   7.778  10.014   5.788
  199POPC   NC3 2810   4.950   1.866   3.779
  199POPC   PO4 2811   4.498   2.236   3.866
  199POPC   GL1 2812   4.719   1.941   4.232
  199POPC   GL2 2813   5.002   1.653   4.266
  199POPC   C1A 2814   4.643   1.710   4.639
  199POPC   D2A 2815   4.839   1.758   5.046
  199POPC   C3A 2816   4.651   1.675   5.441
  199POPC   C4A 2817   4.673   1.881   5.855
  199POPC   C1B 2818   5.184   1.807   4.653
  199POPC   C2B 2819   5.263   2.036   5.055
  199POPC   C3B 2820   4.964   2.111   5.430
  199POPC   C4B 2821   5.127   2.208   5.846
  200POPC   NC3 2822   2.526   2.012   4.088
  200POPC   PO4 2823   1.999   2.251   3.678
  200POPC   GL1 2824   1.849   2.278   4.127
  200POPC   GL2 2825   2.019   2.000   4.244
  200POPC   C1A 2826   1.715   2.305   4.572
  200POPC   D2A 2827   1.851   2.225   5.028
  200POPC   C3A 2828   1.677   2.329   5.443
  200POPC   C4A 2829   1.472   2.025   5.672
  200POPC   C1B 2830   1.958   1.867   4.669
  200POPC   C2B 2831   1.837   1.712   5.122
  200POPC   C3B 2832   1.954   1.863   5.562
  200POPC   C4B 2833   1.758   1.737   5.980
  201POPC   NC3 2834   3.017   3.509   4.024
  201POPC   PO4 2835   2.421   3.143   3.838
  201POPC   GL1 2836   2.364   3.328   4.250
  201POPC   GL2 2837   2.714   3.338   4.417
  201POPC   C1A 2838   2.295   3.496   4.671
  201POPC   D2A 2839   2.577   3.357   5.011
  201POPC   C3A 2840   2.523   3.362   5.433
  201POPC   C4A 2841   2.811   3.266   5.789
  201POPC   C1B 2842   2.737   3.739   4.727
  201POPC   C2B 2843   2.570   3.852   5.194
  201POPC   C3B 2844   2.639   3.783   5.701
  201POPC   C4B 2845   2.913   3.673   6.096
  202POPC   NC3 2846   5.208   9.358   3.880
  202POPC   PO4 2847   4.665   9.736   4.004
  202POPC   GL1 2848   4.856   9.690   4.394
  202POPC   GL2 2849   5.054   9.400   4.361
  202POPC   C1A 2850   4.962   9.577   4.831
  202POPC   D2A 2851   4.688   9.441   5.117
  202POPC   C3A 2852   4.767   9.441   5.539
  202POPC   C4A 2853   4.676   9.142   5.837
  202POPC   C1B 2854   5.276   9.195   4.705
  202POPC   C2B 2855   5.113   9.073   5.146
  202POPC   C3B 2856   5.167   9.116   5.625
  202POPC   C4B 2857   5.196   9.080   6.087
  203POPC   NC3 2858   9.387   2.877   3.913
  203POPC   PO4 2859   9.411   2.204   3.768
  203POPC   GL1 2860   9.478   2.327   4.233
  203POPC   GL2 2861   9.451   2.670   4.370
  203POPC   C1A 2862   9.411   2.201   4.656
  203POPC   D2A 2863   9.359   2.267   5.106
  203POPC   C3A 2864   9.762   2.396   5.290
  203POPC   C4A 2865   9.754   2.358   5.765
  203POPC   C1B 2866   9.587   2.639   4.793
  203POPC   C2B 2867   9.426   2.798   5.126
  203POPC   C3B 2868   9.476   2.715   5.537
  203POPC   C4B 2869   9.403   2.729   5.921
  204POPC   NC3 2870   2.231   5.109   4.102
  204POPC   PO4 2871   1.578   4.904   3.984
  204POPC   GL1 2872   1.721   5.138   4.319
  204POPC   GL2 2873   1.923   4.852   4.401
  204POPC   C1A 2874   1.697   5.405   4.734
  204POPC   D2A 2875   1.885   5.397   5.165
  204POPC   C3A 2876   1.639   5.426   5.555
  204POPC   C4A 2877   1.802   5.151   5.897
  204POPC   C1B 2878   2.058   5.027   4.785
  204POPC   C2B 2879   2.202   4.943   5.191
  204POPC   C3B 2880   2.063   4.848   5.550
  204POPC   C4B 2881   2.193   4.477   5.713
  205POPC   NC3 2882   2.204   5.719   3.668
  205POPC   PO4 2883   1.590   5.724   3.893
  205POPC   GL1 2884   1.955   5.563   4.139
  205POPC   GL2 2885   2.145   5.864   4.175
  205POPC   C1A 2886   2.163   5.534   4.584
  205POPC   D2A 2887   2.110   5.780   4.943
  205POPC   C3A 2888   2.269   5.761   5.394
  205POPC   C4A 2889   2.167   5.360   5.595
  205POPC   C1B 2890   1.791   5.887   4.511
  205POPC   C2B 2891   1.681   6.030   4.924
  205POPC   C3B 2892   1.783   5.929   5.349
  205POPC   C4B 2893   1.924   5.835   5.769
  206POPC   NC3 2894   5.841   0.679   4.004
  206POPC   PO4 2895   6.014   0.051   3.992
  206POPC   GL1 2896   5.791   0.006   4.362
  206POPC   GL2 2897   5.647   0.314   4.329
  206POPC   C1A 2898   5.796   0.095   4.784
  206POPC   D2A 2899   5.525   0.175   5.103
  206POPC   C3A 2900   5.664   0.179   5.475
  206POPC   C4A 2901   6.071   0.232   5.618
  206POPC   C1B 2902   5.497   0.505   4.699
  206POPC   C2B 2903   5.549   0.755   5.071
  206POPC   C3B 2904   5.393   0.790   5.479
  206POPC   C4B 2905   5.716   0.623   5.703
  207POPC   NC3 2906   6.613   1.314   3.999
  207POPC   PO4 2907   6.655   0.722   3.869
  207POPC   GL1 2908   6.543   0.989   4.343
  207POPC   GL2 2909   6.219   1.067   4.455
  207POPC   C1A 2910   6.603   1.208   4.750
  207POPC   D2A 2911   6.551   1.023   5.158
  207POPC   C3A 2912   6.876   1.177   5.423
  207POPC   C4A 2913   6.854   1.364   5.826
  207POPC   C1B 2914   6.115   1.400   4.737
  207POPC   C2B 2915   6.350   1.572   5.075
  207POPC   C3B 2916   6.444   1.426   5.477
  207POPC   C4B 2917   6.444   1.070   5.742
  208POPC   NC3 2918   6.958   3.152   3.607
  208POPC   PO4 2919   6.830   2.679   4.008
  208POPC   GL1 2920   7.140   2.680   4.330
  208POPC   GL2 2921   7.253   2.327   4.327
  208POPC   C1A 2922   7.284   2.963   4.684
  208POPC   D2A 2923   7.209   3.156   5.098
  208POPC   C3A 2924   7.289   3.005   5.526
  208POPC   C4A 2925   7.230   3.048   6.011
  208POPC   C1B 2926   7.387   2.469   4.719
  208POPC   C2B 2927   7.250   2.628   5.081
  208POPC   C3B 2928   7.428   2.526   5.449
  208POPC   C4B 2929   7.295   2.580   5.824
  209POPC   NC3 2930   9.900   3.703   3.679
  209POPC   PO4 2931  10.385   3.972   3.915
  209POPC   GL1 2932  10.197   4.147   4.266
  209POPC   GL2 2933  10.297   4.429   4.359
  209POPC   C1A 2934   9.946   4.190   4.643
  209POPC   D2A 2935   9.735   4.315   5.025
  209POPC   C3A 2936   9.933   4.075   5.336
  209POPC   C4A 2937   9.980   4.146   5.711
  209POPC   C1B 2938  10.450   4.110   4.698
  209POPC   C2B 2939  10.387   3.959   5.097
  209POPC   C3B 2940  10.413   4.263   5.410
  209POPC   C4B 2941  10.383   4.427   5.785
  210POPC   NC3 2942   7.798   3.332   4.124
  210POPC   PO4 2943   8.204   3.718   4.035
  210POPC   GL1 2944   8.136   3.549   4.444
  210POPC   GL2 2945   8.099   3.175   4.521
  210POPC   C1A 2946   8.157   3.535   4.903
  210POPC   D2A 2947   8.116   3.177   5.185
  210POPC   C3A 2948   8.046   3.319   5.618
  210POPC   C4A 2949   7.924   3.654   5.929
  210POPC   C1B 2950   7.718   3.308   4.819
  210POPC   C2B 2951   7.639   3.365   5.290
  210POPC   C3B 2952   7.512   3.424   5.736
  210POPC   C4B 2953   7.583   3.379   6.197
  211POPC   NC3 2954   0.303   8.939   3.994
  211POPC   PO4 2955   0.585   8.344   3.960
  211POPC   GL1 2956   0.543   8.525   4.343
  211POPC   GL2 2957   0.210   8.655   4.395
  211POPC   C1A 2958   0.436   8.368   4.742
  211POPC   D2A 2959   0.452   8.090   5.073
  211POPC   C3A 2960   0.427   8.328   5.431
  211POPC   C4A 2961   0.503   8.572   5.783
  211POPC   C1B 2962   0.480   8.935   4.656
  211POPC   C2B 2963   0.472   9.097   5.052
  211POPC   C3B 2964   0.359   8.885   5.412
  211POPC   C4B 2965   0.172   8.976   5.790
  212POPC   NC3 2966   2.312   6.702   3.903
  212POPC   PO4 2967   1.674   6.719   3.948
  212POPC   GL1 2968   1.745   6.798   4.362
  212POPC   GL2 2969   2.029   6.564   4.350
  212POPC   C1A 2970   1.771   6.661   4.796
  212POPC   D2A 2971   1.731   6.452   5.181
  212POPC   C3A 2972   1.753   6.624   5.574
  212POPC   C4A 2973   1.870   6.411   5.989
  212POPC   C1B 2974   2.103   6.255   4.694
  212POPC   C2B 2975   2.187   6.229   5.140
  212POPC   C3B 2976   2.122   6.261   5.567
  212POPC   C4B 2977   2.383   6.402   5.894
  213POPC   NC3 2978  10.119   4.424   3.848
  213POPC   PO4 2979   9.992   5.100   3.725
  213POPC   GL1 2980   9.991   4.844   4.134
  213POPC   GL2 2981  10.312   4.923   4.197
  213POPC   C1A 2982   9.994   4.714   4.617
  213POPC   D2A 2983  10.217   4.496   4.989
  213POPC   C3A 2984  10.016   4.577   5.403
  213POPC   C4A 2985   9.884   4.620   5.849
  213POPC   C1B 2986  10.293   5.127   4.620
  213POPC   C2B 2987  10.162   5.002   5.037
  213POPC   C3B 2988  10.067   5.067   5.474
  213POPC   C4B 2989  10.251   4.933   5.825
  214POPC   NC3 2990   3.398   2.568   3.753
  214POPC   PO4 2991   3.163   3.096   4.112
  214POPC   GL1 2992   3.484   2.780   4.273
  214POPC   GL2 2993   3.313   2.466   4.279
  214POPC   C1A 2994   3.722   2.719   4.706
  214POPC   D2A 2995   3.810   2.897   5.124
  214POPC   C3A 2996   3.710   2.785   5.558
  214POPC   C4A 2997   3.610   2.643   5.980
  214POPC   C1B 2998   3.219   2.711   4.701
  214POPC   C2B 2999   3.251   2.780   5.149
  214POPC   C3B 3000   3.234   2.573   5.563
  214POPC   C4B 3001   3.141   2.847   5.916
  215POPC   NC3 3002   1.510   8.806   3.834
  215POPC   PO4 3003   2.148   9.177   3.837
  215POPC   GL1 3004   2.028   8.935   4.201
  215POPC   GL2 3005   1.791   8.646   4.249
  215POPC   C1A 3006   2.036   8.853   4.650
  215POPC   D2A 3007   1.899   8.700   5.052
  215POPC   C3A 3008   2.109   8.757   5.421
  215POPC   C4A 3009   2.295   8.824   5.789
  215POPC   C1B 3010   1.700   8.427   4.661
  215POPC   C2B 3011   1.678   8.180   5.037
  215POPC   C3B 3012   1.938   8.241   5.364
  215POPC   C4B 3013   2.056   8.364   5.760
  216POPC   NC3 3014   0.465   9.457   3.702
  216POPC   PO4 3015  10.389   9.039   3.782
  216POPC   GL1 3016  10.469   9.151   4.290
  216POPC   GL2 3017   0.327   9.306   4.353
  216POPC   C1A 3018   0.030   9.237   4.764
  216POPC   D2A 3019   0.191   9.568   5.058
  216POPC   C3A 3020   0.312   9.397   5.448
  216POPC   C4A 3021   0.055   9.523   5.757
  216POPC   C1B 3022   0.555   9.481   4.727
  216POPC   C2B 3023   0.721   9.558   5.172
  216POPC   C3B 3024   0.660   9.741   5.658
  216POPC   C4B 3025   0.758   9.687   6.145
  217POPC   NC3 3026   4.214   7.888   3.934
  217POPC   PO4 3027   3.748   8.244   3.849
  217POPC   GL1 3028   3.846   8.026   4.290
  217POPC   GL2 3029   4.198   7.936   4.437
  217POPC   C1A 3030   3.804   7.813   4.723
  217POPC   D2A 3031   3.800   8.036   5.127
  217POPC   C3A 3032   3.885   7.807   5.527
  217POPC   C4A 3033   4.179   7.739   5.871
  217POPC   C1B 3034   4.311   8.073   4.873
  217POPC   C2B 3035   4.319   7.963   5.301
  217POPC   C3B 3036   4.646   7.873   5.618
  217POPC   C4B 3037   4.835   7.668   5.985
  218POPC   NC3 3038   0.605   7.063   4.041
  218POPC   PO4 3039   0.047   7.124   3.670
  218POPC   GL1 3040   0.145   7.151   4.211
  218POPC   GL2 3041   0.408   7.430   4.341
  218POPC   C1A 3042   0.153   7.169   4.698
  218POPC   D2A 3043   0.406   7.313   5.073
  218POPC   C3A 3044   0.299   7.359   5.509
  218POPC   C4A 3045   0.279   7.430   5.969
  218POPC   C1B 3046   0.679   7.158   4.667
  218POPC   C2B 3047   0.871   7.045   5.053
  218POPC   C3B 3048   0.813   7.282   5.408
  218POPC   C4B 3049   0.663   7.150   5.789
  219POPC   NC3 3050   0.883   0.575   4.213
  219POPC   PO4 3051   0.299   0.392   3.878
  219POPC   GL1 3052   0.412   0.377   4.259
  219POPC   GL2 3053   0.164   0.196   4.328
  219POPC   C1A 3054   0.388   0.547   4.681
  219POPC   D2A 3055   0.692   0.464   5.009
  219POPC   C3A 3056   0.776   0.688   5.389
  219POPC   C4A 3057   0.718   0.463   5.776
  219POPC   C1B 3058   0.083   0.111   4.724
  219POPC   C2B 3059   0.113   0.361   5.077
  219POPC   C3B 3060   0.364   0.381   5.397
  219POPC   C4B 3061   0.164   0.323   5.730
  220POPC   NC3 3062   6.493   2.809   4.297
  220POPC   PO4 3063   6.147   2.327   4.089
  220POPC   GL1 3064   6.394   2.321   4.443
  220POPC   GL2 3065   6.731   2.374   4.414
  220POPC   C1A 3066   6.382   2.442   4.848
  220POPC   D2A 3067   6.418   2.730   5.174
  220POPC   C3A 3068   6.308   2.555   5.551
  220POPC   C4A 3069   6.268   2.743   5.984
  220POPC   C1B 3070   6.895   2.432   4.756
  220POPC   C2B 3071   6.805   2.395   5.148
  220POPC   C3B 3072   6.887   2.666   5.445
  220POPC   C4B 3073   6.751   2.571   5.804
  221POPC   NC3 3074   1.747   8.151   4.063
  221POPC   PO4 3075   1.590   7.524   3.979
  221POPC   GL1 3076   1.998   7.728   4.225
  221POPC   GL2 3077   2.035   8.057   4.454
  221POPC   C1A 3078   2.235   7.639   4.660
  221POPC   D2A 3079   2.216   7.927   5.018
  221POPC   C3A 3080   2.140   7.728   5.412
  221POPC   C4A 3081   2.192   7.449   5.748
  221POPC   C1B 3082   1.740   7.814   4.675
  221POPC   C2B 3083   1.747   7.616   5.057
  221POPC   C3B 3084   1.631   7.669   5.462
  221POPC   C4B 3085   1.818   7.914   5.777
  222POPC   NC3 3086   1.076   7.790   3.885
  222POPC   PO4 3087   1.373   8.420   4.031
  222POPC   GL1 3088   1.337   8.210   4.380
  222POPC   GL2 3089   1.398   7.870   4.280
  222POPC   C1A 3090   1.196   8.264   4.797
  222POPC   D2A 3091   0.960   8.212   5.179
  222POPC   C3A 3092   1.276   8.274   5.503
  222POPC   C4A 3093   1.531   8.322   5.890
  222POPC   C1B 3094   1.225   7.780   4.628
  222POPC   C2B 3095   1.282   7.819   5.042
  222POPC   C3B 3096   1.112   7.793   5.417
  222POPC   C4B 3097   1.299   7.865   5.797
  223POPC   NC3 3098   0.205   7.947   3.906
  223POPC   PO4 3099   0.736   7.843   3.578
  223POPC   GL1 3100   0.654   7.873   4.154
  223POPC   GL2 3101   0.345   8.007   4.378
  223POPC   C1A 3102   0.750   7.940   4.652
  223POPC   D2A 3103   0.788   7.651   5.021
  223POPC   C3A 3104   0.608   7.774   5.435
  223POPC   C4A 3105   0.781   8.094   5.712
  223POPC   C1B 3106   0.256   7.726   4.752
  223POPC   C2B 3107   0.079   7.715   5.181
  223POPC   C3B 3108   0.140   7.819   5.633
  223POPC   C4B 3109   0.150   8.195   5.855
  224POPC   NC3 3110  10.146   3.663   4.149
  224POPC   PO4 3111   9.686   3.277   3.746
  224POPC   GL1 3112   9.856   3.220   4.226
  224POPC   GL2 3113  10.209   3.169   4.280
  224POPC   C1A 3114   9.971   3.388   4.702
  224POPC   D2A 3115  10.225   3.448   5.101
  224POPC   C3A 3116  10.076   3.579   5.519
  224POPC   C4A 3117   9.975   3.711   5.950
  224POPC   C1B 3118  10.437   3.086   4.645
  224POPC   C2B 3119  10.486   3.004   5.067
  224POPC   C3B 3120  10.314   3.070   5.466
  224POPC   C4B 3121  10.306   3.246   5.863
  225POPC   NC3 3122   1.854   0.508   3.987
  225POPC   PO4 3123   2.312   0.860   3.914
  225POPC   GL1 3124   2.256   0.596   4.292
  225POPC   GL2 3125   1.880   0.484   4.470
  225POPC   C1A 3126   2.238   0.721   4.704
  225POPC   D2A 3127   1.949   0.529   4.969
  225POPC   C3A 3128   2.084   0.623   5.352
  225POPC   C4A 3129   2.160   0.520   5.773
  225POPC   C1B 3130   1.589   0.176   4.687
  225POPC   C2B 3131   1.652   0.082   5.107
  225POPC   C3B 3132   1.603   0.455   5.341
  225POPC   C4B 3133   1.619   0.581   5.753
  226POPC   NC3 3134   7.317   1.588   3.981
  226POPC   PO4 3135   7.976   1.431   3.924
  226POPC   GL1 3136   7.715   1.604   4.332
  226POPC   GL2 3137   7.391   1.836   4.397
  226POPC   C1A 3138   7.523   1.548   4.778
  226POPC   D2A 3139   7.529   1.705   5.199
  226POPC   C3A 3140   7.157   1.667   5.466
  226POPC   C4A 3141   7.142   1.776   5.886
  226POPC   C1B 3142   7.173   1.986   4.768
  226POPC   C2B 3143   7.247   2.128   5.191
  226POPC   C3B 3144   7.059   2.190   5.609
  226POPC   C4B 3145   6.867   2.152   6.062
  227POPC   NC3 3146   7.903   8.007   3.970
  227POPC   PO4 3147   8.406   7.563   4.002
  227POPC   GL1 3148   8.179   7.639   4.364
  227POPC   GL2 3149   7.889   7.864   4.443
  227POPC   C1A 3150   8.074   7.559   4.788
  227POPC   D2A 3151   8.177   7.794   5.153
  227POPC   C3A 3152   8.128   7.590   5.549
  227POPC   C4A 3153   7.914   7.565   5.920
  227POPC   C1B 3154   7.624   7.795   4.805
  227POPC   C2B 3155   7.700   7.965   5.193
  227POPC   C3B 3156   7.624   7.887   5.613
  227POPC   C4B 3157   7.766   8.064   6.003
  228POPC   NC3 3158   4.358   2.651   3.961
  228POPC   PO4 3159   3.813   2.233   3.928
  228POPC   GL1 3160   3.852   2.401   4.321
  228POPC   GL2 3161   4.123   2.599   4.395
  228POPC   C1A 3162   3.968   2.270   4.732
  228POPC   D2A 3163   4.087   2.428   5.136
  228POPC   C3A 3164   4.188   2.603   5.506
  228POPC   C4A 3165   4.064   2.453   5.858
  228POPC   C1B 3166   4.314   2.702   4.787
  228POPC   C2B 3167   4.331   2.949   5.164
  228POPC   C3B 3168   4.311   3.085   5.607
  228POPC   C4B 3169   4.531   2.903   5.999
  229POPC   NC3 3170   9.697   5.331   3.992
  229POPC   PO4 3171   9.140   5.095   3.672
  229POPC   GL1 3172   9.253   4.925   4.204
  229POPC   GL2 3173   9.546   5.021   4.340
  229POPC   C1A 3174   9.176   5.052   4.683
  229POPC   D2A 3175   9.336   5.282   5.096
  229POPC   C3A 3176   9.193   5.127   5.547
  229POPC   C4A 3177   9.078   5.163   6.020
  229POPC   C1B 3178   9.697   5.123   4.740
  229POPC   C2B 3179   9.676   4.876   5.123
  229POPC   C3B 3180   9.523   4.733   5.516
  229POPC   C4B 3181   9.412   4.762   5.969
  230POPC   NC3 3182   7.952   7.211   3.920
  230POPC   PO4 3183   7.502   7.726   3.990
  230POPC   GL1 3184   7.641   7.438   4.373
  230POPC   GL2 3185   7.944   7.206   4.416
  230POPC   C1A 3186   7.639   7.275   4.817
  230POPC   D2A 3187   7.771   7.445   5.223
  230POPC   C3A 3188   7.526   7.381   5.623
  230POPC   C4A 3189   7.553   7.183   6.050
  230POPC   C1B 3190   8.105   7.009   4.789
  230POPC   C2B 3191   7.998   6.904   5.263
  230POPC   C3B 3192   7.954   7.063   5.727
  230POPC   C4B 3193   8.060   7.157   6.190
  231POPC   NC3 3194  10.429   6.329   3.969
  231POPC   PO4 3195   9.909   6.031   4.074
  231POPC   GL1 3196  10.121   6.274   4.369
  231POPC   GL2 3197  10.163   6.639   4.308
  231POPC   C1A 3198  10.298   6.281   4.775
  231POPC   D2A 3199  10.064   6.330   5.129
  231POPC   C3A 3200  10.246   6.084   5.449
  231POPC   C4A 3201  10.264   6.182   5.833
  231POPC   C1B 3202  10.308   6.782   4.745
  231POPC   C2B 3203  10.424   6.690   5.170
  231POPC   C3B 3204  10.142   6.593   5.561
  231POPC   C4B 3205   9.933   6.501   5.994
  232POPC   NC3 3206   5.610  10.313   3.920
  232POPC   PO4 3207   5.914   9.733   3.925
  232POPC   GL1 3208   5.879   9.995   4.277
  232POPC   GL2 3209   5.529  10.048   4.332
  232POPC   C1A 3210   5.818  10.084   4.735
  232POPC   D2A 3211   5.851  10.229   5.151
  232POPC   C3A 3212   6.050   9.976   5.469
  232POPC   C4A 3213   5.803  10.254   5.703
  232POPC   C1B 3214   5.221   9.976   4.631
  232POPC   C2B 3215   5.367  10.021   5.025
  232POPC   C3B 3216   5.531   9.921   5.411
  232POPC   C4B 3217   5.271   9.884   5.786
  233POPC   NC3 3218   0.488  10.436   3.906
  233POPC   PO4 3219   0.292   9.699   4.049
  233POPC   GL1 3220   0.443   9.906   4.378
  233POPC   GL2 3221   0.350  10.230   4.352
  233POPC   C1A 3222   0.504  10.004   4.793
  233POPC   D2A 3223   0.548  10.018   5.227
  233POPC   C3A 3224   0.215   9.895   5.461
  233POPC   C4A 3225   0.243  10.077   5.817
  233POPC   C1B 3226   0.593   0.003   4.618
  233POPC   C2B 3227   0.466  10.495   5.044
  233POPC   C3B 3228   0.249  10.403   5.412
  233POPC   C4B 3229   0.537  10.485   5.718
  234POPC   NC3 3230  10.486  10.038   4.046
  234POPC   PO4 3231  10.275   0.080   4.018
  234POPC   GL1 3232  10.264  10.364   4.403
  234POPC   GL2 3233  10.063  10.095   4.466
  234POPC   C1A 3234  10.169  10.349   4.858
  234POPC   D2A 3235  10.019   0.054   5.120
  234POPC   C3A 3236  10.287   0.168   5.423
  234POPC   C4A 3237  10.383  10.432   5.795
  234POPC   C1B 3238  10.457   9.943   4.677
  234POPC   C2B 3239   0.073  10.113   5.034
  234POPC   C3B 3240  10.284  10.156   5.369
  234POPC   C4B 3241  10.118  10.015   5.781
  235POPC   NC3 3242   3.403   0.662   4.015
  235POPC   PO4 3243   3.300  10.482   3.993
  235POPC   GL1 3244   3.564   0.179   4.301
  235POPC   GL2 3245   3.438   0.469   4.465
  235POPC   C1A 3246   3.655   0.092   4.750
  235POPC   D2A 3247   3.314   0.048   5.097
  235POPC   C3A 3248   3.420   0.183   5.530
  235POPC   C4A 3249   3.546   0.315   5.965
  235POPC   C1B 3250   3.101   0.314   4.675
  235POPC   C2B 3251   3.002   0.489   5.059
  235POPC   C3B 3252   2.976   0.363   5.441
  235POPC   C4B 3253   3.171   0.590   5.763
  236POPC   NC3 3254   9.649   6.347   3.864
  236POPC   PO4 3255   9.140   6.653   4.164
  236POPC   GL1 3256   9.603   6.537   4.322
  236POPC   GL2 3257   9.599   6.162   4.459
  236POPC   C1A 3258   9.839   6.527   4.696
  236POPC   D2A 3259   9.536   6.640   4.970
  236POPC   C3A 3260   9.643   6.516   5.345
  236POPC   C4A 3261   9.641   6.740   5.674
  236POPC   C1B 3262   9.606   6.146   4.945
  236POPC   C2B 3263   9.207   6.296   5.189
  236POPC   C3B 3264   9.207   6.417   5.612
  236POPC   C4B 3265   9.587   6.205   5.743
  237POPC   NC3 3266   1.176   4.575   3.969
  237POPC   PO4 3267   0.832   5.155   3.899
  237POPC   GL1 3268   1.135   4.967   4.303
  237POPC   GL2 3269   1.425   4.680   4.398
  237POPC   C1A 3270   1.066   4.794   4.759
  237POPC   D2A 3271   0.971   5.055   5.134
  237POPC   C3A 3272   1.061   4.944   5.567
  237POPC   C4A 3273   1.311   5.131   5.919
  237POPC   C1B 3274   1.542   4.928   4.737
  237POPC   C2B 3275   1.479   5.099   5.136
  237POPC   C3B 3276   1.560   4.896   5.516
  237POPC   C4B 3277   1.359   4.538   5.715
  238POPC   NC3 3278   8.647   8.396   4.067
  238POPC   PO4 3279   8.411   8.973   3.998
  238POPC   GL1 3280   8.507   8.793   4.363
  238POPC   GL2 3281   8.884   8.750   4.339
  238POPC   C1A 3282   8.650   8.832   4.767
  238POPC   D2A 3283   8.657   8.611   5.123
  238POPC   C3A 3284   8.746   8.856   5.452
  238POPC   C4A 3285   8.497   8.959   5.766
  238POPC   C1B 3286   8.890   8.387   4.691
  238POPC   C2B 3287   9.062   8.187   5.084
  238POPC   C3B 3288   8.911   8.354   5.492
  238POPC   C4B 3289   8.519   8.447   5.735
  239POPC   NC3 3290   7.244   8.142   3.946
  239POPC   PO4 3291   6.957   8.761   3.808
  239POPC   GL1 3292   7.022   8.735   4.250
  239POPC   GL2 3293   7.208   8.483   4.339
  239POPC   C1A 3294   7.011   8.867   4.682
  239POPC   D2A 3295   7.208   8.897   5.099
  239POPC   C3A 3296   6.952   8.638   5.356
  239POPC   C4A 3297   6.802   8.560   5.757
  239POPC   C1B 3298   7.509   8.713   4.637
  239POPC   C2B 3299   7.733   8.731   5.043
  239POPC   C3B 3300   7.575   8.848   5.469
  239POPC   C4B 3301   7.294   8.627   5.744
  240POPC   NC3 3302   4.283   0.959   3.863
  240POPC   PO4 3303   3.855   1.470   3.865
  240POPC   GL1 3304   3.974   1.178   4.218
  240POPC   GL2 3305   4.290   1.105   4.339
  240POPC   C1A 3306   3.899   1.181   4.684
  240POPC   D2A 3307   4.139   1.304   5.074
  240POPC   C3A 3308   4.078   1.103   5.470
  240POPC   C4A 3309   3.980   1.260   5.863
  240POPC   C1B 3310   4.337   0.957   4.723
  240POPC   C2B 3311   4.178   0.764   5.058
  240POPC   C3B 3312   4.277   0.630   5.414
  240POPC   C4B 3313   4.326   0.788   5.803
  241POPC   NC3 3314   9.891   9.335   3.883
  241POPC   PO4 3315  10.040   9.949   4.006
  241POPC   GL1 3316   9.893   9.648   4.282
  241POPC   GL2 3317  10.232   9.592   4.382
  241POPC   C1A 3318   9.854   9.718   4.717
  241POPC   D2A 3319  10.180   9.575   4.998
  241POPC   C3A 3320  10.178   9.651   5.438
  241POPC   C4A 3321   9.855   9.583   5.791
  241POPC   C1B 3322  10.022   9.234   4.599
  241POPC   C2B 3323  10.090   9.052   5.001
  241POPC   C3B 3324  10.359   9.166   5.327
  241POPC   C4B 3325  10.188   9.188   5.723
  242POPC   NC3 3326   6.332   7.785   4.008
  242POPC   PO4 3327   6.309   8.403   4.072
  242POPC   GL1 3328   6.682   8.339   4.272
  242POPC   GL2 3329   6.542   8.056   4.404
  242POPC   C1A 3330   6.824   8.383   4.698
  242POPC   D2A 3331   6.922   8.160   5.076
  242POPC   C3A 3332   6.673   8.177   5.425
  242POPC   C4A 3333   6.738   8.067   5.829
  242POPC   C1B 3334   6.494   7.999   4.848
  242POPC   C2B 3335   6.524   7.742   5.205
  242POPC   C3B 3336   6.393   7.751   5.630
  242POPC   C4B 3337   6.547   7.596   6.031
  243POPC   NC3 3338   8.631   0.851   3.914
  243POPC   PO4 3339   8.764   1.548   3.974
  243POPC   GL1 3340   8.769   1.205   4.266
  243POPC   GL2 3341   8.996   1.395   4.423
  243POPC   C1A 3342   8.879   0.962   4.669
  243POPC   D2A 3343   8.692   1.019   5.107
  243POPC   C3A 3344   8.796   0.742   5.456
  243POPC   C4A 3345   8.693   0.910   5.853
  243POPC   C1B 3346   8.767   1.475   4.824
  243POPC   C2B 3347   8.747   1.521   5.284
  243POPC   C3B 3348   8.590   1.341   5.616
  243POPC   C4B 3349   8.591   1.409   6.057
  244POPC   NC3 3350   2.571   9.481   3.817
  244POPC   PO4 3351   2.929   8.978   4.057
  244POPC   GL1 3352   2.538   9.177   4.254
  244POPC   GL2 3353   2.685   9.465   4.311
  244POPC   C1A 3354   2.305   9.299   4.631
  244POPC   D2A 3355   2.349   9.055   5.027
  244POPC   C3A 3356   2.281   9.237   5.424
  244POPC   C4A 3357   2.484   9.285   5.830
  244POPC   C1B 3358   2.839   9.365   4.707
  244POPC   C2B 3359   2.860   9.574   5.093
  244POPC   C3B 3360   2.621   9.613   5.460
  244POPC   C4B 3361   2.720   9.732   5.890
  245POPC   NC3 3362   5.781   8.619   4.034
  245POPC   PO4 3363   5.323   8.241   4.100
  245POPC   GL1 3364   5.316   8.656   4.313
  245POPC   GL2 3365   5.600   8.850   4.445
  245POPC   C1A 3366   5.254   8.701   4.758
  245POPC   D2A 3367   5.443   8.495   5.093
  245POPC   C3A 3368   5.303   8.665   5.441
  245POPC   C4A 3369   5.440   8.689   5.839
  245POPC   C1B 3370   5.796   8.657   4.745
  245POPC   C2B 3371   5.954   8.593   5.151
  245POPC   C3B 3372   5.806   8.475   5.533
  245POPC   C4B 3373   5.964   8.688   5.884
  246POPC   NC3 3374   9.216   3.436   3.806
  246POPC   PO4 3375   9.689   3.694   4.099
  246POPC   GL1 3376   9.383   3.544   4.332
  246POPC   GL2 3377   9.352   3.209   4.275
  246POPC   C1A 3378   9.426   3.614   4.745
  246POPC   D2A 3379   9.734   3.759   5.010
  246POPC   C3A 3380   9.570   3.688   5.437
  246POPC   C4A 3381   9.567   3.458   5.841
  246POPC   C1B 3382   9.542   3.121   4.675
  246POPC   C2B 3383   9.625   3.268   5.116
  246POPC   C3B 3384   9.339   3.186   5.489
  246POPC   C4B 3385   9.097   3.168   5.883
  247POPC   NC3 3386   0.271   1.841   3.868
  247POPC   PO4 3387   0.822   1.891   4.136
  247POPC   GL1 3388   0.528   1.642   4.373
  247POPC   GL2 3389   0.147   1.712   4.343
  247POPC   C1A 3390   0.407   1.738   4.782
  247POPC   D2A 3391   0.505   1.934   5.136
  247POPC   C3A 3392   0.583   1.686   5.452
  247POPC   C4A 3393   0.761   1.666   5.824
  247POPC   C1B 3394   0.192   2.143   4.561
  247POPC   C2B 3395   0.067   2.145   5.012
  247POPC   C3B 3396   0.193   2.206   5.441
  247POPC   C4B 3397   0.323   1.962   5.796
  248POPC   NC3 3398   9.457   0.189   3.852
  248POPC   PO4 3399   9.077   0.800   3.833
  248POPC   GL1 3400   9.238   0.571   4.224
  248POPC   GL2 3401   9.430   0.350   4.364
  248POPC   C1A 3402   9.319   0.681   4.712
  248POPC   D2A 3403   9.176   0.866   5.102
  248POPC   C3A 3404   9.367   0.737   5.521
  248POPC   C4A 3405   9.793   0.772   5.752
  248POPC   C1B 3406   9.339   0.119   4.759
  248POPC   C2B 3407   9.515   0.007   5.165
  248POPC   C3B 3408   9.422   0.206   5.563
  248POPC   C4B 3409   9.227   0.215   5.936
  249POPC   NC3 3410   8.463   3.301   3.949
  249POPC   PO4 3411   8.853   3.816   3.869
  249POPC   GL1 3412   8.681   3.649   4.237
  249POPC   GL2 3413   8.890   3.414   4.259
  249POPC   C1A 3414   8.577   3.441   4.645
  249POPC   D2A 3415   8.611   3.278   5.059
  249POPC   C3A 3416   8.428   3.563   5.332
  249POPC   C4A 3417   8.378   3.714   5.720
  249POPC   C1B 3418   9.041   3.261   4.664
  249POPC   C2B 3419   9.127   3.378   5.078
  249POPC   C3B 3420   8.911   3.462   5.472
  249POPC   C4B 3421   8.569   3.202   5.658
  250POPC   NC3 3422  10.217   5.724   3.849
  250POPC   PO4 3423   0.280   5.543   4.013
  250POPC   GL1 3424   0.100   5.582   4.410
  250POPC   GL2 3425  10.332   5.796   4.336
  250POPC   C1A 3426  10.485   5.548   4.838
  250POPC   D2A 3427   0.014   5.331   5.217
  250POPC   C3A 3428  10.252   5.543   5.482
  250POPC   C4A 3429  10.461   5.737   5.786
  250POPC   C1B 3430  10.085   5.831   4.657
  250POPC   C2B 3431  10.094   5.833   5.052
  250POPC   C3B 3432   9.776   5.892   5.361
  250POPC   C4B 3433   9.900   5.810   5.775
  251POPC   NC3 3434   9.061   9.852   3.673
  251POPC   PO4 3435   9.435   9.273   3.806
  251POPC   GL1 3436   9.236   9.409   4.181
  251POPC   GL2 3437   9.389   9.132   4.326
  251POPC   C1A 3438   9.310   9.628   4.597
  251POPC   D2A 3439   9.339   9.822   5.022
  251POPC   C3A 3440   9.459   9.679   5.405
  251POPC   C4A 3441   9.422   9.863   5.797
  251POPC   C1B 3442   9.515   9.204   4.717
  251POPC   C2B 3443   9.677   9.386   5.029
  251POPC   C3B 3444   9.817   9.311   5.367
  251POPC   C4B 3445   9.507   9.234   5.653
  252POPC   NC3 3446   3.087   5.498   4.081
  252POPC   PO4 3447   2.453   5.484   3.962
  252POPC   GL1 3448   2.615   5.562   4.319
  252POPC   GL2 3449   2.590   5.906   4.421
  252POPC   C1A 3450   2.648   5.466   4.748
  252POPC   D2A 3451   2.412   5.382   5.102
  252POPC   C3A 3452   2.654   5.309   5.500
  252POPC   C4A 3453   2.619   5.365   5.959
  252POPC   C1B 3454   2.572   5.959   4.880
  252POPC   C2B 3455   2.761   5.745   5.229
  252POPC   C3B 3456   2.803   5.776   5.671
  252POPC   C4B 3457   2.844   6.160   5.946
  253POPC   NC3 3458   2.046   3.424   3.817
  253POPC   PO4 3459   1.462   3.311   4.064
  253POPC   GL1 3460   1.829   3.227   4.250
  253POPC   GL2 3461   1.893   3.541   4.328
  253POPC   C1A 3462   1.922   3.143   4.684
  253POPC   D2A 3463   1.734   3.241   5.084
  253POPC   C3A 3464   1.942   3.187   5.469
  253POPC   C4A 3465   2.140   3.501   5.717
  253POPC   C1B 3466   1.813   3.648   4.759
  253POPC   C2B 3467   2.092   3.599   5.133
  253POPC   C3B 3468   1.767   3.687   5.399
  253POPC   C4B 3469   1.671   3.683   5.799
  254POPC   NC3 3470   0.299   4.116   3.827
  254POPC   PO4 3471   0.917   4.159   3.902
  254POPC   GL1 3472   0.569   4.299   4.212
  254POPC   GL2 3473   0.230   4.154   4.304
  254POPC   C1A 3474   0.491   4.389   4.658
  254POPC   D2A 3475   0.246   4.353   5.032
  254POPC   C3A 3476   0.398   4.437   5.429
  254POPC   C4A 3477   0.388   4.244   5.802
  254POPC   C1B 3478   0.467   3.883   4.552
  254POPC   C2B 3479   0.527   3.899   4.995
  254POPC   C3B 3480   0.308   3.932   5.389
  254POPC   C4B 3481  10.477   3.891   5.746
  255POPC   NC3 3482   5.064   1.279   3.912
  255POPC   PO4 3483   4.671   0.776   3.666
  255POPC   GL1 3484   4.731   0.987   4.106
  255POPC   GL2 3485   5.020   0.886   4.252
  255POPC   C1A 3486   4.760   1.204   4.535
  255POPC   D2A 3487   4.661   1.287   4.972
  255POPC   C3A 3488   4.570   1.026   5.319
  255POPC   C4A 3489   4.508   1.246   5.724
  255POPC   C1B 3490   5.090   0.823   4.684
  255POPC   C2B 3491   5.107   1.038   5.092
  255POPC   C3B 3492   4.986   1.263   5.469
  255POPC   C4B 3493   4.972   0.995   5.804
  256POPC   NC3 3494   8.014   8.791   3.846
  256POPC   PO4 3495   7.631   8.352   4.077
  256POPC   GL1 3496   7.843   8.376   4.390
  256POPC   GL2 3497   7.960   8.698   4.348
  256POPC   C1A 3498   7.836   8.268   4.801
  256POPC   D2A 3499   8.086   8.330   5.168
  256POPC   C3A 3500   7.788   8.363   5.497
  256POPC   C4A 3501   7.758   8.544   5.868
  256POPC   C1B 3502   8.190   8.619   4.736
  256POPC   C2B 3503   8.222   8.876   5.126
  256POPC   C3B 3504   8.085   8.780   5.555
  256POPC   C4B 3505   8.076   8.881   6.039
  257POPC   NC3 3506   2.801   4.422   3.650
  257POPC   PO4 3507   2.336   4.665   4.060
  257POPC   GL1 3508   2.254   4.442   4.436
  257POPC   GL2 3509   2.511   4.189   4.358
  257POPC   C1A 3510   2.247   4.492   4.905
  257POPC   D2A 3511   2.578   4.524   5.206
  257POPC   C3A 3512   2.632   4.274   5.559
  257POPC   C4A 3513   2.580   4.393   5.992
  257POPC   C1B 3514   2.664   4.237   4.779
  257POPC   C2B 3515   2.972   4.163   5.094
  257POPC   C3B 3516   3.147   4.234   5.503
  257POPC   C4B 3517   3.009   4.144   5.919
  258POPC   NC3 3518   5.745   1.346   3.852
  258POPC   PO4 3519   5.406   0.846   3.946
  258POPC   GL1 3520   5.431   1.201   4.250
  258POPC   GL2 3521   5.762   1.281   4.350
  258POPC   C1A 3522   5.327   1.279   4.679
  258POPC   D2A 3523   5.625   1.263   5.051
  258POPC   C3A 3524   5.485   1.293   5.481
  258POPC   C4A 3525   5.347   1.352   5.954
  258POPC   C1B 3526   5.771   0.955   4.650
  258POPC   C2B 3527   6.050   0.946   5.013
  258POPC   C3B 3528   5.994   1.115   5.440
  258POPC   C4B 3529   5.802   1.112   5.846
  259POPC   NC3 3530   9.257   5.841   4.105
  259POPC   PO4 3531   9.783   5.681   3.708
  259POPC   GL1 3532   9.691   5.673   4.334
  259POPC   GL2 3533   9.388   5.525   4.494
  259POPC   C1A 3534   9.665   5.646   4.857
  259POPC   D2A 3535   9.862   5.399   5.138
  259POPC   C3A 3536   9.681   5.403   5.493
  259POPC   C4A 3537   9.681   5.161   5.832
  259POPC   C1B 3538   9.227   5.910   4.741
  259POPC   C2B 3539   9.245   5.792   5.172
  259POPC   C3B 3540   9.196   5.896   5.590
  259POPC   C4B 3541   9.335   5.548   5.820
  260POPC   NC3 3542   6.112   9.300   3.908
  260POPC   PO4 3543   5.518   9.026   3.992
  260POPC   GL1 3544   5.739   9.304   4.275
  260POPC   GL2 3545   5.535   9.559   4.238
  260POPC   C1A 3546   5.812   9.204   4.740
  260POPC   D2A 3547   5.608   8.992   5.086
  260POPC   C3A 3548   5.729   8.993   5.513
  260POPC   C4A 3549   5.676   9.121   5.942
  260POPC   C1B 3550   5.548   9.623   4.696
  260POPC   C2B 3551   5.403   9.494   5.139
  260POPC   C3B 3552   5.494   9.473   5.612
  260POPC   C4B 3553   5.770   9.770   5.855
  261POPC   NC3 3554   9.362   6.980   3.911
  261POPC   PO4 3555   9.674   7.589   3.812
  261POPC   GL1 3556   9.542   7.595   4.243
  261POPC   GL2 3557   9.362   7.304   4.311
  261POPC   C1A 3558   9.653   7.456   4.670
  261POPC   D2A 3559   9.775   7.410   5.089
  261POPC   C3A 3560   9.540   7.186   5.366
  261POPC   C4A 3561   9.602   7.233   5.792
  261POPC   C1B 3562   9.137   7.391   4.692
  261POPC   C2B 3563   9.270   7.088   4.948
  261POPC   C3B 3564   9.183   6.815   5.282
  261POPC   C4B 3565   9.192   6.950   5.673
  262POPC   NC3 3566   2.757   1.805   3.665
  262POPC   PO4 3567   2.955   2.429   3.849
  262POPC   GL1 3568   2.858   2.253   4.386
  262POPC   GL2 3569   2.761   1.859   4.505
  262POPC   C1A 3570   2.758   2.163   4.879
  262POPC   D2A 3571   3.047   2.296   5.169
  262POPC   C3A 3572   2.981   2.090   5.583
  262POPC   C4A 3573   2.813   2.065   5.992
  262POPC   C1B 3574   2.443   1.705   4.710
  262POPC   C2B 3575   2.298   1.902   5.064
  262POPC   C3B 3576   2.491   1.984   5.424
  262POPC   C4B 3577   2.472   1.736   5.754
  263POPC   NC3 3578   4.145   1.912   3.854
  263POPC   PO4 3579   4.675   1.527   3.903
  263POPC   GL1 3580   4.305   1.630   4.257
  263POPC   GL2 3581   4.226   2.028   4.334
  263POPC   C1A 3582   4.097   1.701   4.713
  263POPC   D2A 3583   3.872   1.935   5.077
  263POPC   C3A 3584   3.860   1.782   5.489
  263POPC   C4A 3585   4.212   1.663   5.702
  263POPC   C1B 3586   4.468   2.191   4.688
  263POPC   C2B 3587   4.387   2.008   5.093
  263POPC   C3B 3588   4.350   2.122   5.523
  263POPC   C4B 3589   4.590   2.402   5.801
  264POPC   NC3 3590   2.935  10.216   3.987
  264POPC   PO4 3591   2.319   0.060   3.924
  264POPC   GL1 3592   2.529  10.298   4.286
  264POPC   GL2 3593   2.545   9.934   4.177
  264POPC   C1A 3594   2.833  10.350   4.677
  264POPC   D2A 3595   2.792  10.496   5.121
  264POPC   C3A 3596   3.022  10.371   5.506
  264POPC   C4A 3597   2.898  10.197   5.895
  264POPC   C1B 3598   2.484   9.824   4.632
  264POPC   C2B 3599   2.574  10.010   5.054
  264POPC   C3B 3600   2.544  10.128   5.501
  264POPC   C4B 3601   2.375  10.096   5.945
  265POPC   NC3 3602   4.316   0.353   3.747
  265POPC   PO4 3603   3.816   0.825   3.842
  265POPC   GL1 3604   3.917   0.647   4.255
  265POPC   GL2 3605   4.065   0.289   4.277
  265POPC   C1A 3606   3.852   0.609   4.706
  265POPC   D2A 3607   3.608   0.469   5.092
  265POPC   C3A 3608   3.820   0.477   5.499
  265POPC   C4A 3609   3.813   0.779   5.828
  265POPC   C1B 3610   4.282   0.346   4.692
  265POPC   C2B 3611   4.091   0.246   5.053
  265POPC   C3B 3612   4.231   0.100   5.404
  265POPC   C4B 3613   4.245   0.293   5.786
  266POPC   NC3 3614   1.298   6.976   3.890
  266POPC   PO4 3615   0.909   7.407   4.090
  266POPC   GL1 3616   1.069   7.070   4.327
  266POPC   GL2 3617   1.403   7.232   4.346
  266POPC   C1A 3618   1.311   6.848   4.639
  266POPC   D2A 3619   1.298   6.706   5.048
  266POPC   C3A 3620   1.199   6.891   5.453
  266POPC   C4A 3621   1.296   6.954   5.889
  266POPC   C1B 3622   1.187   7.315   4.773
  266POPC   C2B 3623   1.312   7.329   5.207
  266POPC   C3B 3624   1.237   7.380   5.649
  266POPC   C4B 3625   0.866   7.596   5.852
  267POPC   NC3 3626   7.584   2.449   3.945
  267POPC   PO4 3627   8.075   2.961   4.022
  267POPC   GL1 3628   7.989   2.607   4.255
  267POPC   GL2 3629   7.668   2.687   4.364
  267POPC   C1A 3630   8.076   2.435   4.655
  267POPC   D2A 3631   8.146   2.684   5.030
  267POPC   C3A 3632   8.113   2.495   5.422
  267POPC   C4A 3633   7.827   2.473   5.762
  267POPC   C1B 3634   7.771   2.821   4.721
  267POPC   C2B 3635   7.668   2.886   5.106
  267POPC   C3B 3636   7.803   2.890   5.470
  267POPC   C4B 3637   7.702   2.966   5.850
  268POPC   NC3 3638   1.677   9.297   3.868
  268POPC   PO4 3639   1.558   9.975   3.716
  268POPC   GL1 3640   1.873   9.839   4.136
  268POPC   GL2 3641   2.029   9.501   4.199
  268POPC   C1A 3642   1.973   9.743   4.634
  268POPC   D2A 3643   2.194   9.626   5.047
  268POPC   C3A 3644   1.925   9.597   5.433
  268POPC   C4A 3645   2.064   9.601   5.878
  268POPC   C1B 3646   1.766   9.277   4.516
  268POPC   C2B 3647   1.869   9.236   4.941
  268POPC   C3B 3648   1.732   9.122   5.319
  268POPC   C4B 3649   1.885   9.140   5.722
  269POPC   NC3 3650   9.137   1.866   3.901
  269POPC   PO4 3651   8.445   2.097   4.006
  269POPC   GL1 3652   8.814   2.121   4.283
  269POPC   GL2 3653   8.735   1.822   4.432
  269POPC   C1A 3654   8.919   2.187   4.759
  269POPC   D2A 3655   8.694   2.012   5.131
  269POPC   C3A 3656   8.723   2.219   5.526
  269POPC   C4A 3657   8.664   1.850   5.782
  269POPC   C1B 3658   8.435   2.070   4.688
  269POPC   C2B 3659   8.195   2.137   5.059
  269POPC   C3B 3660   8.268   2.018   5.479
  269POPC   C4B 3661   8.278   2.225   5.880
  270POPC   NC3 3662   2.825   2.866   3.892
  270POPC   PO4 3663   2.389   2.431   4.214
  270POPC   GL1 3664   2.492   2.826   4.293
  270POPC   GL2 3665   2.838   2.802   4.380
  270POPC   C1A 3666   2.419   3.010   4.674
  270POPC   D2A 3667   2.222   3.001   5.079
  270POPC   C3A 3668   2.380   2.880   5.466
  270POPC   C4A 3669   2.356   3.044   5.866
  270POPC   C1B 3670   2.726   2.632   4.743
  270POPC   C2B 3671   2.734   2.731   5.134
  270POPC   C3B 3672   2.674   2.472   5.469
  270POPC   C4B 3673   2.723   2.562   5.854
  271POPC   NC3 3674  10.101   8.701   3.647
  271POPC   PO4 3675  10.161   8.045   3.721
  271POPC   GL1 3676  10.104   8.363   4.102
  271POPC   GL2 3677  10.215   8.708   4.165
  271POPC   C1A 3678   9.958   8.346   4.557
  271POPC   D2A 3679  10.039   8.510   5.006
  271POPC   C3A 3680   9.937   8.342   5.384
  271POPC   C4A 3681   9.887   8.431   5.786
  271POPC   C1B 3682  10.283   8.766   4.626
  271POPC   C2B 3683   0.014   8.741   5.045
  271POPC   C3B 3684  10.373   8.676   5.502
  271POPC   C4B 3685  10.261   8.744   5.950
  272POPC   NC3 3686   8.887   4.747   3.934
  272POPC   PO4 3687   9.142   5.391   4.108
  272POPC   GL1 3688   8.773   5.250   4.343
  272POPC   GL2 3689   8.750   4.916   4.369
  272POPC   C1A 3690   8.622   5.148   4.781
  272POPC   D2A 3691   8.899   5.035   5.107
  272POPC   C3A 3692   8.674   5.044   5.447
  272POPC   C4A 3693   8.780   4.839   5.794
  272POPC   C1B 3694   8.816   4.668   4.724
  272POPC   C2B 3695   8.572   4.672   5.040
  272POPC   C3B 3696   8.547   4.547   5.382
  272POPC   C4B 3697   8.314   4.716   5.666
  273POPC   NC3 3698  10.127   3.106   3.772
  273POPC   PO4 3699   9.795   2.656   3.995
  273POPC   GL1 3700   9.963   2.730   4.407
  273POPC   GL2 3701  10.304   2.652   4.342
  273POPC   C1A 3702  10.016   2.895   4.830
  273POPC   D2A 3703   9.909   2.872   5.242
  273POPC   C3A 3704   9.834   3.091   5.610
  273POPC   C4A 3705   9.901   2.836   5.964
  273POPC   C1B 3706  10.429   2.575   4.773
  273POPC   C2B 3707  10.271   2.529   5.179
  273POPC   C3B 3708  10.181   2.571   5.592
  273POPC   C4B 3709  10.426   2.305   5.851
  274POPC   NC3 3710   0.315   0.846   3.778
  274POPC   PO4 3711   0.894   0.997   4.033
  274POPC   GL1 3712   0.620   0.975   4.411
  274POPC   GL2 3713   0.257   0.888   4.293
  274POPC   C1A 3714   0.628   0.971   4.892
  274POPC   D2A 3715   0.288   0.829   5.185
  274POPC   C3A 3716   0.331   0.808   5.662
  274POPC   C4A 3717   0.671   0.974   5.814
  274POPC   C1B 3718   0.233   1.244   4.622
  274POPC   C2B 3719   0.316   1.344   5.066
  274POPC   C3B 3720   0.330   1.259   5.453
  274POPC   C4B 3721   0.363   1.385   5.831
  275POPC   NC3 3722   4.247   9.628   3.821
  275POPC   PO4 3723   4.240  10.376   3.729
  275POPC   GL1 3724   4.151  10.265   4.171
  275POPC   GL2 3725   3.837  10.231   4.354
  275POPC   C1A 3726   4.296  10.329   4.611
  275POPC   D2A 3727   4.559  10.492   4.962
  275POPC   C3A 3728   4.672  10.334   5.399
  275POPC   C4A 3729   4.420  10.301   5.778
  275POPC   C1B 3730   3.939   9.978   4.711
  275POPC   C2B 3731   4.150  10.161   5.089
  275POPC   C3B 3732   4.031  10.074   5.509
  275POPC   C4B 3733   3.980  10.110   5.971
  276POPC   NC3 3734   6.555   8.790   4.050
  276POPC   PO4 3735   6.558   9.438   3.951
  276POPC   GL1 3736   6.564   9.236   4.319
  276POPC   GL2 3737   6.239   9.265   4.424
  276POPC   C1A 3738   6.642   9.246   4.772
  276POPC   D2A 3739   6.364   9.475   5.055
  276POPC   C3A 3740   6.448   9.484   5.490
  276POPC   C4A 3741   6.721   9.463   5.786
  276POPC   C1B 3742   6.067   9.635   4.637
  276POPC   C2B 3743   5.885   9.684   5.073
  276POPC   C3B 3744   5.959   9.462   5.463
  276POPC   C4B 3745   6.162   9.193   5.795
  277POPC   NC3 3746   1.329   5.313   3.932
  277POPC   PO4 3747   1.045   5.938   4.024
  277POPC   GL1 3748   1.054   5.553   4.290
  277POPC   GL2 3749   1.413   5.563   4.350
  277POPC   C1A 3750   1.102   5.319   4.694
  277POPC   D2A 3751   0.920   5.556   5.036
  277POPC   C3A 3752   1.074   5.442   5.453
  277POPC   C4A 3753   0.883   5.769   5.698
  277POPC   C1B 3754   1.296   5.788   4.696
  277POPC   C2B 3755   1.412   5.635   5.096
  277POPC   C3B 3756   1.282   5.880   5.402
  277POPC   C4B 3757   1.423   5.952   5.768
  278POPC   NC3 3758   1.175   3.844   3.694
  278POPC   PO4 3759   1.478   4.248   4.085
  278POPC   GL1 3760   1.261   4.159   4.407
  278POPC   GL2 3761   1.009   4.397   4.429
  278POPC   C1A 3762   1.427   4.140   4.815
  278POPC   D2A 3763   1.341   4.374   5.176
  278POPC   C3A 3764   1.404   4.072   5.489
  278POPC   C4A 3765   1.311   4.015   5.926
  278POPC   C1B 3766   0.924   4.177   4.808
  278POPC   C2B 3767   0.831   4.254   5.226
  278POPC   C3B 3768   0.907   4.277   5.654
  278POPC   C4B 3769   0.803   4.030   6.004
  279POPC   NC3 3770  10.024   1.463   3.895
  279POPC   PO4 3771  10.371   2.051   3.870
  279POPC   GL1 3772  10.150   1.907   4.234
  279POPC   GL2 3773  10.000   2.219   4.360
  279POPC   C1A 3774  10.278   1.868   4.667
  279POPC   D2A 3775  10.384   1.614   5.012
  279POPC   C3A 3776   0.073   1.715   5.362
  279POPC   C4A 3777  10.431   1.648   5.744
  279POPC   C1B 3778   9.981   2.315   4.784
  279POPC   C2B 3779  10.066   2.036   5.096
  279POPC   C3B 3780  10.190   2.064   5.473
  279POPC   C4B 3781  10.028   1.938   5.842
  280POPC   NC3 3782   9.251   3.974   4.059
  280POPC   PO4 3783   9.777   4.142   3.668
  280POPC   GL1 3784   9.700   4.203   4.168
  280POPC   GL2 3785   9.588   4.509   4.252
  280POPC   C1A 3786   9.456   4.120   4.635
  280POPC   D2A 3787   9.280   4.026   5.059
  280POPC   C3A 3788   9.437   4.206   5.452
  280POPC   C4A 3789   9.527   3.995   5.854
  280POPC   C1B 3790   9.493   4.634   4.673
  280POPC   C2B 3791   9.247   4.571   5.023
  280POPC   C3B 3792   9.042   4.623   5.391
  280POPC   C4B 3793   9.091   4.426   5.770
  281POPC   NC3 3794   2.616   7.879   3.787
  281POPC   PO4 3795   2.154   8.349   4.022
  281POPC   GL1 3796   2.496   8.068   4.245
  281POPC   GL2 3797   2.526   7.678   4.246
  281POPC   C1A 3798   2.624   8.101   4.688
  281POPC   D2A 3799   2.760   8.148   5.139
  281POPC   C3A 3800   2.428   8.141   5.455
  281POPC   C4A 3801   2.363   7.940   5.856
  281POPC   C1B 3802   2.790   7.628   4.628
  281POPC   C2B 3803   2.635   7.612   5.018
  281POPC   C3B 3804   2.667   7.709   5.418
  281POPC   C4B 3805   2.740   7.589   5.810
  282POPC   NC3 3806   0.670   6.203   3.974
  282POPC   PO4 3807   0.246   6.659   4.075
  282POPC   GL1 3808   0.459   6.471   4.388
  282POPC   GL2 3809   0.693   6.708   4.386
  282POPC   C1A 3810   0.374   6.524   4.821
  282POPC   D2A 3811   0.281   6.245   5.141
  282POPC   C3A 3812   0.126   6.402   5.517
  282POPC   C4A 3813   0.359   6.564   5.765
  282POPC   C1B 3814   0.885   6.612   4.747
  282POPC   C2B 3815   0.808   6.519   5.146
  282POPC   C3B 3816   0.699   6.759   5.458
  282POPC   C4B 3817   0.864   6.687   5.861
  283POPC   NC3 3818  10.074   7.605   3.593
  283POPC   PO4 3819  10.430   7.606   4.121
  283POPC   GL1 3820  10.053   7.629   4.362
  283POPC   GL2 3821   9.993   7.897   4.246
  283POPC   C1A 3822   9.892   7.874   4.743
  283POPC   D2A 3823  10.078   7.929   5.123
  283POPC   C3A 3824  10.119   7.597   5.406
  283POPC   C4A 3825  10.324   7.419   5.739
  283POPC   C1B 3826  10.347   8.030   4.571
  283POPC   C2B 3827  10.472   8.227   4.934
  283POPC   C3B 3828  10.436   8.198   5.365
  283POPC   C4B 3829  10.174   8.013   5.695
  284POPC   NC3 3830   8.423   7.130   4.164
  284POPC   PO4 3831   8.923   6.965   3.755
  284POPC   GL1 3832   8.912   7.105   4.215
  284POPC   GL2 3833   8.805   7.458   4.316
  284POPC   C1A 3834   8.827   6.976   4.670
  284POPC   D2A 3835   8.762   7.073   5.120
  284POPC   C3A 3836   9.049   7.320   5.360
  284POPC   C4A 3837   9.148   7.456   5.777
  284POPC   C1B 3838   8.564   7.422   4.748
  284POPC   C2B 3839   8.311   7.298   5.144
  284POPC   C3B 3840   8.417   7.160   5.529
  284POPC   C4B 3841   8.643   7.522   5.573
  285POPC   NC3 3842   6.481   0.293   3.943
  285POPC   PO4 3843   6.142   1.035   3.954
  285POPC   GL1 3844   6.254   0.600   4.261
  285POPC   GL2 3845   6.641   0.510   4.358
  285POPC   C1A 3846   6.106   0.492   4.689
  285POPC   D2A 3847   5.982   0.451   5.139
  285POPC   C3A 3848   6.256   0.674   5.438
  285POPC   C4A 3849   6.172   0.677   5.867
  285POPC   C1B 3850   6.576   0.252   4.681
  285POPC   C2B 3851   6.519   0.444   5.056
  285POPC   C3B 3852   6.597   0.286   5.447
  285POPC   C4B 3853   6.552   0.355   5.835
  286POPC   NC3 3854   4.475   9.325   4.185
  286POPC   PO4 3855   3.893   9.789   4.044
  286POPC   GL1 3856   4.235   9.777   4.317
  286POPC   GL2 3857   4.123   9.492   4.516
  286POPC   C1A 3858   4.445   9.826   4.697
  286POPC   D2A 3859   4.230   9.651   5.038
  286POPC   C3A 3860   4.443   9.818   5.376
  286POPC   C4A 3861   4.289   9.709   5.762
  286POPC   C1B 3862   4.238   9.135   4.773
  286POPC   C2B 3863   4.131   8.993   5.169
  286POPC   C3B 3864   4.270   9.228   5.523
  286POPC   C4B 3865   3.990   9.301   5.873
  287POPC   NC3 3866   8.472   4.083   3.970
  287POPC   PO4 3867   9.039   4.387   4.189
  287POPC   GL1 3868   8.629   4.431   4.293
  287POPC   GL2 3869   8.685   4.106   4.435
  287POPC   C1A 3870   8.354   4.416   4.638
  287POPC   D2A 3871   8.568   4.182   4.943
  287POPC   C3A 3872   8.362   4.069   5.305
  287POPC   C4A 3873   8.443   4.204   5.712
  287POPC   C1B 3874   8.947   3.807   4.655
  287POPC   C2B 3875   8.823   3.775   5.072
  287POPC   C3B 3876   8.874   4.089   5.399
  287POPC   C4B 3877   9.033   3.932   5.771
  288POPC   NC3 3878   8.270   1.754   3.730
  288POPC   PO4 3879   7.654   2.004   3.938
  288POPC   GL1 3880   7.766   2.156   4.321
  288POPC   GL2 3881   8.048   2.016   4.363
  288POPC   C1A 3882   7.692   2.086   4.749
  288POPC   D2A 3883   7.736   2.367   5.074
  288POPC   C3A 3884   7.771   2.107   5.405
  288POPC   C4A 3885   7.537   2.054   5.741
  288POPC   C1B 3886   8.038   1.733   4.765
  288POPC   C2B 3887   8.291   1.626   5.114
  288POPC   C3B 3888   8.140   1.540   5.546
  288POPC   C4B 3889   7.998   1.796   5.883
  289POPC   NC3 3890   9.855   2.185   3.885
  289POPC   PO4 3891   9.542   1.545   3.784
  289POPC   GL1 3892   9.621   1.847   4.155
  289POPC   GL2 3893   9.361   1.788   4.336
  289POPC   C1A 3894   9.775   1.862   4.636
  289POPC   D2A 3895   9.618   1.800   5.036
  289POPC   C3A 3896   9.638   1.949   5.443
  289POPC   C4A 3897   9.539   1.737   5.769
  289POPC   C1B 3898   9.211   1.739   4.706
  289POPC   C2B 3899   9.128   1.770   5.091
  289POPC   C3B 3900   9.116   1.884   5.496
  289POPC   C4B 3901   9.244   2.266   5.692
  290POPC   NC3 3902   3.329   8.363   3.694
  290POPC   PO4 3903   2.989   7.799   4.047
  290POPC   GL1 3904   3.366   7.858   4.307
  290POPC   GL2 3905   3.471   7.528   4.319
  290POPC   C1A 3906   3.436   8.156   4.715
  290POPC   D2A 3907   3.281   8.220   5.170
  290POPC   C3A 3908   3.506   8.133   5.574
  290POPC   C4A 3909   3.805   8.124   5.936
  290POPC   C1B 3910   3.302   7.650   4.757
  290POPC   C2B 3911   3.422   7.699   5.195
  290POPC   C3B 3912   3.187   7.748   5.580
  290POPC   C4B 3913   2.908   8.075   5.683
  291POPC   NC3 3914   0.352   5.101   3.912
  291POPC   PO4 3915   0.077   4.501   3.952
  291POPC   GL1 3916   0.259   4.702   4.289
  291POPC   GL2 3917   0.259   5.087   4.405
  291POPC   C1A 3918   0.075   4.690   4.676
  291POPC   D2A 3919   0.157   4.877   5.019
  291POPC   C3A 3920   0.025   4.802   5.414
  291POPC   C4A 3921   0.171   5.150   5.688
  291POPC   C1B 3922   0.589   4.899   4.624
  291POPC   C2B 3923   0.630   4.706   5.028
  291POPC   C3B 3924   0.551   4.912   5.409
  291POPC   C4B 3925   0.658   4.728   5.780
  292POPC   NC3 3926   0.962   8.598   3.847
  292POPC   PO4 3927   0.700   9.156   3.952
  292POPC   GL1 3928   0.909   8.901   4.272
  292POPC   GL2 3929   1.278   8.847   4.302
  292POPC   C1A 3930   0.923   8.680   4.684
  292POPC   D2A 3931   0.687   8.631   5.091
  292POPC   C3A 3932   0.924   8.651   5.480
  292POPC   C4A 3933   0.890   8.892   5.863
  292POPC   C1B 3934   1.439   8.880   4.733
  292POPC   C2B 3935   1.403   8.619   5.115
  292POPC   C3B 3936   1.609   8.662   5.510
  292POPC   C4B 3937   1.380   8.992   5.696
  293POPC   NC3 3938   7.939   9.777   3.999
  293POPC   PO4 3939   7.940   9.217   3.681
  293POPC   GL1 3940   7.969   9.200   4.195
  293POPC   GL2 3941   7.926   9.509   4.423
  293POPC   C1A 3942   8.008   9.093   4.686
  293POPC   D2A 3943   8.151   9.412   5.039
  293POPC   C3A 3944   8.195   9.282   5.477
  293POPC   C4A 3945   8.206   9.702   5.699
  293POPC   C1B 3946   7.688   9.473   4.762
  293POPC   C2B 3947   7.702   9.236   5.121
  293POPC   C3B 3948   7.789   9.569   5.436
  293POPC   C4B 3949   7.803   9.338   5.821
  294POPC   NC3 3950   3.487   1.164   3.760
  294POPC   PO4 3951   3.118   0.927   4.266
  294POPC   GL1 3952   3.500   0.990   4.396
  294POPC   GL2 3953   3.500   1.304   4.268
  294POPC   C1A 3954   3.476   0.928   4.820
  294POPC   D2A 3955   3.720   0.961   5.138
  294POPC   C3A 3956   3.466   0.842   5.447
  294POPC   C4A 3957   3.385   1.054   5.830
  294POPC   C1B 3958   3.480   1.466   4.673
  294POPC   C2B 3959   3.634   1.474   5.081
  294POPC   C3B 3960   3.623   1.333   5.484
  294POPC   C4B 3961   3.521   1.534   5.856
  295POPC   NC3 3962   3.092   8.241   4.151
  295POPC   PO4 3963   3.504   8.760   3.891
  295POPC   GL1 3964   3.576   8.553   4.269
  295POPC   GL2 3965   3.240   8.679   4.378
  295POPC   C1A 3966   3.648   8.722   4.675
  295POPC   D2A 3967   3.478   8.786   5.054
  295POPC   C3A 3968   3.527   8.603   5.418
  295POPC   C4A 3969   3.132   8.515   5.594
  295POPC   C1B 3970   3.234   9.035   4.673
  295POPC   C2B 3971   3.196   9.200   5.084
  295POPC   C3B 3972   3.250   9.005   5.479
  295POPC   C4B 3973   3.523   9.109   5.786
  296POPC   NC3 3974   2.919   7.313   4.053
  296POPC   PO4 3975   3.488   7.037   4.090
  296POPC   GL1 3976   3.163   7.080   4.427
  296POPC   GL2 3977   2.826   6.891   4.320
  296POPC   C1A 3978   3.064   7.207   4.857
  296POPC   D2A 3979   3.027   7.369   5.284
  296POPC   C3A 3980   3.047   7.190   5.742
  296POPC   C4A 3981   2.934   7.202   6.214
  296POPC   C1B 3982   2.609   7.161   4.626
  296POPC   C2B 3983   2.597   7.105   5.073
  296POPC   C3B 3984   2.587   7.217   5.495
  296POPC   C4B 3985   2.532   7.106   5.927
  297POPC   NC3 3986   1.451   6.200   3.981
  297POPC   PO4 3987   0.917   6.705   3.907
  297POPC   GL1 3988   1.162   6.532   4.254
  297POPC   GL2 3989   0.947   6.250   4.407
  297POPC   C1A 3990   1.379   6.346   4.642
  297POPC   D2A 3991   1.197   6.196   5.021
  297POPC   C3A 3992   1.301   6.381   5.435
  297POPC   C4A 3993   1.376   6.461   5.855
  297POPC   C1B 3994   0.733   6.113   4.794
  297POPC   C2B 3995   0.757   6.016   5.255
  297POPC   C3B 3996   0.854   6.259   5.617
  297POPC   C4B 3997   1.022   6.160   6.036
  298POPC   NC3 3998   0.713   5.620   3.897
  298POPC   PO4 3999   0.280   6.160   3.715
  298POPC   GL1 4000   0.264   6.029   4.200
  298POPC   GL2 4001   0.582   5.854   4.345
  298POPC   C1A 4002   0.226   6.020   4.660
  298POPC   D2A 4003   0.418   5.752   4.979
  298POPC   C3A 4004   0.227   5.797   5.365
  298POPC   C4A 4005   0.412   6.040   5.702
  298POPC   C1B 4006   0.604   5.451   4.591
  298POPC   C2B 4007   0.505   5.248   4.993
  298POPC   C3B 4008   0.567   5.417   5.403
  298POPC   C4B 4009   0.432   5.552   5.789
  299POPC   NC3 4010   1.272   0.572   3.687
  299POPC   PO4 4011   0.891   0.158   4.013
  299POPC   GL1 4012   1.223   0.197   4.312
  299POPC   GL2 4013   1.399   0.536   4.257
  299POPC   C1A 4014   1.083   0.269   4.742
  299POPC   D2A 4015   1.135   0.193   5.153
  299POPC   C3A 4016   1.163   0.335   5.542
  299POPC   C4A 4017   1.505   0.076   5.715
  299POPC   C1B 4018   1.418   0.650   4.685
  299POPC   C2B 4019   1.171   0.711   5.040
  299POPC   C3B 4020   1.271   0.870   5.428
  299POPC   C4B 4021   1.143   0.767   5.812
  300POPC   NC3 4022   3.963   8.677   3.943
  300POPC   PO4 4023   4.487   8.229   4.066
  300POPC   GL1 4024   4.161   8.424   4.328
  300POPC   GL2 4025   4.095   8.761   4.434
  300POPC   C1A 4026   3.926   8.322   4.695
  300POPC   D2A 4027   3.919   8.536   5.099
  300POPC   C3A 4028   3.973   8.349   5.495
  300POPC   C4A 4029   4.294   8.222   5.725
  300POPC   C1B 4030   4.332   8.620   4.807
  300POPC   C2B 4031   4.431   8.474   5.243
  300POPC   C3B 4032   4.325   8.718   5.606
  300POPC   C4B 4033   3.917   8.855   5.630
  301POPC   NC3 4034   9.681   1.029   3.960
  301POPC   PO4 4035  10.412   1.056   3.852
  301POPC   GL1 4036  10.250   1.142   4.228
  301POPC   GL2 4037  10.077   0.849   4.244
  301POPC   C1A 4038  10.214   1.351   4.618
  301POPC   D2A 4039   9.902   1.380   4.962
  301POPC   C3A 4040   9.996   1.597   5.379
  301POPC   C4A 4041   9.993   1.406   5.797
  301POPC   C1B 4042  10.372   0.846   4.621
  301POPC   C2B 4043  10.392   1.085   4.994
  301POPC   C3B 4044  10.332   1.222   5.377
  301POPC   C4B 4045  10.441   1.135   5.768
  302W        W 4046  10.379   3.587   8.979
  303W        W 4047   3.406   7.454   2.229
  304W        W 4048   7.999   2.761   1.854
  305W        W 4049   6.078   0.517   0.260
  306W        W 4050   9.147   2.159   8.597
  307W        W 4051   9.873   3.102   8.689
  308W        W 4052   8.182   5.506   9.721
  309W        W 4053   2.263   3.550   0.846
  310W        W 4054  10.051   3.167   0.968
  311W        W 4055   0.257   7.414  10.538
  312W        W 4056   5.242   1.878   2.199
  313W        W 4057   9.709   7.166   9.589
  314W        W 4058   9.877   7.958   8.960
  315W        W 4059   8.432   5.668   0.075
  316W        W 4060   9.026   0.844   3.287
  317W        W 4061   5.253   6.454   1.676
  318W        W 4062   7.997   6.160   1.491
  319W        W 4063   5.653  10.455  11.922
  320W        W 4064   6.516  10.332   1.449
  321W        W 4065   1.849   5.696  11.741
  322W        W 4066   3.520   6.676  11.476
  323W        W 4067   6.456   8.070   0.350
  324W        W 4068   8.968   7.678   9.865
  325W        W 4069   0.973   1.870   9.805
  326W        W 4070  10.273   1.791   9.118
  327W        W 4071   4.637   0.747  10.109
  328W        W 4072  10.006   8.579  10.903
  329W        W 4073   9.752   2.269   0.747
  330W        W 4074   1.924   6.945   2.797
  331W        W 4075   1.359   7.019   1.801
  332W        W 4076   9.560   2.107  11.786
  333W        W 4077   6.366   3.135   9.997
  334W        W 4078   2.158   2.869   2.532
  335W        W 4079   0.421   1.026   9.415
  336W        W 4080   8.725   2.201   2.169
  337W        W 4081   8.891   8.826  10.595
  338W        W 4082   4.977   0.442   1.490
  339W        W 4083   2.730   9.472  11.144
  340W        W 4084   3.536   7.375   2.972
  341W        W 4085   9.094   0.833   2.744
  342W        W 4086   1.380   2.547   0.094
  343W        W 4087   2.346   4.742   2.653
  344W        W 4088   6.735   0.139   3.525
  345W        W 4089  10.461   4.206   9.664
  346W        W 4090   7.010  10.314   1.722
  347W        W 4091   7.402   3.683   9.917
  348W        W 4092   1.643   6.786  10.321
  349W        W 4093  10.264   5.055   1.999
  350W        W 4094   8.438   5.602   0.609
  351W        W 4095   3.579   6.906  11.016
  352W        W 4096   6.974   4.146   1.906
  353W        W 4097   4.679   4.191  10.384
  354W        W 4098   8.507   7.614   9.100
  355W        W 4099   5.140  10.095  10.709
  356W        W 4100   8.540   7.653   9.612
  357W        W 4101   6.418   9.127   2.060
  358W        W 4102   2.264   1.297   1.700
  359W        W 4103   7.562   4.672   9.425
  360W        W 4104   0.898   0.849   0.285
  361W        W 4105   4.810   8.443   9.708
  362W        W 4106   5.289   4.776   0.321
  363W        W 4107   8.395   3.185   1.926
  364W        W 4108   0.429   0.809   1.423
  365W        W 4109   8.898   8.136   0.217
  366W        W 4110   5.201   3.046  11.397
  367W        W 4111   9.590   2.640   3.526
  368W        W 4112   2.141   1.728   3.133
  369W        W 4113   4.837   0.951   1.774
  370W        W 4114   8.468   0.223   1.756
  371W        W 4115   8.982   9.096  10.152
  372W        W 4116   9.278   1.383   1.108
  373W        W 4117   8.036   6.049   2.913
  374W        W 4118   6.135   3.723   0.694
  375W        W 4119   4.920   7.932   0.232
  376W        W 4120   8.740   9.753  10.954
  377W        W 4121   0.962   8.644   9.458
  378W        W 4122   5.684   9.438  10.200
  379W        W 4123   1.015   7.174   2.589
  380W        W 4124   1.903   0.958   1.761
  381W        W 4125   4.572   9.895   9.815
  382W        W 4126   6.696   9.716  11.727
  383W        W 4127   0.963   4.665   2.993
  384W        W 4128   7.139   3.553  10.476
  385W        W 4129   8.113   7.322   1.655
  386W        W 4130   4.800   2.189   2.938
  387W        W 4131   9.653   9.843   0.705
  388W        W 4132   8.449   9.519   3.166
  389W        W 4133   6.672   4.588   9.163
  390W        W 4134   7.019   9.454  10.237
  391W        W 4135   0.768   7.731   0.022
  392W        W 4136   5.439   7.580  10.485
  393W        W 4137   7.499   6.256  11.819
  394W        W 4138   1.636   0.527   1.734
  395W        W 4139   7.894   1.279   2.997
  396W        W 4140   0.906   3.726   8.803
  397W        W 4141   3.527   2.394  11.369
  398W        W 4142   4.068   9.635   9.785
  399W        W 4143   3.102   5.280   2.807
  400W        W 4144   7.192   4.363   3.342
  401W        W 4145   9.403   8.074   2.573
  402W        W 4146   7.687   1.410   9.492
  403W        W 4147   2.225   5.610   8.455
  404W        W 4148   8.168   3.759   2.902
  405W        W 4149   9.789   8.577   1.528
  406W        W 4150   7.568   4.640   3.158
  407W        W 4151   0.737  10.340   0.683
  408W        W 4152   2.626   2.730   2.272
  409W        W 4153   8.131   9.294   9.310
  410W        W 4154   1.767   4.509   8.691
  411W        W 4155   0.392   4.357   9.930
  412W        W 4156   7.924  10.272  10.583
  413W        W 4157   1.200   9.160  11.191
  414W        W 4158   7.060   8.210  11.904
  415W        W 4159   1.264   3.623   9.613
  416W        W 4160   6.357   9.770  11.320
  417W        W 4161   3.648   0.466   0.479
  418W        W 4162   9.242   7.206   2.904
  419W        W 4163   6.682   9.387  11.225
  420W        W 4164   8.049   1.252  10.136
  421W        W 4165   7.868   0.440   0.004
  422W        W 4166   7.749   2.702   8.824
  423W        W 4167  10.047   3.358   3.344
  424W        W 4168   0.980  10.479   1.755
  425W        W 4169   4.175   2.508  11.774
  426W        W 4170   4.759   4.114   2.203
  427W        W 4171   5.291   6.112   3.393
  428W        W 4172   7.432   8.540   3.657
  429W        W 4173   2.081   0.851   3.373
  430W        W 4174   4.293   0.850   1.866
  431W        W 4175  10.078   6.843  11.782
  432W        W 4176   1.981   9.126   1.252
  433W        W 4177   7.517   7.677   2.715
  434W        W 4178   1.775   2.111   0.378
  435W        W 4179   9.924   2.803  10.061
  436W        W 4180   0.227   4.645   9.544
  437W        W 4181   4.430   3.210   3.659
  438W        W 4182   6.512   5.026  11.559
  439W        W 4183   7.942   1.638   3.367
  440W        W 4184   1.842   0.675   8.853
  441W        W 4185   5.012   6.682   0.302
  442W        W 4186   3.742   3.747   1.960
  443W        W 4187   4.091   8.522  10.932
  444W        W 4188   1.244   0.462   2.805
  445W        W 4189   4.549   1.736   1.904
  446W        W 4190   8.199   5.747   9.218
  447W        W 4191   6.910   9.913   0.348
  448W        W 4192   3.450   0.766   0.863
  449W        W 4193   9.556   5.551   2.165
  450W        W 4194   6.639   9.953   3.085
  451W        W 4195   8.940   4.290   3.705
  452W        W 4196   5.084   5.238  11.405
  453W        W 4197   6.693   9.491   2.882
  454W        W 4198  10.351  10.357   2.442
  455W        W 4199   8.411   0.224  11.341
  456W        W 4200   2.856   1.329   8.783
  457W        W 4201   6.081   3.785  11.221
  458W        W 4202   0.768   8.610   1.761
  459W        W 4203   2.180   7.198   1.256
  460W        W 4204   9.519   9.553   2.440
  461W        W 4205   6.678   4.104  11.832
  462W        W 4206   6.937   4.152   9.284
  463W        W 4207   3.134   2.382   2.902
  464W        W 4208   8.168   3.726   0.298
  465W        W 4209   1.769   2.253  11.868
  466W        W 4210   8.036   1.161   3.482
  467W        W 4211   1.487  10.314  11.896
  468W        W 4212   5.486   6.623   9.406
  469W        W 4213   2.098   0.819   0.868
  470W        W 4214   5.964   8.165   0.494
  471W        W 4215  10.380   2.029   1.555
  472W        W 4216   6.621   4.092   9.679
  473W        W 4217   8.976   0.285   9.122
  474W        W 4218   8.009   4.672   2.911
  475W        W 4219   5.108   2.523   1.754
  476W        W 4220   3.100   8.203   2.624
  477W        W 4221   7.424   8.939  11.737
  478W        W 4222   2.887   0.350  11.802
  479W        W 4223  10.363   0.227   1.660
  480W        W 4224   1.942   0.865   0.380
  481W        W 4225   9.292   8.375   3.565
  482W        W 4226   9.832   6.419   9.026
  483W        W 4227   6.040   9.190  11.946
  484W        W 4228   9.395   6.638  10.847
  485W        W 4229   7.554   8.861   9.292
  486W        W 4230   2.393   4.234   9.898
  487W        W 4231   5.491   3.273   1.272
  488W        W 4232   4.506   9.968  11.327
  489W        W 4233   5.230   3.729   1.174
  490W        W 4234   5.034   0.751   9.769
  491W        W 4235   5.098   0.803   9.270
  492W        W 4236   1.293   4.964   3.538
  493W        W 4237   8.119   4.176  10.025
  494W        W 4238   2.911   2.213   3.379
  495W        W 4239   8.495   8.431  11.463
  496W        W 4240   9.771   2.352  10.298
  497W        W 4241   2.322   6.252   8.788
  498W        W 4242   5.966   6.295   9.475
  499W        W 4243   6.140   3.722   1.215
  500W        W 4244   2.810   7.418   0.986
  501W        W 4245   9.322   5.152  10.498
  502W        W 4246   6.844   2.159   1.675
  503W        W 4247   7.215   5.346   2.107
  504W        W 4248   6.126   6.025   2.537
  505W        W 4249   3.292   1.359   2.467
  506W        W 4250   0.073   3.889   0.818
  507W        W 4251   0.180   1.275   2.280
  508W        W 4252  10.085   3.977   8.718
  509W        W 4253   7.328   5.886   8.134
  510W        W 4254   2.778   5.885   9.479
  511W        W 4255  10.141   4.256  10.069
  512W        W 4256   2.154   5.194   2.930
  513W        W 4257   3.828   2.797  11.526
  514W        W 4258   8.309   6.498   0.047
  515W        W 4259   6.878   0.122  10.815
  516W        W 4260   6.627   4.562   1.913
  517W        W 4261   5.640   6.520   3.251
  518W        W 4262   6.124   3.704   2.821
  519W        W 4263   7.702   3.575   2.913
  520W        W 4264   6.571   5.950   1.816
  521W        W 4265   4.602   5.449   2.413
  522W        W 4266   2.908   3.249   0.364
  523W        W 4267   5.132   0.838   0.667
  524W        W 4268   1.419   7.574   1.146
  525W        W 4269   2.795   2.741  11.704
  526W        W 4270   6.525   1.437   2.725
  527W        W 4271   1.811   5.883   9.399
  528W        W 4272   3.549   2.465   2.220
  529W        W 4273  10.029   0.021  10.463
  530W        W 4274   6.505   1.657  10.072
  531W        W 4275   5.768   6.226   4.210
  532W        W 4276   6.697   7.039   0.099
  533W        W 4277   7.715   4.317  11.832
  534W        W 4278   9.314   8.573   9.496
  535W        W 4279   9.075  10.217  10.888
  536W        W 4280   9.123   4.662  10.566
  537W        W 4281   4.211   1.259  10.591
  538W        W 4282   9.873   4.753   1.223
  539W        W 4283   1.672   6.109   0.762
  540W        W 4284   9.642   4.178  10.034
  541W        W 4285   3.445   2.300   3.288
  542W        W 4286   0.454   5.245   9.788
  543W        W 4287   0.391   4.533   2.425
  544W        W 4288   2.404   6.034  10.310
  545W        W 4289   5.611  10.484  10.533
  546W        W 4290   1.926   0.673   2.190
  547W        W 4291   7.651   3.548   8.946
  548W        W 4292   7.944   1.870   9.329
  549W        W 4293   6.630   5.461   0.456
  550W        W 4294   9.797   7.176  10.541
  551W        W 4295  10.161   4.652  10.400
  552W        W 4296   3.752   6.630  10.631
  553W        W 4297   9.568   2.632   3.028
  554W        W 4298   7.550   1.153  11.478
  555W        W 4299   6.621   8.614   2.719
  556W        W 4300   4.580   1.797   3.364
  557W        W 4301   5.019   2.784   7.976
  558W        W 4302   4.191   0.596   9.892
  559W        W 4303   6.464   5.685   2.258
  560W        W 4304   8.898   5.060   9.530
  561W        W 4305   8.933   2.170   0.489
  562W        W 4306   8.467   2.767   2.214
  563W        W 4307   2.180   4.713   9.886
  564W        W 4308   1.394   0.723   0.345
  565W        W 4309   7.873   7.443   1.216
  566W        W 4310   6.912   3.134   1.211
  567W        W 4311  10.117   5.062  10.084
  568W        W 4312   0.788   2.777   9.723
  569W        W 4313   5.224   4.317   2.317
  570W        W 4314   1.200   4.754   9.624
  571W        W 4315   6.579   5.901   0.213
  572W        W 4316   2.014   8.026  11.915
  573W        W 4317   4.717   4.954  11.635
  574W        W 4318   0.657   1.691   1.736
  575W        W 4319   7.113   5.575  11.920
  576W        W 4320   3.333   1.931   2.184
  577W        W 4321   8.853   4.240   1.543
  578W        W 4322   0.348   9.877   1.787
  579W        W 4323   0.458   5.622   1.897
  580W        W 4324   8.494   8.882   8.774
  581W        W 4325   6.058   6.944   2.767
  582W        W 4326   6.244   6.549   9.846
  583W        W 4327   2.740   5.182   3.194
  584W        W 4328   7.138   6.511   9.378
  585W        W 4329   3.770   2.571   0.070
  586W        W 4330   3.265   8.242   0.549
  587W        W 4331   9.348   7.312   9.198
  588W        W 4332   6.684   9.259   0.664
  589W        W 4333   3.105   3.275   2.565
  590W        W 4334   9.409   7.549   2.469
  591W        W 4335   9.048   4.103   0.398
  592W        W 4336   4.512   4.112   0.672
  593W        W 4337   5.194   7.086   9.332
  594W        W 4338   5.114   9.927   9.042
  595W        W 4339   1.943   6.709   9.899
  596W        W 4340   3.753   6.039  10.442
  597W        W 4341   5.913   9.742   3.422
  598W        W 4342   9.443   3.769   0.457
  599W        W 4343   0.885   0.331  10.493
  600W        W 4344   2.317   4.571   1.001
  601W        W 4345   6.668   1.778   8.646
  602W        W 4346   2.648   3.602   3.374
  603W        W 4347   7.685   3.819   3.902
  604W        W 4348   6.038   3.218  10.780
  605W        W 4349   1.298   3.823   9.125
  606W        W 4350   9.565   4.720   1.986
  607W        W 4351   0.880   8.335  11.189
  608W        W 4352   3.596   1.583   3.444
  609W        W 4353   1.288   7.472   8.853
  610W        W 4354   4.778   1.037   1.203
  611W        W 4355   7.684   2.834   1.373
  612W        W 4356   1.339   2.390  11.050
  613W        W 4357   4.616   2.165  10.568
  614W        W 4358   3.259   9.747   9.161
  615W        W 4359   9.290   6.280   9.826
  616W        W 4360   4.090   8.385   9.075
  617W        W 4361   6.971   1.842  11.008
  618W        W 4362   4.109   5.989  11.774
  619W        W 4363   3.453   0.984   2.141
  620W        W 4364   9.026   1.680   0.651
  621W        W 4365   5.152   3.817   0.665
  622W        W 4366   3.372   5.020   9.828
  623W        W 4367   2.124   5.700  10.010
  624W        W 4368   4.574   2.832   8.811
  625W        W 4369   1.570   0.316   9.090
  626W        W 4370   6.910   6.993   3.519
  627W        W 4371   7.648   1.039   9.838
  628W        W 4372   2.406   7.356   0.232
  629W        W 4373   7.613   4.133  10.024
  630W        W 4374   6.145   8.355   1.871
  631W        W 4375   4.796   4.588   2.428
  632W        W 4376   7.243   3.628  11.957
  633W        W 4377   3.609   6.129   2.687
  634W        W 4378   4.726   7.354   0.977
  635W        W 4379   2.413   6.541  10.069
  636W        W 4380   7.520   0.825  11.850
  637W        W 4381   5.050   6.509  10.328
  638W        W 4382   3.215  10.302  11.400
  639W        W 4383   9.865   8.464   9.034
  640W        W 4384   9.192   5.751   0.720
  641W        W 4385   0.370   5.970   0.380
  642W        W 4386  10.117   2.809   1.744
  643W        W 4387   5.538   5.121  10.902
  644W        W 4388   2.164   2.081   9.951
  645W        W 4389   3.275   8.385  10.491
  646W        W 4390   4.737   0.025   2.016
  647W        W 4391  10.050   8.291   9.947
  648W        W 4392   5.666   4.135   9.537
  649W        W 4393   4.032   2.332   2.373
  650W        W 4394   4.519   4.201   1.181
  651W        W 4395   8.000  10.424   0.416
  652W        W 4396   9.484   6.730   9.933
  653W        W 4397   0.030   6.564  11.054
  654W        W 4398   1.775   6.961   3.283
  655W        W 4399   8.978   4.252   1.012
  656W        W 4400   1.934   8.811  10.463
  657W        W 4401   8.619   7.212   2.305
  658W        W 4402   9.832   1.368   0.258
  659W        W 4403   3.302   5.086   8.349
  660W        W 4404   2.334   2.103   0.988
  661W        W 4405   9.329   7.701   2.963
  662W        W 4406   6.752   5.997   8.697
  663W        W 4407   5.240   5.766   9.070
  664W        W 4408   7.605   5.701   2.156
  665W        W 4409   4.858   2.691  11.259
  666W        W 4410   9.087   2.323   1.358
  667W        W 4411   5.657   5.587   1.086
  668W        W 4412   5.904   8.623   1.500
  669W        W 4413   4.035   3.250   2.293
  670W        W 4414   6.105   0.325   2.484
  671W        W 4415   9.470   9.445   8.948
  672W        W 4416   3.826   0.040   1.715
  673W        W 4417   4.975   3.250   3.647
  674W        W 4418  10.062   3.642   1.731
  675W        W 4419   1.225   4.221   1.953
  676W        W 4420   0.498   3.392   3.468
  677W        W 4421   8.065   8.623  11.020
  678W        W 4422   6.508   3.610  11.723
  679W        W 4423   5.356  10.378   2.930
  680W        W 4424   5.072   6.058   1.411
  681W        W 4425   8.007   1.749   0.821
  682W        W 4426   0.833   0.950  11.798
  683W        W 4427   9.826   6.986   0.942
  684W        W 4428   1.945   3.680  11.918
  685W        W 4429   6.543   0.544   2.227
  686W        W 4430   0.318   2.088   1.836
  687W        W 4431   0.350   3.961  10.540
  688W        W 4432   6.219   4.685   0.489
  689W        W 4433   9.636   0.606   0.079
  690W        W 4434   0.505   4.727   1.940
  691W        W 4435   9.940   2.321   1.701
  692W        W 4436  10.230   7.797   9.784
  693W        W 4437   6.733   7.257   2.208
  694W        W 4438   0.847   8.575   2.254
  695W        W 4439   2.343   1.562   9.994
  696W        W 4440   8.633   6.522   1.903
  697W        W 4441   4.761   0.350   3.432
  698W        W 4442   1.893  10.472   3.391
  699W        W 4443   0.279   4.822  11.125
  700W        W 4444   7.195   1.883   8.554
  701W        W 4445   2.045   3.983   9.334
  702W        W 4446   3.799   7.625   2.618
  703W        W 4447   8.931   3.108   0.563
  704W        W 4448   7.777   3.124   3.132
  705W        W 4449   3.819   0.117   3.533
  706W        W 4450   8.007   8.367   3.089
  707W        W 4451   4.764   0.342   0.025
  708W        W 4452   5.211   6.025   1.933
  709W        W 4453   8.492   9.485   2.664
  710W        W 4454   1.240   5.736   8.611
  711W        W 4455   5.615   3.429   8.977
  712W        W 4456   7.901   5.148   9.102
  713W        W 4457   0.990   8.098   9.508
  714W        W 4458   2.304   6.987   8.899
  715W        W 4459   7.001  10.408   8.500
  716W        W 4460   7.137   7.399   1.888
  717W        W 4461   1.635  10.313   2.450
  718W        W 4462   3.211   0.342   0.783
  719W        W 4463   5.170   7.880  10.836
  720W        W 4464   7.089   4.231  10.915
  721W        W 4465   8.443   8.868   9.289
  722W        W 4466   5.665   8.932   2.187
  723W        W 4467   9.768   6.970   9.129
  724W        W 4468   5.135   7.163   0.485
  725W        W 4469   5.508   5.162   2.642
  726W        W 4470   6.415   7.421   0.392
  727W        W 4471   8.184   4.848   8.451
  728W        W 4472   6.406   7.431  11.223
  729W        W 4473   7.711   0.543   9.910
  730W        W 4474   1.412   1.409   1.727
  731W        W 4475   0.304   7.911   2.299
  732W        W 4476   1.578   8.396   1.644
  733W        W 4477   6.044   4.234  11.484
  734W        W 4478   0.096   4.703   0.429
  735W        W 4479   3.639   9.928   9.990
  736W        W 4480   9.529   5.276  10.972
  737W        W 4481   9.732   0.162   9.952
  738W        W 4482   3.780   1.906   0.423
  739W        W 4483   1.245   3.805   0.033
  740W        W 4484   0.406   5.742  11.045
  741W        W 4485  10.011   2.860   3.294
  742W        W 4486   1.148   7.811   3.295
  743W        W 4487   5.665   1.866   0.039
  744W        W 4488   2.093   9.272   8.749
  745W        W 4489   7.559   6.664   1.093
  746W        W 4490   5.646   9.575   8.842
  747W        W 4491   5.682   2.235   2.903
  748W        W 4492  10.051   3.516  10.722
  749W        W 4493   7.393   9.679   8.958
  750W        W 4494   1.753   7.592  11.815
  751W        W 4495   1.438   0.055  11.307
  752W        W 4496   4.321   6.657   1.601
  753W        W 4497   9.972   8.805   9.990
  754W        W 4498   0.580   0.001  10.798
  755W        W 4499   4.194  10.082   2.412
  756W        W 4500   5.325  10.054   9.530
  757W        W 4501   4.515   1.319   8.731
  758W        W 4502   0.444   0.823  11.003
  759W        W 4503   9.400   9.883   9.440
  760W        W 4504   2.070   3.176   0.021
  761W        W 4505   9.005   2.712  11.265
  762W        W 4506   7.249   7.935   9.117
  763W        W 4507   3.290   7.959   2.233
  764W        W 4508   1.346   1.967  10.740
  765W        W 4509   6.992   2.639   1.868
  766W        W 4510   8.970   3.122   0.062
  767W        W 4511   2.615  10.493   9.006
  768W        W 4512   2.180   8.938  11.791
  769W        W 4513   6.567   4.079   1.002
  770W        W 4514   9.895   9.962   9.285
  771W        W 4515   3.106   6.242   3.729
  772W        W 4516   1.703  10.406   1.289
  773W        W 4517   2.168   9.466   2.751
  774W        W 4518   9.614   8.462   0.296
  775W        W 4519   3.347   1.930  10.359
  776W        W 4520   1.297   0.667   1.189
  777W        W 4521   7.401   8.160  10.073
  778W        W 4522   2.753   6.445  10.967
  779W        W 4523   3.791   4.779   0.549
  780W        W 4524   7.689   5.775   1.318
  781W        W 4525   6.156   7.057  11.470
  782W        W 4526   0.353   2.307   1.378
  783W        W 4527   6.157   5.496   0.988
  784W        W 4528   5.547   6.023  10.236
  785W        W 4529   5.057   3.320   2.215
  786W        W 4530   0.838   6.187  11.485
  787W        W 4531   5.747   1.232  10.266
  788W        W 4532   6.331   9.527   3.236
  789W        W 4533   5.585   6.727   2.793
  790W        W 4534   0.235   2.147   8.680
  791W        W 4535   4.285   3.089   1.852
  792W        W 4536   6.644   0.330   1.353
  793W        W 4537   2.718   5.603   9.027
  794W        W 4538   0.141   9.433   3.311
  795W        W 4539   3.247   0.781   1.712
  796W        W 4540   0.252   6.564  10.578
  797W        W 4541   3.104   4.250   2.794
  798W        W 4542   4.255   9.331   8.855
  799W        W 4543   1.281   1.929   2.972
  800W        W 4544   2.989   4.317   8.558
  801W        W 4545   8.271   1.063  10.990
  802W        W 4546   7.245   2.814   0.020
  803W        W 4547   5.211   6.516   1.179
  804W        W 4548   7.212   4.217   8.519
  805W        W 4549  10.007   3.982  10.909
  806W        W 4550   4.779   0.360  11.513
  807W        W 4551   4.165   2.775   9.596
  808W        W 4552   8.906   0.240   8.604
  809W        W 4553   6.781   5.331   1.294
  810W        W 4554   9.344   4.133   1.365
  811W        W 4555   8.970   7.917   1.790
  812W        W 4556   7.014   7.548  10.389
  813W        W 4557   0.934   0.815  10.228
  814W        W 4558   3.766   4.059   3.797
  815W        W 4559   4.669   9.323  10.951
  816W        W 4560   7.545   7.340   3.638
  817W        W 4561  10.258   9.491  10.481
  818W        W 4562   6.942   3.688   9.523
  819W        W 4563  10.219   7.457  10.541
  820W        W 4564   5.628   2.241  11.184
  821W        W 4565   1.047   1.461   8.996
  822W        W 4566   0.127   5.553   9.545
  823W        W 4567   5.151   0.961   3.513
  824W        W 4568   3.583   4.244   1.828
  825W        W 4569   3.772   7.843   2.121
  826W        W 4570   7.118   1.191   0.794
  827W        W 4571   5.983   8.388  11.486
  828W        W 4572   2.476   6.916   2.942
  829W        W 4573   6.696   1.494   2.235
  830W        W 4574   8.047   2.869  11.224
  831W        W 4575   4.496   1.638   0.884
  832W        W 4576   8.555   9.480  10.561
  833W        W 4577   2.675   2.652   9.442
  834W        W 4578   7.924  10.200  10.091
  835W        W 4579   2.592   0.733   3.430
  836W        W 4580   7.450   5.616   8.564
  837W        W 4581   7.931   6.542  11.194
  838W        W 4582   6.048   3.283   0.940
  839W        W 4583   5.625   6.736   1.916
  840W        W 4584   9.185   1.140   2.102
  841W        W 4585   7.112   4.720   0.236
  842W        W 4586   4.847   6.171   0.336
  843W        W 4587   1.099   9.671  11.301
  844W        W 4588   0.723   9.835   2.509
  845W        W 4589   4.772   4.720   0.429
  846W        W 4590   4.744   3.719   9.516
  847W        W 4591   2.220   7.368  11.763
  848W        W 4592   6.192   4.288  11.969
  849W        W 4593   9.913   9.976   3.327
  850W        W 4594   6.580   8.349  10.373
  851W        W 4595   2.887   2.687  10.311
  852W        W 4596   7.867   4.589   8.139
  853W        W 4597   3.341   5.747   2.851
  854W        W 4598   1.882   1.808   2.346
  855W        W 4599   3.095   6.491   2.169
  856W        W 4600   4.062   8.607  11.437
  857W        W 4601   3.346   8.532   1.427
  858W        W 4602   2.088   2.385   2.355
  859W        W 4603   7.752   2.478  10.003
  860W        W 4604   2.272   3.885   3.150
  861W        W 4605   6.660   7.056  11.432
  862W        W 4606   0.491   8.472   3.294
  863W        W 4607   2.749   6.017   0.066
  864W        W 4608   6.657   4.798   2.412
  865W        W 4609   1.309   7.272  11.644
  866W        W 4610   8.919   7.470  10.902
  867W        W 4611   1.149   9.342   3.072
  868W        W 4612   3.655   2.755  10.031
  869W        W 4613   8.063   6.463  10.711
  870W        W 4614   6.464   3.240   0.539
  871W        W 4615   8.653   3.603   2.033
  872W        W 4616   9.532   6.637   1.178
  873W        W 4617   4.177   9.816  10.969
  874W        W 4618   1.438   0.547   2.320
  875W        W 4619   7.886   3.280  10.495
  876W        W 4620   0.331   3.230   9.124
  877W        W 4621   1.759   5.064   3.257
  878W        W 4622   4.124   0.402  10.746
  879W        W 4623   2.589   6.548   2.173
  880W        W 4624   0.511   0.884   9.921
  881W        W 4625   7.533   9.983   1.030
  882W        W 4626   2.072   1.008  11.816
  883W        W 4627   7.384   4.995   9.802
  884W        W 4628   8.453   4.652  10.798
  885W        W 4629  10.048   0.907  10.604
  886W        W 4630   9.651   6.628   2.197
  887W        W 4631   9.370   6.125  10.782
  888W        W 4632   5.002   2.611   8.986
  889W        W 4633   8.450   4.592   8.822
  890W        W 4634   4.679   2.214  11.441
  891W        W 4635  10.252   7.989   1.440
  892W        W 4636   9.086   2.832   0.965
  893W        W 4637   6.554   5.126   0.873
  894W        W 4638   8.183   3.645   8.927
  895W        W 4639  10.413   3.250   9.427
  896W        W 4640   0.711   9.756  10.455
  897W        W 4641   0.868   0.943   1.211
  898W        W 4642   8.121   4.788  11.233
  899W        W 4643   9.398   9.424  10.480
  900W        W 4644   0.496   7.567   0.844
  901W        W 4645   3.999   7.673   1.289
  902W        W 4646   3.579  10.034   0.472
  903W        W 4647   4.734   1.725   8.958
  904W        W 4648   5.613   9.391  11.757
  905W        W 4649   4.266   3.629   0.664
  906W        W 4650   7.527   7.647  10.312
  907W        W 4651   0.801   8.032   2.436
  908W        W 4652   2.557   1.166  11.455
  909W        W 4653   0.939   9.128   1.898
  910W        W 4654   0.826   3.079   2.326
  911W        W 4655   7.989   9.307   3.174
  912W        W 4656   7.576   0.975   3.318
  913W        W 4657   8.548   0.517   0.609
  914W        W 4658   8.422   1.962  11.946
  915W        W 4659   6.988   1.475   0.402
  916W        W 4660   6.489   2.699   3.281
  917W        W 4661   2.245   9.320  11.260
  918W        W 4662   8.091   1.391   9.170
  919W        W 4663   1.813   7.256   8.859
  920W        W 4664   2.153   4.103  10.742
  921W        W 4665   6.516   0.730   0.405
  922W        W 4666   9.889   2.733  11.123
  923W        W 4667   6.389   6.819  10.546
  924W        W 4668   0.930   8.763  10.344
  925W        W 4669   3.529   0.952   1.325
  926W        W 4670   3.323   6.812   0.213
  927W        W 4671  10.014   7.350  11.861
  928W        W 4672   8.864   4.194  10.481
  929W        W 4673   6.999   6.971   9.960
  930W        W 4674   1.519   8.176  11.907
  931W        W 4675   9.065   9.489  11.829
  932W        W 4676   0.589   9.133  11.138
  933W        W 4677   5.471   6.653   4.067
  934W        W 4678   8.390  10.017   8.370
  935W        W 4679   0.578   4.825   0.545
  936W        W 4680   9.383   6.200   8.805
  937W        W 4681   6.629   3.758   1.406
  938W        W 4682   9.374   6.436  10.349
  939W        W 4683   4.381  10.346   2.900
  940W        W 4684   3.876   7.302   2.217
  941W        W 4685   8.413   0.729  11.356
  942W        W 4686   4.551   5.769  11.897
  943W        W 4687   8.714   9.314   2.183
  944W        W 4688   3.674   6.045   1.290
  945W        W 4689   8.323   9.442   0.877
  946W        W 4690   5.188   5.236   9.555
  947W        W 4691   7.919   4.064   1.133
  948W        W 4692   1.830   1.617   0.542
  949W        W 4693   5.085   5.217   0.827
  950W        W 4694   1.735   4.159   3.178
  951W        W 4695   3.254   8.404   9.540
  952W        W 4696   9.943   3.158   9.214
  953W        W 4697   6.091   2.447  10.357
  954W        W 4698   1.904   9.395  10.825
  955W        W 4699   5.602   6.479   2.355
  956W        W 4700   2.594   9.967   9.117
  957W        W 4701   0.999   9.057   2.420
  958W        W 4702   3.821   9.384  11.773
  959W        W 4703   2.683   8.061   3.316
  960W        W 4704   4.589   4.065   8.904
  961W        W 4705   3.645   7.529   3.437
  962W        W 4706   2.398   0.296  11.812
  963W        W 4707   5.668   8.030  11.309
  964W        W 4708   1.423   5.662   2.490
  965W        W 4709   5.263   0.954  11.346
  966W        W 4710   7.561   6.992   8.688
  967W        W 4711   2.904   3.208   8.897
  968W        W 4712   2.648   8.955   9.980
  969W        W 4713   5.644   7.559   8.854
  970W        W 4714   4.077   2.223   8.884
  971W        W 4715   5.964   6.798   9.489
  972W        W 4716   9.849  10.288  11.462
  973W        W 4717   4.231   0.339   2.745
  974W        W 4718   7.477   1.041   2.827
  975W        W 4719   4.163   8.494   2.815
  976W        W 4720   1.862   5.077   9.997
  977W        W 4721   8.886   4.527   2.014
  978W        W 4722   3.224   6.088   9.665
  979W        W 4723   9.006   0.844  11.405
  980W        W 4724   5.551   1.683  10.527
  981W        W 4725   2.820   8.087   1.800
  982W        W 4726   6.635   8.116   2.779
  983W        W 4727   6.661  10.028   1.020
  984W        W 4728   6.698   4.460   0.630
  985W        W 4729   4.816   9.818   0.875
  986W        W 4730  10.402   1.419   0.851
  987W        W 4731  10.308   4.697  11.378
  988W        W 4732   3.567   5.247   9.392
  989W        W 4733   5.460   4.336   1.668
  990W        W 4734   0.170   0.173   2.075
  991W        W 4735   0.868   7.140   3.611
  992W        W 4736   4.608   2.671   2.772
  993W        W 4737   1.164   6.088  10.849
  994W        W 4738   9.095   9.723   2.186
  995W        W 4739   8.800   9.872  11.516
  996W        W 4740   6.871   8.343   2.354
  997W        W 4741   0.229   9.198   2.413
  998W        W 4742   8.960   0.047  10.494
  999W        W 4743  10.305   3.259  11.352
 1000W        W 4744   2.352   2.089   2.043
 1001W        W 4745   7.842   3.299   1.130
 1002W        W 4746   0.795   0.514  11.562
 1003W        W 4747   5.001   4.499   3.075
 1004W        W 4748   2.287   7.835   0.369
 1005W        W 4749   9.891   9.237   2.607
 1006W        W 4750   4.055   3.948   9.136
 1007W        W 4751   5.335   7.907   2.664
 1008W        W 4752   6.590   5.698  11.739
 1009W        W 4753   5.942   2.245  10.783
 1010W        W 4754   5.698   8.558   0.715
 1011W        W 4755  10.313  10.023  11.786
 1012W        W 4756   1.688   9.075   9.093
 1013W        W 4757   2.996   2.700   3.418
 1014W        W 4758   7.443   1.326   1.708
 1015W        W 4759   1.162   1.860   1.612
 1016W        W 4760   3.134   6.131  11.767
 1017W        W 4761   7.931   9.139   0.779
 1018W        W 4762   3.544   7.685   1.671
 1019W        W 4763   3.670   4.691   8.191
 1020W        W 4764   7.103   4.750  10.389
 1021W        W 4765   9.401   3.744  10.141
 1022W        W 4766   8.572   5.683   3.089
 1023W        W 4767   3.981   4.441   1.574
 1024W        W 4768   9.148   3.600  11.350
 1025W        W 4769   9.531   6.343   0.168
 1026W        W 4770   2.540   2.547   3.258
 1027W        W 4771   9.321   7.826  11.513
 1028W        W 4772   8.391  10.172   0.211
 1029W        W 4773   5.551   0.007   8.894
 1030W        W 4774   5.797   9.852   9.589
 1031W        W 4775   1.320   0.769   9.534
 1032W        W 4776   1.257   5.088   3.010
 1033W        W 4777   5.665  10.376   1.965
 1034W        W 4778   5.754   0.669   1.315
 1035W        W 4779   1.872   8.587   3.165
 1036W        W 4780   1.167   1.059   3.608
 1037W        W 4781  10.436   1.778  10.118
 1038W        W 4782   2.319   3.678  11.060
 1039W        W 4783   8.880   5.721   2.678
 1040W        W 4784   8.113   9.288   9.821
 1041W        W 4785   5.208   3.534   1.728
 1042W        W 4786   1.852   8.407  10.179
 1043W        W 4787   5.581   3.704  11.969
 1044W        W 4788   8.330   3.306  10.823
 1045W        W 4789   6.576   8.543   9.852
 1046W        W 4790   2.817   0.407   9.794
 1047W        W 4791   7.543   0.297   2.261
 1048W        W 4792  10.245   5.055   3.210
 1049W        W 4793   1.321   5.924   3.400
 1050W        W 4794   4.590   1.890  11.042
 1051W        W 4795   4.282   3.305  11.261
 1052W        W 4796   8.275  10.236   8.824
 1053W        W 4797   9.733   4.026   1.695
 1054W        W 4798  10.180   5.963   9.013
 1055W        W 4799   2.543   4.558   8.727
 1056W        W 4800   6.658   7.535   1.758
 1057W        W 4801   5.780   6.194  11.514
 1058W        W 4802   6.888   5.153   9.562
 1059W        W 4803   0.914   3.571  10.821
 1060W        W 4804   4.069   0.206  11.216
 1061W        W 4805   9.994   3.242   9.743
 1062W        W 4806   0.811   7.988   2.972
 1063W        W 4807   1.354   9.972  10.605
 1064W        W 4808   0.535   0.598   9.118
 1065W        W 4809   7.109   1.052   8.903
 1066W        W 4810   0.764   2.614   3.002
 1067W        W 4811   8.692   7.312  11.865
 1068W        W 4812   7.126   3.383   8.925
 1069W        W 4813   4.439   0.012   2.422
 1070W        W 4814   7.846   5.180  11.438
 1071W        W 4815   9.544   7.122  10.993
 1072W        W 4816   4.131  10.080  10.043
 1073W        W 4817   7.031   6.062   9.610
 1074W        W 4818   0.152   7.495   9.619
 1075W        W 4819   7.112   4.644   4.254
 1076W        W 4820   7.467   0.870  10.879
 1077W        W 4821   5.263   8.302   0.485
 1078W        W 4822   4.755   9.318   0.913
 1079W        W 4823   9.264   1.642   1.975
 1080W        W 4824   5.162   8.953   1.981
 1081W        W 4825   3.631   8.564   8.942
 1082W        W 4826   6.944   0.180  11.823
 1083W        W 4827   9.901   1.865   1.461
 1084W        W 4828   7.575   5.407  10.997
 1085W        W 4829   8.656   6.811   1.471
 1086W        W 4830   5.778   4.629   1.368
 1087W        W 4831   5.107  10.435   1.545
 1088W        W 4832   8.354   6.204   2.185
 1089W        W 4833   6.120   3.696   1.727
 1090W        W 4834  10.353   1.230   2.662
 1091W        W 4835   3.547   2.787   1.837
 1092W        W 4836   5.259   8.991  11.452
 1093W        W 4837   1.731   7.145   9.762
 1094W        W 4838   9.859   7.069   2.984
 1095W        W 4839   3.674   9.605   0.212
 1096W        W 4840   6.865   2.231  10.693
 1097W        W 4841   9.409   1.224   9.996
 1098W        W 4842   5.342   0.418  10.592
 1099W        W 4843   3.268  10.169  10.884
 1100W        W 4844   8.146   8.390   0.312
 1101W        W 4845   6.490   3.344   2.781
 1102W        W 4846   4.631   7.886   2.332
 1103W        W 4847   2.297   8.355   1.384
 1104W        W 4848   6.075   9.679  10.457
 1105W        W 4849   6.094   1.040   0.175
 1106W        W 4850   3.286   0.517   2.761
 1107W        W 4851   3.898   4.608   2.713
 1108W        W 4852   2.847   3.554  11.743
 1109W        W 4853   5.282   1.349  11.004
 1110W        W 4854   2.941   4.599   9.596
 1111W        W 4855   6.234   1.370  10.524
 1112W        W 4856   3.197   4.579  11.549
 1113W        W 4857   6.580  10.232   0.555
 1114W        W 4858   9.869   1.385  10.690
 1115W        W 4859   0.135   8.322   0.383
 1116W        W 4860   3.408   3.661  10.377
 1117W        W 4861   0.188   6.182   9.865
 1118W        W 4862   4.968   5.643  10.288
 1119W        W 4863   6.165   6.506   1.223
 1120W        W 4864   5.665   3.136  11.170
 1121W        W 4865   4.704   9.089   9.139
 1122W        W 4866   9.524   9.597   0.041
 1123W        W 4867   4.997   4.511   1.858
 1124W        W 4868   1.738   6.022   9.912
 1125W        W 4869   2.201   9.475   9.841
 1126W        W 4870   0.360   2.770   1.170
 1127W        W 4871   2.973   5.947   0.550
 1128W        W 4872   2.243   0.932  10.565
 1129W        W 4873   0.186   1.667  11.084
 1130W        W 4874   3.569   1.707  11.990
 1131W        W 4875   9.970   6.159   1.370
 1132W        W 4876   8.063   7.070   8.512
 1133W        W 4877   5.977   7.473   1.523
 1134W        W 4878   3.707   3.542   1.435
 1135W        W 4879   8.494   5.924   9.597
 1136W        W 4880   1.029   5.940   9.476
 1137W        W 4881   2.810   8.884   2.159
 1138W        W 4882   4.790   3.168   2.708
 1139W        W 4883   9.888   6.012   0.012
 1140W        W 4884   5.010   4.192   8.653
 1141W        W 4885  10.379   7.244   0.213
 1142W        W 4886   9.564   7.067  11.940
 1143W        W 4887   7.596   5.778  11.913
 1144W        W 4888   3.707   1.419   9.345
 1145W        W 4889   0.784   7.033  10.587
 1146W        W 4890   9.173   1.723  10.815
 1147W        W 4891   8.928   3.313   1.073
 1148W        W 4892  10.328   0.467   0.704
 1149W        W 4893   0.302   6.987  10.256
 1150W        W 4894   8.392   5.044   9.655
 1151W        W 4895   0.318   2.842   3.161
 1152W        W 4896   4.409   9.504  10.131
 1153W        W 4897   7.917  10.230   9.581
 1154W        W 4898   2.680   5.656   1.727
 1155W        W 4899   7.175   7.011   0.201
 1156W        W 4900   5.454   7.269   3.706
 1157W        W 4901   8.372  10.487  11.797
 1158W        W 4902   6.472   1.381   9.610
 1159W        W 4903   1.802   4.264   0.620
 1160W        W 4904   9.894   8.900  11.554
 1161W        W 4905   3.516   7.557   1.167
 1162W        W 4906   1.876   3.103   3.025
 1163W        W 4907   6.995   6.027   0.949
 1164W        W 4908   0.486   2.090   0.923
 1165W        W 4909   7.156   9.322   3.298
 1166W        W 4910   2.680   1.935   9.911
 1167W        W 4911   3.708   8.862   0.899
 1168W        W 4912   1.352   0.869  10.534
 1169W        W 4913   9.973   5.711  10.307
 1170W        W 4914   8.765  10.034  10.523
 1171W        W 4915   3.115   9.814  11.351
 1172W        W 4916   1.827   5.737  11.225
 1173W        W 4917   0.982   1.387   3.270
 1174W        W 4918   9.545   7.056   3.437
 1175W        W 4919  10.339   9.856   1.680
 1176W        W 4920   5.749   7.003   2.348
 1177W        W 4921   7.361   5.638   9.095
 1178W        W 4922   2.836   4.841   2.820
 1179W        W 4923   9.482   3.600   3.382
 1180W        W 4924   9.552   4.516   0.401
 1181W        W 4925   5.656   1.314   8.733
 1182W        W 4926   7.050   3.977   2.405
 1183W        W 4927   5.630   3.737   1.989
 1184W        W 4928   7.689   3.822  11.870
 1185W        W 4929   7.162   2.665  10.629
 1186W        W 4930  10.428   4.370   0.780
 1187W        W 4931   7.191   1.223  11.876
 1188W        W 4932   2.926   2.955   8.422
 1189W        W 4933   5.547   2.234   8.792
 1190W        W 4934   8.191   1.907   2.822
 1191W        W 4935   3.318   0.493   2.243
 1192W        W 4936   7.935   7.386   2.709
 1193W        W 4937   0.273   1.337   9.837
 1194W        W 4938   2.354   1.858   8.567
 1195W        W 4939   0.630   8.898   0.941
 1196W        W 4940   6.154   6.014   1.038
 1197W        W 4941   9.076   3.730  10.532
 1198W        W 4942   4.260   1.177   0.843
 1199W        W 4943   2.660   3.778   0.632
 1200W        W 4944   7.890   5.109   0.208
 1201W        W 4945   7.848   8.282  11.335
 1202W        W 4946   7.922   6.599  11.693
 1203W        W 4947   1.224   7.342   3.080
 1204W        W 4948   1.433   6.483  11.018
 1205W        W 4949   7.574   7.900  11.062
 1206W        W 4950   1.573   2.786   3.285
 1207W        W 4951   6.051   1.957   0.738
 1208W        W 4952   2.199   8.579   2.300
 1209W        W 4953   6.904   7.885  10.008
 1210W        W 4954   1.391   5.569   9.420
 1211W        W 4955   1.866   5.909  10.405
 1212W        W 4956   1.734   7.770   8.750
 1213W        W 4957   7.185   1.478  11.312
 1214W        W 4958   2.274   3.795   8.881
 1215W        W 4959  10.025   3.807  10.286
 1216W        W 4960   0.020   9.383   1.418
 1217W        W 4961   9.845   5.505   9.842
 1218W        W 4962   7.617   9.466   8.548
 1219W        W 4963   3.172   2.756   9.359
 1220W        W 4964   7.289   4.422   0.601
 1221W        W 4965   2.951   7.557   8.642
 1222W        W 4966   4.007   7.918   3.447
 1223W        W 4967   3.494   3.321   3.224
 1224W        W 4968   8.193   4.684   0.172
 1225W        W 4969   5.595   1.672   2.513
 1226W        W 4970   3.125   4.093  10.800
 1227W        W 4971   9.518   0.717  11.564
 1228W        W 4972   5.656   8.462   0.206
 1229W        W 4973   2.165   7.351  11.258
 1230W        W 4974   4.590   5.028  10.809
 1231W        W 4975   3.739   1.325  10.371
 1232W        W 4976   2.308   8.398   8.948
 1233W        W 4977   8.958   0.039   1.871
 1234W        W 4978   6.004   5.809   9.571
 1235W        W 4979   0.871   9.975   3.438
 1236W        W 4980   5.718   9.572   2.994
 1237W        W 4981   9.417   1.727   1.489
 1238W        W 4982   3.521   1.710   0.804
 1239W        W 4983   6.974   0.270   9.514
 1240W        W 4984   9.479   0.957   0.901
 1241W        W 4985   9.331   9.599   2.928
 1242W        W 4986   9.331   5.086   9.212
 1243W        W 4987   1.508   7.769   2.944
 1244W        W 4988   2.196   5.791   2.345
 1245W        W 4989   6.164   6.438   3.894
 1246W        W 4990   5.232   3.790   2.326
 1247W        W 4991   0.510   8.293   9.491
 1248W        W 4992   6.222   2.715  10.763
 1249W        W 4993   4.967   3.710   7.797
 1250W        W 4994   4.272   3.903  10.344
 1251W        W 4995   7.376   6.776   3.691
 1252W        W 4996   5.390   7.088  10.559
 1253W        W 4997   5.950   8.386   9.519
 1254W        W 4998   7.094   7.365   0.669
 1255W        W 4999   5.088   0.709   2.145
 1256W        W 5000   4.760   2.714  10.747
 1257W        W 5001   3.347   2.807   0.259
 1258W        W 5002   7.948   0.958   8.878
 1259W        W 5003   5.984   3.908  10.212
 1260W        W 5004   2.234   5.737   8.945
 1261W        W 5005   2.757   4.693   1.950
 1262W        W 5006   9.724   7.154   1.440
 1263W        W 5007   8.574   3.360   3.389
 1264W        W 5008   4.999   7.984   9.793
 1265W        W 5009   1.691   4.695   9.701
 1266W        W 5010   9.108   8.175   9.228
 1267W        W 5011   7.510   5.200   3.616
 1268W        W 5012   6.476   7.349   2.736
 1269W        W 5013   4.546   8.129  10.023
 1270W        W 5014   4.482   9.701   8.533
 1271W        W 5015   7.793  10.422  11.951
 1272W        W 5016   4.128   1.408   0.388
 1273W        W 5017   1.256   6.462   0.290
 1274W        W 5018   8.102   8.911   0.330
 1275W        W 5019   0.139   6.877   8.598
 1276W        W 5020   4.613   5.021   2.683
 1277W        W 5021   9.375   2.456   9.972
 1278W        W 5022  10.144   0.481   9.835
 1279W        W 5023   1.829   1.660  10.045
 1280W        W 5024   1.288   2.195   1.179
 1281W        W 5025   7.950   8.822   3.337
 1282W        W 5026  10.284   6.464   9.662
 1283W        W 5027   0.471   3.467  10.589
 1284W        W 5028   7.041   5.370   0.780
 1285W        W 5029   5.597   9.416   1.460
 1286W        W 5030   3.444   8.605   3.257
 1287W        W 5031   7.471   5.020   0.472
 1288W        W 5032   7.235   9.305   1.882
 1289W        W 5033   9.130   1.351   0.207
 1290W        W 5034   2.894   4.053   3.275
 1291W        W 5035   9.776   0.488   1.879
 1292W        W 5036   1.828   5.578   0.247
 1293W        W 5037   3.116  10.486   9.616
 1294W        W 5038   1.839  10.334  11.534
 1295W        W 5039  10.284   1.923   2.046
 1296W        W 5040   6.886   7.592   1.252
 1297W        W 5041   6.490   3.541  10.738
 1298W        W 5042   8.751  10.430   9.461
 1299W        W 5043   3.203   6.032   2.377
 1300W        W 5044   4.461   4.614   0.836
 1301W        W 5045  10.483   5.424   2.349
 1302W        W 5046   3.083   0.700   3.252
 1303W        W 5047   6.718   5.568  10.849
 1304W        W 5048   8.887   7.633   0.376
 1305W        W 5049   8.420   8.600   3.303
 1306W        W 5050   2.413   0.287   9.465
 1307W        W 5051   8.392   1.797   0.439
 1308W        W 5052   0.709   2.375   8.579
 1309W        W 5053   0.699   4.149   2.239
 1310W        W 5054   6.942   2.249   8.841
 1311W        W 5055   4.656   7.081   1.670
 1312W        W 5056   0.375   6.413  11.917
 1313W        W 5057   3.133   7.618   3.157
 1314W        W 5058   4.152   7.872   9.781
 1315W        W 5059   2.529   9.555   8.805
 1316W        W 5060   7.660   6.529   1.555
 1317W        W 5061   6.848   2.313  11.747
 1318W        W 5062   1.166   7.586  11.261
 1319W        W 5063   4.614   9.930   2.692
 1320W        W 5064   7.885   6.033   4.168
 1321W        W 5065   4.843   1.326  11.248
 1322W        W 5066   6.568   5.853   2.741
 1323W        W 5067   9.917   7.482   1.825
 1324W        W 5068   6.473   0.966   9.290
 1325W        W 5069   2.385   1.458   9.035
 1326W        W 5070   4.752   6.532   1.838
 1327W        W 5071   4.632   6.165  10.373
 1328W        W 5072   6.983   9.452   1.442
 1329W        W 5073   4.149   4.703   9.966
 1330W        W 5074   2.712   3.214  10.877
 1331W        W 5075   4.205   0.360   1.180
 1332W        W 5076   7.692   8.316   0.526
 1333W        W 5077   9.375   0.232   9.558
 1334W        W 5078   2.813   1.444   9.821
 1335W        W 5079   3.184   4.101  11.300
 1336W        W 5080   7.431   9.760   0.456
 1337W        W 5081   1.217   6.536   1.705
 1338W        W 5082  10.437   0.167   1.146
 1339W        W 5083   8.836   3.154   9.539
 1340W        W 5084   6.065   7.371   3.064
 1341W        W 5085   5.073   7.426  10.057
 1342W        W 5086   7.693   7.336   9.935
 1343W        W 5087   3.806   2.264   1.824
 1344W        W 5088   2.581   3.167  11.951
 1345W        W 5089   3.948   2.625   8.576
 1346W        W 5090   7.848   7.021   9.532
 1347W        W 5091   3.862   3.646  11.033
 1348W        W 5092   6.082   0.367   0.808
 1349W        W 5093   2.184   4.358   8.413
 1350W        W 5094   6.196   0.018  10.814
 1351W        W 5095   7.541   2.910   2.284
 1352W        W 5096   5.556   4.360  11.420
 1353W        W 5097   8.210   5.772   3.862
 1354W        W 5098   8.993   7.687   9.347
 1355W        W 5099   4.716   7.239   9.474
 1356W        W 5100   7.922   1.161   1.942
 1357W        W 5101   7.865   8.355   9.835
 1358W        W 5102   3.701   1.408   1.497
 1359W        W 5103   7.422   7.440  11.275
 1360W        W 5104   6.572   6.867   2.733
 1361W        W 5105   8.457   4.595   3.118
 1362W        W 5106   7.924   5.090   8.053
 1363W        W 5107   4.573  10.349  10.052
 1364W        W 5108   5.733   4.667   2.924
 1365W        W 5109   9.707  10.466   1.255
 1366W        W 5110  10.097   0.515  11.832
 1367W        W 5111   5.104   6.143  11.038
 1368W        W 5112   2.341   6.198   3.768
 1369W        W 5113   1.993   1.167   8.808
 1370W        W 5114   1.797   3.204  10.997
 1371W        W 5115   4.091   2.377   0.470
 1372W        W 5116   9.351   0.485   8.619
 1373W        W 5117   2.893   4.043   2.354
 1374W        W 5118   8.954   2.709  10.751
 1375W        W 5119   4.488   6.771  11.822
 1376W        W 5120   0.147   9.317  11.290
 1377W        W 5121  10.312   6.374   2.523
 1378W        W 5122   5.810   7.687   1.960
 1379W        W 5123   2.668   9.930   3.314
 1380W        W 5124   8.378   4.154   9.570
 1381W        W 5125   5.720   8.313   1.156
 1382W        W 5126   4.713   3.259   9.711
 1383W        W 5127   2.628   1.215  10.276
 1384W        W 5128   7.800  10.365   1.258
 1385W        W 5129   8.290   0.270   0.235
 1386W        W 5130   7.090   8.804   3.324
 1387W        W 5131   7.853   9.362   2.660
 1388W        W 5132   2.260   9.844   1.426
 1389W        W 5133   6.008   2.948  10.324
 1390W        W 5134   7.224   7.862   1.678
 1391W        W 5135   1.728   2.660   9.540
 1392W        W 5136   5.419   0.856  10.866
 1393W        W 5137   9.987   0.675   3.198
 1394W        W 5138   1.272   0.528  11.393
 1395W        W 5139   8.552   1.770   1.402
 1396W        W 5140   2.440   2.203   9.542
 1397W        W 5141   1.933   3.300   1.527
 1398W        W 5142   5.731   8.205   2.742
 1399W        W 5143   0.994   2.336   9.568
 1400W        W 5144   0.708   2.866  11.443
 1401W        W 5145   7.689   1.975  10.268
 1402W        W 5146   5.453   0.827   3.103
 1403W        W 5147   3.961   5.637  10.178
 1404W        W 5148   2.913   4.545  10.973
 1405W        W 5149   8.965   6.199   2.819
 1406W        W 5150   5.580   2.028   0.986
 1407W        W 5151   1.631   7.992  10.028
 1408W        W 5152   2.718   7.005   3.398
 1409W        W 5153   7.577   1.377   3.626
 1410W        W 5154   2.806   3.742   1.949
 1411W        W 5155  10.366   3.067   8.923
 1412W        W 5156   9.105   6.667   2.660
 1413W        W 5157   1.205   3.333   0.244
 1414W        W 5158   5.503   0.886   8.470
 1415W        W 5159   3.584   3.225  10.680
 1416W        W 5160   1.447   2.267   9.338
 1417W        W 5161   0.445   6.883  10.943
 1418W        W 5162   2.141   7.692   1.205
 1419W        W 5163   1.347   4.326   9.013
 1420W        W 5164   2.593   2.682   0.821
 1421W        W 5165   9.074   5.544   9.261
 1422W        W 5166   0.293   4.128  11.940
 1423W        W 5167   2.417   0.863   1.925
 1424W        W 5168   2.378   6.095   9.789
 1425W        W 5169   5.025   3.778   9.028
 1426W        W 5170   8.906   5.281   0.435
 1427W        W 5171   6.212   5.487   0.066
 1428W        W 5172   1.444   5.107   1.950
 1429W        W 5173   0.264   0.564   0.995
 1430W        W 5174   6.160   8.379  10.080
 1431W        W 5175   0.317   0.386  11.358
 1432W        W 5176   9.489   4.147   0.066
 1433W        W 5177   7.978   8.745   1.691
 1434W        W 5178  10.274   8.463   3.162
 1435W        W 5179   4.818   4.560   1.372
 1436W        W 5180   0.936   0.338   0.318
 1437W        W 5181   8.902   9.825   3.171
 1438W        W 5182   1.072  10.368   0.188
 1439W        W 5183   7.989   4.624   2.407
 1440W        W 5184  10.445  10.087   9.097
 1441W        W 5185   8.848   5.523   9.752
 1442W        W 5186   8.844   9.043  11.972
 1443W        W 5187   4.767   1.229   0.725
 1444W        W 5188   7.954   6.505   2.663
 1445W        W 5189   5.433   2.154  10.728
 1446W        W 5190   4.190   5.860  10.628
 1447W        W 5191   2.212   2.185  11.136
 1448W        W 5192   5.235   4.246   3.629
 1449W        W 5193   3.689   5.893   2.229
 1450W        W 5194   1.782   9.565   9.021
 1451W        W 5195   5.281   0.046  10.983
 1452W        W 5196   6.119   9.903   2.965
 1453W        W 5197   2.161   6.542   1.903
 1454W        W 5198   8.151   5.681   8.510
 1455W        W 5199   1.642   4.617   0.286
 1456W        W 5200   7.629   3.283  11.932
 1457W        W 5201   2.842   5.747  10.374
 1458W        W 5202   6.626   6.628   3.173
 1459W        W 5203   6.807   2.078  10.202
 1460W        W 5204   5.711   3.742   2.496
 1461W        W 5205   5.179   1.764   0.828
 1462W        W 5206   3.794   3.551   9.376
 1463W        W 5207  10.224   6.046   0.926
 1464W        W 5208   4.207   1.428   9.582
 1465W        W 5209   2.999   0.880   2.393
 1466W        W 5210   3.565   0.146  11.284
 1467W        W 5211   4.630   0.314   9.849
 1468W        W 5212   1.698   3.159   2.532
 1469W        W 5213   1.014   8.345   0.423
 1470W        W 5214   3.538   6.683   8.654
 1471W        W 5215   2.267   5.481  11.997
 1472W        W 5216   6.451   5.290   2.596
 1473W        W 5217   2.277   0.310   3.453
 1474W        W 5218   7.534   1.496   0.736
 1475W        W 5219   9.746  10.110  10.358
 1476W        W 5220   9.590   2.229   1.252
 1477W        W 5221   1.782   7.297  10.445
 1478W        W 5222   0.737   4.265   3.253
 1479W        W 5223   1.682   7.616  11.304
 1480W        W 5224   8.539   5.290   1.279
 1481W        W 5225   5.688   7.128   4.132
 1482W        W 5226   4.554   8.134   8.956
 1483W        W 5227   9.795   7.655   9.375
 1484W        W 5228   5.006   7.905   8.806
 1485W        W 5229   8.742   5.821   0.973
 1486W        W 5230   3.270   6.322   1.465
 1487W        W 5231   6.828   8.102   8.882
 1488W        W 5232   8.981   3.364   1.580
 1489W        W 5233   9.493   4.721  10.956
 1490W        W 5234   2.735   4.637   0.694
 1491W        W 5235   9.860   2.205   0.191
 1492W        W 5236  10.378   6.110   0.275
 1493W        W 5237   3.137   5.656   1.958
 1494W        W 5238   7.854   7.177  10.402
 1495W        W 5239   6.150   0.509  10.755
 1496W        W 5240   7.860   9.759  11.450
 1497W        W 5241   3.894   8.369   3.237
 1498W        W 5242   0.258   8.566   9.130
 1499W        W 5243   5.308   4.494   1.203
 1500W        W 5244   8.468   6.354   1.261
 1501W        W 5245   7.582   9.531   3.542
 1502W        W 5246   3.713  10.083   9.119
 1503W        W 5247   8.593   0.960   2.913
 1504W        W 5248   4.267   1.496  11.096
 1505W        W 5249   3.569   4.314   0.423
 1506W        W 5250   4.525   6.947   0.643
 1507W        W 5251   8.440   9.000   2.509
 1508W        W 5252   2.066   7.705   2.150
 1509W        W 5253   8.474   8.272  11.949
 1510W        W 5254   1.751   2.153   2.732
 1511W        W 5255   5.661   1.285   0.262
 1512W        W 5256   6.989   7.491   3.443
 1513W        W 5257   0.197   5.936  11.892
 1514W        W 5258   9.430   5.061   1.250
 1515W        W 5259   4.266   1.117   9.991
 1516W        W 5260   0.006   8.411  10.975
 1517W        W 5261   9.366   0.539  10.474
 1518W        W 5262   3.150   6.995   2.160
 1519W        W 5263   7.657   4.153   8.290
 1520W        W 5264   1.461   5.489  11.469
 1521W        W 5265   5.122   0.003   3.355
 1522W        W 5266   9.544   5.456   0.941
 1523W        W 5267   9.047   5.850   3.184
 1524W        W 5268   8.771   7.044   2.776
 1525W        W 5269   3.666   8.611   2.701
 1526W        W 5270   2.742  10.417  11.584
 1527W        W 5271   3.510   2.776  10.972
 1528W        W 5272   7.271   2.325   9.787
 1529W        W 5273   3.301   9.270   3.568
 1530W        W 5274  10.315   6.205   3.008
 1531W        W 5275   1.828   3.720  10.897
 1532W        W 5276   7.504   6.084   9.373
 1533W        W 5277   6.016   7.437   2.557
 1534W        W 5278   5.631   8.298   3.639
 1535W        W 5279   2.229   5.798   1.448
 1536W        W 5280   5.542   6.859   0.407
 1537W        W 5281   3.283   1.213   3.300
 1538W        W 5282  10.349   6.442   9.111
 1539W        W 5283   6.777   8.487   0.296
 1540W        W 5284   9.817   5.247  10.457
 1541W        W 5285   4.475   7.514   1.434
 1542W        W 5286   3.678   6.656   9.154
 1543W        W 5287   1.470   5.553   2.984
 1544W        W 5288   5.594   3.095   9.386
 1545W        W 5289   7.546   8.898   1.956
 1546W        W 5290  10.178   5.978   9.870
 1547W        W 5291   9.851   6.112   8.591
 1548W        W 5292   6.138   9.894   9.972
 1549W        W 5293   9.864   3.266  11.137
 1550W        W 5294   6.089   6.479  11.808
 1551W        W 5295   4.544   7.507   1.954
 1552W        W 5296   2.413   7.570  10.093
 1553W        W 5297   4.466   7.249  11.084
 1554W        W 5298   5.607   1.295   9.247
 1555W        W 5299   7.257   4.478   9.005
 1556W        W 5300   7.658   6.957   0.329
 1557W        W 5301  10.312   4.957   2.497
 1558W        W 5302   8.962   6.251   3.500
 1559W        W 5303   8.088   1.274  11.472
 1560W        W 5304   6.755   5.685   9.843
 1561W        W 5305   1.535   1.846   1.973
 1562W        W 5306   4.876   5.626   9.403
 1563W        W 5307   5.112   1.205   3.016
 1564W        W 5308   3.591   3.750   8.933
 1565W        W 5309   7.473   6.751  11.881
 1566W        W 5310   5.667   2.803   1.588
 1567W        W 5311   3.721   5.871   3.169
 1568W        W 5312   6.119   5.935  11.823
 1569W        W 5313   2.842   0.734  11.478
 1570W        W 5314   7.365   2.360  11.767
 1571W        W 5315   5.295   9.313   2.949
 1572W        W 5316   9.680   5.437   9.342
 1573W        W 5317   2.159   8.015  10.098
 1574W        W 5318   8.038   4.382   3.920
 1575W        W 5319   9.574   0.482   0.583
 1576W        W 5320   4.580   0.741   0.829
 1577W        W 5321   2.211   4.063   0.861
 1578W        W 5322   1.363   9.387  11.627
 1579W        W 5323   1.067   8.407  10.698
 1580W        W 5324   1.607   0.763   0.795
 1581W        W 5325   7.852   1.148   2.483
 1582W        W 5326   9.191   5.594   3.625
 1583W        W 5327   1.850   9.245   0.351
 1584W        W 5328   9.961   0.311   2.829
 1585W        W 5329   1.403   8.437   9.298
 1586W        W 5330   8.825   0.806   9.046
 1587W        W 5331   6.550   5.042  11.046
 1588W        W 5332   8.950   7.915   3.364
 1589W        W 5333   5.447   7.098   8.723
 1590W        W 5334   1.844   8.078   9.164
 1591W        W 5335   6.357   2.419  11.937
 1592W        W 5336   1.235   1.145   0.027
 1593W        W 5337   3.352   8.752   0.440
 1594W        W 5338   5.711   0.190  11.453
 1595W        W 5339   7.111   6.615   1.477
 1596W        W 5340   7.992   7.686  10.640
 1597W        W 5341   9.267   2.388  10.474
 1598W        W 5342   9.869   6.160   2.314
 1599W        W 5343   7.238   2.902   0.898
 1600W        W 5344   0.955   5.164   0.577
 1601W        W 5345  10.333   4.528   1.265
 1602W        W 5346   3.567   3.649   9.820
 1603W        W 5347   8.959   3.584   0.290
 1604W        W 5348   6.023   5.198  10.125
 1605W        W 5349   9.760   8.158  10.738
 1606W        W 5350   8.871   4.369   2.573
 1607W        W 5351   7.410   6.592   1.975
 1608W        W 5352   1.305   5.726   9.920
 1609W        W 5353   0.017   8.754   2.247
 1610W        W 5354   7.612   8.120   1.443
 1611W        W 5355   6.955   4.541  11.805
 1612W        W 5356   5.490   6.222   2.794
 1613W        W 5357   8.204   0.671   9.692
 1614W        W 5358   6.013   9.182   1.745
 1615W        W 5359   5.307   9.893   0.889
 1616W        W 5360   7.666   9.563  11.021
 1617W        W 5361   7.083   3.594   2.055
 1618W        W 5362   4.713   3.605   0.933
 1619W        W 5363   8.496   1.501   9.972
 1620W        W 5364   8.439   3.793   2.458
 1621W        W 5365   2.529   1.654   0.889
 1622W        W 5366   4.128   6.575   9.378
 1623W        W 5367   3.367   2.296   9.624
 1624W        W 5368   9.629   3.471  11.561
 1625W        W 5369   6.132   0.323   1.365
 1626W        W 5370   5.207   3.922   9.508
 1627W        W 5371   4.892   9.031   2.898
 1628W        W 5372   3.314   7.459   3.800
 1629W        W 5373   9.419   9.770   1.743
 1630W        W 5374   1.632  10.450   2.949
 1631W        W 5375   8.457   2.791   9.493
 1632W        W 5376   4.123   4.116   1.943
 1633W        W 5377   1.335   9.446   9.245
 1634W        W 5378   2.834   7.368   0.488
 1635W        W 5379   8.944   3.151  11.030
 1636W        W 5380   5.046  10.492   0.290
 1637W        W 5381   1.249   2.747   1.452
 1638W        W 5382   8.531   5.536  10.555
 1639W        W 5383   2.679   6.048   2.910
 1640W        W 5384   0.205   2.729   9.136
 1641W        W 5385   6.985   6.064   3.572
 1642W        W 5386   4.466   5.680  10.241
 1643W        W 5387   4.298   1.405   3.580
 1644W        W 5388   4.072   6.149   2.903
 1645W        W 5389   7.172   3.199  11.697
 1646W        W 5390   5.941   5.629  10.410
 1647W        W 5391   1.396   6.893   2.858
 1648W        W 5392   0.934   2.698  10.189
 1649W        W 5393   7.219   3.706   2.890
 1650W        W 5394   4.982   5.181   0.323
 1651W        W 5395   7.049   0.379   1.682
 1652W        W 5396   6.025   2.448   2.206
 1653W        W 5397   5.579   2.445   1.951
 1654W        W 5398   7.833   5.611   8.903
 1655W        W 5399   2.155   7.795  11.474
 1656W        W 5400   8.530   0.688   1.532
 1657W        W 5401   5.487  10.239  11.459
 1658W        W 5402   4.784   8.084  11.704
 1659W        W 5403   4.612   5.961   1.174
 1660W        W 5404  10.347   3.105   2.942
 1661W        W 5405   1.935   1.347   9.278
 1662W        W 5406   4.748   3.666  10.495
 1663W        W 5407   0.524   5.227   0.894
 1664W        W 5408   0.542   9.344   0.704
 1665W        W 5409   9.834   2.360   9.780
 1666W        W 5410   2.774   7.876   2.844
 1667W        W 5411   1.229   6.571   2.216
 1668W        W 5412   0.957   9.461   8.408
 1669W        W 5413   6.140   1.031  11.418
 1670W        W 5414   2.218   6.821   2.399
 1671W        W 5415   2.122   4.308   0.139
 1672W        W 5416   0.356   6.558   8.950
 1673W        W 5417   3.902   3.178   3.573
 1674W        W 5418   5.472   3.400   3.715
 1675W        W 5419   4.709   1.269   2.655
 1676W        W 5420   5.158   1.215   1.492
 1677W        W 5421   3.933   8.939   2.998
 1678W        W 5422   1.597   9.191  10.476
 1679W        W 5423   1.116   8.475   1.403
 1680W        W 5424   6.197   1.403   2.317
 1681W        W 5425   3.807   2.827   0.546
 1682W        W 5426   7.570   3.084   9.190
 1683W        W 5427   1.354   2.454  11.580
 1684W        W 5428   5.108   2.239   0.617
 1685W        W 5429   6.357   7.311  10.441
 1686W        W 5430   9.815   1.788  11.453
 1687W        W 5431   0.996   1.410   1.416
 1688W        W 5432   6.388   1.990   1.558
 1689W        W 5433   5.683   8.508   3.169
 1690W        W 5434   4.188   6.736   2.399
 1691W        W 5435   2.273   0.835   2.880
 1692W        W 5436   5.639   3.272   1.787
 1693W        W 5437   7.342   6.931   0.714
 1694W        W 5438   4.477   2.194   0.067
 1695W        W 5439   2.717   5.664  11.258
 1696W        W 5440   7.588   4.113   3.047
 1697W        W 5441  10.243   5.733  11.806
 1698W        W 5442   8.047   1.668  11.796
 1699W        W 5443   5.618   3.194   3.274
 1700W        W 5444   7.901   1.941  10.749
 1701W        W 5445   2.088   4.193   1.819
 1702W        W 5446   5.513  10.272   0.395
 1703W        W 5447   2.229  10.384   9.769
 1704W        W 5448   5.241   2.040   2.696
 1705W        W 5449   2.322   5.145   0.379
 1706W        W 5450   4.762   7.158   8.984
 1707W        W 5451   2.821   9.041   8.998
 1708W        W 5452  10.062   9.419   1.678
 1709W        W 5453   6.968   6.554   0.030
 1710W        W 5454   5.649   2.197   0.498
 1711W        W 5455   9.663   1.777  10.963
 1712W        W 5456   5.599   7.317   1.205
 1713W        W 5457   0.278   4.724   0.943
 1714W        W 5458   9.868   8.060  11.227
 1715W        W 5459   7.357   9.682  11.499
 1716W        W 5460   4.161   9.117   0.711
 1717W        W 5461   9.279   5.485   0.089
 1718W        W 5462   4.601   8.240   2.705
 1719W        W 5463   0.250   2.862  10.886
 1720W        W 5464   6.407   2.470   0.845
 1721W        W 5465   3.323   0.736  10.018
 1722W        W 5466   2.797   1.415  11.859
 1723W        W 5467   0.673   5.061   2.754
 1724W        W 5468  10.253   3.193   0.322
 1725W        W 5469   2.690   7.209   9.790
 1726W        W 5470   2.917   9.022  10.480
 1727W        W 5471   2.841   6.971   0.159
 1728W        W 5472   7.657   7.967   0.948
 1729W        W 5473   0.774  10.056   2.041
 1730W        W 5474   3.919   5.201  11.443
 1731W        W 5475   6.180   2.398   1.344
 1732W        W 5476  10.241   6.499  10.617
 1733W        W 5477   6.266   8.559   0.347
 1734W        W 5478   4.155   6.856   0.252
 1735W        W 5479   2.152   6.104  10.767
 1736W        W 5480   2.631   5.533   2.217
 1737W        W 5481  10.483   6.995  10.742
 1738W        W 5482   5.081   3.115  10.907
 1739W        W 5483   3.056   1.898   1.732
 1740W        W 5484   7.435   7.148   2.734
 1741W        W 5485   6.084   3.386   2.418
 1742W        W 5486   0.274   6.195  11.444
 1743W        W 5487   7.527   8.626   1.466
 1744W        W 5488   9.110   7.092   2.383
 1745W        W 5489   8.687   4.805   0.379
 1746W        W 5490   1.156   7.554   9.358
 1747W        W 5491   4.340   9.995   0.919
 1748W        W 5492   2.472   9.899  11.932
 1749W        W 5493   4.124   2.249   1.417
 1750W        W 5494   7.718   4.816  11.780
 1751W        W 5495   9.171   3.488   2.962
 1752W        W 5496   2.770   6.128   9.012
 1753W        W 5497   0.500   7.359   0.361
 1754W        W 5498   1.497   1.955   9.758
 1755W        W 5499   9.120   7.520   0.810
 1756W        W 5500  10.385   0.776   2.885
 1757W        W 5501   4.964   3.327   1.334
 1758W        W 5502   2.284   3.511  11.574
 1759W        W 5503   9.830   1.346   2.609
 1760W        W 5504   4.981   1.252   9.020
 1761W        W 5505   4.299   3.699   2.186
 1762W        W 5506   9.839   8.370  11.829
 1763W        W 5507   7.421   4.059   1.645
 1764W        W 5508   2.651   3.596   2.413
 1765W        W 5509   4.608   7.236   3.444
 1766W        W 5510   3.258   1.389   9.580
 1767W        W 5511   0.382   8.067   9.028
 1768W        W 5512   8.365   7.043   3.132
 1769W        W 5513   5.891   8.912   8.815
 1770W        W 5514   3.530   6.424  11.919
 1771W        W 5515   2.441   5.228  11.161
 1772W        W 5516   2.909   9.906   1.297
 1773W        W 5517   3.519   4.537   1.384
 1774W        W 5518   6.993  10.470  11.347
 1775W        W 5519   2.902   7.655  10.044
 1776W        W 5520   9.451   2.632   2.013
 1777W        W 5521   5.147   8.311  10.562
 1778W        W 5522   2.701   8.621   8.678
 1779W        W 5523   0.587   3.533   1.630
 1780W        W 5524   5.483   4.696  10.126
 1781W        W 5525   2.280   7.296   2.709
 1782W        W 5526   4.100   6.682   8.857
 1783W        W 5527   5.331   7.997   1.256
 1784W        W 5528   0.063   5.720  11.421
 1785W        W 5529   7.510   0.694   9.004
 1786W        W 5530   5.501   2.653   9.128
 1787W        W 5531   5.688   9.549   0.931
 1788W        W 5532   3.047   2.233   1.357
 1789W        W 5533   8.883   8.550  11.845
 1790W        W 5534   3.301   1.474  11.092
 1791W        W 5535   2.857   6.229  10.501
 1792W        W 5536   8.042   2.304   3.786
 1793W        W 5537   1.154   6.973   0.408
 1794W        W 5538   5.963   6.964   1.362
 1795W        W 5539   2.117   4.306   2.868
 1796W        W 5540   7.139   8.175   1.262
 1797W        W 5541   5.729   5.586  10.918
 1798W        W 5542   4.198   2.832   0.197
 1799W        W 5543   5.957   1.193   1.908
 1800W        W 5544   6.140   6.165   0.273
 1801W        W 5545   5.212   2.869   0.232
 1802W        W 5546  10.497   2.115  11.062
 1803W        W 5547   3.123   2.737  11.312
 1804W        W 5548   6.605   1.894   2.546
 1805W        W 5549   9.860   9.865   1.425
 1806W        W 5550   4.865   9.865  11.690
 1807W        W 5551   7.414   7.282  11.794
 1808W        W 5552   6.039   1.642   9.293
 1809W        W 5553   9.450   8.489   2.264
 1810W        W 5554   3.884   3.641  10.525
 1811W        W 5555   4.907   7.505  11.105
 1812W        W 5556   3.691   9.527   1.495
 1813W        W 5557   3.596   2.620   2.905
 1814W        W 5558   5.150   3.410   9.410
 1815W        W 5559   4.594   6.900   1.208
 1816W        W 5560  10.499   9.122  11.896
 1817W        W 5561   1.902   0.366   9.508
 1818W        W 5562   3.578   9.010   1.386
 1819W        W 5563   6.119   0.642   9.510
 1820W        W 5564   2.054   3.766   1.271
 1821W        W 5565   3.563   2.233   1.358
 1822W        W 5566   5.558   6.059   9.727
 1823W        W 5567   4.194   9.140   9.825
 1824W        W 5568   5.763  10.058   0.807
 1825W        W 5569   8.577   8.567   2.296
 1826W        W 5570   7.046   0.992  11.422
 1827W        W 5571   9.549   2.656   2.516
 1828W        W 5572   0.139   4.089   2.355
 1829W        W 5573   1.697   2.384   9.986
 1830W        W 5574   6.203   7.468   9.986
 1831W        W 5575   6.588   4.542   0.131
 1832W        W 5576   7.659   7.516   2.238
 1833W        W 5577  10.192   2.316   2.378
 1834W        W 5578   6.523   2.796   9.489
 1835W        W 5579   7.517   3.936   0.744
 1836W        W 5580   4.719   0.250   2.923
 1837W        W 5581   8.675   1.718   2.837
 1838W        W 5582   4.075   6.470  11.934
 1839W        W 5583   8.881   7.058   3.267
 1840W        W 5584   6.878   6.785   0.538
 1841W        W 5585   2.763   9.423   1.411
 1842W        W 5586   4.423   4.564   2.789
 1843W        W 5587   7.905   2.789   0.372
 1844W        W 5588   6.122   8.957   2.443
 1845W        W 5589   5.024  10.425  11.434
 1846W        W 5590   1.717   3.773   0.770
 1847W        W 5591   2.197   2.617   9.755
 1848W        W 5592   5.637   7.043   3.269
 1849W        W 5593   0.684   4.874   9.537
 1850W        W 5594   1.279   9.560   2.107
 1851W        W 5595   3.853   7.076   3.259
 1852W        W 5596   6.957   3.278   0.688
 1853W        W 5597   4.335   4.702   1.330
 1854W        W 5598  10.195   8.295  10.489
 1855W        W 5599   8.860   5.093   9.011
 1856W        W 5600   1.045   7.902   8.626
 1857W        W 5601   3.688   4.925   2.333
 1858W        W 5602   1.385   4.102  11.500
 1859W        W 5603   7.926   9.063  11.863
 1860W        W 5604   7.156   9.803   1.755
 1861W        W 5605  10.414   9.895   3.217
 1862W        W 5606   8.467   4.741   2.638
 1863W        W 5607   0.286   2.718   1.704
 1864W        W 5608  10.412   1.137   1.876
 1865W        W 5609   9.728   8.760   1.031
 1866W        W 5610   7.005   1.669   3.435
 1867W        W 5611   2.079   2.717  10.951
 1868W        W 5612   0.363   0.452   3.395
 1869W        W 5613   4.550   6.769  11.275
 1870W        W 5614   5.168   3.513   2.739
 1871W        W 5615   3.667   6.225   9.424
 1872W        W 5616   1.741   2.747   2.235
 1873W        W 5617   9.498   5.612   3.192
 1874W        W 5618   5.866   3.781   8.547
 1875W        W 5619   3.052   0.938   1.140
 1876W        W 5620   5.165   9.265  10.761
 1877W        W 5621   8.541   8.133   2.559
 1878W        W 5622   5.926   2.979   9.772
 1879W        W 5623   0.192   5.597   2.820
 1880W        W 5624   2.323   4.200   1.361
 1881W        W 5625   6.592   1.998   0.816
 1882W        W 5626   1.812   9.880  10.949
 1883W        W 5627   0.721   8.034   1.023
 1884W        W 5628  10.375   2.683   9.829
 1885W        W 5629   1.717   1.788  11.593
 1886W        W 5630   0.953   7.804   1.927
 1887W        W 5631   1.257   3.761   0.528
 1888W        W 5632   6.301   2.630   9.920
 1889W        W 5633   0.800   1.865  10.283
 1890W        W 5634   8.318   6.089   0.848
 1891W        W 5635   1.824   8.119   1.243
 1892W        W 5636   4.860   4.031   9.897
 1893W        W 5637   9.314   0.702   1.849
 1894W        W 5638  10.477   7.029   3.167
 1895W        W 5639   3.185   5.663   0.004
 1896W        W 5640   5.725   7.714   2.891
 1897W        W 5641   1.751   4.001   8.923
 1898W        W 5642   9.377  10.004   3.267
 1899W        W 5643   7.496   8.680  10.008
 1900W        W 5644   3.809   7.351   0.798
 1901W        W 5645   8.524   0.461   9.297
 1902W        W 5646   3.600   6.042   0.683
 1903W        W 5647   2.852   7.187   8.953
 1904W        W 5648   6.103   4.414   9.469
 1905W        W 5649   3.438   2.758   8.499
 1906W        W 5650   3.200   1.826  11.452
 1907W        W 5651   9.468   5.254   1.739
 1908W        W 5652  10.253   7.653   9.143
 1909W        W 5653   3.838   6.120   0.221
 1910W        W 5654   6.445   2.347   2.450
 1911W        W 5655   5.037   6.281   9.056
 1912W        W 5656   5.701   4.068   0.721
 1913W        W 5657   1.203   7.898   0.294
 1914W        W 5658   4.420  10.440   9.571
 1915W        W 5659   0.514   8.328  10.817
 1916W        W 5660   4.177   4.863   1.799
 1917W        W 5661   1.742   6.607   2.446
 1918W        W 5662  10.218   5.647   1.367
 1919W        W 5663   6.290   3.629   0.204
 1920W        W 5664   7.651   9.443   2.183
 1921W        W 5665   8.107   6.543   9.272
 1922W        W 5666   7.038   5.772   0.467
 1923W        W 5667   6.496   4.911   2.937
 1924W        W 5668   6.456   6.375  10.281
 1925W        W 5669  10.378   2.645   0.407
 1926W        W 5670   6.033   1.143   9.499
 1927W        W 5671   1.399   8.963   9.560
 1928W        W 5672  10.449   4.564   3.183
 1929W        W 5673   9.540   5.864   0.365
 1930W        W 5674   3.710   9.973  11.047
 1931W        W 5675   5.224   0.376   2.985
 1932W        W 5676   6.390   1.886   9.596
 1933W        W 5677   3.285   2.061   3.700
 1934W        W 5678   4.545   3.644   9.995
 1935W        W 5679   8.330   8.055  10.499
 1936W        W 5680   2.878   3.662  11.036
 1937W        W 5681   9.913   6.192   0.528
 1938W        W 5682   0.804   2.697   1.955
 1939W        W 5683   0.196   1.926   0.509
 1940W        W 5684   8.001   4.211   0.275
 1941W        W 5685   8.033   4.375   8.599
 1942W        W 5686   9.861   3.569   8.925
 1943W        W 5687   9.408   4.607   1.009
 1944W        W 5688   0.080   0.023   3.548
 1945W        W 5689   3.136   7.839   9.041
 1946W        W 5690   3.381   0.900   0.356
 1947W        W 5691  10.274   0.008   8.857
 1948W        W 5692  10.030   1.397   8.640
 1949W        W 5693   6.088   7.455   9.093
 1950W        W 5694   7.446   3.110   0.402
 1951W        W 5695   6.195   1.260   0.965
 1952W        W 5696   5.086   1.601   1.805
 1953W        W 5697  10.462   2.171   2.784
 1954W        W 5698   5.668   3.694   1.487
 1955W        W 5699   6.599   2.545  10.371
 1956W        W 5700   1.466   9.187   3.419
 1957W        W 5701   8.043   0.253   1.471
 1958W        W 5702   0.763   0.226   2.789
 1959W        W 5703   1.349   3.701  11.080
 1960W        W 5704   6.883   2.890   9.060
 1961W        W 5705   4.790   9.420  10.464
 1962W        W 5706   0.212   6.964   0.486
 1963W        W 5707   0.955   5.614   1.710
 1964W        W 5708   2.336   5.550   1.006
 1965W        W 5709   4.735   6.643   8.596
 1966W        W 5710   8.570   3.741   1.550
 1967W        W 5711   2.625   0.804  11.045
 1968W        W 5712   5.557   7.420   0.178
 1969W        W 5713   0.774   5.091   9.010
 1970W        W 5714   1.293   1.470   9.849
 1971W        W 5715   1.771  10.356   9.041
 1972W        W 5716   5.770   5.426   0.619
 1973W        W 5717   4.947   7.000  10.325
 1974W        W 5718   9.839   6.038   2.851
 1975W        W 5719   7.175   4.117   9.731
 1976W        W 5720  10.487   5.524   3.290
 1977W        W 5721   5.422   8.069   3.207
 1978W        W 5722   7.931   7.372   0.412
 1979W        W 5723   4.794   4.948   9.390
 1980W        W 5724   5.408   6.182   8.716
 1981W        W 5725   6.645   4.957   0.394
 1982W        W 5726  10.305   4.534   2.159
 1983W        W 5727   8.346   1.333   0.767
 1984W        W 5728   0.058   6.672  11.572
 1985W        W 5729   8.231   4.148   0.737
 1986W        W 5730   2.625   4.503   9.220
 1987W        W 5731   4.596   2.625   9.313
 1988W        W 5732   1.795   5.658   1.679
 1989W        W 5733   4.290   7.974   1.945
 1990W        W 5734  10.462   4.570  11.943
 1991W        W 5735   3.654   5.426  11.813
 1992W        W 5736   1.713   3.801   9.843
 1993W        W 5737   2.943   0.740   0.654
 1994W        W 5738   6.011   1.599   9.789
 1995W        W 5739   0.441   4.273   8.732
 1996W        W 5740  10.423   2.319   9.048
 1997W        W 5741   4.548   3.624   8.101
 1998W        W 5742   9.490  10.356   0.773
 1999W        W 5743   9.277   8.795   1.878
 2000W        W 5744   8.800   5.281   3.321
 2001W        W 5745   9.021  10.256   2.870
 2002W        W 5746  10.182   7.882  10.842
 2003W        W 5747   9.691   9.137   8.407
 2004W        W 5748   0.503   6.996   2.431
 2005W        W 5749   3.075   7.654   1.892
 2006W        W 5750  10.271   5.848   2.640
 2007W        W 5751   2.337   9.921   2.459
 2008W        W 5752   4.621   7.628   9.775
 2009W        W 5753   7.823   4.632   9.887
 2010W        W 5754   5.075   5.178   1.917
 2011W        W 5755   0.517   6.388  11.035
 2012W        W 5756   6.793   3.116   3.135
 2013W        W 5757   2.134   2.564  11.464
 2014W        W 5758   5.459   6.904   0.946
 2015W        W 5759   2.379  10.393   3.139
 2016W        W 5760   8.462   3.562   0.994
 2017W        W 5761   5.995   6.983   9.964
 2018W        W 5762   3.748   3.076  11.992
 2019W        W 5763   0.246   0.120   9.084
 2020W        W 5764   6.566  10.113   1.908
 2021W        W 5765   0.971   9.894   9.041
 2022W        W 5766   5.989   4.166   8.868
 2023W        W 5767   2.119   9.861  11.514
 2024W        W 5768   6.590   9.512   1.095
 2025W        W 5769   8.751   6.467   0.322
 2026W        W 5770   1.284   3.397  10.411
 2027W        W 5771   8.078   0.033  11.001
 2028W        W 5772   0.833   8.643   0.068
 2029W        W 5773   1.434   5.362   8.925
 2030W        W 5774   6.639   8.567   0.784
 2031W        W 5775   3.152   8.026   8.559
 2032W        W 5776   3.476   3.119   2.235
 2033W        W 5777   0.714   5.174   1.753
 2034W        W 5778   1.001   9.450   1.358
 2035W        W 5779   8.824   5.551  11.292
 2036W        W 5780   2.256   0.776   1.417
 2037W        W 5781   3.291   1.699   8.748
 2038W        W 5782   2.291   4.704   2.158
 2039W        W 5783   1.692   6.674   9.371
 2040W        W 5784  10.349  10.341  11.393
 2041W        W 5785   0.300   1.808   1.371
 2042W        W 5786   0.272   2.375   3.876
 2043W        W 5787   5.319   8.589   8.442
 2044W        W 5788   8.586   0.797   1.031
 2045W        W 5789   1.960   0.391   3.055
 2046W        W 5790   9.845   5.186  11.378
 2047W        W 5791   6.669   4.451   2.782
 2048W        W 5792   5.205   0.994   0.182
 2049W        W 5793   1.955   2.234   3.180
 2050W        W 5794   0.271   6.128   1.776
 2051W        W 5795   2.326   6.083   9.283
 2052W        W 5796   3.591   9.702   3.633
 2053W        W 5797   3.190   4.572  10.038
 2054W        W 5798   1.788   2.275  10.838
 2055W        W 5799   9.258   5.434  11.564
 2056W        W 5800  10.470   1.282   3.183
 2057W        W 5801   8.646   3.577   2.912
 2058W        W 5802   4.538   6.688  10.349
 2059W        W 5803   6.976   3.241   0.172
 2060W        W 5804   4.232  10.286   9.130
 2061W        W 5805   3.099   1.182  11.490
 2062W        W 5806   2.151   6.987   0.493
 2063W        W 5807   7.498   2.609  11.344
 2064W        W 5808   6.118   3.982   9.739
 2065W        W 5809   7.001   8.712  11.881
 2066W        W 5810   4.650   3.636   3.454
 2067W        W 5811   2.715   5.250  10.298
 2068W        W 5812   8.487   7.186  10.956
 2069W        W 5813   3.820   3.589   0.065
 2070W        W 5814   5.177   3.520   3.251
 2071W        W 5815   0.157  10.027  10.010
 2072W        W 5816   1.671   5.177   2.713
 2073W        W 5817   1.913   1.751   8.831
 2074W        W 5818   4.299   7.045   9.173
 2075W        W 5819   9.877  10.022   1.902
 2076W        W 5820   6.975   2.232   2.201
 2077W        W 5821   5.699   6.822  10.881
 2078W        W 5822   2.048   4.839   0.039
 2079W        W 5823   7.914   1.646   2.475
 2080W        W 5824   5.965   5.532   1.482
 2081W        W 5825   1.124   4.542  11.471
 2082W        W 5826   2.733   5.613  11.754
 2083W        W 5827   2.763   8.469  11.192
 2084W        W 5828   7.061   1.757   1.968
 2085W        W 5829   1.369   1.171   1.191
 2086W        W 5830   4.328   2.258   3.284
 2087W        W 5831   0.538   7.802   9.525
 2088W        W 5832   2.960  10.003  11.845
 2089W        W 5833   1.335   0.910  11.055
 2090W        W 5834   5.618   4.640   9.628
 2091W        W 5835   7.942   3.645   2.433
 2092W        W 5836   8.954   5.358   0.972
 2093W        W 5837   7.939   2.167  11.928
 2094W        W 5838   0.779   5.992   3.347
 2095W        W 5839   3.871   7.096   2.713
 2096W        W 5840   3.619   4.175   8.579
 2097W        W 5841   8.885   2.689   9.260
 2098W        W 5842   7.739   2.825   0.862
 2099W        W 5843   4.714   4.026  11.903
 2100W        W 5844   0.819  10.144   9.485
 2101W        W 5845   8.784   7.900  10.641
 2102W        W 5846   5.252   2.307   3.160
 2103W        W 5847   1.749   3.025   3.705
 2104W        W 5848   3.311   9.660  10.901
 2105W        W 5849   8.632   0.915  11.825
 2106W        W 5850  10.422   4.652  10.830
 2107W        W 5851   7.112   7.976   2.644
 2108W        W 5852   4.283   9.224   3.275
 2109W        W 5853   2.223   3.242   3.375
 2110W        W 5854   7.666   1.301  11.003
 2111W        W 5855   9.405   3.101   1.790
 2112W        W 5856   7.448   7.023   3.247
 2113W        W 5857   5.465   9.393   2.002
 2114W        W 5858   4.763   0.782   0.291
 2115W        W 5859   6.069   6.061   1.551
 2116W        W 5860   5.587   4.107   8.230
 2117W        W 5861   7.614   1.521  10.019
 2118W        W 5862   3.301   7.215   1.712
 2119W        W 5863   0.330   2.837   0.284
 2120W        W 5864   4.685   1.449  10.784
 2121W        W 5865   2.235   6.506   2.819
 2122W        W 5866   1.189   7.984  10.946
 2123W        W 5867   7.453  10.070  10.255
 2124W        W 5868   8.138   0.495   1.000
 2125W        W 5869   8.423   4.064   8.687
 2126W        W 5870   7.045   3.863   3.332
 2127W        W 5871   1.636   9.716   0.361
 2128W        W 5872   8.370   8.426   9.059
 2129W        W 5873   1.395   9.298   1.673
 2130W        W 5874   1.626   4.135   1.628
 2131W        W 5875   7.509   8.096  10.580
 2132W        W 5876   9.025   6.645   1.154
 2133W        W 5877   1.488   1.450   3.660
 2134W        W 5878   2.808   2.176   0.881
 2135W        W 5879   8.935   6.165   1.322
 2136W        W 5880   1.270   3.802  10.097
 2137W        W 5881   0.335   0.490   2.902
 2138W        W 5882   0.470   8.780   9.572
 2139W        W 5883   7.985   0.667   3.348
 2140W        W 5884   9.143   0.785   9.881
 2141W        W 5885   8.084   2.856  10.232
 2142W        W 5886   1.074   6.291   3.656
 2143W        W 5887   8.482   1.894   9.636
 2144W        W 5888   9.499  10.428   2.997
 2145W        W 5889   7.044   2.386   0.210
 2146W        W 5890   8.791   0.216   2.334
 2147W        W 5891   1.831   8.740   0.418
 2148W        W 5892  10.339   8.968   2.708
 2149W        W 5893   1.009   5.304  11.251
 2150W        W 5894   3.168   2.812   9.871
 2151W        W 5895   0.757   1.764   3.019
 2152W        W 5896   7.429   7.412   0.306
 2153W        W 5897  10.010   4.680   2.910
 2154W        W 5898   4.701   3.728   0.416
 2155W        W 5899   9.918   1.228   0.785
 2156W        W 5900   9.289   0.277  11.416
 2157W        W 5901   1.335   9.904   9.494
 2158W        W 5902   2.909   4.835   8.545
 2159W        W 5903   9.095   6.688   0.646
 2160W        W 5904   8.969   8.427   3.104
 2161W        W 5905   8.081   3.534  11.798
 2162W        W 5906   6.813   9.008   0.238
 2163W        W 5907   6.119   9.530   1.375
 2164W        W 5908   7.925   6.055   2.398
 2165W        W 5909   7.745   7.623  11.992
 2166W        W 5910   4.362   2.801   3.239
 2167W        W 5911   4.123   5.010   0.921
 2168W        W 5912   3.391   9.944   1.459
 2169W        W 5913   7.708   9.292   9.031
 2170W        W 5914  10.312   8.441   2.601
 2171W        W 5915   5.266   1.459   0.003
 2172W        W 5916   7.057   0.407  10.432
 2173W        W 5917   2.584   2.062   1.595
 2174W        W 5918   4.473   2.753   0.612
 2175W        W 5919   1.339   6.857  11.943
 2176W        W 5920   2.645   1.170   2.714
 2177W        W 5921   4.218   4.807   2.350
 2178W        W 5922   0.003   4.694   1.721
 2179W        W 5923   7.196  10.283   2.864
 2180W        W 5924   4.624   8.940  10.620
 2181W        W 5925   9.297   5.742   1.737
 2182W        W 5926   8.461   2.330   0.336
 2183W        W 5927   3.466   9.091   2.881
 2184W        W 5928   3.099   2.781   2.071
 2185W        W 5929  10.369   2.574   3.077
 2186W        W 5930   5.083   9.800   2.004
 2187W        W 5931  10.265   9.696  10.013
 2188W        W 5932   5.596   9.298   0.270
 2189W        W 5933   1.785   8.624   2.608
 2190W        W 5934   6.988   2.825   0.456
 2191W        W 5935   9.850   8.575   9.536
 2192W        W 5936   5.598   9.983   2.726
 2193W        W 5937   7.034   4.943   9.115
 2194W        W 5938   1.798   6.688  11.750
 2195W        W 5939   8.057   5.046  10.060
 2196W        W 5940   2.591   8.069   9.862
 2197W        W 5941   0.317   6.880   1.361
 2198W        W 5942   5.058   4.934  11.013
 2199W        W 5943   8.587   1.460  11.860
 2200W        W 5944   5.874   9.915  11.441
 2201W        W 5945   8.210   7.785   1.828
 2202W        W 5946   9.658   1.364   2.140
 2203W        W 5947   8.337   0.777   0.215
 2204W        W 5948   7.081  10.164   0.747
 2205W        W 5949   9.229   5.073   3.159
 2206W        W 5950   7.030   9.875  10.527
 2207W        W 5951   2.770   0.693   2.860
 2208W        W 5952   9.969   9.379  11.308
 2209W        W 5953   4.144   0.507   0.683
 2210W        W 5954   5.114   7.083  11.519
 2211W        W 5955   8.034   2.295   9.023
 2212W        W 5956   9.782   1.814   0.500
 2213W        W 5957   4.394   7.061   8.642
 2214W        W 5958   8.584  10.467   2.740
 2215W        W 5959   8.131   7.320   2.188
 2216W        W 5960   4.644   2.589  10.254
 2217W        W 5961   2.838   1.755   1.290
 2218W        W 5962   0.335   1.759  11.559
 2219W        W 5963   1.575   2.783  10.792
 2220W        W 5964   4.132   5.274   2.572
 2221W        W 5965   4.123   4.384  10.366
 2222W        W 5966   4.173   8.356   9.572
 2223W        W 5967   1.982   1.480   8.411
 2224W        W 5968   6.015   2.438  11.516
 2225W        W 5969   9.054   3.835   1.756
 2226W        W 5970  10.334  10.449   0.700
 2227W        W 5971   8.387   5.196   0.267
 2228W        W 5972   8.440   7.431   2.739
 2229W        W 5973   7.606   2.730   2.779
 2230W        W 5974   5.607   8.483   1.916
 2231W        W 5975   3.741   9.362   1.016
 2232W        W 5976   0.709   2.579  11.005
 2233W        W 5977   6.183   9.872   1.012
 2234W        W 5978   6.053  10.346   1.187
 2235W        W 5979   8.326   8.547  10.606
 2236W        W 5980   2.412   1.244  10.948
 2237W        W 5981   8.293  10.299   1.321
 2238W        W 5982  10.111   7.485   0.932
 2239W        W 5983   7.117   5.119   1.635
 2240W        W 5984   8.552   3.729  10.515
 2241W        W 5985   6.923   7.426  11.209
 2242W        W 5986   1.023   5.688  11.653
 2243W        W 5987   7.474   4.302   1.156
 2244W        W 5988   3.101   3.245  10.537
 2245W        W 5989   8.401   8.792  11.846
 2246W        W 5990   2.505   2.785  10.629
 2247W        W 5991   9.908   6.052  11.495
 2248W        W 5992   1.008   7.111   9.098
 2249W        W 5993   5.680   1.796  11.498
 2250W        W 5994   6.495   7.113   3.207
 2251W        W 5995   8.438   7.911   3.560
 2252W        W 5996   1.865   5.608   0.756
 2253W        W 5997   2.717   6.551   3.643
 2254W        W 5998   9.635   0.334   3.274
 2255W        W 5999   3.671   4.771   1.833
 2256W        W 6000   8.443   0.958   1.966
 2257W        W 6001   3.228   6.043   3.263
 2258W        W 6002   1.181   2.263  10.058
 2259W        W 6003   4.330   9.910   1.470
 2260W        W 6004   3.281   5.661   0.906
 2261W        W 6005   5.445   0.833  10.056
 2262W        W 6006   6.391   5.006   9.379
 2263W        W 6007   3.615   5.377  11.081
 2264W        W 6008   0.274   5.066   3.356
 2265W        W 6009   2.344   6.059   1.902
 2266W        W 6010   3.090   8.128   9.931
 2267W        W 6011   7.957   3.324   9.431
 2268W        W 6012   7.388   4.047  11.328
 2269W        W 6013   2.327   6.493   0.839
 2270W        W 6014   4.435   4.613   9.555
 2271W        W 6015   8.454   7.693  11.001
 2272W        W 6016   5.717   1.207   2.345
 2273W        W 6017   9.206   0.292  10.053
 2274W        W 6018   9.955   6.950   0.291
 2275W        W 6019   6.282   6.187  11.398
 2276W        W 6020   5.478   5.855  11.283
 2277W        W 6021   5.040   6.963   9.814
 2278W        W 6022   2.846   7.494  11.981
 2279W        W 6023   8.052   4.530   1.908
 2280W        W 6024   8.966   6.072   9.451
 2281W        W 6025   7.170   1.687   1.485
 2282W        W 6026  10.317   9.895   2.198
 2283W        W 6027   5.555   7.055   9.676
 2284W        W 6028   1.421   7.545   9.796
 2285W        W 6029   6.602   6.199  11.803
 2286W        W 6030   7.162   9.257  11.305
 2287W        W 6031   5.259   7.897  11.853
 2288W        W 6032   2.902   1.062   0.269
 2289W        W 6033   3.398   0.373  11.740
 2290W        W 6034   4.920   4.398   9.519
 2291W        W 6035  10.174   1.446   2.218
 2292W        W 6036   9.371   8.121  11.114
 2293W        W 6037   8.026   0.288   2.499
 2294W        W 6038   1.574   3.344  10.000
 2295W        W 6039   1.525   8.269   0.523
 2296W        W 6040   7.071   3.086   2.188
 2297W        W 6041   0.073   4.017  10.128
 2298W        W 6042   9.290   1.340   2.561
 2299W        W 6043   6.472   2.441   1.913
 2300W        W 6044   0.274   6.469   0.413
 2301W        W 6045   1.267   6.908   3.376
 2302W        W 6046   1.958  10.439   0.752
 2303W        W 6047   2.777   6.416   8.571
 2304W        W 6048   0.502   2.323   9.052
 2305W        W 6049   7.986   4.182   2.677
 2306W        W 6050   7.037   8.889   9.089
 2307W        W 6051   1.159   5.094   1.532
 2308W        W 6052   9.615  10.328  10.858
 2309W        W 6053   8.348  10.453   2.285
 2310W        W 6054   1.587   5.189   0.855
 2311W        W 6055   9.514   0.920   3.053
 2312W        W 6056   0.727   3.374   2.771
 2313W        W 6057   2.793   8.529   1.353
 2314W        W 6058   0.071   2.198   3.420
 2315W        W 6059   1.262   3.195  10.868
 2316W        W 6060   0.318   2.358  10.767
 2317W        W 6061   3.587   4.151   0.892
 2318W        W 6062   5.071   8.399  11.047
 2319W        W 6063   0.456   1.820   9.835
 2320W        W 6064   0.872   0.914  11.279
 2321W        W 6065   1.999   7.061   9.301
 2322W        W 6066   5.207   6.651  10.784
 2323W        W 6067   0.883   6.321   1.410
 2324W        W 6068   2.256  10.195  10.771
 2325W        W 6069   7.385   5.721   3.541
 2326W        W 6070   6.245   2.877  11.714
 2327W        W 6071   3.379   7.072   9.543
 2328W        W 6072   8.091   8.137   0.785
 2329W        W 6073   3.749   6.877  11.911
 2330W        W 6074   1.380   9.314   0.134
 2331W        W 6075   5.491   6.071   1.137
 2332W        W 6076   3.677   7.166  10.558
 2333W        W 6077  10.102   6.558  11.352
 2334W        W 6078   7.469   3.274  10.202
 2335W        W 6079   6.659   3.713   0.631
 2336W        W 6080   7.092   4.550   1.568
 2337W        W 6081   0.522   1.874  10.730
 2338W        W 6082   3.830   8.838   3.488
 2339W        W 6083   9.613   2.788   9.040
 2340W        W 6084   5.578   7.957   0.236
 2341W        W 6085   9.288   9.871   9.948
 2342W        W 6086   7.177   2.722   8.623
 2343W        W 6087   5.231   7.617   3.111
 2344W        W 6088   3.728   3.758  11.534
 2345W        W 6089   5.584   1.723   9.533
 2346W        W 6090   8.756   1.305   2.514
 2347W        W 6091   7.970   3.675   0.792
 2348W        W 6092   9.105   2.644   2.815
 2349W        W 6093  10.058   7.099   3.477
 2350W        W 6094   8.895   5.717  11.817
 2351W        W 6095   4.202   3.796   9.607
 2352W        W 6096   7.472   5.002   8.857
 2353W        W 6097   0.471   4.590   0.092
 2354W        W 6098   3.228   5.422  10.242
 2355W        W 6099   3.276   1.236   0.768
 2356W        W 6100   1.710   9.795   9.843
 2357W        W 6101   6.122   1.253   8.980
 2358W        W 6102   1.680   9.681  10.354
 2359W        W 6103   0.475   2.117  11.210
 2360W        W 6104   1.506  10.422   1.782
 2361W        W 6105   7.174   5.035   1.150
 2362W        W 6106   7.354   3.172   2.808
 2363W        W 6107   6.479   4.518  11.600
 2364W        W 6108   0.716   1.251  10.948
 2365W        W 6109   4.315   2.731   1.461
 2366W        W 6110   5.564   8.953   1.676
 2367W        W 6111   6.529   0.029   9.621
 2368W        W 6112   3.165   3.670   3.533
 2369W        W 6113   2.302   9.440  11.769
 2370W        W 6114  10.299   9.110   8.995
 2371W        W 6115   4.634   3.721   1.423
 2372W        W 6116   1.814   9.657   8.523
 2373W        W 6117   9.086   4.578   0.613
 2374W        W 6118   8.082   6.599   9.764
 2375W        W 6119   2.833   3.950   1.488
 2376W        W 6120  10.135   5.641   9.442
 2377W        W 6121   2.976   8.595  10.140
 2378W        W 6122   3.645   7.970  11.819
 2379W        W 6123   6.826   5.515   1.768
 2380W        W 6124   3.796   8.357   2.171
 2381W        W 6125   0.265   1.318  10.731
 2382W        W 6126   3.269   1.289  10.081
 2383W        W 6127   9.046   8.261   8.490
 2384W        W 6128   5.271   3.021   2.568
 2385W        W 6129  10.343   9.166  10.086
 2386W        W 6130   2.071   2.861   8.839
 2387W        W 6131   2.662   5.028   2.360
 2388W        W 6132   8.949   9.830   1.262
 2389W        W 6133   3.165   6.142   1.005
 2390W        W 6134   8.748   0.449   0.113
 2391W        W 6135   1.239   8.173   2.738
 2392W        W 6136   4.582   1.626   9.911
 2393W        W 6137   6.590   2.239   0.364
 2394W        W 6138   3.042   4.100   9.402
 2395W        W 6139   8.982   9.305  10.789
 2396W        W 6140   8.597   4.583   9.402
 2397W        W 6141   4.491  10.448   0.293
 2398W        W 6142   0.184   9.778  10.477
 2399W        W 6143   7.906   4.735  10.770
 2400W        W 6144   1.437   9.085   2.166
 2401W        W 6145   5.938   7.621  10.405
 2402W        W 6146   5.114   8.151   3.650
 2403W        W 6147   0.815   3.570   2.294
 2404W        W 6148   9.782   6.161  10.456
 2405W        W 6149   5.992   8.695  11.882
 2406W        W 6150   3.345   6.839  10.385
 2407W        W 6151   4.660   2.636  11.766
 2408W        W 6152   4.262   1.772   8.748
 2409W        W 6153   3.733   7.726   3.898
 2410W        W 6154   8.917   7.528   2.580
 2411W        W 6155   7.747   0.405   8.395
 2412W        W 6156  10.052   9.465   1.183
 2413W        W 6157   1.595   4.531   3.646
 2414W        W 6158   8.552   9.366  10.064
 2415W        W 6159   5.312   4.795   2.156
 2416W        W 6160   8.864  10.432  11.365
 2417W        W 6161   3.005   0.298   3.657
 2418W        W 6162   7.580   2.686   9.550
 2419W        W 6163   5.543   8.307  11.751
 2420W        W 6164  10.412   7.889   3.324
 2421W        W 6165   6.524   0.469  11.956
 2422W        W 6166   2.369   6.828   9.618
 2423W        W 6167   2.837   8.096   9.386
 2424W        W 6168   8.425   4.218   1.239
 2425W        W 6169   5.578   5.138  10.364
 2426W        W 6170   9.945   1.889   9.941
 2427W        W 6171   4.746   3.662   2.459
 2428W        W 6172  10.113   8.391   0.287
 2429W        W 6173   5.092   9.240   0.211
 2430W        W 6174   4.681   1.204  10.324
 2431W        W 6175   0.677   2.279   9.979
 2432W        W 6176   2.227   4.790   9.074
 2433W        W 6177   8.886   9.556   1.738
 2434W        W 6178   7.244   6.475   9.892
 2435W        W 6179   0.398   4.309   0.532
 2436W        W 6180   9.215   5.740   1.227
 2437W        W 6181   2.675   9.450   2.940
 2438W        W 6182   2.715   7.833   0.681
 2439W        W 6183   2.558   0.311  11.309
 2440W        W 6184   6.151   4.732  11.259
 2441W        W 6185   2.909   0.312   9.287
 2442W        W 6186   0.914   0.495   8.390
 2443W        W 6187   9.892   3.741   1.268
 2444W        W 6188   4.958   4.007   4.109
 2445W        W 6189   7.157   7.712  10.847
 2446W        W 6190   8.934   5.975   8.956
 2447W        W 6191   1.646   4.208  10.767
 2448W        W 6192   7.061   4.602   9.519
 2449W        W 6193   0.764   1.436  10.006
 2450W        W 6194   8.894   0.278   0.911
 2451W        W 6195  10.376   7.167   8.980
 2452W        W 6196   2.136   1.840  10.777
 2453W        W 6197   3.707   0.984   9.098
 2454W        W 6198   2.294   8.565   9.440
 2455W        W 6199   4.158   1.342   1.828
 2456W        W 6200   7.569   7.994   3.567
 2457W        W 6201   6.907   0.791   9.553
 2458W        W 6202   1.839   1.398   2.020
 2459W        W 6203   7.462   8.430  11.652
 2460W        W 6204   2.665   2.120   2.944
 2461W        W 6205  10.460  10.042  10.947
 2462W        W 6206   3.147   7.897   3.574
 2463W        W 6207   7.968   0.767   2.814
 2464W        W 6208   2.327   7.689   3.036
 2465W        W 6209   2.586   2.259   2.463
 2466W        W 6210  10.389   3.721   0.015
 2467W        W 6211   6.493   6.978   1.842
 2468W        W 6212   6.111  10.472   1.736
 2469W        W 6213   3.884   0.090   8.923
 2470W        W 6214   3.795   0.541   9.331
 2471W        W 6215   7.166   7.834   0.875
 2472W        W 6216   5.069   3.573   9.882
 2473W        W 6217   8.107   9.304  10.347
 2474W        W 6218   1.771   0.875   1.280
 2475W        W 6219   1.886   2.101  10.370
 2476W        W 6220   6.671   2.888   0.856
 2477W        W 6221   4.607   8.557  11.902
 2478W        W 6222  10.005   9.519   8.568
 2479W        W 6223   6.265   8.845  11.443
 2480W        W 6224   0.406   4.185   1.025
 2481W        W 6225   6.064   6.303   3.400
 2482W        W 6226   8.276   7.986   8.801
 2483W        W 6227   4.219   7.657   0.828
 2484W        W 6228   5.223  10.170  11.915
 2485W        W 6229  10.159   8.523   1.189
 2486W        W 6230   5.120   2.526   9.996
 2487W        W 6231   3.201  10.422   1.306
 2488W        W 6232   5.001   6.000  11.867
 2489W        W 6233   7.528   8.850   8.772
 2490W        W 6234   8.938   3.169   9.046
 2491W        W 6235   0.906   7.464  10.289
 2492W        W 6236   0.368   1.591  10.305
 2493W        W 6237   0.914   8.951   1.416
 2494W        W 6238  10.086   8.129   9.426
 2495W        W 6239   7.159   2.892  11.083
 2496W        W 6240   2.909   0.235   1.577
 2497W        W 6241   2.505   7.221   9.301
 2498W        W 6242   3.882   8.078   1.650
 2499W        W 6243   5.464   4.265   3.158
 2500W        W 6244   9.939   2.454  11.658
 2501W        W 6245   3.379   0.288   1.766
 2502W        W 6246   7.567   3.800  10.426
 2503W        W 6247   4.244   3.865  11.282
 2504W        W 6248   0.041   5.927   2.203
 2505W        W 6249   0.660   6.574  10.282
 2506W        W 6250   7.897   2.316   2.792
 2507W        W 6251   9.386   3.145   1.278
 2508W        W 6252   3.739   1.286   0.996
 2509W        W 6253   4.622   7.984   3.636
 2510W        W 6254   1.211   5.309  10.296
 2511W        W 6255   5.723   9.897   1.293
 2512W        W 6256   0.727   7.454   2.254
 2513W        W 6257   7.940  10.033  11.043
 2514W        W 6258   9.405   7.659  10.176
 2515W        W 6259   5.684   4.474   9.151
 2516W        W 6260   8.001   1.709   1.964
 2517W        W 6261   7.825   7.060   0.870
 2518W        W 6262   7.952   0.283   2.994
 2519W        W 6263   9.356   2.823   0.468
 2520W        W 6264   2.137   7.451   1.717
 2521W        W 6265   4.151   8.625   0.864
 2522W        W 6266   8.905   5.970  10.962
 2523W        W 6267   9.576   9.982   3.799
 2524W        W 6268   9.989   4.475   1.715
 2525W        W 6269   2.381   5.332   1.462
 2526W        W 6270  10.056   4.875  11.807
 2527W        W 6271   8.115   2.444   1.451
 2528W        W 6272   9.177   3.677   9.155
 2529W        W 6273   6.268   2.874   1.170
 2530W        W 6274  10.276   1.274   9.950
 2531W        W 6275  10.413   2.427   1.930
 2532W        W 6276   6.487   2.784   2.783
 2533W        W 6277   8.459   7.188   8.821
 2534W        W 6278   9.933  10.303   2.751
 2535W        W 6279   0.867   6.775   1.160
 2536W        W 6280   3.256   0.222  10.038
 2537W        W 6281   2.069   2.718   3.379
 2538W        W 6282   4.073   5.282   0.478
 2539W        W 6283   6.207   6.923   9.065
 2540W        W 6284   2.875   4.169   9.874
 2541W        W 6285   3.188   9.694   9.915
 2542W        W 6286   5.957   6.626  11.307
 2543W        W 6287   8.156   4.033  11.825
 2544W        W 6288   7.226   5.569   1.198
 2545W        W 6289   0.947   9.156   9.433
 2546W        W 6290   5.226   0.273   1.927
 2547W        W 6291   6.215   1.213  10.031
 2548W        W 6292   7.854   5.446   1.777
 2549W        W 6293   7.422   8.095   3.091
 2550W        W 6294   5.476   7.818   3.776
 2551W        W 6295   7.043   6.060   0.041
 2552W        W 6296   1.902   4.263   9.853
 2553W        W 6297   5.014   2.938   8.551
 2554W        W 6298   3.037   3.470   3.053
 2555W        W 6299   9.296   9.244   3.303
 2556W        W 6300   6.249   5.016   2.178
 2557W        W 6301   4.496   7.720  11.475
 2558W        W 6302   9.001   4.513  11.048
 2559W        W 6303   8.562   9.287  11.124
 2560W        W 6304   5.969   3.504   9.869
 2561W        W 6305  10.401   0.337   3.164
 2562W        W 6306   3.578   2.246   8.732
 2563W        W 6307   8.140   9.341  11.495
 2564W        W 6308   4.733   8.376   0.406
 2565W        W 6309   8.937   1.452   1.514
 2566W        W 6310   6.934   0.826  10.950
 2567W        W 6311   4.602   6.655   9.085
 2568W        W 6312   9.130   3.436   2.066
 2569W        W 6313   8.438   7.426   0.355
 2570W        W 6314   4.698   9.049  10.108
 2571W        W 6315   1.776   6.499   3.494
 2572W        W 6316   5.199   1.345   2.505
 2573W        W 6317   3.610   8.389  10.871
 2574W        W 6318   5.618   1.701   0.548
 2575W        W 6319   3.834   7.478   9.786
 2576W        W 6320   5.667   5.132   1.322
 2577W        W 6321   9.410   7.920   2.072
 2578W        W 6322   7.199   1.358   9.751
 2579W        W 6323   8.508   6.752   9.984
 2580W        W 6324   9.789   9.803   2.875
 2581W        W 6325   4.063   1.530  11.565
 2582W        W 6326   0.742   6.104   9.893
 2583W        W 6327   1.388   8.476  11.096
 2584W        W 6328   3.299   1.458  10.585
 2585W        W 6329  10.444   0.056   9.721
 2586W        W 6330   2.593   4.892   3.626
 2587W        W 6331   5.750   0.742  10.492
 2588W        W 6332   0.775   4.322   1.744
 2589W        W 6333   5.989   7.313   9.562
 2590W        W 6334   0.845   4.665   8.685
 2591W        W 6335   4.589   8.469  11.373
 2592W        W 6336   2.225   3.198  10.720
 2593W        W 6337   6.674   8.412   1.841
 2594W        W 6338   0.374   5.712   9.990
 2595W        W 6339   9.647   5.367   0.441
 2596W        W 6340   9.799   3.069   0.068
 2597W        W 6341   4.317   9.503  11.842
 2598W        W 6342   1.720   3.659  10.399
 2599W        W 6343   0.446   0.482   0.351
 2600W        W 6344   1.749   5.779   8.819
 2601W        W 6345  10.207   2.819  11.944
 2602W        W 6346   5.813   2.487   9.944
 2603W        W 6347   6.576   2.951   1.906
 2604W        W 6348   6.479   3.922  10.327
 2605W        W 6349   7.457   2.281   8.780
 2606W        W 6350   6.496  10.395  10.115
 2607W        W 6351   2.251   9.529   9.248
 2608W        W 6352   4.719   6.427   1.341
 2609W        W 6353   3.607  10.426  10.300
 2610W        W 6354   2.924   5.656   3.123
 2611W        W 6355   6.320  10.289   3.263
 2612W        W 6356   9.389   3.068   2.797
 2613W        W 6357   8.051   1.804   8.812
 2614W        W 6358   8.954   9.516   9.796
 2615W        W 6359   9.436   2.182   1.746
 2616W        W 6360   8.459   0.224   8.850
 2617W        W 6361   5.375   9.564   9.817
 2618W        W 6362   6.983   2.187   3.261
 2619W        W 6363   7.882   3.877  11.339
 2620W        W 6364   1.129   1.398  11.207
 2621W        W 6365   7.100   5.026  11.813
 2622W        W 6366   8.304   7.108   1.231
 2623W        W 6367   4.237   6.552   1.092
 2624W        W 6368   2.720   9.912   9.988
 2625W        W 6369   5.460   7.612   1.577
 2626W        W 6370   7.128   5.728  10.202
 2627W        W 6371   8.414   0.735   8.759
 2628W        W 6372   7.259   9.296   9.276
 2629W        W 6373   6.060   1.986  11.218
 2630W        W 6374   7.357   5.210  10.257
 2631W        W 6375   2.037   9.925   0.669
 2632W        W 6376   9.948   9.321  11.854
 2633W        W 6377   4.600   0.683  10.647
 2634W        W 6378   9.852   9.465  10.793
 2635W        W 6379   9.484   1.793   2.423
 2636W        W 6380   9.477   0.375   9.087
 2637W        W 6381   5.202   1.938  10.264
 2638W        W 6382   2.783   9.297   2.468
 2639W        W 6383   1.151   0.988   0.749
 2640W        W 6384   5.953   3.025   9.018
 2641W        W 6385   6.519  10.178  11.574
 2642W        W 6386   6.982   8.522  10.700
 2643W        W 6387   0.347   2.665  10.047
 2644W        W 6388   2.438   9.541   0.618
 2645W        W 6389   0.511   7.403  10.984
 2646W        W 6390   3.779   0.428   2.519
 2647W        W 6391   5.230   5.052  11.864
 2648W        W 6392   3.712   6.684   9.677
 2649W        W 6393   9.782   6.619   9.519
 2650W        W 6394   0.019   3.390   0.809
 2651W        W 6395   9.469   9.845  10.749
 2652W        W 6396   2.223  10.420  10.285
 2653W        W 6397   0.206   3.342  11.012
 2654W        W 6398   6.137   1.111   2.744
 2655W        W 6399   2.819   6.060   1.445
 2656W        W 6400   5.660   0.056   0.877
 2657W        W 6401   8.925   4.733   2.925
 2658W        W 6402   8.495   4.152   2.849
 2659W        W 6403   3.641   7.071  10.031
 2660W        W 6404   5.248   6.490   9.843
 2661W        W 6405   6.183   7.733   0.070
 2662W        W 6406   7.541   3.930   2.567
 2663W        W 6407   6.084   1.481   0.512
 2664W        W 6408   4.593   8.375   2.161
 2665W        W 6409   7.055   4.819   2.034
 2666W        W 6410   8.005   7.632   3.640
 2667W        W 6411   8.507   3.385   0.501
 2668W        W 6412   5.560   6.467  10.489
 2669W        W 6413   6.355   8.171   8.669
 2670W        W 6414   9.298   4.274   1.878
 2671W        W 6415   4.482   3.226   1.399
 2672W        W 6416   4.220   8.056  10.777
 2673W        W 6417   9.442   6.751   3.042
 2674W        W 6418   1.478   1.938   0.747
 2675W        W 6419   9.733   9.037   1.818
 2676W        W 6420   6.817   8.254   8.384
 2677W        W 6421  10.309   2.757  11.445
 2678W        W 6422   1.836   0.379   0.499
 2679W        W 6423   8.872   5.490   1.908
 2680W        W 6424   0.261   1.308  11.771
 2681W        W 6425   1.637   4.185   2.667
 2682W        W 6426   8.477   4.572   1.646
 2683W        W 6427   6.677   4.465  10.550
 2684W        W 6428   6.674   3.141  11.539
 2685W        W 6429   7.651   0.459   1.218
 2686W        W 6430   9.904   9.102  10.425
 2687W        W 6431  10.350   2.584  10.973
 2688W        W 6432   4.495   5.597   0.379
 2689W        W 6433   1.433   6.043   1.658
 2690W        W 6434   2.224   1.314   0.688
 2691W        W 6435   3.741   1.879   9.545
 2692W        W 6436   9.698   1.870   2.906
 2693W        W 6437   8.407   5.703  11.568
 2694W        W 6438   9.779   1.728   8.921
 2695W        W 6439   0.314   5.143   8.798
 2696W        W 6440   0.302   4.920  10.587
 2697W        W 6441   5.892   7.536   3.883
 2698W        W 6442   8.487   7.574   1.355
 2699W        W 6443   9.239   8.104   9.738
 2700W        W 6444   1.079   7.668   2.672
 2701W        W 6445   4.216   8.921   1.691
 2702W        W 6446   8.839   0.530   1.926
 2703W        W 6447   0.839   9.485  10.004
 2704W        W 6448   5.000   3.995   3.232
 2705W        W 6449   7.461   5.553  11.477
 2706W        W 6450   1.162   4.315  10.363
 2707W        W 6451   2.322   2.699  11.940
 2708W        W 6452   4.529   6.549   0.302
 2709W        W 6453   0.387   9.801   1.259
 2710W        W 6454   2.253   7.229   3.278
 2711W        W 6455   9.731   6.462  11.721
 2712W        W 6456   7.906   8.448   9.288
 2713W        W 6457   7.509   4.756   2.276
 2714W        W 6458   4.363   4.189   9.913
 2715W        W 6459   5.819   9.298   9.613
 2716W        W 6460   8.618   9.364  11.623
 2717W        W 6461   3.103   1.510   0.353
 2718W        W 6462   9.464   6.222  11.276
 2719W        W 6463   9.202   0.696   9.385
 2720W        W 6464   8.369   3.298  10.277
 2721W        W 6465   1.852   0.663  10.344
 2722W        W 6466   3.503   6.926   0.721
 2723W        W 6467   1.392   5.617  11.983
 2724W        W 6468   8.837   7.130   0.641
 2725W        W 6469   0.384   0.213  10.391
 2726W        W 6470   8.616   4.785  11.867
 2727W        W 6471   2.659   9.807   1.757
 2728W        W 6472   7.825   5.232   8.544
 2729W        W 6473  10.331   5.254  11.609
 2730W        W 6474   7.449   6.925   9.182
 2731W        W 6475   2.092  10.287   2.159
 2732W        W 6476   8.579   7.809  10.146
 2733W        W 6477   1.934   6.202   1.599
 2734W        W 6478   6.371   0.673   2.719
 2735W        W 6479   3.216   9.578   2.614
 2736W        W 6480   5.834   4.542   0.859
 2737W        W 6481   0.410  10.381   0.251
 2738W        W 6482   6.180   1.646   1.858
 2739W        W 6483   1.868   8.594   9.125
 2740W        W 6484   6.578  10.324  11.098
 2741W        W 6485   9.259   2.361   0.861
 2742W        W 6486   3.218   0.957  10.474
 2743W        W 6487   1.520   1.002   2.101
 2744W        W 6488   8.721   8.177   9.823
 2745W        W 6489   6.119   4.275  10.999
 2746W        W 6490   3.785   7.671  11.439
 2747W        W 6491   0.480   1.855   0.048
 2748W        W 6492   8.012   3.163   8.901
 2749W        W 6493   7.030   9.184   1.017
 2750W        W 6494   7.515   0.514   2.885
 2751W        W 6495  10.462   4.649   9.987
 2752W        W 6496   9.408   9.383   9.968
 2753W        W 6497   7.469   0.154  11.318
 2754W        W 6498   7.833   6.977   1.396
 2755W        W 6499  10.316   1.217  10.951
 2756W        W 6500   5.165   1.334  10.515
 2757W        W 6501   3.055  10.247   9.160
 2758W        W 6502   0.957   7.014   8.578
 2759W        W 6503   7.081   8.839   0.632
 2760W        W 6504   2.290   8.845   1.532
 2761W        W 6505  10.351   6.024   3.474
 2762W        W 6506   0.372   0.918   0.090
 2763W        W 6507  10.353   4.137  10.586
 2764W        W 6508   8.580   2.613   1.185
 2765W        W 6509   8.411   0.221   9.726
 2766W        W 6510   0.667   7.356   9.354
 2767W        W 6511   8.363   5.539   1.739
 2768W        W 6512   8.727   4.208   9.066
 2769W        W 6513   0.823   3.706   9.344
 2770W        W 6514   6.168   4.430   2.145
 2771W        W 6515   8.381   6.537  11.482
 2772W        W 6516   2.573   4.765  11.269
 2773W        W 6517   9.930   6.941   1.885
 2774W        W 6518   8.290   9.624   0.399
 2775W        W 6519   3.418   3.225  10.105
 2776W        W 6520   0.079   5.991   1.303
 2777W        W 6521   2.014   8.258   0.376
 2778W        W 6522  10.420   6.445   1.518
 2779W        W 6523   6.876   5.295  10.133
 2780W        W 6524   2.661   5.985   0.963
 2781W        W 6525   7.484   5.895  10.804
 2782W        W 6526   6.150  10.002   1.553
 2783W        W 6527   9.182   1.766   2.864
 2784W        W 6528   8.589   5.070   1.756
 2785W        W 6529   0.222   8.585   2.865
 2786W        W 6530   8.343   9.733  11.267
 2787W        W 6531   5.703   7.081   9.157
 2788W        W 6532   7.217   1.845   9.982
 2789W        W 6533   6.155   8.648  10.525
 2790W        W 6534   1.811   6.004   3.544
 2791W        W 6535   5.954   4.094   3.125
 2792W        W 6536   7.016   0.700   0.725
 2793W        W 6537   2.505   8.274   0.537
 2794W        W 6538   9.774   5.925   1.833
 2795W        W 6539   8.397   9.074   3.487
 2796W        W 6540   8.535   2.847  10.497
 2797W        W 6541   3.306   3.276   8.576
 2798W        W 6542   3.115   2.249  11.121
 2799W        W 6543   9.043   1.264   8.739
 2800W        W 6544   8.895   7.013   1.896
 2801W        W 6545   0.200   3.090  10.406
 2802W        W 6546  10.402   8.231   2.127
 2803W        W 6547   2.201   6.422  11.585
 2804W        W 6548  10.456   6.034   9.434
 2805W        W 6549   3.100   2.369   0.125
 2806W        W 6550   3.879   3.336   0.513
 2807W        W 6551   5.571   3.334  11.626
 2808W        W 6552   8.564   8.572   2.816
 2809W        W 6553   8.792  10.329   8.930
 2810W        W 6554   1.942   8.046   1.779
 2811W        W 6555   5.295   9.565   3.392
 2812W        W 6556   3.875   2.332   9.799
 2813W        W 6557   4.543   7.943   0.580
 2814W        W 6558   8.160   1.717  10.345
 2815W        W 6559   9.883   0.507  10.308
 2816W        W 6560   9.857   0.960  10.061
 2817W        W 6561   6.035   2.764   8.403
 2818W        W 6562   7.964   8.894   1.213
 2819W        W 6563   1.201   4.289   3.469
 2820W        W 6564   6.053   0.020   0.225
 2821W        W 6565   9.989   7.418  10.032
 2822W        W 6566   1.136   8.998   0.974
 2823W        W 6567   8.340   0.033   0.828
 2824W        W 6568   3.146   5.233   1.468
 2825W        W 6569   1.897   3.715   1.802
 2826W        W 6570   8.452   6.078   1.696
 2827W        W 6571   0.017   0.200   0.282
 2828W        W 6572  10.487   1.218   8.441
 2829W        W 6573   7.614   1.078  10.358
 2830W        W 6574   7.842   6.201   1.021
 2831W        W 6575   4.083   9.018   1.212
 2832W        W 6576  10.087   2.646   0.837
 2833W        W 6577   9.490   8.919   0.489
 2834W        W 6578   1.048   5.199   9.417
 2835W        W 6579   5.973   8.800   9.830
 2836W        W 6580   9.406   2.330   0.371
 2837W        W 6581   8.047   6.095   8.863
 2838W        W 6582   7.192   5.493  10.645
 2839W        W 6583   8.359   5.437   3.505
 2840W        W 6584   0.314   9.961  11.926
 2841W        W 6585   9.327   5.355   9.689
 2842W        W 6586   3.280   1.286   9.072
 2843W        W 6587   1.013   4.787   1.963
 2844W        W 6588   8.580   6.193   3.177
 2845W        W 6589   9.419   6.312   9.320
 2846W        W 6590   6.947  10.449   0.295
 2847W        W 6591   0.017   0.762   2.342
 2848W        W 6592   6.695   7.840  11.898
 2849W        W 6593   5.298   1.429  11.507
 2850W        W 6594   6.236   8.895   2.965
 2851W        W 6595   1.386   0.968  10.029
 2852W        W 6596   7.953   2.115   2.320
 2853W        W 6597   1.008   5.870   0.317
 2854W        W 6598   8.674   0.037   0.454
 2855W        W 6599   4.647   8.925   9.610
 2856W        W 6600   5.551   3.229   0.174
 2857W        W 6601   1.845   6.735  11.237
 2858W        W 6602   4.142   6.375   0.596
 2859W        W 6603   3.446  10.044  11.994
 2860W        W 6604   2.600   4.108  10.422
 2861W        W 6605   5.267   8.653   3.782
 2862W        W 6606   0.494   8.927   2.071
 2863W        W 6607   1.316   2.025  11.852
 2864W        W 6608   0.401   7.195   2.882
 2865W        W 6609   3.210   1.841   9.857
 2866W        W 6610   7.250   0.364   9.968
 2867W        W 6611   4.741   3.134  10.267
 2868W        W 6612   4.546   9.423   9.582
 2869W        W 6613   8.445   4.360   3.553
 2870W        W 6614   8.592   3.863   0.051
 2871W        W 6615   9.357   1.799   3.377
 2872W        W 6616   3.051   2.663   1.072
 2873W        W 6617   1.266  10.367   9.258
 2874W        W 6618   6.638   5.660   0.925
 2875W        W 6619   4.425   5.834  11.400
 2876W        W 6620   7.960   8.167  10.828
 2877W        W 6621   1.406   4.752  11.854
 2878W        W 6622   1.843   9.927   1.136
 2879W        W 6623   3.017   9.159  11.869
 2880W        W 6624   8.802   9.507   0.279
 2881W        W 6625   4.182   7.411  10.137
 2882W        W 6626   8.500   1.313  10.458
 2883W        W 6627   3.035   0.060   2.101
 2884W        W 6628   0.428   7.118   1.942
 2885W        W 6629   9.282   9.302   1.945
 2886W        W 6630   7.388   0.080   1.461
 2887W        W 6631   1.132   8.281   1.914
 2888W        W 6632   5.050   8.705   9.306
 2889W        W 6633   4.593   9.088  11.983
 2890W        W 6634   1.493   9.325   1.153
 2891W        W 6635   2.796   9.478   9.247
 2892W        W 6636   5.937   7.975   8.907
 2893W        W 6637   7.862   9.764  10.419
 2894W        W 6638   6.189   4.227   0.698
 2895W        W 6639   3.349   0.451  10.480
 2896W        W 6640   8.290   2.347   1.973
 2897W        W 6641   4.607   2.671   1.910
 2898W        W 6642  10.167   5.223   0.510
 2899W        W 6643   6.747   1.665  10.554
 2900W        W 6644   2.111   2.148   1.422
 2901W        W 6645   8.345   6.946  11.797
 2902W        W 6646   6.933   6.594  10.299
 2903W        W 6647   8.064   5.216  10.957
 2904W        W 6648   8.769   5.717   1.477
 2905W        W 6649   4.007   4.651  11.641
 2906W        W 6650   6.011   5.294   9.621
 2907W        W 6651   9.870   4.191  11.404
 2908W        W 6652   4.312   3.091   9.979
 2909W        W 6653   1.591   4.569  11.146
 2910W        W 6654   2.426   4.324   3.330
 2911W        W 6655   7.135   6.928  11.223
 2912W        W 6656   5.682   4.210   2.681
 2913W        W 6657   2.827   9.331   0.879
 2914W        W 6658   3.042   4.736   1.162
 2915W        W 6659  10.320   3.482   1.285
 2916W        W 6660   4.870   8.662   2.531
 2917W        W 6661   5.199   0.489   0.266
 2918W        W 6662   8.201   3.703   8.002
 2919W        W 6663   7.909   6.899   3.511
 2920W        W 6664   2.726   9.445   9.746
 2921W        W 6665  10.160   5.985  10.736
 2922W        W 6666   9.799   5.581   2.644
 2923W        W 6667   5.102   7.563   9.540
 2924W        W 6668   3.573   4.010   9.389
 2925W        W 6669   1.110   0.109  11.719
 2926W        W 6670   1.658  10.237   0.378
 2927W        W 6671  10.481   7.423  10.095
 2928W        W 6672   7.675   6.490   9.042
 2929W        W 6673   8.311   5.821   1.273
 2930W        W 6674   4.589   6.282  11.859
 2931W        W 6675   3.397   4.540  11.088
 2932W        W 6676   9.973   1.304   9.176
 2933W        W 6677   0.195   5.262  10.231
 2934W        W 6678   0.974   1.617  10.708
 2935W        W 6679   1.689   7.418   1.962
 2936W        W 6680   0.232   0.391  10.859
 2937W        W 6681   7.023   4.869   0.707
 2938W        W 6682   6.829   8.920   1.854
 2939W        W 6683   4.556   8.534   9.277
 2940W        W 6684   7.539   4.766   1.391
 2941W        W 6685   4.195   8.304   0.482
 2942W        W 6686   5.130   3.224  11.872
 2943W        W 6687   4.695   5.969   1.741
 2944W        W 6688   8.634   8.073   9.324
 2945W        W 6689   0.187   4.463  10.411
 2946W        W 6690   6.381   2.044  10.527
 2947W        W 6691   0.244   7.988   0.748
 2948W        W 6692   9.811   0.363  11.290
 2949W        W 6693   8.460   7.506  10.536
 2950W        W 6694   1.187   5.198  11.765
 2951W        W 6695   6.567   3.756   2.309
 2952W        W 6696   5.181   7.428   2.653
 2953W        W 6697   3.859   1.266  11.958
 2954W        W 6698   2.516   6.650   0.390
 2955W        W 6699   5.546   8.075   2.232
 2956W        W 6700   5.101   8.363   0.022
 2957W        W 6701   0.467   1.382   3.204
 2958W        W 6702   6.286   2.128  10.021
 2959W        W 6703   8.131   5.512   2.216
 2960W        W 6704   4.265   4.813   0.368
 2961W        W 6705   1.305   2.805   1.950
 2962W        W 6706   0.237   4.150   3.340
 2963W        W 6707   5.270   3.511  11.220
 2964W        W 6708   1.923   8.332  10.667
 2965W        W 6709   5.690   2.117  10.275
 2966W        W 6710   9.021   1.218   9.281
 2967W        W 6711   9.289   7.920  10.654
 2968W        W 6712   7.790   6.027   3.664
 2969W        W 6713   4.214   2.096  10.224
 2970W        W 6714   0.608   8.517   1.288
 2971W        W 6715   8.532   5.093   0.782
 2972W        W 6716   8.815   1.929   8.311
 2973W        W 6717   4.074   3.236  10.789
 2974W        W 6718   4.175   6.108  10.153
 2975W        W 6719   2.249   7.912   8.815
 2976W        W 6720   0.375   4.595   3.547
 2977W        W 6721   1.681   9.467   2.464
 2978W        W 6722   3.745   1.406   9.855
 2979W        W 6723   9.772   8.444   3.358
 2980W        W 6724   0.899   3.214   9.488
 2981W        W 6725   7.041   4.063   1.300
 2982W        W 6726   0.719   2.773   9.221
 2983W        W 6727   5.179   4.064   2.761
 2984W        W 6728   2.997   6.916   0.683
 2985W        W 6729   4.007   6.861   0.731
 2986W        W 6730   9.085   4.632   9.311
 2987W        W 6731   3.804   5.725   9.469
 2988W        W 6732   5.519   4.313   8.695
 2989W        W 6733   7.862   2.629   3.231
 2990W        W 6734   1.711   1.669  10.546
 2991W        W 6735   3.693   7.145  11.446
 2992W        W 6736   8.460   2.399   3.512
 2993W        W 6737   6.984   0.470  11.365
 2994W        W 6738   2.360   8.362  10.412
 2995W        W 6739   1.659   3.549   0.307
 2996W        W 6740   3.160   6.458   8.930
 2997W        W 6741  10.355   4.195  11.223
 2998W        W 6742   5.258   2.304   3.711
 2999W        W 6743   4.233   3.359   3.195
 3000W        W 6744   3.597   5.920  11.823
 3001W        W 6745   9.445   4.155   0.782
 3002W        W 6746   6.200   5.726   0.543
 3003W        W 6747   0.953   3.298  11.806
 3004W        W 6748   2.710   4.956   1.494
 3005W        W 6749   0.901   7.094  11.101
 3006W        W 6750   3.264   5.931  10.129
 3007W        W 6751   8.483   1.856   1.890
 3008W        W 6752   6.625   9.815   1.500
 3009W        W 6753   7.026  10.401   9.897
 3010W        W 6754   5.014   9.354  11.725
 3011W        W 6755   4.254   7.055   1.987
 3012W        W 6756   7.835   9.639   0.806
 3013W        W 6757   7.083   8.539   8.716
 3014W        W 6758  10.049   5.718   0.398
 3015W        W 6759  10.096   3.503   8.438
 3016W        W 6760   1.433   3.336   3.097
 3017W        W 6761   4.247   6.161   1.476
 3018W        W 6762   4.735   7.488   0.482
 3019W        W 6763   0.998   5.578   9.058
 3020W        W 6764   5.687   0.396  10.978
 3021W        W 6765   5.534   0.993  11.806
 3022W        W 6766   8.012   8.873   9.011
 3023W        W 6767   6.023  10.314   8.976
 3024W        W 6768   1.441   0.230   0.202
 3025W        W 6769   9.768   1.386   1.269
 3026W        W 6770   8.559   5.219   2.275
 3027W        W 6771   2.726   6.054   3.431
 3028W        W 6772   4.663   3.128   9.231
 3029W        W 6773   9.913   5.250   1.251
 3030W        W 6774   5.189   0.293   0.752
 3031W        W 6775   2.841   1.806   9.013
 3032W        W 6776   5.203   5.541  10.979
 3033W        W 6777   2.619   3.123   2.594
 3034W        W 6778   9.668   2.195   3.302
 3035W        W 6779   8.963   6.552   9.273
 3036W        W 6780   0.992   9.545   0.349
 3037W        W 6781   6.460   9.977   0.117
 3038W        W 6782   4.489   4.490  11.689
 3039W        W 6783   1.767   5.902   1.226
 3040W        W 6784   6.023   8.859   9.322
 3041W        W 6785   7.602   9.587   9.498
 3042W        W 6786   3.746   6.993   1.184
 3043W        W 6787   7.014   4.050   0.774
 3044W        W 6788   8.044   5.031   2.086
 3045W        W 6789   8.468   0.288  10.446
 3046W        W 6790   6.544   4.049  10.829
 3047W        W 6791   4.569   0.848   8.573
 3048W        W 6792   8.922   1.791  11.668
 3049W        W 6793  10.197   7.468   3.114
 3050W        W 6794   3.212   4.948   3.170
 3051W        W 6795   5.953   3.587   3.288
 3052W        W 6796   1.485   7.573  10.810
 3053W        W 6797   0.437   2.247  11.707
 3054W        W 6798   4.699   9.591   1.335
 3055W        W 6799   8.065   3.408  11.314
 3056W        W 6800   5.169   7.471   9.014
 3057W        W 6801   2.190  10.324   1.203
 3058W        W 6802   1.923   5.141   1.746
 3059W        W 6803   9.078   5.023  10.949
 3060W        W 6804   4.622   2.525   1.047
 3061W        W 6805   1.897   3.173  11.525
 3062W        W 6806   3.791   6.254  11.480
 3063W        W 6807  10.337   1.753   9.629
 3064W        W 6808   1.277   3.881  10.609
 3065W        W 6809   9.449   5.523  10.154
 3066W        W 6810  10.005   5.656   3.174
 3067W        W 6811   6.622   6.160   2.291
 3068W        W 6812   3.780   7.096   8.857
 3069W        W 6813   3.119   6.392  11.326
 3070W        W 6814   1.838   5.034   8.862
 3071W        W 6815   2.592   3.723  10.084
 3072W        W 6816   7.920   9.816   8.791
 3073W        W 6817   4.289   8.432  10.427
 3074W        W 6818   0.703   7.874  10.965
 3075W        W 6819  10.490   6.990   9.815
 3076W        W 6820   4.206   9.419   1.557
 3077W        W 6821   2.042   0.279  11.395
 3078W        W 6822   8.157   2.897   1.205
 3079W        W 6823   2.044   8.524   1.823
 3080W        W 6824   1.172   1.318  10.331
 3081W        W 6825   7.458   6.627   2.478
 3082W        W 6826   7.477   0.854   8.511
 3083W        W 6827   6.739   1.785   1.259
 3084W        W 6828   0.209   7.038   9.349
 3085W        W 6829   2.798   1.259   9.302
 3086W        W 6830   7.490   4.085   0.260
 3087W        W 6831   2.576   2.799   8.949
 3088W        W 6832   4.399   0.776   3.247
 3089W        W 6833   7.486   5.519   0.354
 3090W        W 6834   3.337   7.496   9.846
 3091W        W 6835   4.792   0.349   8.652
 3092W        W 6836   0.495   9.504   9.173
 3093W        W 6837   3.531   8.654  11.290
 3094W        W 6838   6.498   0.021   0.974
 3095W        W 6839  10.262   5.156   9.266
 3096W        W 6840   2.571   1.434   0.340
 3097W        W 6841   7.214   7.479   9.928
 3098W        W 6842   3.813   6.585   2.700
 3099W        W 6843   3.342   1.777   1.270
 3100W        W 6844   7.497   0.158   0.313
 3101W        W 6845   6.438   5.539   9.477
 3102W        W 6846   9.157   5.854   2.252
 3103W        W 6847   4.535   9.901   3.197
 3104W        W 6848   5.922   7.576  11.315
 3105W        W 6849   6.701   3.434  10.281
 3106W        W 6850   9.761   1.186   3.485
 3107W        W 6851   6.739   2.776  11.942
 3108W        W 6852   3.138   6.110  10.908
 3109W        W 6853   7.436   0.063   9.343
 3110W        W 6854   1.922   4.496   2.414
 3111W        W 6855   5.710   5.599   9.959
 3112W        W 6856   6.489   6.370   2.735
 3113W        W 6857   3.448   0.083   9.235
 3114W        W 6858   8.503   9.038   3.005
 3115W        W 6859   0.758   0.576   3.713
 3116W        W 6860   9.457   4.662   8.955
 3117W        W 6861   3.895   2.988   3.102
 3118W        W 6862   2.219   9.064   0.765
 3119W        W 6863   2.281   1.966   9.115
 3120W        W 6864   2.885   9.511  10.638
 3121W        W 6865   1.473   9.955   9.005
 3122W        W 6866   9.037   7.495   2.084
 3123W        W 6867   7.447   1.451   3.165
 3124W        W 6868   8.973   2.201   9.081
 3125W        W 6869   0.756   6.358   9.397
 3126W        W 6870   0.053  10.451  10.696
 3127W        W 6871   9.749   7.240   2.250
 3128W        W 6872   2.571   7.650   1.962
 3129W        W 6873   5.939   2.546   8.853
 3130W        W 6874   2.718   9.524   0.171
 3131W        W 6875   4.179   8.147   2.420
 3132W        W 6876   9.839   3.319   2.894
 3133W        W 6877   3.793   9.465  10.795
 3134W        W 6878   0.241   4.452  11.503
 3135W        W 6879   6.550   4.609   9.661
 3136W        W 6880   7.494  10.436   1.920
 3137W        W 6881   0.152   0.439  11.843
 3138W        W 6882   6.467   3.106  11.051
 3139W        W 6883   0.056   9.472   0.873
 3140W        W 6884   8.323   8.410   9.573
 3141W        W 6885   3.769   6.487  10.150
 3142W        W 6886   7.336   5.611   1.697
 3143W        W 6887   1.387   8.884   8.515
 3144W        W 6888   8.434   1.655  11.423
 3145W        W 6889   1.743   3.659  11.435
 3146W        W 6890   6.250   1.509   0.010
 3147W        W 6891   2.718   6.997   2.479
 3148W        W 6892   0.025   1.822  10.623
 3149W        W 6893   7.204   6.201   8.524
 3150W        W 6894   8.854   6.944  10.287
 3151W        W 6895   0.777   6.841   1.646
 3152W        W 6896   7.582  10.230   0.600
 3153W        W 6897   5.366   3.830   8.619
 3154W        W 6898   9.502   0.059  10.412
 3155W        W 6899   2.307   8.151   2.583
 3156W        W 6900   1.642   8.606   2.120
 3157W        W 6901   8.202   2.606  11.987
 3158W        W 6902   4.683   5.221  10.329
 3159W        W 6903   0.043   0.844  10.686
 3160W        W 6904   9.870   4.476   0.800
 3161W        W 6905   0.951   6.604   0.701
 3162W        W 6906   7.404   9.505  10.571
 3163W        W 6907   5.163  10.278   2.033
 3164W        W 6908  10.424   6.412   2.036
 3165W        W 6909   3.029   1.876  11.958
 3166W        W 6910   4.828   3.350   8.819
 3167W        W 6911   7.671   0.919   1.498
 3168W        W 6912   5.748   2.694  10.917
 3169W        W 6913   3.136   6.266   2.836
 3170W        W 6914   6.327   9.079   0.362
 3171W        W 6915   6.170   4.299  10.504
 3172W        W 6916   2.358   8.121   2.076
 3173W        W 6917   7.634   9.925  11.860
 3174W        W 6918   5.161   5.624   1.155
 3175W        W 6919   4.142   1.583  10.173
 3176W        W 6920   3.612   5.205   2.759
 3177W        W 6921   6.117   0.160   9.352
 3178W        W 6922   4.113   1.369   9.054
 3179W        W 6923   5.003   2.753   0.684
 3180W        W 6924   0.928   8.452   9.920
 3181W        W 6925  10.361   8.204   9.003
 3182W        W 6926   2.269   5.633   9.515
 3183W        W 6927   0.920   1.002   9.239
 3184W        W 6928   2.513   4.235   0.463
 3185W        W 6929   5.587   8.051  10.386
 3186W        W 6930   6.900   3.025   2.658
 3187W        W 6931   3.305   4.526  10.597
 3188W        W 6932   6.920   5.385  11.489
 3189W        W 6933   0.468   3.777  11.002
 3190W        W 6934   9.859   1.431   9.675
 3191W        W 6935   6.253   5.636   9.978
 3192W        W 6936   5.990   5.074   1.727
 3193W        W 6937   8.910   8.070  11.693
 3194W        W 6938   8.535   8.555   1.764
 3195W        W 6939   6.627   1.274   8.854
 3196W        W 6940   2.140   9.668   0.233
 3197W        W 6941   5.203   7.557   0.998
 3198W        W 6942   4.124   6.176   8.777
 3199W        W 6943   8.054   0.488   9.085
 3200W        W 6944   2.769   4.449   1.478
 3201W        W 6945   2.639   4.529   8.226
 3202W        W 6946   2.227   1.487  11.717
 3203W        W 6947   6.030   6.114  10.526
 3204W        W 6948   3.132   4.137  10.305
 3205W        W 6949   3.196   0.388   0.235
 3206W        W 6950   9.914  10.262   0.489
 3207W        W 6951   8.871   8.832   1.276
 3208W        W 6952   7.237   3.584   3.734
 3209W        W 6953   9.333   6.922  10.433
 3210W        W 6954   0.631   8.420  11.644
 3211W        W 6955   4.588   7.142   9.988
 3212W        W 6956   8.136   9.526  10.835
 3213W        W 6957   9.413   7.583   0.376
 3214W        W 6958   3.174   8.347   9.032
 3215W        W 6959   1.914   8.528  11.951
 3216W        W 6960   6.068   9.530   0.340
 3217W        W 6961   4.043   4.897  10.463
 3218W        W 6962   4.680   9.110   1.839
 3219W        W 6963   8.397   5.100   3.011
 3220W        W 6964   0.234   5.510   1.432
 3221W        W 6965   4.061   9.713  11.454
 3222W        W 6966   1.536   3.499   3.615
 3223W        W 6967   0.762   7.463   8.730
 3224W        W 6968   1.357   5.611  10.983
 3225W        W 6969   9.452   6.172   1.449
 3226W        W 6970   4.749  10.370  11.853
 3227W        W 6971   0.954   6.089   1.872
 3228W        W 6972   0.453   9.989  10.876
 3229W        W 6973   7.838   0.122   0.843
 3230W        W 6974   5.643   7.984   9.568
 3231W        W 6975   6.321   5.448   1.840
 3232W        W 6976   9.909   3.776   2.696
 3233W        W 6977   2.840   5.172  11.484
 3234W        W 6978   8.445   9.726   9.695
 3235W        W 6979   9.960   0.400   1.396
 3236W        W 6980   6.372   9.481  10.822
 3237W        W 6981   9.308   4.954   0.262
 3238W        W 6982   0.776   3.632   0.277
 3239W        W 6983   4.994   4.828  10.278
 3240W        W 6984  10.395   8.003  11.331
 3241W        W 6985   6.761   1.205  10.015
 3242W        W 6986   0.623   1.641   0.493
 3243W        W 6987   1.985   6.326   9.575
 3244W        W 6988   6.050   9.360  11.439
 3245W        W 6989  10.181   7.341   9.554
 3246W        W 6990   6.137   3.539   8.920
 3247W        W 6991   3.757   6.286   8.396
 3248W        W 6992   2.849   6.098   1.956
 3249W        W 6993   5.224   7.033   2.328
 3250W        W 6994   7.780   4.368   0.723
 3251W        W 6995   8.078   9.778   2.923
 3252W        W 6996   6.775   6.499   8.566
 3253W        W 6997  10.205   9.067   0.912
 3254W        W 6998   9.060   8.037  10.214
 3255W        W 6999   5.202   0.385   8.983
 3256W        W 7000   0.427   1.959   2.662
 3257W        W 7001   5.996   5.118   2.786
 3258W        W 7002   3.596   7.891   3.078
 3259W        W 7003   2.730   0.294   3.193
 3260W        W 7004   9.378   1.218   1.611
 3261W        W 7005   7.941   3.309   9.991
 3262W        W 7006   8.140   0.920   1.297
 3263W        W 7007   3.166   5.025   2.359
 3264W        W 7008   6.653   0.994   2.969
 3265W        W 7009   6.099   8.111  10.535
 3266W        W 7010   1.920   5.575   3.236
 3267W        W 7011   7.233   5.489   9.746
 3268W        W 7012  10.490   5.294   1.025
 3269W        W 7013   0.700   5.280  11.671
 3270W        W 7014   9.110  10.315   0.424
 3271W        W 7015   8.659   4.643  10.296
 3272W        W 7016   9.990   0.282   3.643
 3273W        W 7017   5.328   8.375   9.573
 3274W        W 7018   9.618   6.708  11.296
 3275W        W 7019   7.855   4.235  10.464
 3276W        W 7020   8.373   6.979   9.516
 3277W        W 7021   7.359   6.265   3.834
 3278W        W 7022   5.560   3.780   2.972
 3279W        W 7023   5.790   5.794   0.252
 3280W        W 7024   3.101   2.749   1.560
 3281W        W 7025   5.106   6.776   8.947
 3282W        W 7026   7.871   4.240   9.583
 3283W        W 7027   2.707   6.684   9.008
 3284W        W 7028   3.617   9.481  11.291
 3285W        W 7029   7.921   0.393  11.488
 3286W        W 7030   7.787   5.581   8.141
 3287W        W 7031   8.564   5.420   9.347
 3288W        W 7032   8.286   0.462   3.717
 3289W        W 7033   2.739   6.518   2.650
 3290W        W 7034   5.319   5.592   3.151
 3291W        W 7035   7.506   0.487   3.386
 3292W        W 7036   3.774   9.164   1.842
 3293W        W 7037   6.609   6.033   9.274
 3294W        W 7038   6.444   8.628   2.231
 3295W        W 7039   0.117   8.436  11.555
 3296W        W 7040   5.926   7.110   8.167
 3297W        W 7041   1.423   2.397  10.482
 3298W        W 7042   7.455   3.407   0.820
 3299W        W 7043   1.012   1.837   2.088
 3300W        W 7044   7.353  10.321  11.684
 3301W        W 7045   6.167   3.244   1.935
 3302W        W 7046   7.847   4.643   8.996
 3303W        W 7047   4.215   9.622   0.310
 3304W        W 7048  10.053   5.486  10.826
 3305W        W 7049   6.473   8.069   2.174
 3306W        W 7050  10.496   7.456  10.983
 3307W        W 7051   1.172   0.457   9.959
 3308W        W 7052   1.684   1.794   9.289
 3309W        W 7053   5.716   1.809   2.011
 3310W        W 7054   3.015   2.796  10.808
 3311W        W 7055   9.914   5.217   2.312
 3312W        W 7056   8.570   9.796   2.100
 3313W        W 7057  10.377   9.870   1.173
 3314W        W 7058   4.318   7.138   3.000
 3315W        W 7059   4.039   6.312   3.391
 3316W        W 7060   4.322   1.383   2.325
 3317W        W 7061   9.985   9.799   0.237
 3318W        W 7062   5.246   4.748   9.274
 3319W        W 7063   2.197  10.388   8.715
 3320W        W 7064   4.733   7.514   8.607
 3321W        W 7065   3.692   7.848   0.734
 3322W        W 7066   7.414   7.653   1.272
 3323W        W 7067   8.552   9.812   3.542
 3324W        W 7068   2.705   4.989   9.017
 3325W        W 7069   6.483   9.265  11.691
 3326W        W 7070   1.902   2.622  10.429
 3327W        W 7071   8.454   0.870   3.421
 3328W        W 7072   8.193   1.242   0.058
 3329W        W 7073   5.582   3.635   0.472
 3330W        W 7074   7.012   4.497   1.046
 3331W        W 7075   2.338   0.417  10.477
 3332W        W 7076   2.873   9.483   3.408
 3333W        W 7077   0.666   0.412  10.014
 3334W        W 7078   9.335   7.465   1.256
 3335W        W 7079  10.262   7.060   0.691
 3336W        W 7080   4.719   7.674   9.184
 3337W        W 7081   0.169   7.993   9.932
 3338W        W 7082   8.127   7.551  10.136
 3339W        W 7083   9.110   0.335   0.446
 3340W        W 7084   8.984   9.425   8.762
 3341W        W 7085   1.778   1.233   0.899
 3342W        W 7086   5.684   3.629   0.969
 3343W        W 7087   7.344   1.777   9.436
 3344W        W 7088   4.054  10.222   3.271
 3345W        W 7089   1.847   2.224   9.011
 3346W        W 7090   3.636   0.506  10.940
 3347W        W 7091   3.410   4.527   0.003
 3348W        W 7092   2.420   1.923  10.360
 3349W        W 7093   1.264   5.083   2.436
 3350W        W 7094   1.070   5.201   8.596
 3351W        W 7095   4.341   3.676  10.819
 3352W        W 7096   0.263   3.354   2.404
 3353W        W 7097   8.955   7.955   2.311
 3354W        W 7098   4.594   8.335   0.906
 3355W        W 7099   3.920   4.614   8.655
 3356W        W 7100   2.991  10.324   0.852
 3357W        W 7101   8.389   4.968   9.164
 3358W        W 7102   2.405   8.605   3.331
 3359W        W 7103   5.333   0.752   1.665
 3360W        W 7104   8.431   6.081   0.355
 3361W        W 7105   5.141   3.321   0.862
 3362W        W 7106   6.972   9.948   2.188
 3363W        W 7107   2.145   8.975   9.986
 3364W        W 7108   0.811   5.192   2.248
 3365W        W 7109   5.682   9.914  11.925
 3366W        W 7110   8.112   3.657   1.369
 3367W        W 7111   5.693   7.578   3.377
 3368W        W 7112   6.776   2.828   9.952
 3369W        W 7113   5.801   4.483   0.271
 3370W        W 7114   0.010   9.380   8.585
 3371W        W 7115   5.419   2.141   9.824
 3372W        W 7116   8.975   2.696   3.310
 3373W        W 7117   4.194   8.447   1.826
 3374W        W 7118  10.029  10.490   3.210
 3375W        W 7119   4.958   7.692   1.440
 3376W        W 7120   1.823   2.808   0.747
 3377W        W 7121   5.723   7.832  10.840
 3378W        W 7122   3.825   0.537  11.502
 3379W        W 7123   6.613   8.561   8.940
 3380W        W 7124   9.594   2.784   0.917
 3381W        W 7125   9.468   8.929  10.187
 3382W        W 7126   6.182   2.521   3.640
 3383W        W 7127   3.581   8.919  10.796
 3384W        W 7128   3.146   7.772   0.390
 3385W        W 7129   4.080   4.023   0.957
 3386W        W 7130   1.355   5.519   0.487
 3387W        W 7131   7.738   8.136   2.703
 3388W        W 7132   5.102   9.911   1.355
 3389W        W 7133   3.274   6.924   9.059
 3390W        W 7134   8.099   5.503   3.065
 3391W        W 7135   9.389   0.438   1.048
 3392W        W 7136   8.829   3.236  10.046
 3393W        W 7137   9.029   9.341  11.332
 3394W        W 7138   5.717   2.730   3.763
 3395W        W 7139   1.780   5.519  10.720
 3396W        W 7140   6.936   4.278  11.388
 3397W        W 7141   4.277   3.879   0.160
 3398W        W 7142   2.183   8.071  11.044
 3399W        W 7143   6.202   7.647   8.597
 3400W        W 7144   1.754   1.232   9.746
 3401W        W 7145   5.431   6.494   0.029
 3402W        W 7146   1.332   7.154  10.131
 3403W        W 7147   8.919   3.574  11.787
 3404W        W 7148   6.046   5.194  11.623
 3405W        W 7149   0.505   7.866  10.472
 3406W        W 7150   7.430   6.520  11.379
 3407W        W 7151   8.168   7.861   2.760
 3408W        W 7152   2.546   0.170   1.925
 3409W        W 7153  10.201   0.520  10.935
 3410W        W 7154   6.379  10.476   2.241
 3411W        W 7155   2.761   5.090   4.064
 3412W        W 7156   8.380  10.310  10.320
 3413W        W 7157   9.006   3.514   8.672
 3414W        W 7158   7.174   3.677   0.462
 3415W        W 7159   8.215   7.976   9.832
 3416W        W 7160   0.686   1.200  10.451
 3417W        W 7161   6.769   9.274   9.422
 3418W        W 7162   1.155   0.458   1.881
 3419W        W 7163   4.201   9.350  11.135
 3420W        W 7164   4.975   7.425  10.603
 3421W        W 7165   8.152   6.922   0.284
 3422W        W 7166   4.736   5.460   9.861
 3423W        W 7167   4.018   6.596  11.086
 3424W        W 7168   7.043   8.298   3.455
 3425W        W 7169   3.836   2.022   3.469
 3426W        W 7170   7.419   6.277   0.767
 3427W        W 7171   4.250   3.214   8.918
 3428W        W 7172   0.947   0.419   2.352
 3429W        W 7173   4.297   0.924   0.391
 3430W        W 7174   5.218   1.262   0.986
 3431W        W 7175   7.509   4.758   0.893
 3432W        W 7176   6.939   3.745  10.925
 3433W        W 7177   7.128   1.695   0.951
 3434W        W 7178   5.474   4.899   0.911
 3435W        W 7179   7.262   0.353   8.671
 3436W        W 7180   1.866   6.239   9.054
 3437W        W 7181   6.094   6.783   3.239
 3438W        W 7182   6.448   4.834  10.250
 3439W        W 7183   2.121   9.912   8.874
 3440W        W 7184   3.599   0.831  11.871
 3441W        W 7185   6.540   6.290   3.533
 3442W        W 7186   3.651   9.970  10.540
 3443W        W 7187   7.545   9.079   2.994
 3444W        W 7188   6.452   8.294   9.377
 3445W        W 7189   0.342   1.552   9.396
 3446W        W 7190   9.364   4.855   9.663
 3447W        W 7191   6.092   2.859   0.688
 3448W        W 7192   1.160   4.267   2.463
 3449W        W 7193   8.925   4.865   2.424
 3450W        W 7194   9.480   3.580   1.579
 3451W        W 7195   4.338   2.763   2.350
 3452W        W 7196   0.697   9.215  10.426
 3453W        W 7197   3.851   8.530   1.283
 3454W        W 7198   1.046   2.795   8.804
 3455W        W 7199   4.746   3.064   4.066
 3456W        W 7200   7.049   1.899   0.016
 3457W        W 7201   0.604   6.639   8.501
 3458W        W 7202   1.729   6.091   2.552
 3459W        W 7203   6.952   7.923   3.136
 3460W        W 7204   5.151   8.340   2.845
 3461W        W 7205   5.366   8.830   0.411
 3462W        W 7206   8.666   5.555   8.866
 3463W        W 7207   7.005   9.261  11.819
 3464W        W 7208  10.381  10.210   0.239
 3465W        W 7209   1.476   3.254   0.686
 3466W        W 7210   7.080   6.574   0.973
 3467W        W 7211  10.380   0.679   0.219
 3468W        W 7212   9.928   4.206   9.597
 3469W        W 7213   3.325   5.016  11.291
 3470W        W 7214   7.880   6.920   2.958
 3471W        W 7215   4.718   3.033   0.995
 3472W        W 7216   4.105   4.120  11.721
 3473W        W 7217   9.432   8.333   1.781
 3474W        W 7218   0.855   2.847   0.969
 3475W        W 7219   2.906   5.194   1.924
 3476W        W 7220   1.006   2.293   9.056
 3477W        W 7221   9.887   7.115  11.407
 3478W        W 7222   5.670   7.116  11.345
 3479W        W 7223  10.121   4.564   0.380
 3480W        W 7224   5.516  10.031   3.278
 3481W        W 7225   5.164   1.243   9.518
 3482W        W 7226   1.219   4.221   2.965
 3483W        W 7227   9.693   3.970   9.204
 3484W        W 7228   3.736   8.200  11.367
 3485W        W 7229   0.426   8.637  11.207
 3486W        W 7230  10.231   2.172   0.583
 3487W        W 7231   5.102   0.691  11.781
 3488W        W 7232   7.214   1.884  10.522
 3489W        W 7233   3.834   8.805   9.954
 3490W        W 7234   8.065   3.228   0.200
 3491W        W 7235   1.855   7.885   0.762
 3492W        W 7236   5.519   8.809   1.179
 3493W        W 7237   1.279   8.100  11.440
 3494W        W 7238   9.932   4.685   3.434
 3495W        W 7239   2.677   2.962   1.267
 3496W        W 7240   6.558   8.975   1.113
 3497W        W 7241   1.933   3.538   2.772
 3498W        W 7242   8.700   0.545  10.075
 3499W        W 7243   6.612   6.735   1.388
 3500W        W 7244   5.619   9.961  10.069
 3501W        W 7245   8.791   3.623  10.969
 3502W        W 7246  10.011   0.279   0.307
 3503W        W 7247   9.867   8.330   2.867
 3504W        W 7248   3.178   1.333   1.470
 3505W        W 7249   5.652   6.310   3.715
 3506W        W 7250   4.547   7.651   8.065
 3507W        W 7251   2.796   8.099  10.345
 3508W        W 7252   6.714   5.935  11.291
 3509W        W 7253   2.667  10.403   3.572
 3510W        W 7254   1.381  10.079  11.127
 3511W        W 7255   1.873   6.945   1.995
 3512W        W 7256   3.174   4.760   1.684
 3513W        W 7257   7.110   0.285   3.138
 3514W        W 7258   7.945   0.806  10.692
 3515W        W 7259   2.328   2.883   0.426
 3516W        W 7260   3.064   1.874  10.780
 3517W        W 7261   1.214   3.136   3.500
 3518W        W 7262   8.060   3.526   3.350
 3519W        W 7263  10.259   9.435   2.963
 3520W        W 7264   2.939   1.173  10.844
 3521W        W 7265   0.267   4.279   1.912
 3522W        W 7266   9.672  10.311   9.583
 3523W        W 7267   1.322   1.809  10.242
 3524W        W 7268   7.260   7.895   9.631
 3525W        W 7269   4.507   0.787   2.750
 3526W        W 7270   5.763   8.076   1.617
 3527W        W 7271   1.187   4.304  11.929
 3528W        W 7272   3.142   9.900  10.433
 3529W        W 7273   6.594   0.178   1.836
 3530W        W 7274   5.356   0.466   3.474
 3531W        W 7275   5.099   9.970   2.483
 3532W        W 7276   0.620   0.232  11.934
 3533W        W 7277   6.582   4.497  11.087
 3534W        W 7278   0.739   0.412  11.056
 3535W        W 7279   2.916   1.652  10.280
 3536W        W 7280   3.183   7.871   0.923
 3537W        W 7281   2.637   4.248  11.947
 3538W        W 7282   2.259   1.659  11.241
 3539W        W 7283   4.646   9.599   9.077
 3540W        W 7284   3.723   0.325   0.978
 3541W        W 7285   5.038   6.066   0.870
 3542W        W 7286   3.360   2.691  11.767
 3543W        W 7287   0.443   4.015   1.520
 3544W        W 7288   7.583   7.428  10.775
 3545W        W 7289   7.110   6.226  11.064
 3546W        W 7290   8.425   8.933   0.979
 3547W        W 7291   0.600   2.499   3.500
 3548W        W 7292   0.388   7.438  11.863
 3549W        W 7293   3.572   4.976  10.709
 3550W        W 7294   7.119   8.833   9.625
 3551W        W 7295   9.749   4.296   3.171
 3552W        W 7296   3.642   8.503  11.790
 3553W        W 7297   3.993   0.051   2.197
 3554W        W 7298   6.982   7.902   2.109
 3555W        W 7299   1.384   4.975  11.370
 3556W        W 7300   0.320   5.290  11.329
 3557W        W 7301   7.534   3.194   9.700
 3558W        W 7302  10.002   9.077   9.427
 3559W        W 7303   7.122   0.401   1.166
 3560W        W 7304   0.560   1.313   8.997
 3561W        W 7305   5.709   6.450   1.447
 3562W        W 7306   8.881   0.541  10.613
 3563W        W 7307   0.836   7.010  10.084
 3564W        W 7308   4.549   7.651  10.767
 3565W        W 7309   2.397   6.894   8.075
 3566W        W 7310   4.733   6.832   3.154
 3567W        W 7311   2.857   3.175  11.409
 3568W        W 7312  10.357   2.977   1.306
 3569W        W 7313   0.521   7.050   8.923
 3570W        W 7314   9.960   9.487   9.073
 3571W        W 7315   4.263   3.636   2.699
 3572W        W 7316   8.564   6.658   3.449
 3573W        W 7317   0.817   7.813   9.096
 3574W        W 7318   1.921   2.196   9.524
 3575W        W 7319   7.196   9.423   2.807
 3576W        W 7320   1.488   7.975   9.538
 3577W        W 7321   6.692   6.995  10.926
 3578W        W 7322   4.592   0.764  11.794
 3579W        W 7323   1.294   1.023  11.549
 3580W        W 7324   5.196   4.266   9.119
 3581W        W 7325   6.706   7.401   9.991
 3582W        W 7326   3.997   3.127   1.380
 3583W        W 7327   4.728   6.959   2.158
 3584W        W 7328   5.576   2.568  10.469
 3585W        W 7329   6.276   8.673   8.572
 3586W        W 7330   4.049   8.016   8.707
 3587W        W 7331   2.235   6.579   9.200
 3588W        W 7332  10.273   8.008   2.861
 3589W        W 7333   3.141   1.785   3.288
 3590W        W 7334  10.444   0.902  11.764
 3591W        W 7335   7.504  10.085   1.540
 3592W        W 7336   1.203   3.322   2.636
 3593W        W 7337   3.355   6.112   1.900
 3594W        W 7338   0.890   4.698   2.457
 3595W        W 7339   6.067   1.995  11.747
 3596W        W 7340   8.609   9.403   1.291
 3597W        W 7341   6.564   2.307   2.954
 3598W        W 7342   6.925   6.464  11.483
 3599W        W 7343   4.532   1.125   9.242
 3600W        W 7344   0.774   8.443   2.752
 3601W        W 7345  10.031   0.796   3.676
 3602W        W 7346   4.292   9.435  10.621
 3603W        W 7347   0.525   2.847   8.748
 3604W        W 7348   4.210   4.221   3.595
 3605W        W 7349   4.565   9.963   0.449
 3606W        W 7350   2.214   3.777   9.755
 3607W        W 7351   5.598   5.104   9.841
 3608W        W 7352   5.484   9.863  11.058
 3609W        W 7353   9.288   8.994   8.726
 3610W        W 7354   1.416   9.265   0.633
 3611W        W 7355   9.363   8.107  11.958
 3612W        W 7356   1.389   9.965   2.831
 3613W        W 7357   2.475   1.813   0.022
 3614W        W 7358   5.952   7.915   9.986
 3615W        W 7359   0.733  10.224   2.843
 3616W        W 7360   1.208   2.885   2.945
 3617W        W 7361   5.679   3.539   4.237
 3618W        W 7362   0.400   8.962  11.592
 3619W        W 7363   2.629   7.538  11.495
 3620W        W 7364   7.473  10.105  11.241
 3621W        W 7365   1.776   2.794   1.732
 3622W        W 7366   1.728   9.311   9.996
 3623W        W 7367  10.368   6.129   8.574
 3624W        W 7368   2.109   7.116   8.443
 3625W        W 7369  10.016   7.873  10.257
 3626W        W 7370   1.218   3.643  11.562
 3627W        W 7371   7.238   0.205   3.701
 3628W        W 7372   3.989   0.884  10.949
 3629W        W 7373   7.783   6.135  10.471
 3630W        W 7374   7.668   2.001   9.755
 3631W        W 7375   7.888   7.864   3.182
 3632W        W 7376   1.710   5.208  11.874
 3633W        W 7377   5.069   4.075   8.157
 3634W        W 7378   8.063   2.002  11.402
 3635W        W 7379   5.351   4.439   0.690
 3636W        W 7380   8.722   2.604   0.692
 3637W        W 7381   6.867   1.736   9.597
 3638W        W 7382   6.946   4.020  10.484
 3639W        W 7383   1.360   4.325   9.886
 3640W        W 7384   5.277   6.646   8.481
 3641W        W 7385  10.039   2.215  11.205
 3642W        W 7386   2.428   1.218   3.550
 3643W        W 7387   5.743   5.097   2.184
 3644W        W 7388   6.946   0.173   0.745
 3645W        W 7389  10.336   8.998   3.254
 3646W        W 7390   9.971   2.825   2.764
 3647W        W 7391   4.717   3.113  11.576
 3648W        W 7392   2.273   9.908   2.983
 3649W        W 7393  10.274   3.077  10.861
 3650W        W 7394   9.509   1.105  11.938
 3651W        W 7395   4.412   8.884  11.128
 3652W        W 7396   0.872   6.679   2.566
 3653W        W 7397   7.949   4.107   2.179
 3654W        W 7398   6.507   9.077   9.005
 3655W        W 7399   5.214   8.377   8.892
 3656W        W 7400   4.973  10.449   9.732
 3657W        W 7401   4.504   9.592   2.335
 3658W        W 7402   1.158   0.482   0.739
 3659W        W 7403   4.860   0.260  10.551
 3660W        W 7404   3.892   9.872   1.177
 3661W        W 7405   4.183   7.899  10.299
 3662W        W 7406   3.741   1.933  11.500
 3663W        W 7407  10.274   8.464   1.683
 3664W        W 7408   7.625   1.809   1.646
 3665W        W 7409   7.520   9.977  10.744
 3666W        W 7410   8.830   9.027   1.766
 3667W        W 7411   1.781   8.125  11.463
 3668W        W 7412   1.022   5.541   3.224
 3669W        W 7413   9.447   7.888   3.478
 3670W        W 7414   9.392   8.615  11.860
 3671W        W 7415   8.599   4.292  11.778
 3672W        W 7416   3.568  10.348   3.119
 3673W        W 7417   4.183   4.370  11.252
 3674W        W 7418   9.768   0.982   1.830
 3675W        W 7419   7.505   8.891   4.034
 3676W        W 7420   2.609   2.361   0.419
 3677W        W 7421   9.852   9.809  11.714
 3678W        W 7422   4.458   3.623   9.130
 3679W        W 7423   9.377   2.220   2.708
 3680W        W 7424   4.222   6.553   9.915
 3681W        W 7425   0.992   2.376   0.789
 3682W        W 7426   6.245   0.775   1.142
 3683W        W 7427   5.987   5.690  11.377
 3684W        W 7428   4.238   8.946  10.295
 3685W        W 7429   8.505   8.004   1.031
 3686W        W 7430   0.500   5.108   0.134
 3687W        W 7431   7.819   9.374   0.344
 3688W        W 7432   2.627   9.043   3.520
 3689W        W 7433   2.203   1.219   1.179
 3690W        W 7434   9.895   2.318   2.782
 3691W        W 7435   1.816   1.427   1.427
 3692W        W 7436   0.296   4.921  11.693
 3693W        W 7437   8.940   7.985   2.839
 3694W        W 7438   8.898   1.738   9.351
 3695W        W 7439   4.587   9.077   2.387
 3696W        W 7440   8.359   2.336   2.506
 3697W        W 7441   3.613   1.386   0.408
 3698W        W 7442   8.317   6.290   3.771
 3699W        W 7443   1.829   4.799  11.576
 3700W        W 7444   6.721   6.729   9.023
 3701W        W 7445   7.639   0.907   0.718
 3702W        W 7446   8.575   1.454  10.967
 3703W        W 7447   2.089   9.298  10.358
 3704W        W 7448   9.839   4.636   9.903
 3705W        W 7449   3.791   9.144  10.372
 3706W        W 7450   0.680   9.402   2.234
 3707W        W 7451   2.649   2.277  11.910
 3708W        W 7452   2.721   3.105   3.273
 3709W        W 7453   9.959   6.405   1.843
 3710W        W 7454   1.489   3.617   8.668
 3711W        W 7455   9.439   3.957  11.558
 3712W        W 7456   8.326   9.986  10.736
 3713W        W 7457   2.007   4.892   3.703
 3714W        W 7458   0.754   6.513   2.054
 3715W        W 7459   0.644   0.344   1.937
 3716W        W 7460   9.644   4.247   8.754
 3717W        W 7461   0.903   2.774  11.906
 3718W        W 7462   8.089   7.941  11.795
 3719W        W 7463   6.491   8.498  10.879
 3720W        W 7464   3.592   7.552   9.360
 3721W        W 7465   3.233   3.767   2.658
 3722W        W 7466   6.008   6.102  10.013
 3723W        W 7467  10.418   8.172  11.943
 3724W        W 7468   9.783   5.003   0.787
 3725W        W 7469   7.464   4.577  11.004
 3726W        W 7470   5.192   8.373  10.071
 3727W        W 7471  10.319   5.116  10.565
 3728W        W 7472  10.293   7.049   1.206
 3729W        W 7473   7.139   7.207  10.796
 3730W        W 7474   7.613   9.120   9.742
 3731W        W 7475   8.594   9.264   9.557
 3732W        W 7476   9.588   3.477   9.404
 3733W        W 7477   0.033   0.851   9.716
 3734W        W 7478   9.900   9.304   9.901
 3735W        W 7479   9.908   6.125   9.471
 3736W        W 7480   6.910  10.167  11.877
 3737W        W 7481   5.450   9.978   1.712
 3738W        W 7482   5.500   3.316   9.835
 3739W        W 7483   9.551   6.649   1.682
 3740W        W 7484   5.062   8.505  11.542
 3741W        W 7485   3.734  10.472  10.821
 3742W        W 7486   9.339   9.480   0.511
 3743W        W 7487   4.779   8.669   8.843
 3744W        W 7488   9.362  10.335  11.848
 3745W        W 7489   3.714   8.655   1.768
 3746W        W 7490  10.347   5.521   9.978
 3747W        W 7491   1.471   3.729   2.767
 3748W        W 7492   6.624   8.484   1.323
 3749W        W 7493   2.899   7.451   2.332
 3750W        W 7494   3.107   5.136  10.839
 3751W        W 7495   5.256   9.676   0.042
 3752W        W 7496   0.025   3.190   9.934
 3753W        W 7497   9.388   3.287   0.284
 3754W        W 7498   8.915   8.350   1.055
 3755W        W 7499   4.274   6.804   3.398
 3756W        W 7500   9.976   8.832   0.540
 3757W        W 7501   2.422   3.403   0.373
 3758W        W 7502   7.411   2.422   0.942
 3759W        W 7503   6.675   0.284   8.703
 3760W        W 7504   2.668   6.944   8.539
 3761W        W 7505   0.259   3.337   0.330
 3762W        W 7506   9.412   6.245   3.081
 3763W        W 7507   7.579   0.008   9.841
 3764W        W 7508   2.971   6.877   2.954
 3765W        W 7509   1.467   8.203   3.206
 3766W        W 7510   2.805   2.778   0.215
 3767W        W 7511   1.250   9.876   8.561
 3768W        W 7512   5.800   4.228   3.619
 3769W        W 7513   0.226   4.151   2.850
 3770W        W 7514   9.769   5.878  11.031
 3771W        W 7515   5.990  10.387   9.909
 3772W        W 7516   4.231   7.323   0.449
 3773W        W 7517   7.332   9.026   0.217
 3774W        W 7518  10.317   9.468   2.468
 3775W        W 7519   3.287   7.087  11.745
 3776W        W 7520   2.468   7.831  11.872
 3777W        W 7521   5.706   0.712  11.422
 3778W        W 7522   9.092   2.196   3.158
 3779W        W 7523   3.762   3.175  11.181
 3780W        W 7524   4.713   3.174   3.216
 3781W        W 7525   7.393   6.984   1.659
 3782W        W 7526   2.377   9.901   9.588
 3783W        W 7527   8.325   3.775  11.048
 3784W        W 7528   5.651   9.080   0.764
 3785W        W 7529   3.831   9.461   2.849
 3786W        W 7530   1.734   9.479  11.287
 3787W        W 7531   1.752   6.506   2.977
 3788W        W 7532   3.345   7.397   8.951
 3789W        W 7533   0.324   1.612   8.433
 3790W        W 7534   6.543   0.190  11.501
 3791W        W 7535   4.702   4.592  11.196
 3792W        W 7536   8.216   2.649   0.757
 3793W        W 7537   6.200   8.199   1.374
 3794W        W 7538   0.826   9.304  11.549
 3795W        W 7539   5.146   6.053   2.436
 3796W        W 7540   2.665   8.093  10.843
 3797W        W 7541   6.126   4.247   1.220
 3798W        W 7542   4.762   8.553  10.277
 3799W        W 7543   5.609   9.037  10.527
 3800W        W 7544   7.557   0.073  10.341
 3801W        W 7545   4.504   4.735  10.359
 3802W        W 7546   7.136   4.930   3.361
 3803W        W 7547   4.898   7.247   8.055
 3804W        W 7548   8.007   3.199   1.600
 3805W        W 7549   5.454  10.430   9.918
 3806W        W 7550   9.177   6.702   0.134
 3807W        W 7551   9.567   8.967   9.704
 3808W        W 7552   2.227   0.753   9.650
 3809W        W 7553   8.039   6.669  10.261
 3810W        W 7554   5.195   7.049   4.270
 3811W        W 7555   7.344   7.134  10.320
 3812W        W 7556   3.064   6.644  11.770
 3813W        W 7557   0.303   2.923   9.590
 3814W        W 7558   6.193   7.067   4.003
 3815W        W 7559   1.864   6.732   1.524
 3816W        W 7560   1.136   5.259   1.048
 3817W        W 7561   8.723   7.449   3.558
 3818W        W 7562   1.316   7.068  10.671
 3819W        W 7563   8.804  10.277   0.913
 3820W        W 7564   7.065   7.089   8.885
 3821W        W 7565   1.816   4.969   2.275
 3822W        W 7566   4.241   5.208  10.085
 3823W        W 7567   6.193   8.377   2.906
 3824W        W 7568   5.068   3.342   0.367
 3825W        W 7569   3.173   1.009   2.850
 3826W        W 7570  10.438   0.637   1.369
 3827W        W 7571   1.513   7.834   2.433
 3828W        W 7572   6.878   6.218   8.128
 3829W        W 7573   5.944   9.641  11.027
 3830W        W 7574   4.466   1.688   2.853
 3831W        W 7575   8.126   2.778   2.812
 3832W        W 7576   8.589   6.767   0.943
 3833W        W 7577   4.811   1.348   2.142
 3834W        W 7578   9.404  10.144   2.131
 3835W        W 7579   9.962  10.132   0.982
 3836W        W 7580   7.644   8.145   0.037
 3837W        W 7581   3.240   6.024   9.175
 3838W        W 7582   2.274   5.990  11.853
 3839W        W 7583   8.367   7.032  10.416
 3840W        W 7584   0.222   7.160   0.953
 3841W        W 7585   8.544   2.829   9.993
 3842W        W 7586   5.134   6.524   2.170
 3843W        W 7587   1.398   6.939   8.831
 3844W        W 7588   5.635   3.314   2.786
 3845W        W 7589   8.141   6.513   3.175
 3846W        W 7590   4.677   9.841  10.826
 3847W        W 7591   8.956   4.747   1.535
 3848W        W 7592   1.798   2.889   9.988
 3849W        W 7593   7.026   8.946   2.845
 3850W        W 7594   6.124   6.507  10.838
 3851W        W 7595   1.343   3.296   2.157
 3852W        W 7596   7.046   2.732  11.544
 3853W        W 7597   9.874  10.252  11.983
 3854W        W 7598   3.758   8.075   9.496
 3855W        W 7599   3.167   1.467   1.975
 3856W        W 7600   6.479   0.220   0.455
 3857W        W 7601   5.080   1.784  10.757
 3858W        W 7602   2.281   5.574  11.499
 3859W        W 7603   5.386   5.678   8.574
 3860W        W 7604   2.198   7.337   9.672
 3861W        W 7605   6.130   8.107  11.063
 3862W        W 7606   1.967   7.754   9.550
 3863W        W 7607   6.953   3.497   2.534
 3864W        W 7608   1.876   4.527   1.412
 3865W        W 7609   0.331   0.974   2.710
 3866W        W 7610   0.916   5.079   9.948
 3867W        W 7611   0.462   4.831  10.104
 3868W        W 7612   4.623   5.356  11.214
 3869W        W 7613   5.112   3.787   0.143
 3870W        W 7614   4.301   4.611  10.823
 3871W        W 7615   5.574   3.302   2.280
 3872W        W 7616   2.140   9.756  10.555
 3873W        W 7617   7.638   9.607   1.659
 3874W        W 7618   4.104   6.058   0.998
 3875W        W 7619  10.323   1.788  11.470
 3876W        W 7620   8.951   2.865   1.450
 3877W        W 7621   0.583   5.900   1.462
 3878W        W 7622   7.405   0.550   9.501
 3879W        W 7623   8.492   3.891   3.305
 3880W        W 7624   9.070   2.242  11.464
 3881W        W 7625   9.343   4.612  10.104
 3882W        W 7626   1.905   9.043   2.853
 3883W        W 7627   1.792   0.858   9.344
 3884W        W 7628   9.439   1.261  10.927
 3885W        W 7629   8.574   4.589  11.324
 3886W        W 7630   8.445   2.726   8.969
 3887W        W 7631   8.883   1.643   3.304
 3888W        W 7632   7.226   7.948   8.588
 3889W        W 7633   1.974   7.730   2.648
 3890W        W 7634   9.891   0.675   0.979
 3891W        W 7635   1.166   4.037   1.450
 3892W        W 7636   5.738   1.289  10.769
 3893W        W 7637   8.044   7.835  11.261
 3894W        W 7638   2.276   5.255   3.441
 3895W        W 7639   8.034   9.802   9.308
 3896W        W 7640   2.678   8.950  10.974
 3897W        W 7641  10.488   1.857  11.964
 3898W        W 7642   9.439   8.589   2.754
 3899W        W 7643   3.226   4.697   3.613
 3900W        W 7644   9.753   0.837  11.022
 3901W        W 7645   7.142   6.687  10.763
 3902W        W 7646   9.037   0.739   0.763
 3903W        W 7647   9.975   9.961  10.822
 3904W        W 7648   5.242   9.705  10.363
 3905W        W 7649   7.524   8.590   3.158
 3906W        W 7650   5.719   6.470   0.945
 3907W        W 7651   1.403   9.531  10.877
 3908W        W 7652   9.794   3.734   9.815
 3909W        W 7653   6.999   0.073   9.037
 3910W        W 7654   6.477   6.623  11.215
 3911W        W 7655   1.742   6.182  11.860
 3912W        W 7656   5.274   4.472  11.020
 3913W        W 7657   5.683   4.209   2.147
 3914W        W 7658   5.579   5.113   3.149
 3915W        W 7659   1.930   3.226   9.625
 3916W        W 7660   6.153   3.322  11.432
 3917W        W 7661   6.370   7.727   1.287
 3918W        W 7662   5.639   0.268   0.403
 3919W        W 7663   3.278   4.985   4.043
 3920W        W 7664   8.195   6.679   2.232
 3921W        W 7665   1.075   3.534   1.484
 3922W        W 7666   4.815   9.461   3.183
 3923W        W 7667  10.479  10.464  10.204
 3924W        W 7668   9.295   4.041   2.486
 3925W        W 7669   8.428   1.833   2.390
 3926W        W 7670   3.666   4.042   1.372
 3927W        W 7671   1.084   7.110   9.647
 3928W        W 7672   9.662   4.743  10.474
 3929W        W 7673   2.766   1.222   0.768
 3930W        W 7674   2.245   8.320  11.551
 3931W        W 7675   8.027   8.453  11.775
 3932W        W 7676   1.796  10.026   1.646
 3933W        W 7677   6.543   9.343  10.354
 3934W        W 7678   9.620   3.782  10.605
 3935W        W 7679  10.488   0.814  11.245
 3936W        W 7680   1.237   1.399   2.289
 3937W        W 7681   9.435   2.668   1.496
 3938W        W 7682   4.878  10.243   2.983
 3939W        W 7683   4.135   2.701   9.063
 3940W        W 7684   9.388  10.019   2.627
 3941W        W 7685   5.606   6.626   8.910
 3942W        W 7686   8.069   2.866  10.727
 3943W        W 7687   1.806   2.757  11.798
 3944W        W 7688   3.610   0.906   2.619
 3945W        W 7689   8.485   8.909  10.288
 3946W        W 7690   0.268   4.212   9.242
 3947W        W 7691   1.549   1.407   8.930
 3948W        W 7692   4.948   2.234  11.872
 3949W        W 7693   8.589  10.465  10.873
 3950W        W 7694   2.136   1.079  10.062
 3951W        W 7695   0.938   6.994   2.118
 3952W        W 7696   8.060   0.681   1.759
 3953W        W 7697   7.305   6.203  10.337
 3954W        W 7698   9.485   0.751   3.530
 3955W        W 7699  10.473   5.083   9.724
 3956W        W 7700   8.819   5.086  10.502
 3957W        W 7701   8.965   4.618   8.823
 3958W        W 7702   4.916   3.683   8.451
 3959W        W 7703   4.984   5.682   0.267
 3960W        W 7704   2.395   0.334   2.799
 3961W        W 7705   9.751   9.025   3.483
 3962W        W 7706  10.436   8.604  10.100
 3963W        W 7707   6.340  10.323   2.749
 3964W        W 7708   4.253   5.355  10.574
 3965W        W 7709   7.065   3.363  11.238
 3966W        W 7710   1.451   1.676   0.218
 3967W        W 7711   7.424   5.196   9.342
 3968W        W 7712   3.274   0.474   1.279
 3969W        W 7713   1.222   3.689   1.015
 3970W        W 7714   7.084   6.096   9.074
 3971W        W 7715   5.975   2.121   9.116
 3972W        W 7716   9.851   1.881   9.414
 3973W        W 7717   0.877   1.710   2.547
 3974W        W 7718   3.320   9.573  11.807
 3975W        W 7719   6.574   0.504   0.870
 3976W        W 7720   3.365   3.900   3.129
 3977W        W 7721   3.388   5.427   3.247
 3978W        W 7722   7.233   4.117  11.810
 3979W        W 7723   1.214   6.114  11.876
 3980W        W 7724   0.875   9.648   9.504
 3981W        W 7725   7.162   7.482   2.394
 3982W        W 7726   9.435   3.714   1.073
 3983W        W 7727   3.919   9.721   0.695
 3984W        W 7728   5.601   1.729   3.031
 3985W        W 7729   3.291   4.910   0.513
 3986W        W 7730   5.076   4.081  10.750
 3987W        W 7731   8.042   5.401   1.280
 3988W        W 7732   4.500   4.139   9.394
 3989W        W 7733   5.348   9.760  11.544
 3990W        W 7734   7.498   9.592  10.050
 3991W        W 7735   6.883   9.399  10.733
 3992W        W 7736   0.209   6.189   0.834
 3993W        W 7737   2.621   5.660   9.928
 3994W        W 7738   3.173   4.218   1.228
 3995W        W 7739  10.210   6.872   9.377
 3996W        W 7740   9.617   7.439   0.834
 3997W        W 7741   7.063   5.236   0.292
 3998W        W 7742   5.944   0.772   9.983
 3999W        W 7743   8.129   8.443   2.600
 4000W        W 7744   6.592   6.685   2.268
 4001W        W 7745   6.888   4.832   9.950
 4002W        W 7746   3.858   3.076   9.244
 4003W        W 7747   1.748   2.237  11.349
 4004W        W 7748   6.835  10.337   2.501
 4005W        W 7749   1.386  10.380  10.274
 4006W        W 7750   5.938   4.732  10.346
 4007W        W 7751   4.972   7.882   8.263
 4008W        W 7752   8.449   3.616   8.458
 4009W        W 7753  10.120   0.927   8.814
 4010W        W 7754   8.982   2.490   1.825
 4011W        W 7755   2.921   4.600   4.109
 4012W        W 7756   4.626   6.484   2.338
 4013W        W 7757   5.055   7.182   1.344
 4014W        W 7758   0.714   6.185   0.937
 4015W        W 7759   9.545   0.067   0.277
 4016W        W 7760   2.902   3.707  10.514
 4017W        W 7761   3.228   8.324  11.514
 4018W        W 7762   7.862   2.406  10.517
 4019W        W 7763   0.847   1.374   0.922
 4020W        W 7764   9.462   1.850   0.907
 4021W        W 7765   7.184   2.628   2.516
 4022W        W 7766   1.462   8.464   1.030
 4023W        W 7767   3.069   2.520   0.598
 4024W        W 7768   7.547   6.120   2.736
 4025W        W 7769   5.615   1.146   1.278
 4026W        W 7770   7.021   9.658   0.814
 4027W        W 7771   9.563   7.194  10.084
 4028W        W 7772   5.947   6.704   4.278
 4029W        W 7773   4.602   3.237  10.810
 4030W        W 7774  10.052   0.976   1.399
 4031W        W 7775   0.421   8.917   1.549
 4032W        W 7776   2.723   7.902   1.207
 4033W        W 7777  10.348   8.549   0.736
 4034W        W 7778   9.946   5.446   1.769
 4035W        W 7779   6.671   5.260  11.976
 4036W        W 7780   5.071   7.886  10.302
 4037W        W 7781   9.933   4.968  10.874
 4038W        W 7782   9.845   1.442  10.187
 4039W        W 7783   4.250   4.451   9.076
 4040W        W 7784   5.604   9.497  10.704
 4041W        W 7785   4.511   6.017   0.688
 4042W        W 7786   7.670   5.584   3.975
 4043W        W 7787   2.153   0.353   9.982
 4044W        W 7788   6.483   9.996   2.397
 4045W        W 7789   5.199   9.458   0.643
 4046W        W 7790   9.672   9.822  11.226
 4047W        W 7791   7.971   0.297  10.560
 4048W        W 7792   0.803   7.906  11.495
 4049W        W 7793  10.315  10.316   1.930
 4050W        W 7794   5.695   3.579  10.946
 4051W        W 7795   2.305   5.059  11.634
 4052W        W 7796  10.069   5.700   2.194
 4053W        W 7797   4.699   2.767   9.782
 4054W        W 7798   6.059   7.202   3.533
 4055W        W 7799   7.556   6.654  10.447
 4056W        W 7800   1.621   8.597  11.550
 4057W        W 7801   6.002   7.111   1.883
 4058W        W 7802   8.757   2.005   3.623
 4059W        W 7803   4.499   7.940   8.484
 4060W        W 7804   8.490   6.196   9.126
 4061W        W 7805   3.391   4.636   8.615
 4062W        W 7806   8.377   9.256   0.054
 4063W        W 7807   1.328   6.409   2.693
 4064W        W 7808  10.204   4.144   2.921
 4065W        W 7809   7.454   5.782   0.797
 4066W        W 7810  10.485   1.733   2.507
 4067W        W 7811   2.929   2.085   9.469
 4068W        W 7812   0.111   1.600   1.799
 4069W        W 7813   4.068   6.912  10.299
 4070W        W 7814   6.740   4.599   3.274
 4071W        W 7815   7.178   2.650   1.369
 4072W        W 7816   4.861   2.813   2.331
 4073W        W 7817   4.889   9.488   2.667
 4074W        W 7818   5.136   4.683  11.479
 4075W        W 7819   8.969   0.411   1.434
 4076W        W 7820   4.017   7.536   3.091
 4077W        W 7821   1.832   3.224   2.019
 4078W        W 7822   1.654   9.508   2.987
 4079W        W 7823   7.114   7.865  11.469
 4080W        W 7824   1.282   4.266   0.427
 4081W        W 7825   9.362   8.550   8.985
 4082W        W 7826   0.799   3.841  11.784
 4083W        W 7827   0.754   7.107   0.764
 4084W        W 7828   3.052   9.038   3.187
 4085W        W 7829   9.647  10.381   3.505
 4086W        W 7830   1.203   2.870   0.484
 4087W        W 7831   6.955   9.971  11.378
 4088W        W 7832   2.279   3.869   2.646
 4089W        W 7833   4.957   4.212   0.923
 4090W        W 7834   4.652   4.968   9.889
 4091W        W 7835   2.795   1.139   3.201
 4092W        W 7836   8.998   8.414   2.562
 4093W        W 7837   3.288   2.383  10.121
 4094W        W 7838   1.789   6.243  11.332
 4095W        W 7839   4.630   7.629  10.270
 4096W        W 7840   6.493   3.043  10.505
 4097W        W 7841   7.336   1.033   9.379
 4098W        W 7842   7.009   7.461   9.452
 4099W        W 7843   4.079  10.105   0.350
 4100W        W 7844   8.377   1.973  10.983
 4101W        W 7845   5.642   1.118   0.747
 4102W        W 7846   8.179   6.617   1.617
 4103W        W 7847   9.399   3.120  11.260
 4104W        W 7848   0.280   7.813   0.256
 4105W        W 7849   0.262   1.729   8.939
 4106W        W 7850   4.460   1.036  10.986
 4107W        W 7851   7.496   2.671   1.806
 4108W        W 7852   8.330   0.932   9.239
 4109W        W 7853   4.694   3.019   0.107
 4110W        W 7854   5.860   2.395   0.043
 4111W        W 7855   7.374   5.044  11.375
 4112W        W 7856   7.461   3.190   1.854
 4113W        W 7857   1.232   7.454   2.189
 4114W        W 7858   4.185   0.787  10.384
 4115W        W 7859   6.752   1.466  11.943
 4116W        W 7860   2.613   3.870  11.432
 4117W        W 7861   6.955   0.972   0.287
 4118W        W 7862   1.439   8.681  10.446
 4119W        W 7863   8.335   9.811  10.213
 4120W        W 7864   8.046   6.031   0.012
 4121W        W 7865   1.912   8.524  11.140
 4122W        W 7866   9.778   9.843   9.818
 4123W        W 7867   3.785   1.807   9.009
 4124W        W 7868   4.448   8.083   0.089
 4125W        W 7869   5.194   9.428   1.150
 4126W        W 7870   1.294  10.325   9.777
 4127W        W 7871   6.534   3.642   3.210
 4128W        W 7872   2.794   8.543  10.623
 4129W        W 7873   5.538   6.399  11.107
 4130W        W 7874   7.051   8.657   1.104
 4131W        W 7875   5.130   8.960   0.867
 4132W        W 7876  10.168  10.292   1.420
 4133W        W 7877   1.421   9.094   2.707
 4134W        W 7878   4.631   5.459   1.835
 4135W        W 7879   1.299   8.429   8.782
 4136W        W 7880   4.479  10.460  11.418
 4137W        W 7881  10.408   3.652   2.157
 4138W        W 7882   8.067   7.484   9.606
 4139W        W 7883   4.081   6.833  11.532
 4140W        W 7884   7.426   7.589   3.203
 4141W        W 7885  10.065   6.847   2.415
 4142W        W 7886   2.815   4.560  10.476
 4143W        W 7887   6.104   0.215  11.766
 4144W        W 7888   0.439   0.426   2.415
 4145W        W 7889   2.777   5.522   0.754
 4146W        W 7890   4.591  10.334  10.547
 4147W        W 7891   6.175   0.309   8.860
 4148W        W 7892   5.617  10.380   1.439
 4149W        W 7893   6.915   3.810  10.028
 4150W        W 7894   2.761   8.893   2.787
 4151W        W 7895   7.574   5.261   1.399
 4152W        W 7896   2.308   5.649   0.504
 4153W        W 7897   9.413   7.614  11.055
 4154W        W 7898   7.412   9.076   2.468
 4155W        W 7899   8.663   2.403  11.873
 4156W        W 7900   8.893   5.991   9.943
 4157W        W 7901   8.968  10.040   1.800
 4158W        W 7902   3.732   8.100  10.453
 4159W        W 7903   3.305   2.169   0.909
 4160W        W 7904   0.017   2.898   0.815
 4161W        W 7905   0.740   2.909   1.489
 4162W        W 7906   4.168   8.853   9.406
 4163W        W 7907   3.608   8.052   9.016
 4164W        W 7908   1.601   2.264   2.269
 4165W        W 7909   0.276   5.990   3.177
 4166W        W 7910   4.780  10.366  11.000
 4167W        W 7911   0.243   6.093   2.661
 4168W        W 7912   0.859   5.550   9.741
 4169W        W 7913   5.033   6.502   2.663
 4170W        W 7914   1.880   9.920   9.369
 4171W        W 7915   8.018   8.846   9.571
 4172W        W 7916   5.152   1.264  10.024
 4173W        W 7917   4.797   2.042   1.009
 4174W        W 7918   6.625   4.260   2.319
 4175W        W 7919   2.755   0.703   1.489
 4176W        W 7920   3.176   8.637   2.846
 4177W        W 7921   6.129   0.465  11.292
 4178W        W 7922   7.763   0.437  10.997
 4179W        W 7923   2.510   6.984   0.857
 4180W        W 7924  10.005   5.489   8.963
 4181W        W 7925   8.114   3.034  11.706
 4182W        W 7926   5.493   0.772   2.463
 4183W        W 7927   5.583   7.320   0.689
 4184W        W 7928   2.258   8.623   2.815
 4185W        W 7929   3.288   3.716   1.184
 4186W        W 7930   7.225   3.891   8.950
 4187W        W 7931   2.767   8.516   9.691
 4188W        W 7932   6.074   3.835  10.709
 4189W        W 7933   7.666   4.236   3.548
 4190W        W 7934   2.409   4.798   3.150
 4191W        W 7935   0.310   1.231  11.263
 4192W        W 7936   8.011   7.383  11.049
 4193W        W 7937   6.494   5.871  10.377
 4194W        W 7938   0.279   9.516  10.042
 4195W        W 7939   5.054   6.650  11.253
 4196W        W 7940   2.185   6.012   2.802
 4197W        W 7941   9.238   9.042   0.930
 4198W        W 7942   0.064   3.754   9.426
 4199W        W 7943   2.195   3.352   2.367
 4200W        W 7944   7.106   1.166   3.409
 4201W        W 7945   3.256   7.708   2.674
 4202W        W 7946   9.437   5.043   2.348
 4203W        W 7947   8.690   1.772  10.610
 4204W        W 7948   3.162   5.609  11.031
 4205W        W 7949   1.791   0.290   2.596
 4206W        W 7950   9.982   2.747   2.233
 4207W        W 7951   6.720   4.819   1.296
 4208W        W 7952   3.047   8.809  11.440
 4209W        W 7953   8.802   8.897  11.476
 4210W        W 7954   2.129   8.958  10.909
 4211W        W 7955   5.906   7.661   0.505
 4212W        W 7956   8.505   8.119   3.091
 4213W        W 7957   3.630   5.652   0.309
 4214W        W 7958   4.973   6.893   0.881
 4215W        W 7959   2.291   9.363   1.650
 4216W        W 7960   2.603   2.361  11.415
 4217W        W 7961   2.879   5.083   9.853
 4218W        W 7962   8.017   2.359   9.547
 4219W        W 7963   6.719   2.331   9.753
 4220W        W 7964   0.996   8.408   3.221
 4221W        W 7965   8.903   4.618   9.822
 4222W        W 7966   1.903   6.529   0.553
 4223W        W 7967   3.431   8.208   1.829
 4224W        W 7968   4.287  10.301   1.847
 4225W        W 7969   3.329   5.775  10.590
 4226W        W 7970   6.024   1.745  10.265
 4227W        W 7971   1.397   3.715   1.848
 4228W        W 7972   3.420   9.589   0.675
 4229W        W 7973   7.114   6.563   3.307
 4230W        W 7974   5.381   2.043   1.704
 4231W        W 7975   2.125   4.672   0.531
 4232W        W 7976   4.962   1.457   3.453
 4233W        W 7977   9.253   8.501  10.404
 4234W        W 7978   8.556   8.059   1.530
 4235W        W 7979   3.783   3.238   1.840
 4236W        W 7980   0.252   6.463   9.429
 4237W        W 7981   5.997   1.748  10.770
 4238W        W 7982   3.705   4.849   3.132
 4239W        W 7983   2.090   1.325   0.203
 4240W        W 7984   2.747   2.362  10.795
 4241W        W 7985   7.924   1.334   0.477
 4242W        W 7986   6.979   4.192   0.256
 4243W        W 7987   5.630   0.481  11.904
 4244W        W 7988   2.316   6.727   1.283
 4245W        W 7989   9.802   9.293   0.340
 4246W        W 7990   4.082   9.000  10.767
 4247W        W 7991   7.199   1.837   2.975
 4248W        W 7992   7.002   8.404   9.257
 4249W        W 7993   8.863   4.080  11.389
 4250W        W 7994   2.246   4.454  10.335
 4251W        W 7995  10.046   5.563   0.880
 4252W        W 7996   6.922   7.131   1.503
 4253W        W 7997   3.098   5.020   9.358
 4254W        W 7998   8.044   8.898   2.839
 4255W        W 7999   9.209   0.512   2.337
 4256W        W 8000   5.679   0.396   9.213
 4257W        W 8001   2.705   3.621   9.120
 4258W        W 8002   8.934   1.476  10.241
 4259W        W 8003   0.710   9.346   2.739
 4260W        W 8004   7.885   5.068   3.250
 4261W        W 8005   0.804   1.861   1.251
 4262W        W 8006   6.638   8.579   3.231
 4263W        W 8007   7.453   3.418   2.382
 4264W        W 8008   0.005   5.570   0.229
 4265W        W 8009   4.700   5.494   1.329
 4266W        W 8010   3.171   5.141  11.972
 4267W        W 8011   3.298   0.462   9.576
 4268W        W 8012   7.624   4.749  10.337
 4269W        W 8013   4.323   4.908  11.313
 4270W        W 8014   1.658   8.822   9.993
 4271W        W 8015   6.002   6.591  10.304
 4272W        W 8016   4.301   1.767  10.635
 4273W        W 8017   8.466   6.678  10.983
 4274W        W 8018   0.310   8.650  11.988
 4275W        W 8019   7.381  10.487   0.978
 4276W        W 8020   6.571   9.902   9.235
 4277W        W 8021   7.182   0.876   9.985
 4278W        W 8022   6.246   2.882   2.344
 4279W        W 8023   3.729   8.228   0.260
 4280W        W 8024   8.431   3.219   9.210
 4281W        W 8025  10.430   0.331   2.624
 4282W        W 8026   4.010   4.283   9.532
 4283W        W 8027   4.183   3.554   1.702
 4284W        W 8028   6.742   3.730   9.016
 4285W        W 8029   9.591   7.615  11.899
 4286W        W 8030   3.827   2.812   2.453
 4287W        W 8031   0.512   9.306   1.227
 4288W        W 8032   6.285   3.183   3.249
 4289W        W 8033   9.858   4.257  10.503
 4290W        W 8034   7.718   2.761  11.891
 4291W        W 8035   3.641   6.880   2.285
 4292W        W 8036   1.263   8.763   1.817
 4293W        W 8037   4.164   3.985   1.457
 4294W        W 8038   4.117   9.894   2.873
 4295W        W 8039   2.626   5.967  10.864
 4296W        W 8040   8.476   0.478   2.694
 4297W        W 8041   5.694   0.328   1.694
 4298W        W 8042   0.987   7.489  10.783
 4299W        W 8043   6.638   0.503   3.143
 4300W        W 8044   6.138   8.155   3.677
 4301W        W 8045   2.848   8.795   0.796
 4302W        W 8046   2.220   7.649   3.578
 4303W        W 8047   5.963   7.185   0.340
 4304W        W 8048   6.765   9.606   3.490
 4305W        W 8049   4.269   9.939  10.500
 4306W        W 8050   9.378   7.794   8.995
 4307W        W 8051   4.227   3.076  11.752
 4308W        W 8052   6.462   4.053   1.865
 4309W        W 8053   6.238   7.922  11.576
 4310W        W 8054   3.242   0.224   3.181
 4311W        W 8055   4.229   8.130  11.284
 4312W        W 8056   1.349   5.788  10.468
 4313W        W 8057   5.824   1.851   1.447
 4314W        W 8058   2.127   5.141  10.771
 4315W        W 8059   7.951   2.287   0.461
 4316W        W 8060   5.686   9.331   3.616
 4317W        W 8061   8.492   2.748   1.678
 4318W        W 8062   4.130  10.411  11.924
 4319W        W 8063   8.759   6.612  11.812
 4320W        W 8064   6.928   0.447   0.286
 4321W        W 8065   0.377   1.473   2.706
 4322W        W 8066   0.228   6.048   8.998
 4323W        W 8067   2.785   0.335   1.057
 4324W        W 8068   3.880   3.903   0.479
 4325W        W 8069   2.952   7.919  11.693
 4326W        W 8070   3.979   8.299  10.036
 4327W        W 8071   2.715   6.909  10.734
 4328W        W 8072   4.090   0.084   9.943
 4329W        W 8073   3.743   9.542   8.979
 4330W        W 8074   2.785   8.048   0.185
 4331W        W 8075   4.664   2.045   9.522
 4332W        W 8076   5.994   5.019   0.933
 4333W        W 8077   2.667   6.638  11.417
 4334W        W 8078   6.611   0.253   2.640
 4335W        W 8079   2.671   2.303   9.063
 4336W        W 8080   0.424   1.729   2.204
 4337W        W 8081   9.805   7.975   0.204
 4338W        W 8082   2.601   8.018  11.346
 4339W        W 8083   9.911   7.970   3.255
 4340W        W 8084   4.459   2.401  11.026
 4341W        W 8085  10.450   8.966   1.760
 4342W        W 8086   2.765   5.899   3.928
 4343W        W 8087   8.861   8.756   0.753
 4344W        W 8088   4.060   7.998   2.892
 4345W        W 8089   5.686   6.224   1.895
 4346W        W 8090  10.458   6.582  10.135
 4347W        W 8091   9.904   3.647   2.218
 4348W        W 8092   3.874   5.095   9.762
 4349W        W 8093   0.821   4.169   9.059
 4350W        W 8094   3.310   8.946   1.940
 4351W        W 8095   8.525   6.730   9.083
 4352W        W 8096   9.429   9.376  11.034
 4353W        W 8097   5.991  10.031   0.324
 4354W        W 8098   3.166  10.455  11.889
 4355W        W 8099   9.775   7.437   8.902
 4356W        W 8100   6.063   9.324   9.132
 4357W        W 8101   1.953   1.785   0.045
 4358W        W 8102   2.545   8.535   1.858
 4359W        W 8103   7.608   5.673  10.356
 4360W        W 8104   5.166   5.237  10.068
 4361W        W 8105  10.335   0.926   0.947
 4362W        W 8106   8.086   3.168   0.703
 4363W        W 8107   9.119   8.597   0.304
 4364W        W 8108   3.609   4.177   2.758
 4365W        W 8109   0.510   1.349   1.370
 4366W        W 8110   0.981   6.169  10.361
 4367W        W 8111   9.343   4.942  11.400
 4368W        W 8112   0.866   9.619   1.813
 4369W        W 8113   0.439   9.875   3.159
 4370W        W 8114   2.753   4.732  11.740
 4371W        W 8115   5.250   7.668   0.505
 4372W        W 8116   9.355   9.547   1.024
 4373W        W 8117   2.789   3.664   9.611
 4374W        W 8118   1.745   2.921   1.244
 4375W        W 8119   1.351   2.754   0.963
 4376W        W 8120   4.669   0.053   9.062
 4377W        W 8121   9.843   3.552   0.227
 4378W        W 8122   2.798   7.199   1.838
 4379W        W 8123   1.154   2.828  11.217
 4380W        W 8124   1.838   9.543   1.483
 4381W        W 8125   7.605   2.315   1.402
 4382W        W 8126   4.944   2.242  10.955
 4383W        W 8127  10.264   8.071   0.923
 4384W        W 8128   8.375   7.106   3.644
 4385W        W 8129   5.935   3.974   0.280
 4386W        W 8130   7.518   8.457   0.983
 4387W        W 8131   3.724   4.533   3.565
 4388W        W 8132   9.024   5.506  10.768
 4389W        W 8133   0.543   5.749  11.534
 4390W        W 8134   6.060   2.864   0.177
 4391W        W 8135   1.632   4.133  10.270
 4392W        W 8136   4.325   2.235   1.941
 4393W        W 8137   3.394  10.061   9.539
 4394W        W 8138   3.819   2.653   1.433
 4395W        W 8139   9.714   0.196  11.771
 4396W        W 8140   9.889   8.838   3.016
 4397W        W 8141   5.512   7.241   1.927
 4398W        W 8142   2.114   3.957  10.230
 4399W        W 8143   7.987   5.623   0.331
 4400W        W 8144   2.349   7.852  10.536
 4401W        W 8145   2.295   5.520  10.448
 4402W        W 8146   8.608   5.766   2.232
 4403W        W 8147   4.893   0.747   3.128
 4404W        W 8148   0.449   2.213   3.096
 4405W        W 8149   8.146   4.728   0.677
 4406W        W 8150   3.676   1.430   2.002
 4407W        W 8151   0.848   0.012   3.520
 4408W        W 8152   8.118   8.507   2.110
 4409W        W 8153   2.856   4.543   2.421
 4410W        W 8154   0.757   3.114   0.302
 4411W        W 8155   2.750   3.839   2.845
 4412W        W 8156   9.510   9.014   2.309
 4413W        W 8157   8.686   6.726   2.366
 4414W        W 8158   6.430   4.135   9.162
 4415W        W 8159   7.182   9.243   8.715
 4416W        W 8160   9.896   5.061   9.610
 4417W        W 8161   3.169  10.498   2.700
 4418W        W 8162   6.901   5.535   2.518
 4419W        W 8163   3.669   1.307   2.966
 4420W        W 8164   3.816   9.030   9.047
 4421W        W 8165   6.977   3.168   1.700
 4422W        W 8166   0.818   8.963   9.891
 4423W        W 8167   3.434   3.159  11.557
 4424W        W 8168   4.050   7.538   1.788
 4425W        W 8169   0.323   6.635   1.808
 4426W        W 8170   9.392   4.405  11.355
 4427W        W 8171   3.201   5.420   0.453
 4428W        W 8172   6.252   3.944   3.542
 4429W        W 8173   4.708   7.085   0.158
 4430W        W 8174   4.704   3.508  11.961
 4431W        W 8175   5.623   1.764   9.007
 4432W        W 8176   8.848   4.751   3.428
 4433W        W 8177   1.391   5.212   9.813
 4434W        W 8178   8.382   3.253   9.740
 4435W        W 8179   7.945   9.120  11.067
 4436W        W 8180   0.805   1.227   2.817
 4437W        W 8181   3.308   8.826   9.262
 4438W        W 8182   7.560   2.003   0.673
 4439W        W 8183   7.525   8.356   8.535
 4440W        W 8184   7.455   7.886   0.452
 4441W        W 8185   8.498   6.540  10.459
 4442W        W 8186   0.677   6.848   9.412
 4443W        W 8187   5.645   5.062   9.328
 4444W        W 8188   5.962   1.307   3.216
 4445W        W 8189   5.059   0.816   8.735
 4446W        W 8190   5.636   0.012   3.446
 4447W        W 8191   6.025   7.375   0.954
 4448W        W 8192   1.246   9.989   1.832
 4449W        W 8193   6.923   5.209   2.936
 4450W        W 8194   7.946   9.767   9.845
 4451W        W 8195   6.391   6.927   0.515
 4452W        W 8196   9.479   9.980   8.940
 4453W        W 8197   9.794   4.693  11.413
 4454W        W 8198   5.941   2.794   3.284
 4455W        W 8199   4.639  10.068   8.873
 4456W        W 8200   4.420   3.655   8.622
 4457W        W 8201   8.971   6.587   3.139
 4458W        W 8202   4.675   6.900   2.657
 4459W        W 8203   2.688   7.533   3.386
 4460W        W 8204   5.644   0.781   0.337
 4461W        W 8205   3.333   5.956   4.081
 4462W        W 8206   9.697   5.694   1.385
 4463W        W 8207   1.783   4.614  10.216
 4464W        W 8208   9.179   9.802  11.177
 4465W        W 8209   7.925   8.955   2.321
 4466W        W 8210   7.037   2.194   9.345
 4467W        W 8211   4.788   1.763   0.493
 4468W        W 8212   4.783   7.333   2.959
 4469W        W 8213   1.358   1.272   9.386
 4470W        W 8214   9.859   0.014   1.749
 4471W        W 8215  10.306   5.128   8.743
 4472W        W 8216   7.624   6.559   9.543
 4473W        W 8217   2.202   2.238   0.134
 4474W        W 8218   8.460   2.894   0.344
 4475W        W 8219   8.305   6.533   0.584
 4476W        W 8220   5.631   5.675   2.750
 4477W        W 8221   5.157   4.361  10.332
 4478W        W 8222   6.417   2.195   8.853
 4479W        W 8223   3.279   9.115   0.795
 4480W        W 8224   4.331   3.398  10.390
 4481W        W 8225   4.868   1.547   1.194
 4482W        W 8226   7.541   1.850  11.812
 4483W        W 8227   8.091   3.968   3.613
 4484W        W 8228   3.649   2.718   9.527
 4485W        W 8229   2.759   4.334  11.438
 4486W        W 8230   9.347   1.859   9.152
 4487W        W 8231   3.442   4.457   4.010
 4488W        W 8232   9.268   3.270  10.341
 4489W        W 8233   7.763   3.216  10.982
 4490W        W 8234   1.380   5.628   1.968
 4491W        W 8235   1.872   8.173   2.286
 4492W        W 8236   7.908   3.690  10.804
 4493W        W 8237   5.264   4.693   2.673
 4494W        W 8238   1.862   7.104   0.044
 4495W        W 8239   6.940   1.289   1.269
 4496W        W 8240   5.444   7.433  11.687
 4497W        W 8241   1.758   4.602   9.195
 4498W        W 8242   8.630   4.188  10.018
 4499W        W 8243   5.161   8.011  11.357
 4500W        W 8244  10.208   6.698   2.910
 4501W        W 8245   4.707  10.216   1.204
 4502W        W 8246  10.247   7.276   2.162
 4503W        W 8247   4.603   3.247   0.558
 4504W        W 8248   1.877   4.749   2.858
 4505W        W 8249   0.203   7.470   3.300
 4506W        W 8250   3.931   9.915  11.899
 4507W        W 8251   8.103   8.249   1.678
 4508W        W 8252   9.356   7.193   8.688
 4509W        W 8253   3.150   0.912   9.405
 4510W        W 8254   1.975   3.245   0.544
 4511W        W 8255   5.926   2.102   9.628
 4512W        W 8256   5.244   7.531   8.513
 4513W        W 8257   6.785   8.914  11.459
 4514W        W 8258   9.075   3.201   3.388
 4515W        W 8259  10.091   2.218   1.139
 4516W        W 8260   1.303   7.117   0.885
 4517W        W 8261   8.551   2.190   8.759
 4518W        W 8262   7.316   2.187   1.798
 4519W        W 8263   8.517   0.262   1.247
 4520W        W 8264  10.442   0.867   9.205
 4521W        W 8265   0.749   2.967   3.670
 4522W        W 8266   9.855   6.644   3.315
 4523W        W 8267   3.829   5.673   2.692
 4524W        W 8268   8.485  10.234   1.854
 4525W        W 8269   8.625   4.171  10.935
 4526W        W 8270   4.151   9.840   8.895
 4527W        W 8271   1.123   2.354   2.198
 4528W        W 8272   6.929   7.592   8.946
 4529W        W 8273   1.419   3.134   9.560
 4530W        W 8274   2.803  10.410  11.073
 4531W        W 8275   8.250   5.973  10.446
 4532W        W 8276   6.670   1.547   1.702
 4533W        W 8277   3.813   8.618  10.443
 4534W        W 8278   4.350   0.025   0.805
 4535W        W 8279   2.471   7.629  10.980
 4536W        W 8280   3.143   2.959   3.000
 4537W        W 8281   1.768   0.193   2.105
 4538W        W 8282   8.496   6.163   8.594
 4539W        W 8283   7.506   2.167   0.208
 4540W        W 8284   6.939   7.427  11.708
 4541W        W 8285   3.286   6.520   9.966
 4542W        W 8286   6.046   3.801  11.763
 4543W        W 8287   2.090   4.803  11.155
 4544W        W 8288   2.415   5.102   1.906
 4545W        W 8289   3.267   7.886  10.350
 4546W        W 8290   0.736   7.892   0.525
 4547W        W 8291  10.241   7.009  10.307
 4548W        W 8292   2.024   5.032   9.492
 4549W        W 8293   4.634   5.047   1.109
 4550W        W 8294   2.317   0.707  11.505
 4551W        W 8295   4.079   9.128   2.533
 4552W        W 8296   7.147   9.335   9.770
 4553W        W 8297   9.868   6.133   3.360
 4554W        W 8298   9.724  10.426   9.068
 4555W        W 8299   7.454   7.459   8.940
 4556W        W 8300   5.712   4.176  11.861
 4557W        W 8301   6.563   7.607   3.165
 4558W        W 8302  10.097   5.614  11.311
 4559W        W 8303   8.982   8.869   2.811
 4560W        W 8304   2.374   3.654  10.550
 4561W        W 8305   5.667   0.311   2.225
 4562W        W 8306   0.251  10.430  11.708
 4563W        W 8307  10.368   1.704   3.491
 4564W        W 8308   0.300   0.141   0.710
 4565W        W 8309   3.292   3.794   1.693
 4566W        W 8310   7.115   9.020  10.466
 4567W        W 8311   7.366   7.153   1.174
 4568W        W 8312   4.585   6.220   2.776
 4569W        W 8313   8.671   6.969  11.397
 4570W        W 8314   5.961   8.615  11.017
 4571W        W 8315   1.295   3.210   1.165
 4572W        W 8316   8.198   9.410   2.256
 4573W        W 8317   6.484   4.082   0.327
 4574W        W 8318   3.159   9.825   1.894
 4575W        W 8319   2.656   7.675   9.081
 4576W        W 8320   0.712   4.340  11.719
 4577W        W 8321   4.227   9.071  11.595
 4578W        W 8322   7.970   7.515   9.085
 4579W        W 8323   3.312   1.258  11.965
 4580W        W 8324   8.115   6.590   8.744
 4581W        W 8325   3.555   1.437  11.539
 4582W        W 8326   3.927   9.621  10.287
 4583W        W 8327   1.667   2.761  11.296
 4584W        W 8328   5.378   9.552   2.494
 4585W        W 8329   9.224  10.332   9.257
 4586W        W 8330   7.279   8.487   0.275
 4587W        W 8331   8.027  10.118   0.850
 4588W        W 8332   9.522   2.804  10.387
 4589W        W 8333   5.094   0.358  10.091
 4590W        W 8334   7.333   8.542   2.269
 4591W        W 8335   7.133   5.040   2.502
 4592W        W 8336   3.124  10.431  10.453
 4593W        W 8337   2.439   3.313   9.767
 4594W        W 8338   2.450   5.562   2.728
 4595W        W 8339   7.868   5.537   3.512
 4596W        W 8340  10.361   6.561   3.418
 4597W        W 8341   7.805   8.781  11.437
 4598W        W 8342   7.844   3.165   2.621
 4599W        W 8343   2.313   0.232   0.353
 4600W        W 8344   0.825   3.956   0.700
 4601W        W 8345   3.872   4.072  10.007
 4602W        W 8346   1.353   6.501  11.548
 4603W        W 8347   6.674   2.294   1.223
 4604W        W 8348   1.227   1.539  11.696
 4605W        W 8349   2.194   9.999   3.492
 4606W        W 8350   9.494   7.073   0.484
 4607W        W 8351   1.363   2.313   1.750
 4608W        W 8352  10.316   9.244   0.412
 4609W        W 8353   0.145   1.779   3.060
 4610W        W 8354   4.655   3.610  11.472
 4611W        W 8355   5.083   1.730   9.776
 4612W        W 8356   7.683   3.584   1.631
 4613W        W 8357   1.169   0.581  11.909
 4614W        W 8358   5.444   7.969   9.102
 4615W        W 8359   9.530   2.265   8.902
 4616W        W 8360   2.250   6.717   3.374
 4617W        W 8361   2.750   7.072  11.671
 4618W        W 8362   6.108   6.564   2.394
 4619W        W 8363   4.460   4.365   0.203
 4620W        W 8364   6.891   0.684   2.618
 4621W        W 8365   5.225   3.020   1.627
 4622W        W 8366   1.308   2.407   2.722
 4623W        W 8367   0.166   5.183   0.550
 4624W        W 8368   7.038   2.706   9.531
 4625W        W 8369   3.599   6.378   3.130
 4626W        W 8370   0.069   7.948   9.409
 4627W        W 8371   1.447   8.872   1.363
 4628W        W 8372   1.671   4.045   0.178
 4629W        W 8373   6.685   7.500  10.773
 4630W        W 8374  10.073   2.645   8.842
 4631W        W 8375   9.995  10.032   8.786
 4632W        W 8376   8.972   9.614  10.299
 4633W        W 8377   3.693   3.138   0.949
 4634W        W 8378   0.871   4.079   9.939
 4635W        W 8379   2.283   4.315  11.236
 4636W        W 8380   1.885   6.400   1.123
 4637W        W 8381   9.078   5.010   1.960
 4638W        W 8382   0.729   1.365  11.543
 4639W        W 8383   3.302   9.259   9.012
 4640W        W 8384   5.411   7.583  11.199
 4641W        W 8385   6.956   2.347  11.199
 4642W        W 8386   5.402   8.550   2.427
 4643W        W 8387   9.363  10.275  11.311
 4644W        W 8388   3.819   1.356   2.474
 4645W        W 8389   5.361   3.640   8.140
 4646W        W 8390   6.462   9.512   2.375
 4647W        W 8391   2.837   3.232   2.114
 4648W        W 8392   5.716   8.815   3.568
 4649W        W 8393   8.538   6.098  11.305
 4650W        W 8394   1.027   1.355   0.418
 4651W        W 8395  10.472   9.629   0.119
 4652W        W 8396   0.217   1.099  10.272
 4653W        W 8397   3.968   6.614   1.967
 4654W        W 8398   3.410   5.207   1.933
 4655W        W 8399   2.745   7.202  10.303
 4656W        W 8400   6.249   1.738   1.141
 4657W        W 8401   6.661   9.104   3.219
 4658W        W 8402   4.100   9.156   0.170
 4659W        W 8403   2.358   1.249   9.584
 4660W        W 8404   4.292   0.339  11.704
 4661W        W 8405   7.458   4.991   4.090
 4662W        W 8406   7.832  10.244   9.089
 4663W        W 8407   0.674   6.825   0.318
 4664W        W 8408   8.061   6.118  11.514
 4665W        W 8409   6.234   7.004  11.963
 4666W        W 8410   7.161   1.404  10.276
 4667W        W 8411   0.801   2.603   0.361
 4668W        W 8412   0.938   4.792  10.444
 4669W        W 8413   9.408   8.978  10.674
 4670W        W 8414   6.085   2.850  11.241
 4671W        W 8415   3.104   1.927   2.662
 4672W        W 8416   6.445   5.479  11.297
 4673W        W 8417   3.898   3.160  10.277
 4674W        W 8418   2.863   8.289   0.897
 4675W        W 8419   4.555   3.191   8.419
 4676W        W 8420   4.583   4.087   8.380
 4677W        W 8421   8.007   6.067  11.003
 4678W        W 8422   8.205   7.442  11.916
 4679W        W 8423   8.124   1.165   9.649
 4680W        W 8424   9.376   6.279   2.479
 4681W        W 8425   7.437   3.620   9.406
 4682W        W 8426   1.203   8.901   9.048
 4683W        W 8427   0.703   4.362  11.216
 4684W        W 8428   8.360   8.958   2.013
 4685W        W 8429   7.843   0.904   0.233
 4686W        W 8430  10.456   7.095   2.653
 4687W        W 8431   4.013   1.667   0.814
 4688W        W 8432   4.413   4.044   4.057
 4689W        W 8433   8.687   9.930   0.547
 4690W        W 8434   9.438   3.277   8.941
 4691W        W 8435   0.208   1.434   0.283
 4692W        W 8436   8.412   4.786   1.192
 4693W        W 8437   3.219   9.353   1.641
 4694W        W 8438   2.546   9.100   8.562
 4695W        W 8439   5.147   6.969   2.851
 4696W        W 8440   9.514   1.080   9.507
 4697W        W 8441   4.095   8.699  11.950
 4698W        W 8442   7.638   3.078  11.464
 4699W        W 8443   6.341   6.944   1.014
 4700W        W 8444   5.285   8.030   1.789
 4701W        W 8445   0.052   6.876   2.203
 4702W        W 8446   9.703   5.958   0.939
 4703W        W 8447   3.647   4.302  11.494
 4704W        W 8448   9.878   3.880  11.833
 4705W        W 8449   4.639   2.682   8.308
 4706W        W 8450   7.709   5.424   9.936
 4707W        W 8451   7.609   7.892  11.579
 4708W        W 8452   8.375  10.225  11.322
 4709W        W 8453   0.921   2.110  10.974
 4710W        W 8454   7.558   6.059   1.752
 4711W        W 8455   4.858   8.193   1.392
 4712W        W 8456   4.052   1.638   3.183
 4713W        W 8457   1.620   0.317  11.718
 4714W        W 8458   4.184   5.749   1.834
 4715W        W 8459   7.470   1.773  10.978
 4716W        W 8460   7.724   6.339  10.011
 4717W        W 8461   7.084   3.256   8.417
 4718W        W 8462   3.711   6.029   9.907
 4719W        W 8463   1.393   2.882  10.301
 4720W        W 8464   2.395   8.358   0.046
 4721W        W 8465   8.113   7.632   0.810
 4722W        W 8466   3.597   6.386   2.260
 4723W        W 8467   2.660   6.490   3.150
 4724W        W 8468   5.275   0.423  11.373
 4725W        W 8469   0.370   8.415   2.388
 4726W        W 8470   3.737   2.342  10.860
 4727W        W 8471   5.087   8.457   1.973
 4728W        W 8472   5.226   0.340   2.476
 4729W        W 8473   4.241   5.606   9.750
 4730W        W 8474   3.758   5.480  10.610
 4731W        W 8475   0.445   2.959   2.673
 4732W        W 8476   9.282   4.360   2.920
 4733W        W 8477   2.204   6.212   3.269
 4734W        W 8478   8.998   4.572  11.597
 4735W        W 8479   7.039   5.208  11.039
 4736W        W 8480   8.008   5.507  11.813
 4737W        W 8481   2.622   9.956  11.414
 4738W        W 8482  10.142  10.277   3.649
 4739W        W 8483   8.976   9.862   9.046
 4740W        W 8484   4.661  10.057   2.196
 4741W        W 8485   5.558   9.374  11.242
 4742W        W 8486   3.163   8.660  10.940
 4743W        W 8487   9.597   6.590   0.627
 4744W        W 8488   2.640  10.441  10.567
 4745W        W 8489   2.130   2.572   1.125
 4746W        W 8490   7.005   1.365   2.925
 4747W        W 8491   8.412   9.404   1.771
 4748W        W 8492   4.756   4.499   9.986
 4749W        W 8493   9.390   7.936   1.486
 4750W        W 8494   3.596   7.943   9.949
 4751W        W 8495   5.965   4.197   1.706
 4752W        W 8496   9.860   2.985  11.569
 4753W        W 8497   6.882   3.227  10.789
 4754W        W 8498   8.894   9.956   8.538
 4755W        W 8499  10.403   6.105  10.306
 4756W        W 8500   2.268   0.334   0.910
 4757W        W 8501   0.701   6.002  11.942
 4758W        W 8502   6.022   5.206  11.128
 4759W        W 8503  10.313   3.657   9.871
 4760W        W 8504   5.768   8.937  11.462
 4761W        W 8505   9.909   6.402  10.003
 4762W        W 8506   4.898   1.178  11.738
 4763W        W 8507   9.926   4.394  11.936
 4764W        W 8508   8.865   7.180   9.440
 4765W        W 8509   4.713   0.333   0.544
 4766W        W 8510   7.423   5.290   3.110
 4767W        W 8511   3.925  10.086   9.581
 4768W        W 8512   8.743   0.901  10.965
 4769W        W 8513   1.391   5.528   1.424
 4770W        W 8514   6.663   1.498   0.834
 4771W        W 8515   0.962   7.678   1.363
 4772W        W 8516  10.270   7.510  11.434
 4773W        W 8517   3.662   9.930   2.626
 4774W        W 8518   5.914   2.415   0.917
 4775W        W 8519   2.172   4.044  11.655
 4776W        W 8520   3.175   8.037   1.422
 4777W        W 8521   1.288   2.843   2.447
 4778W        W 8522   7.057   8.424   2.929
 4779W        W 8523   2.227   3.039   0.964
 4780W        W 8524   7.897   9.937   0.300
 4781W        W 8525   7.013   8.581  10.190
 4782W        W 8526   6.147   8.855   0.792
 4783W        W 8527   9.446   3.782   8.708
 4784W        W 8528   3.237   3.590   2.168
 4785W        W 8529   8.518   9.756  11.936
 4786W        W 8530   5.656   8.540  10.452
 4787W        W 8531   9.091   9.308   2.515
 4788W        W 8532   2.571   0.934  11.904
 4789W        W 8533   1.184  10.278   3.181
 4790W        W 8534   5.654   5.976   2.339
 4791W        W 8535   1.457   8.161  10.484
 4792W        W 8536   9.467   4.612   1.513
 4793W        W 8537   5.936   8.449   2.323
 4794W        W 8538   5.872   8.888   0.346
 4795W        W 8539   4.288   1.894   0.456
 4796W        W 8540   6.058   9.823   9.118
 4797W        W 8541   8.859   1.225   0.841
 4798W        W 8542   4.655   4.996   2.145
 4799W        W 8543   6.695   1.155  10.567
 4800W        W 8544   3.380   3.168   9.075
 4801W        W 8545   8.154   9.331   8.755
 4802W        W 8546   3.741   2.321  10.331
 4803W        W 8547   7.404   7.069   2.171
 4804W        W 8548   8.970   3.724   3.369
 4805W        W 8549   5.067   9.456  11.227
 4806W        W 8550   7.490  10.454   8.328
 4807W        W 8551   0.765   3.823   1.188
 4808W        W 8552   5.463   6.851  10.136
 4809W        W 8553   2.938   7.698  11.104
 4810W        W 8554   9.863   0.327   9.426
 4811W        W 8555   6.783   3.711   0.137
 4812W        W 8556   5.031   7.405   1.848
 4813W        W 8557   9.412   6.029   3.551
 4814W        W 8558   7.426   9.768   2.513
 4815W        W 8559  10.126   8.455  11.390
 4816W        W 8560   5.506   2.185   9.320
 4817W        W 8561   3.342   5.511   2.402
 4818W        W 8562   1.469   4.632   3.177
 4819W        W 8563   7.739   5.617   9.456
 4820W        W 8564   0.704   8.321  10.357
 4821W        W 8565  10.297   1.152   0.425
 4822W        W 8566   4.746   9.609   0.117
 4823W        W 8567   8.899   6.432  10.180
 4824W        W 8568   0.243  10.169   0.904
 4825W        W 8569   6.390   2.721   9.002
 4826W        W 8570   4.984   6.610  11.772
 4827W        W 8571   2.589   7.658   9.582
 4828W        W 8572   5.582   0.795   9.528
 4829W        W 8573   9.983   7.400  10.993
 4830W        W 8574   6.800   4.227   8.803
 4831W        W 8575  10.349   9.540  11.629
 4832W        W 8576   3.156   8.157   3.124
 4833W        W 8577   8.482   9.763   8.812
 4834W        W 8578   3.240   5.490  11.523
 4835W        W 8579   0.566   7.633   2.693
 4836W        W 8580   9.355   5.340   2.755
 4837W        W 8581   3.359   9.405  10.448
 4838W        W 8582   7.707   1.971   8.468
 4839W        W 8583   5.483   6.689  11.543
 4840W        W 8584   6.907   6.959   9.436
 4841W        W 8585   0.376   1.584   0.921
 4842W        W 8586  10.217   0.691   1.820
 4843W        W 8587   1.883   8.631   1.307
 4844W        W 8588   3.060   5.190   3.618
 4845W        W 8589   3.810   1.872  10.580
 4846W        W 8590   0.881   9.442  10.862
 4847W        W 8591   0.147   0.446  10.009
 4848W        W 8592   4.298   1.701  11.986
 4849W        W 8593   5.440   7.787   9.974
 4850W        W 8594   0.416   8.752  10.472
 4851W        W 8595   7.146   5.972  11.558
 4852W        W 8596   0.360   9.473  10.835
 4853W        W 8597   3.565   0.814   3.136
 4854W        W 8598   0.122   8.337   1.305
 4855W        W 8599   4.158   5.558  11.045
 4856W        W 8600   9.862   1.677   3.370
 4857W        W 8601   7.608   2.737  10.875
 4858W        W 8602   5.585   3.147   0.711
 4859W        W 8603   3.246   2.992   0.720
 4860W        W 8604   3.580   4.920  11.725
 4861W        W 8605   2.334   9.498   3.344
 4862W        W 8606   5.716   3.381  10.295
 4863W        W 8607   0.807   9.734  11.817
 4864W        W 8608   8.525   2.846  11.000
 4865W        W 8609   4.829   2.544   0.248
 4866W        W 8610   9.924   3.818   3.194
 4867W        W 8611   5.471   1.358   3.395
 4868W        W 8612   4.174   4.984   2.973
 4869W        W 8613   3.627   8.109   2.599
 4870W        W 8614   0.782  10.469   9.078
 4871W        W 8615   7.481   0.899   1.990
 4872W        W 8616   9.382   8.750   3.226
 4873W        W 8617  10.158   9.881  11.312
 4874W        W 8618   0.466   3.926   9.670
 4875W        W 8619   1.255   1.455   2.800
 4876W        W 8620   0.991   7.554   0.888
 4877W        W 8621   5.616   3.839  11.458
 4878W        W 8622   7.099   8.313   0.722
 4879W        W 8623   3.847   0.360  11.993
 4880W        W 8624   6.049   0.203  10.348
 4881W        W 8625   6.297   5.143   1.329
 4882W        W 8626   7.903   2.366  11.049
 4883W        W 8627   8.918   0.962  10.299
 4884W        W 8628   3.614   5.260   0.719
 4885W        W 8629   3.749   7.906  10.945
 4886W        W 8630   4.955   9.366   2.183
 4887W        W 8631   1.106   4.123   9.488
 4888W        W 8632   4.222   9.280   2.058
 4889W        W 8633   6.524   6.491   0.269
 4890W        W 8634   7.015   3.042  10.339
 4891W        W 8635   3.113  10.277   0.362
 4892W        W 8636   4.937   4.225   0.378
 4893W        W 8637   5.174  10.446   9.248
 4894W        W 8638   0.840   2.430   1.286
 4895W        W 8639   0.496   3.484  11.434
 4896W        W 8640   2.373   9.059   3.067
 4897W        W 8641   0.654   2.193   2.254
 4898W        W 8642   5.402   0.301   1.248
 4899W        W 8643   0.144   2.214   9.851
 4900W        W 8644   0.025   3.210   3.411
 4901W        W 8645   6.280   4.739  10.743
 4902W        W 8646   4.348   5.372  11.643
 4903W        W 8647   2.413   0.261   1.418
 4904W        W 8648   3.806   2.168   0.881
 4905W        W 8649   2.886   8.540   0.327
 4906W        W 8650   6.586   3.249   2.296
 4907W        W 8651   2.382   7.919   1.592
 4908W        W 8652   9.706   7.498   3.242
 4909W        W 8653   8.109   5.495  10.269
 4910W        W 8654   2.402   2.073   3.409
 4911W        W 8655   1.904   1.175   2.972
 4912W        W 8656   4.401   0.313  10.309
 4913W        W 8657   9.399   6.230   1.964
 4914W        W 8658   4.810   1.747  11.971
 4915W        W 8659   9.150   9.922   0.752
 4916W        W 8660   6.422   7.236   1.411
 4917W        W 8661   3.795   5.661   0.939
 4918W        W 8662   8.400   5.688  11.023
 4919W        W 8663   6.647   8.770   9.406
 4920W        W 8664   0.500   3.098  11.863
 4921W        W 8665   3.739   6.467   0.934
 4922W        W 8666   0.897   5.793  11.164
 4923W        W 8667   9.564   3.102   3.277
 4924W        W 8668   7.563   4.519   1.810
 4925W        W 8669   9.621   0.638   9.751
 4926W        W 8670   0.319   8.985  10.019
 4927W        W 8671   7.508   8.419  10.980
 4928W        W 8672   1.857   5.431   9.190
 4929W        W 8673   1.745   3.639   2.303
 4930W        W 8674   5.209   0.185  11.829
 4931W        W 8675   1.904   5.613   2.713
 4932W        W 8676   7.635   6.981  11.428
 4933W        W 8677   8.424   1.898   3.263
 4934W        W 8678  10.339   5.140  11.117
 4935W        W 8679   2.310   7.336  10.564
 4936W        W 8680   8.967   1.949   1.710
 4937W        W 8681   5.990   3.308  11.917
 4938W        W 8682   7.150   2.128   1.251
 4939W        W 8683   4.577   2.211   9.021
 4940W        W 8684   6.126  10.407  11.336
 4941W        W 8685   2.633  10.220   2.154
 4942W        W 8686   3.348   7.875  11.325
 4943W        W 8687   4.334   6.247   1.974
 4944W        W 8688   1.520   7.887   3.638
 4945W        W 8689   9.772   0.796   9.178
 4946W        W 8690   4.592   8.854   0.833
 4947W        W 8691   2.770   8.397  11.712
 4948W        W 8692   7.984   0.219   1.986
 4949W        W 8693   3.177   5.719   3.632
 4950W        W 8694   0.235   6.679   2.825
 4951W        W 8695   7.319   2.637   9.113
 4952W        W 8696   5.468   3.923   3.970
 4953W        W 8697   1.919   0.380   1.315
 4954W        W 8698   4.281   6.371  11.470
 4955W        W 8699   9.078   2.681  11.766
 4956W        W 8700   0.494   4.657   9.089
 4957W        W 8701   0.038   7.508   0.613
 4958W        W 8702   7.708   1.622  11.404
 4959W        W 8703   3.534   4.868   9.039
 4960W        W 8704   8.997   1.280   2.980
 4961W        W 8705   1.888   3.390   8.922
 4962W        W 8706   2.678   0.752   9.423
 4963W        W 8707   7.128   9.823   3.167
 4964W        W 8708   4.195  10.360   1.292
 4965W        W 8709   8.379   0.497   2.181
 4966W        W 8710   2.369   7.248   2.173
 4967W        W 8711   9.230   6.524  11.623
 4968W        W 8712  10.410   8.879  11.372
 4969W        W 8713   4.099   0.800  11.859
 4970W        W 8714   2.259   3.823   2.144
 4971W        W 8715   3.152   5.712   8.770
 4972W        W 8716   0.470   5.944   9.475
 4973W        W 8717   0.809   6.637   3.404
 4974W        W 8718   5.645   2.350   1.374
 4975W        W 8719   2.091   0.260   9.049
 4976W        W 8720   9.003   9.948   0.071
 4977W        W 8721   0.921   6.591   9.818
 4978W        W 8722  10.479   6.609   1.035
 4979W        W 8723   9.470   4.631  11.841
 4980W        W 8724   5.948   6.062  11.039
 4981W        W 8725   6.596   5.034   1.729
 4982W        W 8726   8.493   7.911  11.475
 4983W        W 8727   5.670   0.234   2.743
 4984W        W 8728   6.183   1.789   3.218
 4985W        W 8729   0.793   3.080   3.180
 4986W        W 8730   6.607  10.244  10.595
 4987W        W 8731   5.547   3.828   9.947
 4988W        W 8732   9.895   8.213   2.373
 4989W        W 8733   5.986   6.405   2.880
 4990W        W 8734   5.201  10.362   1.051
 4991W        W 8735   5.554   1.760  11.025
 4992W        W 8736   5.247   8.896   8.865
 4993W        W 8737   8.325   0.497  10.906
 4994W        W 8738   5.088   8.837   9.849
 4995W        W 8739   8.843   1.859  11.159
 4996W        W 8740   3.219  10.080   2.354
 4997W        W 8741   9.562   0.997  10.490
 4998W        W 8742   1.668   7.196   1.410
 4999W        W 8743   5.733   7.555   8.357
 5000W        W 8744   4.683   4.117  11.394
 5001W        W 8745   1.237  10.246   1.387
 5002W        W 8746   3.484  10.453   0.717
 5003W        W 8747   6.577   9.092   2.613
 5004W        W 8748   5.869  10.347   3.010
 5005W        W 8749   4.864   8.300   8.523
 5006W        W 8750   2.670   1.580   1.776
 5007W        W 8751   1.882   2.614   0.269
 5008W        W 8752   1.705   8.918   0.888
 5009W        W 8753   2.311   8.503   9.938
 5010W        W 8754   7.585   6.034  11.299
 5011W        W 8755   8.889   3.734  10.065
 5012W        W 8756   0.919   6.535  10.717
 5013W        W 8757   5.181   8.530   3.311
 5014W        W 8758   4.544   3.235   2.267
 5015W        W 8759   7.636   6.495   8.538
 5016W        W 8760   0.266   4.263  10.945
 5017W        W 8761   0.413   3.419   9.595
 5018W        W 8762   5.510   8.529  11.313
 5019W        W 8763   5.299   1.154   2.017
 5020W        W 8764   6.429   6.801   3.627
 5021W        W 8765   4.240   3.855   3.227
 5022W        W 8766   5.244   1.877  11.729
 5023W        W 8767   1.794   8.173   2.814
 5024W        W 8768   6.453   7.802   9.043
 5025W        W 8769   8.838   5.226   2.799
 5026W        W 8770  10.337   8.802  10.543
 5027W        W 8771   0.626   9.835   0.774
 5028W        W 8772   1.182  10.446   2.688
 5029W        W 8773   7.953   2.485  11.541
 5030W        W 8774   5.122   7.730   2.217
 5031W        W 8775   2.695   6.399   9.440
 5032W        W 8776   2.849   0.353   2.482
 5033W        W 8777   7.473   2.071   2.603
 5034W        W 8778   5.122   9.395   8.991
 5035W        W 8779   1.353   4.839   8.879
 5036W        W 8780   9.458   3.815   2.064
 5037W        W 8781   1.397   7.633  10.310
 5038W        W 8782   9.468   8.539  10.875
 5039W        W 8783   5.105   3.028   9.915
 5040W        W 8784   9.820   5.020   9.033
 5041W        W 8785   0.677   4.374   9.512
 5042W        W 8786   7.823   0.853   9.383
 5043W        W 8787   8.919   7.988   0.724
 5044W        W 8788   9.880   1.343  11.695
 5045W        W 8789  10.498   7.845  10.395
 5046W        W 8790   3.051   1.485   2.900
 5047W        W 8791   8.627   8.689  11.023
 5048W        W 8792  10.434   7.660  11.906
 5049W        W 8793   4.243   7.225  11.943
 5050W        W 8794   5.346   2.387   0.145
 5051W        W 8795   0.276   2.560  11.295
 5052W        W 8796   6.183   8.363   0.901
 5053W        W 8797   6.975   6.858   1.948
 5054W        W 8798   4.794   1.306   0.228
 5055W        W 8799   3.246   8.195   0.033
 5056W        W 8800   0.438   4.636   3.013
 5057W        W 8801   4.753   0.245   1.059
 5058W        W 8802   2.149   0.660  11.026
 5059W        W 8803   9.784   3.122   0.559
 5060W        W 8804   0.557   8.864   2.580
 5061W        W 8805   6.116   2.412   0.453
 5062W        W 8806   2.642   9.109  11.517
 5063W        W 8807   5.703   6.361   0.448
 5064W        W 8808   0.190   7.913  10.872
 5065W        W 8809   0.947   9.936  10.899
 5066W        W 8810   6.158   9.381   2.771
 5067W        W 8811   6.991   6.992   3.012
 5068W        W 8812  10.312   6.259  11.751
 5069W        W 8813   3.282   7.372  11.279
 5070W        W 8814   1.699   1.295   2.503
 5071W        W 8815   0.380   2.657   2.221
 5072W        W 8816   7.438   0.432   0.752
 5073W        W 8817  10.054   7.403   2.627
 5074W        W 8818   8.968   3.794   1.258
 5075W        W 8819   6.890   9.551   9.008
 5076W        W 8820   1.213   0.425  10.892
 5077W        W 8821   6.736   4.178   3.591
 5078W        W 8822   9.812   6.694  10.410
 5079W        W 8823   9.743   3.147   2.432
 5080W        W 8824   1.891   9.453   0.834
 5081W        W 8825   9.990   2.725  10.599
 5082W        W 8826   0.910  10.469  10.078
 5083W        W 8827   6.140   0.176   3.512
 5084W        W 8828   9.357   8.074   0.480
 5085W        W 8829   1.802  10.254  10.022
 5086W        W 8830   3.147   4.949  10.359
 5087W        W 8831   2.577   9.416  10.239
 5088W        W 8832   3.634   4.121  10.474
 5089W        W 8833   2.403   8.589   0.938
 5090W        W 8834   6.094   3.906   2.207
 5091W        W 8835   3.162   8.136  10.927
 5092W        W 8836  10.139   9.471   3.458
 5093W        W 8837   3.699   1.353   8.732
 5094W        W 8838   5.994   5.498   2.411
 5095W        W 8839   5.983   3.238   1.434
 5096W        W 8840   4.109   6.091  11.083
 5097W        W 8841   4.739   8.958  11.509
 5098W        W 8842   2.177   4.459   9.461
 5099W        W 8843   7.444   3.714   8.513
 5100W        W 8844   4.756   7.402   2.413
 5101W        W 8845   8.399   5.525   2.649
 5102W        W 8846   5.038   8.849  11.911
 5103W        W 8847   7.113   3.202   9.403
 5104W        W 8848   0.392   7.945   3.256
 5105W        W 8849   4.368   2.774  11.373
 5106W        W 8850   9.884   3.218   1.454
 5107W        W 8851   3.766   3.674   3.454
 5108W        W 8852   2.972   9.812   0.786
 5109W        W 8853   2.518   4.894   9.518
 5110W        W 8854   2.755   1.326   2.247
 5111W        W 8855   6.190   1.356  11.031
 5112W        W 8856   2.632   3.253  10.330
 5113W        W 8857   4.319   7.501   8.920
 5114W        W 8858   6.534   7.354   3.678
 5115W        W 8859   1.353   6.085   2.200
 5116W        W 8860   9.253   5.959  10.308
 5117W        W 8861   5.083   9.446   1.655
 5118W        W 8862   3.886   1.137   3.413
 5119W        W 8863   3.661   9.632   9.483
 5120W        W 8864   9.731   0.428   2.377
 5121W        W 8865   5.171   2.312  11.394
 5122W        W 8866   1.978   1.709   1.015
 5123W        W 8867   6.995   9.414   2.350
 5124W        W 8868   9.301  10.458   8.757
 5125W        W 8869   5.094   5.606   1.654
 5126W        W 8870   1.474   7.127   9.309
 5127W        W 8871   8.841   0.901   0.325
 5128W        W 8872   9.394   7.548   9.662
 5129W        W 8873   9.072   0.912   1.249
 5130W        W 8874   6.566   6.205   1.323
 5131W        W 8875   0.851   4.821  11.828
 5132W        W 8876   6.578   3.562  11.231
 5133W        W 8877   8.832   7.190   1.151
 5134W        W 8878   6.473   8.363  11.363
 5135W        W 8879   4.286   0.418   8.777
 5136W        W 8880   9.386   3.659  11.960
 5137W        W 8881   2.448   0.916   0.471
 5138W        W 8882   1.248   0.042   2.195
 5139W        W 8883   8.267  10.494   9.280
 5140W        W 8884   8.296   1.392   2.723
 5141W        W 8885   4.030   7.416   8.488
 5142W        W 8886   2.425   6.494  10.582
 5143W        W 8887   5.741   6.527   9.869
 5144W        W 8888   3.317   6.458   0.607
 5145W        W 8889   4.717   1.158   9.767
 5146W        W 8890   6.691   6.465  10.753
 5147W        W 8891   2.250   6.970  10.951
 5148W        W 8892   3.619   7.684   0.253
 5149W        W 8893   5.201   4.180  11.783
 5150W        W 8894   0.461   7.034   3.349
 5151W        W 8895   6.552   0.714  11.487
 5152W        W 8896   2.742   5.557   0.260
 5153W        W 8897   3.785   0.577   8.794
 5154W        W 8898   4.619   7.847   1.079
 5155W        W 8899   8.598   2.898  11.826
 5156W        W 8900   8.863   7.182   8.480
 5157W        W 8901   4.587   6.292   9.445
 5158W        W 8902  10.070  10.253   9.960
 5159W        W 8903   1.912   5.254  11.360
 5160W        W 8904  10.075   4.012   0.870
 5161W        W 8905   8.027   5.901   1.919
 5162W        W 8906   1.997   0.007   1.682
 5163W        W 8907   6.136   0.801   1.643
 5164W        W 8908   4.308   7.205   2.486
 5165W        W 8909   2.160   1.107   2.314
 5166W        W 8910   7.775   6.021   8.398
 5167W        W 8911   7.662   4.601   0.264
 5168W        W 8912   2.735   8.130   8.860
 5169W        W 8913   6.944   5.894   1.451
 5170W        W 8914   9.084   9.426   9.306
 5171W        W 8915   7.445   2.595   0.471
 5172W        W 8916   5.611   1.237   2.840
 5173W        W 8917   0.156   6.098  10.774
 5174W        W 8918   4.174   2.405  10.618
 5175W        W 8919   3.190   9.963   3.411
 5176W        W 8920   6.111   7.882   9.416
 5177W        W 8921   1.450   7.565   0.625
 5178W        W 8922   8.143   6.977  11.332
 5179W        W 8923   5.167   2.687  11.753
 5180W        W 8924   0.372   3.606  11.906
 5181W        W 8925   4.607   7.525   3.885
 5182W        W 8926   8.966   2.625   2.325
 5183W        W 8927   2.712   5.472  10.780
 5184W        W 8928   6.959   2.638   2.986
 5185W        W 8929   0.358   7.971  11.765
 5186W        W 8930  10.257   1.672   0.410
 5187W        W 8931   1.371   6.252   1.184
 5188W        W 8932   2.446   3.767   0.006
 5189W        W 8933   2.685   3.217   0.814
 5190W        W 8934   8.526   8.127   2.039
 5191W        W 8935   6.539   0.437   9.252
 5192W        W 8936   3.094   3.118  11.915
 5193W        W 8937   2.376   3.008  11.517
 5194W        W 8938   0.297   2.335   0.203
 5195W        W 8939   4.870   8.850   0.409
 5196W        W 8940   6.690   7.710   2.474
 5197W        W 8941   4.783   0.822  11.320
 5198W        W 8942   1.927   1.377  10.900
 5199W        W 8943   9.566   4.210  10.928
 5200W        W 8944   3.746   1.889  10.050
 5201W        W 8945   0.958  10.290  10.543
 5202W        W 8946   7.447   1.341   1.207
 5203W        W 8947   5.138   8.810  10.531
 5204W        W 8948   5.782   8.427   8.633
 5205W        W 8949   8.156   0.886   0.681
 5206W        W 8950   4.549   4.260   3.191
 5207W        W 8951   8.440   9.994   2.567
 5208W        W 8952  10.433   8.781   0.293
 5209W        W 8953   1.909   9.026   2.312
 5210W        W 8954   5.742   6.915  11.910
 5211W        W 8955   4.626   2.327   1.522
 5212W        W 8956   5.131   4.789   9.778
 5213W        W 8957   3.376   8.870  10.307
 5214W        W 8958   2.887   0.947   9.860
 5215W        W 8959   6.965   3.775  11.524
 5216W        W 8960   1.439   2.466   8.851
 5217W        W 8961   3.767   7.052   1.785
 5218W        W 8962  10.318   9.951   0.670
 5219W        W 8963   2.688  10.363   1.255
 5220W        W 8964   3.635   9.631   1.999
 5221W        W 8965   5.467   4.612  11.874
 5222W        W 8966   1.687   4.123   2.144
 5223W        W 8967  10.435   5.546   1.849
 5224W        W 8968   0.481   7.155   9.777
 5225W        W 8969   2.433   7.433   8.698
 5226W        W 8970   2.632   4.978  10.735
 5227W        W 8971   5.321   0.333   9.604
 5228W        W 8972   0.770   8.778  10.847
 5229W        W 8973   9.532   0.911   2.387
 5230W        W 8974   4.302   0.372   9.290
 5231W        W 8975   9.769   1.834   1.963
 5232W        W 8976   8.093   6.653   1.083
 5233W        W 8977   6.551   6.689  11.749
 5234W        W 8978   0.519   5.624   8.833
 5235W        W 8979   3.271   1.978   0.420
 5236W        W 8980   5.451   8.891  10.978
 5237W        W 8981   0.884   8.978   8.619
 5238W        W 8982   9.344   8.958  11.498
 5239W        W 8983   6.083   0.863   0.657
 5240W        W 8984   6.114   6.603   1.747
 5241W        W 8985   1.182   1.822   9.343
 5242W        W 8986   5.476   7.999   8.583
 5243W        W 8987   4.786   3.165   1.814
 5244W        W 8988  10.451   1.327   8.946
 5245W        W 8989   2.908   5.701   2.603
 5246W        W 8990   9.400   7.041   1.959
 5247W        W 8991   0.075   7.594   2.804
 5248W        W 8992   0.321   0.008   2.642
 5249W        W 8993   2.430   8.894  10.465
 5250W        W 8994   9.615   9.431   9.473
 5251W        W 8995   7.672   8.013   9.360
 5252W        W 8996   6.398   3.916   8.666
 5253W        W 8997   8.890   2.346  10.079
 5254W        W 8998   2.926   3.739   0.203
 5255W        W 8999   3.498   3.044   1.401
 5256W        W 9000   7.548   0.008   3.191
 5257W        W 9001   1.379   3.826   3.246
 5258W        W 9002   8.719   0.859   9.569
 5259W        W 9003   4.634   5.969   2.312
 5260W        W 9004   2.709   5.368   9.478
 5261W        W 9005   6.466   1.791  10.981
 5262W        W 9006   5.670   9.982  10.589
 5263W        W 9007   1.683   9.902   2.145
 5264W        W 9008   4.243   5.275   2.078
 5265W        W 9009   5.533   8.842  10.072
 5266W        W 9010   5.403   7.143   8.211
 5267W        W 9011   5.536   8.907  11.926
 5268W        W 9012   3.075   4.243   1.859
 5269W        W 9013   1.702   6.008   3.049
 5270W        W 9014   3.034   7.446   9.391
 5271W        W 9015   3.593   6.098   3.622
 5272W        W 9016   9.407   8.900   1.404
 5273W        W 9017   0.302  10.290   9.476
 5274W        W 9018   1.495   7.365   2.651
 5275W        W 9019   8.840   2.204   2.681
 5276W        W 9020   6.580   1.032   2.425
 5277W        W 9021   6.183  10.167   9.476
 5278W        W 9022   8.351   9.037  10.755
 5279W        W 9023   0.575   8.220   0.156
 5280W        W 9024   2.337   1.679   1.368
 5281W        W 9025  10.481   6.737   0.082
 5282W        W 9026   4.334   6.077   0.226
 5283W        W 9027   2.915   9.892   9.524
 5284W        W 9028   7.023   5.837   2.118
 5285W        W 9029   9.063   5.074  10.039
 5286W        W 9030  10.271   4.850   0.851
 5287W        W 9031   2.494   9.931   0.971
 5288W        W 9032   4.292   2.107   0.955
 5289W        W 9033   0.748   1.875   8.867
 5290W        W 9034   6.483   3.224   1.483
 5291W        W 9035   5.324   3.332   8.556
 5292W        W 9036   5.422   9.848   3.802
 5293W        W 9037   5.105   8.990   1.459
 5294W        W 9038   5.174   2.813   3.853
 5295W        W 9039   7.908   1.804   0.284
 5296W        W 9040   7.874   6.381   1.997
 5297W        W 9041   1.660   6.035  10.862
 5298W        W 9042   0.271   0.939   8.801
 5299W        W 9043   5.758   2.864   1.099
 5300W        W 9044   8.640   5.689   8.368
 5301W        W 9045   0.543   5.509   0.462
 5302W        W 9046   7.482   4.692   3.651
 5303W        W 9047   7.963   5.710   0.865
 5304W        W 9048   7.894   2.277   0.990
 5305W        W 9049   0.289  10.384  11.178
 5306W        W 9050   8.197   5.925   3.375
 5307W        W 9051   7.007   8.061  10.479
 5308W        W 9052   7.963  10.261   1.744
 5309W        W 9053   6.119  10.373   0.687
 5310W        W 9054   7.316   4.534   9.976
 5311W        W 9055   3.558   2.627   0.972
 5312W        W 9056   4.818   2.255   3.456
 5313W        W 9057   3.919   3.970   2.404
 5314W        W 9058   2.283   7.068  10.077
 5315W        W 9059   7.467  10.016   9.753
 5316W        W 9060   1.373   1.863   2.477
 5317W        W 9061   5.776   4.657   1.901
 5318W        W 9062   9.483   2.655  11.455
 5319W        W 9063   3.158   3.495   0.731
 5320W        W 9064   9.484   3.890   2.946
 5321W        W 9065   5.719   4.645   2.415
 5322W        W 9066   0.468   3.787   2.589
 5323W        W 9067   4.153   7.334  11.471
 5324W        W 9068   8.400   4.295   2.361
 5325W        W 9069   0.026   5.701   0.706
 5326W        W 9070   0.885   0.133   9.585
 5327W        W 9071   8.493   5.734  10.070
 5328W        W 9072  10.495   2.620  10.448
 5329W        W 9073   5.576   1.447   1.696
 5330W        W 9074   8.931   6.455   8.780
 5331W        W 9075   7.929   4.946   1.095
 5332W        W 9076   7.550   4.424   4.071
 5333W        W 9077   3.788   5.408   2.214
 5334W        W 9078  10.301   1.381  11.969
 5335W        W 9079   8.986   8.392   2.047
 5336W        W 9080   5.556   3.932   9.068
 5337W        W 9081   8.075   9.381   1.353
 5338W        W 9082   8.907   4.178   9.543
 5339W        W 9083   9.017   8.590   9.947
 5340W        W 9084   3.778   3.097   8.727
 5341W        W 9085   7.022   6.942   2.484
 5342W        W 9086   5.501  10.055   8.603
 5343W        W 9087   7.648   9.273  11.444
 5344W        W 9088   9.219   7.002   1.475
 5345W        W 9089   0.161   5.062   2.855
 5346W        W 9090   6.752   6.551   9.770
 5347W        W 9091   9.781   9.343   3.090
 5348W        W 9092   9.547   6.941   2.585
 5349W        W 9093   4.207   6.379  10.623
 5350W        W 9094   3.791   0.507   2.006
 5351W        W 9095   5.877   3.260   8.555
 5352W        W 9096   8.539   4.315   0.299
 5353W        W 9097   8.593   5.193  10.941
 5354W        W 9098   0.269   5.090   9.300
 5355W        W 9099   5.536   6.147   9.222
 5356W        W 9100   9.348   0.030   2.515
 5357W        W 9101   7.147   8.973   1.478
 5358W        W 9102   9.374   4.627   3.367
 5359W        W 9103   5.090   6.048  10.556
 5360W        W 9104   1.403   4.628   1.670
 5361W        W 9105   9.200  10.480   1.193
 5362W        W 9106   0.286   3.185   1.451
 5363W        W 9107   7.010   0.700  11.843
 5364W        W 9108   0.291   3.640   1.205
 5365W        W 9109   0.890   6.527  11.893
 5366W        W 9110   0.503   3.580   0.749
 5367W        W 9111   0.570   9.622  11.263
 5368W        W 9112   3.317   1.803   9.268
 5369W        W 9113   1.424  10.473  10.768
 5370W        W 9114   4.941   1.948   1.485
 5371W        W 9115   4.897   8.074   3.204
 5372W        W 9116   3.213   2.294   9.101
 5373W        W 9117   5.429   5.602  10.495
 5374W        W 9118  10.383   4.011   1.307
 5375W        W 9119   7.572   5.294   0.893
 5376W        W 9120   1.986   6.379  10.289
 5377W        W 9121   6.982   4.724  10.880
 5378W        W 9122   0.800  10.010   1.511
 5379W        W 9123   5.628   3.616   9.466
 5380W        W 9124  10.315   0.348  11.411
 5381W        W 9125   6.480   1.141   1.421
 5382W        W 9126   3.726   8.593   9.468
 5383W        W 9127   6.429   0.912  10.975
 5384W        W 9128   0.989   1.849   0.772
 5385W        W 9129   1.300   2.698   9.813
 5386W        W 9130   6.158   6.446   0.700
 5387W        W 9131   2.798   6.520   1.206
 5388W        W 9132   3.135   3.164   3.586
 5389W        W 9133  10.337   1.287  11.454
 5390W        W 9134   9.158   6.202   0.473
 5391W        W 9135  10.000   1.165   3.051
 5392W        W 9136   8.552   5.228  10.094
 5393W        W 9137   3.741   7.393  11.008
 5394W        W 9138   8.022   0.864  11.746
 5395W        W 9139   8.865   4.044   2.182
 5396W        W 9140   7.976  10.221   3.241
 5397W        W 9141   3.601  10.434   9.799
 5398W        W 9142   0.884   7.200  11.992
 5399W        W 9143   7.446   8.429   9.553
 5400W        W 9144   3.676   4.594   9.769
 5401W        W 9145   9.018   1.354  11.198
 5402W        W 9146   7.639   8.645   2.664
 5403W        W 9147   1.900   6.873   0.960
 5404W        W 9148   3.855   0.386  10.314
 5405W        W 9149   9.126   3.998  10.961
 5406W        W 9150   9.812   9.620  10.285
 5407W        W 9151   5.041   6.025   2.945
 5408W        W 9152   3.713   9.202   0.517
 5409W        W 9153   8.469   7.947   0.479
 5410W        W 9154   9.727   4.646   9.380
 5411W        W 9155   7.520   2.393   2.226
 5412W        W 9156   7.817   4.381  11.325
 5413W        W 9157   8.455   4.744   2.135
 5414W        W 9158   8.954   1.769   2.382
 5415W        W 9159   1.600   4.167   9.446
 5416W        W 9160   5.547   5.353   1.776
 5417W        W 9161   5.435   4.133   0.286
 5418W        W 9162   8.977   1.263  10.698
 5419W        W 9163   3.100   6.897  11.277
 5420W        W 9164   9.797   7.816   2.777
 5421W        W 9165   4.176   3.564   1.167
 5422W        W 9166   1.333   4.808  10.125
 5423W        W 9167   2.337   9.192   0.221
 5424W        W 9168   5.655   2.709   0.439
 5425W        W 9169   3.122   5.180   0.931
 5426W        W 9170   8.781   6.306   0.819
 5427W        W 9171   7.657  10.073   2.857
 5428W        W 9172   1.809   5.473   9.694
 5429W        W 9173   8.755   8.336   3.569
 5430W        W 9174   9.232   0.310  11.941
 5431W        W 9175   4.190   1.248   2.827
 5432W        W 9176   0.744   9.995   0.283
 5433W        W 9177   7.899   0.480   0.507
 5434W        W 9178   1.849  10.389  11.025
 5435W        W 9179   0.377   2.463   2.683
 5436W        W 9180   4.308   5.522   0.929
 5437W        W 9181   5.532   8.842   9.565
 5438W        W 9182   5.634   5.427   8.962
 5439W        W 9183   3.417   4.070   2.279
 5440W        W 9184   6.646   7.877  11.268
 5441W        W 9185   7.797   5.200  10.518
 5442W        W 9186   3.247   9.517   1.156
 5443W        W 9187   1.652   0.235   9.988
 5444W        W 9188   4.942   5.765  11.376
 5445W        W 9189   6.465   8.101   3.280
 5446W        W 9190   2.324   4.633   1.657
 5447W        W 9191  10.002   0.967   0.009
 5448W        W 9192   4.968   7.590  11.590
 5449W        W 9193   5.351   1.676   1.307
 5450W        W 9194   2.812   3.388   1.580
 5451W        W 9195   1.403   0.377  10.418
 5452W        W 9196   4.672   8.088  10.531
 5453W        W 9197   1.610   3.029   0.210
 5454W        W 9198   5.553   8.296  10.875
 5455W        W 9199   7.620   7.423   1.691
 5456W        W 9200   2.690   8.461   2.404
 5457W        W 9201   1.829   2.201   0.963
 5458W        W 9202   3.396   3.820   0.378
 5459W        W 9203   8.495   2.301   9.279
 5460W        W 9204   1.619   1.348  11.327
 5461W        W 9205   3.540   1.811   2.983
 5462W        W 9206   1.171   9.511  10.415
 5463W        W 9207   1.774   0.183   8.614
 5464W        W 9208   0.177   9.209  10.457
 5465W        W 9209   3.894  10.413   2.705
 5466W        W 9210   4.394   7.628   2.755
 5467W        W 9211   0.712   3.310   1.164
 5468W        W 9212   3.626   5.696   1.746
 5469W        W 9213   4.101   9.377   9.335
 5470W        W 9214   4.073   7.514  10.628
 5471W        W 9215   1.941   1.364   3.439
 5472W        W 9216   5.002  10.000   3.453
 5473W        W 9217   0.211   7.413   2.325
 5474W        W 9218   1.800   5.475   2.196
 5475W        W 9219   4.662   0.659   9.044
 5476W        W 9220   0.533   3.801   3.089
 5477W        W 9221   4.326   5.131   9.532
 5478W        W 9222   1.886   2.874   8.321
 5479W        W 9223   8.184   5.035  11.798
 5480W        W 9224   8.042   8.639   0.769
 5481W        W 9225   3.242   7.369  10.348
 5482W        W 9226   7.114   0.793   3.061
 5483W        W 9227   0.701   3.089  10.913
 5484W        W 9228  10.463   9.434   1.981
 5485W        W 9229   6.145   9.101   3.429
 5486W        W 9230   1.067   0.439   9.156
 5487W        W 9231   6.171   6.175   2.048
 5488W        W 9232   4.089   9.697   3.349
 5489W        W 9233   6.989   4.603   3.752
 5490W        W 9234   9.235   3.401   9.787
 5491W        W 9235   4.565   4.163  10.893
 5492W        W 9236   5.047   2.383   9.482
 5493W        W 9237   1.212   4.227  11.036
 5494W        W 9238   8.576   6.737   8.579
 5495W        W 9239   9.326   0.882   8.932
 5496W        W 9240   8.858   1.758   8.830
 5497W        W 9241   5.073   6.101   9.535
 5498W        W 9242   6.125   1.958   0.242
 5499W        W 9243   0.837   6.352   2.965
 5500W        W 9244   4.208   3.594  11.723
 5501W        W 9245   3.240   6.166   8.521
 5502W        W 9246   0.676   8.888   9.092
 5503W        W 9247   6.302   1.450   8.376
 5504W        W 9248   4.569   9.270   0.451
 5505W        W 9249   0.966   1.763   0.119
 5506W        W 9250  10.432   4.503   2.654
 5507W        W 9251   8.614   7.550   0.837
 5508W        W 9252   9.339   1.549   9.565
 5509W        W 9253   9.884   1.333  11.191
 5510W        W 9254   4.275   3.102   2.743
 5511W        W 9255   2.874   2.165  10.340
 5512W        W 9256   4.278   5.223   1.426
 5513W        W 9257   7.597   8.808   0.581
 5514W        W 9258   4.756   1.715  10.367
 5515W        W 9259   6.160   7.567   8.062
 5516W        W 9260   9.287   6.245   0.954
 5517W        W 9261   8.482   6.056   2.670
 5518W        W 9262   3.224   7.132   1.155
 5519W        W 9263   2.807   9.758   2.272
 5520W        W 9264   9.452   3.547   2.526
 5521W        W 9265   6.429   2.304  10.979
 5522W        W 9266   6.159   9.682  11.829
 5523W        W 9267   6.465   2.164  11.461
 5524W        W 9268   5.950   4.671  11.725
 5525W        W 9269   7.196   6.739   8.387
 5526W        W 9270   7.127   1.955  11.505
 5527W        W 9271   1.483   7.910   1.932
 5528W        W 9272   9.070   7.008  11.735
 5529W        W 9273   9.182   2.224  10.940
 5530W        W 9274   0.437   6.929  11.881
 5531W        W 9275   7.468   8.028   2.278
 5532W        W 9276   1.204   9.989   0.504
 5533W        W 9277   0.448   7.647   1.880
 5534W        W 9278   3.369   3.652  10.881
 5535W        W 9279   5.753  10.302  11.006
 5536W        W 9280   2.644   8.823  11.961
 5537W        W 9281   1.311   0.965   2.658
 5538W        W 9282   4.612  10.367   3.393
 5539W        W 9283   9.109   8.870  11.062
 5540W        W 9284   2.196   2.531   9.229
 5541W        W 9285   9.418   8.190   3.077
 5542W        W 9286   6.421   5.365  10.396
 5543W        W 9287   6.560   1.736   0.381
 5544W        W 9288   3.267   2.361  10.643
 5545W        W 9289   5.675   8.351   9.954
 5546W        W 9290   7.473   1.513   2.672
 5547W        W 9291   7.900   7.993  10.245
 5548W        W 9292  10.235   2.746   9.334
 5549W        W 9293   1.661   5.055  10.963
 5550W        W 9294   7.184   9.723   3.772
 5551W        W 9295   1.274   4.186   0.927
 5552W        W 9296   9.764   2.810   9.549
 5553W        W 9297   0.851   0.433   1.438
 5554W        W 9298   6.489   0.757   8.825
 5555W        W 9299   4.759  10.096   1.701
 5556W        W 9300   7.507   9.020   3.518
 5557W        W 9301   9.265   1.275   3.424
 5558W        W 9302   8.038   8.014   2.273
 5559W        W 9303   5.599   2.648   2.446
 5560W        W 9304   1.961   9.103   3.361
 5561W        W 9305   7.159   9.742  11.954
 5562W        W 9306   0.688   0.056  11.436
 5563W        W 9307   8.513   3.217   1.407
 5564W        W 9308   9.018   6.050  11.465
 5565W        W 9309   8.316   2.431  10.770
 5566W        W 9310   3.271   7.309   0.206
 5567W        W 9311   8.307   7.122   0.726
 5568W        W 9312   4.213   0.354   1.728
 5569W        W 9313   0.806   4.751   1.490
 5570W        W 9314   0.879  10.250   8.588
 5571W        W 9315   3.422  10.011   0.964
 5572W        W 9316   5.630   4.115   1.221
 5573W        W 9317   7.372   3.156  10.689
 5574W        W 9318   3.655   3.552   2.456
 5575W        W 9319   8.047   9.754   3.472
 5576W        W 9320   9.863   4.703   2.407
 5577W        W 9321   6.525   6.089   0.680
 5578W        W 9322   9.981   4.481  10.981
 5579W        W 9323  10.319   6.113  11.201
 5580W        W 9324   4.190   0.875   8.955
 5581W        W 9325   1.829   7.373   0.919
 5582W        W 9326   4.265   9.498   1.048
 5583W        W 9327   0.875   2.265  11.977
 5584W        W 9328   5.615   7.230   2.802
 5585W        W 9329   4.719   6.468  10.818
 5586W        W 9330   5.557   2.689  11.394
 5587W        W 9331   7.481   8.958   1.052
 5588W        W 9332   2.816   9.070   0.382
 5589W        W 9333   8.089   4.203   3.169
 5590W        W 9334   8.085   5.113   2.604
 5591W        W 9335   6.560   2.659  11.367
 5592W        W 9336   8.086   4.983   1.586
 5593W        W 9337   1.351   1.684   1.183
 5594W        W 9338   9.716   2.252   2.246
 5595W        W 9339   8.360   2.423  10.272
 5596W        W 9340   3.718   0.435   9.832
 5597W        W 9341   8.800   3.134   2.432
 5598W        W 9342   4.004   9.442   8.421
 5599W        W 9343   7.532   1.869   2.147
 5600W        W 9344   8.931   2.637   0.243
 5601W        W 9345   7.042   6.930  11.714
 5602W        W 9346   5.063   2.373  10.474
 5603W        W 9347   6.018   7.926   2.383
 5604W        W 9348   0.038   2.406   0.950
 5605W        W 9349   6.254   4.655   1.557
 5606W        W 9350   2.414   3.442   2.929
 5607W        W 9351   1.982   4.575   3.317
 5608W        W 9352   7.676   6.456   3.422
 5609W        W 9353   7.089  10.192  10.920
 5610W        W 9354   2.215  10.297   9.261
 5611W        W 9355   7.903   0.264   9.527
 5612W        W 9356   2.927   8.566   3.346
 5613W        W 9357   3.123   0.678  10.929
 5614W        W 9358   2.413  10.246   1.683
 5615W        W 9359   8.582   9.332   9.060
 5616W        W 9360   0.721  10.078  11.338
 5617W        W 9361   7.601   2.818  10.378
 5618W        W 9362   8.545   6.453   9.565
 5619W        W 9363   6.948  10.420   1.215
 5620W        W 9364   4.545   0.322  11.034
 5621W        W 9365   0.365   4.507   1.422
 5622W        W 9366   0.722  10.245  11.836
 5623W        W 9367   2.746   8.575   9.189
 5624W        W 9368   3.048   4.222   0.320
 5625W        W 9369   4.599   0.095   1.530
 5626W        W 9370   0.424   9.365   1.775
 5627W        W 9371   0.991   4.647   9.187
 5628W        W 9372  10.198   2.238  10.654
 5629W        W 9373   7.028   9.896  10.000
 5630W        W 9374   4.629   7.209  11.595
 5631W        W 9375   5.534   3.094  10.668
 5632W        W 9376  10.305   1.576   1.338
 5633W        W 9377   4.095   2.609   0.974
 5634W        W 9378   0.935   2.196   3.235
 5635W        W 9379   1.755   0.738  11.400
 5636W        W 9380   3.184   8.690  11.929
 5637W        W 9381   5.840   8.074   4.076
 5638W        W 9382   8.461   8.492   1.255
 5639W        W 9383   8.632   5.289  11.802
 5640W        W 9384   2.281   4.545  11.690
 5641W        W 9385   9.359   4.203  10.464
 5642W        W 9386   2.407   2.936   8.459
 5643W        W 9387   5.572   7.523   9.362
 5644W        W 9388   6.533   3.414   1.016
 5645W        W 9389   8.049   1.644   9.779
 5646W        W 9390   3.247   3.232   1.791
 5647W        W 9391   4.814  10.331   0.714
 5648W        W 9392   1.780   4.696   0.928
 5649W        W 9393   2.617   4.341   2.855
 5650W        W 9394   1.389   1.941   8.877
 5651W        W 9395   4.734   0.430   2.433
 5652W        W 9396   5.733   5.984   3.170
 5653W        W 9397   1.749   4.345  11.775
 5654W        W 9398   4.706   8.020  11.090
 5655W        W 9399   0.861   5.699  10.218
 5656W        W 9400   0.454  10.210  10.390
 5657W        W 9401   2.346   6.984   1.719
 5658W        W 9402   9.773   8.589  10.429
 5659W        W 9403   3.851  10.035   1.654
 5660W        W 9404   5.129   2.564   2.734
 5661W        W 9405   5.197   1.637   8.728
 5662W        W 9406   8.685   0.492   3.170
 5663W        W 9407   7.000   1.211   1.945
 5664W        W 9408   9.103   2.194  11.983
 5665W        W 9409   2.295   9.445   2.247
 5666W        W 9410   3.385   0.929   8.706
 5667W        W 9411   5.297   8.474   1.495
 5668W        W 9412   2.485   6.139   0.481
 5669W        W 9413   3.102   0.792  11.900
 5670W        W 9414   7.450   0.660  11.365
 5671W        W 9415   0.540   6.032   2.201
 5672W        W 9416   7.345   6.128   3.207
 5673W        W 9417   5.632   4.091  10.973
 5674W        W 9418   4.362   8.560   1.320
 5675W        W 9419  10.364   7.024  11.245
 5676W        W 9420   5.903   7.073  10.464
 5677W        W 9421   5.009   8.006   0.808
 5678W        W 9422   6.453   3.641   9.902
 5679W        W 9423   1.705   3.601   9.353
 5680W        W 9424   2.770   1.892   0.436
 5681W        W 9425   2.902   6.939   9.406
 5682W        W 9426   0.876   6.631   8.955
 5683W        W 9427   7.967   2.637   2.350
 5684W        W 9428   4.106   2.617   2.826
 5685W        W 9429   0.929   6.175   2.477
 5686W        W 9430  10.284   7.909   0.404
 5687W        W 9431   8.374   0.102   3.182
 5688W        W 9432  10.468   0.795   3.397
 5689W        W 9433   3.475   0.513   3.540
 5690W        W 9434   4.631   4.104   7.864
 5691W        W 9435   7.353   6.555   0.356
 5692W        W 9436   3.242  10.010   2.893
 5693W        W 9437   6.948   9.870   2.680
 5694W        W 9438   7.718   1.841   2.968
 5695W        W 9439  10.434   8.883   9.675
 5696W        W 9440   3.824   2.765  10.559
 5697W        W 9441   9.378   9.110   0.015
 5698W        W 9442   0.059   2.638   8.640
 5699W        W 9443   8.867   5.797   0.327
 5700W        W 9444   5.016   0.840   2.638
 5701W        W 9445   6.614   6.457   1.818
 5702W        W 9446   8.957   7.439   1.573
 5703W        W 9447   5.375   2.741   3.391
 5704W        W 9448  10.042   0.939   9.581
 5705W        W 9449   2.399   5.727   3.196
 5706W        W 9450   6.460   1.129   1.942
 5707W        W 9451   2.703   8.387   2.915
 5708W        W 9452   7.867   7.437  11.531
 5709W        W 9453   6.163   2.056   2.768
 5710W        W 9454   4.161   7.122   1.487
 5711W        W 9455   8.884   8.883   3.335
 5712W        W 9456   3.264   2.767   2.549
 5713W        W 9457   2.935   0.926   8.424
 5714W        W 9458   9.314   3.028   9.400
 5715W        W 9459   8.825   7.522   3.064
 5716W        W 9460   5.155   5.232   9.054
 5717W        W 9461   9.742   5.599  11.692
 5718W        W 9462  10.144   2.068   3.165
 5719W        W 9463  10.448   2.721   2.579
 5720W        W 9464   6.439   6.052  10.874
 5721W        W 9465   7.312   9.976   8.556
 5722W        W 9466   8.594   4.507   0.792
 5723W        W 9467   4.212   3.124   0.889
 5724W        W 9468   4.385   9.453   2.820
 5725W        W 9469   6.147   8.576   3.394
 5726W        W 9470   7.416  10.381   8.839
 5727W        W 9471   9.394   7.939   0.975
 5728W        W 9472   4.764   4.541   9.047
 5729W        W 9473   2.870   6.687  10.311
 5730W        W 9474   3.555   2.384   0.490
 5731W        W 9475   1.411   8.623   0.125
 5732W        W 9476  10.035   6.478   0.130
 5733W        W 9477   6.219  10.017  10.865
 5734W        W 9478   1.736   8.336   3.603
 5735W        W 9479   4.583   9.070   1.334
 5736W        W 9480   9.031   9.092   0.433
 5737W        W 9481   7.383   3.252   1.332
 5738W        W 9482   5.947   2.607   9.397
 5739W        W 9483   3.620   6.215   8.892
 5740W        W 9484   8.019   2.866   9.743
 5741W        W 9485   0.244   3.042  11.418
 5742W        W 9486   2.088   3.434  10.123
 5743W        W 9487   0.877   2.363  11.442
 5744W        W 9488   1.825   3.363   1.034
 5745W        W 9489   1.746   4.142   1.122
 5746W        W 9490   9.734   4.256   2.154
 5747W        W 9491   0.867   0.444   3.229
 5748W        W 9492   2.684   5.869   8.579
 5749W        W 9493   6.138   1.747   8.786
 5750W        W 9494   9.460   5.465   8.874
 5751W        W 9495   4.091   0.914   2.407
 5752W        W 9496   2.405   4.274   2.387
 5753W        W 9497   8.911   9.950   9.539
 5754W        W 9498   8.713   2.359  11.068
 5755W        W 9499   6.007   3.873   9.269
 5756W        W 9500   1.579   0.745   3.110
 5757W        W 9501   1.439   4.621   2.195
 5758W        W 9502   2.264   2.326  10.649
 5759W        W 9503   6.155   9.382  10.020
 5760W        W 9504   8.984   8.869   2.283
 5761W        W 9505   9.395   7.300  11.489
 5762W        W 9506   1.150   7.969   9.983
 5763W        W 9507   9.283   5.050   0.747
 5764W        W 9508   3.719   3.649   0.904
 5765W        W 9509   9.925   9.530   2.139
 5766W        W 9510   9.572   4.800   3.822
 5767W        W 9511   6.904   6.550   3.775
 5768W        W 9512   9.504   4.801   2.807
 5769W        W 9513   3.356   3.206   9.584
 5770W        W 9514   7.445   2.314   3.063
 5771W        W 9515   4.085   8.225  11.771
 5772W        W 9516   8.964   7.491   8.868
 5773W        W 9517   2.500   0.717  10.097
 5774W        W 9518   9.441   9.093   2.821
 5775W        W 9519   0.234   9.543   2.801
 5776W        W 9520   8.393   6.244  10.022
 5777W        W 9521  10.014   4.516   8.989
 5778W        W 9522   8.393   6.980   1.892
 5779W        W 9523  10.279   4.085   1.884
 5780W        W 9524   1.800   0.799   2.651
 5781W        W 9525   1.039   9.990   1.011
 5782W        W 9526   5.799   0.325   9.718
 5783W        W 9527   3.565   2.161   2.611
 5784W        W 9528   2.361   6.242   1.299
 5785W        W 9529   2.313   3.011   9.350
 5786W        W 9530   9.740   7.672  10.626
 5787W        W 9531   4.616   1.358   1.584
 5788W        W 9532   2.420   9.350  10.747
 5789W        W 9533   9.366   5.849   2.745
 5790W        W 9534   9.451   0.296   1.539
 5791W        W 9535   5.921   6.901   0.755
 5792W        W 9536   7.568   4.577   8.587
 5793W        W 9537   3.126   7.042   9.978
 5794W        W 9538   1.835   9.423   1.978
 5795W        W 9539   5.580   9.922   2.205
 5796W        W 9540   9.098   7.208   0.199
 5797W        W 9541   5.115   5.583   2.669
 5798W        W 9542   6.539   0.291  10.468
 5799W        W 9543   2.274   4.966  10.324
 5800W        W 9544   8.507   8.411   0.722
 5801W        W 9545   9.857   2.660   0.384
 5802W        W 9546   9.571   0.781   1.392
 5803W        W 9547   8.346   0.485  11.787
 5804W        W 9548   7.548   0.577  10.430
 5805W        W 9549   8.157   7.943   9.319
 5806W        W 9550   2.258   0.180  10.911
 5807W        W 9551   2.325   1.592   2.182
 5808W        W 9552   1.836   9.594   3.481
 5809W        W 9553   1.161   9.060  10.683
 5810W        W 9554   6.479   7.800  10.313
 5811W        W 9555   3.628   5.140   0.220
 5812W        W 9556   8.056   6.944  10.813
 5813W        W 9557   6.507   3.240   9.109
 5814W        W 9558   9.063   4.146   8.618
 5815W        W 9559   4.177   5.737   2.327
 5816W        W 9560   0.730   7.486   3.182
 5817W        W 9561   0.690   2.126   0.448
 5818W        W 9562   7.591   1.840   1.147
 5819W        W 9563   3.300   4.177   3.584
 5820W        W 9564   5.951   8.028   8.345
 5821W        W 9565   9.600   5.061  10.048
 5822W        W 9566   8.677   5.824   3.564
 5823W        W 9567   4.889   9.507   9.961
 5824W        W 9568   9.747   3.357  10.190
 5825W        W 9569   4.451   1.840   1.376
 5826W        W 9570   4.288   0.677  11.326
 5827W        W 9571   4.120   7.727  11.842
 5828W        W 9572   2.587   1.707   9.450
 5829W        W 9573   8.095   4.661   9.436
 5830W        W 9574   0.490   5.553   2.417
 5831W        W 9575   6.435   7.421  11.743
 5832W        W 9576   3.289   9.520   3.115
 5833W        W 9577   0.849   8.339   9.060
 5834W        W 9578   8.471   9.901   1.030
 5835W        W 9579   9.073   5.031  11.837
 5836W        W 9580   8.163   4.240   9.104
 5837W        W 9581   3.485   8.436  10.029
 5838W        W 9582   9.428   5.841   9.544
 5839W        W 9583   9.605   9.379   1.442
 5840W        W 9584   6.050   3.045   2.818
 5841W        W 9585   5.763   7.842  11.770
 5842W        W 9586   1.436   3.246  11.342
 5843W        W 9587   9.139   6.629   2.144
 5844W        W 9588   5.219   1.896   0.266
 5845W        W 9589   0.716   4.272   2.741
 5846W        W 9590  10.170   9.077  10.936
 5847W        W 9591   0.373   0.331   9.553
 5848W        W 9592   3.220   7.185   2.633
 5849W        W 9593   7.851   6.922   1.912
 5850W        W 9594   9.137   0.275   3.324
 5851W        W 9595   8.937   3.630   2.489
 5852W        W 9596   4.095   0.939   9.479
 5853W        W 9597   4.479   7.193  10.511
 5854W        W 9598   3.338   3.604  11.893
 5855W        W 9599   2.759   9.924   2.772
 5856W        W 9600   3.665   9.856   3.143
 5857W        W 9601   6.414   9.590   8.822
 5858W        W 9602   3.142   9.771   0.288
 5859W        W 9603   0.201   8.048   1.706
 5860W        W 9604   4.375   5.730   2.793
 5861W        W 9605   6.236   1.434   3.633
 5862W        W 9606   1.843   7.843  10.465
 5863W        W 9607   9.353   2.502   9.387
 5864W        W 9608   8.033   7.598   8.573
 5865W        W 9609   2.671   6.376   4.133
 5866W        W 9610   5.463   5.513   2.265
 5867W        W 9611   6.021  10.173   3.654
 5868W        W 9612   3.180   9.390   2.149
 5869W        W 9613   0.250   5.433  11.822
 5870W        W 9614   0.013   2.722   3.569
 5871W        W 9615   5.431  10.378   2.434
 5872W        W 9616   1.034   0.905   2.233
 5873W        W 9617   0.823   3.574   9.871
 5874W        W 9618   8.299   1.376   2.220
 5875W        W 9619   3.801   4.135   3.252
 5876W        W 9620   8.779  10.343   1.432
 5877W        W 9621   4.069   6.233   2.404
 5878W        W 9622   7.511   3.134   8.678
 5879W        W 9623   4.135   4.134   8.665
 5880W        W 9624   6.925   8.949  10.964
 5881W        W 9625   5.467   2.661   9.637
 5882W        W 9626   3.236   9.348   9.533
 5883W        W 9627   8.904   7.933  11.160
 5884W        W 9628   6.464   5.170   9.861
 5885W        W 9629   1.192  10.031   2.355
 5886W        W 9630   1.173   6.688   9.374
 5887W        W 9631   6.478   7.540   9.534
 5888W        W 9632   8.542   3.040   0.895
 5889W        W 9633   7.391   5.002  10.737
 5890W        W 9634  10.103   2.422   3.527
 5891W        W 9635   3.246   7.140   3.350
 5892W        W 9636   7.118   4.714   2.904
 5893W        W 9637  10.294   6.562   0.558
 5894W        W 9638   0.333   8.475   0.867
 5895W        W 9639   2.026   8.718   3.685
 5896W        W 9640   6.997   7.486   2.876
 5897W        W 9641   6.079  10.071   2.059
 5898W        W 9642   1.675   8.997  11.878
 5899W        W 9643   4.813   6.975  10.835
 5900W        W 9644   0.559   3.134  10.011
 5901W        W 9645   0.257   8.532   1.845
 5902W        W 9646   5.126   3.692  11.659
 5903W        W 9647   5.651   2.837  11.869
 5904W        W 9648   2.260   6.020  11.270
 5905W        W 9649   4.720   5.539  10.733
 5906W        W 9650   4.271   3.356   0.188
 5907W        W 9651   5.457   9.595   9.319
 5908W        W 9652   3.874   5.269   1.726
 5909W        W 9653   4.156   7.453   3.596
 5910W        W 9654   4.147   7.895   9.214
 5911W        W 9655   0.831   1.880  11.635
 5912W        W 9656   5.546   2.903  10.110
 5913W        W 9657   3.491   2.190  11.866
 5914W        W 9658   9.100   7.180   9.901
 5915W        W 9659   3.843   7.102   9.366
 5916W        W 9660   6.727   8.005   1.547
 5917W        W 9661   6.168   9.368   0.831
 5918W        W 9662   0.992   7.453   0.408
 5919W        W 9663   8.609   8.667   0.291
 5920W        W 9664   2.675  10.417   0.096
 5921W        W 9665   8.806   3.275  10.562
 5922W        W 9666   1.247   7.734  11.803
 5923W        W 9667   7.378   5.576   2.652
 5924W        W 9668   8.378  10.220   9.798
 5925W        W 9669   6.739  10.463   3.029
 5926W        W 9670   5.581   9.134   9.160
 5927W        W 9671   3.964   0.607   3.416
 5928W        W 9672   2.075   1.130  11.317
 5929W        W 9673   3.919  10.243   0.818
 5930W        W 9674   6.804   7.933   9.405
 5931W        W 9675   8.823   5.032  11.393
 5932W        W 9676   6.111   0.847   2.295
 5933W        W 9677  10.441   3.703   2.684
 5934W        W 9678  10.047   0.949   2.252
 5935W        W 9679   9.336   1.687   8.653
 5936W        W 9680   2.741   4.099   8.950
 5937W        W 9681   2.812   5.091   0.489
 5938W        W 9682   0.848   3.159  10.431
 5939W        W 9683   8.942   6.430  10.704
 5940W        W 9684   4.748   8.979   3.401
 5941W        W 9685   0.845   2.309  10.514
 5942W        W 9686   0.924   9.778   2.980
 5943W        W 9687   7.543  10.478  10.851
 5944W        W 9688   2.573   0.813   1.012
 5945W        W 9689   0.933   8.898   2.942
 5946W        W 9690   1.855   7.403   3.013
 5947W        W 9691  10.371   0.386   9.339
 5948W        W 9692   2.842   0.355  10.313
 5949W        W 9693   8.912   9.784   2.658
 5950W        W 9694   6.110   8.452   9.025
 5951W        W 9695   5.579   5.362  11.371
 5952W        W 9696   2.259   2.381   8.723
 5953W        W 9697   0.423  10.467   9.931
 5954W        W 9698   2.828   3.169   9.408
 5955W        W 9699   5.052   1.815  11.263
 5956W        W 9700   5.755   5.552  11.815
 5957W        W 9701   2.240   0.267   2.317
 5958W        W 9702   7.497   6.586   2.970
 5959W        W 9703   5.209   9.210  10.218
 5960W        W 9704   5.560   5.578   9.451
 5961W        W 9705   6.967   8.422  11.456
 5962W        W 9706   7.048   1.668   9.012
 5963W        W 9707   5.618   1.239   9.771
 5964W        W 9708   2.342   6.913  11.983
 5965W        W 9709   7.529   9.409  11.925
 5966W        W 9710   0.958   3.554   3.252
 5967W        W 9711   4.030   3.570  10.018
 5968W        W 9712   3.674   5.150  10.227
 5969W        W 9713   8.871   9.447   0.820
 5970W        W 9714   4.984   8.141   9.278
 5971W        W 9715   0.924   5.577  10.705
 5972W        W 9716   1.863   6.527  10.764
 5973W        W 9717   9.791   7.665   1.314
 5974W        W 9718   6.597   7.249   9.128
 5975W        W 9719   2.662   5.148  11.989
 5976W        W 9720   7.538   7.554   8.428
 5977W        W 9721   3.555   0.002   0.214
 5978W        W 9722  10.264   8.663  11.838
 5979W        W 9723   4.243   7.197   1.008
 5980W        W 9724   0.946   3.323  11.280
 5981W        W 9725   2.135   4.939   1.298
 5982W        W 9726   4.292   8.823   8.908
 5983W        W 9727   9.549   2.191  11.282
 5984W        W 9728   1.833   5.989   2.055
 5985W        W 9729   5.606  10.038   9.106
 5986W        W 9730   0.196   8.299  10.422
 5987W        W 9731   0.768   7.399  11.521
 5988W        W 9732   9.219   2.184   2.210
 5989W        W 9733   8.576   1.965  10.153
 5990W        W 9734   7.902   1.410   1.476
 5991W        W 9735   3.368   4.709   2.715
 5992W        W 9736   7.865   7.075  11.888
 5993W        W 9737   8.610   3.876   0.568
 5994W        W 9738   5.552   5.834   1.576
 5995W        W 9739   0.458   6.677   0.857
 5996W        W 9740   6.080   4.786   9.834
 5997W        W 9741   6.418   7.014   9.573
 5998W        W 9742   8.825   3.666   9.557
 5999W        W 9743   7.130   3.635   1.560
 6000W        W 9744   2.494   0.723   2.415
 6001W        W 9745   9.887   8.725   2.516
 6002W        W 9746   8.738   8.386  10.361
 6003W        W 9747   4.086   5.575   0.061
 6004W        W 9748   1.375   0.873   9.022
 6005W        W 9749   8.313   3.268   2.437
 6006W        W 9750   2.737   2.660   2.778
 6007W        W 9751   4.718   8.485   3.573
 6008W        W 9752   4.783   2.117  10.040
 6009W        W 9753   9.932   7.469   0.387
 6010W        W 9754   7.538  10.018   3.394
 6011W        W 9755   0.670  10.431   1.271
 6012W        W 9756   3.941   4.771   9.359
 6013W        W 9757   0.732   5.421   1.304
 6014W        W 9758   0.300   3.840   0.361
 6015W        W 9759   6.612   1.005   0.826
 6016W        W 9760   9.520   9.425  11.550
 6017W        W 9761   7.447   9.083  10.878
 6018W        W 9762   3.335   6.086   0.242
 6019W        W 9763   8.939   1.268   9.785
 6020W        W 9764   3.237   0.170  10.883
 6021W        W 9765   4.689   4.978   1.631
 6022W        W 9766   0.445   5.736   0.992
 6023W        W 9767   4.933   8.886  11.039
 6024W        W 9768   9.994   6.891   9.894
 6025W        W 9769   8.575   7.786  11.987
 6026W        W 9770   5.818   4.336   9.993
 6027W        W 9771   8.102   4.255  10.916
 6028W        W 9772   0.384   8.985   3.482
 6029W        W 9773  10.240   2.273  10.138
 6030W        W 9774   0.916   9.042   0.479
 6031W        W 9775   8.395   8.971   1.489
 6032W        W 9776   3.939   4.516   1.044
 6033W        W 9777   1.174   1.815   3.479
 6034W        W 9778  10.250   3.695   0.493
 6035W        W 9779   6.810   0.794   1.232
 6036W        W 9780   3.029   1.697   0.829
 6037W        W 9781   4.299   8.704   3.302
 6038W        W 9782   3.084   9.218  10.041
 6039W        W 9783   0.093   5.537   8.512
 6040W        W 9784   1.541   3.385  11.843
 6041W        W 9785   7.570   1.287   8.999
 6042W        W 9786   5.212   3.582  10.731
 6043W        W 9787   4.814   3.722  11.015
 6044W        W 9788   1.034   5.859   1.246
 6045W        W 9789   1.947   1.749   3.791
 6046W        W 9790   7.875   5.615   2.636
 6047W        W 9791   1.338   6.001  11.351
 6048W        W 9792   0.663   3.867   3.572
 6049W        W 9793   0.968   3.338   0.717
 6050W        W 9794   5.249   8.428   0.971
 6051W        W 9795   4.407   1.154  11.477
 6052W        W 9796   3.107   3.986   0.773
 6053W        W 9797   2.781   8.955   1.651
 6054W        W 9798   0.353   1.076   0.986
 6055W        W 9799   7.636   6.839   9.982
 6056W        W 9800   6.925   3.767   8.539
 6057W        W 9801   8.331   7.568   3.213
 6058W        W 9802   5.697   9.192   2.634
 6059W        W 9803   1.116   0.032   0.992
 6060W        W 9804   0.042   1.141   1.385
 6061W        W 9805   0.689   5.228  10.387
 6062W        W 9806   6.220   5.597  10.839
 6063W        W 9807   3.153   9.171  10.909
 6064W        W 9808   9.155   6.913  11.244
 6065W        W 9809   9.847  10.436   2.254
 6066W        W 9810   3.192   7.089   8.565
 6067W        W 9811   4.979   6.624   9.434
 6068W        W 9812  10.148   4.099   2.397
 6069W        W 9813   0.080   3.705   1.674
 6070W        W 9814   7.878   7.340   3.235
 6071W        W 9815   1.301   6.414   3.210
 6072W        W 9816   0.880   4.446   0.697
 6073W        W 9817   7.974   2.142   3.295
 6074W        W 9818   7.717   7.937   8.847
 6075W        W 9819   3.634   8.067   1.199
 6076W        W 9820   7.658   5.241   2.342
 6077W        W 9821   6.114   2.327   3.180
 6078W        W 9822   2.437   2.455  10.189
 6079W        W 9823   8.585   7.290   9.983
 6080W        W 9824   4.551   8.043   9.498
 6081W        W 9825   3.631   4.055  11.966
 6082W        W 9826   2.613   2.773  11.133
 6083W        W 9827   3.390   4.149   9.840
 6084W        W 9828   0.398   8.130  11.277
 6085W        W 9829   6.629   4.320   1.451
 6086W        W 9830   3.055   6.773   1.601
 6087W        W 9831   1.216   9.901  10.071
 6088W        W 9832   0.783   1.397   8.529
 6089W        W 9833   1.498  10.228   0.867
 6090W        W 9834   8.918   4.838   1.038
 6091W        W 9835   5.300   4.294   9.856
 6092W        W 9836   4.601   2.259   0.587
 6093W        W 9837   3.149   6.562   3.313
 6094W        W 9838   8.929   2.238   9.580
 6095W        W 9839  10.167   1.722  10.978
 6096W        W 9840   1.278   7.414   3.591
 6097W        W 9841   8.364   4.200  10.477
 6098W        W 9842   0.469  10.017   9.086
 6099W        W 9843   6.197   7.648  10.829
 6100W        W 9844   0.268   7.541   9.106
 6101W        W 9845   6.220   7.831   2.853
 6102W        W 9846   8.841   1.785   0.173
 6103W        W 9847   2.600   5.073   0.994
 6104W        W 9848   8.846   6.245   2.330
 6105W        W 9849   2.680   7.172  11.160
 6106W        W 9850   4.523   0.661   1.433
 6107W        W 9851   1.923   4.649  10.705
 6108W        W 9852   0.792   5.077   3.266
 6109W        W 9853   9.320   4.103   3.398
 6110W        W 9854   0.914   5.652   0.785
 6111W        W 9855   8.617   2.719   2.707
 6112W        W 9856   1.657   6.464   1.952
 6113W        W 9857   3.743   6.595   0.372
 6114W        W 9858   8.850   4.286   3.214
 6115W        W 9859   2.384   3.374   1.315
 6116W        W 9860   7.596   9.610   3.045
 6117W        W 9861   9.621   9.599   3.483
 6118W        W 9862   6.593  10.018   9.755
 6119W        W 9863   3.119   4.087  11.813
 6120W        W 9864   8.892   0.994   1.720
 6121W        W 9865   7.845  10.324   2.287
 6122W        W 9866   6.203   0.257   2.991
 6123W        W 9867   5.954   3.183   3.664
 6124W        W 9868   9.949   0.793   0.485
 6125W        W 9869   3.327   8.858   9.780
 6126W        W 9870   7.577   9.943   2.046
 6127W        W 9871   8.788   2.198   0.981
 6128W        W 9872   0.409   8.472   9.973
 6129W        W 9873   3.236   3.601  11.392
 6130W        W 9874   1.415   4.666  10.640
 6131W        W 9875   3.865   1.830   1.264
 6132W        W 9876   5.896   3.689   3.795
 6133W        W 9877   1.337   5.081   0.239
 6134W        W 9878   1.326   3.308   9.072
 6135W        W 9879   7.572   7.490   0.792
 6136W        W 9880   3.838   4.449   2.221
 6137W        W 9881   6.186   7.693   3.486
 6138W        W 9882   6.578   9.476   0.162
 6139W        W 9883   8.072   0.724  10.202
 6140W        W 9884   4.168   7.665  11.098
 6141W        W 9885   6.644   0.703   1.721
 6142W        W 9886   7.709   8.666   0.097
 6143W        W 9887   7.469   8.397   9.036
 6144W        W 9888   8.463   2.840   3.214
 6145W        W 9889   9.308   5.724  11.149
 6146W        W 9890   3.748   4.360   9.055
 6147W        W 9891   3.315   8.510   2.274
 6148W        W 9892   1.800   8.964   1.745
 6149W        W 9893   9.809   8.989   8.907
 6150W        W 9894   5.607   0.596   0.823
 6151W        W 9895   3.719   8.361   0.770
 6152W        W 9896   8.479   2.377   9.783
 6153W        W 9897   2.316   9.774  11.040
 6154W        W 9898   8.597   1.186  11.403
 6155W        W 9899   4.012   0.770   2.909
 6156W        W 9900   6.909   7.483   0.212
 6157W        W 9901   6.543   8.321  11.867
 6158W        W 9902   4.128   4.145   2.839
 6159W        W 9903   3.319   4.574   2.172
 6160W        W 9904   7.331  10.272   2.374
 6161W        W 9905   6.025   6.680   0.271
 6162W        W 9906   3.382   4.502   9.375
 6163W        W 9907   6.539   1.689   9.150
 6164W        W 9908   5.754   5.946   0.727
 6165W        W 9909   0.272   3.373   2.974
 6166W        W 9910   9.985   1.744   0.954
 6167W        W 9911   8.430   1.378   3.220
 6168W        W 9912   6.716   0.750  10.261
 6169W        W 9913   8.835   9.377   3.487
 6170W        W 9914   4.896   2.674   3.177
 6171W        W 9915   0.511   9.563   0.201
 6172W        W 9916   4.811   2.805   1.442
 6173W        W 9917   7.588   3.754   3.395
 6174W        W 9918   6.088   0.713  11.788
 6175W        W 9919   5.953   9.380   2.219
 6176W        W 9920   8.762   2.275  10.567
 6177W        W 9921   7.604   4.097  10.880
 6178W        W 9922   9.019   8.437  11.341
 6179W        W 9923   7.433   6.159   2.241
 6180W        W 9924   2.566   7.474   1.455
 6181W        W 9925   5.266   6.483   0.679
 6182W        W 9926   1.609   9.885  11.540
 6183W        W 9927   0.893   7.559   9.794
 6184W        W 9928  10.021   5.345   0.037
 6185W        W 9929  10.315   2.327   0.025
 6186W        W 9930   6.858   6.137  10.084
 6187W        W 9931   2.469  10.381   0.746
 6188W        W 9932   3.353   2.821  10.426
 6189W        W 9933   0.343   0.295   1.475
 6190W        W 9934   5.253   6.244  11.516
 6191W        W 9935   1.724   1.661   2.850
 6192W        W 9936   3.278   7.895   9.527
 6193W        W 9937   5.332   6.047   0.363
 6194W        W 9938   1.092   3.152   9.970
 6195W        W 9939   7.343  10.180   0.170
 6196W        W 9940   7.382   0.730   2.451
 6197W        W 9941   3.663  10.419  11.720
 6198W        W 9942   0.425   6.125  10.313
 6199W        W 9943   2.741   0.792  10.550
 6200W        W 9944   4.046   5.059  11.946
 6201W        W 9945   1.133   9.683   3.803
 6202W        W 9946  10.066   8.989   1.401
 6203W        W 9947   5.772   1.554   1.010
 6204W        W 9948   1.500   6.002   0.300
 6205W        W 9949   9.576   8.122  10.271
 6206W        W 9950   4.719   4.115   3.654
 6207W        W 9951   7.301   2.814   9.971
 6208W        W 9952   5.735   7.334  10.872
 6209W        W 9953   1.170   6.129   0.719
 6210W        W 9954   2.706   5.544   3.553
 6211W        W 9955  10.234   4.153   3.435
 6212W        W 9956   2.347   5.230   9.873
 6213W        W 9957   6.753   0.339   9.976
 6214W        W 9958   5.153   3.866  10.281
 6215W        W 9959   3.806   3.699   2.935
 6216W        W 9960   0.344   6.488   2.350
 6217W        W 9961   8.775   1.435   2.008
 6218W        W 9962  10.161   1.633   2.914
 6219W        W 9963   7.007   6.528   2.787
 6220W        W 9964   9.464   1.358   9.065
 6221W        W 9965   3.908   2.547   3.402
 6222W        W 9966   6.479   8.817  11.923
 6223W        W 9967   2.099   1.723   9.579
 6224W        W 9968   3.285   8.588   0.935
 6225W        W 9969  10.409   7.685   1.902
 6226W        W 9970   1.202   2.135   0.360
 6227W        W 9971   6.227   4.172   2.647
 6228W        W 9972   9.591   8.506  11.379
 6229W        W 9973   8.441   2.620  11.444
 6230W        W 9974   9.328   7.386  10.610
 6231W        W 9975   3.743   9.314   3.319
 6232W        W 9976   5.932   8.059   3.224
 6233W        W 9977   3.523   4.840   0.982
 6234W        W 9978   4.324   9.850   9.377
 6235W        W 9979   2.243   3.516   9.320
 6236W        W 9980   7.484   1.904   3.435
 6237W        W 9981   2.321   8.905   9.036
 6238W        W 9982   9.455   1.748  10.029
 6239W        W 9983   5.930   7.373  11.808
 6240W        W 9984   7.877  10.362  11.449
 6241W        W 9985   0.606   8.183   1.996
 6242W        W 9986  10.320   7.792   2.402
 6243W        W 9987   9.029   4.531   0.103
 6244W        W 9988   3.847   6.154   1.799
 6245W        W 9989   0.827   2.622   2.501
 6246W        W 9990  10.346   9.555  10.969
 6247W        W 9991   2.849   1.096   1.796
 6248W        W 9992   9.662   5.964   9.982
 6249W        W 9993   9.454   1.218  11.435
 6250W        W 9994   1.485   5.442   3.473
 6251W        W 9995   1.448   3.210   1.655
 6252W        W 9996   6.011   9.800   2.485
 6253W        W 9997   5.806   8.709   2.733
 6254W        W 9998   7.156   0.875   1.596
 6255W        W 9999   6.927   5.626   9.348
 6256W        W10000   7.598   1.553  10.537
 6257W        W10001   2.347   2.931   2.988
 6258W        W10002   8.883  10.200   2.315
 6259W        W10003   1.004   7.926  10.479
 6260W        W10004   0.405   6.660   9.859
 6261W        W10005   4.088   7.023  10.822
 6262W        W10006  10.010   0.875  11.468
 6263W        W10007   5.173   1.679   9.253
 6264W        W10008   5.058   6.082  10.054
 6265W        W10009   2.838   7.633  10.587
 6266W        W10010   3.465   7.599   8.499
 6267W        W10011   6.470   4.164   3.141
 6268W        W10012   5.923  10.333   2.467
 6269W        W10013  10.247   4.101   9.198
 6270W        W10014   9.787   5.184   3.001
 6271W        W10015   9.897   3.207   1.963
 6272W        W10016   1.790   9.405   9.503
 6273W        W10017   0.405   0.842  11.561
 6274W        W10018  10.239   3.246   2.445
 6275W        W10019   9.336   6.598   3.538
 6276W        W10020  10.485   4.714   9.076
 6277W        W10021   0.838   1.463   9.482
 6278W        W10022   8.075   7.898   1.299
 6279W        W10023   6.246   7.866   1.756
 6280W        W10024   9.247   0.748  10.948
 6281W        W10025   6.497   6.929  10.068
 6282W        W10026   7.111  10.322   3.349
 6283W        W10027   4.313   4.288   2.384
 6284W        W10028   0.898   0.811  10.755
 6285W        W10029   0.876   4.668   3.560
 6286W        W10030   8.473   7.700   2.306
 6287W        W10031   0.451   2.555   0.708
 6288W        W10032   8.569   7.453   1.868
 6289W        W10033   2.190   1.463   2.674
 6290W        W10034   9.551   1.948  10.503
 6291W        W10035   9.084   7.638  11.915
 6292W        W10036   9.382   8.408   1.258
 6293W        W10037   1.331   8.008   1.430
 6294W        W10038   4.417   8.925   2.848
 6295W        W10039   6.734   1.352  11.039
 6296W        W10040   0.406   3.763   2.057
 6297W        W10041   9.376   6.697   8.950
 6298W        W10042  10.444   2.270  11.546
 6299W        W10043   1.612   0.826  11.898
 6300W        W10044   5.218   3.342  10.300
 6301W        W10045   3.758   7.380  11.879
 6302W        W10046  10.478   3.593  10.444
 6303W        W10047   1.915   0.044   0.053
 6304W        W10048   7.428   1.668   0.272
 6305W        W10049   7.422   9.296   0.679
 6306W        W10050  10.480   9.581   9.096
 6307W        W10051   7.823   6.973   2.430
 6308W        W10052   2.645   1.645   3.179
 6309W        W10053   7.011   0.705   2.098
 6310W        W10054  10.215   4.654   9.521
 6311W        W10055   7.958   5.647  11.289
 6312W        W10056   5.708   0.763   1.992
 6313W        W10057  10.101   5.671   8.511
 6314W        W10058   1.725   1.193  10.359
 6315W        W10059   9.437   1.601  11.819
 6316W        W10060   8.162   4.540  11.682
 6317W        W10061   1.611   8.932  10.924
 6318W        W10062   7.356   4.316  10.466
 6319W        W10063  10.477   1.910   0.984
 6320W        W10064   2.390   9.100   9.522
 6321W        W10065   6.805   5.105  10.596
 6322W        W10066   7.426   3.614  10.950
 6323W        W10067   8.908   7.484  11.429
 6324W        W10068   7.862   5.085   9.596
 6325W        W10069   7.428   4.249   2.195
 6326W        W10070   1.931   8.434   0.836
 6327W        W10071   4.559   0.728   9.559
 6328W        W10072   9.962   1.776  11.955
 6329W        W10073   3.712   9.106   9.539
 6330W        W10074   2.201   9.935  10.083
 6331W        W10075   4.822   1.776   2.478
 6332W        W10076   9.040   3.717   0.767
 6333W        W10077   0.436   3.147   1.960
 6334W        W10078  10.463   5.069   0.085
 6335W        W10079   8.875   6.484  11.229
 6336W        W10080   8.848   8.494   8.915
 6337W        W10081   1.452   7.006   2.309
 6338W        W10082   2.616   7.352   8.228
 6339W        W10083   0.283   7.632  11.387
 6340W        W10084   2.223  10.220   0.299
 6341W        W10085   4.070   1.828   1.732
 6342W        W10086   5.652   2.155   2.389
 6343W        W10087   7.565   7.505   9.441
 6344W        W10088   5.092   2.110   9.011
 6345W        W10089   9.030   6.198  11.982
 6346W        W10090   5.320   6.764   3.586
 6347W        W10091   9.321   3.865   9.621
 6348W        W10092   5.359   4.746  10.613
 6349W        W10093   2.176   9.829   1.939
 6350W        W10094   3.475   6.631   1.836
 6351W        W10095   6.646   3.267   9.601
 6352W        W10096   6.014   0.759   9.046
 6353W        W10097   1.672   1.823   3.345
 6354W        W10098   4.377  10.447   8.643
 6355W        W10099   4.594   7.599  11.979
 6356W        W10100   2.268   6.491  11.088
 6357W        W10101   1.007  10.438  11.059
 6358W        W10102   2.197   2.049  11.637
 6359W        W10103   2.356   3.320   1.861
 6360W        W10104   6.509   2.138   3.449
 6361W        W10105   5.117   6.912   1.830
 6362W        W10106   5.434   2.520   0.871
 6363W        W10107   1.859   6.729   8.882
 6364W        W10108   5.567   9.765   0.443
 6365W        W10109   1.881   2.285   1.856
 6366W        W10110   6.496   4.045  11.353
 6367W        W10111   5.059  10.370  10.276
 6368W        W10112   7.998   4.607   3.447
 6369W        W10113   8.540   3.183   8.708
 6370W        W10114   1.324  10.452   8.756
 6371W        W10115  10.361  10.022   9.598
 6372W        W10116   0.788   0.733   2.712
 6373W        W10117   5.952   9.075   1.228
 6374W        W10118   4.311   0.449   0.205
 6375W        W10119   1.061   4.719  11.001
 6376W        W10120   7.565   6.389  10.883
 6377W        W10121   0.440   5.652  10.514
 6378W        W10122   7.656   5.748   3.091
 6379W        W10123   3.996   9.617   2.398
 6380W        W10124   1.812   5.096   0.410
 6381W        W10125   1.640   7.590   9.219
 6382W        W10126   6.162   2.787   1.676
 6383W        W10127   3.187  10.191  10.012
 6384W        W10128   6.639   8.863  10.533
 6385W        W10129   8.842  10.342   3.336
 6386W        W10130   6.269   7.062   2.322
 6387W        W10131   1.444   2.295   3.279
 6388W        W10132   8.787  10.004  10.021
 6389W        W10133   1.580   1.201   0.385
 6390W        W10134   3.633   8.965   0.066
 6391W        W10135   5.954   7.182   8.679
 6392W        W10136   8.317   4.164  11.365
 6393W        W10137   7.566   6.922  10.921
 6394W        W10138  10.501   8.386   9.637
 6395W        W10139   8.319   0.928   2.470
 6396W        W10140   9.777   7.607  11.415
 6397W        W10141  10.258   2.248   9.533
 6398W        W10142   3.962   0.947   8.469
 6399W        W10143   6.569   0.425  11.043
 6400W        W10144   7.553   1.806   8.960
 6401W        W10145   8.437   1.797   9.138
 6402W        W10146   2.688   6.123  11.518
 6403W        W10147   0.866   6.964   3.024
 6404W        W10148  10.233   5.361   2.802
 6405W        W10149   3.598   0.961   9.604
 6406W        W10150   9.881   4.961   1.676
 6407W        W10151   8.119   7.075   9.960
 6408W        W10152   7.299   8.771  11.276
 6409W        W10153   1.889  10.014  11.961
 6410W        W10154   8.124   7.447   8.083
 6411W        W10155   4.603   8.481  10.848
 6412W        W10156   3.043   8.539   1.833
 6413W        W10157   9.779   6.513   2.711
 6414W        W10158   0.814   3.776  10.354
 6415W        W10159   1.415   6.761   1.270
 6416W        W10160   5.215   1.385   0.502
 6417W        W10161  10.410   4.164   0.293
 6418W        W10162   0.715   1.692  11.171
 6419W        W10163   3.664   4.624  10.263
 6420W        W10164   4.406   2.371   9.830
 6421W        W10165   3.883   2.197   3.005
 6422W        W10166   1.159   6.668  10.283
 6423W        W10167   8.801   7.970   8.840
 6424W        W10168   0.664   8.016   9.961
 6425W        W10169   8.492  10.027   9.259
 6426W        W10170   1.324   8.736   0.598
 6427W        W10171   5.554   2.877   8.678
 6428W        W10172   4.354   8.053   1.453
 6429W        W10173   8.258   3.249   2.956
 6430W        W10174  10.351   5.138   1.493
 6431W        W10175   3.556   1.843   1.726
 6432W        W10176   0.956   6.919  11.581
 6433W        W10177   8.334   2.156   0.798
 6434W        W10178   4.603   5.988  10.935
 6435W        W10179   8.307   8.897  11.362
 6436W        W10180   1.866   9.901   2.661
 6437W        W10181   7.182   1.358  10.791
 6438W        W10182   4.623   9.617   1.838
 6439W        W10183   7.618   0.047   2.693
 6440W        W10184   6.956   6.281   0.501
 6441W        W10185   2.971   6.443   0.236
 6442W        W10186   5.122   7.162   3.318
 6443W        W10187   4.257  10.322  10.938
 6444W        W10188   0.738  10.456   2.341
 6445W        W10189   5.344   8.804   2.912
 6446W        W10190   6.076   4.233   8.368
 6447W        W10191   3.353   0.570   9.080
 6448W        W10192   0.846   4.340   1.201
 6449W        W10193   1.688   1.350  11.865
 6450W        W10194   0.552   6.632  11.478
 6451W        W10195   0.464   2.436   9.536
 6452W        W10196   8.130  10.051  11.772
 6453W        W10197   5.140   2.861  10.430
 6454W        W10198  10.459   3.772  10.952
 6455W        W10199   8.056   1.926   1.375
 6456W        W10200   6.724   2.711  10.868
 6457W        W10201   2.307   8.076   0.942
 6458W        W10202   3.186   6.640  10.825
 6459W        W10203   1.866   9.001  11.378
 6460W        W10204   6.702   9.850  10.936
 6461W        W10205   4.242   2.018  11.584
 6462W        W10206   1.646   7.027   0.519
 6463W        W10207   8.967   3.139  11.542
 6464W        W10208   1.333   0.239   1.430
 6465W        W10209   4.669   3.585   3.959
 6466W        W10210   2.336   8.764  11.332
 6467W        W10211   2.794   2.378   1.926
 6468W        W10212   1.403   5.702   0.945
 6469W        W10213   9.129   4.170  10.008
 6470W        W10214   9.863   2.383   9.255
 6471W        W10215   0.558   2.737  10.514
 6472W        W10216   0.868   2.179   2.732
 6473W        W10217   0.953   5.708   2.244
 6474W        W10218   4.862   8.652   1.201
 6475W        W10219   7.579   0.455   1.753
 6476W        W10220   2.156   6.012   0.881
 6477W        W10221   9.328   6.865   9.443
 6478W        W10222   7.012   9.747   9.489
 6479W        W10223   3.241   5.772   1.422
 6480W        W10224   8.424   4.109   1.883
 6481W        W10225   2.280   0.939   9.163
 6482W        W10226   2.412   4.542  10.808
 6483W        W10227   1.796   9.513  11.872
 6484W        W10228   4.357   8.436   8.542
 6485W        W10229   6.035   2.549   2.714
 6486W        W10230   7.263   0.416  10.915
 6487W        W10231   0.170  10.258   1.410
 6488W        W10232   0.286  10.195   2.207
 6489W        W10233   1.309   4.770   0.685
 6490W        W10234   8.070   9.775   1.897
 6491W        W10235   8.886   2.989   1.944
 6492W        W10236   7.435   9.495   1.169
 6493W        W10237   6.264   9.612   9.544
 6494W        W10238   3.595   9.375   9.954
 6495W        W10239   1.688   2.444   1.381
 6496W        W10240   7.355   7.084   9.639
 6497W        W10241   4.238   7.457   9.466
 6498W        W10242   1.904   7.264   2.389
 6499W        W10243   6.510   7.408   0.926
 6500W        W10244   1.394   9.387   8.721
 6501W        W10245   4.607   4.136   1.708
 6502W        W10246   6.653   9.514   9.870
 6503W        W10247   0.510   5.520   3.221
 6504W        W10248   2.275  10.317  11.774
 6505W        W10249   6.034   1.378   1.442
 6506W        W10250   6.199   5.197   0.491
 6507W        W10251   5.295   6.075   8.221
 6508W        W10252   0.890   3.881  11.264
 6509W        W10253   3.062   7.544   1.404
 6510W        W10254   7.535   5.272  11.892
 6511W        W10255   5.726   1.290  11.285
 6512W        W10256   7.826   2.233   1.844
 6513W        W10257   4.508   7.693   3.241
 6514W        W10258   3.800   4.522  10.754
 6515W        W10259   9.542   5.660  10.631
 6516W        W10260   5.989   2.193   1.783
 6517W        W10261   2.151   7.538   9.138
 6518W        W10262   0.193   7.338   1.549
 6519W        W10263   2.003   6.042   0.361
 6520W        W10264   5.648   4.325  10.492
 6521W        W10265   2.240   8.190   3.073
 6522W        W10266   7.487   1.368   2.198
 6523W        W10267   2.389   3.274   8.886
 6524W        W10268   6.437   5.698   1.393
 6525W        W10269   5.077   9.971   0.420
 6526W        W10270   4.659   2.322   2.393
 6527W        W10271  10.055   9.546   0.697
 6528W        W10272   4.200   7.651   2.301
 6529W        W10273   8.967   6.706   9.763
 6530W        W10274   7.875   8.459  10.375
 6531W        W10275   8.134   3.659   1.925
 6532W        W10276   8.350   5.250  11.373
 6533W        W10277   3.295   2.333   1.807
 6534W        W10278   0.357   9.473  11.728
 6535W        W10279   5.978   3.304   0.432
 6536W        W10280   3.824   6.541   1.448
 6537W        W10281   5.569   7.529   2.365
 6538W        W10282   7.468   6.048   0.320
 6539W        W10283   6.561   9.851  10.271
 6540W        W10284   7.390   0.660   0.305
 6541W        W10285   0.837   7.342   1.745
 6542W        W10286   5.082   3.752   3.689
 6543W        W10287   1.008   9.485   0.857
 6544W        W10288   5.048   5.142   2.426
 6545W        W10289   5.153   6.539   3.145
 6546W        W10290   4.755   6.254  11.379
 6547W        W10291   9.151   7.449   3.884
 6548W        W10292  10.317   4.137  11.721
 6549W        W10293   3.588   2.700   8.999
 6550W        W10294   2.100   5.122   0.834
 6551W        W10295   7.004   0.630   3.520
 6552W        W10296   1.783  10.006   3.172
 6553W        W10297   6.693   1.711  11.446
 6554W        W10298   1.192   5.148  10.775
 6555W        W10299   9.898   0.804   2.713
 6556W        W10300   0.661   9.381   3.240
 6557W        W10301   6.099   9.160  10.506
 6558W        W10302   7.418   1.170   0.348
 6559W        W10303   9.908   2.689   1.305
 6560W        W10304   9.734   4.277   2.668
 6561W        W10305   9.069   6.530   1.649
 6562W        W10306   8.838   3.098   2.952
 6563W        W10307   3.710   2.279   9.243
 6564W        W10308   1.274   6.244   9.967
 6565W        W10309   0.263  10.024   2.692
 6566W        W10310   8.919   0.757   8.509
 6567W        W10311   8.501   3.181  11.379
 6568W        W10312  10.387   0.396  10.469
 6569W        W10313   5.081   5.105   2.943
 6570W        W10314   6.469   0.826   9.816
 6571W        W10315   9.418   9.012   9.232
 6572W        W10316   8.949   5.539  10.256
 6573W        W10317  10.483   7.154  11.731
 6574W        W10318   3.841   1.883   2.196
 6575W        W10319   4.404   8.204   3.202
 6576W        W10320   7.966   8.393   1.213
 6577W        W10321   5.586   2.772   2.927
 6578W        W10322   5.173   4.030  11.263
 6579W        W10323   7.978   7.888   0.351
 6580W        W10324   7.182   9.691  11.014
 6581W        W10325   7.597   4.960   2.760
 6582W        W10326   5.681  10.411   9.440
 6583W        W10327   0.049   7.665   1.106
 6584W        W10328   6.189   1.565  11.492
 6585W        W10329   0.507   9.295   9.645
 6586W        W10330   0.485  10.386   1.775
 6587W        W10331   5.690   2.307   3.445
 6588W        W10332   8.372   4.942   3.486
 6589W        W10333   0.836   4.845   0.997
 6590W        W10334   4.595   1.257   3.159
 6591W        W10335   5.518   0.857   8.990
 6592W        W10336   5.156   7.527   4.060
 6593W        W10337   6.121   1.931   2.289
 6594W        W10338   2.251   2.456   2.836
 6595W        W10339   5.272   1.865   3.389
 6596W        W10340   8.653   6.944   0.210
 6597W        W10341   9.468   0.471   2.807
 6598W        W10342   9.395   3.086  11.786
 6599W        W10343   0.877   4.204   8.409
 6600W        W10344   4.795   5.617   0.792
 6601W        W10345   2.334   8.046   9.341
 6602W        W10346   4.990   5.631   2.158
 6603W        W10347  10.028   7.908  11.726
 6604W        W10348  10.253   8.662   8.740
 6605W        W10349   6.690   8.068   1.016
 6606W        W10350   1.297   9.459   9.757
 6607W        W10351   0.664   4.319  10.349
 6608W        W10352   5.532   3.070   4.107
 6609W        W10353   1.485   6.298  10.457
 6610W        W10354   8.195   4.174   8.168
 6611W        W10355   6.919   4.805  11.369
 6612W        W10356   0.061   8.851   1.208
 6613W        W10357   7.675   4.106   8.840
 6614W        W10358   9.020   5.263   1.477
 6615W        W10359   0.929   9.365   8.951
 6616W        W10360   6.939   8.866   2.344
 6617W        W10361   3.077   3.717   8.779
 6618W        W10362   4.126   2.636  10.147
 6619W        W10363   4.340   1.899   2.338
 6620W        W10364   0.301   9.075   2.974
 6621W        W10365   1.823   4.121  11.243
 6622W        W10366   9.296   7.045   0.957
 6623W        W10367   6.122   0.416   1.975
 6624W        W10368   7.501   3.762   1.209
 6625W        W10369   0.782   8.110   1.537
 6626W        W10370   5.594   3.825  10.513
 6627W        W10371  10.275   8.657   9.257
 6628W        W10372   8.093  10.326   2.753
 6629W        W10373   2.328   5.279   9.146
 6630W        W10374   8.550   6.121  11.821
 6631W        W10375   4.790   7.977   1.857
 6632W        W10376   2.343   5.070   8.647
 6633W        W10377   0.317   2.125  10.315
 6634W        W10378   6.422   6.520   9.372
 6635W        W10379   6.104  10.195  10.394
 6636W        W10380   8.900   0.375   9.643
 6637W        W10381   1.883   7.887   3.267
 6638W        W10382   2.616   6.071   2.404
 6639W        W10383   5.211   2.882   1.136
 6640W        W10384   2.812   1.504  11.201
 6641W        W10385   3.490   1.028  10.959
 6642W        W10386   5.526   3.839   3.461
 6643W        W10387  10.068   3.405  11.784
 6644W        W10388   3.082   8.988   1.246
 6645W        W10389   1.679   8.028  10.977
 6646W        W10390   8.763   5.999  10.450
 6647W        W10391   7.979   5.898  10.005
 6648W        W10392   3.527   1.920  11.029
 6649W        W10393   5.273   9.043   3.410
 6650W        W10394   9.334   9.883  11.653
 6651W        W10395   4.973   9.681   9.485
 6652W        W10396   3.386   5.956  11.347
 6653W        W10397   8.483   1.000  10.009
 6654W        W10398   5.257   2.633  10.917
 6655W        W10399   7.972   9.884   1.341
 6656W        W10400   4.862   7.809   2.779
 6657W        W10401   1.420   1.338  10.790
 6658W        W10402   4.203   8.676   2.320
 6659W        W10403   6.499   2.742   0.388
 6660W        W10404   2.238   5.629  10.945
 6661W        W10405   6.005   5.160  10.636
 6662W        W10406   1.463   9.728   0.853
 6663W        W10407   7.354   2.844   3.238
 6664W        W10408   1.898   5.406   1.241
 6665W        W10409   4.600   9.469  11.436
 6666W        W10410  10.097  10.488  10.979
 6667W        W10411   7.423   0.327  11.800
 6668W        W10412   3.685   5.869  10.938
 6669W        W10413   0.784   0.812   1.784
 6670W        W10414   3.974   1.791   2.692
 6671W        W10415  10.069   3.651   9.395
 6672W        W10416   9.439   6.001  11.757
 6673W        W10417   4.000   0.093   0.429
 6674W        W10418   7.954   9.227   1.850
 6675W        W10419   7.483   3.564  11.479
 6676W        W10420   6.191   4.681   2.599
 6677W        W10421  10.230   7.474   1.449
 6678W        W10422   8.022   1.307  10.632
 6679W        W10423   6.694   3.887   2.780
 6680W        W10424   2.604   9.929  10.472
 6681W        W10425   9.416   2.060   9.630
 6682W        W10426   0.225   0.657   1.865
 6683W        W10427   8.923   6.068   1.849
 6684W        W10428   4.608   5.970   9.846
 6685W        W10429   7.046   6.038   2.604
 6686W        W10430   1.453   6.247   9.493
 6687W        W10431   2.814   1.878   2.185
 6688W        W10432   7.336   2.338  10.297
 6689W        W10433   3.347   6.330  10.453
 6690W        W10434   0.804   4.089  10.776
 6691W        W10435   9.679   5.890   9.081
 6692W        W10436   8.548   6.569   2.836
 6693W        W10437   2.144   0.462   1.801
 6694W        W10438   9.399  10.285   1.636
 6695W        W10439   9.815   8.153   1.210
 6696W        W10440   6.346   9.108   9.640
 6697W        W10441   3.194   8.789   8.753
 6698W        W10442   1.747   2.672   2.770
 6699W        W10443   9.338   8.510   0.764
 6700W        W10444   4.265   0.226   3.245
 6701W        W10445   2.211   5.256   2.399
 6702W        W10446   1.766   0.715   9.844
 6703W        W10447   3.062   2.293  11.617
 6704W        W10448   2.563   4.004   8.476
 6705W        W10449   8.017   9.585  11.925
 6706W        W10450   5.060   0.808  10.396
 6707W        W10451   9.277   3.025   2.298
 6708W        W10452   1.426   8.409   9.816
 6709W        W10453   2.700   4.195   1.000
 6710W        W10454  10.407   1.293   9.458
 6711W        W10455   7.149   0.244   2.625
 6712W        W10456   1.373   6.952  11.245
 6713W        W10457   5.895   5.727   1.957
 6714W        W10458   2.732   7.025   1.319
 6715W        W10459   2.186   1.439  10.461
 6716W        W10460   4.933   4.589  11.961
 6717W        W10461   4.252   3.298   9.491
 6718W        W10462   8.048   0.192  10.070
 6719W        W10463   8.966   8.387   1.549
 6720W        W10464   6.667   2.732   1.463
 6721W        W10465   4.381   8.770   0.368
 6722W        W10466   2.358   9.025   2.529
 6723W        W10467   1.273   0.916   1.643
 6724W        W10468   7.138   5.706  11.117
 6725W        W10469   8.379   2.358   3.012
 6726W        W10470  10.143  10.412   9.349
 6727W        W10471   1.174   9.543   2.598
 6728W        W10472   2.630   2.867   9.905
 6729W        W10473   3.343   7.642  10.792
 6730W        W10474   0.972   1.059   9.759
 6731W        W10475   3.878   8.716   0.430
 6732W        W10476   6.087  10.201  11.822
 6733W        W10477   5.219   9.054   2.485
 6734W        W10478   5.177   2.388   2.264
 6735W        W10479   7.076   6.233   1.808
 6736W        W10480   1.358   0.258   3.279
 6737W        W10481   5.006   7.621   3.567
 6738W        W10482   5.214   5.675   9.814
 6739W        W10483   7.667   3.294   3.621
 6740W        W10484  10.189   0.310   2.163
 6741W        W10485   6.519   9.262   1.555
 6742W        W10486   5.078   9.983   9.946
 6743W        W10487   3.772   0.509   1.469
 6744W        W10488   5.734   5.054  11.998
 6745W        W10489   4.198   1.914   9.751
 6746W        W10490   8.045   5.239   0.682
 6747W        W10491   2.184   4.295   8.960
 6748W        W10492   7.047   3.309   9.905
 6749W        W10493   7.004   0.586   9.085
 6750W        W10494   5.657   7.344  10.080
 6751W        W10495   5.915   0.880  10.990
 6752W        W10496   4.982   7.080   8.530
 6753W        W10497   1.759   0.478   3.506
 6754W        W10498   5.512   6.000  11.887
 6755W        W10499   7.475   5.921   9.872
 6756W        W10500   9.246   4.195   9.104
 6757W        W10501   4.717   2.779   3.625
 6758W        W10502   5.157   5.179   3.453
 6759W        W10503   3.412   3.310   0.312
 6760W        W10504   0.882   4.575   9.964
 6761W        W10505   2.833   6.188   9.991
 6762W        W10506   8.300   5.068  10.522
 6763W        W10507   2.336   9.459   1.112
 6764W        W10508   6.193   0.832   3.177
 6765W        W10509   7.936   4.068   1.660
 6766W        W10510   1.777   7.421   3.513
 6767W        W10511   8.926   8.957   9.120
 6768W        W10512   5.154   4.011   1.894
 6769W        W10513  10.268   0.046  11.856
 6770W        W10514   7.930   6.110   0.519
 6771W        W10515   1.854   4.631   1.904
 6772W        W10516   9.904   8.586   2.023
 6773W        W10517   0.587   5.470   9.323
 6774W        W10518   4.049   2.772  10.996
 6775W        W10519   4.716   1.546   9.432
 6776W        W10520   8.757   0.021  10.029
 6777W        W10521   1.357   5.949   9.081
 6778W        W10522   0.414   3.988  11.459
 6779W        W10523   1.304   7.514   1.672
 6780W        W10524   8.007   2.788   9.249
 6781W        W10525   4.939   1.012  10.850
 6782W        W10526   4.094  10.426  10.447
 6783W        W10527   2.666   2.892   1.779
 6784W        W10528   3.217   3.619   9.294
 6785W        W10529   3.569   3.144   2.750
 6786W        W10530   6.580   8.008  10.777
 6787W        W10531   0.325   5.037   2.346
 6788W        W10532   7.027   6.451   2.276
 6789W        W10533   8.311   8.422  10.092
 6790W        W10534   0.415   3.756   9.039
 6791W        W10535   9.710   2.323  10.813
 6792W        W10536   2.239   2.952  10.227
 6793W        W10537   0.722   4.879  11.345
 6794W        W10538   2.226   1.971   2.682
 6795W        W10539   1.002   5.459   2.708
 6796W        W10540   3.598   5.360   1.285
 6797W        W10541   5.702   0.469   8.690
 6798W        W10542   5.604   0.360  10.168
 6799W        W10543   5.555   7.989   0.775
 6800W        W10544   5.236   0.779   1.165
 6801W        W10545   1.275   4.639   1.182
 6802W        W10546   1.454   6.599   0.782
 6803W        W10547   5.613   8.576   9.135
 6804W        W10548   4.331   2.173   2.765
 6805W        W10549   9.588   5.129  11.836
 6806W        W10550   0.709   0.320   0.951
 6807W        W10551   9.455   1.403   0.612
 6808W        W10552   6.440   3.685   9.406
 6809W        W10553   5.024   8.191   2.385
 6810W        W10554   9.534   1.420   3.029
 6811W        W10555   3.300   7.404   0.716
 6812W        W10556   7.977   3.828   8.503
 6813W        W10557   5.774   1.778   3.539
 6814W        W10558   8.456   0.815  10.522
 6815W        W10559   0.188   2.030   9.365
 6816W        W10560   3.818   7.603   8.912
 6817W        W10561   0.977   6.587  11.205
 6818W        W10562   6.359   8.786   1.662
 6819W        W10563   7.033   8.153  11.035
 6820W        W10564   0.342   9.785   9.580
 6821W        W10565   8.361   4.596   9.869
 6822W        W10566   2.106  10.372   2.695
 6823W        W10567   5.554   1.667  10.028
 6824W        W10568   0.436   0.007   3.153
 6825W        W10569   5.066   7.463   0.069
 6826W        W10570   2.661  10.335   9.502
 6827W        W10571   3.745   7.154   0.337
 6828W        W10572   4.044   5.676   1.367
 6829W        W10573   4.062   5.802   0.547
 6830W        W10574   1.348   0.486   8.661
 6831W        W10575   4.738   8.573   3.059
 6832W        W10576   9.050   5.367   2.352
 6833W        W10577   4.740   6.471   9.918
 6834W        W10578   8.487   9.849   1.538
 6835W        W10579   1.399   4.662   2.690
 6836W        W10580   1.677   5.500  10.191
 6837W        W10581   6.352   4.644   0.993
 6838W        W10582   3.012   7.684   8.154
 6839W        W10583   7.364   6.190   1.282
 6840W        W10584   6.887   1.283   9.322
 6841W        W10585   0.875   8.811  11.388
 6842W        W10586   3.070   0.300  11.333
 6843W        W10587   5.113   5.212  10.593
 6844W        W10588   3.507   0.019   2.316
 6845W        W10589   3.691  10.362   1.256
 6846W        W10590   9.000   2.727   9.747
 6847W        W10591   7.059   9.431   0.344
 6848W        W10592   7.665   8.384   1.913
 6849W        W10593   2.829   6.425   0.724
 6850W        W10594   5.752   0.917   3.534
 6851W        W10595   3.161   5.530   9.269
 6852W        W10596   6.200   3.465  10.341
 6853W        W10597   2.154   6.302   2.350
 6854W        W10598   6.487   9.732   0.609
 6855W        W10599   1.865   3.605   3.264
 6856W        W10600   2.665   9.994   0.421
 6857W        W10601   1.776   0.904  10.807
 6858W        W10602   4.179   1.413   1.290
 6859W        W10603   3.484   9.040  11.605
 6860W        W10604   1.070   2.749  10.691
 6861W        W10605   0.794   6.051   8.997
 6862W        W10606   0.531   8.684   0.460
 6863W        W10607   7.722   7.880   1.869
 6864W        W10608   8.899   9.345   2.980
 6865W        W10609   6.298   7.540   2.141
 6866W        W10610   0.394   6.386   1.304
 6867W        W10611   9.815   4.928   0.254
 6868W        W10612  10.263  10.045  10.410
 6869W        W10613   6.480   3.196   0.033
 6870W        W10614   0.699   1.313   2.321
 6871W        W10615   6.987   2.203   2.711
 6872W        W10616   6.724   5.229   2.167
 6873W        W10617   7.955   8.411   8.775
 6874W        W10618   3.216   4.478   0.759
 6875W        W10619   0.755   6.312   0.344
 6876W        W10620   1.498   2.444   0.616
 6877W        W10621   7.060   4.734   8.614
 6878W        W10622   6.821   7.079  10.431
 6879W        W10623   1.397   6.449   8.988
 6880W        W10624   2.323   8.987   2.009
 6881W        W10625   9.839   4.254   1.258
 6882W        W10626   9.546   8.489   9.940
 6883W        W10627   8.830   0.409  11.107
 6884W        W10628   2.105   6.868  10.485
 6885W        W10629   3.852   5.723  11.416
 6886W        W10630   1.986   7.617  10.876
 6887W        W10631   9.855   8.369   0.740
 6888W        W10632   4.500   4.536   1.986
 6889W        W10633   4.922  10.437   2.512
 6890W        W10634   9.723   7.914   9.819
 6891W        W10635   7.697   1.333  11.945
 6892W        W10636   7.581   9.129  10.262
 6893W        W10637  10.389   2.508   1.429
 6894W        W10638   0.484   0.701  10.460
 6895W        W10639   2.123   6.460   0.095
 6896W        W10640   4.174   9.804   1.965
 6897W        W10641   8.002   8.854  10.083
 6898W        W10642   2.257   6.919  11.483
 6899W        W10643   7.069   4.501   2.441
 6900W        W10644   4.664   4.104   2.719
 6901W        W10645   8.989   0.294   2.804
 6902W        W10646   9.029   1.822   1.183
 6903W        W10647   9.425   2.735  10.913
 6904W        W10648   0.363   7.109  11.394
 6905W        W10649   7.025   3.617   1.050
 6906W        W10650   3.084   0.196   8.828
 6907W        W10651   9.846   9.952   2.400
 6908W        W10652   9.589   8.146   9.359
 6909W        W10653   5.031   4.110   1.422
 6910W        W10654   9.707   9.227   0.850
 6911W        W10655   6.521   1.239   0.386
 6912W        W10656   1.424   7.363   0.149
 6913W        W10657  10.119   9.059   2.172
 6914W        W10658  10.407   6.939   1.707
 6915W        W10659   2.532   0.507   8.985
 6916W        W10660   0.434   1.190   1.843
 6917W        W10661   3.317   7.589  11.763
 6918W        W10662   8.802   0.835   2.322
 6919W        W10663   4.108   4.532   3.199
 6920W        W10664   8.782   1.217   3.580
 6921W        W10665   2.805   5.546   1.249
 6922W        W10666   8.478   6.194  10.828
 6923W        W10667   9.428   7.506   1.756
 6924W        W10668   1.677   5.067  10.463
 6925W        W10669   5.560   2.263  11.690
 6926W        W10670   2.717  10.436  10.025
 6927W        W10671   9.044   9.009   9.633
 6928W        W10672   7.230   4.109   3.788
 6929W        W10673   3.882   1.046  11.438
 6930W        W10674   2.633   1.617  10.708
 6931W        W10675   0.674   5.848   2.831
 6932W        W10676   7.619   9.135   1.500
 6933W        W10677   6.004   9.872   8.590
 6934W        W10678   6.829   6.155   3.087
 6935W        W10679   6.385   2.325   9.354
 6936W        W10680   6.330   4.351  10.035
 6937W        W10681   7.144   0.921  10.490
 6938W        W10682   7.895   0.860  11.236
 6939W        W10683   3.097   3.222   1.165
 6940W        W10684   8.355   1.390   1.707
 6941W        W10685   9.120   0.792  11.910
 6942W        W10686   7.903   1.251   0.993
 6943W        W10687   5.315   5.650   0.671
 6944W        W10688   4.564   5.154   0.627
 6945W        W10689   9.673   3.173  10.684
 6946W        W10690   3.863   4.916   1.364
 6947W        W10691   8.825   0.403  11.619
 6948W        W10692   2.601   2.462   1.284
 6949W        W10693   9.441  10.023   1.180
 6950W        W10694   5.255   7.003  11.995
 6951W        W10695   5.828   6.793   3.711
 6952W        W10696   9.439   2.965   9.917
 6953W        W10697   9.038   4.063  11.873
 6954W        W10698   6.923   2.422   0.770
 6955W        W10699   4.855   2.131   1.958
 6956W        W10700   2.496   8.331   8.285
 6957W        W10701   9.992   6.867  10.917
 6958W        W10702   1.741   7.688   1.510
 6959W        W10703   2.818   9.927  10.931
 6960W        W10704   1.118   7.175   1.350
 6961W        W10705   1.933   7.449   0.422
 6962W        W10706  10.189   3.152  10.349
 6963W        W10707   4.586   1.656  11.520
 6964W        W10708   3.566   6.363  11.034
 6965W        W10709   7.204   6.577   8.873
 6966W        W10710   2.367   8.730   0.407
 6967W        W10711   0.275   9.695   2.289
 6968W        W10712   2.332   7.475   0.764
 6969W        W10713   0.184   2.684  11.806
 6970W        W10714   6.051   8.210  11.986
 6971W        W10715   9.314   1.741  11.337
 6972W        W10716   5.009   0.523  10.963
 6973W        W10717   9.778   6.878   8.625
 6974W        W10718   1.698   7.854   0.265
 6975W        W10719   7.945   9.837   2.426
 6976W        W10720   4.758   1.677   8.405
 6977W        W10721  10.006   1.428   1.732
 6978W        W10722   6.442   7.999   9.815
 6979W        W10723  10.438   5.626  10.493
 6980W        W10724   7.090   9.926   1.264
 6981W        W10725   3.060   4.632   8.997
 6982W        W10726   5.313   2.874   2.087
 6983W        W10727   1.244   8.009   0.881
 6984W        W10728   8.977   3.952   2.875
 6985W        W10729   1.260   1.940  11.333
 6986W        W10730   7.087   1.165   2.459
 6987W        W10731   6.020   1.586   2.769
 6988W        W10732   5.736   9.065   3.126
 6989W        W10733   0.477   3.080   0.735
 6990W        W10734   8.593   2.256   1.554
 6991W        W10735   4.380   1.207  11.970
 6992W        W10736   8.951   6.983   8.961
 6993W        W10737   5.180   3.068   3.048
 6994W        W10738   5.798   1.416  11.795
 6995W        W10739   3.278   6.644   1.082
 6996W        W10740   0.455   7.566  10.064
 6997W        W10741   8.945   7.831   1.232
 6998W        W10742   0.566   0.877   3.183
 6999W        W10743   7.083   1.742   2.471
 7000W        W10744   0.181   9.919  11.417
 7001W        W10745   0.783   4.161   0.218
 7002W        W10746  10.469   2.920   2.113
 7003W        W10747   8.063   3.745  10.310
 7004W        W10748   7.071  10.381  10.406
 7005W        W10749   7.958   5.654  10.730
 7006W        W10750   7.672   3.588   0.354
 7007W        W10751   9.835   7.872   0.708
 7008W        W10752   3.272   9.274   0.285
 7009W        W10753   0.021   3.222  11.854
 7010W        W10754   9.497  10.043   0.264
 7011W        W10755   3.153   4.609   8.148
 7012W        W10756   3.395   4.444   3.164
 7013W        W10757   0.965   3.822   2.764
 7014W        W10758   9.169  10.333   9.788
 7015W        W10759   2.617   6.501   1.673
 7016W        W10760   1.396   9.775   1.379
 7017W        W10761   4.268   0.474   2.235
 7018W        W10762   9.991   6.705   1.420
 7019W        W10763   4.963   7.117   3.804
 7020W        W10764   3.850   9.025  11.230
 7021W        W10765   4.609   0.901   2.264
 7022W        W10766   0.681   9.985   9.962
 7023W        W10767   3.166   7.160  10.813
 7024W        W10768   5.785   4.652  10.884
 7025W        W10769   7.326   0.856   1.115
 7026W        W10770   4.696   6.472   0.812
 7027W        W10771   5.430   5.415   0.211
 7028W        W10772  10.322   0.811  10.187
 7029W        W10773   6.913  10.256   9.430
 7030W        W10774   3.793   1.448  10.887
 7031W        W10775   9.886   4.076   0.389
 7032W        W10776   2.824   6.682   9.819
 7033W        W10777   2.361   8.519  10.885
 7034W        W10778   9.818   3.588   0.758
 7035W        W10779   5.159   9.816   2.965
 7036W        W10780   9.213   7.437   3.387
 7037W        W10781   4.712   3.639   2.963
 7038W        W10782   9.842   6.373  10.935
 7039W        W10783   2.650   1.687   2.633
 7040W        W10784   0.355   3.599  10.091
 7041W        W10785   7.538   4.450   2.674
 7042W        W10786   2.197   2.868   2.032
 7043W        W10787   1.572   3.663   1.376
 7044W        W10788   8.978   8.348  10.828
 7045W        W10789   1.788   3.149  10.461
 7046W        W10790   7.282   3.364   3.266
 7047W        W10791   1.910   8.900   9.539
 7048W        W10792   7.366   4.545  11.511
 7049W        W10793   2.217   5.555   1.909
 7050W        W10794   8.083   1.574  11.060
 7051W        W10795   2.658   4.660  10.017
 7052W        W10796   2.921  10.242   1.706
 7053W        W10797   8.964   1.802   9.850
 7054W        W10798   6.073   3.332   9.405
 7055W        W10799   9.964   0.406   8.913
 7056W        W10800   6.211   0.648   3.641
 7057W        W10801  10.321   1.365  10.452
 7058W        W10802   3.581   9.936  11.526
 7059W        W10803   5.013   9.967  11.208
 7060W        W10804   7.571   5.033   1.858
 7061W        W10805   8.676   3.670   9.030
 7062W        W10806   6.245   0.870  10.415
 7063W        W10807   2.530   4.053   9.428
 7064W        W10808   8.511   3.360  11.992
 7065W        W10809   3.755   0.326   3.034
 7066W        W10810   9.745   0.346  10.779
 7067W        W10811   6.942   5.985  10.636
 7068W        W10812   0.900   3.839   1.871
 7069W        W10813   8.137   4.626  10.325
 7070W        W10814   1.256   3.802   2.316
 7071W        W10815   7.000   8.312   9.754
 7072W        W10816  10.037   1.815  10.457
 7073W        W10817  10.272   6.004   1.753
 7074W        W10818   5.865   0.696   2.789
 7075W        W10819   0.952   8.990   3.477
 7076W        W10820   4.067   4.093  10.794
 7077W        W10821   4.696   8.618   1.694
 7078W        W10822  10.455   3.721   3.213
 7079W        W10823   1.659   1.940   1.479
 7080W        W10824   6.624   6.200   4.033
 7081W        W10825   8.597   1.729   0.908
 7082W        W10826   0.176   0.845   0.577
 7083W        W10827   1.015   4.680   0.271
 7084W        W10828   0.159   2.185   2.304
 7085W        W10829   1.763   7.161  10.964
 7086W        W10830   8.927   7.473  10.333
 7087W        W10831   8.552   2.129  11.479
 7088W        W10832   6.557   0.977  11.944
 7089W        W10833   9.694   8.950  11.095
 7090W        W10834   2.791   9.564  11.670
 7091W        W10835   7.804   6.597   0.657
 7092W        W10836   8.493   3.704  11.536
 7093W        W10837   0.374   5.022   1.360
 7094W        W10838   3.610   4.091  11.009
 7095W        W10839   6.166   7.049  10.951
 7096W        W10840   0.819   2.211   1.757
 7097W        W10841   2.389   3.778   1.650
 7098W        W10842   0.518   1.861   3.442
 7099W        W10843   8.387   7.411  11.436
 7100W        W10844   7.571   3.784   2.066
 7101W        W10845   6.595   1.226  11.507
 7102W        W10846   2.769   7.360   2.868
 7103W        W10847   0.616   4.592  10.780
 7104W        W10848   0.814   0.901   8.741
 7105W        W10849   6.260   4.940   0.031
 7106W        W10850   3.970   2.095   0.005
 7107W        W10851   2.911  10.325   3.112
 7108W        W10852   5.803   0.460   3.237
 7109W        W10853   2.197   8.716   8.527
 7110W        W10854   1.469   1.242   3.206
 7111W        W10855   0.172   8.953  10.904
 7112W        W10856   1.085   0.894   3.117
 7113W        W10857   3.278   4.170   8.963
 7114W        W10858   8.635   1.355   0.361
 7115W        W10859   6.601   6.531   0.904
 7116W        W10860   7.387   2.266  10.868
 7117W        W10861   3.406  10.282   1.848
 7118W        W10862   9.341   1.830   0.268
 7119W        W10863   6.261   7.857   0.806
 7120W        W10864   2.701   0.561   0.214
 7121W        W10865   5.752   4.933   0.489
 7122W        W10866   6.407   8.996  10.973
 7123W        W10867   6.259   0.354   9.917
 7124W        W10868   3.136   9.313  11.388
 7125W        W10869   6.517  10.416   9.108
 7126W        W10870   6.847   4.335  10.079
 7127W        W10871  10.025   2.137   8.806
 7128W        W10872   7.570   2.230   9.295
 7129W        W10873   1.314   7.974   9.060
 7130W        W10874   8.585   1.300   8.969
 7131W        W10875   7.876   3.848   9.273
 7132W        W10876   4.281   1.813   9.250
 7133W        W10877  10.409   4.835   3.635
 7134W        W10878   9.984   1.855   2.475
 7135W        W10879   2.570   9.009   1.166
 7136W        W10880   3.706   7.591  10.284
 7137W        W10881   8.401   3.728   9.933
 7138W        W10882   2.846   2.407   9.861
 7139W        W10883  10.368   1.769   8.599
 7140W        W10884   6.565   1.949   2.042
 7141W        W10885   4.090   7.819   0.357
 7142W        W10886   0.823   3.239   8.981
 7143W        W10887   3.577   5.514   9.871
 7144W        W10888   1.744  10.387   9.539
 7145W        W10889   9.902   0.178   0.835
 7146W        W10890   6.011   0.936   8.573
 7147W        W10891   7.259   7.759  11.963
 7148W        W10892   6.736   2.710   2.307
 7149W        W10893   3.701   0.827  10.540
 7150W        W10894   2.233   8.167   3.569
 7151W        W10895   8.329   3.673   9.426
 7152W        W10896   7.903   3.231   2.109
 7153W        W10897   0.946   3.210   1.850
 7154W        W10898   7.440   8.645  10.524
 7155W        W10899   0.802   0.628   9.568
 7156W        W10900   9.081   1.942  10.333
 7157W        W10901   9.094   9.292   1.371
 7158W        W10902   4.332   2.897  10.523
 7159W        W10903   8.527   1.267   1.245
 7160W        W10904   6.946   2.636   3.506
 7161W        W10905   4.139   6.113   9.633
 7162W        W10906   2.306  10.323  11.269
 7163W        W10907   2.941   3.269   9.912
 7164W        W10908   9.031   1.268  11.711
 7165W        W10909   1.865   0.181  10.550
 7166W        W10910   1.093   2.657   3.422
 7167W        W10911   9.551   2.616  11.970
 7168W        W10912   7.108   4.199   2.868
 7169W        W10913   0.683   6.032  10.738
 7170W        W10914   6.544   1.933  11.913
 7171W        W10915   2.638   4.098  10.947
 7172W        W10916   8.283   6.964   2.632
 7173W        W10917   0.955   8.497   0.903
 7174W        W10918   1.389   0.270   9.549
 7175W        W10919   1.534   5.049   9.335
 7176W        W10920   4.082   4.362   0.575
 7177W        W10921   4.216   8.341   3.655
 7178W        W10922   6.452   6.091   9.757
 7179W        W10923   8.107   2.096   9.990
 7180W        W10924   3.203   8.977   2.463
 7181W        W10925   7.933   0.168   3.478
 7182W        W10926   3.101   3.734   9.996
 7183W        W10927   4.019  10.220  11.403
 7184W        W10928   1.181   5.957   2.890
 7185W        W10929   0.948   1.284   1.890
 7186W        W10930   8.810   8.548   9.446
 7187W        W10931   4.290   6.632   2.898
 7188W        W10932   7.545   6.043   8.854
 7189W        W10933   0.689   1.960   9.377
 7190W        W10934   3.797   0.962   1.759
 7191W        W10935   7.029   0.151   2.137
 7192W        W10936   5.825   2.895   2.067
 7193W        W10937   9.834   8.853   0.057
 7194W        W10938   1.813  10.171  10.521
 7195W        W10939   3.072   2.340   2.359
 7196W        W10940   0.675   1.353   0.058
 7197W        W10941   2.157   2.416   0.633
 7198W        W10942   7.461   4.148   9.320
 7199W        W10943   3.369   0.747  11.386
 7200W        W10944   2.634  10.404   2.652
 7201W        W10945   0.031   5.545   9.038
 7202W        W10946   4.971   1.695   2.986
 7203W        W10947   3.943   4.463   0.100
 7204W        W10948   9.330   4.534   2.394
 7205W        W10949   9.234  10.122  10.379
 7206W        W10950   9.366   0.920   0.394
 7207W        W10951   1.235   2.738   9.287
 7208W        W10952   2.577   4.207   1.907
 7209W        W10953   3.089   5.570   9.772
 7210W        W10954   2.886   8.983   9.515
 7211W        W10955   5.542   6.026  10.758
 7212W        W10956   7.724   7.821   9.821
 7213W        W10957   3.080   2.730   8.862
 7214W        W10958   5.050  10.378   8.738
 7215W        W10959   6.509  10.467   0.002
 7216W        W10960   3.833   3.164   9.762
 7217W        W10961   7.818   6.476   0.171
 7218W        W10962   6.063   2.197   8.462
 7219W        W10963   3.226   3.197  11.060
 7220W        W10964   4.771  10.131   9.375
 7221W        W10965   4.115   7.036   9.785
 7222W        W10966  10.269   9.910   2.721
 7223W        W10967   4.032   2.680   1.955
 7224W        W10968   0.522   0.865   2.229
 7225W        W10969   1.359   1.457   0.753
 7226W        W10970   2.045   1.784   1.779
 7227W        W10971   3.760  10.095   2.156
 7228W        W10972   5.630   4.858  11.351
 7229W        W10973   9.845   7.732   2.256
 7230ION    NA+10974   7.956   6.988   9.041
 7231ION    NA+10975   8.859  10.448  11.962
 7232ION    NA+10976   0.335   6.637   3.619
 7233ION    NA+10977   6.677   1.817   3.043
 7234ION    NA+10978  10.492   3.701  11.504
 7235ION    NA+10979   1.388   8.638   2.942
 7236ION    NA+10980   9.973   6.484   0.960
 7237ION    NA+10981   4.873   0.357   9.402
 7238ION    NA+10982   2.962   4.701   0.194
 7239ION    NA+10983  10.469   0.515   8.828
 7240ION    NA+10984   7.323   4.644   8.152
 7241ION    NA+10985   0.223   9.080   9.268
 7242ION    NA+10986   5.260   7.113  11.038
 7243ION    NA+10987   5.217   3.077   9.039
 7244ION    NA+10988   6.366   8.914  10.119
 7245ION    NA+10989   1.425   6.726   9.827
 7246ION    NA+10990   4.069   1.988  11.058
 7247ION    NA+10991   1.581   0.263   0.942
 7248ION    NA+10992   2.745   0.357  10.829
 7249ION    NA+10993   2.326   2.505   1.712
 7250ION    NA+10994   9.427   0.155   2.028
 7251ION    NA+10995   0.473   7.716   1.363
 7252ION    NA+10996   7.729   0.938   3.836
 7253ION    NA+10997   7.903   3.762   9.776
 7254ION    NA+10998   0.202   5.338  10.833
 7255ION    NA+10999   3.822   4.775  11.191
 7256ION    NA+11000   7.047   1.976   0.528
 7257ION    NA+11001   3.611   9.282   2.397
 7258ION    NA+11002   6.613   3.527   1.861
 7259ION    NA+11003   3.238   6.551   9.438
 7260ION    NA+11004   1.619   4.991   1.343
 7261ION    NA+11005  10.451  10.357   2.960
 7262ION    NA+11006   2.677   1.968  11.111
 7263ION    NA+11007   7.010  10.048   8.981
 7264ION    NA+11008   9.362   3.288   0.790
 7265ION    NA+11009   1.692   1.799  11.070
 7266ION    NA+11010   1.705   2.979   9.167
 7267ION    NA+11011   4.530   6.798   9.590
 7268ION    NA+11012   1.786   7.154  11.527
 7269ION    NA+11013   3.846   0.952   0.618
 7270ION    NA+11014   0.307   9.137   0.320
 7271ION    NA+11015   9.400   1.468  10.451
 7272ION    NA+11016   7.575   2.115  11.350
 7273ION    NA+11017   9.599   5.196   3.482
 7274ION    NA+11018   4.525   5.176   0.086
 7275ION    NA+11019   0.921   5.416   0.126
 7276ION    NA+11020  10.112   9.587   9.543
 7277ION    NA+11021   3.300   6.676   2.602
 7278ION    NA+11022   2.713   9.349   1.953
 7279ION    NA+11023   5.912   9.128  10.984
 7280ION    NA+11024   4.963   3.294   8.097
 7281ION    NA+11025   5.370   4.863   1.646
 7282ION    NA+11026   9.643   3.721  11.130
 7283ION    NA+11027   0.232   5.148   1.847
 7284ION    NA+11028   1.149  10.068  11.626
 7285ION    NA+11029   1.707   0.395  11.002
 7286ION    NA+11030   4.123   8.124   0.992
 7287ION    NA+11031   5.110   2.381   1.254
 7288ION    NA+11032   1.090   9.007  11.839
 7289ION    NA+11033   0.336   8.083   2.793
 7290ION    NA+11034   6.299   9.621   1.883
 7291ION    NA+11035   4.969   4.736   0.901
 7292ION    NA+11036   0.683   0.770   0.738
 7293ION    NA+11037   1.344   9.770   3.340
 7294ION    NA+11038   3.806   0.909  10.055
 7295ION    NA+11039   1.904   7.594  10.008
 7296ION    NA+11040   5.256   5.577  11.739
 7297ION    NA+11041   3.918   0.066   9.438
 7298ION    NA+11042   2.809   0.182   0.525
 7299ION    NA+11043   7.887   0.701   2.241
 7300ION    NA+11044   2.009   0.534   0.006
 7301ION    NA+11045   4.747   3.665   1.933
 7302ION    NA+11046   1.010   8.168  11.888
 7303ION    NA+11047   6.746   7.714   0.640
 7304ION    NA+11048   2.783   7.958   2.314
 7305ION    NA+11049   4.377   8.633   9.933
 7306ION    CL-11050   5.120   4.952   1.278
 7307ION    CL-11051   4.861   5.389  11.862
 7308ION    CL-11052   9.015   2.802  10.250
 7309ION    CL-11053   8.543   1.382   9.470
 7310ION    CL-11054  10.379   3.250   1.754
 7311ION    CL-11055   5.464   6.899   1.462
 7312ION    CL-11056   1.715  10.164   8.590
 7313ION    CL-11057   8.536   8.820   9.800
 7314ION    CL-11058   9.257   0.211  10.891
 7315ION    CL-11059   3.475   2.824   3.375
 7316ION    CL-11060   1.933   8.212   9.700
 7317ION    CL-11061   2.785   3.633   1.103
 7318ION    CL-11062   7.363  10.071   9.267
 7319ION    CL-11063   0.622   7.303   1.265
 7320ION    CL-11064   2.679   1.861  11.546
 7321ION    CL-11065   1.157   8.555  11.705
 7322ION    CL-11066   1.339   2.939  11.727
 7323ION    CL-11067   3.710   8.869   2.261
 7324ION    CL-11068   4.676   0.500   1.910
 7325ION    CL-11069   9.137   2.617   8.830
 7326ION    CL-11070   2.860   0.567   2.001
 7327ION    CL-11071   3.941   0.811   1.034
 7328ION    CL-11072   6.784   9.021  10.005
 7329ION    CL-11073   8.531   9.131   0.523
 7330ION    CL-11074   9.400   4.354   9.612
 7331ION    CL-11075   6.744   9.542   1.927
 7332ION    CL-11076   9.323   3.496  10.900
 7333ION    CL-11077   7.881   8.908  10.608
 7334ION    CL-11078   2.895   4.556   3.238
 7335ION    CL-11079   2.684   1.266   1.308
 7336ION    CL-11080   0.657   9.106   0.011
 7337ION    CL-11081   0.162   8.957   0.714
 7338ION    CL-11082   2.093   3.815   0.405
 7339ION    CL-11083   1.568   2.940   8.730
 7340ION    CL-11084   4.429   9.990  11.946
 7341ION    CL-11085   1.285   8.634   2.500
 7342ION    CL-11086   2.468   7.686   2.471
 7343ION    CL-11087   5.136   9.193   9.477
 7344ION    CL-11088   4.745   9.906  10.312
 7345ION    CL-11089   8.284   5.240   8.773
 7346ION    CL-11090   6.570   1.416   3.228
 7347ION    CL-11091  10.064   3.723  11.348
 7348ION    CL-11092   9.867   8.042   1.794
 7349ION    CL-11093   6.859   7.075   0.985
 7350ION    CL-11094   2.257   1.890   0.511
 7351ION    CL-11095   5.073   2.896   9.420
 7352ION    CL-11096   0.000   9.360   9.547
 7353ION    CL-11097   4.208   3.698   3.719
 7354ION    CL-11098   5.846   7.814   1.166
 7355ION    CL-11099   2.517   4.696   0.198
 7356ION    CL-11100   3.138   5.191   8.851
 7357ION    CL-11101   4.856   4.567  10.705
 7358ION    CL-11102   7.175   8.372   1.768
 7359ION    CL-11103   4.025   2.363  11.296
 7360ION    CL-11104   1.247   9.097  10.119
 7361ION    CL-11105   6.792   9.932   8.589
 7362ION    CL-11106   7.995   4.510   1.384
 7363ION    CL-11107   0.255   9.914   0.441
 7364ION    CL-11108   2.597   6.476  11.898
 7365ION    CL-11109   8.000   6.120   9.544
 7366ION    CL-11110   1.393   8.673   3.418
 7367ION    CL-11111   9.257   5.035   8.659
 7368ION    CL-11112   0.619   5.196  10.909
 7369ION    CL-11113   5.155   3.464   4.112
 7370ION    CL-11114   6.962   7.982   0.355
 7371ION    CL-11115   5.853   9.681   1.815
 7372ION    CL-11116   4.026   5.076  10.935
 7373ION    CL-11117   3.477   6.857   2.970
 7374ION    CL-11118   0.572   1.148   0.531
 7375ION    CL-11119   8.473   8.199  10.991
 7376ION    CL-11120   8.927   6.948  10.792
 7377ION    CL-11121   8.447  10.087   3.105
 7378ION    CL-11122   4.197   2.294   9.382
 7379ION    CL-11123   2.936   0.815   8.933
 7380ION    CL-11124   2.231   2.890   1.505
 7381ION    CL-11125   1.318   9.798  11.944
  10.50000  10.50000  12.00000
